Protein in INSANE! Membrane UpperLeaflet>POPC=1.0 LowerLeaflet>POPC=1.0
241526
    1AU     AUC    1   4.384  25.306   7.509
    1AU     AUC    2   4.675  25.316   7.341
    1AU     AUC    3   4.643  25.299   7.686
    1AU     AUC    4   4.101  25.300   7.337
    1AU     AUC    5   4.111  25.337   7.688
    1AU     AUC    6   4.216  25.585   7.505
    1AU     AUC    7   4.584  25.585   7.504
    1AU     AUC    8   4.192  25.036   7.510
    1AU     AUC    9   4.548  25.016   7.510
    1AU     AUC   10   4.376  25.130   7.786
    1AU     AUC   11   4.378  25.480   7.780
    1AU     AUC   12   4.387  25.144   7.233
    1AU     AUC   13   4.411  25.462   7.233
    1AU     AUC   14   4.993  25.317   7.181
    1AU     AUC   15   4.991  25.280   7.542
    1AU     AUC   16   4.924  25.273   7.892
    1AU     AUC   17   3.800  25.297   7.163
    1AU     AUC   18   3.775  25.332   7.526
    1AU     AUC   19   3.818  25.367   7.866
    1AU     AUC   20   4.054  25.895   7.474
    1AU     AUC   21   4.415  25.902   7.468
    1AU     AUC   22   4.795  25.854   7.497
    1AU     AUC   23   3.995  24.761   7.507
    1AU     AUC   24   4.348  24.706   7.490
    1AU     AUC   25   4.716  24.714   7.497
    1AU     AUC   26   4.351  24.952   8.073
    1AU     AUC   27   4.384  25.327   8.120
    1AU     AUC   28   4.394  25.663   8.064
    1AU     AUC   29   4.421  24.971   6.953
    1AU     AUC   30   4.414  25.294   6.897
    1AU     AUC   31   4.399  25.617   6.937
    1AU     AUC   32   4.635  25.099   8.016
    1AU     AUC   33   4.686  25.458   8.014
    1AU     AUC   34   4.739  25.162   7.016
    1AU     AUC   35   4.727  25.485   7.047
    1AU     AUC   36   4.066  25.172   8.013
    1AU     AUC   37   4.096  25.546   7.986
    1AU     AUC   38   4.093  25.122   7.041
    1AU     AUC   39   4.073  25.436   6.998
    1AU     AUC   40   4.935  25.598   7.352
    1AU     AUC   41   4.888  25.589   7.697
    1AU     AUC   42   3.894  25.604   7.326
    1AU     AUC   43   3.914  25.657   7.678
    1AU     AUC   44   4.871  25.003   7.352
    1AU     AUC   45   4.822  24.961   7.701
    1AU     AUC   46   3.861  25.005   7.354
    1AU     AUC   47   3.908  25.052   7.713
    1AU     AUC   48   4.233  25.845   7.768
    1AU     AUC   49   4.587  25.778   7.765
    1AU     AUC   50   4.174  24.833   7.801
    1AU     AUC   51   4.500  24.781   7.782
    1AU     AUC   52   4.212  25.740   7.192
    1AU     AUC   53   4.600  25.779   7.205
    1AU     AUC   54   4.193  24.838   7.210
    1AU     AUC   55   4.587  24.855   7.218
    1AU    AUSL   56   4.904  25.188   8.259
    1AU    AUSL   57   4.634  24.779   8.177
    1AU     AUL   58   4.891  24.786   8.445
    1AU       S   59   4.996  24.454   8.149
    1AU     LIG   60   4.845  24.271   8.524
    1AU     LIG   61   4.985  23.892   8.749
    1AU     LIG   62   5.235  23.555   8.972
    1AU     LIG   63   5.484  23.355   9.310
    1AU     LIG   64   5.598  23.337   9.764
    1AU       S   65   5.129  25.154   8.333
    1AU     LIG   66   5.068  25.089   8.814
    1AU     LIG   67   5.295  24.977   9.235
    1AU     LIG   68   5.639  24.978   9.586
    1AU     LIG   69   6.052  25.056   9.844
    1AU     LIG   70   6.336  25.206  10.208
    1AU    AUSL   71   4.488  25.123   8.397
    1AU    AUSL   72   4.225  25.495   8.405
    1AU     AUL   73   4.415  25.445   8.747
    1AU       S   74   4.549  25.066   8.542
    1AU     LIG   75   4.564  24.983   8.949
    1AU     LIG   76   4.816  24.771   9.276
    1AU     LIG   77   4.963  24.554   9.677
    1AU     LIG   78   5.007  24.384  10.125
    1AU     LIG   79   5.225  24.344  10.547
    1AU       S   80   4.025  25.239   8.625
    1AU     LIG   81   4.066  25.193   9.095
    1AU     LIG   82   3.798  25.152   9.490
    1AU     LIG   83   3.620  25.172   9.930
    1AU     LIG   84   3.507  25.427  10.314
    1AU     LIG   85   3.456  25.757  10.657
    1AU    AUSL   86   4.637  25.536   8.354
    1AU    AUSL   87   5.018  25.582   8.130
    1AU     AUL   88   4.892  25.478   8.538
    1AU       S   89   4.533  25.854   8.488
    1AU     LIG   90   4.758  25.826   8.883
    1AU     LIG   91   4.973  25.925   9.302
    1AU     LIG   92   4.949  25.984   9.794
    1AU     LIG   93   5.010  26.116  10.256
    1AU     LIG   94   5.249  26.153  10.662
    1AU       S   95   5.087  25.826   8.301
    1AU     LIG   96   5.500  25.720   8.367
    1AU     LIG   97   5.813  25.925   8.655
    1AU     LIG   98   6.072  26.173   8.965
    1AU     LIG   99   6.304  26.421   9.281
    1AU     LIG  100   6.657  26.375   9.600
    1AU    AUSL  101   4.956  25.447   6.770
    1AU    AUSL  102   4.739  25.776   6.968
    1AU     AUL  103   4.782  25.836   6.615
    1AU       S  104   4.949  25.501   6.350
    1AU     LIG  105   5.293  25.305   6.149
    1AU     LIG  106   5.373  25.003   5.825
    1AU     LIG  107   5.475  24.947   5.374
    1AU     LIG  108   5.656  25.006   4.938
    1AU     LIG  109   6.007  24.970   4.603
    1AU       S  110   5.146  26.000   6.857
    1AU     LIG  111   5.301  26.175   6.456
    1AU     LIG  112   5.514  26.362   6.077
    1AU     LIG  113   5.742  26.557   5.714
    1AU     LIG  114   5.681  26.681   5.254
    1AU     LIG  115   5.723  26.990   4.894
    1AU    AUSL  116   4.728  25.109   6.623
    1AU    AUSL  117   5.078  25.073   6.950
    1AU     AUL  118   5.142  25.185   6.637
    1AU       S  119   5.228  24.732   6.723
    1AU     LIG  120   5.350  24.348   6.436
    1AU     LIG  121   5.544  23.914   6.381
    1AU     LIG  122   5.814  23.653   6.080
    1AU     LIG  123   6.170  23.662   5.742
    1AU     LIG  124   6.520  23.766   5.412
    1AU       S  125   4.817  25.339   6.325
    1AU     LIG  126   4.916  24.946   6.160
    1AU     LIG  127   4.935  24.746   5.736
    1AU     LIG  128   5.018  24.722   5.269
    1AU     LIG  129   5.043  24.686   4.795
    1AU     LIG  130   5.171  24.564   4.354
    1AU    AUSL  131   4.530  25.472   6.750
    1AU    AUSL  132   4.304  25.092   6.717
    1AU     AUL  133   4.460  25.088   6.456
    1AU       S  134   4.009  25.141   6.308
    1AU     LIG  135   4.073  24.820   6.067
    1AU     LIG  136   3.900  24.723   5.651
    1AU     LIG  137   3.650  24.674   5.256
    1AU     LIG  138   3.495  24.626   4.806
    1AU     LIG  139   3.521  24.411   4.364
    1AU       S  140   4.600  25.515   6.333
    1AU     LIG  141   4.723  25.334   5.854
    1AU     LIG  142   5.018  25.201   5.497
    1AU     LIG  143   5.151  25.173   5.035
    1AU     LIG  144   5.153  25.396   4.616
    1AU     LIG  145   5.195  25.601   4.185
    1AU    AUSL  146   3.833  25.441   8.234
    1AU    AUSL  147   4.144  25.793   8.118
    1AU     AUL  148   3.995  25.735   8.454
    1AU       S  149   3.832  25.340   8.671
    1AU     LIG  150   3.631  24.978   8.861
    1AU     LIG  151   3.406  24.895   9.261
    1AU     LIG  152   3.212  24.987   9.679
    1AU     LIG  153   2.917  24.991  10.045
    1AU     LIG  154   2.555  25.118  10.314
    1AU       S  155   3.722  26.040   8.193
    1AU     LIG  156   3.752  26.163   8.609
    1AU     LIG  157   3.572  26.423   8.944
    1AU     LIG  158   3.454  26.582   9.362
    1AU     LIG  159   3.395  26.862   9.732
    1AU     LIG  160   3.232  27.248   9.942
    1AU    AUSL  161   4.135  25.148   8.165
    1AU    AUSL  162   3.718  25.025   8.129
    1AU     AUL  163   3.625  25.254   8.270
    1AU       S  164   3.621  24.797   8.375
    1AU     LIG  165   3.196  24.799   8.242
    1AU     LIG  166   2.879  24.464   8.310
    1AU     LIG  167   2.634  24.147   8.576
    1AU     LIG  168   2.437  23.899   8.929
    1AU     LIG  169   2.221  23.637   9.258
    1AU       S  170   4.016  25.095   8.538
    1AU     LIG  171   4.108  24.767   8.829
    1AU     LIG  172   3.891  24.700   9.251
    1AU     LIG  173   3.651  24.682   9.685
    1AU     LIG  174   3.494  24.479  10.107
    1AU     LIG  175   3.467  24.313  10.574
    1AU    AUSL  176   3.899  25.216   6.776
    1AU    AUSL  177   4.072  24.835   6.956
    1AU     AUL  178   4.098  24.821   6.627
    1AU       S  179   3.793  25.129   6.459
    1AU     LIG  180   3.562  24.926   6.136
    1AU     LIG  181   3.417  24.904   5.694
    1AU     LIG  182   3.239  24.990   5.262
    1AU     LIG  183   2.871  25.000   4.956
    1AU     LIG  184   2.515  25.094   4.636
    1AU       S  185   3.682  24.679   6.762
    1AU     LIG  186   3.543  24.222   6.703
    1AU     LIG  187   3.214  24.024   6.458
    1AU     LIG  188   2.876  23.943   6.138
    1AU     LIG  189   2.714  23.665   5.782
    1AU     LIG  190   2.699  23.500   5.329
    1AU    AUSL  191   4.159  25.505   6.569
    1AU    AUSL  192   3.684  25.559   6.914
    1AU     AUL  193   3.813  25.570   6.586
    1AU       S  194   3.400  25.740   6.735
    1AU     LIG  195   3.455  25.808   6.250
    1AU     LIG  196   3.292  26.085   5.882
    1AU     LIG  197   2.913  26.212   5.590
    1AU     LIG  198   2.486  26.276   5.346
    1AU     LIG  199   2.124  26.480   5.096
    1AU       S  200   4.098  25.357   6.280
    1AU     LIG  201   3.853  25.254   5.854
    1AU     LIG  202   3.745  25.167   5.406
    1AU     LIG  203   3.647  25.129   4.957
    1AU     LIG  204   3.726  25.382   4.565
    1AU     LIG  205   3.696  25.639   4.168
    1AU    AUSL  206   5.230  25.782   7.519
    1AU    AUSL  207   5.098  25.577   7.143
    1AU     AUL  208   5.465  25.758   7.182
    1AU       S  209   5.191  25.843   6.844
    1AU     LIG  210   5.412  25.672   6.528
    1AU     LIG  211   5.736  25.926   6.286
    1AU     LIG  212   6.016  26.239   6.042
    1AU     LIG  213   6.304  26.318   5.660
    1AU     LIG  214   6.648  26.453   5.345
    1AU       S  215   5.601  25.869   7.609
    1AU     LIG  216   6.003  25.853   7.332
    1AU     LIG  217   6.487  25.901   7.407
    1AU     LIG  218   6.893  26.149   7.535
    1AU     LIG  219   7.253  26.295   7.812
    1AU     LIG  220   7.413  26.730   7.871
    1AU    AUSL  221   5.366  25.379   7.423
    1AU    AUSL  222   5.269  25.078   7.762
    1AU     AUL  223   5.501  25.265   7.861
    1AU       S  224   5.668  25.464   7.473
    1AU     LIG  225   6.072  25.308   7.321
    1AU     LIG  226   6.555  25.395   7.292
    1AU     LIG  227   6.958  25.480   7.011
    1AU     LIG  228   7.365  25.719   6.972
    1AU     LIG  229   7.454  26.195   6.884
    1AU       S  230   5.545  24.838   7.638
    1AU     LIG  231   5.899  24.533   7.651
    1AU     LIG  232   6.330  24.326   7.686
    1AU     LIG  233   6.799  24.212   7.729
    1AU     LIG  234   7.268  24.281   7.785
    1AU     LIG  235   7.741  24.175   7.855
    1AU    AUSL  236   5.070  25.446   7.739
    1AU    AUSL  237   4.990  25.919   7.839
    1AU     AUL  238   5.283  25.684   7.901
    1AU       S  239   5.191  26.084   8.133
    1AU     LIG  240   5.445  26.242   8.472
    1AU     LIG  241   5.782  26.484   8.684
    1AU     LIG  242   6.118  26.740   8.895
    1AU     LIG  243   6.373  27.131   8.918
    1AU     LIG  244   6.371  27.600   8.899
    1AU       S  245   5.675  25.648   7.662
    1AU     LIG  246   6.123  25.581   7.752
    1AU     LIG  247   6.583  25.609   7.820
    1AU     LIG  248   6.957  25.861   7.960
    1AU     LIG  249   7.412  25.823   7.944
    1AU     LIG  250   7.791  26.110   8.040
    1AU    AUSL  251   3.725  25.883   7.509
    1AU    AUSL  252   3.795  25.676   7.891
    1AU     AUL  253   3.480  25.979   7.734
    1AU       S  254   3.639  25.844   8.140
    1AU     LIG  255   3.483  25.713   8.528
    1AU     LIG  256   3.323  25.966   8.902
    1AU     LIG  257   3.036  26.198   9.227
    1AU     LIG  258   2.619  26.235   9.503
    1AU     LIG  259   2.176  26.319   9.699
    1AU       S  260   3.726  26.260   7.432
    1AU     LIG  261   3.331  26.455   7.576
    1AU     LIG  262   2.974  26.789   7.542
    1AU     LIG  263   2.548  27.026   7.514
    1AU     LIG  264   2.095  27.051   7.640
    1AU     LIG  265   1.845  27.414   7.647
    1AU    AUSL  266   3.680  25.491   7.323
    1AU    AUSL  267   3.813  25.930   7.101
    1AU     AUL  268   3.502  25.810   7.196
    1AU       S  269   3.305  25.307   6.971
    1AU     LIG  270   2.947  25.651   7.037
    1AU     LIG  271   2.477  25.905   6.980
    1AU     LIG  272   1.992  26.137   6.934
    1AU     LIG  273   1.491  26.337   6.906
    1AU     LIG  274   0.985  26.356   6.801
    1AU       S  275   3.648  26.187   6.940
    1AU     LIG  276   3.810  26.521   6.688
    1AU     LIG  277   3.684  26.932   6.448
    1AU     LIG  278   3.311  27.239   6.298
    1AU     LIG  279   2.979  27.499   6.058
    1AU     LIG  280   2.682  27.861   6.130
    1AU    AUSL  281   3.460  25.526   7.699
    1AU    AUSL  282   3.432  25.164   7.395
    1AU     AUL  283   3.274  25.481   7.417
    1AU       S  284   3.213  25.071   7.657
    1AU     LIG  285   2.889  25.138   7.329
    1AU     LIG  286   2.383  25.075   7.294
    1AU     LIG  287   1.887  24.928   7.303
    1AU     LIG  288   1.528  24.629   7.122
    1AU     LIG  289   1.128  24.399   7.011
    1AU       S  290   3.332  25.527   7.924
    1AU     LIG  291   3.083  25.883   8.076
    1AU     LIG  292   2.602  26.049   8.121
    1AU     LIG  293   2.113  26.208   8.125
    1AU     LIG  294   1.628  26.380   8.093
    1AU     LIG  295   1.141  26.378   8.186
    1AU    AUSL  296   5.080  24.729   7.571
    1AU    AUSL  297   4.885  24.984   7.896
    1AU     AUL  298   5.201  24.853   7.975
    1AU       S  299   5.342  24.629   7.573
    1AU     LIG  300   5.550  24.394   7.286
    1AU     LIG  301   5.884  24.073   7.400
    1AU     LIG  302   6.299  23.859   7.475
    1AU     LIG  303   6.759  23.748   7.506
    1AU     LIG  304   7.107  23.446   7.610
    1AU       S  305   5.122  24.406   7.974
    1AU     LIG  306   5.305  24.109   8.325
    1AU     LIG  307   5.500  23.887   8.671
    1AU     LIG  308   5.759  23.618   8.950
    1AU     LIG  309   6.105  23.584   9.274
    1AU     LIG  310   6.543  23.601   9.483
    1AU    AUSL  311   5.065  25.104   7.367
    1AU    AUSL  312   5.005  24.689   7.155
    1AU     AUL  313   5.279  24.883   7.186
    1AU       S  314   5.614  24.955   7.476
    1AU     LIG  315   5.890  24.774   7.194
    1AU     LIG  316   6.195  24.420   7.195
    1AU     LIG  317   6.613  24.202   7.249
    1AU     LIG  318   7.083  24.215   7.273
    1AU     LIG  319   7.467  24.067   7.025
    1AU       S  320   5.212  24.518   6.888
    1AU     LIG  321   5.190  24.035   6.822
    1AU     LIG  322   5.246  23.565   6.657
    1AU     LIG  323   5.416  23.180   6.425
    1AU     LIG  324   5.713  22.903   6.200
    1AU     LIG  325   6.036  22.559   6.260
    1AU    AUSL  326   3.621  24.799   7.544
    1AU    AUSL  327   3.730  25.042   7.124
    1AU     AUL  328   3.376  24.883   7.246
    1AU       S  329   3.590  24.862   6.840
    1AU     LIG  330   3.178  24.591   6.775
    1AU     LIG  331   2.814  24.339   6.567
    1AU     LIG  332   2.438  24.111   6.381
    1AU     LIG  333   2.314  23.945   5.961
    1AU     LIG  334   2.119  23.841   5.546
    1AU       S  335   3.188  24.815   7.670
    1AU     LIG  336   2.939  24.447   7.627
    1AU     LIG  337   2.529  24.294   7.791
    1AU     LIG  338   2.070  24.317   7.906
    1AU     LIG  339   1.614  24.233   7.823
    1AU     LIG  340   1.394  23.903   7.566
    1AU    AUSL  341   3.690  25.179   7.742
    1AU    AUSL  342   3.930  24.798   7.837
    1AU     AUL  343   3.591  24.790   7.887
    1AU       S  344   3.640  24.553   8.270
    1AU     LIG  345   3.302  24.364   8.001
    1AU     LIG  346   2.939  24.043   8.031
    1AU     LIG  347   2.735  23.712   8.322
    1AU     LIG  348   2.511  23.455   8.675
    1AU     LIG  349   2.350  23.185   9.038
    1AU       S  350   3.228  25.074   7.819
    1AU     LIG  351   2.717  24.906   7.759
    1AU     LIG  352   2.272  24.733   7.659
    1AU     LIG  353   1.831  24.776   7.807
    1AU     LIG  354   1.426  24.693   7.629
    1AU     LIG  355   1.116  24.364   7.718
    1AU    AUSL  356   4.397  26.105   7.980
    1AU    AUSL  357   3.989  26.047   7.804
    1AU     AUL  358   4.178  26.131   8.213
    1AU       S  359   3.850  26.241   7.902
    1AU     LIG  360   3.685  26.538   8.244
    1AU     LIG  361   3.541  26.837   8.607
    1AU     LIG  362   3.425  27.279   8.803
    1AU     LIG  363   3.077  27.582   8.963
    1AU     LIG  364   2.631  27.702   9.090
    1AU       S  365   4.451  26.441   7.949
    1AU     LIG  366   4.552  26.516   8.341
    1AU     LIG  367   4.608  26.958   8.505
    1AU     LIG  368   4.517  27.386   8.728
    1AU     LIG  369   4.474  27.643   9.147
    1AU     LIG  370   4.600  27.951   9.505
    1AU    AUSL  371   4.268  26.249   7.563
    1AU    AUSL  372   4.564  26.150   7.228
    1AU     AUL  373   4.522  26.496   7.334
    1AU       S  374   4.288  26.500   7.743
    1AU     LIG  375   4.356  26.917   8.017
    1AU     LIG  376   4.346  27.325   8.233
    1AU     LIG  377   4.319  27.755   8.370
    1AU     LIG  378   4.019  28.106   8.401
    1AU     LIG  379   4.087  28.543   8.599
    1AU       S  380   4.257  26.392   6.978
    1AU     LIG  381   4.634  26.686   6.884
    1AU     LIG  382   4.953  27.049   6.870
    1AU     LIG  383   5.299  27.398   6.839
    1AU     LIG  384   5.363  27.828   6.664
    1AU     LIG  385   5.137  28.244   6.670
    1AU    AUSL  386   4.648  26.048   7.636
    1AU    AUSL  387   4.632  25.761   8.012
    1AU     AUL  388   4.729  26.086   8.062
    1AU       S  389   4.991  25.964   8.415
    1AU     LIG  390   5.259  25.890   8.791
    1AU     LIG  391   5.544  26.168   9.029
    1AU     LIG  392   5.780  26.529   9.219
    1AU     LIG  393   5.817  26.912   9.494
    1AU     LIG  394   5.768  27.066   9.945
    1AU       S  395   4.715  26.398   7.733
    1AU     LIG  396   4.851  26.770   8.002
    1AU     LIG  397   4.874  27.236   8.151
    1AU     LIG  398   5.135  27.659   8.233
    1AU     LIG  399   5.230  28.136   8.324
    1AU     LIG  400   5.350  28.619   8.375
    1AU    AUSL  401   4.323  24.614   7.931
    1AU    AUSL  402   4.738  24.597   7.787
    1AU     AUL  403   4.530  24.469   8.161
    1AU       S  404   4.316  24.101   7.981
    1AU     LIG  405   4.415  23.766   8.247
    1AU     LIG  406   4.217  23.379   8.354
    1AU     LIG  407   4.210  22.931   8.422
    1AU     LIG  408   4.239  22.602   8.741
    1AU     LIG  409   4.134  22.415   9.164
    1AU       S  410   4.887  24.390   7.852
    1AU     LIG  411   4.856  23.982   8.105
    1AU     LIG  412   5.095  23.619   8.326
    1AU     LIG  413   5.463  23.392   8.535
    1AU     LIG  414   5.642  23.113   8.874
    1AU     LIG  415   5.842  22.700   8.982
    1AU    AUSL  416   4.012  24.437   7.651
    1AU    AUSL  417   4.088  24.746   8.249
    1AU     AUL  418   4.006  24.462   8.012
    1AU       S  419   4.128  24.042   7.822
    1AU     LIG  420   4.130  23.568   7.853
    1AU     LIG  421   4.081  23.094   7.942
    1AU     LIG  422   3.832  22.696   8.082
    1AU     LIG  423   3.558  22.277   8.039
    1AU     LIG  424   3.485  21.829   8.199
    1AU       S  425   3.835  24.642   8.437
    1AU     LIG  426   3.370  24.430   8.634
    1AU     LIG  427   3.133  24.043   8.526
    1AU     LIG  428   2.920  23.742   8.805
    1AU     LIG  429   2.723  23.525   9.168
    1AU     LIG  430   2.692  23.378   9.614
    1AU    AUSL  431   4.441  24.359   7.607
    1AU    AUSL  432   4.215  24.593   7.309
    1AU     AUL  433   4.089  24.254   7.407
    1AU       S  434   4.451  24.171   7.147
    1AU     LIG  435   4.050  23.926   7.031
    1AU     LIG  436   4.022  23.473   7.038
    1AU     LIG  437   4.046  23.017   6.917
    1AU     LIG  438   3.837  22.610   6.790
    1AU     LIG  439   3.556  22.223   6.894
    1AU       S  440   4.450  24.156   7.736
    1AU     LIG  441   4.612  23.712   7.772
    1AU     LIG  442   4.572  23.299   7.985
    1AU     LIG  443   4.550  22.837   8.048
    1AU     LIG  444   4.795  22.491   8.252
    1AU     LIG  445   5.165  22.166   8.242
    1AU    AUSL  446   4.378  25.960   6.865
    1AU    AUSL  447   4.941  25.978   7.286
    1AU     AUL  448   4.716  26.161   6.956
    1AU       S  449   4.308  26.315   6.760
    1AU     LIG  450   4.252  26.731   6.546
    1AU     LIG  451   4.462  27.075   6.295
    1AU     LIG  452   4.654  27.244   5.871
    1AU     LIG  453   4.718  27.602   5.559
    1AU     LIG  454   4.653  27.995   5.324
    1AU       S  455   5.148  26.103   7.136
    1AU     LIG  456   5.600  26.176   6.892
    1AU     LIG  457   5.793  26.401   6.507
    1AU     LIG  458   5.884  26.769   6.189
    1AU     LIG  459   6.039  27.249   6.104
    1AU     LIG  460   6.413  27.498   5.922
    1AU    AUSL  461   4.186  25.965   7.266
    1AU    AUSL  462   4.110  25.644   6.958
    1AU     AUL  463   4.041  25.943   6.827
    1AU       S  464   4.109  26.319   7.115
    1AU     LIG  465   4.059  26.828   7.033
    1AU     LIG  466   4.145  27.203   6.752
    1AU     LIG  467   4.115  27.683   6.705
    1AU     LIG  468   4.096  28.171   6.721
    1AU     LIG  469   4.046  28.648   6.705
    1AU       S  470   3.599  25.981   6.695
    1AU     LIG  471   3.872  26.105   6.373
    1AU     LIG  472   3.775  26.324   5.963
    1AU     LIG  473   3.705  26.496   5.516
    1AU     LIG  474   3.483  26.731   5.163
    1AU     LIG  475   3.196  27.052   4.985
    1AU    AUSL  476   4.411  24.580   6.919
    1AU    AUSL  477   3.809  24.612   7.217
    1AU     AUL  478   4.078  24.452   6.969
    1AU       S  479   3.636  24.577   7.021
    1AU     LIG  480   3.324  24.365   7.217
    1AU     LIG  481   3.049  24.087   6.958
    1AU     LIG  482   2.782  23.821   6.652
    1AU     LIG  483   2.533  23.603   6.308
    1AU     LIG  484   2.327  23.371   5.963
    1AU       S  485   4.466  24.172   6.926
    1AU     LIG  486   4.491  23.731   6.808
    1AU     LIG  487   4.324  23.343   6.628
    1AU     LIG  488   4.251  22.946   6.394
    1AU     LIG  489   4.387  22.720   5.997
    1AU     LIG  490   4.290  22.356   5.702
    1AU    AUSL  491   4.640  24.578   7.313
    1AU    AUSL  492   4.671  24.901   6.977
    1AU     AUL  493   4.753  24.530   6.955
    1AU       S  494   4.670  24.171   7.244
    1AU     LIG  495   4.432  23.714   7.311
    1AU     LIG  496   4.496  23.270   7.123
    1AU     LIG  497   4.545  22.907   6.812
    1AU     LIG  498   4.862  22.558   6.700
    1AU     LIG  499   5.054  22.150   6.855
    1AU       S  500   4.994  24.717   6.622
    1AU     LIG  501   4.846  24.288   6.529
    1AU     LIG  502   5.028  23.899   6.330
    1AU     LIG  503   5.287  23.552   6.102
    1AU     LIG  504   5.569  23.263   5.832
    1AU     LIG  505   5.675  23.094   5.396
    2AU     AUC  506  15.051  31.354   7.502
    2AU     AUC  507  15.324  31.373   7.321
    2AU     AUC  508  15.317  31.345   7.673
    2AU     AUC  509  14.765  31.343   7.335
    2AU     AUC  510  14.786  31.379   7.689
    2AU     AUC  511  14.880  31.630   7.501
    2AU     AUC  512  15.231  31.639   7.488
    2AU     AUC  513  14.868  31.079   7.510
    2AU     AUC  514  15.219  31.065   7.499
    2AU     AUC  515  15.055  31.176   7.780
    2AU     AUC  516  15.049  31.541   7.767
    2AU     AUC  517  15.047  31.189   7.225
    2AU     AUC  518  15.059  31.511   7.221
    2AU     AUC  519  15.635  31.386   7.153
    2AU     AUC  520  15.654  31.337   7.513
    2AU     AUC  521  15.609  31.320   7.864
    2AU     AUC  522  14.466  31.324   7.167
    2AU     AUC  523  14.446  31.368   7.532
    2AU     AUC  524  14.502  31.403   7.879
    2AU     AUC  525  14.713  31.929   7.486
    2AU     AUC  526  15.076  31.974   7.460
    2AU     AUC  527  15.409  31.927   7.479
    2AU     AUC  528  14.679  30.801   7.516
    2AU     AUC  529  15.030  30.751   7.491
    2AU     AUC  530  15.390  30.767   7.481
    2AU     AUC  531  15.041  30.995   8.071
    2AU     AUC  532  15.057  31.361   8.101
    2AU     AUC  533  15.080  31.718   8.060
    2AU     AUC  534  15.078  31.016   6.944
    2AU     AUC  535  15.053  31.349   6.886
    2AU     AUC  536  15.032  31.676   6.918
    2AU     AUC  537  15.325  31.132   7.995
    2AU     AUC  538  15.367  31.514   7.987
    2AU     AUC  539  15.383  31.226   6.992
    2AU     AUC  540  15.360  31.546   7.024
    2AU     AUC  541  14.755  31.218   8.021
    2AU     AUC  542  14.777  31.593   7.999
    2AU     AUC  543  14.749  31.155   7.043
    2AU     AUC  544  14.723  31.478   6.995
    2AU     AUC  545  15.572  31.654   7.337
    2AU     AUC  546  15.526  31.621   7.687
    2AU     AUC  547  14.565  31.637   7.316
    2AU     AUC  548  14.579  31.687   7.683
    2AU     AUC  549  15.533  31.061   7.330
    2AU     AUC  550  15.498  31.006   7.686
    2AU     AUC  551  14.536  31.038   7.367
    2AU     AUC  552  14.590  31.091   7.723
    2AU     AUC  553  14.897  31.874   7.770
    2AU     AUC  554  15.247  31.840   7.775
    2AU     AUC  555  14.865  30.874   7.808
    2AU     AUC  556  15.186  30.826   7.775
    2AU     AUC  557  14.866  31.789   7.185
    2AU     AUC  558  15.236  31.843   7.196
    2AU     AUC  559  14.865  30.878   7.209
    2AU     AUC  560  15.260  30.907   7.202
    2AU    AUSL  561  15.591  31.252   8.233
    2AU    AUSL  562  15.318  30.841   8.153
    2AU     AUL  563  15.613  30.850   8.367
    2AU       S  564  15.704  30.490   8.105
    2AU     LIG  565  15.601  30.328   8.484
    2AU     LIG  566  15.780  30.022   8.765
    2AU     LIG  567  16.038  29.682   8.958
    2AU     LIG  568  16.334  29.420   9.214
    2AU     LIG  569  16.446  29.314   9.654
    2AU       S  570  15.818  31.252   8.358
    2AU     LIG  571  15.671  31.247   8.798
    2AU     LIG  572  15.824  31.147   9.230
    2AU     LIG  573  16.180  31.048   9.540
    2AU     LIG  574  16.589  31.042   9.800
    2AU     LIG  575  16.956  31.061  10.104
    2AU    AUSL  576  15.193  31.169   8.402
    2AU    AUSL  577  14.937  31.544   8.428
    2AU     AUL  578  15.141  31.478   8.743
    2AU       S  579  15.271  31.090   8.549
    2AU     LIG  580  15.202  31.026   8.981
    2AU     LIG  581  15.404  30.870   9.391
    2AU     LIG  582  15.554  30.689   9.822
    2AU     LIG  583  15.680  30.599  10.288
    2AU     LIG  584  15.758  30.423  10.731
    2AU       S  585  14.743  31.274   8.652
    2AU     LIG  586  14.718  31.260   9.137
    2AU     LIG  587  14.452  31.210   9.534
    2AU     LIG  588  14.309  31.209   9.983
    2AU     LIG  589  14.253  31.469  10.378
    2AU     LIG  590  14.154  31.718  10.775
    2AU    AUSL  591  15.257  31.541   8.161
    2AU    AUSL  592  15.697  31.643   8.092
    2AU     AUL  593  15.487  31.557   8.443
    2AU       S  594  15.153  31.928   8.577
    2AU     LIG  595  15.504  31.822   8.881
    2AU     LIG  596  15.709  31.939   9.308
    2AU     LIG  597  15.714  32.101   9.777
    2AU     LIG  598  15.791  32.135  10.253
    2AU     LIG  599  15.765  31.966  10.696
    2AU       S  600  15.859  31.781   8.271
    2AU     LIG  601  16.270  31.754   8.335
    2AU     LIG  602  16.516  31.962   8.683
    2AU     LIG  603  16.751  32.202   9.017
    2AU     LIG  604  16.954  32.410   9.387
    2AU     LIG  605  17.320  32.409   9.684
    2AU    AUSL  606  15.575  31.501   6.759
    2AU    AUSL  607  15.345  31.818   6.954
    2AU     AUL  608  15.489  31.871   6.612
    2AU       S  609  15.528  31.545   6.295
    2AU     LIG  610  15.875  31.327   6.077
    2AU     LIG  611  15.903  31.097   5.668
    2AU     LIG  612  16.212  30.990   5.316
    2AU     LIG  613  16.625  30.893   5.070
    2AU     LIG  614  16.868  30.864   4.663
    2AU       S  615  15.813  32.084   6.872
    2AU     LIG  616  15.876  32.268   6.473
    2AU     LIG  617  16.095  32.420   6.069
    2AU     LIG  618  16.390  32.635   5.773
    2AU     LIG  619  16.590  32.880   5.431
    2AU     LIG  620  16.543  33.163   5.032
    2AU    AUSL  621  15.358  31.166   6.597
    2AU    AUSL  622  15.744  31.148   6.930
    2AU     AUL  623  15.762  31.269   6.600
    2AU       S  624  15.929  30.847   6.718
    2AU     LIG  625  16.037  30.489   6.407
    2AU     LIG  626  16.261  30.088   6.293
    2AU     LIG  627  16.519  29.786   6.032
    2AU     LIG  628  16.888  29.757   5.735
    2AU     LIG  629  17.245  29.960   5.496
    2AU       S  630  15.433  31.408   6.287
    2AU     LIG  631  15.438  31.036   6.043
    2AU     LIG  632  15.442  30.829   5.608
    2AU     LIG  633  15.506  30.748   5.136
    2AU     LIG  634  15.738  30.610   4.741
    2AU     LIG  635  15.852  30.660   4.285
    2AU    AUSL  636  15.152  31.544   6.684
    2AU    AUSL  637  14.948  31.143   6.732
    2AU     AUL  638  15.092  31.152   6.441
    2AU       S  639  14.665  31.179   6.284
    2AU     LIG  640  14.835  31.008   5.903
    2AU     LIG  641  14.644  30.749   5.536
    2AU     LIG  642  14.374  30.628   5.151
    2AU     LIG  643  14.090  30.450   4.809
    2AU     LIG  644  14.000  30.411   4.333
    2AU       S  645  15.187  31.609   6.367
    2AU     LIG  646  15.133  31.437   5.903
    2AU     LIG  647  15.438  31.333   5.519
    2AU     LIG  648  15.665  31.248   5.082
    2AU     LIG  649  15.761  31.323   4.600
    2AU     LIG  650  15.868  31.546   4.166
    2AU    AUSL  651  14.535  31.481   8.269
    2AU    AUSL  652  14.805  31.842   8.157
    2AU     AUL  653  14.686  31.770   8.496
    2AU       S  654  14.547  31.353   8.674
    2AU     LIG  655  14.284  31.078   8.854
    2AU     LIG  656  14.078  30.991   9.248
    2AU     LIG  657  13.930  31.012   9.680
    2AU     LIG  658  13.585  30.966   9.992
    2AU     LIG  659  13.192  31.158  10.157
    2AU       S  660  14.425  32.066   8.233
    2AU     LIG  661  14.448  32.222   8.639
    2AU     LIG  662  14.249  32.470   8.983
    2AU     LIG  663  14.055  32.593   9.393
    2AU     LIG  664  13.992  32.818   9.808
    2AU     LIG  665  13.842  33.017  10.213
    2AU    AUSL  666  14.837  31.199   8.176
    2AU    AUSL  667  14.421  31.070   8.144
    2AU     AUL  668  14.315  31.302   8.281
    2AU       S  669  14.338  30.850   8.404
    2AU     LIG  670  13.899  30.825   8.265
    2AU     LIG  671  13.636  30.454   8.350
    2AU     LIG  672  13.392  30.141   8.596
    2AU     LIG  673  13.117  29.882   8.881
    2AU     LIG  674  12.922  29.767   9.302
    2AU       S  675  14.727  31.136   8.552
    2AU     LIG  676  14.731  30.821   8.893
    2AU     LIG  677  14.537  30.758   9.303
    2AU     LIG  678  14.362  30.730   9.747
    2AU     LIG  679  14.263  30.518  10.169
    2AU     LIG  680  14.045  30.516  10.589
    2AU    AUSL  681  14.520  31.197   6.775
    2AU    AUSL  682  14.731  30.855   6.953
    2AU     AUL  683  14.756  30.858   6.621
    2AU       S  684  14.498  31.122   6.337
    2AU     LIG  685  14.318  31.021   5.929
    2AU     LIG  686  14.143  30.910   5.514
    2AU     LIG  687  13.876  30.799   5.144
    2AU     LIG  688  13.525  30.854   4.822
    2AU     LIG  689  13.083  30.904   4.642
    2AU       S  690  14.353  30.702   6.785
    2AU     LIG  691  14.258  30.246   6.707
    2AU     LIG  692  13.930  30.034   6.457
    2AU     LIG  693  13.654  29.843   6.113
    2AU     LIG  694  13.593  29.661   5.669
    2AU     LIG  695  13.452  29.416   5.276
    2AU    AUSL  696  14.742  31.518   6.601
    2AU    AUSL  697  14.388  31.589   6.910
    2AU     AUL  698  14.305  31.411   6.630
    2AU       S  699  14.394  31.857   6.649
    2AU     LIG  700  14.133  31.937   6.303
    2AU     LIG  701  13.910  32.276   6.063
    2AU     LIG  702  13.644  32.399   5.683
    2AU     LIG  703  13.274  32.408   5.385
    2AU     LIG  704  12.893  32.571   5.142
    2AU       S  705  14.708  31.459   6.371
    2AU     LIG  706  14.604  31.506   5.923
    2AU     LIG  707  14.547  31.257   5.531
    2AU     LIG  708  14.423  31.167   5.092
    2AU     LIG  709  14.392  31.448   4.692
    2AU     LIG  710  14.266  31.783   4.362
    2AU    AUSL  711  15.838  31.853   7.508
    2AU    AUSL  712  15.739  31.678   7.106
    2AU     AUL  713  16.098  31.968   7.276
    2AU       S  714  15.838  31.847   6.930
    2AU     LIG  715  15.977  31.744   6.516
    2AU     LIG  716  16.295  31.988   6.277
    2AU     LIG  717  16.613  32.265   6.057
    2AU     LIG  718  16.861  32.444   5.676
    2AU     LIG  719  17.222  32.536   5.371
    2AU       S  720  16.239  31.720   7.655
    2AU     LIG  721  16.676  31.898   7.587
    2AU     LIG  722  17.142  32.034   7.534
    2AU     LIG  723  17.600  32.175   7.514
    2AU     LIG  724  17.963  32.452   7.393
    2AU     LIG  725  17.982  32.932   7.318
    2AU    AUSL  726  16.006  31.452   7.344
    2AU    AUSL  727  15.965  31.114   7.700
    2AU     AUL  728  16.297  31.162   7.559
    2AU       S  729  16.141  31.530   7.375
    2AU     LIG  730  16.588  31.490   7.300
    2AU     LIG  731  17.063  31.587   7.296
    2AU     LIG  732  17.499  31.786   7.200
    2AU     LIG  733  17.980  31.928   7.241
    2AU     LIG  734  18.291  32.229   7.035
    2AU       S  735  16.204  30.712   7.688
    2AU     LIG  736  16.655  30.540   7.646
    2AU     LIG  737  17.101  30.321   7.679
    2AU     LIG  738  17.573  30.148   7.704
    2AU     LIG  739  18.004  30.222   7.934
    2AU     LIG  740  18.419  30.515   7.975
    2AU    AUSL  741  15.762  31.484   7.713
    2AU    AUSL  742  15.509  31.876   7.777
    2AU     AUL  743  15.844  31.912   7.821
    2AU       S  744  15.838  32.090   8.243
    2AU     LIG  745  16.225  32.272   8.386
    2AU     LIG  746  16.507  32.505   8.675
    2AU     LIG  747  16.682  32.905   8.842
    2AU     LIG  748  16.880  33.330   8.733
    2AU     LIG  749  17.241  33.576   8.886
    2AU       S  750  16.113  31.537   7.816
    2AU     LIG  751  16.583  31.484   7.915
    2AU     LIG  752  17.042  31.597   7.814
    2AU     LIG  753  17.506  31.695   7.708
    2AU     LIG  754  17.946  31.886   7.771
    2AU     LIG  755  18.383  31.879   7.984
    2AU    AUSL  756  14.388  31.901   7.522
    2AU    AUSL  757  14.470  31.693   7.915
    2AU     AUL  758  14.161  32.008   7.771
    2AU       S  759  14.305  31.869   8.186
    2AU     LIG  760  14.193  31.757   8.608
    2AU     LIG  761  13.992  32.018   8.963
    2AU     LIG  762  13.674  32.260   9.250
    2AU     LIG  763  13.286  32.397   9.524
    2AU     LIG  764  12.888  32.522   9.784
    2AU       S  765  14.386  32.290   7.450
    2AU     LIG  766  13.924  32.217   7.374
    2AU     LIG  767  13.482  32.421   7.436
    2AU     LIG  768  13.073  32.706   7.458
    2AU     LIG  769  12.616  32.904   7.475
    2AU     LIG  770  12.332  33.268   7.608
    2AU    AUSL  771  14.334  31.521   7.317
    2AU    AUSL  772  14.462  31.968   7.115
    2AU     AUL  773  14.164  31.816   7.168
    2AU       S  774  13.988  31.356   6.995
    2AU     LIG  775  13.602  31.645   7.076
    2AU     LIG  776  13.146  31.830   6.955
    2AU     LIG  777  12.713  32.037   6.893
    2AU     LIG  778  12.266  32.119   7.040
    2AU     LIG  779  11.843  32.337   6.995
    2AU       S  780  14.263  32.219   6.915
    2AU     LIG  781  14.311  32.387   6.477
    2AU     LIG  782  14.142  32.736   6.191
    2AU     LIG  783  14.019  33.202   6.115
    2AU     LIG  784  13.724  33.572   6.040
    2AU     LIG  785  13.369  33.850   5.865
    2AU    AUSL  786  14.136  31.558   7.707
    2AU    AUSL  787  14.101  31.189   7.416
    2AU     AUL  788  13.937  31.513   7.439
    2AU       S  789  13.901  31.103   7.690
    2AU     LIG  790  13.565  31.084   7.346
    2AU     LIG  791  13.124  30.874   7.249
    2AU     LIG  792  12.632  30.923   7.233
    2AU     LIG  793  12.210  30.711   7.117
    2AU     LIG  794  11.794  30.460   6.994
    2AU       S  795  13.997  31.579   7.939
    2AU     LIG  796  13.670  31.820   7.749
    2AU     LIG  797  13.292  31.994   7.941
    2AU     LIG  798  12.853  32.122   8.025
    2AU     LIG  799  12.400  32.200   8.137
    2AU     LIG  800  11.977  32.384   8.141
    2AU    AUSL  801  15.737  30.782   7.540
    2AU    AUSL  802  15.587  31.035   7.876
    2AU     AUL  803  15.895  30.938   7.951
    2AU       S  804  15.924  30.627   7.523
    2AU     LIG  805  16.221  30.223   7.553
    2AU     LIG  806  16.669  30.028   7.560
    2AU     LIG  807  17.112  29.828   7.508
    2AU     LIG  808  17.561  29.742   7.380
    2AU     LIG  809  17.854  29.415   7.524
    2AU       S  810  15.818  30.491   7.975
    2AU     LIG  811  16.080  30.229   8.285
    2AU     LIG  812  16.286  30.011   8.637
    2AU     LIG  813  16.569  29.760   8.911
    2AU     LIG  814  16.916  29.539   9.143
    2AU     LIG  815  17.256  29.596   9.472
    2AU    AUSL  816  15.710  31.162   7.345
    2AU    AUSL  817  15.679  30.759   7.122
    2AU     AUL  818  15.962  30.994   7.191
    2AU       S  819  16.185  30.709   7.455
    2AU     LIG  820  16.450  30.515   7.171
    2AU     LIG  821  16.886  30.328   7.200
    2AU     LIG  822  17.343  30.203   7.231
    2AU     LIG  823  17.809  30.195   7.194
    2AU     LIG  824  18.257  30.171   7.012
    2AU       S  825  15.890  30.632   6.881
    2AU     LIG  826  15.933  30.158   6.789
    2AU     LIG  827  16.078  29.723   6.601
    2AU     LIG  828  16.358  29.407   6.363
    2AU     LIG  829  16.701  29.058   6.282
    2AU     LIG  830  17.013  28.896   5.955
    2AU    AUSL  831  14.305  30.829   7.568
    2AU    AUSL  832  14.408  31.064   7.158
    2AU     AUL  833  14.053  30.897   7.287
    2AU       S  834  14.229  30.849   6.866
    2AU     LIG  835  13.846  30.563   6.827
    2AU     LIG  836  13.509  30.307   6.599
    2AU     LIG  837  13.227  30.054   6.313
    2AU     LIG  838  13.153  29.831   5.905
    2AU     LIG  839  13.132  29.779   5.439
    2AU       S  840  13.872  30.869   7.726
    2AU     LIG  841  13.660  30.575   7.430
    2AU     LIG  842  13.218  30.374   7.408
    2AU     LIG  843  12.736  30.330   7.506
    2AU     LIG  844  12.373  30.060   7.700
    2AU     LIG  845  11.938  29.841   7.639
    2AU    AUSL  846  14.370  31.214   7.756
    2AU    AUSL  847  14.627  30.843   7.845
    2AU     AUL  848  14.291  30.813   7.914
    2AU       S  849  14.350  30.640   8.339
    2AU     LIG  850  14.084  30.367   8.075
    2AU     LIG  851  13.734  30.022   8.088
    2AU     LIG  852  13.473  29.701   8.346
    2AU     LIG  853  13.221  29.417   8.656
    2AU     LIG  854  12.908  29.047   8.730
    2AU       S  855  13.951  31.121   7.863
    2AU     LIG  856  13.480  31.331   7.783
    2AU     LIG  857  13.046  31.146   7.665
    2AU     LIG  858  12.708  30.829   7.731
    2AU     LIG  859  12.310  30.589   7.656
    2AU     LIG  860  11.918  30.371   7.814
    2AU    AUSL  861  15.089  32.042   7.911
    2AU    AUSL  862  14.644  32.068   7.823
    2AU     AUL  863  14.892  32.158   8.191
    2AU       S  864  14.522  32.270   7.931
    2AU     LIG  865  14.310  32.551   8.244
    2AU     LIG  866  14.195  32.838   8.603
    2AU     LIG  867  14.060  33.280   8.748
    2AU     LIG  868  13.698  33.508   8.936
    2AU     LIG  869  13.547  33.952   8.961
    2AU       S  870  15.119  32.493   7.968
    2AU     LIG  871  15.279  32.500   8.354
    2AU     LIG  872  15.302  32.929   8.564
    2AU     LIG  873  15.341  33.365   8.766
    2AU     LIG  874  15.293  33.618   9.178
    2AU     LIG  875  15.379  33.877   9.574
    2AU    AUSL  876  14.914  32.286   7.597
    2AU    AUSL  877  15.188  32.255   7.231
    2AU     AUL  878  14.860  32.506   7.361
    2AU       S  879  14.978  32.519   7.818
    2AU     LIG  880  15.110  32.967   8.059
    2AU     LIG  881  15.133  33.383   8.291
    2AU     LIG  882  15.005  33.832   8.410
    2AU     LIG  883  14.761  34.262   8.346
    2AU     LIG  884  14.695  34.757   8.289
    2AU       S  885  15.149  32.574   7.006
    2AU     LIG  886  15.552  32.717   6.966
    2AU     LIG  887  15.648  33.158   6.806
    2AU     LIG  888  15.711  33.624   6.658
    2AU     LIG  889  15.944  34.072   6.634
    2AU     LIG  890  16.220  34.496   6.677
    2AU    AUSL  891  15.355  32.234   7.623
    2AU    AUSL  892  15.383  31.939   8.188
    2AU     AUL  893  15.471  32.197   7.962
    2AU       S  894  15.615  32.023   8.396
    2AU     LIG  895  15.967  31.988   8.730
    2AU     LIG  896  16.228  32.246   9.023
    2AU     LIG  897  16.481  32.594   9.242
    2AU     LIG  898  16.571  32.791   9.680
    2AU     LIG  899  16.598  32.923  10.154
    2AU       S  900  15.310  32.534   7.657
    2AU     LIG  901  15.570  32.723   7.985
    2AU     LIG  902  15.593  33.141   8.203
    2AU     LIG  903  15.630  33.584   8.357
    2AU     LIG  904  15.955  33.947   8.336
    2AU     LIG  905  16.109  34.391   8.299
    2AU    AUSL  906  15.009  30.630   7.937
    2AU    AUSL  907  15.419  30.648   7.779
    2AU     AUL  908  15.243  30.527   8.170
    2AU       S  909  14.999  30.180   7.985
    2AU     LIG  910  14.822  30.054   8.349
    2AU     LIG  911  14.707  29.608   8.458
    2AU     LIG  912  14.729  29.132   8.466
    2AU     LIG  913  14.867  28.685   8.564
    2AU     LIG  914  15.108  28.313   8.758
    2AU       S  915  15.573  30.435   7.835
    2AU     LIG  916  15.599  30.008   8.067
    2AU     LIG  917  15.918  29.744   8.352
    2AU     LIG  918  16.293  29.491   8.558
    2AU     LIG  919  16.635  29.240   8.809
    2AU     LIG  920  17.004  28.905   8.813
    2AU    AUSL  921  14.699  30.482   7.652
    2AU    AUSL  922  14.794  30.796   8.253
    2AU     AUL  923  14.661  30.513   8.014
    2AU       S  924  14.815  30.110   7.831
    2AU     LIG  925  14.582  29.774   7.983
    2AU     LIG  926  14.446  29.341   8.079
    2AU     LIG  927  14.447  28.871   8.094
    2AU     LIG  928  14.151  28.505   8.125
    2AU     LIG  929  13.925  28.102   8.224
    2AU       S  930  14.591  30.670   8.453
    2AU     LIG  931  14.348  30.191   8.499
    2AU     LIG  932  13.906  30.009   8.569
    2AU     LIG  933  13.619  29.735   8.838
    2AU     LIG  934  13.369  29.530   9.176
    2AU     LIG  935  13.238  29.467   9.629
    2AU    AUSL  936  15.131  30.405   7.593
    2AU    AUSL  937  14.900  30.642   7.308
    2AU     AUL  938  14.783  30.295   7.407
    2AU       S  939  15.140  30.218   7.138
    2AU     LIG  940  14.711  29.980   7.035
    2AU     LIG  941  14.530  29.563   7.063
    2AU     LIG  942  14.470  29.109   6.958
    2AU     LIG  943  14.210  28.712   6.855
    2AU     LIG  944  14.210  28.242   6.812
    2AU       S  945  15.142  30.193   7.731
    2AU     LIG  946  15.143  29.725   7.826
    2AU     LIG  947  14.961  29.349   8.044
    2AU     LIG  948  14.980  28.867   8.090
    2AU     LIG  949  15.134  28.415   8.193
    2AU     LIG  950  15.084  27.970   8.297
    2AU    AUSL  951  15.022  32.073   6.868
    2AU    AUSL  952  15.543  32.034   7.267
    2AU     AUL  953  15.362  32.184   6.923
    2AU       S  954  14.988  32.339   6.681
    2AU     LIG  955  15.380  32.527   6.527
    2AU     LIG  956  15.502  32.962   6.348
    2AU     LIG  957  15.367  33.374   6.134
    2AU     LIG  958  15.105  33.717   5.912
    2AU     LIG  959  15.122  34.090   5.625
    2AU       S  960  15.740  32.228   7.168
    2AU     LIG  961  16.148  32.424   6.924
    2AU     LIG  962  16.381  32.472   6.499
    2AU     LIG  963  16.630  32.773   6.209
    2AU     LIG  964  16.831  33.217   6.133
    2AU     LIG  965  17.132  33.597   6.179
    2AU    AUSL  966  14.839  32.021   7.288
    2AU    AUSL  967  14.791  31.741   6.949
    2AU     AUL  968  14.709  32.179   7.034
    2AU       S  969  14.950  32.544   6.897
    2AU     LIG  970  15.134  32.962   6.705
    2AU     LIG  971  15.222  33.413   6.627
    2AU     LIG  972  15.077  33.865   6.627
    2AU     LIG  973  14.927  34.317   6.649
    2AU     LIG  974  14.519  34.565   6.644
    2AU       S  975  14.588  31.964   6.648
    2AU     LIG  976  14.637  32.030   6.223
    2AU     LIG  977  14.410  32.338   5.955
    2AU     LIG  978  14.120  32.597   5.684
    2AU     LIG  979  13.900  32.738   5.282
    2AU     LIG  980  13.827  33.079   4.955
    2AU    AUSL  981  15.088  30.628   6.914
    2AU    AUSL  982  14.488  30.637   7.239
    2AU     AUL  983  14.755  30.487   6.973
    2AU       S  984  14.310  30.594   7.051
    2AU     LIG  985  14.066  30.298   7.207
    2AU     LIG  986  13.768  30.040   6.960
    2AU     LIG  987  13.522  29.777   6.635
    2AU     LIG  988  13.282  29.516   6.313
    2AU     LIG  989  13.071  29.086   6.212
    2AU       S  990  15.150  30.217   6.927
    2AU     LIG  991  15.095  29.792   6.764
    2AU     LIG  992  14.783  29.474   6.621
    2AU     LIG  993  14.733  29.027   6.525
    2AU     LIG  994  14.797  28.671   6.238
    2AU     LIG  995  14.853  28.489   5.807
    2AU    AUSL  996  15.327  30.629   7.299
    2AU    AUSL  997  15.336  30.961   6.956
    2AU     AUL  998  15.428  30.586   6.934
    2AU       S  999  15.372  30.229   7.232
    2AU     LIG 1000  15.129  29.764   7.293
    2AU     LIG 1001  15.009  29.348   7.063
    2AU     LIG 1002  15.117  28.913   6.873
    2AU     LIG 1003  15.423  28.524   6.835
    2AU     LIG 1004  15.759  28.217   6.659
    2AU       S 1005  15.662  30.796   6.607
    2AU     LIG 1006  15.544  30.360   6.508
    2AU     LIG 1007  15.750  29.996   6.310
    2AU     LIG 1008  16.009  29.684   6.055
    2AU     LIG 1009  16.129  29.490   5.624
    2AU     LIG 1010  16.236  29.336   5.174
    3AU     AUC 1011   8.014  39.281   7.502
    3AU     AUC 1012   8.313  39.280   7.328
    3AU     AUC 1013   8.279  39.269   7.675
    3AU     AUC 1014   7.728  39.276   7.339
    3AU     AUC 1015   7.744  39.320   7.687
    3AU     AUC 1016   7.843  39.564   7.498
    3AU     AUC 1017   8.195  39.554   7.489
    3AU     AUC 1018   7.820  39.013   7.509
    3AU     AUC 1019   8.177  38.995   7.503
    3AU     AUC 1020   8.012  39.108   7.779
    3AU     AUC 1021   8.007  39.476   7.761
    3AU     AUC 1022   8.012  39.115   7.229
    3AU     AUC 1023   8.041  39.434   7.225
    3AU     AUC 1024   8.633  39.278   7.168
    3AU     AUC 1025   8.627  39.256   7.524
    3AU     AUC 1026   8.564  39.249   7.873
    3AU     AUC 1027   7.424  39.275   7.172
    3AU     AUC 1028   7.406  39.313   7.537
    3AU     AUC 1029   7.459  39.357   7.876
    3AU     AUC 1030   7.682  39.875   7.468
    3AU     AUC 1031   8.042  39.900   7.446
    3AU     AUC 1032   8.366  39.841   7.479
    3AU     AUC 1033   7.618  38.742   7.514
    3AU     AUC 1034   7.962  38.683   7.493
    3AU     AUC 1035   8.339  38.688   7.484
    3AU     AUC 1036   7.996  38.931   8.070
    3AU     AUC 1037   8.010  39.296   8.097
    3AU     AUC 1038   8.034  39.657   8.048
    3AU     AUC 1039   8.035  38.941   6.950
    3AU     AUC 1040   8.038  39.265   6.897
    3AU     AUC 1041   8.039  39.587   6.925
    3AU     AUC 1042   8.282  39.056   7.993
    3AU     AUC 1043   8.313  39.442   7.990
    3AU     AUC 1044   8.363  39.115   7.010
    3AU     AUC 1045   8.366  39.459   7.032
    3AU     AUC 1046   7.711  39.164   8.019
    3AU     AUC 1047   7.733  39.539   7.989
    3AU     AUC 1048   7.711  39.097   7.044
    3AU     AUC 1049   7.698  39.410   7.000
    3AU     AUC 1050   8.546  39.557   7.343
    3AU     AUC 1051   8.482  39.548   7.697
    3AU     AUC 1052   7.521  39.582   7.332
    3AU     AUC 1053   7.543  39.640   7.683
    3AU     AUC 1054   8.507  38.967   7.333
    3AU     AUC 1055   8.469  38.943   7.674
    3AU     AUC 1056   7.484  38.985   7.363
    3AU     AUC 1057   7.543  39.036   7.724
    3AU     AUC 1058   7.864  39.820   7.752
    3AU     AUC 1059   8.199  39.772   7.770
    3AU     AUC 1060   7.813  38.814   7.808
    3AU     AUC 1061   8.136  38.759   7.775
    3AU     AUC 1062   7.840  39.709   7.187
    3AU     AUC 1063   8.224  39.741   7.167
    3AU     AUC 1064   7.804  38.812   7.210
    3AU     AUC 1065   8.198  38.825   7.213
    3AU    AUSL 1066   8.546  39.184   8.230
    3AU    AUSL 1067   8.278  38.760   8.155
    3AU     AUL 1068   8.580  38.780   8.366
    3AU       S 1069   8.652  38.423   8.092
    3AU     LIG 1070   8.538  38.265   8.481
    3AU     LIG 1071   8.713  37.933   8.745
    3AU     LIG 1072   8.899  37.538   8.923
    3AU     LIG 1073   9.142  37.288   9.236
    3AU     LIG 1074   9.315  37.389   9.662
    3AU       S 1075   8.772  39.190   8.343
    3AU     LIG 1076   8.658  39.165   8.788
    3AU     LIG 1077   8.839  39.012   9.217
    3AU     LIG 1078   9.139  38.824   9.564
    3AU     LIG 1079   9.484  38.729   9.901
    3AU     LIG 1080   9.843  38.873  10.190
    3AU    AUSL 1081   8.143  39.093   8.397
    3AU    AUSL 1082   7.886  39.490   8.422
    3AU     AUL 1083   8.079  39.393   8.740
    3AU       S 1084   8.235  39.017   8.545
    3AU     LIG 1085   8.221  38.946   8.971
    3AU     LIG 1086   8.438  38.695   9.299
    3AU     LIG 1087   8.702  38.564   9.673
    3AU     LIG 1088   8.815  38.512  10.135
    3AU     LIG 1089   8.803  38.734  10.559
    3AU       S 1090   7.665  39.227   8.641
    3AU     LIG 1091   7.676  39.210   9.128
    3AU     LIG 1092   7.400  39.143   9.525
    3AU     LIG 1093   7.244  39.139   9.980
    3AU     LIG 1094   7.182  39.442  10.358
    3AU     LIG 1095   7.131  39.819  10.671
    3AU    AUSL 1096   8.205  39.462   8.158
    3AU    AUSL 1097   8.633  39.589   8.114
    3AU     AUL 1098   8.432  39.483   8.449
    3AU       S 1099   8.109  39.852   8.604
    3AU     LIG 1100   8.461  39.725   8.892
    3AU     LIG 1101   8.659  39.829   9.320
    3AU     LIG 1102   8.644  39.963   9.795
    3AU     LIG 1103   8.584  39.961  10.282
    3AU     LIG 1104   8.767  40.004  10.729
    3AU       S 1105   8.786  39.738   8.280
    3AU     LIG 1106   9.183  39.675   8.376
    3AU     LIG 1107   9.474  39.897   8.673
    3AU     LIG 1108   9.726  40.158   8.987
    3AU     LIG 1109   9.972  40.386   9.316
    3AU     LIG 1110  10.317  40.336   9.647
    3AU    AUSL 1111   8.583  39.361   6.804
    3AU    AUSL 1112   8.436  39.769   6.842
    3AU     AUL 1113   8.725  39.655   6.578
    3AU       S 1114   8.402  39.459   6.339
    3AU     LIG 1115   8.845  39.441   6.091
    3AU     LIG 1116   8.974  39.170   5.734
    3AU     LIG 1117   9.081  38.941   5.337
    3AU     LIG 1118   9.412  38.844   5.009
    3AU     LIG 1119   9.768  38.874   4.691
    3AU       S 1120   8.776  39.990   6.907
    3AU     LIG 1121   8.765  40.200   6.539
    3AU     LIG 1122   8.973  40.302   6.127
    3AU     LIG 1123   9.249  40.446   5.777
    3AU     LIG 1124   9.472  40.617   5.394
    3AU     LIG 1125   9.580  40.921   5.035
    3AU    AUSL 1126   8.331  39.070   6.607
    3AU    AUSL 1127   8.710  38.974   6.918
    3AU     AUL 1128   8.742  39.134   6.601
    3AU       S 1129   8.787  38.668   6.679
    3AU     LIG 1130   8.923  38.275   6.391
    3AU     LIG 1131   9.169  37.877   6.412
    3AU     LIG 1132   9.462  37.637   6.141
    3AU     LIG 1133   9.693  37.656   5.718
    3AU     LIG 1134  10.068  37.712   5.434
    3AU       S 1135   8.439  39.297   6.294
    3AU     LIG 1136   8.562  38.979   6.026
    3AU     LIG 1137   8.609  38.848   5.559
    3AU     LIG 1138   8.684  38.654   5.124
    3AU     LIG 1139   8.725  38.427   4.697
    3AU     LIG 1140   8.914  38.438   4.262
    3AU    AUSL 1141   8.162  39.445   6.761
    3AU    AUSL 1142   7.920  39.069   6.727
    3AU     AUL 1143   8.059  39.105   6.445
    3AU       S 1144   7.605  39.126   6.307
    3AU     LIG 1145   7.717  38.808   6.072
    3AU     LIG 1146   7.475  38.669   5.695
    3AU     LIG 1147   7.191  38.573   5.320
    3AU     LIG 1148   6.940  38.549   4.917
    3AU     LIG 1149   6.997  38.504   4.443
    3AU       S 1150   8.239  39.559   6.453
    3AU     LIG 1151   8.109  39.448   5.957
    3AU     LIG 1152   8.480  39.353   5.663
    3AU     LIG 1153   8.702  39.299   5.242
    3AU     LIG 1154   8.745  39.458   4.778
    3AU     LIG 1155   8.658  39.644   4.337
    3AU    AUSL 1156   7.490  39.434   8.250
    3AU    AUSL 1157   7.782  39.784   8.130
    3AU     AUL 1158   7.642  39.727   8.468
    3AU       S 1159   7.485  39.327   8.677
    3AU     LIG 1160   7.269  38.985   8.883
    3AU     LIG 1161   7.028  38.883   9.272
    3AU     LIG 1162   6.859  38.932   9.700
    3AU     LIG 1163   6.633  38.883  10.089
    3AU     LIG 1164   6.220  39.011  10.271
    3AU       S 1165   7.388  40.046   8.213
    3AU     LIG 1166   7.362  40.195   8.630
    3AU     LIG 1167   7.162  40.445   8.988
    3AU     LIG 1168   7.008  40.678   9.373
    3AU     LIG 1169   7.009  40.859   9.826
    3AU     LIG 1170   6.912  41.119  10.220
    3AU    AUSL 1171   7.789  39.146   8.171
    3AU    AUSL 1172   7.373  39.018   8.147
    3AU     AUL 1173   7.271  39.253   8.277
    3AU       S 1174   7.288  38.802   8.405
    3AU     LIG 1175   6.848  38.730   8.242
    3AU     LIG 1176   6.596  38.352   8.331
    3AU     LIG 1177   6.360  38.111   8.656
    3AU     LIG 1178   6.102  37.820   8.921
    3AU     LIG 1179   5.918  37.657   9.326
    3AU       S 1180   7.677  39.091   8.550
    3AU     LIG 1181   7.746  38.779   8.880
    3AU     LIG 1182   7.515  38.701   9.277
    3AU     LIG 1183   7.288  38.659   9.700
    3AU     LIG 1184   7.102  38.629  10.139
    3AU     LIG 1185   7.121  38.439  10.583
    3AU    AUSL 1186   7.515  39.195   6.777
    3AU    AUSL 1187   7.676  38.810   6.952
    3AU     AUL 1188   7.716  38.806   6.619
    3AU       S 1189   7.395  39.100   6.449
    3AU     LIG 1190   7.199  38.836   6.134
    3AU     LIG 1191   6.990  38.862   5.710
    3AU     LIG 1192   6.836  38.947   5.266
    3AU     LIG 1193   6.543  38.909   4.898
    3AU     LIG 1194   6.199  39.134   4.652
    3AU       S 1195   7.293  38.689   6.758
    3AU     LIG 1196   7.182  38.232   6.653
    3AU     LIG 1197   6.896  37.922   6.456
    3AU     LIG 1198   6.610  37.740   6.126
    3AU     LIG 1199   6.548  37.565   5.682
    3AU     LIG 1200   6.598  37.349   5.251
    3AU    AUSL 1201   7.790  39.477   6.571
    3AU    AUSL 1202   7.301  39.535   6.924
    3AU     AUL 1203   7.436  39.535   6.592
    3AU       S 1204   7.031  39.717   6.749
    3AU     LIG 1205   6.802  40.010   6.457
    3AU     LIG 1206   6.810  40.262   6.064
    3AU     LIG 1207   6.610  40.291   5.628
    3AU     LIG 1208   6.214  40.292   5.348
    3AU     LIG 1209   5.755  40.367   5.233
    3AU       S 1210   7.690  39.340   6.250
    3AU     LIG 1211   7.444  39.191   5.839
    3AU     LIG 1212   7.335  39.077   5.390
    3AU     LIG 1213   7.190  39.155   4.944
    3AU     LIG 1214   7.165  39.476   4.579
    3AU     LIG 1215   7.069  39.756   4.190
    3AU    AUSL 1216   8.787  39.786   7.523
    3AU    AUSL 1217   8.755  39.578   7.123
    3AU     AUL 1218   9.071  39.911   7.341
    3AU       S 1219   8.884  39.698   7.001
    3AU     LIG 1220   9.185  39.883   6.652
    3AU     LIG 1221   9.385  40.005   6.231
    3AU     LIG 1222   9.692  40.231   5.945
    3AU     LIG 1223  10.023  40.297   5.600
    3AU     LIG 1224  10.451  40.329   5.368
    3AU       S 1225   9.183  39.675   7.732
    3AU     LIG 1226   9.610  39.833   7.578
    3AU     LIG 1227  10.093  39.972   7.523
    3AU     LIG 1228  10.574  40.120   7.530
    3AU     LIG 1229  10.903  40.509   7.577
    3AU     LIG 1230  11.134  40.826   7.881
    3AU    AUSL 1231   8.993  39.383   7.414
    3AU    AUSL 1232   8.921  39.057   7.721
    3AU     AUL 1233   9.286  39.160   7.759
    3AU       S 1234   9.132  39.467   7.464
    3AU     LIG 1235   9.570  39.362   7.387
    3AU     LIG 1236  10.034  39.496   7.339
    3AU     LIG 1237  10.483  39.671   7.259
    3AU     LIG 1238  10.917  39.863   7.209
    3AU     LIG 1239  11.360  39.764   7.052
    3AU       S 1240   9.173  38.765   7.551
    3AU     LIG 1241   9.518  38.513   7.692
    3AU     LIG 1242   9.929  38.317   7.788
    3AU     LIG 1243  10.384  38.213   7.785
    3AU     LIG 1244  10.809  38.048   7.930
    3AU     LIG 1245  11.299  38.082   7.906
    3AU    AUSL 1246   8.710  39.422   7.742
    3AU    AUSL 1247   8.450  39.807   7.786
    3AU     AUL 1248   8.770  39.870   7.828
    3AU       S 1249   8.763  40.032   8.258
    3AU     LIG 1250   9.170  40.194   8.372
    3AU     LIG 1251   9.473  40.435   8.636
    3AU     LIG 1252   9.731  40.698   8.939
    3AU     LIG 1253   9.983  41.107   8.982
    3AU     LIG 1254  10.183  41.545   9.021
    3AU       S 1255   9.033  39.506   7.886
    3AU     LIG 1256   9.532  39.513   8.023
    3AU     LIG 1257   9.958  39.557   7.846
    3AU     LIG 1258  10.408  39.643   7.763
    3AU     LIG 1259  10.868  39.632   7.792
    3AU     LIG 1260  11.317  39.705   7.923
    3AU    AUSL 1261   7.351  39.859   7.516
    3AU    AUSL 1262   7.423  39.669   7.912
    3AU     AUL 1263   7.112  39.965   7.755
    3AU       S 1264   7.278  39.832   8.162
    3AU     LIG 1265   7.143  39.705   8.558
    3AU     LIG 1266   6.988  39.951   8.930
    3AU     LIG 1267   6.718  40.242   9.201
    3AU     LIG 1268   6.305  40.310   9.438
    3AU     LIG 1269   5.878  40.352   9.653
    3AU       S 1270   7.340  40.233   7.434
    3AU     LIG 1271   6.844  40.180   7.377
    3AU     LIG 1272   6.383  40.386   7.469
    3AU     LIG 1273   5.976  40.705   7.542
    3AU     LIG 1274   5.590  41.045   7.584
    3AU     LIG 1275   5.329  41.448   7.669
    3AU    AUSL 1276   7.306  39.466   7.332
    3AU    AUSL 1277   7.441  39.904   7.107
    3AU     AUL 1278   7.125  39.782   7.210
    3AU       S 1279   6.922  39.287   6.998
    3AU     LIG 1280   6.642  39.682   7.079
    3AU     LIG 1281   6.278  39.977   6.985
    3AU     LIG 1282   5.799  40.069   6.924
    3AU     LIG 1283   5.327  40.203   6.923
    3AU     LIG 1284   4.882  40.264   6.862
    3AU       S 1285   7.275  40.147   6.938
    3AU     LIG 1286   7.055  40.428   6.641
    3AU     LIG 1287   7.066  40.705   6.265
    3AU     LIG 1288   7.061  41.179   6.170
    3AU     LIG 1289   6.804  41.585   6.207
    3AU     LIG 1290   6.342  41.718   6.134
    3AU    AUSL 1291   7.096  39.510   7.712
    3AU    AUSL 1292   7.061  39.138   7.419
    3AU     AUL 1293   6.902  39.453   7.443
    3AU       S 1294   6.862  39.049   7.700
    3AU     LIG 1295   6.523  39.054   7.367
    3AU     LIG 1296   6.042  38.916   7.294
    3AU     LIG 1297   5.563  38.830   7.213
    3AU     LIG 1298   5.213  38.495   7.248
    3AU     LIG 1299   4.900  38.127   7.263
    3AU       S 1300   6.947  39.543   7.939
    3AU     LIG 1301   6.613  39.795   7.720
    3AU     LIG 1302   6.174  40.020   7.820
    3AU     LIG 1303   5.737  40.257   7.951
    3AU     LIG 1304   5.279  40.411   8.103
    3AU     LIG 1305   4.871  40.195   8.260
    3AU    AUSL 1306   8.709  38.710   7.547
    3AU    AUSL 1307   8.545  38.954   7.881
    3AU     AUL 1308   8.870  38.853   7.950
    3AU       S 1309   8.982  38.600   7.555
    3AU     LIG 1310   9.179  38.242   7.400
    3AU     LIG 1311   9.579  38.012   7.515
    3AU     LIG 1312  10.042  37.880   7.531
    3AU     LIG 1313  10.516  37.787   7.532
    3AU     LIG 1314  10.843  37.530   7.746
    3AU       S 1315   8.757  38.410   7.952
    3AU     LIG 1316   8.981  38.095   8.269
    3AU     LIG 1317   9.194  37.808   8.589
    3AU     LIG 1318   9.398  37.688   9.009
    3AU     LIG 1319   9.665  37.751   9.407
    3AU     LIG 1320  10.088  37.872   9.598
    3AU    AUSL 1321   8.724  39.077   7.323
    3AU    AUSL 1322   8.606  38.616   7.144
    3AU     AUL 1323   8.872  38.776   7.145
    3AU       S 1324   9.222  38.948   7.354
    3AU     LIG 1325   9.484  38.602   7.183
    3AU     LIG 1326   9.877  38.354   7.276
    3AU     LIG 1327  10.326  38.207   7.262
    3AU     LIG 1328  10.708  38.034   7.064
    3AU     LIG 1329  11.175  38.105   7.009
    3AU       S 1330   8.793  38.447   6.826
    3AU     LIG 1331   8.817  37.997   6.852
    3AU     LIG 1332   8.944  37.552   6.750
    3AU     LIG 1333   9.209  37.299   6.467
    3AU     LIG 1334   9.350  36.894   6.280
    3AU     LIG 1335   9.487  36.439   6.205
    3AU    AUSL 1336   7.259  38.777   7.570
    3AU    AUSL 1337   7.348  39.030   7.132
    3AU     AUL 1338   7.002  38.851   7.286
    3AU       S 1339   7.183  38.867   6.858
    3AU     LIG 1340   6.784  38.568   6.779
    3AU     LIG 1341   6.505  38.252   6.531
    3AU     LIG 1342   6.185  38.002   6.270
    3AU     LIG 1343   5.877  37.752   6.003
    3AU     LIG 1344   5.615  37.481   5.719
    3AU       S 1345   6.832  38.824   7.730
    3AU     LIG 1346   6.610  38.546   7.431
    3AU     LIG 1347   6.150  38.416   7.372
    3AU     LIG 1348   5.675  38.408   7.496
    3AU     LIG 1349   5.313  38.101   7.580
    3AU     LIG 1350   4.993  37.745   7.621
    3AU    AUSL 1351   7.327  39.163   7.759
    3AU    AUSL 1352   7.579  38.790   7.851
    3AU     AUL 1353   7.249  38.755   7.917
    3AU       S 1354   7.305  38.595   8.350
    3AU     LIG 1355   7.107  38.295   8.070
    3AU     LIG 1356   6.792  37.946   8.080
    3AU     LIG 1357   6.480  37.713   8.356
    3AU     LIG 1358   6.251  37.394   8.639
    3AU     LIG 1359   6.132  36.936   8.760
    3AU       S 1360   6.922  39.078   7.874
    3AU     LIG 1361   6.454  39.289   7.819
    3AU     LIG 1362   5.968  39.184   7.725
    3AU     LIG 1363   5.559  38.901   7.718
    3AU     LIG 1364   5.202  38.579   7.756
    3AU     LIG 1365   4.847  38.246   7.773
    3AU    AUSL 1366   8.051  40.014   7.892
    3AU    AUSL 1367   7.622  40.029   7.801
    3AU     AUL 1368   7.855  40.103   8.182
    3AU       S 1369   7.491  40.210   7.908
    3AU     LIG 1370   7.524  40.541   8.237
    3AU     LIG 1371   7.267  40.764   8.584
    3AU     LIG 1372   7.008  41.039   8.897
    3AU     LIG 1373   6.664  41.390   8.923
    3AU     LIG 1374   6.301  41.728   8.931
    3AU       S 1375   8.050  40.437   7.932
    3AU     LIG 1376   8.178  40.488   8.321
    3AU     LIG 1377   8.165  40.922   8.505
    3AU     LIG 1378   8.168  41.370   8.671
    3AU     LIG 1379   8.017  41.683   8.958
    3AU     LIG 1380   8.086  41.934   9.342
    3AU    AUSL 1381   7.890  40.228   7.543
    3AU    AUSL 1382   8.181  40.161   7.189
    3AU     AUL 1383   8.113  40.505   7.337
    3AU       S 1384   7.883  40.464   7.753
    3AU     LIG 1385   7.860  40.885   8.030
    3AU     LIG 1386   7.867  41.292   8.274
    3AU     LIG 1387   7.953  41.754   8.351
    3AU     LIG 1388   7.854  42.221   8.510
    3AU     LIG 1389   7.865  42.727   8.611
    3AU       S 1390   7.911  40.338   6.963
    3AU     LIG 1391   8.316  40.617   6.904
    3AU     LIG 1392   8.516  41.038   6.792
    3AU     LIG 1393   8.474  41.525   6.727
    3AU     LIG 1394   8.652  42.002   6.712
    3AU     LIG 1395   8.787  42.494   6.700
    3AU    AUSL 1396   8.332  40.158   7.593
    3AU    AUSL 1397   8.301  39.867   8.193
    3AU     AUL 1398   8.406  40.133   7.970
    3AU       S 1399   8.544  39.964   8.408
    3AU     LIG 1400   8.905  39.942   8.741
    3AU     LIG 1401   9.202  40.194   9.007
    3AU     LIG 1402   9.449  40.464   9.316
    3AU     LIG 1403   9.523  40.658   9.751
    3AU     LIG 1404   9.418  40.993  10.094
    3AU       S 1405   8.242  40.520   7.780
    3AU     LIG 1406   8.383  40.871   8.034
    3AU     LIG 1407   8.385  41.313   8.207
    3AU     LIG 1408   8.467  41.758   8.379
    3AU     LIG 1409   8.623  42.227   8.402
    3AU     LIG 1410   8.737  42.705   8.392
    3AU    AUSL 1411   7.957  38.574   7.938
    3AU    AUSL 1412   8.364  38.581   7.762
    3AU     AUL 1413   8.192  38.446   8.149
    3AU       S 1414   7.926  38.104   7.988
    3AU     LIG 1415   7.791  37.945   8.352
    3AU     LIG 1416   7.688  37.503   8.444
    3AU     LIG 1417   7.735  37.037   8.425
    3AU     LIG 1418   7.778  36.637   8.658
    3AU     LIG 1419   7.780  36.356   9.052
    3AU       S 1420   8.520  38.353   7.810
    3AU     LIG 1421   8.477  37.952   8.065
    3AU     LIG 1422   8.762  37.628   8.328
    3AU     LIG 1423   9.058  37.279   8.511
    3AU     LIG 1424   9.312  37.001   8.809
    3AU     LIG 1425   9.632  36.696   8.981
    3AU    AUSL 1426   7.631  38.423   7.666
    3AU    AUSL 1427   7.751  38.744   8.258
    3AU     AUL 1428   7.616  38.460   8.030
    3AU       S 1429   7.737  38.050   7.836
    3AU     LIG 1430   7.567  37.675   7.968
    3AU     LIG 1431   7.455  37.235   8.041
    3AU     LIG 1432   7.362  36.776   8.111
    3AU     LIG 1433   7.106  36.359   8.068
    3AU     LIG 1434   7.151  35.940   8.257
    3AU       S 1435   7.545  38.627   8.465
    3AU     LIG 1436   7.336  38.147   8.515
    3AU     LIG 1437   6.887  37.981   8.588
    3AU     LIG 1438   6.610  37.704   8.862
    3AU     LIG 1439   6.359  37.428   9.158
    3AU     LIG 1440   6.185  37.279   9.581
    3AU    AUSL 1441   8.059  38.335   7.601
    3AU    AUSL 1442   7.814  38.559   7.305
    3AU     AUL 1443   7.689  38.232   7.411
    3AU       S 1444   8.055  38.152   7.153
    3AU     LIG 1445   7.660  37.884   7.051
    3AU     LIG 1446   7.575  37.430   7.064
    3AU     LIG 1447   7.610  36.964   6.956
    3AU     LIG 1448   7.649  36.488   6.844
    3AU     LIG 1449   7.624  36.000   6.768
    3AU       S 1450   8.064  38.136   7.727
    3AU     LIG 1451   8.088  37.679   7.780
    3AU     LIG 1452   7.977  37.310   8.037
    3AU     LIG 1453   8.136  36.866   8.126
    3AU     LIG 1454   8.367  36.457   8.186
    3AU     LIG 1455   8.440  36.000   8.248
    3AU    AUSL 1456   8.027  39.895   6.862
    3AU    AUSL 1457   8.465  39.865   7.259
    3AU     AUL 1458   8.324  40.093   6.877
    3AU       S 1459   7.918  40.301   6.748
    3AU     LIG 1460   8.181  40.504   6.439
    3AU     LIG 1461   8.315  40.939   6.314
    3AU     LIG 1462   8.408  41.190   5.913
    3AU     LIG 1463   8.266  41.446   5.534
    3AU     LIG 1464   8.146  41.881   5.417
    3AU       S 1465   8.687  40.081   7.157
    3AU     LIG 1466   9.110  40.320   6.975
    3AU     LIG 1467   9.281  40.404   6.540
    3AU     LIG 1468   9.494  40.663   6.192
    3AU     LIG 1469   9.713  41.096   6.083
    3AU     LIG 1470  10.012  41.434   5.914
    3AU    AUSL 1471   7.825  39.937   7.251
    3AU    AUSL 1472   7.728  39.611   6.959
    3AU     AUL 1473   7.680  39.913   6.820
    3AU       S 1474   7.725  40.301   7.097
    3AU     LIG 1475   7.813  40.808   7.022
    3AU     LIG 1476   8.021  41.170   6.810
    3AU     LIG 1477   7.901  41.609   6.703
    3AU     LIG 1478   7.563  41.942   6.715
    3AU     LIG 1479   7.294  42.345   6.735
    3AU       S 1480   7.241  39.951   6.687
    3AU     LIG 1481   7.288  40.156   6.273
    3AU     LIG 1482   7.266  40.421   5.871
    3AU     LIG 1483   7.204  40.703   5.484
    3AU     LIG 1484   7.031  41.005   5.156
    3AU     LIG 1485   6.818  41.074   4.732
    3AU    AUSL 1486   8.014  38.555   6.916
    3AU    AUSL 1487   7.409  38.598   7.218
    3AU     AUL 1488   7.672  38.429   6.968
    3AU       S 1489   7.234  38.579   6.993
    3AU     LIG 1490   6.992  38.279   7.156
    3AU     LIG 1491   6.698  37.996   6.936
    3AU     LIG 1492   6.439  37.727   6.628
    3AU     LIG 1493   6.063  37.502   6.412
    3AU     LIG 1494   5.595  37.375   6.275
    3AU       S 1495   8.063  38.147   6.939
    3AU     LIG 1496   8.049  37.732   6.740
    3AU     LIG 1497   7.804  37.348   6.609
    3AU     LIG 1498   7.799  36.896   6.484
    3AU     LIG 1499   7.853  36.602   6.123
    3AU     LIG 1500   7.968  36.390   5.713
    3AU    AUSL 1501   8.233  38.573   7.309
    3AU    AUSL 1502   8.289  38.868   6.968
    3AU     AUL 1503   8.349  38.507   6.936
    3AU       S 1504   8.295  38.159   7.238
    3AU     LIG 1505   8.109  37.677   7.251
    3AU     LIG 1506   8.061  37.236   7.041
    3AU     LIG 1507   8.100  36.763   6.908
    3AU     LIG 1508   8.141  36.280   6.859
    3AU     LIG 1509   8.453  35.938   6.709
    3AU       S 1510   8.563  38.660   6.568
    3AU     LIG 1511   8.436  38.195   6.553
    3AU     LIG 1512   8.651  37.802   6.393
    3AU     LIG 1513   8.929  37.537   6.104
    3AU     LIG 1514   9.214  37.446   5.737
    3AU     LIG 1515   9.399  37.470   5.294
    4AU     AUC 1516  40.234  14.080   7.498
    4AU     AUC 1517  40.516  14.089   7.323
    4AU     AUC 1518  40.498  14.061   7.671
    4AU     AUC 1519  39.949  14.074   7.334
    4AU     AUC 1520  39.968  14.114   7.684
    4AU     AUC 1521  40.066  14.364   7.494
    4AU     AUC 1522  40.422  14.358   7.485
    4AU     AUC 1523  40.045  13.812   7.505
    4AU     AUC 1524  40.397  13.786   7.495
    4AU     AUC 1525  40.234  13.901   7.774
    4AU     AUC 1526  40.233  14.269   7.760
    4AU     AUC 1527  40.233  13.916   7.221
    4AU     AUC 1528  40.254  14.238   7.220
    4AU     AUC 1529  40.833  14.095   7.160
    4AU     AUC 1530  40.840  14.045   7.518
    4AU     AUC 1531  40.784  14.030   7.867
    4AU     AUC 1532  39.645  14.067   7.169
    4AU     AUC 1533  39.629  14.105   7.535
    4AU     AUC 1534  39.684  14.146   7.874
    4AU     AUC 1535  39.903  14.666   7.471
    4AU     AUC 1536  40.271  14.691   7.448
    4AU     AUC 1537  40.611  14.635   7.476
    4AU     AUC 1538  39.848  13.540   7.509
    4AU     AUC 1539  40.196  13.479   7.486
    4AU     AUC 1540  40.559  13.483   7.475
    4AU     AUC 1541  40.216  13.719   8.065
    4AU     AUC 1542  40.234  14.085   8.095
    4AU     AUC 1543  40.263  14.444   8.049
    4AU     AUC 1544  40.260  13.747   6.942
    4AU     AUC 1545  40.254  14.074   6.886
    4AU     AUC 1546  40.235  14.391   6.927
    4AU     AUC 1547  40.500  13.846   7.990
    4AU     AUC 1548  40.542  14.231   7.985
    4AU     AUC 1549  40.576  13.939   6.996
    4AU     AUC 1550  40.569  14.265   7.034
    4AU     AUC 1551  39.934  13.954   8.016
    4AU     AUC 1552  39.960  14.328   7.990
    4AU     AUC 1553  39.934  13.896   7.037
    4AU     AUC 1554  39.911  14.207   6.995
    4AU     AUC 1555  40.774  14.366   7.346
    4AU     AUC 1556  40.712  14.333   7.694
    4AU     AUC 1557  39.739  14.374   7.331
    4AU     AUC 1558  39.769  14.432   7.684
    4AU     AUC 1559  40.711  13.771   7.326
    4AU     AUC 1560  40.675  13.720   7.681
    4AU     AUC 1561  39.711  13.780   7.359
    4AU     AUC 1562  39.767  13.828   7.720
    4AU     AUC 1563  40.090  14.609   7.756
    4AU     AUC 1564  40.433  14.562   7.770
    4AU     AUC 1565  40.037  13.604   7.802
    4AU     AUC 1566  40.355  13.546   7.770
    4AU     AUC 1567  40.052  14.515   7.183
    4AU     AUC 1568  40.438  14.554   7.191
    4AU     AUC 1569  40.036  13.614   7.202
    4AU     AUC 1570  40.431  13.626   7.198
    4AU    AUSL 1571  40.763  13.963   8.230
    4AU    AUSL 1572  40.490  13.554   8.149
    4AU     AUL 1573  40.781  13.559   8.373
    4AU       S 1574  40.869  13.208   8.097
    4AU     LIG 1575  40.767  13.031   8.477
    4AU     LIG 1576  40.900  12.711   8.780
    4AU     LIG 1577  41.160  12.433   9.054
    4AU     LIG 1578  41.276  12.252   9.485
    4AU     LIG 1579  41.308  12.142   9.961
    4AU       S 1580  40.985  13.962   8.347
    4AU     LIG 1581  40.857  13.954   8.783
    4AU     LIG 1582  41.032  13.856   9.211
    4AU     LIG 1583  41.301  13.679   9.574
    4AU     LIG 1584  41.692  13.636   9.867
    4AU     LIG 1585  41.973  13.569  10.252
    4AU    AUSL 1586  40.361  13.884   8.397
    4AU    AUSL 1587  40.112  14.272   8.423
    4AU     AUL 1588  40.308  14.190   8.741
    4AU       S 1589  40.437  13.805   8.542
    4AU     LIG 1590  40.422  13.745   8.981
    4AU     LIG 1591  40.632  13.567   9.369
    4AU     LIG 1592  40.816  13.450   9.802
    4AU     LIG 1593  40.801  13.335  10.284
    4AU     LIG 1594  40.916  13.475  10.736
    4AU       S 1595  39.902  14.010   8.636
    4AU     LIG 1596  39.953  14.004   9.107
    4AU     LIG 1597  39.708  13.908   9.507
    4AU     LIG 1598  39.464  13.907   9.920
    4AU     LIG 1599  39.380  14.152  10.330
    4AU     LIG 1600  39.238  14.473  10.671
    4AU    AUSL 1601  40.431  14.254   8.157
    4AU    AUSL 1602  40.869  14.360   8.101
    4AU     AUL 1603  40.656  14.267   8.443
    4AU       S 1604  40.335  14.643   8.587
    4AU     LIG 1605  40.687  14.522   8.878
    4AU     LIG 1606  40.955  14.681   9.242
    4AU     LIG 1607  40.945  14.822   9.709
    4AU     LIG 1608  40.911  14.797  10.198
    4AU     LIG 1609  41.090  14.694  10.632
    4AU       S 1610  41.028  14.497   8.285
    4AU     LIG 1611  41.424  14.430   8.368
    4AU     LIG 1612  41.697  14.658   8.676
    4AU     LIG 1613  41.948  14.928   8.974
    4AU     LIG 1614  42.172  15.183   9.291
    4AU     LIG 1615  42.492  15.132   9.639
    4AU    AUSL 1616  40.794  14.220   6.767
    4AU    AUSL 1617  40.582  14.556   6.957
    4AU     AUL 1618  40.696  14.595   6.622
    4AU       S 1619  40.758  14.268   6.309
    4AU     LIG 1620  41.116  14.085   6.115
    4AU     LIG 1621  41.164  13.818   5.742
    4AU     LIG 1622  41.298  13.710   5.305
    4AU     LIG 1623  41.662  13.577   5.014
    4AU     LIG 1624  42.039  13.640   4.726
    4AU       S 1625  41.025  14.788   6.873
    4AU     LIG 1626  41.090  14.961   6.467
    4AU     LIG 1627  41.279  15.122   6.055
    4AU     LIG 1628  41.523  15.264   5.678
    4AU     LIG 1629  41.670  15.539   5.327
    4AU     LIG 1630  41.971  15.779   5.064
    4AU    AUSL 1631  40.561  13.895   6.605
    4AU    AUSL 1632  40.920  13.845   6.927
    4AU     AUL 1633  40.973  13.974   6.610
    4AU       S 1634  41.066  13.527   6.702
    4AU     LIG 1635  41.198  13.176   6.399
    4AU     LIG 1636  41.464  12.798   6.290
    4AU     LIG 1637  41.739  12.526   6.014
    4AU     LIG 1638  42.111  12.482   5.740
    4AU     LIG 1639  42.429  12.681   5.449
    4AU       S 1640  40.646  14.141   6.309
    4AU     LIG 1641  40.725  13.742   6.123
    4AU     LIG 1642  40.750  13.515   5.700
    4AU     LIG 1643  40.827  13.493   5.223
    4AU     LIG 1644  40.900  13.232   4.815
    4AU     LIG 1645  40.871  13.139   4.346
    4AU    AUSL 1646  40.369  14.263   6.726
    4AU    AUSL 1647  40.143  13.875   6.716
    4AU     AUL 1648  40.300  13.877   6.442
    4AU       S 1649  39.854  13.914   6.291
    4AU     LIG 1650  39.951  13.712   5.922
    4AU     LIG 1651  39.683  13.429   5.660
    4AU     LIG 1652  39.404  13.316   5.306
    4AU     LIG 1653  39.280  13.396   4.868
    4AU     LIG 1654  39.313  13.164   4.459
    4AU       S 1655  40.420  14.325   6.360
    4AU     LIG 1656  40.367  14.079   5.920
    4AU     LIG 1657  40.704  14.005   5.556
    4AU     LIG 1658  40.904  14.023   5.107
    4AU     LIG 1659  40.989  14.314   4.712
    4AU     LIG 1660  41.081  14.657   4.368
    4AU    AUSL 1661  39.712  14.220   8.252
    4AU    AUSL 1662  40.005  14.571   8.139
    4AU     AUL 1663  39.867  14.503   8.480
    4AU       S 1664  39.706  14.096   8.674
    4AU     LIG 1665  39.497  13.793   8.933
    4AU     LIG 1666  39.261  13.704   9.346
    4AU     LIG 1667  39.041  13.631   9.767
    4AU     LIG 1668  38.714  13.712  10.098
    4AU     LIG 1669  38.349  13.704  10.410
    4AU       S 1670  39.624  14.817   8.223
    4AU     LIG 1671  39.558  14.979   8.626
    4AU     LIG 1672  39.383  15.220   9.004
    4AU     LIG 1673  39.231  15.388   9.423
    4AU     LIG 1674  39.206  15.596   9.849
    4AU     LIG 1675  38.996  15.807  10.220
    4AU    AUSL 1676  40.011  13.932   8.165
    4AU    AUSL 1677  39.595  13.805   8.142
    4AU     AUL 1678  39.492  14.039   8.272
    4AU       S 1679  39.509  13.588   8.405
    4AU     LIG 1680  39.070  13.508   8.233
    4AU     LIG 1681  38.817  13.121   8.306
    4AU     LIG 1682  38.543  12.869   8.604
    4AU     LIG 1683  38.267  12.574   8.867
    4AU     LIG 1684  38.088  12.323   9.226
    4AU       S 1685  39.894  13.872   8.547
    4AU     LIG 1686  39.954  13.556   8.877
    4AU     LIG 1687  39.722  13.451   9.269
    4AU     LIG 1688  39.522  13.431   9.704
    4AU     LIG 1689  39.347  13.417  10.147
    4AU     LIG 1690  39.368  13.196  10.570
    4AU    AUSL 1691  39.732  13.982   6.769
    4AU    AUSL 1692  39.907  13.610   6.945
    4AU     AUL 1693  39.945  13.600   6.614
    4AU       S 1694  39.632  13.892   6.430
    4AU     LIG 1695  39.444  13.705   6.045
    4AU     LIG 1696  39.204  13.666   5.640
    4AU     LIG 1697  38.973  13.606   5.230
    4AU     LIG 1698  38.618  13.660   4.933
    4AU     LIG 1699  38.315  13.946   4.710
    4AU       S 1700  39.525  13.486   6.761
    4AU     LIG 1701  39.453  13.044   6.611
    4AU     LIG 1702  39.097  12.773   6.469
    4AU     LIG 1703  38.898  12.625   6.051
    4AU     LIG 1704  38.913  12.401   5.610
    4AU     LIG 1705  39.080  12.092   5.268
    4AU    AUSL 1706  39.986  14.277   6.567
    4AU    AUSL 1707  39.517  14.317   6.926
    4AU     AUL 1708  39.630  14.323   6.593
    4AU       S 1709  39.225  14.509   6.749
    4AU     LIG 1710  39.124  14.756   6.312
    4AU     LIG 1711  39.028  15.003   5.913
    4AU     LIG 1712  38.851  15.132   5.484
    4AU     LIG 1713  38.503  15.364   5.259
    4AU     LIG 1714  38.057  15.533   5.205
    4AU       S 1715  39.938  14.149   6.286
    4AU     LIG 1716  39.676  14.152   5.893
    4AU     LIG 1717  39.622  13.918   5.493
    4AU     LIG 1718  39.431  13.960   5.055
    4AU     LIG 1719  39.374  14.314   4.709
    4AU     LIG 1720  39.285  14.655   4.364
    4AU    AUSL 1721  41.036  14.550   7.532
    4AU    AUSL 1722  40.948  14.382   7.127
    4AU     AUL 1723  41.294  14.662   7.313
    4AU       S 1724  41.074  14.553   6.931
    4AU     LIG 1725  41.194  14.448   6.518
    4AU     LIG 1726  41.482  14.679   6.239
    4AU     LIG 1727  41.785  14.959   6.010
    4AU     LIG 1728  42.125  15.103   5.710
    4AU     LIG 1729  42.565  15.043   5.515
    4AU       S 1730  41.420  14.411   7.696
    4AU     LIG 1731  41.839  14.552   7.555
    4AU     LIG 1732  42.315  14.680   7.516
    4AU     LIG 1733  42.785  14.827   7.505
    4AU     LIG 1734  43.071  15.242   7.435
    4AU     LIG 1735  43.420  15.571   7.304
    4AU    AUSL 1736  41.204  14.150   7.373
    4AU    AUSL 1737  41.144  13.816   7.704
    4AU     AUL 1738  41.500  13.884   7.632
    4AU       S 1739  41.333  14.216   7.394
    4AU     LIG 1740  41.771  14.127   7.284
    4AU     LIG 1741  42.243  14.209   7.326
    4AU     LIG 1742  42.683  14.383   7.231
    4AU     LIG 1743  43.141  14.512   7.242
    4AU     LIG 1744  43.598  14.642   7.118
    4AU       S 1745  41.366  13.431   7.676
    4AU     LIG 1746  41.737  13.355   7.854
    4AU     LIG 1747  42.108  13.101   7.760
    4AU     LIG 1748  42.572  13.062   7.695
    4AU     LIG 1749  42.982  13.217   7.874
    4AU     LIG 1750  43.414  13.423   7.899
    4AU    AUSL 1751  40.941  14.185   7.731
    4AU    AUSL 1752  40.692  14.594   7.780
    4AU     AUL 1753  41.026  14.624   7.835
    4AU       S 1754  41.007  14.800   8.258
    4AU     LIG 1755  41.404  14.951   8.360
    4AU     LIG 1756  41.652  15.197   8.661
    4AU     LIG 1757  41.959  15.470   8.885
    4AU     LIG 1758  42.073  15.926   8.963
    4AU     LIG 1759  42.282  16.352   9.001
    4AU       S 1760  41.275  14.237   7.855
    4AU     LIG 1761  41.738  14.201   7.997
    4AU     LIG 1762  42.171  14.272   7.836
    4AU     LIG 1763  42.622  14.321   7.733
    4AU     LIG 1764  43.053  14.443   7.831
    4AU     LIG 1765  43.390  14.636   8.086
    4AU    AUSL 1766  39.577  14.654   7.522
    4AU    AUSL 1767  39.655  14.451   7.909
    4AU     AUL 1768  39.342  14.756   7.763
    4AU       S 1769  39.504  14.621   8.170
    4AU     LIG 1770  39.363  14.490   8.562
    4AU     LIG 1771  39.174  14.750   8.916
    4AU     LIG 1772  38.920  15.029   9.213
    4AU     LIG 1773  38.612  15.192   9.550
    4AU     LIG 1774  38.181  15.279   9.748
    4AU       S 1775  39.572  15.026   7.441
    4AU     LIG 1776  39.096  14.992   7.382
    4AU     LIG 1777  38.658  15.219   7.496
    4AU     LIG 1778  38.280  15.547   7.608
    4AU     LIG 1779  37.888  15.852   7.726
    4AU     LIG 1780  37.503  16.166   7.800
    4AU    AUSL 1781  39.527  14.262   7.336
    4AU    AUSL 1782  39.639  14.693   7.107
    4AU     AUL 1783  39.339  14.571   7.211
    4AU       S 1784  39.134  14.076   7.000
    4AU     LIG 1785  38.835  14.457   7.099
    4AU     LIG 1786  38.382  14.663   7.106
    4AU     LIG 1787  37.952  14.839   6.941
    4AU     LIG 1788  37.493  15.004   6.978
    4AU     LIG 1789  37.052  15.104   6.989
    4AU       S 1790  39.470  14.953   6.943
    4AU     LIG 1791  39.353  15.191   6.526
    4AU     LIG 1792  39.214  15.437   6.146
    4AU     LIG 1793  39.037  15.800   5.884
    4AU     LIG 1794  38.792  16.226   5.904
    4AU     LIG 1795  38.575  16.652   5.981
    4AU    AUSL 1796  39.320  14.302   7.716
    4AU    AUSL 1797  39.286  13.930   7.415
    4AU     AUL 1798  39.126  14.241   7.446
    4AU       S 1799  39.086  13.839   7.698
    4AU     LIG 1800  38.771  13.845   7.358
    4AU     LIG 1801  38.366  13.591   7.370
    4AU     LIG 1802  37.899  13.474   7.372
    4AU     LIG 1803  37.430  13.581   7.326
    4AU     LIG 1804  36.990  13.554   7.149
    4AU       S 1805  39.180  14.328   7.943
    4AU     LIG 1806  38.795  14.500   7.740
    4AU     LIG 1807  38.337  14.666   7.831
    4AU     LIG 1808  37.973  14.916   8.051
    4AU     LIG 1809  37.507  15.051   8.167
    4AU     LIG 1810  37.095  15.148   7.940
    4AU    AUSL 1811  40.913  13.490   7.538
    4AU    AUSL 1812  40.762  13.743   7.874
    4AU     AUL 1813  41.066  13.644   7.956
    4AU       S 1814  41.113  13.333   7.517
    4AU     LIG 1815  41.482  12.968   7.543
    4AU     LIG 1816  41.899  12.738   7.451
    4AU     LIG 1817  42.346  12.558   7.398
    4AU     LIG 1818  42.789  12.447   7.513
    4AU     LIG 1819  43.151  12.252   7.768
    4AU       S 1820  40.979  13.197   7.961
    4AU     LIG 1821  41.252  12.954   8.278
    4AU     LIG 1822  41.399  12.706   8.649
    4AU     LIG 1823  41.666  12.440   8.937
    4AU     LIG 1824  42.030  12.467   9.247
    4AU     LIG 1825  42.381  12.651   9.520
    4AU    AUSL 1826  40.899  13.871   7.343
    4AU    AUSL 1827  40.845  13.462   7.122
    4AU     AUL 1828  41.135  13.692   7.178
    4AU       S 1829  41.384  13.451   7.458
    4AU     LIG 1830  41.838  13.304   7.351
    4AU     LIG 1831  42.264  13.062   7.267
    4AU     LIG 1832  42.724  12.885   7.228
    4AU     LIG 1833  43.149  12.922   7.024
    4AU     LIG 1834  43.615  13.006   7.097
    4AU       S 1835  41.047  13.332   6.871
    4AU     LIG 1836  41.075  12.866   6.798
    4AU     LIG 1837  41.274  12.457   6.622
    4AU     LIG 1838  41.626  12.212   6.409
    4AU     LIG 1839  41.901  11.824   6.385
    4AU     LIG 1840  42.084  11.514   6.085
    4AU    AUSL 1841  39.486  13.569   7.563
    4AU    AUSL 1842  39.574  13.820   7.129
    4AU     AUL 1843  39.234  13.642   7.283
    4AU       S 1844  39.410  13.651   6.854
    4AU     LIG 1845  39.045  13.408   6.645
    4AU     LIG 1846  38.707  13.099   6.508
    4AU     LIG 1847  38.453  12.722   6.334
    4AU     LIG 1848  38.035  12.529   6.140
    4AU     LIG 1849  37.598  12.486   5.899
    4AU       S 1850  39.052  13.608   7.721
    4AU     LIG 1851  38.842  13.325   7.398
    4AU     LIG 1852  38.447  13.069   7.264
    4AU     LIG 1853  37.988  12.908   7.355
    4AU     LIG 1854  37.579  12.917   7.605
    4AU     LIG 1855  37.260  12.604   7.779
    4AU    AUSL 1856  39.552  13.954   7.755
    4AU    AUSL 1857  39.804  13.579   7.845
    4AU     AUL 1858  39.470  13.549   7.912
    4AU       S 1859  39.529  13.376   8.339
    4AU     LIG 1860  39.335  13.080   8.046
    4AU     LIG 1861  39.021  12.728   8.033
    4AU     LIG 1862  38.659  12.499   8.264
    4AU     LIG 1863  38.360  12.207   8.527
    4AU     LIG 1864  38.282  11.926   8.908
    4AU       S 1865  39.135  13.865   7.867
    4AU     LIG 1866  38.625  13.980   7.825
    4AU     LIG 1867  38.121  13.896   7.728
    4AU     LIG 1868  37.668  13.681   7.784
    4AU     LIG 1869  37.260  13.393   7.786
    4AU     LIG 1870  36.791  13.227   7.812
    4AU    AUSL 1871  40.281  14.789   7.898
    4AU    AUSL 1872  39.849  14.817   7.810
    4AU     AUL 1873  40.087  14.883   8.191
    4AU       S 1874  39.726  14.997   7.915
    4AU     LIG 1875  39.367  15.217   8.118
    4AU     LIG 1876  39.264  15.416   8.530
    4AU     LIG 1877  39.177  15.829   8.746
    4AU     LIG 1878  38.922  16.170   8.951
    4AU     LIG 1879  38.706  16.594   9.008
    4AU       S 1880  40.294  15.210   7.946
    4AU     LIG 1881  40.449  15.227   8.339
    4AU     LIG 1882  40.498  15.662   8.532
    4AU     LIG 1883  40.482  16.060   8.804
    4AU     LIG 1884  40.481  16.319   9.227
    4AU     LIG 1885  40.631  16.609   9.586
    4AU    AUSL 1886  40.120  15.012   7.553
    4AU    AUSL 1887  40.400  14.917   7.208
    4AU     AUL 1888  40.349  15.271   7.332
    4AU       S 1889  40.130  15.251   7.762
    4AU     LIG 1890  40.245  15.683   8.055
    4AU     LIG 1891  40.259  16.107   8.299
    4AU     LIG 1892  40.044  16.556   8.321
    4AU     LIG 1893  39.787  16.984   8.274
    4AU     LIG 1894  39.581  17.402   8.265
    4AU       S 1895  40.122  15.163   6.952
    4AU     LIG 1896  40.516  15.477   6.910
    4AU     LIG 1897  40.733  15.921   6.845
    4AU     LIG 1898  41.014  16.345   6.802
    4AU     LIG 1899  41.218  16.777   6.646
    4AU     LIG 1900  41.187  17.258   6.565
    4AU    AUSL 1901  40.558  14.953   7.611
    4AU    AUSL 1902  40.550  14.653   8.188
    4AU     AUL 1903  40.658  14.913   7.965
    4AU       S 1904  40.786  14.737   8.403
    4AU     LIG 1905  41.146  14.702   8.737
    4AU     LIG 1906  41.418  14.918   9.036
    4AU     LIG 1907  41.649  15.265   9.245
    4AU     LIG 1908  41.686  15.613   9.564
    4AU     LIG 1909  41.503  15.916   9.895
    4AU       S 1910  40.480  15.298   7.778
    4AU     LIG 1911  40.741  15.543   8.061
    4AU     LIG 1912  40.767  15.990   8.225
    4AU     LIG 1913  40.893  16.462   8.226
    4AU     LIG 1914  41.112  16.905   8.206
    4AU     LIG 1915  41.419  17.270   8.355
    4AU    AUSL 1916  40.175  13.353   7.933
    4AU    AUSL 1917  40.583  13.363   7.768
    4AU     AUL 1918  40.407  13.238   8.159
    4AU       S 1919  40.156  12.898   7.970
    4AU     LIG 1920  40.013  12.850   8.347
    4AU     LIG 1921  39.860  12.421   8.476
    4AU     LIG 1922  39.860  11.941   8.505
    4AU     LIG 1923  39.853  11.475   8.613
    4AU     LIG 1924  39.951  11.196   8.986
    4AU       S 1925  40.732  13.149   7.820
    4AU     LIG 1926  40.689  12.746   8.048
    4AU     LIG 1927  41.011  12.495   8.327
    4AU     LIG 1928  41.301  12.203   8.601
    4AU     LIG 1929  41.538  11.817   8.783
    4AU     LIG 1930  41.923  11.594   8.939
    4AU    AUSL 1931  39.855  13.219   7.647
    4AU    AUSL 1932  39.973  13.530   8.251
    4AU     AUL 1933  39.835  13.246   8.013
    4AU       S 1934  39.961  12.837   7.818
    4AU     LIG 1935  39.641  12.628   8.050
    4AU     LIG 1936  39.567  12.163   8.125
    4AU     LIG 1937  39.605  11.684   8.136
    4AU     LIG 1938  39.609  11.220   8.216
    4AU     LIG 1939  39.335  10.845   8.313
    4AU       S 1940  39.769  13.402   8.453
    4AU     LIG 1941  39.530  12.921   8.496
    4AU     LIG 1942  39.085  12.728   8.541
    4AU     LIG 1943  38.778  12.441   8.766
    4AU     LIG 1944  38.592  12.264   9.145
    4AU     LIG 1945  38.399  11.923   9.411
    4AU    AUSL 1946  40.284  13.130   7.585
    4AU    AUSL 1947  40.057  13.378   7.303
    4AU     AUL 1948  39.927  13.038   7.400
    4AU       S 1949  40.279  12.939   7.132
    4AU     LIG 1950  39.856  12.710   7.039
    4AU     LIG 1951  39.743  12.270   7.079
    4AU     LIG 1952  39.710  11.808   6.960
    4AU     LIG 1953  39.659  11.345   6.805
    4AU     LIG 1954  39.388  10.944   6.722
    4AU       S 1955  40.291  12.917   7.715
    4AU     LIG 1956  40.292  12.446   7.806
    4AU     LIG 1957  40.087  12.090   8.058
    4AU     LIG 1958  40.111  11.616   8.175
    4AU     LIG 1959  40.126  11.155   8.304
    4AU     LIG 1960  40.251  10.722   8.473
    4AU    AUSL 1961  40.214  14.722   6.845
    4AU    AUSL 1962  40.781  14.762   7.273
    4AU     AUL 1963  40.556  14.926   6.926
    4AU       S 1964  40.142  15.070   6.747
    4AU     LIG 1965  40.470  15.216   6.487
    4AU     LIG 1966  40.544  15.684   6.409
    4AU     LIG 1967  40.545  16.038   6.079
    4AU     LIG 1968  40.465  16.371   5.738
    4AU     LIG 1969  40.282  16.749   5.511
    4AU       S 1970  40.968  14.918   7.125
    4AU     LIG 1971  41.395  15.091   6.903
    4AU     LIG 1972  41.598  15.157   6.469
    4AU     LIG 1973  41.875  15.440   6.184
    4AU     LIG 1974  42.218  15.795   6.146
    4AU     LIG 1975  42.551  16.158   6.089
    4AU    AUSL 1976  40.020  14.745   7.248
    4AU    AUSL 1977  39.941  14.416   6.956
    4AU     AUL 1978  39.864  14.711   6.821
    4AU       S 1979  39.947  15.088   7.104
    4AU     LIG 1980  40.043  15.621   7.059
    4AU     LIG 1981  40.196  16.014   6.802
    4AU     LIG 1982  40.009  16.479   6.716
    4AU     LIG 1983  39.738  16.909   6.757
    4AU     LIG 1984  39.836  17.382   6.842
    4AU       S 1985  39.418  14.730   6.706
    4AU     LIG 1986  39.652  14.803   6.342
    4AU     LIG 1987  39.538  15.074   5.960
    4AU     LIG 1988  39.296  15.362   5.638
    4AU     LIG 1989  39.000  15.613   5.349
    4AU     LIG 1990  38.818  15.816   4.950
    4AU    AUSL 1991  40.243  13.351   6.909
    4AU    AUSL 1992  39.649  13.391   7.216
    4AU     AUL 1993  39.901  13.233   6.965
    4AU       S 1994  39.444  13.345   6.996
    4AU     LIG 1995  39.064  13.028   6.981
    4AU     LIG 1996  38.663  12.744   6.876
    4AU     LIG 1997  38.268  12.459   6.742
    4AU     LIG 1998  38.161  12.107   6.424
    4AU     LIG 1999  38.249  11.743   6.125
    4AU       S 2000  40.284  12.944   6.916
    4AU     LIG 2001  40.225  12.507   6.756
    4AU     LIG 2002  39.948  12.154   6.618
    4AU     LIG 2003  39.904  11.707   6.493
    4AU     LIG 2004  39.930  11.387   6.155
    4AU     LIG 2005  40.042  11.301   5.698
    4AU    AUSL 2006  40.484  13.347   7.291
    4AU    AUSL 2007  40.509  13.670   6.950
    4AU     AUL 2008  40.586  13.295   6.929
    4AU       S 2009  40.508  12.937   7.221
    4AU     LIG 2010  40.274  12.468   7.268
    4AU     LIG 2011  40.195  12.017   7.051
    4AU     LIG 2012  40.149  11.525   6.928
    4AU     LIG 2013  40.295  11.038   6.906
    4AU     LIG 2014  40.705  10.786   6.806
    4AU       S 2015  40.818  13.500   6.598
    4AU     LIG 2016  40.705  13.063   6.499
    4AU     LIG 2017  40.946  12.700   6.305
    4AU     LIG 2018  41.239  12.381   6.080
    4AU     LIG 2019  41.480  12.210   5.688
    4AU     LIG 2020  41.505  12.177   5.201
    5AU     AUC 2021  19.029  14.794   7.499
    5AU     AUC 2022  19.311  14.800   7.322
    5AU     AUC 2023  19.294  14.773   7.672
    5AU     AUC 2024  18.743  14.789   7.335
    5AU     AUC 2025  18.762  14.830   7.685
    5AU     AUC 2026  18.862  15.079   7.493
    5AU     AUC 2027  19.219  15.069   7.484
    5AU     AUC 2028  18.838  14.526   7.508
    5AU     AUC 2029  19.190  14.499   7.497
    5AU     AUC 2030  19.027  14.616   7.776
    5AU     AUC 2031  19.029  14.983   7.760
    5AU     AUC 2032  19.026  14.628   7.222
    5AU     AUC 2033  19.048  14.950   7.219
    5AU     AUC 2034  19.628  14.804   7.157
    5AU     AUC 2035  19.636  14.754   7.515
    5AU     AUC 2036  19.581  14.741   7.866
    5AU     AUC 2037  18.437  14.782   7.170
    5AU     AUC 2038  18.422  14.822   7.534
    5AU     AUC 2039  18.477  14.865   7.873
    5AU     AUC 2040  18.701  15.382   7.469
    5AU     AUC 2041  19.069  15.403   7.447
    5AU     AUC 2042  19.410  15.344   7.474
    5AU     AUC 2043  18.639  14.256   7.513
    5AU     AUC 2044  18.987  14.193   7.491
    5AU     AUC 2045  19.350  14.196   7.479
    5AU     AUC 2046  19.007  14.438   8.068
    5AU     AUC 2047  19.029  14.803   8.096
    5AU     AUC 2048  19.061  15.160   8.049
    5AU     AUC 2049  19.053  14.457   6.944
    5AU     AUC 2050  19.046  14.786   6.887
    5AU     AUC 2051  19.030  15.101   6.927
    5AU     AUC 2052  19.294  14.561   7.992
    5AU     AUC 2053  19.340  14.943   7.985
    5AU     AUC 2054  19.368  14.649   6.996
    5AU     AUC 2055  19.364  14.975   7.032
    5AU     AUC 2056  18.726  14.674   8.017
    5AU     AUC 2057  18.757  15.047   7.989
    5AU     AUC 2058  18.727  14.608   7.040
    5AU     AUC 2059  18.704  14.920   6.997
    5AU     AUC 2060  19.571  15.075   7.343
    5AU     AUC 2061  19.510  15.042   7.691
    5AU     AUC 2062  18.534  15.090   7.330
    5AU     AUC 2063  18.565  15.148   7.682
    5AU     AUC 2064  19.504  14.481   7.326
    5AU     AUC 2065  19.470  14.433   7.683
    5AU     AUC 2066  18.504  14.494   7.361
    5AU     AUC 2067  18.559  14.546   7.721
    5AU     AUC 2068  18.889  15.323   7.754
    5AU     AUC 2069  19.232  15.273   7.767
    5AU     AUC 2070  18.828  14.323   7.806
    5AU     AUC 2071  19.148  14.264   7.774
    5AU     AUC 2072  18.847  15.229   7.183
    5AU     AUC 2073  19.234  15.265   7.190
    5AU     AUC 2074  18.828  14.325   7.206
    5AU     AUC 2075  19.223  14.337   7.201
    5AU    AUSL 2076  19.555  14.674   8.235
    5AU    AUSL 2077  19.285  14.273   8.152
    5AU     AUL 2078  19.558  14.270   8.401
    5AU       S 2079  19.663  13.942   8.102
    5AU     LIG 2080  19.565  13.741   8.462
    5AU     LIG 2081  19.712  13.404   8.723
    5AU     LIG 2082  19.983  13.120   8.966
    5AU     LIG 2083  20.176  13.055   9.372
    5AU     LIG 2084  20.052  13.027   9.832
    5AU       S 2085  19.768  14.666   8.349
    5AU     LIG 2086  19.624  14.666   8.793
    5AU     LIG 2087  19.733  14.588   9.256
    5AU     LIG 2088  20.011  14.560   9.655
    5AU     LIG 2089  20.363  14.596   9.977
    5AU     LIG 2090  20.700  14.758  10.268
    5AU    AUSL 2091  19.152  14.603   8.399
    5AU    AUSL 2092  18.910  14.993   8.422
    5AU     AUL 2093  19.106  14.916   8.743
    5AU       S 2094  19.210  14.530   8.535
    5AU     LIG 2095  19.179  14.466   8.969
    5AU     LIG 2096  19.340  14.255   9.349
    5AU     LIG 2097  19.617  14.219   9.724
    5AU     LIG 2098  19.734  14.188  10.173
    5AU     LIG 2099  19.582  14.153  10.627
    5AU       S 2100  18.701  14.731   8.641
    5AU     LIG 2101  18.693  14.714   9.125
    5AU     LIG 2102  18.407  14.683   9.517
    5AU     LIG 2103  18.224  14.862   9.918
    5AU     LIG 2104  18.267  15.159  10.299
    5AU     LIG 2105  18.102  15.443  10.653
    5AU    AUSL 2106  19.229  14.971   8.156
    5AU    AUSL 2107  19.669  15.066   8.099
    5AU     AUL 2108  19.454  14.985   8.442
    5AU       S 2109  19.139  15.365   8.581
    5AU     LIG 2110  19.489  15.237   8.885
    5AU     LIG 2111  19.707  15.352   9.308
    5AU     LIG 2112  19.678  15.456   9.800
    5AU     LIG 2113  19.650  15.606  10.271
    5AU     LIG 2114  19.753  15.566  10.747
    5AU       S 2115  19.840  15.198   8.287
    5AU     LIG 2116  20.266  15.293   8.337
    5AU     LIG 2117  20.483  15.553   8.662
    5AU     LIG 2118  20.678  15.782   9.029
    5AU     LIG 2119  20.886  15.780   9.461
    5AU     LIG 2120  21.243  15.866   9.743
    5AU    AUSL 2121  19.587  14.927   6.766
    5AU    AUSL 2122  19.377  15.263   6.955
    5AU     AUL 2123  19.503  15.300   6.622
    5AU       S 2124  19.545  14.972   6.306
    5AU     LIG 2125  19.890  14.759   6.095
    5AU     LIG 2126  19.924  14.512   5.698
    5AU     LIG 2127  20.135  14.403   5.291
    5AU     LIG 2128  20.556  14.361   5.054
    5AU     LIG 2129  20.927  14.467   4.769
    5AU       S 2130  19.828  15.507   6.873
    5AU     LIG 2131  19.969  15.680   6.462
    5AU     LIG 2132  20.213  15.845   6.056
    5AU     LIG 2133  20.430  15.868   5.605
    5AU     LIG 2134  20.569  16.152   5.231
    5AU     LIG 2135  20.585  16.616   5.089
    5AU    AUSL 2136  19.351  14.603   6.606
    5AU    AUSL 2137  19.711  14.550   6.925
    5AU     AUL 2138  19.765  14.682   6.608
    5AU       S 2139  19.837  14.232   6.696
    5AU     LIG 2140  19.928  13.916   6.344
    5AU     LIG 2141  20.138  13.512   6.230
    5AU     LIG 2142  20.385  13.188   5.985
    5AU     LIG 2143  20.728  13.184   5.643
    5AU     LIG 2144  21.073  13.207   5.301
    5AU       S 2145  19.438  14.838   6.303
    5AU     LIG 2146  19.482  14.435   6.104
    5AU     LIG 2147  19.526  14.186   5.685
    5AU     LIG 2148  19.680  14.130   5.233
    5AU     LIG 2149  19.709  14.001   4.768
    5AU     LIG 2150  19.770  14.105   4.303
    5AU    AUSL 2151  19.162  14.975   6.722
    5AU    AUSL 2152  18.934  14.587   6.720
    5AU     AUL 2153  19.090  14.585   6.446
    5AU       S 2154  18.644  14.622   6.293
    5AU     LIG 2155  18.744  14.416   5.927
    5AU     LIG 2156  18.469  14.208   5.620
    5AU     LIG 2157  18.242  14.232   5.215
    5AU     LIG 2158  17.946  14.057   4.881
    5AU     LIG 2159  17.870  13.776   4.497
    5AU       S 2160  19.212  15.035   6.372
    5AU     LIG 2161  19.107  14.796   5.951
    5AU     LIG 2162  19.432  14.687   5.617
    5AU     LIG 2163  19.656  14.648   5.191
    5AU     LIG 2164  19.733  14.812   4.739
    5AU     LIG 2165  19.757  15.019   4.298
    5AU    AUSL 2166  18.509  14.945   8.255
    5AU    AUSL 2167  18.799  15.292   8.140
    5AU     AUL 2168  18.669  15.227   8.482
    5AU       S 2169  18.508  14.821   8.671
    5AU     LIG 2170  18.267  14.512   8.867
    5AU     LIG 2171  18.050  14.416   9.254
    5AU     LIG 2172  17.875  14.554   9.656
    5AU     LIG 2173  17.465  14.521   9.887
    5AU     LIG 2174  17.184  14.547  10.256
    5AU       S 2175  18.423  15.531   8.216
    5AU     LIG 2176  18.407  15.679   8.623
    5AU     LIG 2177  18.256  15.850   9.034
    5AU     LIG 2178  18.034  15.964   9.430
    5AU     LIG 2179  17.944  16.248   9.796
    5AU     LIG 2180  17.872  16.488  10.201
    5AU    AUSL 2181  18.802  14.653   8.167
    5AU    AUSL 2182  18.384  14.533   8.141
    5AU     AUL 2183  18.284  14.770   8.273
    5AU       S 2184  18.296  14.318   8.395
    5AU     LIG 2185  17.854  14.261   8.247
    5AU     LIG 2186  17.610  13.879   8.361
    5AU     LIG 2187  17.372  13.582   8.645
    5AU     LIG 2188  17.119  13.263   8.894
    5AU     LIG 2189  16.804  13.091   9.201
    5AU       S 2190  18.684  14.598   8.548
    5AU     LIG 2191  18.720  14.274   8.883
    5AU     LIG 2192  18.528  14.226   9.300
    5AU     LIG 2193  18.253  14.181   9.698
    5AU     LIG 2194  18.131  13.901  10.093
    5AU     LIG 2195  18.164  13.716  10.554
    5AU    AUSL 2196  18.521  14.691   6.772
    5AU    AUSL 2197  18.701  14.320   6.949
    5AU     AUL 2198  18.735  14.310   6.620
    5AU       S 2199  18.420  14.597   6.431
    5AU     LIG 2200  18.235  14.480   6.016
    5AU     LIG 2201  18.050  14.545   5.590
    5AU     LIG 2202  17.767  14.445   5.223
    5AU     LIG 2203  17.415  14.451   4.910
    5AU     LIG 2204  17.109  14.760   4.710
    5AU       S 2205  18.317  14.185   6.764
    5AU     LIG 2206  18.293  13.706   6.691
    5AU     LIG 2207  17.949  13.418   6.557
    5AU     LIG 2208  17.659  13.265   6.207
    5AU     LIG 2209  17.464  13.019   5.846
    5AU     LIG 2210  17.485  12.715   5.463
    5AU    AUSL 2211  18.776  14.985   6.569
    5AU    AUSL 2212  18.313  15.033   6.927
    5AU     AUL 2213  18.423  15.027   6.596
    5AU       S 2214  18.031  15.217   6.767
    5AU     LIG 2215  17.763  15.443   6.490
    5AU     LIG 2216  17.799  15.657   6.094
    5AU     LIG 2217  17.689  15.770   5.659
    5AU     LIG 2218  17.370  15.828   5.318
    5AU     LIG 2219  16.979  15.874   5.068
    5AU       S 2220  18.728  14.853   6.291
    5AU     LIG 2221  18.532  14.886   5.876
    5AU     LIG 2222  18.531  14.689   5.459
    5AU     LIG 2223  18.461  14.657   4.995
    5AU     LIG 2224  18.456  14.812   4.540
    5AU     LIG 2225  18.304  15.021   4.135
    5AU    AUSL 2226  19.836  15.258   7.528
    5AU    AUSL 2227  19.746  15.093   7.121
    5AU     AUL 2228  20.094  15.372   7.309
    5AU       S 2229  19.869  15.259   6.933
    5AU     LIG 2230  19.991  15.154   6.511
    5AU     LIG 2231  20.317  15.358   6.230
    5AU     LIG 2232  20.662  15.578   5.973
    5AU     LIG 2233  20.952  15.746   5.625
    5AU     LIG 2234  21.381  15.803   5.415
    5AU       S 2235  20.223  15.112   7.690
    5AU     LIG 2236  20.669  15.082   7.569
    5AU     LIG 2237  21.111  15.238   7.546
    5AU     LIG 2238  21.504  15.493   7.573
    5AU     LIG 2239  21.684  15.939   7.533
    5AU     LIG 2240  21.850  16.386   7.449
    5AU    AUSL 2241  19.999  14.857   7.366
    5AU    AUSL 2242  19.942  14.526   7.699
    5AU     AUL 2243  20.304  14.593   7.614
    5AU       S 2244  20.128  14.923   7.380
    5AU     LIG 2245  20.531  14.775   7.192
    5AU     LIG 2246  20.985  14.944   7.124
    5AU     LIG 2247  21.476  14.872   7.027
    5AU     LIG 2248  21.975  14.922   7.011
    5AU     LIG 2249  22.349  15.179   6.850
    5AU       S 2250  20.164  14.146   7.677
    5AU     LIG 2251  20.569  14.071   7.835
    5AU     LIG 2252  20.990  13.882   7.862
    5AU     LIG 2253  21.433  13.884   7.760
    5AU     LIG 2254  21.872  13.905   7.885
    5AU     LIG 2255  22.335  13.781   7.832
    5AU    AUSL 2256  19.738  14.893   7.726
    5AU    AUSL 2257  19.494  15.302   7.776
    5AU     AUL 2258  19.829  15.327   7.834
    5AU       S 2259  19.813  15.511   8.253
    5AU     LIG 2260  20.100  15.818   8.426
    5AU     LIG 2261  20.384  16.086   8.684
    5AU     LIG 2262  20.696  16.432   8.638
    5AU     LIG 2263  20.970  16.783   8.744
    5AU     LIG 2264  20.908  17.180   8.979
    5AU       S 2265  20.079  14.942   7.847
    5AU     LIG 2266  20.527  14.872   8.016
    5AU     LIG 2267  21.016  14.889   7.932
    5AU     LIG 2268  21.489  15.039   7.856
    5AU     LIG 2269  21.957  15.124   7.968
    5AU     LIG 2270  22.426  15.238   8.031
    5AU    AUSL 2271  18.376  15.370   7.518
    5AU    AUSL 2272  18.454  15.165   7.904
    5AU     AUL 2273  18.146  15.474   7.764
    5AU       S 2274  18.295  15.342   8.178
    5AU     LIG 2275  18.170  15.211   8.582
    5AU     LIG 2276  17.980  15.421   8.964
    5AU     LIG 2277  17.676  15.624   9.272
    5AU     LIG 2278  17.310  15.751   9.544
    5AU     LIG 2279  16.868  15.858   9.690
    5AU       S 2280  18.367  15.742   7.439
    5AU     LIG 2281  17.870  15.713   7.415
    5AU     LIG 2282  17.420  15.939   7.541
    5AU     LIG 2283  17.033  16.287   7.610
    5AU     LIG 2284  16.629  16.584   7.729
    5AU     LIG 2285  16.240  16.855   7.907
    5AU    AUSL 2286  18.319  14.977   7.336
    5AU    AUSL 2287  18.436  15.410   7.103
    5AU     AUL 2288  18.135  15.291   7.221
    5AU       S 2289  17.936  14.780   6.994
    5AU     LIG 2290  17.620  15.138   7.055
    5AU     LIG 2291  17.239  15.367   6.852
    5AU     LIG 2292  16.759  15.480   6.859
    5AU     LIG 2293  16.311  15.647   6.906
    5AU     LIG 2294  15.873  15.874   6.946
    5AU       S 2295  18.266  15.663   6.940
    5AU     LIG 2296  18.033  15.890   6.575
    5AU     LIG 2297  17.987  16.132   6.174
    5AU     LIG 2298  17.738  16.483   5.976
    5AU     LIG 2299  17.358  16.789   5.980
    5AU     LIG 2300  16.942  16.998   6.090
    5AU    AUSL 2301  18.113  15.022   7.716
    5AU    AUSL 2302  18.076  14.646   7.414
    5AU     AUL 2303  17.912  14.958   7.442
    5AU       S 2304  17.876  14.554   7.695
    5AU     LIG 2305  17.540  14.529   7.351
    5AU     LIG 2306  17.108  14.296   7.285
    5AU     LIG 2307  16.620  14.246   7.233
    5AU     LIG 2308  16.140  14.144   7.293
    5AU     LIG 2309  15.734  13.981   7.060
    5AU       S 2310  17.975  15.051   7.938
    5AU     LIG 2311  17.631  15.322   7.774
    5AU     LIG 2312  17.177  15.468   7.933
    5AU     LIG 2313  16.718  15.585   8.100
    5AU     LIG 2314  16.191  15.612   8.150
    5AU     LIG 2315  15.677  15.613   8.168
    5AU    AUSL 2316  19.706  14.201   7.540
    5AU    AUSL 2317  19.562  14.457   7.877
    5AU     AUL 2318  19.868  14.364   7.956
    5AU       S 2319  19.896  14.047   7.523
    5AU     LIG 2320  20.225  13.673   7.584
    5AU     LIG 2321  20.694  13.691   7.484
    5AU     LIG 2322  21.159  13.536   7.486
    5AU     LIG 2323  21.620  13.373   7.484
    5AU     LIG 2324  21.935  13.023   7.647
    5AU       S 2325  19.769  13.920   7.968
    5AU     LIG 2326  20.055  13.680   8.256
    5AU     LIG 2327  20.219  13.451   8.626
    5AU     LIG 2328  20.467  13.306   8.993
    5AU     LIG 2329  20.694  13.055   9.315
    5AU     LIG 2330  21.087  12.890   9.515
    5AU    AUSL 2331  19.692  14.579   7.341
    5AU    AUSL 2332  19.635  14.170   7.125
    5AU     AUL 2333  19.926  14.396   7.175
    5AU       S 2334  20.175  14.157   7.457
    5AU     LIG 2335  20.646  14.253   7.368
    5AU     LIG 2336  21.078  14.031   7.373
    5AU     LIG 2337  21.499  13.866   7.243
    5AU     LIG 2338  21.881  13.753   7.019
    5AU     LIG 2339  22.336  13.714   6.995
    5AU       S 2340  19.836  14.039   6.859
    5AU     LIG 2341  19.885  13.577   6.730
    5AU     LIG 2342  19.997  13.136   6.545
    5AU     LIG 2343  20.141  12.775   6.271
    5AU     LIG 2344  20.398  12.371   6.266
    5AU     LIG 2345  20.824  12.303   6.083
    5AU    AUSL 2346  18.277  14.286   7.563
    5AU    AUSL 2347  18.370  14.532   7.136
    5AU     AUL 2348  18.023  14.356   7.283
    5AU       S 2349  18.202  14.353   6.855
    5AU     LIG 2350  17.836  14.000   6.754
    5AU     LIG 2351  17.524  13.710   6.518
    5AU     LIG 2352  17.190  13.451   6.293
    5AU     LIG 2353  16.974  13.166   5.986
    5AU     LIG 2354  16.577  12.995   5.803
    5AU       S 2355  17.839  14.322   7.719
    5AU     LIG 2356  17.628  14.018   7.401
    5AU     LIG 2357  17.189  13.787   7.326
    5AU     LIG 2358  16.680  13.754   7.391
    5AU     LIG 2359  16.183  13.623   7.411
    5AU     LIG 2360  15.838  13.254   7.411
    5AU    AUSL 2361  18.344  14.673   7.752
    5AU    AUSL 2362  18.591  14.299   7.849
    5AU     AUL 2363  18.257  14.271   7.910
    5AU       S 2364  18.310  14.107   8.341
    5AU     LIG 2365  18.073  13.812   8.082
    5AU     LIG 2366  17.743  13.450   8.108
    5AU     LIG 2367  17.464  13.151   8.381
    5AU     LIG 2368  17.249  12.803   8.667
    5AU     LIG 2369  17.033  12.351   8.759
    5AU       S 2370  17.926  14.589   7.864
    5AU     LIG 2371  17.472  14.826   7.757
    5AU     LIG 2372  17.021  14.714   7.564
    5AU     LIG 2373  16.563  14.509   7.665
    5AU     LIG 2374  16.092  14.363   7.786
    5AU     LIG 2375  15.727  14.057   7.950
    5AU    AUSL 2376  19.082  15.497   7.896
    5AU    AUSL 2377  18.649  15.532   7.806
    5AU     AUL 2378  18.888  15.603   8.185
    5AU       S 2379  18.521  15.721   7.918
    5AU     LIG 2380  18.204  15.965   8.185
    5AU     LIG 2381  18.038  16.076   8.617
    5AU     LIG 2382  17.816  16.403   8.893
    5AU     LIG 2383  17.526  16.796   8.947
    5AU     LIG 2384  17.169  17.135   8.968
    5AU       S 2385  19.106  15.927   7.947
    5AU     LIG 2386  19.316  15.946   8.327
    5AU     LIG 2387  19.426  16.374   8.527
    5AU     LIG 2388  19.295  16.780   8.765
    5AU     LIG 2389  19.225  17.022   9.187
    5AU     LIG 2390  19.296  17.317   9.567
    5AU    AUSL 2391  18.923  15.726   7.554
    5AU    AUSL 2392  19.198  15.628   7.206
    5AU     AUL 2393  19.157  15.981   7.331
    5AU       S 2394  18.934  15.954   7.754
    5AU     LIG 2395  19.041  16.416   7.936
    5AU     LIG 2396  19.163  16.746   8.251
    5AU     LIG 2397  18.990  17.160   8.437
    5AU     LIG 2398  18.832  17.619   8.374
    5AU     LIG 2399  18.696  18.086   8.334
    5AU       S 2400  18.924  15.875   6.955
    5AU     LIG 2401  19.368  16.144   6.920
    5AU     LIG 2402  19.651  16.537   6.884
    5AU     LIG 2403  19.788  16.981   6.756
    5AU     LIG 2404  20.003  17.413   6.768
    5AU     LIG 2405  20.263  17.815   6.660
    5AU    AUSL 2406  19.359  15.662   7.609
    5AU    AUSL 2407  19.357  15.367   8.184
    5AU     AUL 2408  19.464  15.620   7.958
    5AU       S 2409  19.595  15.449   8.398
    5AU     LIG 2410  19.937  15.442   8.740
    5AU     LIG 2411  20.161  15.718   9.038
    5AU     LIG 2412  20.368  15.793   9.456
    5AU     LIG 2413  20.558  16.027   9.819
    5AU     LIG 2414  20.629  16.416  10.091
    5AU       S 2415  19.292  16.008   7.774
    5AU     LIG 2416  19.557  16.295   8.024
    5AU     LIG 2417  19.843  16.601   8.246
    5AU     LIG 2418  20.185  16.937   8.240
    5AU     LIG 2419  20.225  17.384   8.386
    5AU     LIG 2420  19.922  17.732   8.445
    5AU    AUSL 2421  18.965  14.077   7.938
    5AU    AUSL 2422  19.373  14.081   7.771
    5AU     AUL 2423  19.199  13.958   8.162
    5AU       S 2424  18.937  13.618   7.988
    5AU     LIG 2425  18.800  13.402   8.337
    5AU     LIG 2426  18.751  12.942   8.402
    5AU     LIG 2427  18.776  12.468   8.392
    5AU     LIG 2428  18.936  12.089   8.609
    5AU     LIG 2429  18.995  11.861   9.037
    5AU       S 2430  19.524  13.862   7.826
    5AU     LIG 2431  19.558  13.448   8.034
    5AU     LIG 2432  19.886  13.193   8.288
    5AU     LIG 2433  20.202  12.932   8.542
    5AU     LIG 2434  20.410  12.798   8.937
    5AU     LIG 2435  20.843  12.641   9.052
    5AU    AUSL 2436  18.645  13.937   7.654
    5AU    AUSL 2437  18.760  14.252   8.256
    5AU     AUL 2438  18.620  13.968   8.019
    5AU       S 2439  18.748  13.556   7.831
    5AU     LIG 2440  18.588  13.151   7.941
    5AU     LIG 2441  18.517  12.701   8.004
    5AU     LIG 2442  18.268  12.347   8.186
    5AU     LIG 2443  18.000  11.974   8.297
    5AU     LIG 2444  17.767  11.590   8.184
    5AU       S 2445  18.548  14.138   8.452
    5AU     LIG 2446  18.336  13.660   8.513
    5AU     LIG 2447  17.890  13.469   8.598
    5AU     LIG 2448  17.625  13.176   8.870
    5AU     LIG 2449  17.518  13.014   9.300
    5AU     LIG 2450  17.718  12.914   9.734
    5AU    AUSL 2451  19.073  13.844   7.596
    5AU    AUSL 2452  18.850  14.090   7.310
    5AU     AUL 2453  18.717  13.750   7.410
    5AU       S 2454  19.072  13.650   7.146
    5AU     LIG 2455  18.643  13.421   7.047
    5AU     LIG 2456  18.511  12.975   7.022
    5AU     LIG 2457  18.509  12.503   6.901
    5AU     LIG 2458  18.250  12.079   6.834
    5AU     LIG 2459  18.040  11.642   6.745
    5AU       S 2460  19.077  13.633   7.733
    5AU     LIG 2461  19.097  13.163   7.832
    5AU     LIG 2462  19.056  12.717   8.028
    5AU     LIG 2463  19.234  12.265   8.165
    5AU     LIG 2464  19.486  11.852   8.202
    5AU     LIG 2465  19.602  11.412   8.395
    5AU    AUSL 2466  19.012  15.435   6.845
    5AU    AUSL 2467  19.577  15.468   7.272
    5AU     AUL 2468  19.354  15.630   6.919
    5AU       S 2469  18.943  15.795   6.751
    5AU     LIG 2470  19.130  16.113   6.486
    5AU     LIG 2471  19.391  16.501   6.418
    5AU     LIG 2472  19.524  16.765   6.032
    5AU     LIG 2473  19.416  17.047   5.655
    5AU     LIG 2474  19.357  17.485   5.468
    5AU       S 2475  19.748  15.622   7.149
    5AU     LIG 2476  20.101  15.907   6.957
    5AU     LIG 2477  20.308  16.076   6.555
    5AU     LIG 2478  20.527  16.468   6.377
    5AU     LIG 2479  20.948  16.656   6.291
    5AU     LIG 2480  21.118  17.104   6.285
    5AU    AUSL 2481  18.816  15.461   7.248
    5AU    AUSL 2482  18.737  15.131   6.955
    5AU     AUL 2483  18.667  15.430   6.820
    5AU       S 2484  18.747  15.806   7.107
    5AU     LIG 2485  18.892  16.333   7.071
    5AU     LIG 2486  19.081  16.700   6.831
    5AU     LIG 2487  18.892  17.153   6.754
    5AU     LIG 2488  18.801  17.611   6.640
    5AU     LIG 2489  18.758  18.076   6.710
    5AU       S 2490  18.229  15.444   6.686
    5AU     LIG 2491  18.296  15.586   6.249
    5AU     LIG 2492  18.212  15.816   5.821
    5AU     LIG 2493  18.049  16.058   5.428
    5AU     LIG 2494  17.847  16.264   5.031
    5AU     LIG 2495  17.833  16.665   4.756
    5AU    AUSL 2496  19.036  14.059   6.916
    5AU    AUSL 2497  18.442  14.103   7.220
    5AU     AUL 2498  18.702  13.940   6.971
    5AU       S 2499  18.261  14.075   7.006
    5AU     LIG 2500  18.037  13.748   7.159
    5AU     LIG 2501  17.663  13.524   6.986
    5AU     LIG 2502  17.453  13.213   6.680
    5AU     LIG 2503  17.154  12.937   6.413
    5AU     LIG 2504  16.761  12.725   6.217
    5AU       S 2505  19.081  13.648   6.931
    5AU     LIG 2506  19.014  13.224   6.759
    5AU     LIG 2507  18.755  12.874   6.581
    5AU     LIG 2508  18.676  12.458   6.410
    5AU     LIG 2509  18.855  12.054   6.303
    5AU     LIG 2510  19.068  11.749   6.029
    5AU    AUSL 2511  19.276  14.058   7.300
    5AU    AUSL 2512  19.299  14.380   6.953
    5AU     AUL 2513  19.379  14.002   6.941
    5AU       S 2514  19.304  13.649   7.238
    5AU     LIG 2515  19.072  13.184   7.281
    5AU     LIG 2516  18.985  12.765   7.032
    5AU     LIG 2517  19.016  12.345   6.781
    5AU     LIG 2518  19.083  11.875   6.725
    5AU     LIG 2519  19.414  11.572   6.798
    5AU       S 2520  19.594  14.206   6.598
    5AU     LIG 2521  19.458  13.773   6.509
    5AU     LIG 2522  19.633  13.401   6.295
    5AU     LIG 2523  19.867  13.125   5.984
    5AU     LIG 2524  19.981  13.046   5.520
    5AU     LIG 2525  20.067  12.891   5.064
    6AU     AUC 2526  30.778  13.028   7.500
    6AU     AUC 2527  31.062  13.037   7.326
    6AU     AUC 2528  31.042  13.010   7.674
    6AU     AUC 2529  30.494  13.023   7.335
    6AU     AUC 2530  30.510  13.061   7.686
    6AU     AUC 2531  30.611  13.312   7.496
    6AU     AUC 2532  30.968  13.305   7.488
    6AU     AUC 2533  30.588  12.761   7.507
    6AU     AUC 2534  30.939  12.735   7.499
    6AU     AUC 2535  30.775  12.849   7.777
    6AU     AUC 2536  30.777  13.216   7.762
    6AU     AUC 2537  30.778  12.865   7.223
    6AU     AUC 2538  30.799  13.187   7.222
    6AU     AUC 2539  31.380  13.043   7.164
    6AU     AUC 2540  31.385  12.990   7.521
    6AU     AUC 2541  31.328  12.975   7.871
    6AU     AUC 2542  30.190  13.017   7.168
    6AU     AUC 2543  30.172  13.054   7.534
    6AU     AUC 2544  30.225  13.094   7.875
    6AU     AUC 2545  30.451  13.614   7.472
    6AU     AUC 2546  30.817  13.638   7.452
    6AU     AUC 2547  31.157  13.581   7.479
    6AU     AUC 2548  30.389  12.489   7.508
    6AU     AUC 2549  30.737  12.428   7.489
    6AU     AUC 2550  31.100  12.430   7.481
    6AU     AUC 2551  30.754  12.668   8.068
    6AU     AUC 2552  30.777  13.034   8.098
    6AU     AUC 2553  30.809  13.393   8.052
    6AU     AUC 2554  30.807  12.696   6.944
    6AU     AUC 2555  30.801  13.024   6.888
    6AU     AUC 2556  30.783  13.339   6.929
    6AU     AUC 2557  31.040  12.794   7.995
    6AU     AUC 2558  31.088  13.177   7.987
    6AU     AUC 2559  31.123  12.887   7.000
    6AU     AUC 2560  31.117  13.214   7.036
    6AU     AUC 2561  30.474  12.902   8.016
    6AU     AUC 2562  30.504  13.277   7.991
    6AU     AUC 2563  30.481  12.845   7.039
    6AU     AUC 2564  30.458  13.157   6.996
    6AU     AUC 2565  31.320  13.313   7.348
    6AU     AUC 2566  31.257  13.278   7.696
    6AU     AUC 2567  30.285  13.323   7.330
    6AU     AUC 2568  30.314  13.380   7.684
    6AU     AUC 2569  31.256  12.719   7.331
    6AU     AUC 2570  31.214  12.665   7.686
    6AU     AUC 2571  30.255  12.728   7.358
    6AU     AUC 2572  30.308  12.777   7.719
    6AU     AUC 2573  30.637  13.557   7.758
    6AU     AUC 2574  30.979  13.509   7.773
    6AU     AUC 2575  30.576  12.552   7.804
    6AU     AUC 2576  30.893  12.493   7.774
    6AU     AUC 2577  30.598  13.464   7.185
    6AU     AUC 2578  30.985  13.502   7.194
    6AU     AUC 2579  30.581  12.562   7.204
    6AU     AUC 2580  30.977  12.575   7.202
    6AU    AUSL 2581  31.305  12.908   8.235
    6AU    AUSL 2582  31.025  12.502   8.153
    6AU     AUL 2583  31.313  12.504   8.378
    6AU       S 2584  31.401  12.146   8.110
    6AU     LIG 2585  31.290  11.970   8.486
    6AU     LIG 2586  31.359  11.601   8.751
    6AU     LIG 2587  31.602  11.262   8.963
    6AU     LIG 2588  31.827  11.124   9.346
    6AU     LIG 2589  31.828  11.093   9.821
    6AU       S 2590  31.522  12.904   8.366
    6AU     LIG 2591  31.365  12.913   8.813
    6AU     LIG 2592  31.512  12.920   9.269
    6AU     LIG 2593  31.772  12.692   9.610
    6AU     LIG 2594  32.103  12.573   9.948
    6AU     LIG 2595  32.493  12.672  10.212
    6AU    AUSL 2596  30.902  12.834   8.401
    6AU    AUSL 2597  30.657  13.222   8.425
    6AU     AUL 2598  30.850  13.140   8.747
    6AU       S 2599  30.971  12.758   8.541
    6AU     LIG 2600  30.904  12.662   8.952
    6AU     LIG 2601  31.190  12.515   9.306
    6AU     LIG 2602  31.398  12.336   9.702
    6AU     LIG 2603  31.474  12.206  10.157
    6AU     LIG 2604  31.682  12.329  10.561
    6AU       S 2605  30.445  12.957   8.638
    6AU     LIG 2606  30.490  12.958   9.113
    6AU     LIG 2607  30.239  12.816   9.501
    6AU     LIG 2608  30.084  12.876   9.945
    6AU     LIG 2609  30.136  13.152  10.346
    6AU     LIG 2610  30.201  13.389  10.762
    6AU    AUSL 2611  30.976  13.203   8.160
    6AU    AUSL 2612  31.416  13.301   8.102
    6AU     AUL 2613  31.198  13.216   8.446
    6AU       S 2614  30.888  13.590   8.590
    6AU     LIG 2615  31.235  13.442   8.904
    6AU     LIG 2616  31.384  13.431   9.376
    6AU     LIG 2617  31.387  13.600   9.848
    6AU     LIG 2618  31.295  13.759  10.302
    6AU     LIG 2619  31.455  13.902  10.739
    6AU       S 2620  31.580  13.434   8.292
    6AU     LIG 2621  32.001  13.458   8.313
    6AU     LIG 2622  32.260  13.648   8.660
    6AU     LIG 2623  32.491  13.925   8.965
    6AU     LIG 2624  32.782  14.057   9.316
    6AU     LIG 2625  33.185  13.996   9.582
    6AU    AUSL 2626  31.341  13.166   6.773
    6AU    AUSL 2627  31.128  13.503   6.961
    6AU     AUL 2628  31.250  13.539   6.628
    6AU       S 2629  31.304  13.214   6.314
    6AU     LIG 2630  31.670  13.071   6.122
    6AU     LIG 2631  31.769  12.759   5.822
    6AU     LIG 2632  31.815  12.640   5.384
    6AU     LIG 2633  32.027  12.448   5.011
    6AU     LIG 2634  32.358  12.580   4.707
    6AU       S 2635  31.571  13.748   6.875
    6AU     LIG 2636  31.683  13.914   6.477
    6AU     LIG 2637  31.883  14.066   6.070
    6AU     LIG 2638  32.110  14.119   5.656
    6AU     LIG 2639  32.309  14.344   5.299
    6AU     LIG 2640  32.235  14.706   5.019
    6AU    AUSL 2641  31.109  12.841   6.607
    6AU    AUSL 2642  31.469  12.792   6.935
    6AU     AUL 2643  31.526  12.925   6.619
    6AU       S 2644  31.627  12.480   6.716
    6AU     LIG 2645  31.715  12.142   6.385
    6AU     LIG 2646  31.911  11.734   6.293
    6AU     LIG 2647  32.178  11.481   6.003
    6AU     LIG 2648  32.506  11.426   5.667
    6AU     LIG 2649  32.939  11.475   5.456
    6AU       S 2650  31.199  13.072   6.314
    6AU     LIG 2651  31.289  12.713   6.073
    6AU     LIG 2652  31.355  12.514   5.629
    6AU     LIG 2653  31.406  12.439   5.153
    6AU     LIG 2654  31.455  12.217   4.735
    6AU     LIG 2655  31.638  12.170   4.309
    6AU    AUSL 2656  30.918  13.212   6.727
    6AU    AUSL 2657  30.691  12.825   6.718
    6AU     AUL 2658  30.839  12.830   6.443
    6AU       S 2659  30.390  12.865   6.297
    6AU     LIG 2660  30.507  12.611   5.980
    6AU     LIG 2661  30.262  12.382   5.657
    6AU     LIG 2662  30.063  12.375   5.233
    6AU     LIG 2663  30.011  12.247   4.789
    6AU     LIG 2664  29.756  12.274   4.399
    6AU       S 2665  30.972  13.275   6.362
    6AU     LIG 2666  30.999  13.135   5.880
    6AU     LIG 2667  31.369  13.028   5.593
    6AU     LIG 2668  31.486  12.971   5.127
    6AU     LIG 2669  31.461  13.132   4.661
    6AU     LIG 2670  31.439  13.447   4.285
    6AU    AUSL 2671  30.256  13.172   8.255
    6AU    AUSL 2672  30.549  13.518   8.139
    6AU     AUL 2673  30.416  13.459   8.479
    6AU       S 2674  30.260  13.061   8.679
    6AU     LIG 2675  29.948  12.818   8.808
    6AU     LIG 2676  29.838  12.643   9.220
    6AU     LIG 2677  29.694  12.630   9.671
    6AU     LIG 2678  29.312  12.550   9.964
    6AU     LIG 2679  28.938  12.595  10.262
    6AU       S 2680  30.161  13.761   8.219
    6AU     LIG 2681  30.164  13.911   8.635
    6AU     LIG 2682  30.032  14.132   9.042
    6AU     LIG 2683  29.764  14.324   9.378
    6AU     LIG 2684  29.520  14.430   9.775
    6AU     LIG 2685  29.503  14.633  10.216
    6AU    AUSL 2686  30.553  12.882   8.168
    6AU    AUSL 2687  30.136  12.759   8.140
    6AU     AUL 2688  30.040  12.990   8.281
    6AU       S 2689  30.048  12.535   8.398
    6AU     LIG 2690  29.604  12.484   8.230
    6AU     LIG 2691  29.326  12.123   8.273
    6AU     LIG 2692  29.148  11.808   8.564
    6AU     LIG 2693  28.934  11.531   8.889
    6AU     LIG 2694  28.642  11.492   9.260
    6AU       S 2695  30.434  12.823   8.553
    6AU     LIG 2696  30.351  12.519   8.918
    6AU     LIG 2697  30.228  12.325   9.336
    6AU     LIG 2698  30.074  12.294   9.787
    6AU     LIG 2699  29.870  12.128  10.192
    6AU     LIG 2700  29.871  12.087  10.670
    6AU    AUSL 2701  30.280  12.933   6.772
    6AU    AUSL 2702  30.456  12.559   6.946
    6AU     AUL 2703  30.490  12.549   6.617
    6AU       S 2704  30.173  12.838   6.432
    6AU     LIG 2705  29.991  12.641   6.046
    6AU     LIG 2706  29.793  12.611   5.618
    6AU     LIG 2707  29.566  12.559   5.206
    6AU     LIG 2708  29.134  12.675   5.040
    6AU     LIG 2709  28.781  12.764   4.744
    6AU       S 2710  30.067  12.430   6.756
    6AU     LIG 2711  29.890  12.008   6.626
    6AU     LIG 2712  29.519  11.822   6.435
    6AU     LIG 2713  29.322  11.556   6.122
    6AU     LIG 2714  29.249  11.387   5.698
    6AU     LIG 2715  29.237  11.194   5.269
    6AU    AUSL 2716  30.535  13.226   6.567
    6AU    AUSL 2717  30.064  13.270   6.925
    6AU     AUL 2718  30.182  13.270   6.593
    6AU       S 2719  29.783  13.456   6.760
    6AU     LIG 2720  29.553  13.681   6.426
    6AU     LIG 2721  29.548  13.960   6.063
    6AU     LIG 2722  29.367  14.070   5.637
    6AU     LIG 2723  28.954  14.106   5.388
    6AU     LIG 2724  28.616  14.232   5.064
    6AU       S 2725  30.479  13.096   6.275
    6AU     LIG 2726  30.252  13.053   5.857
    6AU     LIG 2727  30.209  12.850   5.442
    6AU     LIG 2728  30.001  12.865   5.019
    6AU     LIG 2729  29.943  13.195   4.660
    6AU     LIG 2730  29.938  13.447   4.245
    6AU    AUSL 2731  31.579  13.494   7.534
    6AU    AUSL 2732  31.499  13.337   7.126
    6AU     AUL 2733  31.823  13.635   7.326
    6AU       S 2734  31.624  13.501   6.939
    6AU     LIG 2735  31.754  13.402   6.530
    6AU     LIG 2736  32.093  13.643   6.290
    6AU     LIG 2737  32.393  13.944   6.054
    6AU     LIG 2738  32.627  14.092   5.647
    6AU     LIG 2739  32.838  14.363   5.306
    6AU       S 2740  31.972  13.362   7.690
    6AU     LIG 2741  32.370  13.572   7.651
    6AU     LIG 2742  32.837  13.656   7.552
    6AU     LIG 2743  33.254  13.874   7.447
    6AU     LIG 2744  33.444  14.324   7.386
    6AU     LIG 2745  33.601  14.721   7.172
    6AU    AUSL 2746  31.747  13.097   7.369
    6AU    AUSL 2747  31.684  12.755   7.713
    6AU     AUL 2748  32.013  12.800   7.569
    6AU       S 2749  31.934  13.207   7.417
    6AU     LIG 2750  32.408  13.125   7.411
    6AU     LIG 2751  32.914  13.198   7.332
    6AU     LIG 2752  33.394  13.373   7.290
    6AU     LIG 2753  33.830  13.469   7.081
    6AU     LIG 2754  34.108  13.766   6.834
    6AU       S 2755  31.901  12.359   7.697
    6AU     LIG 2756  32.294  12.258   7.855
    6AU     LIG 2757  32.730  12.104   7.787
    6AU     LIG 2758  33.191  12.051   7.700
    6AU     LIG 2759  33.664  12.022   7.756
    6AU     LIG 2760  34.058  12.082   8.003
    6AU    AUSL 2761  31.489  13.128   7.731
    6AU    AUSL 2762  31.239  13.539   7.782
    6AU     AUL 2763  31.577  13.559   7.841
    6AU       S 2764  31.562  13.746   8.259
    6AU     LIG 2765  31.933  13.976   8.431
    6AU     LIG 2766  32.239  14.275   8.655
    6AU     LIG 2767  32.409  14.730   8.761
    6AU     LIG 2768  32.689  15.151   8.750
    6AU     LIG 2769  33.117  15.371   8.816
    6AU       S 2770  31.837  13.174   7.845
    6AU     LIG 2771  32.295  13.107   7.952
    6AU     LIG 2772  32.731  13.218   7.819
    6AU     LIG 2773  33.197  13.325   7.765
    6AU     LIG 2774  33.649  13.339   7.915
    6AU     LIG 2775  34.099  13.515   7.929
    6AU    AUSL 2776  30.129  13.602   7.519
    6AU    AUSL 2777  30.202  13.396   7.906
    6AU     AUL 2778  29.892  13.705   7.757
    6AU       S 2779  30.047  13.569   8.168
    6AU     LIG 2780  29.912  13.453   8.572
    6AU     LIG 2781  29.712  13.754   8.890
    6AU     LIG 2782  29.412  14.023   9.155
    6AU     LIG 2783  29.088  14.112   9.513
    6AU     LIG 2784  28.673  14.250   9.721
    6AU       S 2785  30.129  13.978   7.443
    6AU     LIG 2786  29.663  13.972   7.371
    6AU     LIG 2787  29.262  14.271   7.443
    6AU     LIG 2788  28.940  14.657   7.532
    6AU     LIG 2789  28.619  14.972   7.739
    6AU     LIG 2790  28.176  15.140   7.842
    6AU    AUSL 2791  30.072  13.211   7.335
    6AU    AUSL 2792  30.187  13.646   7.105
    6AU     AUL 2793  29.888  13.526   7.217
    6AU       S 2794  29.684  13.022   6.992
    6AU     LIG 2795  29.385  13.403   7.077
    6AU     LIG 2796  28.923  13.580   7.047
    6AU     LIG 2797  28.420  13.605   7.072
    6AU     LIG 2798  27.974  13.768   6.978
    6AU     LIG 2799  27.647  13.806   6.612
    6AU       S 2800  30.016  13.903   6.940
    6AU     LIG 2801  29.795  14.135   6.558
    6AU     LIG 2802  29.687  14.448   6.204
    6AU     LIG 2803  29.490  14.897   6.106
    6AU     LIG 2804  29.240  15.332   6.111
    6AU     LIG 2805  28.854  15.595   6.228
    6AU    AUSL 2806  29.863  13.253   7.714
    6AU    AUSL 2807  29.828  12.879   7.409
    6AU     AUL 2808  29.669  13.192   7.441
    6AU       S 2809  29.614  12.784   7.681
    6AU     LIG 2810  29.187  12.582   7.457
    6AU     LIG 2811  28.698  12.502   7.471
    6AU     LIG 2812  28.238  12.456   7.333
    6AU     LIG 2813  27.809  12.453   7.114
    6AU     LIG 2814  27.409  12.205   6.992
    6AU       S 2815  29.728  13.277   7.941
    6AU     LIG 2816  29.343  13.445   7.758
    6AU     LIG 2817  28.848  13.413   7.824
    6AU     LIG 2818  28.361  13.452   7.955
    6AU     LIG 2819  28.001  13.660   8.240
    6AU     LIG 2820  27.580  13.893   8.415
    6AU    AUSL 2821  31.448  12.434   7.544
    6AU    AUSL 2822  31.298  12.690   7.879
    6AU     AUL 2823  31.598  12.584   7.964
    6AU       S 2824  31.635  12.271   7.529
    6AU     LIG 2825  31.967  11.881   7.595
    6AU     LIG 2826  32.432  11.760   7.548
    6AU     LIG 2827  32.891  11.603   7.572
    6AU     LIG 2828  33.117  11.178   7.572
    6AU     LIG 2829  33.539  10.978   7.662
    6AU       S 2830  31.512  12.137   7.974
    6AU     LIG 2831  31.750  11.827   8.252
    6AU     LIG 2832  31.864  11.594   8.639
    6AU     LIG 2833  32.117  11.338   8.943
    6AU     LIG 2834  32.515  11.366   9.205
    6AU     LIG 2835  32.931  11.432   9.429
    6AU    AUSL 2836  31.444  12.815   7.351
    6AU    AUSL 2837  31.389  12.408   7.126
    6AU     AUL 2838  31.682  12.633   7.193
    6AU       S 2839  31.903  12.350   7.460
    6AU     LIG 2840  32.360  12.232   7.352
    6AU     LIG 2841  32.816  12.034   7.287
    6AU     LIG 2842  33.262  11.824   7.253
    6AU     LIG 2843  33.743  11.797   7.290
    6AU     LIG 2844  34.129  11.800   7.011
    6AU       S 2845  31.593  12.273   6.880
    6AU     LIG 2846  31.621  11.796   6.761
    6AU     LIG 2847  31.737  11.336   6.588
    6AU     LIG 2848  31.844  10.870   6.428
    6AU     LIG 2849  32.132  10.468   6.370
    6AU     LIG 2850  32.470  10.135   6.304
    6AU    AUSL 2851  30.027  12.518   7.558
    6AU    AUSL 2852  30.122  12.768   7.129
    6AU     AUL 2853  29.773  12.583   7.277
    6AU       S 2854  29.959  12.602   6.854
    6AU     LIG 2855  29.538  12.351   6.810
    6AU     LIG 2856  29.141  12.097   6.668
    6AU     LIG 2857  28.945  11.855   6.320
    6AU     LIG 2858  28.823  11.502   6.019
    6AU     LIG 2859  28.748  11.408   5.561
    6AU       S 2860  29.602  12.577   7.723
    6AU     LIG 2861  29.402  12.202   7.760
    6AU     LIG 2862  28.956  12.101   7.665
    6AU     LIG 2863  28.490  12.102   7.758
    6AU     LIG 2864  28.147  11.769   7.748
    6AU     LIG 2865  27.795  11.460   7.785
    6AU    AUSL 2866  30.090  12.902   7.752
    6AU    AUSL 2867  30.342  12.528   7.844
    6AU     AUL 2868  30.011  12.497   7.909
    6AU       S 2869  30.061  12.331   8.340
    6AU     LIG 2870  29.816  12.037   8.063
    6AU     LIG 2871  29.483  11.673   8.086
    6AU     LIG 2872  29.297  11.345   8.411
    6AU     LIG 2873  29.066  10.943   8.584
    6AU     LIG 2874  28.715  10.645   8.733
    6AU       S 2875  29.679  12.816   7.859
    6AU     LIG 2876  29.174  12.960   7.807
    6AU     LIG 2877  28.676  12.925   7.761
    6AU     LIG 2878  28.301  12.623   7.813
    6AU     LIG 2879  28.000  12.254   7.768
    6AU     LIG 2880  27.662  11.972   7.924
    6AU    AUSL 2881  30.828  13.737   7.904
    6AU    AUSL 2882  30.395  13.766   7.813
    6AU     AUL 2883  30.627  13.830   8.194
    6AU       S 2884  30.262  13.957   7.926
    6AU     LIG 2885  29.951  14.198   8.213
    6AU     LIG 2886  29.730  14.221   8.635
    6AU     LIG 2887  29.523  14.505   8.948
    6AU     LIG 2888  29.283  14.924   8.995
    6AU     LIG 2889  29.009  15.319   8.932
    6AU       S 2890  30.844  14.151   7.952
    6AU     LIG 2891  31.016  14.170   8.337
    6AU     LIG 2892  31.080  14.608   8.529
    6AU     LIG 2893  31.074  15.045   8.736
    6AU     LIG 2894  31.027  15.333   9.130
    6AU     LIG 2895  30.980  15.725   9.407
    6AU    AUSL 2896  30.667  13.960   7.556
    6AU    AUSL 2897  30.946  13.866   7.211
    6AU     AUL 2898  30.903  14.221   7.336
    6AU       S 2899  30.672  14.191   7.758
    6AU     LIG 2900  30.757  14.624   8.029
    6AU     LIG 2901  30.911  15.021   8.237
    6AU     LIG 2902  30.786  15.479   8.353
    6AU     LIG 2903  30.580  15.926   8.294
    6AU     LIG 2904  30.363  16.365   8.281
    6AU       S 2905  30.667  14.108   6.964
    6AU     LIG 2906  31.099  14.393   6.909
    6AU     LIG 2907  31.369  14.820   6.796
    6AU     LIG 2908  31.724  15.204   6.732
    6AU     LIG 2909  31.909  15.673   6.715
    6AU     LIG 2910  31.943  16.154   6.630
    6AU    AUSL 2911  31.104  13.898   7.614
    6AU    AUSL 2912  31.101  13.601   8.190
    6AU     AUL 2913  31.213  13.858   7.964
    6AU       S 2914  31.338  13.681   8.404
    6AU     LIG 2915  31.688  13.648   8.743
    6AU     LIG 2916  31.971  13.952   8.971
    6AU     LIG 2917  32.212  14.315   9.180
    6AU     LIG 2918  32.215  14.654   9.526
    6AU     LIG 2919  32.082  14.942   9.896
    6AU       S 2920  31.022  14.242   7.786
    6AU     LIG 2921  31.267  14.524   8.053
    6AU     LIG 2922  31.437  14.919   8.264
    6AU     LIG 2923  31.801  15.252   8.269
    6AU     LIG 2924  31.914  15.703   8.346
    6AU     LIG 2925  31.867  16.167   8.499
    6AU    AUSL 2926  30.711  12.300   7.936
    6AU    AUSL 2927  31.121  12.307   7.778
    6AU     AUL 2928  30.938  12.186   8.167
    6AU       S 2929  30.688  11.848   7.971
    6AU     LIG 2930  30.641  11.695   8.341
    6AU     LIG 2931  30.532  11.258   8.432
    6AU     LIG 2932  30.550  10.789   8.436
    6AU     LIG 2933  30.517  10.467   8.773
    6AU     LIG 2934  30.491  10.382   9.247
    6AU       S 2935  31.267  12.094   7.831
    6AU     LIG 2936  31.203  11.690   8.056
    6AU     LIG 2937  31.489  11.382   8.306
    6AU     LIG 2938  31.815  11.094   8.516
    6AU     LIG 2939  32.007  10.685   8.649
    6AU     LIG 2940  32.186  10.273   8.832
    6AU    AUSL 2941  30.394  12.168   7.645
    6AU    AUSL 2942  30.509  12.481   8.252
    6AU     AUL 2943  30.367  12.195   8.013
    6AU       S 2944  30.498  11.790   7.815
    6AU     LIG 2945  30.285  11.475   8.029
    6AU     LIG 2946  30.253  11.008   8.066
    6AU     LIG 2947  30.144  10.557   8.162
    6AU     LIG 2948  29.883  10.150   8.156
    6AU     LIG 2949  29.894   9.731   8.353
    6AU       S 2950  30.325  12.361   8.450
    6AU     LIG 2951  30.151  11.869   8.425
    6AU     LIG 2952  29.694  11.738   8.541
    6AU     LIG 2953  29.451  11.534   8.894
    6AU     LIG 2954  29.419  11.541   9.369
    6AU     LIG 2955  29.447  11.374   9.817
    6AU    AUSL 2956  30.823  12.079   7.587
    6AU    AUSL 2957  30.601  12.328   7.306
    6AU     AUL 2958  30.472  11.982   7.391
    6AU       S 2959  30.847  11.885   7.152
    6AU     LIG 2960  30.499  11.539   7.135
    6AU     LIG 2961  30.309  11.103   7.022
    6AU     LIG 2962  30.159  10.660   6.859
    6AU     LIG 2963  29.904  10.224   6.843
    6AU     LIG 2964  29.951   9.742   6.882
    6AU       S 2965  30.828  11.870   7.715
    6AU     LIG 2966  30.845  11.410   7.774
    6AU     LIG 2967  30.787  11.017   8.024
    6AU     LIG 2968  30.944  10.561   8.075
    6AU     LIG 2969  31.258  10.173   8.040
    6AU     LIG 2970  31.581   9.836   8.132
    6AU    AUSL 2971  30.762  13.672   6.848
    6AU    AUSL 2972  31.328  13.712   7.276
    6AU     AUL 2973  31.098  13.870   6.926
    6AU       S 2974  30.691  14.036   6.750
    6AU     LIG 2975  30.816  14.403   6.497
    6AU     LIG 2976  31.050  14.797   6.367
    6AU     LIG 2977  31.117  15.152   6.041
    6AU     LIG 2978  31.028  15.491   5.697
    6AU     LIG 2979  30.975  15.972   5.610
    6AU       S 2980  31.515  13.884   7.108
    6AU     LIG 2981  31.975  14.002   6.921
    6AU     LIG 2982  32.169  14.147   6.502
    6AU     LIG 2983  32.314  14.540   6.246
    6AU     LIG 2984  32.481  15.001   6.127
    6AU     LIG 2985  32.823  15.294   5.938
    6AU    AUSL 2986  30.566  13.692   7.251
    6AU    AUSL 2987  30.488  13.366   6.955
    6AU     AUL 2988  30.419  13.667   6.823
    6AU       S 2989  30.496  14.044   7.107
    6AU     LIG 2990  30.619  14.575   7.025
    6AU     LIG 2991  30.749  14.968   6.769
    6AU     LIG 2992  30.589  15.426   6.626
    6AU     LIG 2993  30.355  15.844   6.473
    6AU     LIG 2994  30.134  16.249   6.299
    6AU       S 2995  29.979  13.683   6.690
    6AU     LIG 2996  30.045  13.800   6.255
    6AU     LIG 2997  30.001  14.106   5.887
    6AU     LIG 2998  29.849  14.187   5.441
    6AU     LIG 2999  29.772  14.439   5.049
    6AU     LIG 3000  29.581  14.746   4.738
    6AU    AUSL 3001  30.792  12.298   6.916
    6AU    AUSL 3002  30.194  12.339   7.213
    6AU     AUL 3003  30.458  12.180   6.962
    6AU       S 3004  30.015  12.312   6.990
    6AU     LIG 3005  29.745  12.022   7.148
    6AU     LIG 3006  29.421  11.749   6.938
    6AU     LIG 3007  29.150  11.499   6.624
    6AU     LIG 3008  28.914  11.145   6.398
    6AU     LIG 3009  28.602  10.806   6.256
    6AU       S 3010  30.842  11.894   6.968
    6AU     LIG 3011  30.833  11.498   6.745
    6AU     LIG 3012  30.579  11.134   6.585
    6AU     LIG 3013  30.600  10.670   6.536
    6AU     LIG 3014  30.690  10.383   6.167
    6AU     LIG 3015  30.572  10.280   5.716
    6AU    AUSL 3016  31.029  12.301   7.299
    6AU    AUSL 3017  31.055  12.621   6.954
    6AU     AUL 3018  31.129  12.253   6.924
    6AU       S 3019  31.107  11.920   7.250
    6AU     LIG 3020  30.990  11.425   7.253
    6AU     LIG 3021  30.832  11.033   7.018
    6AU     LIG 3022  30.966  10.576   6.909
    6AU     LIG 3023  30.877  10.108   6.888
    6AU     LIG 3024  31.109   9.698   6.836
    6AU       S 3025  31.376  12.452   6.601
    6AU     LIG 3026  31.227  12.015   6.503
    6AU     LIG 3027  31.403  11.626   6.310
    6AU     LIG 3028  31.682  11.320   6.065
    6AU     LIG 3029  31.904  11.207   5.655
    6AU     LIG 3030  31.952  11.053   5.211
    7AU     AUC 3031  22.630   5.805   7.499
    7AU     AUC 3032  22.912   5.814   7.325
    7AU     AUC 3033  22.894   5.788   7.673
    7AU     AUC 3034  22.346   5.798   7.334
    7AU     AUC 3035  22.363   5.840   7.684
    7AU     AUC 3036  22.461   6.089   7.493
    7AU     AUC 3037  22.817   6.084   7.485
    7AU     AUC 3038  22.442   5.536   7.508
    7AU     AUC 3039  22.794   5.511   7.499
    7AU     AUC 3040  22.629   5.628   7.776
    7AU     AUC 3041  22.628   5.995   7.760
    7AU     AUC 3042  22.630   5.640   7.224
    7AU     AUC 3043  22.649   5.963   7.220
    7AU     AUC 3044  23.228   5.821   7.161
    7AU     AUC 3045  23.236   5.772   7.520
    7AU     AUC 3046  23.179   5.759   7.870
    7AU     AUC 3047  22.042   5.789   7.168
    7AU     AUC 3048  22.025   5.829   7.533
    7AU     AUC 3049  22.077   5.872   7.872
    7AU     AUC 3050  22.298   6.391   7.467
    7AU     AUC 3051  22.665   6.415   7.447
    7AU     AUC 3052  23.006   6.360   7.475
    7AU     AUC 3053  22.246   5.264   7.512
    7AU     AUC 3054  22.595   5.204   7.491
    7AU     AUC 3055  22.957   5.209   7.481
    7AU     AUC 3056  22.611   5.449   8.069
    7AU     AUC 3057  22.627   5.814   8.096
    7AU     AUC 3058  22.657   6.173   8.049
    7AU     AUC 3059  22.659   5.467   6.946
    7AU     AUC 3060  22.652   5.797   6.889
    7AU     AUC 3061  22.632   6.114   6.926
    7AU     AUC 3062  22.895   5.575   7.995
    7AU     AUC 3063  22.937   5.959   7.986
    7AU     AUC 3064  22.973   5.664   6.999
    7AU     AUC 3065  22.965   5.990   7.033
    7AU     AUC 3066  22.328   5.681   8.016
    7AU     AUC 3067  22.353   6.056   7.988
    7AU     AUC 3068  22.333   5.616   7.039
    7AU     AUC 3069  22.308   5.928   6.995
    7AU     AUC 3070  23.169   6.093   7.346
    7AU     AUC 3071  23.106   6.060   7.694
    7AU     AUC 3072  22.135   6.097   7.327
    7AU     AUC 3073  22.164   6.157   7.681
    7AU     AUC 3074  23.108   5.498   7.330
    7AU     AUC 3075  23.072   5.448   7.686
    7AU     AUC 3076  22.109   5.502   7.360
    7AU     AUC 3077  22.162   5.553   7.721
    7AU     AUC 3078  22.485   6.336   7.754
    7AU     AUC 3079  22.827   6.289   7.769
    7AU     AUC 3080  22.433   5.332   7.806
    7AU     AUC 3081  22.753   5.275   7.775
    7AU     AUC 3082  22.447   6.238   7.181
    7AU     AUC 3083  22.834   6.279   7.189
    7AU     AUC 3084  22.435   5.335   7.206
    7AU     AUC 3085  22.831   5.349   7.202
    7AU    AUSL 3086  23.155   5.692   8.236
    7AU    AUSL 3087  22.890   5.284   8.157
    7AU     AUL 3088  23.169   5.293   8.403
    7AU       S 3089  23.266   4.954   8.114
    7AU     LIG 3090  23.143   4.782   8.492
    7AU     LIG 3091  23.310   4.458   8.751
    7AU     LIG 3092  23.535   4.124   8.976
    7AU     LIG 3093  23.720   3.910   9.352
    7AU     LIG 3094  23.622   3.719   9.788
    7AU       S 3095  23.374   5.690   8.347
    7AU     LIG 3096  23.272   5.712   8.793
    7AU     LIG 3097  23.512   5.708   9.221
    7AU     LIG 3098  23.830   5.695   9.609
    7AU     LIG 3099  24.173   5.731   9.960
    7AU     LIG 3100  24.482   5.780  10.325
    7AU    AUSL 3101  22.752   5.615   8.400
    7AU    AUSL 3102  22.503   6.003   8.421
    7AU     AUL 3103  22.697   5.927   8.744
    7AU       S 3104  22.818   5.545   8.539
    7AU     LIG 3105  22.836   5.481   8.968
    7AU     LIG 3106  22.829   5.196   9.341
    7AU     LIG 3107  23.017   5.038   9.757
    7AU     LIG 3108  23.191   5.070  10.197
    7AU     LIG 3109  23.187   5.028  10.663
    7AU       S 3110  22.295   5.742   8.634
    7AU     LIG 3111  22.344   5.723   9.104
    7AU     LIG 3112  22.082   5.659   9.496
    7AU     LIG 3113  21.890   5.669   9.930
    7AU     LIG 3114  21.911   5.949  10.326
    7AU     LIG 3115  21.868   6.354  10.590
    7AU    AUSL 3116  22.824   5.983   8.158
    7AU    AUSL 3117  23.263   6.087   8.102
    7AU     AUL 3118  23.047   5.998   8.445
    7AU       S 3119  22.726   6.376   8.583
    7AU     LIG 3120  23.084   6.249   8.877
    7AU     LIG 3121  23.387   6.356   9.231
    7AU     LIG 3122  23.483   6.501   9.677
    7AU     LIG 3123  23.509   6.488  10.158
    7AU     LIG 3124  23.614   6.424  10.614
    7AU       S 3125  23.424   6.220   8.285
    7AU     LIG 3126  23.830   6.170   8.364
    7AU     LIG 3127  24.095   6.387   8.692
    7AU     LIG 3128  24.348   6.637   9.010
    7AU     LIG 3129  24.574   6.840   9.368
    7AU     LIG 3130  24.914   6.763   9.707
    7AU    AUSL 3131  23.191   5.948   6.764
    7AU    AUSL 3132  22.978   6.282   6.954
    7AU     AUL 3133  23.086   6.326   6.617
    7AU       S 3134  23.138   5.976   6.326
    7AU     LIG 3135  23.538   5.862   6.122
    7AU     LIG 3136  23.627   5.627   5.733
    7AU     LIG 3137  23.817   5.565   5.311
    7AU     LIG 3138  24.156   5.626   4.984
    7AU     LIG 3139  24.501   5.718   4.662
    7AU       S 3140  23.419   6.509   6.871
    7AU     LIG 3141  23.399   6.743   6.518
    7AU     LIG 3142  23.625   6.821   6.124
    7AU     LIG 3143  23.975   6.931   5.829
    7AU     LIG 3144  24.125   7.159   5.436
    7AU     LIG 3145  24.086   7.352   4.987
    7AU    AUSL 3146  22.961   5.615   6.611
    7AU    AUSL 3147  23.312   5.572   6.931
    7AU     AUL 3148  23.392   5.716   6.635
    7AU       S 3149  23.439   5.257   6.697
    7AU     LIG 3150  23.583   4.898   6.393
    7AU     LIG 3151  23.834   4.504   6.256
    7AU     LIG 3152  24.078   4.212   5.951
    7AU     LIG 3153  24.455   4.154   5.650
    7AU     LIG 3154  24.863   4.344   5.468
    7AU       S 3155  23.081   5.774   6.290
    7AU     LIG 3156  22.977   5.382   6.098
    7AU     LIG 3157  22.880   5.244   5.658
    7AU     LIG 3158  23.114   5.258   5.236
    7AU     LIG 3159  23.167   5.124   4.770
    7AU     LIG 3160  23.258   4.948   4.341
    7AU    AUSL 3161  22.766   5.986   6.727
    7AU    AUSL 3162  22.543   5.596   6.722
    7AU     AUL 3163  22.689   5.609   6.449
    7AU       S 3164  22.245   5.631   6.296
    7AU     LIG 3165  22.439   5.411   5.975
    7AU     LIG 3166  22.218   5.179   5.635
    7AU     LIG 3167  21.966   5.149   5.231
    7AU     LIG 3168  21.712   5.060   4.842
    7AU     LIG 3169  21.710   4.915   4.384
    7AU       S 3170  22.830   6.039   6.356
    7AU     LIG 3171  22.764   5.823   5.924
    7AU     LIG 3172  23.118   5.695   5.606
    7AU     LIG 3173  23.338   5.732   5.171
    7AU     LIG 3174  23.404   5.960   4.742
    7AU     LIG 3175  23.526   6.302   4.421
    7AU    AUSL 3176  22.104   5.949   8.248
    7AU    AUSL 3177  22.396   6.300   8.136
    7AU     AUL 3178  22.256   6.235   8.474
    7AU       S 3179  22.098   5.828   8.672
    7AU     LIG 3180  21.909   5.490   8.906
    7AU     LIG 3181  21.673   5.402   9.307
    7AU     LIG 3182  21.451   5.409   9.731
    7AU     LIG 3183  21.079   5.513  10.012
    7AU     LIG 3184  20.907   5.659  10.419
    7AU       S 3185  22.006   6.547   8.214
    7AU     LIG 3186  21.977   6.677   8.638
    7AU     LIG 3187  21.780   6.926   8.995
    7AU     LIG 3188  21.688   7.018   9.456
    7AU     LIG 3189  21.644   7.231   9.885
    7AU     LIG 3190  21.475   7.572  10.165
    7AU    AUSL 3191  22.403   5.661   8.165
    7AU    AUSL 3192  21.988   5.532   8.142
    7AU     AUL 3193  21.885   5.766   8.270
    7AU       S 3194  21.902   5.315   8.401
    7AU     LIG 3195  21.463   5.259   8.242
    7AU     LIG 3196  21.177   4.906   8.340
    7AU     LIG 3197  20.973   4.584   8.611
    7AU     LIG 3198  20.692   4.277   8.846
    7AU     LIG 3199  20.428   3.963   9.098
    7AU       S 3200  22.284   5.605   8.547
    7AU     LIG 3201  22.382   5.283   8.866
    7AU     LIG 3202  22.174   5.202   9.279
    7AU     LIG 3203  21.931   5.188   9.701
    7AU     LIG 3204  21.652   5.055  10.069
    7AU     LIG 3205  21.650   4.807  10.481
    7AU    AUSL 3206  22.130   5.699   6.770
    7AU    AUSL 3207  22.307   5.328   6.947
    7AU     AUL 3208  22.349   5.317   6.616
    7AU       S 3209  22.028   5.601   6.432
    7AU     LIG 3210  21.914   5.337   6.061
    7AU     LIG 3211  21.713   5.344   5.646
    7AU     LIG 3212  21.455   5.249   5.271
    7AU     LIG 3213  21.113   5.317   4.987
    7AU     LIG 3214  20.942   5.604   4.668
    7AU       S 3215  21.930   5.203   6.765
    7AU     LIG 3216  21.920   4.748   6.644
    7AU     LIG 3217  21.552   4.511   6.491
    7AU     LIG 3218  21.222   4.386   6.167
    7AU     LIG 3219  20.982   4.223   5.788
    7AU     LIG 3220  20.971   3.969   5.374
    7AU    AUSL 3221  22.385   5.994   6.565
    7AU    AUSL 3222  21.914   6.037   6.923
    7AU     AUL 3223  22.033   6.035   6.589
    7AU       S 3224  21.635   6.215   6.760
    7AU     LIG 3225  21.361   6.483   6.513
    7AU     LIG 3226  21.419   6.701   6.114
    7AU     LIG 3227  21.188   6.754   5.708
    7AU     LIG 3228  20.790   6.728   5.442
    7AU     LIG 3229  20.623   6.962   5.076
    7AU       S 3230  22.327   5.863   6.266
    7AU     LIG 3231  22.092   5.786   5.852
    7AU     LIG 3232  22.083   5.628   5.419
    7AU     LIG 3233  22.015   5.648   4.955
    7AU     LIG 3234  22.041   5.948   4.565
    7AU     LIG 3235  21.976   6.300   4.235
    7AU    AUSL 3236  23.429   6.278   7.532
    7AU    AUSL 3237  23.340   6.106   7.127
    7AU     AUL 3238  23.678   6.390   7.309
    7AU       S 3239  23.473   6.282   6.918
    7AU     LIG 3240  23.596   6.252   6.472
    7AU     LIG 3241  23.962   6.438   6.202
    7AU     LIG 3242  24.365   6.661   6.028
    7AU     LIG 3243  24.740   6.766   5.719
    7AU     LIG 3244  25.158   6.745   5.450
    7AU       S 3245  23.818   6.145   7.691
    7AU     LIG 3246  24.247   6.324   7.597
    7AU     LIG 3247  24.713   6.474   7.548
    7AU     LIG 3248  25.166   6.641   7.524
    7AU     LIG 3249  25.447   7.025   7.442
    7AU     LIG 3250  25.451   7.498   7.367
    7AU    AUSL 3251  23.599   5.879   7.373
    7AU    AUSL 3252  23.541   5.546   7.708
    7AU     AUL 3253  23.896   5.610   7.626
    7AU       S 3254  23.730   5.948   7.395
    7AU     LIG 3255  24.182   5.902   7.324
    7AU     LIG 3256  24.657   6.006   7.351
    7AU     LIG 3257  25.126   6.166   7.307
    7AU     LIG 3258  25.622   6.218   7.256
    7AU     LIG 3259  26.088   6.336   7.089
    7AU       S 3260  23.764   5.158   7.687
    7AU     LIG 3261  24.172   5.087   7.811
    7AU     LIG 3262  24.560   4.848   7.748
    7AU     LIG 3263  24.988   4.666   7.740
    7AU     LIG 3264  25.382   4.508   7.932
    7AU     LIG 3265  25.775   4.755   8.007
    7AU    AUSL 3266  23.336   5.913   7.731
    7AU    AUSL 3267  23.086   6.320   7.780
    7AU     AUL 3268  23.421   6.350   7.835
    7AU       S 3269  23.405   6.526   8.258
    7AU     LIG 3270  23.807   6.692   8.382
    7AU     LIG 3271  24.060   6.926   8.704
    7AU     LIG 3272  24.396   7.179   8.935
    7AU     LIG 3273  24.661   7.597   8.923
    7AU     LIG 3274  24.938   8.002   8.857
    7AU       S 3275  23.677   5.967   7.854
    7AU     LIG 3276  24.156   5.950   7.982
    7AU     LIG 3277  24.611   6.065   7.868
    7AU     LIG 3278  25.074   6.205   7.815
    7AU     LIG 3279  25.539   6.348   7.773
    7AU     LIG 3280  25.948   6.524   7.993
    7AU    AUSL 3281  21.978   6.378   7.514
    7AU    AUSL 3282  22.050   6.178   7.903
    7AU     AUL 3283  21.739   6.480   7.751
    7AU       S 3284  21.897   6.349   8.161
    7AU     LIG 3285  21.751   6.207   8.550
    7AU     LIG 3286  21.594   6.442   8.931
    7AU     LIG 3287  21.325   6.700   9.234
    7AU     LIG 3288  20.920   6.740   9.505
    7AU     LIG 3289  20.548   6.849   9.791
    7AU       S 3290  21.965   6.751   7.433
    7AU     LIG 3291  21.470   6.796   7.440
    7AU     LIG 3292  21.029   7.076   7.498
    7AU     LIG 3293  20.593   7.372   7.522
    7AU     LIG 3294  20.205   7.707   7.558
    7AU     LIG 3295  19.798   7.965   7.680
    7AU    AUSL 3296  21.924   5.985   7.333
    7AU    AUSL 3297  22.034   6.416   7.099
    7AU     AUL 3298  21.736   6.299   7.215
    7AU       S 3299  21.535   5.787   6.993
    7AU     LIG 3300  21.232   6.174   7.066
    7AU     LIG 3301  20.831   6.463   6.951
    7AU     LIG 3302  20.374   6.702   6.905
    7AU     LIG 3303  19.935   6.968   6.856
    7AU     LIG 3304  19.484   7.100   6.668
    7AU       S 3305  21.865   6.670   6.932
    7AU     LIG 3306  21.670   6.908   6.556
    7AU     LIG 3307  21.593   7.188   6.184
    7AU     LIG 3308  21.400   7.600   6.033
    7AU     LIG 3309  21.138   8.016   6.036
    7AU     LIG 3310  20.906   8.454   6.057
    7AU    AUSL 3311  21.715   6.027   7.711
    7AU    AUSL 3312  21.683   5.653   7.413
    7AU     AUL 3313  21.520   5.963   7.437
    7AU       S 3314  21.482   5.564   7.695
    7AU     LIG 3315  21.157   5.588   7.360
    7AU     LIG 3316  20.687   5.443   7.358
    7AU     LIG 3317  20.204   5.355   7.294
    7AU     LIG 3318  19.817   5.077   7.209
    7AU     LIG 3319  19.361   5.201   7.098
    7AU       S 3320  21.576   6.055   7.936
    7AU     LIG 3321  21.233   6.269   7.731
    7AU     LIG 3322  20.759   6.262   7.811
    7AU     LIG 3323  20.313   6.402   7.961
    7AU     LIG 3324  19.859   6.523   8.087
    7AU     LIG 3325  19.480   6.777   8.139
    7AU    AUSL 3326  23.309   5.219   7.544
    7AU    AUSL 3327  23.159   5.474   7.880
    7AU     AUL 3328  23.464   5.378   7.961
    7AU       S 3329  23.501   5.067   7.529
    7AU     LIG 3330  23.827   4.684   7.560
    7AU     LIG 3331  24.272   4.511   7.486
    7AU     LIG 3332  24.731   4.350   7.435
    7AU     LIG 3333  25.216   4.268   7.471
    7AU     LIG 3334  25.634   4.096   7.599
    7AU       S 3335  23.379   4.932   7.977
    7AU     LIG 3336  23.621   4.670   8.308
    7AU     LIG 3337  23.823   4.426   8.658
    7AU     LIG 3338  24.054   4.172   8.983
    7AU     LIG 3339  24.434   4.160   9.264
    7AU     LIG 3340  24.771   4.245   9.592
    7AU    AUSL 3341  23.296   5.598   7.347
    7AU    AUSL 3342  23.245   5.188   7.128
    7AU     AUL 3343  23.532   5.420   7.181
    7AU       S 3344  23.773   5.174   7.464
    7AU     LIG 3345  24.180   4.997   7.309
    7AU     LIG 3346  24.623   4.820   7.241
    7AU     LIG 3347  25.088   4.706   7.226
    7AU     LIG 3348  25.514   4.798   7.036
    7AU     LIG 3349  25.984   4.756   7.111
    7AU       S 3350  23.447   5.065   6.867
    7AU     LIG 3351  23.457   4.597   6.793
    7AU     LIG 3352  23.631   4.183   6.604
    7AU     LIG 3353  23.934   3.909   6.362
    7AU     LIG 3354  24.243   3.536   6.370
    7AU     LIG 3355  24.629   3.246   6.394
    7AU    AUSL 3356  21.883   5.294   7.563
    7AU    AUSL 3357  21.975   5.539   7.132
    7AU     AUL 3358  21.631   5.364   7.282
    7AU       S 3359  21.809   5.363   6.853
    7AU     LIG 3360  21.462   5.039   6.668
    7AU     LIG 3361  21.092   4.759   6.514
    7AU     LIG 3362  20.736   4.549   6.265
    7AU     LIG 3363  20.488   4.319   5.948
    7AU     LIG 3364  20.522   4.163   5.520
    7AU       S 3365  21.449   5.342   7.723
    7AU     LIG 3366  21.223   5.076   7.414
    7AU     LIG 3367  20.773   4.928   7.329
    7AU     LIG 3368  20.301   4.871   7.434
    7AU     LIG 3369  19.911   4.610   7.479
    7AU     LIG 3370  19.545   4.327   7.604
    7AU    AUSL 3371  21.947   5.679   7.754
    7AU    AUSL 3372  22.198   5.305   7.847
    7AU     AUL 3373  21.866   5.269   7.909
    7AU       S 3374  21.917   5.097   8.335
    7AU     LIG 3375  21.643   4.749   8.167
    7AU     LIG 3376  21.269   4.405   8.212
    7AU     LIG 3377  20.935   4.095   8.422
    7AU     LIG 3378  20.620   3.784   8.653
    7AU     LIG 3379  20.410   3.359   8.808
    7AU       S 3380  21.538   5.592   7.866
    7AU     LIG 3381  21.054   5.786   7.820
    7AU     LIG 3382  20.550   5.786   7.726
    7AU     LIG 3383  20.109   5.571   7.748
    7AU     LIG 3384  19.905   5.138   7.707
    7AU     LIG 3385  19.552   4.825   7.792
    7AU    AUSL 3386  22.675   6.517   7.898
    7AU    AUSL 3387  22.242   6.546   7.807
    7AU     AUL 3388  22.472   6.612   8.187
    7AU       S 3389  22.109   6.737   7.916
    7AU     LIG 3390  21.912   7.035   8.247
    7AU     LIG 3391  21.787   7.337   8.611
    7AU     LIG 3392  21.705   7.816   8.741
    7AU     LIG 3393  21.372   8.155   8.852
    7AU     LIG 3394  20.936   8.353   8.799
    7AU       S 3395  22.686   6.935   7.942
    7AU     LIG 3396  22.777   7.007   8.341
    7AU     LIG 3397  22.794   7.446   8.513
    7AU     LIG 3398  22.699   7.876   8.712
    7AU     LIG 3399  22.668   8.152   9.092
    7AU     LIG 3400  22.588   8.591   9.218
    7AU    AUSL 3401  22.515   6.737   7.549
    7AU    AUSL 3402  22.793   6.637   7.207
    7AU     AUL 3403  22.752   6.991   7.321
    7AU       S 3404  22.521   6.973   7.745
    7AU     LIG 3405  22.619   7.419   7.998
    7AU     LIG 3406  22.641   7.850   8.203
    7AU     LIG 3407  22.588   8.283   8.391
    7AU     LIG 3408  22.223   8.577   8.340
    7AU     LIG 3409  22.091   8.984   8.096
    7AU       S 3410  22.493   6.881   6.960
    7AU     LIG 3411  22.873   7.172   6.875
    7AU     LIG 3412  23.048   7.575   6.735
    7AU     LIG 3413  23.055   8.046   6.723
    7AU     LIG 3414  23.181   8.511   6.691
    7AU     LIG 3415  23.339   8.973   6.670
    7AU    AUSL 3416  22.953   6.678   7.609
    7AU    AUSL 3417  22.945   6.382   8.187
    7AU     AUL 3418  23.053   6.641   7.966
    7AU       S 3419  23.183   6.464   8.404
    7AU     LIG 3420  23.547   6.425   8.737
    7AU     LIG 3421  23.817   6.634   9.060
    7AU     LIG 3422  24.058   6.971   9.290
    7AU     LIG 3423  24.081   7.258   9.677
    7AU     LIG 3424  24.083   7.628   9.988
    7AU       S 3425  22.868   7.018   7.769
    7AU     LIG 3426  23.115   7.253   8.053
    7AU     LIG 3427  23.134   7.685   8.210
    7AU     LIG 3428  23.075   8.111   8.387
    7AU     LIG 3429  23.216   8.572   8.378
    7AU     LIG 3430  23.466   8.993   8.348
    7AU    AUSL 3431  22.574   5.087   7.938
    7AU    AUSL 3432  22.982   5.091   7.777
    7AU     AUL 3433  22.800   4.969   8.165
    7AU       S 3434  22.554   4.623   7.980
    7AU     LIG 3435  22.412   4.519   8.354
    7AU     LIG 3436  22.256   4.095   8.476
    7AU     LIG 3437  22.252   3.627   8.505
    7AU     LIG 3438  22.339   3.194   8.656
    7AU     LIG 3439  22.325   2.732   8.771
    7AU       S 3440  23.134   4.877   7.835
    7AU     LIG 3441  23.163   4.464   8.081
    7AU     LIG 3442  23.472   4.176   8.350
    7AU     LIG 3443  23.807   3.905   8.591
    7AU     LIG 3444  24.054   3.511   8.751
    7AU     LIG 3445  24.393   3.170   8.770
    7AU    AUSL 3446  22.256   4.943   7.653
    7AU    AUSL 3447  22.366   5.260   8.255
    7AU     AUL 3448  22.236   4.973   8.020
    7AU       S 3449  22.358   4.564   7.828
    7AU     LIG 3450  22.072   4.288   8.034
    7AU     LIG 3451  21.968   3.828   8.115
    7AU     LIG 3452  21.984   3.343   8.154
    7AU     LIG 3453  22.095   2.905   8.303
    7AU     LIG 3454  22.013   2.466   8.456
    7AU       S 3455  22.161   5.143   8.456
    7AU     LIG 3456  21.971   4.679   8.570
    7AU     LIG 3457  21.525   4.512   8.639
    7AU     LIG 3458  21.220   4.201   8.847
    7AU     LIG 3459  20.961   4.014   9.204
    7AU     LIG 3460  20.910   3.903   9.670
    7AU    AUSL 3461  22.684   4.856   7.595
    7AU    AUSL 3462  22.458   5.101   7.310
    7AU     AUL 3463  22.330   4.761   7.408
    7AU       S 3464  22.682   4.660   7.143
    7AU     LIG 3465  22.250   4.439   7.043
    7AU     LIG 3466  22.106   4.002   7.014
    7AU     LIG 3467  22.075   3.536   6.894
    7AU     LIG 3468  22.066   3.076   6.722
    7AU     LIG 3469  22.097   2.608   6.715
    7AU       S 3470  22.691   4.643   7.730
    7AU     LIG 3471  22.663   4.161   7.813
    7AU     LIG 3472  22.484   3.785   8.062
    7AU     LIG 3473  22.499   3.303   8.173
    7AU     LIG 3474  22.624   2.864   8.352
    7AU     LIG 3475  22.926   2.496   8.483
    7AU    AUSL 3476  22.610   6.448   6.844
    7AU    AUSL 3477  23.178   6.490   7.269
    7AU     AUL 3478  22.948   6.653   6.927
    7AU       S 3479  22.537   6.799   6.745
    7AU     LIG 3480  22.890   6.890   6.459
    7AU     LIG 3481  23.003   7.321   6.257
    7AU     LIG 3482  22.980   7.658   5.892
    7AU     LIG 3483  22.987   8.087   5.667
    7AU     LIG 3484  22.778   8.466   5.480
    7AU       S 3485  23.372   6.652   7.098
    7AU     LIG 3486  23.800   6.805   6.870
    7AU     LIG 3487  24.024   6.894   6.450
    7AU     LIG 3488  24.301   7.168   6.168
    7AU     LIG 3489  24.579   7.554   6.065
    7AU     LIG 3490  24.847   7.935   5.915
    7AU    AUSL 3491  22.412   6.467   7.246
    7AU    AUSL 3492  22.338   6.139   6.951
    7AU     AUL 3493  22.265   6.434   6.815
    7AU       S 3494  22.339   6.809   7.104
    7AU     LIG 3495  22.433   7.344   7.100
    7AU     LIG 3496  22.582   7.776   6.882
    7AU     LIG 3497  22.572   8.235   6.691
    7AU     LIG 3498  22.305   8.646   6.702
    7AU     LIG 3499  22.049   9.059   6.738
    7AU       S 3500  21.824   6.445   6.686
    7AU     LIG 3501  21.992   6.590   6.305
    7AU     LIG 3502  21.880   6.841   5.912
    7AU     LIG 3503  21.712   7.036   5.506
    7AU     LIG 3504  21.640   7.353   5.152
    7AU     LIG 3505  21.372   7.690   4.949
    7AU    AUSL 3506  22.644   5.069   6.916
    7AU    AUSL 3507  22.050   5.111   7.221
    7AU     AUL 3508  22.307   4.951   6.971
    7AU       S 3509  21.857   5.073   7.003
    7AU     LIG 3510  21.576   4.720   7.052
    7AU     LIG 3511  21.229   4.429   6.885
    7AU     LIG 3512  20.940   4.192   6.568
    7AU     LIG 3513  20.523   3.990   6.363
    7AU     LIG 3514  20.156   3.637   6.342
    7AU       S 3515  22.689   4.661   6.925
    7AU     LIG 3516  22.611   4.225   6.758
    7AU     LIG 3517  22.360   3.865   6.583
    7AU     LIG 3518  22.307   3.429   6.432
    7AU     LIG 3519  22.229   3.066   6.133
    7AU     LIG 3520  22.271   2.805   5.728
    7AU    AUSL 3521  22.885   5.069   7.299
    7AU    AUSL 3522  22.905   5.391   6.956
    7AU     AUL 3523  22.989   5.015   6.939
    7AU       S 3524  22.909   4.659   7.233
    7AU     LIG 3525  22.671   4.190   7.272
    7AU     LIG 3526  22.561   3.754   7.047
    7AU     LIG 3527  22.517   3.277   6.902
    7AU     LIG 3528  22.554   2.782   6.896
    7AU     LIG 3529  22.916   2.459   6.890
    7AU       S 3530  23.211   5.225   6.601
    7AU     LIG 3531  23.085   4.798   6.497
    7AU     LIG 3532  23.311   4.438   6.294
    7AU     LIG 3533  23.566   4.114   6.042
    7AU     LIG 3534  23.749   3.915   5.637
    7AU     LIG 3535  23.947   3.708   5.245
    8AU     AUC 3536   3.818   2.491   7.496
    8AU     AUC 3537   4.123   2.488   7.328
    8AU     AUC 3538   4.083   2.475   7.673
    8AU     AUC 3539   3.535   2.488   7.328
    8AU     AUC 3540   3.543   2.526   7.677
    8AU     AUC 3541   3.650   2.773   7.493
    8AU     AUC 3542   4.004   2.763   7.488
    8AU     AUC 3543   3.622   2.218   7.493
    8AU     AUC 3544   3.980   2.211   7.499
    8AU     AUC 3545   3.811   2.313   7.768
    8AU     AUC 3546   3.809   2.681   7.757
    8AU     AUC 3547   3.821   2.328   7.221
    8AU     AUC 3548   3.852   2.646   7.223
    8AU     AUC 3549   4.449   2.485   7.177
    8AU     AUC 3550   4.433   2.462   7.526
    8AU     AUC 3551   4.365   2.452   7.876
    8AU     AUC 3552   3.234   2.495   7.157
    8AU     AUC 3553   3.209   2.526   7.522
    8AU     AUC 3554   3.259   2.562   7.862
    8AU     AUC 3555   3.494   3.087   7.465
    8AU     AUC 3556   3.855   3.109   7.446
    8AU     AUC 3557   4.176   3.050   7.481
    8AU     AUC 3558   3.423   1.942   7.486
    8AU     AUC 3559   3.754   1.884   7.465
    8AU     AUC 3560   4.139   1.896   7.476
    8AU     AUC 3561   3.790   2.132   8.056
    8AU     AUC 3562   3.806   2.496   8.090
    8AU     AUC 3563   3.833   2.858   8.046
    8AU     AUC 3564   3.849   2.162   6.937
    8AU     AUC 3565   3.851   2.479   6.889
    8AU     AUC 3566   3.857   2.800   6.922
    8AU     AUC 3567   4.080   2.258   7.987
    8AU     AUC 3568   4.112   2.643   7.991
    8AU     AUC 3569   4.176   2.322   7.014
    8AU     AUC 3570   4.181   2.669   7.037
    8AU     AUC 3571   3.508   2.364   8.004
    8AU     AUC 3572   3.534   2.740   7.981
    8AU     AUC 3573   3.522   2.317   7.033
    8AU     AUC 3574   3.513   2.628   6.991
    8AU     AUC 3575   4.358   2.766   7.345
    8AU     AUC 3576   4.286   2.754   7.700
    8AU     AUC 3577   3.332   2.799   7.321
    8AU     AUC 3578   3.350   2.850   7.674
    8AU     AUC 3579   4.317   2.171   7.335
    8AU     AUC 3580   4.273   2.150   7.672
    8AU     AUC 3581   3.284   2.203   7.351
    8AU     AUC 3582   3.340   2.243   7.706
    8AU     AUC 3583   3.669   3.026   7.750
    8AU     AUC 3584   4.004   2.976   7.771
    8AU     AUC 3585   3.611   2.020   7.787
    8AU     AUC 3586   3.935   1.967   7.760
    8AU     AUC 3587   3.656   2.922   7.184
    8AU     AUC 3588   4.041   2.950   7.167
    8AU     AUC 3589   3.607   2.016   7.196
    8AU     AUC 3590   3.995   2.041   7.201
    8AU    AUSL 3591   4.340   2.381   8.232
    8AU    AUSL 3592   4.068   1.961   8.141
    8AU     AUL 3593   4.372   1.973   8.351
    8AU       S 3594   4.441   1.621   8.071
    8AU     LIG 3595   4.328   1.445   8.444
    8AU     LIG 3596   4.477   1.157   8.756
    8AU     LIG 3597   4.714   0.888   9.043
    8AU     LIG 3598   4.865   0.654   9.418
    8AU     LIG 3599   4.750   0.411   9.822
    8AU       S 3600   4.563   2.384   8.362
    8AU     LIG 3601   4.427   2.384   8.805
    8AU     LIG 3602   4.609   2.352   9.245
    8AU     LIG 3603   5.004   2.297   9.530
    8AU     LIG 3604   5.391   2.207   9.808
    8AU     LIG 3605   5.711   2.309  10.146
    8AU    AUSL 3606   3.935   2.289   8.390
    8AU    AUSL 3607   3.679   2.686   8.416
    8AU     AUL 3608   3.866   2.580   8.734
    8AU       S 3609   4.031   2.204   8.545
    8AU     LIG 3610   3.986   2.136   8.976
    8AU     LIG 3611   4.230   1.971   9.353
    8AU     LIG 3612   4.297   1.737   9.780
    8AU     LIG 3613   4.379   1.677  10.256
    8AU     LIG 3614   4.383   1.645  10.742
    8AU       S 3615   3.452   2.424   8.627
    8AU     LIG 3616   3.442   2.415   9.117
    8AU     LIG 3617   3.170   2.362   9.512
    8AU     LIG 3618   3.037   2.330   9.970
    8AU     LIG 3619   2.974   2.596  10.362
    8AU     LIG 3620   2.872   2.947  10.677
    8AU    AUSL 3621   4.002   2.661   8.157
    8AU    AUSL 3622   4.431   2.786   8.122
    8AU     AUL 3623   4.221   2.679   8.450
    8AU       S 3624   3.904   3.041   8.610
    8AU     LIG 3625   4.254   2.897   8.907
    8AU     LIG 3626   4.469   2.967   9.338
    8AU     LIG 3627   4.415   3.088   9.821
    8AU     LIG 3628   4.437   3.237  10.288
    8AU     LIG 3629   4.457   3.267  10.763
    8AU       S 3630   4.579   2.932   8.287
    8AU     LIG 3631   4.952   2.812   8.403
    8AU     LIG 3632   5.277   3.030   8.665
    8AU     LIG 3633   5.538   3.283   8.974
    8AU     LIG 3634   5.764   3.522   9.309
    8AU     LIG 3635   6.082   3.459   9.666
    8AU    AUSL 3636   4.390   2.551   6.848
    8AU    AUSL 3637   4.261   2.971   6.835
    8AU     AUL 3638   4.574   2.810   6.611
    8AU       S 3639   4.217   2.715   6.353
    8AU     LIG 3640   4.674   2.621   6.133
    8AU     LIG 3641   4.803   2.291   5.847
    8AU     LIG 3642   4.881   2.114   5.428
    8AU     LIG 3643   5.077   2.113   4.998
    8AU     LIG 3644   5.467   2.037   4.715
    8AU       S 3645   4.592   3.206   6.872
    8AU     LIG 3646   4.751   3.316   6.465
    8AU     LIG 3647   5.014   3.521   6.114
    8AU     LIG 3648   5.300   3.694   5.769
    8AU     LIG 3649   5.539   3.791   5.378
    8AU     LIG 3650   5.493   4.050   5.002
    8AU    AUSL 3651   4.150   2.293   6.598
    8AU    AUSL 3652   4.537   2.161   6.924
    8AU     AUL 3653   4.558   2.330   6.618
    8AU       S 3654   4.577   1.867   6.687
    8AU     LIG 3655   4.716   1.609   6.308
    8AU     LIG 3656   4.997   1.262   6.211
    8AU     LIG 3657   5.324   0.966   6.088
    8AU     LIG 3658   5.766   0.961   5.926
    8AU     LIG 3659   6.018   0.938   5.528
    8AU       S 3660   4.257   2.546   6.347
    8AU     LIG 3661   4.366   2.168   6.124
    8AU     LIG 3662   4.483   1.904   5.720
    8AU     LIG 3663   4.482   1.849   5.231
    8AU     LIG 3664   4.543   1.836   4.747
    8AU     LIG 3665   4.608   1.692   4.282
    8AU    AUSL 3666   3.977   2.655   6.767
    8AU    AUSL 3667   3.733   2.280   6.706
    8AU     AUL 3668   3.879   2.316   6.435
    8AU       S 3669   3.427   2.347   6.291
    8AU     LIG 3670   3.278   1.992   6.081
    8AU     LIG 3671   3.179   1.857   5.655
    8AU     LIG 3672   2.957   1.853   5.244
    8AU     LIG 3673   2.848   1.799   4.789
    8AU     LIG 3674   2.813   1.568   4.370
    8AU       S 3675   4.059   2.772   6.451
    8AU     LIG 3676   3.971   2.528   5.963
    8AU     LIG 3677   4.318   2.387   5.627
    8AU     LIG 3678   4.510   2.367   5.166
    8AU     LIG 3679   4.601   2.528   4.714
    8AU     LIG 3680   4.818   2.842   4.421
    8AU    AUSL 3681   3.285   2.633   8.234
    8AU    AUSL 3682   3.582   2.986   8.128
    8AU     AUL 3683   3.436   2.922   8.464
    8AU       S 3684   3.276   2.520   8.659
    8AU     LIG 3685   3.023   2.226   8.845
    8AU     LIG 3686   2.775   2.181   9.224
    8AU     LIG 3687   2.654   2.197   9.660
    8AU     LIG 3688   2.473   2.106  10.073
    8AU     LIG 3689   2.118   2.145  10.368
    8AU       S 3690   3.192   3.239   8.210
    8AU     LIG 3691   3.061   3.340   8.623
    8AU     LIG 3692   2.850   3.511   9.000
    8AU     LIG 3693   2.912   3.771   9.393
    8AU     LIG 3694   2.819   4.089   9.735
    8AU     LIG 3695   2.565   4.334  10.050
    8AU    AUSL 3696   3.585   2.344   8.159
    8AU    AUSL 3697   3.171   2.217   8.131
    8AU     AUL 3698   3.066   2.446   8.258
    8AU       S 3699   3.080   1.995   8.394
    8AU     LIG 3700   2.634   1.951   8.226
    8AU     LIG 3701   2.357   1.577   8.308
    8AU     LIG 3702   2.095   1.272   8.583
    8AU     LIG 3703   1.791   0.944   8.797
    8AU     LIG 3704   1.366   0.861   9.026
    8AU       S 3705   3.469   2.281   8.532
    8AU     LIG 3706   3.494   1.981   8.866
    8AU     LIG 3707   3.230   1.926   9.235
    8AU     LIG 3708   3.057   1.876   9.668
    8AU     LIG 3709   2.813   1.716  10.035
    8AU     LIG 3710   2.623   1.762  10.467
    8AU    AUSL 3711   3.335   2.422   6.768
    8AU    AUSL 3712   3.502   2.041   6.964
    8AU     AUL 3713   3.510   2.035   6.616
    8AU       S 3714   3.203   2.340   6.452
    8AU     LIG 3715   2.852   2.274   6.218
    8AU     LIG 3716   2.783   2.173   5.774
    8AU     LIG 3717   2.630   2.246   5.344
    8AU     LIG 3718   2.453   2.101   4.941
    8AU     LIG 3719   2.170   2.016   4.568
    8AU       S 3720   3.089   1.907   6.756
    8AU     LIG 3721   2.880   1.506   6.622
    8AU     LIG 3722   2.614   1.153   6.455
    8AU     LIG 3723   2.372   0.932   6.115
    8AU     LIG 3724   2.330   0.772   5.670
    8AU     LIG 3725   2.324   0.522   5.262
    8AU    AUSL 3726   3.613   2.696   6.563
    8AU    AUSL 3727   3.120   2.764   6.908
    8AU     AUL 3728   3.269   2.773   6.576
    8AU       S 3729   2.869   2.950   6.735
    8AU     LIG 3730   2.607   3.082   6.382
    8AU     LIG 3731   2.565   3.328   6.008
    8AU     LIG 3732   2.315   3.469   5.653
    8AU     LIG 3733   1.931   3.506   5.370
    8AU     LIG 3734   1.580   3.713   5.122
    8AU       S 3735   3.515   2.560   6.244
    8AU     LIG 3736   3.211   2.469   5.864
    8AU     LIG 3737   3.140   2.321   5.420
    8AU     LIG 3738   2.992   2.296   4.967
    8AU     LIG 3739   3.000   2.517   4.544
    8AU     LIG 3740   3.001   2.768   4.128
    8AU    AUSL 3741   4.588   2.996   7.531
    8AU    AUSL 3742   4.585   2.806   7.123
    8AU     AUL 3743   4.880   3.135   7.375
    8AU       S 3744   4.696   2.941   7.023
    8AU     LIG 3745   5.049   3.008   6.756
    8AU     LIG 3746   5.202   3.081   6.319
    8AU     LIG 3747   5.490   3.284   6.010
    8AU     LIG 3748   5.765   3.406   5.645
    8AU     LIG 3749   6.085   3.702   5.471
    8AU       S 3750   4.986   2.870   7.748
    8AU     LIG 3751   5.419   2.991   7.601
    8AU     LIG 3752   5.909   3.105   7.588
    8AU     LIG 3753   6.342   3.325   7.485
    8AU     LIG 3754   6.614   3.744   7.438
    8AU     LIG 3755   6.891   4.125   7.548
    8AU    AUSL 3756   4.796   2.591   7.419
    8AU    AUSL 3757   4.725   2.265   7.726
    8AU     AUL 3758   5.100   2.373   7.748
    8AU       S 3759   4.931   2.680   7.464
    8AU     LIG 3760   5.351   2.557   7.343
    8AU     LIG 3761   5.823   2.655   7.354
    8AU     LIG 3762   6.287   2.805   7.356
    8AU     LIG 3763   6.748   2.909   7.330
    8AU     LIG 3764   6.992   3.287   7.179
    8AU       S 3765   4.984   1.968   7.567
    8AU     LIG 3766   5.389   1.770   7.646
    8AU     LIG 3767   5.813   1.562   7.670
    8AU     LIG 3768   6.205   1.336   7.732
    8AU     LIG 3769   6.668   1.316   7.726
    8AU     LIG 3770   7.108   1.487   7.869
    8AU    AUSL 3771   4.513   2.629   7.747
    8AU    AUSL 3772   4.254   3.010   7.796
    8AU     AUL 3773   4.577   3.072   7.838
    8AU       S 3774   4.562   3.224   8.273
    8AU     LIG 3775   4.977   3.334   8.373
    8AU     LIG 3776   5.243   3.573   8.674
    8AU     LIG 3777   5.588   3.810   8.887
    8AU     LIG 3778   5.798   4.227   8.956
    8AU     LIG 3779   6.024   4.645   8.944
    8AU       S 3780   4.833   2.703   7.897
    8AU     LIG 3781   5.319   2.707   8.058
    8AU     LIG 3782   5.739   2.679   7.866
    8AU     LIG 3783   6.198   2.736   7.851
    8AU     LIG 3784   6.580   2.984   7.806
    8AU     LIG 3785   6.978   3.178   7.953
    8AU    AUSL 3786   3.163   3.075   7.507
    8AU    AUSL 3787   3.230   2.873   7.898
    8AU     AUL 3788   2.925   3.179   7.748
    8AU       S 3789   3.075   3.035   8.157
    8AU     LIG 3790   2.903   2.862   8.524
    8AU     LIG 3791   2.604   3.048   8.852
    8AU     LIG 3792   2.263   3.291   9.076
    8AU     LIG 3793   1.940   3.442   9.406
    8AU     LIG 3794   1.568   3.511   9.705
    8AU       S 3795   3.160   3.450   7.433
    8AU     LIG 3796   2.670   3.438   7.394
    8AU     LIG 3797   2.249   3.719   7.455
    8AU     LIG 3798   1.826   4.006   7.520
    8AU     LIG 3799   1.404   4.303   7.562
    8AU     LIG 3800   0.946   4.444   7.696
    8AU    AUSL 3801   3.119   2.686   7.314
    8AU    AUSL 3802   3.263   3.127   7.101
    8AU     AUL 3803   2.942   3.013   7.197
    8AU       S 3804   2.745   2.510   6.961
    8AU     LIG 3805   2.397   2.850   6.781
    8AU     LIG 3806   2.029   3.074   6.876
    8AU     LIG 3807   1.575   3.036   6.781
    8AU     LIG 3808   1.116   3.020   6.698
    8AU     LIG 3809   0.808   3.261   6.944
    8AU       S 3810   3.095   3.381   6.925
    8AU     LIG 3811   2.778   3.558   6.581
    8AU     LIG 3812   2.754   3.781   6.174
    8AU     LIG 3813   2.664   4.191   5.958
    8AU     LIG 3814   2.526   4.648   6.003
    8AU     LIG 3815   2.198   4.974   6.094
    8AU    AUSL 3816   2.901   2.727   7.691
    8AU    AUSL 3817   2.866   2.363   7.396
    8AU     AUL 3818   2.714   2.677   7.410
    8AU       S 3819   2.633   2.279   7.665
    8AU     LIG 3820   2.276   2.112   7.378
    8AU     LIG 3821   1.843   1.930   7.427
    8AU     LIG 3822   1.385   1.783   7.399
    8AU     LIG 3823   0.953   1.824   7.225
    8AU     LIG 3824   0.479   1.799   7.182
    8AU       S 3825   2.762   2.737   7.914
    8AU     LIG 3826   2.437   3.032   7.830
    8AU     LIG 3827   2.107   3.268   8.111
    8AU     LIG 3828   1.621   3.284   8.241
    8AU     LIG 3829   1.171   3.399   8.116
    8AU     LIG 3830   0.696   3.466   8.171
    8AU    AUSL 3831   4.520   1.914   7.552
    8AU    AUSL 3832   4.346   2.158   7.879
    8AU     AUL 3833   4.673   2.063   7.957
    8AU       S 3834   4.802   1.808   7.572
    8AU     LIG 3835   4.983   1.436   7.645
    8AU     LIG 3836   5.398   1.244   7.564
    8AU     LIG 3837   5.822   1.079   7.448
    8AU     LIG 3838   6.274   0.965   7.390
    8AU     LIG 3839   6.574   0.616   7.424
    8AU       S 3840   4.549   1.624   7.952
    8AU     LIG 3841   4.826   1.391   8.280
    8AU     LIG 3842   4.988   1.160   8.667
    8AU     LIG 3843   5.226   0.910   8.999
    8AU     LIG 3844   5.557   0.901   9.339
    8AU     LIG 3845   5.922   0.899   9.648
    8AU    AUSL 3846   4.534   2.279   7.325
    8AU    AUSL 3847   4.393   1.814   7.157
    8AU     AUL 3848   4.669   1.943   7.156
    8AU       S 3849   5.008   2.152   7.349
    8AU     LIG 3850   5.177   1.725   7.180
    8AU     LIG 3851   5.621   1.528   7.194
    8AU     LIG 3852   6.099   1.450   7.227
    8AU     LIG 3853   6.562   1.363   7.206
    8AU     LIG 3854   6.993   1.501   7.018
    8AU       S 3855   4.594   1.643   6.804
    8AU     LIG 3856   4.729   1.224   6.677
    8AU     LIG 3857   4.900   0.825   6.473
    8AU     LIG 3858   5.174   0.494   6.256
    8AU     LIG 3859   5.444   0.093   6.203
    8AU     LIG 3860   5.643  44.770   5.909
    8AU    AUSL 3861   3.043   1.993   7.553
    8AU    AUSL 3862   3.149   2.248   7.108
    8AU     AUL 3863   2.798   2.084   7.257
    8AU       S 3864   3.019   2.084   6.850
    8AU     LIG 3865   2.587   1.934   6.821
    8AU     LIG 3866   2.358   1.577   6.659
    8AU     LIG 3867   2.110   1.270   6.413
    8AU     LIG 3868   1.909   1.167   5.994
    8AU     LIG 3869   1.583   1.308   5.673
    8AU       S 3870   2.641   2.027   7.696
    8AU     LIG 3871   2.402   1.653   7.569
    8AU     LIG 3872   1.997   1.430   7.412
    8AU     LIG 3873   1.526   1.273   7.433
    8AU     LIG 3874   1.072   1.162   7.550
    8AU     LIG 3875   0.679   0.946   7.382
    8AU    AUSL 3876   3.119   2.374   7.749
    8AU    AUSL 3877   3.371   1.995   7.825
    8AU     AUL 3878   3.042   1.971   7.905
    8AU       S 3879   3.095   1.784   8.323
    8AU     LIG 3880   2.848   1.507   8.041
    8AU     LIG 3881   2.515   1.148   8.067
    8AU     LIG 3882   2.218   0.840   8.329
    8AU     LIG 3883   1.983   0.496   8.612
    8AU     LIG 3884   1.718   0.070   8.644
    8AU       S 3885   2.698   2.275   7.841
    8AU     LIG 3886   2.203   2.099   7.889
    8AU     LIG 3887   1.773   2.297   7.788
    8AU     LIG 3888   1.304   2.211   7.676
    8AU     LIG 3889   0.888   1.947   7.720
    8AU     LIG 3890   0.593   1.647   8.002
    8AU    AUSL 3891   3.856   3.216   7.894
    8AU    AUSL 3892   3.428   3.238   7.801
    8AU     AUL 3893   3.657   3.304   8.182
    8AU       S 3894   3.288   3.435   7.922
    8AU     LIG 3895   2.975   3.680   8.221
    8AU     LIG 3896   2.831   3.911   8.627
    8AU     LIG 3897   2.687   4.359   8.801
    8AU     LIG 3898   2.462   4.802   8.818
    8AU     LIG 3899   2.051   5.042   8.894
    8AU       S 3900   3.865   3.636   7.940
    8AU     LIG 3901   4.017   3.656   8.332
    8AU     LIG 3902   4.093   4.087   8.503
    8AU     LIG 3903   4.174   4.537   8.640
    8AU     LIG 3904   4.157   4.824   9.022
    8AU     LIG 3905   4.065   4.985   9.467
    8AU    AUSL 3906   3.701   3.438   7.547
    8AU    AUSL 3907   3.998   3.379   7.194
    8AU     AUL 3908   3.921   3.723   7.346
    8AU       S 3909   3.705   3.675   7.769
    8AU     LIG 3910   3.861   4.119   8.022
    8AU     LIG 3911   3.831   4.552   8.227
    8AU     LIG 3912   3.493   4.926   8.251
    8AU     LIG 3913   3.243   5.346   8.346
    8AU     LIG 3914   3.366   5.750   8.563
    8AU       S 3915   3.737   3.549   6.968
    8AU     LIG 3916   4.167   3.823   6.926
    8AU     LIG 3917   4.354   4.292   6.893
    8AU     LIG 3918   4.622   4.732   6.886
    8AU     LIG 3919   4.691   5.180   6.695
    8AU     LIG 3920   4.643   5.628   6.580
    8AU    AUSL 3921   4.142   3.361   7.600
    8AU    AUSL 3922   4.098   3.065   8.200
    8AU     AUL 3923   4.212   3.328   7.981
    8AU       S 3924   4.340   3.159   8.421
    8AU     LIG 3925   4.697   3.105   8.753
    8AU     LIG 3926   5.011   3.284   9.038
    8AU     LIG 3927   5.247   3.635   9.233
    8AU     LIG 3928   5.285   3.993   9.540
    8AU     LIG 3929   5.163   4.309   9.883
    8AU       S 3930   4.071   3.713   7.779
    8AU     LIG 3931   4.344   3.934   8.052
    8AU     LIG 3932   4.355   4.387   8.172
    8AU     LIG 3933   4.469   4.841   8.252
    8AU     LIG 3934   4.555   5.297   8.129
    8AU     LIG 3935   4.521   5.755   8.249
    8AU    AUSL 3936   3.752   1.780   7.913
    8AU    AUSL 3937   4.160   1.794   7.744
    8AU     AUL 3938   3.983   1.653   8.132
    8AU       S 3939   3.718   1.317   7.965
    8AU     LIG 3940   3.570   1.295   8.350
    8AU     LIG 3941   3.447   0.854   8.474
    8AU     LIG 3942   3.460   0.375   8.500
    8AU     LIG 3943   3.466  44.920   8.599
    8AU     LIG 3944   3.632  44.598   8.893
    8AU       S 3945   4.318   1.556   7.799
    8AU     LIG 3946   4.353   1.135   8.023
    8AU     LIG 3947   4.650   0.908   8.338
    8AU     LIG 3948   4.931   0.643   8.634
    8AU     LIG 3949   5.130   0.236   8.803
    8AU     LIG 3950   5.383  44.879   9.002
    8AU    AUSL 3951   3.440   1.640   7.626
    8AU    AUSL 3952   3.539   1.939   8.232
    8AU     AUL 3953   3.400   1.664   7.989
    8AU       S 3954   3.553   1.250   7.830
    8AU     LIG 3955   3.222   1.051   8.044
    8AU     LIG 3956   3.148   0.591   8.133
    8AU     LIG 3957   3.212   0.118   8.126
    8AU     LIG 3958   3.252  44.647   8.196
    8AU     LIG 3959   3.214  44.161   8.139
    8AU       S 3960   3.338   1.807   8.436
    8AU     LIG 3961   3.073   1.331   8.479
    8AU     LIG 3962   2.622   1.152   8.567
    8AU     LIG 3963   2.319   0.877   8.832
    8AU     LIG 3964   2.122   0.730   9.232
    8AU     LIG 3965   2.213   0.695   9.706
    8AU    AUSL 3966   3.868   1.538   7.578
    8AU    AUSL 3967   3.614   1.675   7.235
    8AU     AUL 3968   3.489   1.403   7.401
    8AU       S 3969   3.834   1.376   7.100
    8AU     LIG 3970   3.418   1.151   6.983
    8AU     LIG 3971   3.238   0.727   6.960
    8AU     LIG 3972   3.249   0.255   6.900
    8AU     LIG 3973   3.278  44.784   6.792
    8AU     LIG 3974   3.067  44.337   6.759
    8AU       S 3975   3.870   1.334   7.716
    8AU     LIG 3976   3.895   0.868   7.854
    8AU     LIG 3977   3.663   0.495   8.040
    8AU     LIG 3978   3.714   0.031   8.162
    8AU     LIG 3979   3.748  44.576   8.313
    8AU     LIG 3980   3.886  44.128   8.348
    8AU    AUSL 3981   3.855   3.107   6.867
    8AU    AUSL 3982   4.275   3.074   7.253
    8AU     AUL 3983   4.142   3.301   6.880
    8AU       S 3984   3.743   3.523   6.755
    8AU     LIG 3985   3.929   3.810   6.484
    8AU     LIG 3986   4.147   4.204   6.416
    8AU     LIG 3987   4.159   4.578   6.136
    8AU     LIG 3988   4.143   4.787   5.707
    8AU     LIG 3989   4.016   5.099   5.384
    8AU       S 3990   4.507   3.295   7.156
    8AU     LIG 3991   4.964   3.478   6.997
    8AU     LIG 3992   5.221   3.516   6.601
    8AU     LIG 3993   5.459   3.755   6.264
    8AU     LIG 3994   5.643   4.172   6.113
    8AU     LIG 3995   5.765   4.642   6.114
    8AU    AUSL 3996   3.645   3.148   7.252
    8AU    AUSL 3997   3.547   2.831   6.952
    8AU     AUL 3998   3.504   3.135   6.819
    8AU       S 3999   3.545   3.525   7.095
    8AU     LIG 4000   3.689   4.026   6.957
    8AU     LIG 4001   3.849   4.445   6.774
    8AU     LIG 4002   3.753   4.924   6.697
    8AU     LIG 4003   3.577   5.389   6.713
    8AU     LIG 4004   3.504   5.868   6.664
    8AU       S 4005   3.065   3.179   6.683
    8AU     LIG 4006   3.075   3.249   6.251
    8AU     LIG 4007   3.029   3.473   5.851
    8AU     LIG 4008   2.757   3.776   5.644
    8AU     LIG 4009   2.708   4.022   5.248
    8AU     LIG 4010   2.542   4.399   5.016
    8AU    AUSL 4011   3.831   1.790   6.874
    8AU    AUSL 4012   3.226   1.826   7.214
    8AU     AUL 4013   3.472   1.659   6.918
    8AU       S 4014   3.035   1.769   7.018
    8AU     LIG 4015   2.655   1.500   7.096
    8AU     LIG 4016   2.374   1.132   6.912
    8AU     LIG 4017   2.181   0.787   6.610
    8AU     LIG 4018   1.879   0.380   6.553
    8AU     LIG 4019   1.664  44.943   6.508
    8AU       S 4020   3.858   1.375   6.864
    8AU     LIG 4021   3.835   0.912   6.820
    8AU     LIG 4022   3.599   0.546   6.632
    8AU     LIG 4023   3.496   0.122   6.447
    8AU     LIG 4024   3.526  44.806   6.097
    8AU     LIG 4025   3.528  44.597   5.661
    8AU    AUSL 4026   4.006   1.811   7.295
    8AU    AUSL 4027   4.109   2.091   6.960
    8AU     AUL 4028   4.158   1.718   6.941
    8AU       S 4029   4.043   1.352   7.194
    8AU     LIG 4030   3.776   0.961   7.347
    8AU     LIG 4031   3.675   0.534   7.155
    8AU     LIG 4032   3.743   0.131   6.910
    8AU     LIG 4033   3.793  44.738   6.673
    8AU     LIG 4034   4.105  44.384   6.674
    8AU       S 4035   4.355   1.873   6.565
    8AU     LIG 4036   4.264   1.423   6.498
    8AU     LIG 4037   4.505   1.098   6.232
    8AU     LIG 4038   4.814   0.841   5.960
    8AU     LIG 4039   4.822   0.594   5.555
    8AU     LIG 4040   4.983   0.334   5.191
    9AU     AUC 4041   1.833  31.897   7.498
    9AU     AUC 4042   2.117  31.905   7.325
    9AU     AUC 4043   2.097  31.878   7.674
    9AU     AUC 4044   1.547  31.892   7.331
    9AU     AUC 4045   1.565  31.932   7.681
    9AU     AUC 4046   1.665  32.181   7.492
    9AU     AUC 4047   2.022  32.174   7.487
    9AU     AUC 4048   1.643  31.630   7.504
    9AU     AUC 4049   1.996  31.604   7.497
    9AU     AUC 4050   1.830  31.720   7.775
    9AU     AUC 4051   1.830  32.086   7.760
    9AU     AUC 4052   1.833  31.732   7.222
    9AU     AUC 4053   1.854  32.054   7.220
    9AU     AUC 4054   2.436  31.911   7.163
    9AU     AUC 4055   2.441  31.862   7.521
    9AU     AUC 4056   2.382  31.847   7.871
    9AU     AUC 4057   1.244  31.883   7.163
    9AU     AUC 4058   1.225  31.923   7.528
    9AU     AUC 4059   1.278  31.964   7.868
    9AU     AUC 4060   1.502  32.484   7.465
    9AU     AUC 4061   1.870  32.506   7.448
    9AU     AUC 4062   2.212  32.450   7.479
    9AU     AUC 4063   1.444  31.358   7.508
    9AU     AUC 4064   1.793  31.297   7.488
    9AU     AUC 4065   2.157  31.301   7.479
    9AU     AUC 4066   1.809  31.541   8.067
    9AU     AUC 4067   1.828  31.905   8.095
    9AU     AUC 4068   1.858  32.263   8.050
    9AU     AUC 4069   1.862  31.562   6.944
    9AU     AUC 4070   1.856  31.889   6.887
    9AU     AUC 4071   1.838  32.205   6.928
    9AU     AUC 4072   2.096  31.665   7.993
    9AU     AUC 4073   2.139  32.048   7.989
    9AU     AUC 4074   2.177  31.754   6.999
    9AU     AUC 4075   2.172  32.080   7.037
    9AU     AUC 4076   1.527  31.775   8.013
    9AU     AUC 4077   1.556  32.148   7.986
    9AU     AUC 4078   1.535  31.711   7.036
    9AU     AUC 4079   1.513  32.022   6.992
    9AU     AUC 4080   2.376  32.182   7.350
    9AU     AUC 4081   2.310  32.148   7.697
    9AU     AUC 4082   1.338  32.191   7.323
    9AU     AUC 4083   1.366  32.249   7.676
    9AU     AUC 4084   2.311  31.588   7.327
    9AU     AUC 4085   2.276  31.540   7.683
    9AU     AUC 4086   1.308  31.596   7.355
    9AU     AUC 4087   1.363  31.648   7.715
    9AU     AUC 4088   1.688  32.427   7.753
    9AU     AUC 4089   2.031  32.378   7.771
    9AU     AUC 4090   1.632  31.425   7.802
    9AU     AUC 4091   1.953  31.368   7.773
    9AU     AUC 4092   1.652  32.331   7.181
    9AU     AUC 4093   2.039  32.369   7.193
    9AU     AUC 4094   1.635  31.429   7.204
    9AU     AUC 4095   2.031  31.442   7.201
    9AU    AUSL 4096   2.354  31.780   8.237
    9AU    AUSL 4097   2.088  31.375   8.154
    9AU     AUL 4098   2.365  31.375   8.399
    9AU       S 4099   2.468  31.043   8.105
    9AU     LIG 4100   2.353  30.859   8.472
    9AU     LIG 4101   2.497  30.575   8.776
    9AU     LIG 4102   2.704  30.255   9.014
    9AU     LIG 4103   2.860  29.859   9.178
    9AU     LIG 4104   2.828  29.602   9.574
    9AU       S 4105   2.569  31.773   8.342
    9AU     LIG 4106   2.466  31.763   8.783
    9AU     LIG 4107   2.743  31.689   9.181
    9AU     LIG 4108   3.127  31.588   9.485
    9AU     LIG 4109   3.439  31.518   9.859
    9AU     LIG 4110   3.702  31.596  10.251
    9AU    AUSL 4111   1.951  31.704   8.399
    9AU    AUSL 4112   1.704  32.094   8.421
    9AU     AUL 4113   1.895  32.013   8.744
    9AU       S 4114   2.017  31.630   8.541
    9AU     LIG 4115   2.023  31.555   8.980
    9AU     LIG 4116   2.033  31.251   9.360
    9AU     LIG 4117   2.257  31.076   9.764
    9AU     LIG 4118   2.443  31.000  10.212
    9AU     LIG 4119   2.636  30.883  10.637
    9AU       S 4120   1.492  31.830   8.633
    9AU     LIG 4121   1.553  31.816   9.104
    9AU     LIG 4122   1.349  31.777   9.532
    9AU     LIG 4123   1.207  31.834   9.984
    9AU     LIG 4124   1.134  32.148  10.358
    9AU     LIG 4125   1.012  32.465  10.711
    9AU    AUSL 4126   2.026  32.072   8.159
    9AU    AUSL 4127   2.464  32.175   8.106
    9AU     AUL 4128   2.249  32.086   8.450
    9AU       S 4129   1.928  32.465   8.586
    9AU     LIG 4130   2.255  32.348   8.909
    9AU     LIG 4131   2.320  32.407   9.399
    9AU     LIG 4132   2.347  32.515   9.882
    9AU     LIG 4133   2.407  32.646  10.339
    9AU     LIG 4134   2.628  32.583  10.772
    9AU       S 4135   2.626  32.304   8.287
    9AU     LIG 4136   3.049  32.325   8.304
    9AU     LIG 4137   3.338  32.515   8.628
    9AU     LIG 4138   3.573  32.747   8.972
    9AU     LIG 4139   3.728  32.929   9.372
    9AU     LIG 4140   4.021  32.860   9.738
    9AU    AUSL 4141   2.398  32.036   6.772
    9AU    AUSL 4142   2.183  32.368   6.962
    9AU     AUL 4143   2.300  32.407   6.626
    9AU       S 4144   2.362  32.082   6.311
    9AU     LIG 4145   2.716  31.894   6.117
    9AU     LIG 4146   2.779  31.613   5.765
    9AU     LIG 4147   2.958  31.549   5.340
    9AU     LIG 4148   3.344  31.520   5.062
    9AU     LIG 4149   3.588  31.399   4.674
    9AU       S 4150   2.626  32.608   6.872
    9AU     LIG 4151   2.759  32.765   6.467
    9AU     LIG 4152   2.982  32.921   6.066
    9AU     LIG 4153   3.261  33.135   5.754
    9AU     LIG 4154   3.247  33.433   5.397
    9AU     LIG 4155   3.350  33.644   4.990
    9AU    AUSL 4156   2.165  31.710   6.609
    9AU    AUSL 4157   2.518  31.656   6.926
    9AU     AUL 4158   2.578  31.789   6.614
    9AU       S 4159   2.643  31.336   6.695
    9AU     LIG 4160   2.769  31.022   6.353
    9AU     LIG 4161   3.024  30.641   6.224
    9AU     LIG 4162   3.287  30.378   5.917
    9AU     LIG 4163   3.683  30.368   5.633
    9AU     LIG 4164   4.107  30.443   5.408
    9AU       S 4165   2.249  31.954   6.313
    9AU     LIG 4166   2.317  31.558   6.112
    9AU     LIG 4167   2.352  31.332   5.685
    9AU     LIG 4168   2.430  31.299   5.209
    9AU     LIG 4169   2.415  31.067   4.777
    9AU     LIG 4170   2.585  30.867   4.374
    9AU    AUSL 4171   1.972  32.078   6.729
    9AU    AUSL 4172   1.747  31.688   6.717
    9AU     AUL 4173   1.909  31.684   6.447
    9AU       S 4174   1.467  31.723   6.285
    9AU     LIG 4175   1.609  31.514   5.930
    9AU     LIG 4176   1.367  31.256   5.618
    9AU     LIG 4177   1.144  31.250   5.210
    9AU     LIG 4178   0.994  31.013   4.837
    9AU     LIG 4179   0.913  31.003   4.367
    9AU       S 4180   2.025  32.136   6.367
    9AU     LIG 4181   1.959  31.912   5.930
    9AU     LIG 4182   2.325  31.837   5.611
    9AU     LIG 4183   2.531  31.815   5.164
    9AU     LIG 4184   2.568  31.967   4.693
    9AU     LIG 4185   2.775  32.137   4.291
    9AU    AUSL 4186   1.306  32.044   8.248
    9AU    AUSL 4187   1.596  32.393   8.137
    9AU     AUL 4188   1.462  32.326   8.477
    9AU       S 4189   1.297  31.924   8.675
    9AU     LIG 4190   1.107  31.590   8.911
    9AU     LIG 4191   0.974  31.457   9.349
    9AU     LIG 4192   0.717  31.385   9.751
    9AU     LIG 4193   0.288  31.337   9.975
    9AU     LIG 4194  44.946  31.393  10.319
    9AU       S 4195   1.213  32.628   8.211
    9AU     LIG 4196   1.235  32.783   8.620
    9AU     LIG 4197   1.132  32.992   9.029
    9AU     LIG 4198   0.848  33.229   9.310
    9AU     LIG 4199   0.695  33.437   9.706
    9AU     LIG 4200   0.614  33.574  10.161
    9AU    AUSL 4201   1.603  31.754   8.163
    9AU    AUSL 4202   1.186  31.631   8.136
    9AU     AUL 4203   1.088  31.865   8.270
    9AU       S 4204   1.092  31.413   8.397
    9AU     LIG 4205   0.653  31.310   8.215
    9AU     LIG 4206   0.396  30.923   8.301
    9AU     LIG 4207   0.100  30.703   8.597
    9AU     LIG 4208  44.892  30.485   8.953
    9AU     LIG 4209  44.681  30.403   9.366
    9AU       S 4210   1.481  31.696   8.546
    9AU     LIG 4211   1.567  31.370   8.870
    9AU     LIG 4212   1.487  31.321   9.333
    9AU     LIG 4213   1.255  31.307   9.765
    9AU     LIG 4214   1.161  31.064  10.173
    9AU     LIG 4215   0.990  30.879  10.586
    9AU    AUSL 4216   1.333  31.791   6.763
    9AU    AUSL 4217   1.511  31.424   6.947
    9AU     AUL 4218   1.547  31.413   6.616
    9AU       S 4219   1.237  31.694   6.409
    9AU     LIG 4220   1.097  31.567   5.969
    9AU     LIG 4221   0.871  31.496   5.566
    9AU     LIG 4222   0.619  31.330   5.196
    9AU     LIG 4223   0.187  31.345   4.985
    9AU     LIG 4224  44.787  31.557   4.835
    9AU       S 4225   1.129  31.285   6.757
    9AU     LIG 4226   1.108  30.801   6.700
    9AU     LIG 4227   0.741  30.541   6.598
    9AU     LIG 4228   0.520  30.370   6.215
    9AU     LIG 4229   0.393  30.098   5.844
    9AU     LIG 4230   0.523  29.954   5.402
    9AU    AUSL 4231   1.591  32.086   6.565
    9AU    AUSL 4232   1.124  32.133   6.917
    9AU     AUL 4233   1.243  32.121   6.585
    9AU       S 4234   0.862  32.328   6.743
    9AU     LIG 4235   0.538  32.527   6.501
    9AU     LIG 4236   0.402  32.759   6.125
    9AU     LIG 4237   0.074  32.737   5.773
    9AU     LIG 4238  44.884  32.946   5.385
    9AU     LIG 4239  44.613  33.186   5.083
    9AU       S 4240   1.554  31.953   6.281
    9AU     LIG 4241   1.396  31.985   5.859
    9AU     LIG 4242   1.318  31.743   5.479
    9AU     LIG 4243   1.225  31.726   5.019
    9AU     LIG 4244   1.203  31.986   4.617
    9AU     LIG 4245   1.170  32.286   4.242
    9AU    AUSL 4246   2.635  32.366   7.537
    9AU    AUSL 4247   2.553  32.199   7.130
    9AU     AUL 4248   2.889  32.484   7.321
    9AU       S 4249   2.679  32.371   6.933
    9AU     LIG 4250   2.805  32.254   6.524
    9AU     LIG 4251   3.134  32.458   6.254
    9AU     LIG 4252   3.464  32.737   6.051
    9AU     LIG 4253   3.748  32.900   5.716
    9AU     LIG 4254   4.136  32.852   5.429
    9AU       S 4255   3.020  32.232   7.704
    9AU     LIG 4256   3.454  32.363   7.601
    9AU     LIG 4257   3.934  32.416   7.597
    9AU     LIG 4258   4.320  32.665   7.473
    9AU     LIG 4259   4.577  33.056   7.346
    9AU     LIG 4260   4.756  33.512   7.344
    9AU    AUSL 4261   2.806  31.968   7.380
    9AU    AUSL 4262   2.744  31.635   7.705
    9AU     AUL 4263   3.100  31.705   7.644
    9AU       S 4264   2.954  32.043   7.400
    9AU     LIG 4265   3.440  31.923   7.358
    9AU     LIG 4266   3.919  31.999   7.299
    9AU     LIG 4267   4.380  32.172   7.286
    9AU     LIG 4268   4.829  32.321   7.120
    9AU     LIG 4269   5.308  32.350   6.980
    9AU       S 4270   2.964  31.260   7.656
    9AU     LIG 4271   3.341  31.253   7.851
    9AU     LIG 4272   3.730  31.040   7.779
    9AU     LIG 4273   4.153  30.956   7.838
    9AU     LIG 4274   4.568  30.991   8.030
    9AU     LIG 4275   4.966  31.115   8.232
    9AU    AUSL 4276   2.540  32.002   7.736
    9AU    AUSL 4277   2.291  32.409   7.783
    9AU     AUL 4278   2.623  32.441   7.840
    9AU       S 4279   2.606  32.616   8.263
    9AU     LIG 4280   2.970  32.830   8.438
    9AU     LIG 4281   3.315  33.057   8.661
    9AU     LIG 4282   3.627  33.335   8.892
    9AU     LIG 4283   3.747  33.787   8.816
    9AU     LIG 4284   4.001  34.186   8.822
    9AU       S 4285   2.875  32.056   7.862
    9AU     LIG 4286   3.359  32.006   7.977
    9AU     LIG 4287   3.798  31.946   7.798
    9AU     LIG 4288   4.270  32.056   7.800
    9AU     LIG 4289   4.644  32.328   7.697
    9AU     LIG 4290   5.047  32.402   7.912
    9AU    AUSL 4291   1.178  32.472   7.511
    9AU    AUSL 4292   1.256  32.264   7.896
    9AU     AUL 4293   0.946  32.572   7.757
    9AU       S 4294   1.094  32.441   8.169
    9AU     LIG 4295   0.960  32.332   8.566
    9AU     LIG 4296   0.782  32.645   8.871
    9AU     LIG 4297   0.482  32.928   9.102
    9AU     LIG 4298   0.093  32.944   9.387
    9AU     LIG 4299  44.695  33.068   9.623
    9AU       S 4300   1.162  32.840   7.433
    9AU     LIG 4301   0.657  32.772   7.407
    9AU     LIG 4302   0.181  32.852   7.594
    9AU     LIG 4303  44.815  33.194   7.670
    9AU     LIG 4304  44.627  33.643   7.718
    9AU     LIG 4305  44.316  33.955   7.526
    9AU    AUSL 4306   1.122  32.080   7.328
    9AU    AUSL 4307   1.240  32.511   7.096
    9AU     AUL 4308   0.938  32.388   7.206
    9AU       S 4309   0.735  31.901   6.989
    9AU     LIG 4310   0.435  32.299   6.961
    9AU     LIG 4311  44.973  32.477   6.978
    9AU     LIG 4312  44.533  32.456   6.751
    9AU     LIG 4313  44.096  32.602   6.630
    9AU     LIG 4314  43.718  32.893   6.721
    9AU       S 4315   1.075  32.765   6.931
    9AU     LIG 4316   0.802  32.970   6.584
    9AU     LIG 4317   0.721  33.218   6.191
    9AU     LIG 4318   0.543  33.649   6.043
    9AU     LIG 4319   0.211  34.021   6.005
    9AU     LIG 4320  44.960  34.451   6.023
    9AU    AUSL 4321   0.914  32.121   7.708
    9AU    AUSL 4322   0.880  31.747   7.406
    9AU     AUL 4323   0.715  32.060   7.436
    9AU       S 4324   0.676  31.651   7.685
    9AU     LIG 4325   0.318  31.595   7.366
    9AU     LIG 4326  44.873  31.360   7.299
    9AU     LIG 4327  44.418  31.198   7.372
    9AU     LIG 4328  43.985  31.292   7.246
    9AU     LIG 4329  43.581  31.123   7.119
    9AU       S 4330   0.783  32.143   7.934
    9AU     LIG 4331   0.458  32.448   7.917
    9AU     LIG 4332  44.999  32.549   7.996
    9AU     LIG 4333  44.578  32.653   8.209
    9AU     LIG 4334  44.112  32.714   8.157
    9AU     LIG 4335  43.665  32.640   8.286
    9AU    AUSL 4336   2.508  31.310   7.541
    9AU    AUSL 4337   2.365  31.561   7.881
    9AU     AUL 4338   2.673  31.464   7.955
    9AU       S 4339   2.698  31.158   7.528
    9AU     LIG 4340   2.979  30.790   7.727
    9AU     LIG 4341   3.422  30.674   7.605
    9AU     LIG 4342   3.892  30.551   7.640
    9AU     LIG 4343   4.336  30.473   7.772
    9AU     LIG 4344   4.752  30.266   7.676
    9AU       S 4345   2.572  31.020   7.972
    9AU     LIG 4346   2.819  30.725   8.257
    9AU     LIG 4347   2.987  30.473   8.625
    9AU     LIG 4348   3.218  30.202   8.942
    9AU     LIG 4349   3.589  30.223   9.238
    9AU     LIG 4350   3.947  30.344   9.531
    9AU    AUSL 4351   2.502  31.688   7.342
    9AU    AUSL 4352   2.443  31.275   7.125
    9AU     AUL 4353   2.731  31.502   7.173
    9AU       S 4354   2.979  31.268   7.460
    9AU     LIG 4355   3.420  31.151   7.356
    9AU     LIG 4356   3.778  30.868   7.261
    9AU     LIG 4357   4.246  30.842   7.322
    9AU     LIG 4358   4.686  30.984   7.148
    9AU     LIG 4359   5.120  30.926   6.945
    9AU       S 4360   2.646  31.140   6.858
    9AU     LIG 4361   2.712  30.673   6.728
    9AU     LIG 4362   2.852  30.252   6.511
    9AU     LIG 4363   3.103  29.963   6.214
    9AU     LIG 4364   3.372  29.574   6.104
    9AU     LIG 4365   3.823  29.418   6.149
    9AU    AUSL 4366   1.080  31.387   7.557
    9AU    AUSL 4367   1.175  31.635   7.126
    9AU     AUL 4368   0.826  31.461   7.270
    9AU       S 4369   1.009  31.455   6.844
    9AU     LIG 4370   0.654  31.098   6.700
    9AU     LIG 4371   0.318  30.808   6.465
    9AU     LIG 4372   0.023  30.499   6.236
    9AU     LIG 4373  44.658  30.287   6.059
    9AU     LIG 4374  44.236  30.337   5.877
    9AU       S 4375   0.647  31.411   7.705
    9AU     LIG 4376   0.406  31.096   7.406
    9AU     LIG 4377  44.981  30.849   7.318
    9AU     LIG 4378  44.581  30.756   7.580
    9AU     LIG 4379  44.281  30.380   7.560
    9AU     LIG 4380  43.822  30.262   7.472
    9AU    AUSL 4381   1.146  31.774   7.746
    9AU    AUSL 4382   1.396  31.401   7.842
    9AU     AUL 4383   1.062  31.373   7.906
    9AU       S 4384   1.114  31.203   8.335
    9AU     LIG 4385   0.939  30.899   8.029
    9AU     LIG 4386   0.633  30.553   8.022
    9AU     LIG 4387   0.280  30.348   8.275
    9AU     LIG 4388  44.910  30.164   8.542
    9AU     LIG 4389  44.486  29.892   8.583
    9AU       S 4390   0.724  31.684   7.853
    9AU     LIG 4391   0.289  31.952   7.736
    9AU     LIG 4392  44.852  31.790   7.570
    9AU     LIG 4393  44.479  31.571   7.728
    9AU     LIG 4394  44.110  31.262   7.777
    9AU     LIG 4395  43.704  31.022   7.854
    9AU    AUSL 4396   1.878  32.604   7.898
    9AU    AUSL 4397   1.445  32.635   7.804
    9AU     AUL 4398   1.677  32.704   8.184
    9AU       S 4399   1.307  32.834   7.923
    9AU     LIG 4400   0.987  33.058   8.235
    9AU     LIG 4401   0.789  33.140   8.674
    9AU     LIG 4402   0.555  33.467   8.946
    9AU     LIG 4403   0.299  33.890   9.008
    9AU     LIG 4404  44.948  34.242   9.067
    9AU       S 4405   1.893  33.029   7.945
    9AU     LIG 4406   2.048  33.044   8.336
    9AU     LIG 4407   2.056  33.488   8.512
    9AU     LIG 4408   2.060  33.940   8.669
    9AU     LIG 4409   1.903  34.313   8.893
    9AU     LIG 4410   1.943  34.583   9.267
    9AU    AUSL 4411   1.721  32.829   7.552
    9AU    AUSL 4412   2.001  32.730   7.211
    9AU     AUL 4413   1.959  33.086   7.330
    9AU       S 4414   1.724  33.056   7.748
    9AU     LIG 4415   1.796  33.510   7.963
    9AU     LIG 4416   1.821  33.900   8.217
    9AU     LIG 4417   1.832  34.337   8.378
    9AU     LIG 4418   1.714  34.720   8.609
    9AU     LIG 4419   1.525  35.089   8.794
    9AU       S 4420   1.712  32.974   6.964
    9AU     LIG 4421   2.135  33.237   6.895
    9AU     LIG 4422   2.268  33.681   6.870
    9AU     LIG 4423   2.277  34.103   6.655
    9AU     LIG 4424   2.360  34.574   6.603
    9AU     LIG 4425   2.339  35.067   6.675
    9AU    AUSL 4426   2.158  32.768   7.614
    9AU    AUSL 4427   2.147  32.471   8.190
    9AU     AUL 4428   2.256  32.729   7.969
    9AU       S 4429   2.383  32.552   8.408
    9AU     LIG 4430   2.732  32.489   8.743
    9AU     LIG 4431   3.039  32.753   8.980
    9AU     LIG 4432   3.265  33.109   9.192
    9AU     LIG 4433   3.362  33.449   9.503
    9AU     LIG 4434   3.347  33.702   9.908
    9AU       S 4435   2.077  33.111   7.778
    9AU     LIG 4436   2.297  33.399   8.055
    9AU     LIG 4437   2.338  33.834   8.236
    9AU     LIG 4438   2.333  34.289   8.375
    9AU     LIG 4439   2.337  34.775   8.367
    9AU     LIG 4440   2.697  35.090   8.371
    9AU    AUSL 4441   1.770  31.181   7.935
    9AU    AUSL 4442   2.179  31.185   7.772
    9AU     AUL 4443   2.003  31.061   8.159
    9AU       S 4444   1.743  30.723   7.981
    9AU     LIG 4445   1.635  30.548   8.341
    9AU     LIG 4446   1.461  30.134   8.423
    9AU     LIG 4447   1.433  29.663   8.405
    9AU     LIG 4448   1.358  29.281   8.660
    9AU     LIG 4449   1.444  29.035   9.049
    9AU       S 4450   2.332  30.968   7.826
    9AU     LIG 4451   2.308  30.563   8.053
    9AU     LIG 4452   2.578  30.276   8.359
    9AU     LIG 4453   2.863  29.964   8.620
    9AU     LIG 4454   3.188  29.677   8.826
    9AU     LIG 4455   3.371  29.251   8.913
    9AU    AUSL 4456   1.452  31.038   7.651
    9AU    AUSL 4457   1.560  31.353   8.251
    9AU     AUL 4458   1.426  31.071   8.015
    9AU       S 4459   1.553  30.660   7.828
    9AU     LIG 4460   1.234  30.424   8.032
    9AU     LIG 4461   1.172  29.953   8.034
    9AU     LIG 4462   1.138  29.481   8.017
    9AU     LIG 4463   1.184  29.071   8.226
    9AU     LIG 4464   0.956  28.667   8.249
    9AU       S 4465   1.354  31.234   8.452
    9AU     LIG 4466   1.163  30.741   8.465
    9AU     LIG 4467   0.710  30.559   8.532
    9AU     LIG 4468   0.377  30.313   8.786
    9AU     LIG 4469   0.185  30.119   9.172
    9AU     LIG 4470   0.228  29.846   9.555
    9AU    AUSL 4471   1.881  30.949   7.593
    9AU    AUSL 4472   1.656  31.193   7.307
    9AU     AUL 4473   1.526  30.854   7.406
    9AU       S 4474   1.882  30.756   7.143
    9AU     LIG 4475   1.454  30.529   7.044
    9AU     LIG 4476   1.337  30.093   7.098
    9AU     LIG 4477   1.308  29.629   6.982
    9AU     LIG 4478   1.077  29.243   6.789
    9AU     LIG 4479   0.795  28.831   6.760
    9AU       S 4480   1.886  30.740   7.729
    9AU     LIG 4481   1.887  30.273   7.821
    9AU     LIG 4482   1.712  29.882   8.022
    9AU     LIG 4483   1.868  29.434   8.136
    9AU     LIG 4484   2.237  29.085   8.110
    9AU     LIG 4485   2.369  28.633   8.242
    9AU    AUSL 4486   1.820  32.540   6.845
    9AU    AUSL 4487   2.384  32.579   7.275
    9AU     AUL 4488   2.156  32.737   6.929
    9AU       S 4489   1.749  32.902   6.752
    9AU     LIG 4490   1.822  33.279   6.505
    9AU     LIG 4491   2.037  33.684   6.410
    9AU     LIG 4492   2.113  34.060   6.149
    9AU     LIG 4493   2.228  34.336   5.788
    9AU     LIG 4494   2.226  34.797   5.700
    9AU       S 4495   2.574  32.739   7.115
    9AU     LIG 4496   3.039  32.844   6.927
    9AU     LIG 4497   3.261  32.924   6.507
    9AU     LIG 4498   3.469  33.243   6.216
    9AU     LIG 4499   3.678  33.688   6.169
    9AU     LIG 4500   3.871  34.140   6.193
    9AU    AUSL 4501   1.618  32.562   7.246
    9AU    AUSL 4502   1.546  32.234   6.951
    9AU     AUL 4503   1.478  32.533   6.816
    9AU       S 4504   1.548  32.910   7.105
    9AU     LIG 4505   1.681  33.448   7.029
    9AU     LIG 4506   1.791  33.896   6.823
    9AU     LIG 4507   1.817  34.291   6.535
    9AU     LIG 4508   1.647  34.691   6.337
    9AU     LIG 4509   1.737  35.168   6.443
    9AU       S 4510   1.044  32.540   6.670
    9AU     LIG 4511   1.242  32.809   6.356
    9AU     LIG 4512   1.155  33.046   5.930
    9AU     LIG 4513   1.083  33.286   5.501
    9AU     LIG 4514   0.911  33.537   5.113
    9AU     LIG 4515   0.582  33.837   4.927
    9AU    AUSL 4516   1.845  31.163   6.914
    9AU    AUSL 4517   1.249  31.206   7.215
    9AU     AUL 4518   1.510  31.045   6.968
    9AU       S 4519   1.065  31.175   7.001
    9AU     LIG 4520   0.787  30.862   7.132
    9AU     LIG 4521   0.382  30.662   6.962
    9AU     LIG 4522   0.256  30.302   6.653
    9AU     LIG 4523   0.152  29.998   6.296
    9AU     LIG 4524   0.110  29.610   6.003
    9AU       S 4525   1.891  30.753   6.929
    9AU     LIG 4526   1.824  30.320   6.769
    9AU     LIG 4527   1.535  29.972   6.636
    9AU     LIG 4528   1.500  29.524   6.511
    9AU     LIG 4529   1.595  29.252   6.136
    9AU     LIG 4530   1.755  29.155   5.691
    9AU    AUSL 4531   2.083  31.164   7.299
    9AU    AUSL 4532   2.108  31.485   6.953
    9AU     AUL 4533   2.187  31.109   6.936
    9AU       S 4534   2.114  30.758   7.236
    9AU     LIG 4535   1.877  30.294   7.287
    9AU     LIG 4536   1.803  29.864   7.062
    9AU     LIG 4537   1.910  29.432   6.856
    9AU     LIG 4538   2.218  29.029   6.807
    9AU     LIG 4539   2.236  28.538   6.794
    9AU       S 4540   2.407  31.313   6.595
    9AU     LIG 4541   2.293  30.881   6.503
    9AU     LIG 4542   2.507  30.544   6.258
    9AU     LIG 4543   2.767  30.268   5.967
    9AU     LIG 4544   2.996  30.075   5.586
    9AU     LIG 4545   3.101  29.937   5.126
   10AU     AUC 4546  34.146   2.709   7.496
   10AU     AUC 4547  34.427   2.713   7.318
   10AU     AUC 4548  34.412   2.690   7.667
   10AU     AUC 4549  33.860   2.707   7.332
   10AU     AUC 4550  33.880   2.747   7.683
   10AU     AUC 4551  33.983   2.994   7.492
   10AU     AUC 4552  34.339   2.985   7.480
   10AU     AUC 4553  33.951   2.444   7.507
   10AU     AUC 4554  34.305   2.415   7.495
   10AU     AUC 4555  34.143   2.534   7.774
   10AU     AUC 4556  34.150   2.899   7.756
   10AU     AUC 4557  34.141   2.543   7.220
   10AU     AUC 4558  34.168   2.864   7.216
   10AU     AUC 4559  34.744   2.714   7.152
   10AU     AUC 4560  34.753   2.667   7.510
   10AU     AUC 4561  34.700   2.656   7.861
   10AU     AUC 4562  33.555   2.704   7.167
   10AU     AUC 4563  33.540   2.745   7.531
   10AU     AUC 4564  33.594   2.784   7.874
   10AU     AUC 4565  33.827   3.300   7.467
   10AU     AUC 4566  34.193   3.320   7.443
   10AU     AUC 4567  34.530   3.260   7.468
   10AU     AUC 4568  33.747   2.173   7.512
   10AU     AUC 4569  34.099   2.111   7.487
   10AU     AUC 4570  34.462   2.110   7.479
   10AU     AUC 4571  34.122   2.356   8.067
   10AU     AUC 4572  34.149   2.718   8.092
   10AU     AUC 4573  34.186   3.076   8.044
   10AU     AUC 4574  34.166   2.369   6.943
   10AU     AUC 4575  34.163   2.698   6.882
   10AU     AUC 4576  34.150   3.014   6.921
   10AU     AUC 4577  34.413   2.476   7.990
   10AU     AUC 4578  34.462   2.860   7.979
   10AU     AUC 4579  34.482   2.559   6.992
   10AU     AUC 4580  34.481   2.886   7.027
   10AU     AUC 4581  33.841   2.585   8.012
   10AU     AUC 4582  33.880   2.960   7.986
   10AU     AUC 4583  33.843   2.525   7.038
   10AU     AUC 4584  33.824   2.838   6.994
   10AU     AUC 4585  34.689   2.987   7.337
   10AU     AUC 4586  34.630   2.958   7.685
   10AU     AUC 4587  33.656   3.011   7.327
   10AU     AUC 4588  33.688   3.068   7.680
   10AU     AUC 4589  34.617   2.394   7.320
   10AU     AUC 4590  34.585   2.347   7.679
   10AU     AUC 4591  33.618   2.415   7.357
   10AU     AUC 4592  33.675   2.466   7.716
   10AU     AUC 4593  34.012   3.241   7.751
   10AU     AUC 4594  34.355   3.191   7.763
   10AU     AUC 4595  33.934   2.244   7.801
   10AU     AUC 4596  34.264   2.184   7.772
   10AU     AUC 4597  33.971   3.144   7.180
   10AU     AUC 4598  34.356   3.178   7.184
   10AU     AUC 4599  33.941   2.242   7.206
   10AU     AUC 4600  34.336   2.248   7.199
   10AU    AUSL 4601  34.680   2.591   8.229
   10AU    AUSL 4602  34.412   2.183   8.157
   10AU     AUL 4603  34.692   2.189   8.397
   10AU       S 4604  34.771   1.843   8.111
   10AU     LIG 4605  34.677   1.610   8.436
   10AU     LIG 4606  34.822   1.329   8.762
   10AU     LIG 4607  35.082   1.025   8.996
   10AU     LIG 4608  35.193   0.690   9.307
   10AU     LIG 4609  35.154   0.521   9.751
   10AU       S 4610  34.897   2.587   8.343
   10AU     LIG 4611  34.755   2.584   8.792
   10AU     LIG 4612  34.951   2.516   9.230
   10AU     LIG 4613  35.269   2.356   9.570
   10AU     LIG 4614  35.690   2.394   9.823
   10AU     LIG 4615  36.035   2.544  10.122
   10AU    AUSL 4616  34.276   2.519   8.393
   10AU    AUSL 4617  34.034   2.907   8.419
   10AU     AUL 4618  34.229   2.830   8.742
   10AU       S 4619  34.341   2.449   8.530
   10AU     LIG 4620  34.293   2.345   8.939
   10AU     LIG 4621  34.556   2.184   9.302
   10AU     LIG 4622  34.783   2.028   9.699
   10AU     LIG 4623  34.816   1.928  10.169
   10AU     LIG 4624  34.845   1.762  10.617
   10AU       S 4625  33.823   2.650   8.636
   10AU     LIG 4626  33.868   2.614   9.109
   10AU     LIG 4627  33.595   2.561   9.488
   10AU     LIG 4628  33.392   2.605   9.913
   10AU     LIG 4629  33.318   2.877  10.303
   10AU     LIG 4630  33.242   3.211  10.645
   10AU    AUSL 4631  34.352   2.887   8.152
   10AU    AUSL 4632  34.791   2.983   8.090
   10AU     AUL 4633  34.575   2.900   8.438
   10AU       S 4634  34.263   3.280   8.577
   10AU     LIG 4635  34.611   3.146   8.879
   10AU     LIG 4636  34.866   3.210   9.285
   10AU     LIG 4637  34.853   3.271   9.778
   10AU     LIG 4638  34.773   3.307  10.261
   10AU     LIG 4639  34.847   3.411  10.729
   10AU       S 4640  34.954   3.116   8.273
   10AU     LIG 4641  35.358   3.067   8.330
   10AU     LIG 4642  35.613   3.266   8.674
   10AU     LIG 4643  35.869   3.508   8.986
   10AU     LIG 4644  36.073   3.761   9.324
   10AU     LIG 4645  36.424   3.781   9.636
   10AU    AUSL 4646  34.703   2.834   6.761
   10AU    AUSL 4647  34.495   3.174   6.949
   10AU     AUL 4648  34.617   3.208   6.613
   10AU       S 4649  34.657   2.875   6.304
   10AU     LIG 4650  35.030   2.720   6.112
   10AU     LIG 4651  35.139   2.406   5.810
   10AU     LIG 4652  35.232   2.230   5.389
   10AU     LIG 4653  35.530   2.192   5.017
   10AU     LIG 4654  35.827   2.273   4.645
   10AU       S 4655  34.937   3.412   6.868
   10AU     LIG 4656  35.021   3.564   6.480
   10AU     LIG 4657  35.191   3.723   6.085
   10AU     LIG 4658  35.432   3.987   5.810
   10AU     LIG 4659  35.625   4.197   5.454
   10AU     LIG 4660  35.624   4.502   5.108
   10AU    AUSL 4661  34.466   2.510   6.602
   10AU    AUSL 4662  34.823   2.457   6.922
   10AU     AUL 4663  34.885   2.589   6.609
   10AU       S 4664  34.971   2.140   6.702
   10AU     LIG 4665  35.088   1.824   6.368
   10AU     LIG 4666  35.323   1.434   6.253
   10AU     LIG 4667  35.565   1.172   5.945
   10AU     LIG 4668  35.869   1.224   5.579
   10AU     LIG 4669  36.333   1.253   5.481
   10AU       S 4670  34.562   2.734   6.302
   10AU     LIG 4671  34.664   2.341   6.109
   10AU     LIG 4672  34.741   2.120   5.668
   10AU     LIG 4673  34.773   2.082   5.184
   10AU     LIG 4674  34.731   1.959   4.714
   10AU     LIG 4675  34.894   2.004   4.267
   10AU    AUSL 4676  34.280   2.885   6.716
   10AU    AUSL 4677  34.049   2.500   6.715
   10AU     AUL 4678  34.196   2.502   6.438
   10AU       S 4679  33.747   2.536   6.298
   10AU     LIG 4680  33.862   2.274   5.978
   10AU     LIG 4681  33.612   2.012   5.673
   10AU     LIG 4682  33.404   1.982   5.252
   10AU     LIG 4683  33.270   1.905   4.803
   10AU     LIG 4684  33.282   1.768   4.328
   10AU       S 4685  34.328   2.945   6.359
   10AU     LIG 4686  34.266   2.703   5.929
   10AU     LIG 4687  34.671   2.629   5.667
   10AU     LIG 4688  34.886   2.600   5.234
   10AU     LIG 4689  34.918   2.803   4.786
   10AU     LIG 4690  34.980   3.104   4.407
   10AU    AUSL 4691  33.633   2.865   8.250
   10AU    AUSL 4692  33.928   3.203   8.131
   10AU     AUL 4693  33.795   3.148   8.471
   10AU       S 4694  33.643   2.758   8.691
   10AU     LIG 4695  33.358   2.474   8.849
   10AU     LIG 4696  33.165   2.361   9.268
   10AU     LIG 4697  32.987   2.348   9.703
   10AU     LIG 4698  32.707   2.262  10.069
   10AU     LIG 4699  32.378   2.316  10.406
   10AU       S 4700  33.538   3.455   8.213
   10AU     LIG 4701  33.553   3.583   8.623
   10AU     LIG 4702  33.514   3.780   9.053
   10AU     LIG 4703  33.394   4.086   9.383
   10AU     LIG 4704  33.213   4.215   9.807
   10AU     LIG 4705  33.130   4.551  10.142
   10AU    AUSL 4706  33.921   2.564   8.168
   10AU    AUSL 4707  33.496   2.459   8.136
   10AU     AUL 4708  33.423   2.682   8.294
   10AU       S 4709  33.387   2.220   8.384
   10AU     LIG 4710  32.948   2.203   8.233
   10AU     LIG 4711  32.612   1.877   8.279
   10AU     LIG 4712  32.412   1.523   8.532
   10AU     LIG 4713  32.196   1.199   8.806
   10AU     LIG 4714  32.006   1.097   9.228
   10AU       S 4715  33.809   2.509   8.550
   10AU     LIG 4716  33.784   2.183   8.868
   10AU     LIG 4717  33.599   2.088   9.272
   10AU     LIG 4718  33.449   2.113   9.714
   10AU     LIG 4719  33.336   1.908  10.116
   10AU     LIG 4720  33.250   1.843  10.570
   10AU    AUSL 4721  33.639   2.612   6.773
   10AU    AUSL 4722  33.817   2.237   6.949
   10AU     AUL 4723  33.847   2.223   6.620
   10AU       S 4724  33.533   2.515   6.435
   10AU     LIG 4725  33.355   2.249   6.099
   10AU     LIG 4726  33.132   2.206   5.685
   10AU     LIG 4727  32.971   2.263   5.249
   10AU     LIG 4728  32.568   2.230   5.001
   10AU     LIG 4729  32.288   2.438   4.681
   10AU       S 4730  33.424   2.110   6.762
   10AU     LIG 4731  33.236   1.695   6.616
   10AU     LIG 4732  32.897   1.490   6.377
   10AU     LIG 4733  32.709   1.297   5.999
   10AU     LIG 4734  32.672   1.145   5.548
   10AU     LIG 4735  32.476   0.908   5.182
   10AU    AUSL 4736  33.894   2.901   6.564
   10AU    AUSL 4737  33.434   2.959   6.923
   10AU     AUL 4738  33.542   2.948   6.593
   10AU       S 4739  33.152   3.169   6.745
   10AU     LIG 4740  33.002   3.519   6.400
   10AU     LIG 4741  32.992   3.669   5.957
   10AU     LIG 4742  32.736   3.844   5.603
   10AU     LIG 4743  32.326   3.841   5.358
   10AU     LIG 4744  31.947   3.984   5.113
   10AU       S 4745  33.830   2.765   6.269
   10AU     LIG 4746  33.556   2.679   5.866
   10AU     LIG 4747  33.498   2.469   5.447
   10AU     LIG 4748  33.414   2.453   4.983
   10AU     LIG 4749  33.500   2.725   4.587
   10AU     LIG 4750  33.454   3.066   4.249
   10AU    AUSL 4751  34.957   3.171   7.519
   10AU    AUSL 4752  34.864   3.003   7.114
   10AU     AUL 4753  35.213   3.289   7.298
   10AU       S 4754  34.986   3.167   6.926
   10AU     LIG 4755  35.109   3.054   6.520
   10AU     LIG 4756  35.409   3.279   6.249
   10AU     LIG 4757  35.689   3.575   6.008
   10AU     LIG 4758  35.936   3.874   5.735
   10AU     LIG 4759  36.281   4.048   5.472
   10AU       S 4760  35.344   3.029   7.673
   10AU     LIG 4761  35.758   3.243   7.597
   10AU     LIG 4762  36.224   3.385   7.534
   10AU     LIG 4763  36.679   3.563   7.509
   10AU     LIG 4764  36.943   3.985   7.432
   10AU     LIG 4765  37.123   4.451   7.358
   10AU    AUSL 4766  35.116   2.767   7.357
   10AU    AUSL 4767  35.055   2.435   7.695
   10AU     AUL 4768  35.407   2.489   7.591
   10AU       S 4769  35.254   2.843   7.377
   10AU     LIG 4770  35.713   2.810   7.338
   10AU     LIG 4771  36.190   2.915   7.337
   10AU     LIG 4772  36.652   3.082   7.276
   10AU     LIG 4773  37.131   3.108   7.141
   10AU     LIG 4774  37.496   3.246   6.837
   10AU       S 4775  35.265   2.049   7.670
   10AU     LIG 4776  35.621   1.976   7.881
   10AU     LIG 4777  36.022   1.757   7.810
   10AU     LIG 4778  36.457   1.599   7.714
   10AU     LIG 4779  36.911   1.490   7.614
   10AU     LIG 4780  37.307   1.349   7.829
   10AU    AUSL 4781  34.860   2.807   7.720
   10AU    AUSL 4782  34.616   3.219   7.770
   10AU     AUL 4783  34.954   3.241   7.823
   10AU       S 4784  34.941   3.420   8.245
   10AU     LIG 4785  35.324   3.587   8.379
   10AU     LIG 4786  35.529   3.794   8.734
   10AU     LIG 4787  35.868   4.050   8.937
   10AU     LIG 4788  36.102   4.462   8.964
   10AU     LIG 4789  36.348   4.865   8.869
   10AU       S 4790  35.203   2.852   7.835
   10AU     LIG 4791  35.675   2.815   7.956
   10AU     LIG 4792  36.115   2.960   7.847
   10AU     LIG 4793  36.569   3.093   7.783
   10AU     LIG 4794  37.026   3.157   7.651
   10AU     LIG 4795  37.481   3.294   7.698
   10AU    AUSL 4796  33.505   3.295   7.514
   10AU    AUSL 4797  33.579   3.086   7.899
   10AU     AUL 4798  33.271   3.400   7.753
   10AU       S 4799  33.426   3.264   8.164
   10AU     LIG 4800  33.295   3.131   8.571
   10AU     LIG 4801  33.170   3.395   8.955
   10AU     LIG 4802  32.877   3.647   9.247
   10AU     LIG 4803  32.485   3.735   9.525
   10AU     LIG 4804  32.064   3.833   9.742
   10AU       S 4805  33.512   3.668   7.438
   10AU     LIG 4806  33.080   3.698   7.325
   10AU     LIG 4807  32.676   3.977   7.329
   10AU     LIG 4808  32.266   4.260   7.373
   10AU     LIG 4809  31.849   4.528   7.410
   10AU     LIG 4810  31.517   4.782   7.646
   10AU    AUSL 4811  33.441   2.903   7.333
   10AU    AUSL 4812  33.565   3.334   7.099
   10AU     AUL 4813  33.265   3.222   7.206
   10AU       S 4814  33.049   2.723   6.989
   10AU     LIG 4815  32.753   3.107   7.066
   10AU     LIG 4816  32.308   3.329   6.982
   10AU     LIG 4817  31.816   3.453   6.920
   10AU     LIG 4818  31.376   3.683   6.891
   10AU     LIG 4819  30.921   3.566   6.895
   10AU       S 4820  33.412   3.594   6.939
   10AU     LIG 4821  33.344   3.881   6.601
   10AU     LIG 4822  33.040   4.050   6.302
   10AU     LIG 4823  32.939   4.437   6.059
   10AU     LIG 4824  32.748   4.887   6.077
   10AU     LIG 4825  32.588   5.349   6.151
   10AU    AUSL 4826  33.232   2.949   7.714
   10AU    AUSL 4827  33.189   2.577   7.405
   10AU     AUL 4828  33.040   2.901   7.437
   10AU       S 4829  32.964   2.492   7.659
   10AU     LIG 4830  32.642   2.355   7.311
   10AU     LIG 4831  32.239   2.132   7.408
   10AU     LIG 4832  31.826   2.029   7.235
   10AU     LIG 4833  31.415   1.832   7.193
   10AU     LIG 4834  30.983   1.968   7.134
   10AU       S 4835  33.116   2.952   7.949
   10AU     LIG 4836  32.691   3.020   7.799
   10AU     LIG 4837  32.196   3.041   7.863
   10AU     LIG 4838  31.742   3.214   8.004
   10AU     LIG 4839  31.297   3.395   8.133
   10AU     LIG 4840  30.910   3.530   7.882
   10AU    AUSL 4841  34.813   2.114   7.535
   10AU    AUSL 4842  34.674   2.373   7.872
   10AU     AUL 4843  34.977   2.274   7.953
   10AU       S 4844  34.998   1.952   7.520
   10AU     LIG 4845  35.296   1.567   7.679
   10AU     LIG 4846  35.745   1.380   7.588
   10AU     LIG 4847  36.199   1.190   7.531
   10AU     LIG 4848  36.669   1.039   7.551
   10AU     LIG 4849  37.049   0.706   7.568
   10AU       S 4850  34.887   1.830   7.972
   10AU     LIG 4851  35.192   1.603   8.241
   10AU     LIG 4852  35.325   1.386   8.650
   10AU     LIG 4853  35.586   1.129   8.960
   10AU     LIG 4854  35.920   1.157   9.300
   10AU     LIG 4855  36.286   1.324   9.562
   10AU    AUSL 4856  34.807   2.491   7.337
   10AU    AUSL 4857  34.743   2.077   7.119
   10AU     AUL 4858  35.040   2.304   7.175
   10AU       S 4859  35.271   2.041   7.455
   10AU     LIG 4860  35.686   1.855   7.386
   10AU     LIG 4861  36.112   1.653   7.309
   10AU     LIG 4862  36.542   1.455   7.228
   10AU     LIG 4863  36.971   1.575   7.094
   10AU     LIG 4864  37.419   1.547   6.956
   10AU       S 4865  34.939   1.940   6.871
   10AU     LIG 4866  35.005   1.478   6.744
   10AU     LIG 4867  35.140   1.052   6.539
   10AU     LIG 4868  35.391   0.744   6.264
   10AU     LIG 4869  35.528   0.282   6.213
   10AU     LIG 4870  35.829  44.924   6.223
   10AU    AUSL 4871  33.382   2.213   7.554
   10AU    AUSL 4872  33.486   2.451   7.133
   10AU     AUL 4873  33.138   2.279   7.272
   10AU       S 4874  33.319   2.281   6.848
   10AU     LIG 4875  32.895   2.053   6.773
   10AU     LIG 4876  32.541   1.748   6.621
   10AU     LIG 4877  32.324   1.512   6.282
   10AU     LIG 4878  31.921   1.286   6.179
   10AU     LIG 4879  31.567   1.104   5.915
   10AU       S 4880  32.928   2.253   7.697
   10AU     LIG 4881  32.642   1.931   7.695
   10AU     LIG 4882  32.232   1.744   7.782
   10AU     LIG 4883  31.785   1.661   7.603
   10AU     LIG 4884  31.462   1.373   7.433
   10AU     LIG 4885  31.123   1.049   7.477
   10AU    AUSL 4886  33.457   2.598   7.744
   10AU    AUSL 4887  33.687   2.211   7.847
   10AU     AUL 4888  33.338   2.241   7.899
   10AU       S 4889  33.399   1.975   8.258
   10AU     LIG 4890  33.042   1.741   8.024
   10AU     LIG 4891  32.658   1.419   8.056
   10AU     LIG 4892  32.437   1.054   8.324
   10AU     LIG 4893  32.226   0.700   8.605
   10AU     LIG 4894  31.966   0.264   8.671
   10AU       S 4895  32.971   2.519   7.825
   10AU     LIG 4896  32.463   2.566   7.734
   10AU     LIG 4897  31.980   2.518   7.641
   10AU     LIG 4898  31.674   2.157   7.700
   10AU     LIG 4899  31.309   1.865   7.690
   10AU     LIG 4900  30.894   1.785   7.893
   10AU    AUSL 4901  34.206   3.418   7.893
   10AU    AUSL 4902  33.773   3.455   7.808
   10AU     AUL 4903  34.004   3.510   8.187
   10AU       S 4904  33.644   3.654   7.919
   10AU     LIG 4905  33.361   3.912   8.210
   10AU     LIG 4906  33.378   4.067   8.648
   10AU     LIG 4907  33.241   4.378   8.971
   10AU     LIG 4908  32.887   4.701   9.062
   10AU     LIG 4909  32.547   5.045   9.078
   10AU       S 4910  34.225   3.828   7.947
   10AU     LIG 4911  34.342   3.845   8.365
   10AU     LIG 4912  34.265   4.259   8.589
   10AU     LIG 4913  34.194   4.541   8.971
   10AU     LIG 4914  34.322   4.870   9.304
   10AU     LIG 4915  34.367   5.236   9.610
   10AU    AUSL 4916  34.044   3.645   7.548
   10AU    AUSL 4917  34.321   3.551   7.198
   10AU     AUL 4918  34.272   3.903   7.327
   10AU       S 4919  34.075   3.874   7.768
   10AU     LIG 4920  34.204   4.290   8.074
   10AU     LIG 4921  34.210   4.762   8.090
   10AU     LIG 4922  34.142   5.241   8.085
   10AU     LIG 4923  34.030   5.723   8.201
   10AU     LIG 4924  33.768   6.148   8.301
   10AU       S 4925  34.028   3.785   6.959
   10AU     LIG 4926  34.461   4.037   6.883
   10AU     LIG 4927  34.584   4.488   6.880
   10AU     LIG 4928  34.512   4.903   6.645
   10AU     LIG 4929  34.716   5.319   6.550
   10AU     LIG 4930  34.547   5.760   6.613
   10AU    AUSL 4931  34.481   3.579   7.602
   10AU    AUSL 4932  34.480   3.284   8.179
   10AU     AUL 4933  34.592   3.538   7.953
   10AU       S 4934  34.719   3.364   8.394
   10AU     LIG 4935  35.073   3.303   8.731
   10AU     LIG 4936  35.339   3.451   9.082
   10AU     LIG 4937  35.557   3.809   9.276
   10AU     LIG 4938  35.733   4.180   9.503
   10AU     LIG 4939  35.671   4.550   9.812
   10AU       S 4940  34.406   3.920   7.770
   10AU     LIG 4941  34.678   4.091   8.072
   10AU     LIG 4942  34.643   4.520   8.264
   10AU     LIG 4943  34.649   5.002   8.197
   10AU     LIG 4944  34.578   5.474   8.238
   10AU     LIG 4945  34.491   5.935   8.324
   10AU    AUSL 4946  34.082   2.025   7.930
   10AU    AUSL 4947  34.492   1.991   7.775
   10AU     AUL 4948  34.302   1.877   8.157
   10AU       S 4949  34.076   1.511   7.983
   10AU     LIG 4950  34.009   1.153   8.218
   10AU     LIG 4951  33.875   0.731   8.280
   10AU     LIG 4952  33.698   0.367   8.481
   10AU     LIG 4953  33.669   0.224   8.910
   10AU     LIG 4954  34.009   0.069   9.168
   10AU       S 4955  34.639   1.777   7.831
   10AU     LIG 4956  34.724   1.349   7.986
   10AU     LIG 4957  34.997   1.131   8.316
   10AU     LIG 4958  35.319   0.878   8.567
   10AU     LIG 4959  35.513   0.593   8.895
   10AU     LIG 4960  35.701   0.147   8.962
   10AU    AUSL 4961  33.758   1.850   7.657
   10AU    AUSL 4962  33.855   2.164   8.252
   10AU     AUL 4963  33.775   1.872   8.017
   10AU       S 4964  33.859   1.447   7.816
   10AU     LIG 4965  33.739   0.954   7.807
   10AU     LIG 4966  33.627   0.458   7.922
   10AU     LIG 4967  33.283   0.234   8.206
   10AU     LIG 4968  33.047  44.818   8.290
   10AU     LIG 4969  33.026  44.272   8.264
   10AU       S 4970  33.613   2.068   8.426
   10AU     LIG 4971  33.234   1.788   8.658
   10AU     LIG 4972  32.923   1.461   8.514
   10AU     LIG 4973  32.701   1.123   8.761
   10AU     LIG 4974  32.512   0.955   9.160
   10AU     LIG 4975  32.587   0.801   9.605
   10AU    AUSL 4976  34.183   1.765   7.603
   10AU    AUSL 4977  33.959   2.009   7.316
   10AU     AUL 4978  33.830   1.665   7.403
   10AU       S 4979  34.210   1.550   7.182
   10AU     LIG 4980  33.922   1.140   7.305
   10AU     LIG 4981  33.720   0.656   7.194
   10AU     LIG 4982  33.638   0.212   6.931
   10AU     LIG 4983  33.474  44.861   6.615
   10AU     LIG 4984  33.264  44.413   6.653
   10AU       S 4985  34.188   1.565   7.731
   10AU     LIG 4986  34.234   1.098   7.720
   10AU     LIG 4987  34.146   0.647   7.847
   10AU     LIG 4988  34.083   0.264   8.136
   10AU     LIG 4989  34.176  44.829   8.342
   10AU     LIG 4990  34.291  44.348   8.469
   10AU    AUSL 4991  34.133   3.352   6.840
   10AU    AUSL 4992  34.694   3.378   7.266
   10AU     AUL 4993  34.468   3.540   6.910
   10AU       S 4994  34.056   3.720   6.746
   10AU     LIG 4995  34.171   4.047   6.470
   10AU     LIG 4996  34.422   4.417   6.393
   10AU     LIG 4997  34.326   4.789   6.157
   10AU     LIG 4998  34.417   5.115   5.828
   10AU     LIG 4999  34.494   5.470   5.515
   10AU       S 5000  34.871   3.535   7.126
   10AU     LIG 5001  35.321   3.690   6.923
   10AU     LIG 5002  35.524   3.756   6.488
   10AU     LIG 5003  35.777   4.051   6.202
   10AU     LIG 5004  36.104   4.389   6.080
   10AU     LIG 5005  36.416   4.765   6.163
   10AU    AUSL 5006  33.945   3.372   7.247
   10AU    AUSL 5007  33.860   3.046   6.951
   10AU     AUL 5008  33.797   3.343   6.816
   10AU       S 5009  33.873   3.726   7.097
   10AU     LIG 5010  34.036   4.250   7.040
   10AU     LIG 5011  34.109   4.611   6.773
   10AU     LIG 5012  33.960   5.004   6.636
   10AU     LIG 5013  33.838   5.500   6.608
   10AU     LIG 5014  33.809   5.999   6.701
   10AU       S 5015  33.361   3.372   6.686
   10AU     LIG 5016  33.639   3.546   6.377
   10AU     LIG 5017  33.480   3.874   6.082
   10AU     LIG 5018  33.212   4.088   5.744
   10AU     LIG 5019  33.034   4.136   5.285
   10AU     LIG 5020  32.992   4.384   4.871
   10AU    AUSL 5021  34.143   1.964   6.926
   10AU    AUSL 5022  33.553   2.021   7.218
   10AU     AUL 5023  33.811   1.857   6.972
   10AU       S 5024  33.367   1.993   6.989
   10AU     LIG 5025  33.074   1.711   7.124
   10AU     LIG 5026  32.771   1.411   6.906
   10AU     LIG 5027  32.339   1.244   6.721
   10AU     LIG 5028  32.009   0.904   6.529
   10AU     LIG 5029  31.845   0.439   6.419
   10AU       S 5030  34.187   1.562   7.008
   10AU     LIG 5031  34.129   1.113   6.838
   10AU     LIG 5032  33.968   0.663   6.738
   10AU     LIG 5033  33.903   0.250   6.490
   10AU     LIG 5034  34.004  44.861   6.211
   10AU     LIG 5035  34.056  44.888   5.732
   10AU    AUSL 5036  34.386   1.975   7.304
   10AU    AUSL 5037  34.408   2.288   6.949
   10AU     AUL 5038  34.475   1.916   6.921
   10AU       S 5039  34.480   1.614   7.276
   10AU     LIG 5040  34.449   1.123   7.250
   10AU     LIG 5041  34.225   0.701   7.215
   10AU     LIG 5042  34.142   0.260   7.016
   10AU     LIG 5043  34.070  44.867   6.764
   10AU     LIG 5044  34.356  44.601   6.500
   10AU       S 5045  34.723   2.116   6.597
   10AU     LIG 5046  34.605   1.693   6.494
   10AU     LIG 5047  34.808   1.349   6.268
   10AU     LIG 5048  35.058   1.048   6.008
   10AU     LIG 5049  35.314   0.769   5.720
   10AU     LIG 5050  35.524   0.635   5.318
   11POPC   NC3 5051  28.015  30.746   9.575
   11POPC   PO4 5052  28.594  30.861   9.469
   11POPC   GL1 5053  28.287  30.666   9.120
   11POPC   GL2 5054  27.923  30.779   9.085
   11POPC   C1A 5055  28.143  30.601   8.665
   11POPC   D2A 5056  28.394  30.668   8.306
   11POPC   C3A 5057  28.347  30.575   7.878
   11POPC   C4A 5058  28.587  30.355   7.584
   11POPC   C1B 5059  28.038  31.095   8.760
   11POPC   C2B 5060  28.164  31.145   8.401
   11POPC   C3B 5061  27.957  31.109   8.045
   11POPC   C4B 5062  28.094  30.968   7.670
   12POPC   NC3 5063  37.648   7.711   9.387
   12POPC   PO4 5064  38.078   7.256   9.487
   12POPC   GL1 5065  37.839   7.159   9.092
   12POPC   GL2 5066  37.523   7.335   9.047
   12POPC   C1A 5067  37.844   7.408   8.670
   12POPC   D2A 5068  37.860   7.594   8.267
   12POPC   C3A 5069  37.673   7.341   7.918
   12POPC   C4A 5070  37.860   7.225   7.515
   12POPC   C1B 5071  37.466   7.734   8.773
   12POPC   C2B 5072  37.533   7.952   8.415
   12POPC   C3B 5073  37.482   7.827   8.006
   12POPC   C4B 5074  37.254   7.996   7.724
   13POPC   NC3 5075  28.256  23.516   9.516
   13POPC   PO4 5076  28.792  24.080   9.452
   13POPC   GL1 5077  28.547  23.770   9.169
   13POPC   GL2 5078  28.202  23.858   9.084
   13POPC   C1A 5079  28.474  23.578   8.750
   13POPC   D2A 5080  28.743  23.606   8.370
   13POPC   C3A 5081  28.581  23.640   7.960
   13POPC   C4A 5082  28.615  24.049   7.775
   13POPC   C1B 5083  28.316  24.089   8.707
   13POPC   C2B 5084  28.356  23.997   8.267
   13POPC   C3B 5085  28.093  23.763   7.995
   13POPC   C4B 5086  28.007  23.807   7.558
   14POPC   NC3 5087  14.826  18.833   9.348
   14POPC   PO4 5088  14.854  18.125   9.532
   14POPC   GL1 5089  15.037  18.197   9.118
   14POPC   GL2 5090  15.367  18.021   9.070
   14POPC   C1A 5091  15.192  18.340   8.716
   14POPC   D2A 5092  14.970  18.387   8.341
   14POPC   C3A 5093  15.135  18.417   7.937
   14POPC   C4A 5094  15.183  18.141   7.613
   14POPC   C1B 5095  15.486  17.905   8.705
   14POPC   C2B 5096  15.315  18.005   8.330
   14POPC   C3B 5097  15.523  18.072   7.981
   14POPC   C4B 5098  15.444  17.711   7.760
   15POPC   NC3 5099  13.257  17.506   9.411
   15POPC   PO4 5100  13.669  17.129   9.711
   15POPC   GL1 5101  13.853  17.158   9.064
   15POPC   GL2 5102  13.680  17.522   9.044
   15POPC   C1A 5103  13.629  17.274   8.622
   15POPC   D2A 5104  13.706  17.584   8.315
   15POPC   C3A 5105  13.601  17.431   7.944
   15POPC   C4A 5106  13.232  17.440   7.771
   15POPC   C1B 5107  13.489  17.773   8.755
   15POPC   C2B 5108  13.285  17.878   8.405
   15POPC   C3B 5109  13.444  17.945   8.042
   15POPC   C4B 5110  13.351  17.940   7.656
   16POPC   NC3 5111   1.755  20.868   9.475
   16POPC   PO4 5112   2.197  21.424   9.380
   16POPC   GL1 5113   1.975  21.449   9.080
   16POPC   GL2 5114   1.823  21.171   9.082
   16POPC   C1A 5115   2.031  21.541   8.667
   16POPC   D2A 5116   2.313  21.496   8.331
   16POPC   C3A 5117   2.096  21.354   7.988
   16POPC   C4A 5118   2.231  21.508   7.616
   16POPC   C1B 5119   1.823  21.071   8.699
   16POPC   C2B 5120   1.688  20.935   8.359
   16POPC   C3B 5121   1.919  20.882   8.047
   16POPC   C4B 5122   1.791  20.987   7.679
   17POPC   NC3 5123   8.442  33.987   9.535
   17POPC   PO4 5124   7.855  33.954   9.257
   17POPC   GL1 5125   8.213  34.012   9.077
   17POPC   GL2 5126   8.318  33.671   9.063
   17POPC   C1A 5127   8.296  34.035   8.670
   17POPC   D2A 5128   8.073  33.943   8.311
   17POPC   C3A 5129   8.338  33.698   8.065
   17POPC   C4A 5130   8.279  33.939   7.716
   17POPC   C1B 5131   7.983  33.616   8.709
   17POPC   C2B 5132   7.950  33.427   8.300
   17POPC   C3B 5133   7.894  33.554   7.860
   17POPC   C4B 5134   8.037  33.503   7.443
   18POPC   NC3 5135  13.090  39.440   9.426
   18POPC   PO4 5136  12.449  39.177   9.595
   18POPC   GL1 5137  12.652  39.277   9.200
   18POPC   GL2 5138  12.868  38.985   9.246
   18POPC   C1A 5139  12.769  39.466   8.791
   18POPC   D2A 5140  12.708  39.510   8.338
   18POPC   C3A 5141  12.666  39.273   7.967
   18POPC   C4A 5142  12.611  39.331   7.533
   18POPC   C1B 5143  13.085  39.079   8.866
   18POPC   C2B 5144  13.128  39.261   8.481
   18POPC   C3B 5145  13.149  39.348   8.054
   18POPC   C4B 5146  13.068  39.085   7.706
   19POPC   NC3 5147   4.353  38.744   9.566
   19POPC   PO4 5148   4.310  38.099   9.668
   19POPC   GL1 5149   4.076  38.261   9.259
   19POPC   GL2 5150   4.075  38.636   9.110
   19POPC   C1A 5151   4.008  38.181   8.803
   19POPC   D2A 5152   4.029  38.330   8.371
   19POPC   C3A 5153   4.355  38.382   8.053
   19POPC   C4A 5154   4.292  38.641   7.684
   19POPC   C1B 5155   4.365  38.562   8.729
   19POPC   C2B 5156   4.691  38.599   8.369
   19POPC   C3B 5157   4.731  38.724   7.908
   19POPC   C4B 5158   4.738  38.615   7.435
   20POPC   NC3 5159  27.491  37.699   9.575
   20POPC   PO4 5160  27.970  37.272   9.348
   20POPC   GL1 5161  27.779  37.654   9.168
   20POPC   GL2 5162  27.468  37.508   9.092
   20POPC   C1A 5163  27.539  37.936   8.861
   20POPC   D2A 5164  27.442  37.657   8.541
   20POPC   C3A 5165  27.731  37.756   8.253
   20POPC   C4A 5166  27.713  37.800   7.846
   20POPC   C1B 5167  27.746  37.324   8.765
   20POPC   C2B 5168  27.676  37.241   8.372
   20POPC   C3B 5169  27.440  37.390   8.040
   20POPC   C4B 5170  27.552  37.331   7.630
   21POPC   NC3 5171   7.251  13.887   9.507
   21POPC   PO4 5172   7.569  13.298   9.451
   21POPC   GL1 5173   7.433  13.329   9.051
   21POPC   GL2 5174   7.278  13.658   9.037
   21POPC   C1A 5175   7.623  13.406   8.658
   21POPC   D2A 5176   7.499  13.421   8.262
   21POPC   C3A 5177   7.262  13.747   8.089
   21POPC   C4A 5178   7.391  13.489   7.736
   21POPC   C1B 5179   7.363  13.830   8.615
   21POPC   C2B 5180   7.754  13.871   8.394
   21POPC   C3B 5181   7.783  13.761   7.976
   21POPC   C4B 5182   7.519  13.999   7.725
   22POPC   NC3 5183  39.298  42.088   9.559
   22POPC   PO4 5184  39.447  42.844   9.509
   22POPC   GL1 5185  39.268  42.454   9.204
   22POPC   GL2 5186  39.409  42.160   9.058
   22POPC   C1A 5187  38.940  42.235   8.885
   22POPC   D2A 5188  38.856  42.357   8.471
   22POPC   C3A 5189  39.051  42.092   8.199
   22POPC   C4A 5190  38.985  41.935   7.816
   22POPC   C1B 5191  39.341  42.467   8.704
   22POPC   C2B 5192  39.442  42.396   8.278
   22POPC   C3B 5193  39.391  42.283   7.843
   22POPC   C4B 5194  39.619  42.358   7.427
   23POPC   NC3 5195  17.381   9.299   9.512
   23POPC   PO4 5196  17.809   8.844   9.610
   23POPC   GL1 5197  17.404   8.821   9.330
   23POPC   GL2 5198  17.638   9.023   9.122
   23POPC   C1A 5199  17.189   8.950   8.913
   23POPC   D2A 5200  17.474   9.009   8.532
   23POPC   C3A 5201  17.309   8.911   8.155
   23POPC   C4A 5202  17.257   8.832   7.766
   23POPC   C1B 5203  18.008   8.812   8.903
   23POPC   C2B 5204  18.020   8.737   8.462
   23POPC   C3B 5205  17.823   8.946   8.107
   23POPC   C4B 5206  17.754   8.953   7.667
   24POPC   NC3 5207   2.080  38.166   9.265
   24POPC   PO4 5208   1.945  38.657   9.706
   24POPC   GL1 5209   1.967  38.677   9.210
   24POPC   GL2 5210   2.327  38.572   9.068
   24POPC   C1A 5211   1.808  38.703   8.764
   24POPC   D2A 5212   1.853  38.329   8.508
   24POPC   C3A 5213   1.971  38.381   8.075
   24POPC   C4A 5214   2.207  38.269   7.697
   24POPC   C1B 5215   2.301  38.848   8.742
   24POPC   C2B 5216   2.119  38.805   8.360
   24POPC   C3B 5217   2.349  38.714   8.021
   24POPC   C4B 5218   2.243  38.765   7.639
   25POPC   NC3 5219  12.859   1.834   9.750
   25POPC   PO4 5220  12.831   2.339   9.288
   25POPC   GL1 5221  13.004   2.083   9.041
   25POPC   GL2 5222  13.076   1.745   9.194
   25POPC   C1A 5223  12.937   2.079   8.617
   25POPC   D2A 5224  13.207   2.138   8.299
   25POPC   C3A 5225  13.009   2.343   7.998
   25POPC   C4A 5226  13.106   2.231   7.614
   25POPC   C1B 5227  12.912   1.590   8.789
   25POPC   C2B 5228  12.811   1.547   8.342
   25POPC   C3B 5229  12.940   1.820   7.998
   25POPC   C4B 5230  12.650   2.052   7.756
   26POPC   NC3 5231  27.219  34.278   9.296
   26POPC   PO4 5232  27.696  34.598   9.701
   26POPC   GL1 5233  27.713  34.571   9.209
   26POPC   GL2 5234  27.857  34.863   9.099
   26POPC   C1A 5235  27.829  34.421   8.761
   26POPC   D2A 5236  27.543  34.252   8.418
   26POPC   C3A 5237  27.535  34.410   7.992
   26POPC   C4A 5238  27.188  34.563   7.727
   26POPC   C1B 5239  27.629  34.885   8.739
   26POPC   C2B 5240  27.603  35.095   8.356
   26POPC   C3B 5241  27.498  34.953   7.947
   26POPC   C4B 5242  27.695  35.169   7.690
   27POPC   NC3 5243   0.085  12.613   9.494
   27POPC   PO4 5244   0.544  13.044   9.393
   27POPC   GL1 5245   0.353  12.820   9.091
   27POPC   GL2 5246   0.105  13.046   9.112
   27POPC   C1A 5247   0.555  12.739   8.697
   27POPC   D2A 5248   0.629  13.009   8.338
   27POPC   C3A 5249   0.409  12.866   7.970
   27POPC   C4A 5250   0.663  12.514   7.880
   27POPC   C1B 5251   0.268  13.175   8.717
   27POPC   C2B 5252   0.134  13.156   8.306
   27POPC   C3B 5253   0.039  13.252   7.867
   27POPC   C4B 5254   0.142  13.101   7.420
   28POPC   NC3 5255  23.332  20.141   9.590
   28POPC   PO4 5256  22.690  19.875   9.584
   28POPC   GL1 5257  22.842  19.863   9.230
   28POPC   GL2 5258  22.638  20.048   9.076
   28POPC   C1A 5259  22.756  19.570   8.871
   28POPC   D2A 5260  22.745  19.550   8.406
   28POPC   C3A 5261  22.740  19.909   8.102
   28POPC   C4A 5262  22.893  19.956   7.654
   28POPC   C1B 5263  23.038  19.993   8.797
   28POPC   C2B 5264  23.183  19.868   8.392
   28POPC   C3B 5265  23.245  20.039   8.004
   28POPC   C4B 5266  23.349  20.255   7.647
   29POPC   NC3 5267   8.034  31.162   9.431
   29POPC   PO4 5268   8.355  31.726   9.526
   29POPC   GL1 5269   8.065  31.610   9.182
   29POPC   GL2 5270   8.351  31.496   9.051
   29POPC   C1A 5271   8.004  31.529   8.700
   29POPC   D2A 5272   8.350  31.604   8.373
   29POPC   C3A 5273   8.151  31.585   8.008
   29POPC   C4A 5274   8.216  31.468   7.652
   29POPC   C1B 5275   8.455  31.232   8.677
   29POPC   C2B 5276   8.246  31.120   8.283
   29POPC   C3B 5277   8.481  31.108   7.884
   29POPC   C4B 5278   8.632  31.001   7.440
   30POPC   NC3 5279  27.000  29.477   9.644
   30POPC   PO4 5280  26.719  30.164   9.706
   30POPC   GL1 5281  26.703  29.983   9.289
   30POPC   GL2 5282  27.018  29.808   9.255
   30POPC   C1A 5283  26.690  30.090   8.840
   30POPC   D2A 5284  26.473  30.040   8.436
   30POPC   C3A 5285  26.676  30.039   8.028
   30POPC   C4A 5286  26.667  29.739   7.707
   30POPC   C1B 5287  27.142  29.817   8.841
   30POPC   C2B 5288  26.988  29.947   8.441
   30POPC   C3B 5289  27.188  29.963   8.080
   30POPC   C4B 5290  27.162  29.821   7.686
   31POPC   NC3 5291   7.568  34.207   9.499
   31POPC   PO4 5292   7.499  34.857   9.495
   31POPC   GL1 5293   7.404  34.544   9.141
   31POPC   GL2 5294   7.068  34.376   9.170
   31POPC   C1A 5295   7.440  34.445   8.685
   31POPC   D2A 5296   7.707  34.327   8.326
   31POPC   C3A 5297   7.557  34.530   7.971
   31POPC   C4A 5298   7.155  34.468   7.817
   31POPC   C1B 5299   7.004  34.673   8.804
   31POPC   C2B 5300   7.113  34.777   8.349
   31POPC   C3B 5301   6.941  34.906   7.914
   31POPC   C4B 5302   7.198  35.075   7.609
   32POPC   NC3 5303  32.256   6.323   9.636
   32POPC   PO4 5304  32.080   6.917   9.860
   32POPC   GL1 5305  32.260   6.768   9.382
   32POPC   GL2 5306  31.987   6.540   9.251
   32POPC   C1A 5307  32.381   6.750   8.918
   32POPC   D2A 5308  32.578   6.777   8.504
   32POPC   C3A 5309  32.388   6.748   8.109
   32POPC   C4A 5310  32.392   6.566   7.693
   32POPC   C1B 5311  32.109   6.324   8.869
   32POPC   C2B 5312  32.080   6.441   8.426
   32POPC   C3B 5313  32.171   6.264   8.025
   32POPC   C4B 5314  31.992   6.243   7.609
   33POPC   NC3 5315  25.720  39.485   9.769
   33POPC   PO4 5316  25.113  39.092   9.793
   33POPC   GL1 5317  25.296  39.219   9.320
   33POPC   GL2 5318  25.633  39.399   9.264
   33POPC   C1A 5319  25.257  39.213   8.815
   33POPC   D2A 5320  25.051  39.061   8.390
   33POPC   C3A 5321  25.178  39.214   7.955
   33POPC   C4A 5322  25.063  39.273   7.490
   33POPC   C1B 5323  25.721  39.463   8.804
   33POPC   C2B 5324  25.548  39.400   8.351
   33POPC   C3B 5325  25.561  39.562   7.900
   33POPC   C4B 5326  25.485  39.589   7.439
   34POPC   NC3 5327  24.213  44.101   9.333
   34POPC   PO4 5328  24.755  43.873   9.576
   34POPC   GL1 5329  24.567  43.740   9.177
   34POPC   GL2 5330  24.711  44.054   9.039
   34POPC   C1A 5331  24.526  43.714   8.717
   34POPC   D2A 5332  24.430  44.044   8.392
   34POPC   C3A 5333  24.470  43.837   7.990
   34POPC   C4A 5334  24.397  43.478   7.712
   34POPC   C1B 5335  24.875  44.200   8.619
   34POPC   C2B 5336  24.833  44.279   8.153
   34POPC   C3B 5337  24.838  44.099   7.747
   34POPC   C4B 5338  24.641  43.826   7.440
   35POPC   NC3 5339  11.634   6.327   9.440
   35POPC   PO4 5340  11.090   6.693   9.485
   35POPC   GL1 5341  11.388   6.698   9.152
   35POPC   GL2 5342  11.242   6.468   9.048
   35POPC   C1A 5343  11.592   6.576   8.718
   35POPC   D2A 5344  11.422   6.506   8.294
   35POPC   C3A 5345  11.738   6.491   7.972
   35POPC   C4A 5346  11.831   6.804   7.650
   35POPC   C1B 5347  11.064   6.496   8.696
   35POPC   C2B 5348  10.908   6.638   8.366
   35POPC   C3B 5349  10.962   6.498   7.988
   35POPC   C4B 5350  11.310   6.425   7.737
   36POPC   NC3 5351  26.370  20.134   9.690
   36POPC   PO4 5352  26.133  20.687   9.609
   36POPC   GL1 5353  26.253  20.682   9.225
   36POPC   GL2 5354  26.339  20.344   9.208
   36POPC   C1A 5355  25.954  20.700   8.905
   36POPC   D2A 5356  25.766  20.532   8.559
   36POPC   C3A 5357  25.932  20.618   8.159
   36POPC   C4A 5358  25.833  20.799   7.776
   36POPC   C1B 5359  26.450  20.214   8.786
   36POPC   C2B 5360  26.345  20.373   8.400
   36POPC   C3B 5361  26.316  20.226   7.994
   36POPC   C4B 5362  26.063  20.358   7.690
   37POPC   NC3 5363  39.059  38.594   9.399
   37POPC   PO4 5364  39.465  38.090   9.448
   37POPC   GL1 5365  39.340  38.318   9.075
   37POPC   GL2 5366  38.999  38.316   8.973
   37POPC   C1A 5367  39.428  38.508   8.664
   37POPC   D2A 5368  39.607  38.790   8.340
   37POPC   C3A 5369  39.588  38.599   7.949
   37POPC   C4A 5370  39.480  38.795   7.562
   37POPC   C1B 5371  38.978  38.201   8.555
   37POPC   C2B 5372  39.143  38.459   8.230
   37POPC   C3B 5373  39.069  38.521   7.832
   37POPC   C4B 5374  38.730  38.447   7.542
   38POPC   NC3 5375  19.292  38.294   9.419
   38POPC   PO4 5376  18.806  38.756   9.461
   38POPC   GL1 5377  18.763  38.391   9.182
   38POPC   GL2 5378  18.927  38.058   9.109
   38POPC   C1A 5379  18.951  38.457   8.783
   38POPC   D2A 5380  19.194  38.687   8.534
   38POPC   C3A 5381  19.088  38.653   8.101
   38POPC   C4A 5382  19.342  38.615   7.752
   38POPC   C1B 5383  19.245  38.041   8.763
   38POPC   C2B 5384  19.264  38.187   8.332
   38POPC   C3B 5385  19.100  38.162   7.913
   38POPC   C4B 5386  19.361  38.145   7.546
   39POPC   NC3 5387  43.267  22.977   9.551
   39POPC   PO4 5388  42.607  23.207   9.483
   39POPC   GL1 5389  42.907  23.141   9.175
   39POPC   GL2 5390  42.857  22.784   9.203
   39POPC   C1A 5391  43.085  23.258   8.765
   39POPC   D2A 5392  43.368  23.198   8.418
   39POPC   C3A 5393  43.240  22.929   8.066
   39POPC   C4A 5394  43.043  23.030   7.669
   39POPC   C1B 5395  43.053  22.716   8.801
   39POPC   C2B 5396  43.087  22.548   8.394
   39POPC   C3B 5397  42.865  22.535   8.018
   39POPC   C4B 5398  43.156  22.541   7.715
   40POPC   NC3 5399  38.325   8.939   9.780
   40POPC   PO4 5400  38.815   8.774   9.344
   40POPC   GL1 5401  38.381   8.853   9.255
   40POPC   GL2 5402  38.508   9.099   9.069
   40POPC   C1A 5403  38.141   8.842   8.861
   40POPC   D2A 5404  38.105   8.747   8.447
   40POPC   C3A 5405  38.360   8.906   8.158
   40POPC   C4A 5406  38.399   8.788   7.768
   40POPC   C1B 5407  38.582   9.014   8.640
   40POPC   C2B 5408  38.761   9.218   8.311
   40POPC   C3B 5409  38.755   9.143   7.914
   40POPC   C4B 5410  38.920   8.804   7.719
   41POPC   NC3 5411   9.156  30.540   9.289
   41POPC   PO4 5412   8.781  30.042   9.524
   41POPC   GL1 5413   9.056  29.989   9.168
   41POPC   GL2 5414   9.209  30.186   8.937
   41POPC   C1A 5415   9.036  29.721   8.805
   41POPC   D2A 5416   8.729  29.834   8.475
   41POPC   C3A 5417   8.940  29.846   8.071
   41POPC   C4A 5418   9.039  29.679   7.666
   41POPC   C1B 5419   8.831  30.285   8.733
   41POPC   C2B 5420   8.845  30.348   8.284
   41POPC   C3B 5421   8.769  30.270   7.835
   41POPC   C4B 5422   9.090  30.166   7.554
   42POPC   NC3 5423  36.773  44.893   9.821
   42POPC   PO4 5424  37.352  44.738   9.693
   42POPC   GL1 5425  37.148  44.644   9.268
   42POPC   GL2 5426  36.933  44.909   9.214
   42POPC   C1A 5427  36.965  44.541   8.844
   42POPC   D2A 5428  36.869  44.730   8.447
   42POPC   C3A 5429  36.888  44.481   8.080
   42POPC   C4A 5430  36.618  44.490   7.767
   42POPC   C1B 5431  37.322  44.940   8.918
   42POPC   C2B 5432  37.384  44.918   8.488
   42POPC   C3B 5433  37.206  44.881   8.069
   42POPC   C4B 5434  37.251  44.772   7.650
   43POPC   NC3 5435  39.631  36.872   9.420
   43POPC   PO4 5436  40.272  36.983   9.596
   43POPC   GL1 5437  40.091  36.803   9.197
   43POPC   GL2 5438  40.319  36.519   9.083
   43POPC   C1A 5439  39.880  37.055   8.843
   43POPC   D2A 5440  39.596  37.177   8.501
   43POPC   C3A 5441  39.722  37.138   8.046
   43POPC   C4A 5442  39.721  36.869   7.654
   43POPC   C1B 5443  40.006  36.577   8.753
   43POPC   C2B 5444  39.962  36.833   8.393
   43POPC   C3B 5445  40.079  36.776   7.993
   43POPC   C4B 5446  40.261  36.582   7.694
   44POPC   NC3 5447  14.881  17.661   9.601
   44POPC   PO4 5448  15.465  17.789   9.523
   44POPC   GL1 5449  15.299  17.526   9.184
   44POPC   GL2 5450  14.978  17.647   9.106
   44POPC   C1A 5451  15.256  17.417   8.735
   44POPC   D2A 5452  15.033  17.519   8.363
   44POPC   C3A 5453  15.144  17.340   7.992
   44POPC   C4A 5454  15.447  17.207   7.701
   44POPC   C1B 5455  14.985  17.871   8.731
   44POPC   C2B 5456  14.723  17.918   8.380
   44POPC   C3B 5457  14.884  17.961   7.990
   44POPC   C4B 5458  14.960  17.682   7.655
   45POPC   NC3 5459   3.860  37.874   9.557
   45POPC   PO4 5460   3.519  37.191   9.649
   45POPC   GL1 5461   3.397  37.546   9.286
   45POPC   GL2 5462   3.145  37.860   9.207
   45POPC   C1A 5463   3.382  37.635   8.812
   45POPC   D2A 5464   3.673  37.833   8.492
   45POPC   C3A 5465   3.667  37.633   8.079
   45POPC   C4A 5466   4.003  37.442   7.829
   45POPC   C1B 5467   3.171  38.136   8.813
   45POPC   C2B 5468   3.245  38.090   8.363
   45POPC   C3B 5469   3.597  38.137   8.069
   45POPC   C4B 5470   3.591  37.949   7.635
   46POPC   NC3 5471  28.326  20.802   9.853
   46POPC   PO4 5472  28.285  21.312   9.445
   46POPC   GL1 5473  28.246  21.497   9.098
   46POPC   GL2 5474  28.171  21.817   9.161
   46POPC   C1A 5475  28.104  21.439   8.717
   46POPC   D2A 5476  28.007  21.557   8.338
   46POPC   C3A 5477  28.332  21.378   8.163
   46POPC   C4A 5478  28.338  21.098   7.850
   46POPC   C1B 5479  28.410  21.866   8.803
   46POPC   C2B 5480  28.354  21.898   8.406
   46POPC   C3B 5481  28.554  21.865   8.048
   46POPC   C4B 5482  28.613  21.561   7.744
   47POPC   NC3 5483  39.540  18.239   9.368
   47POPC   PO4 5484  38.941  18.046   9.566
   47POPC   GL1 5485  39.125  18.107   9.142
   47POPC   GL2 5486  39.161  18.460   9.059
   47POPC   C1A 5487  39.170  17.965   8.744
   47POPC   D2A 5488  39.428  17.937   8.382
   47POPC   C3A 5489  39.321  18.148   8.004
   47POPC   C4A 5490  39.619  18.240   7.713
   47POPC   C1B 5491  39.108  18.452   8.609
   47POPC   C2B 5492  39.313  18.607   8.243
   47POPC   C3B 5493  39.312  18.641   7.782
   47POPC   C4B 5494  39.073  18.564   7.393
   48POPC   NC3 5495  11.867  10.466   9.444
   48POPC   PO4 5496  12.453  10.710   9.632
   48POPC   GL1 5497  12.260  10.693   9.178
   48POPC   GL2 5498  12.041  10.481   8.978
   48POPC   C1A 5499  12.200  10.865   8.724
   48POPC   D2A 5500  12.212  10.563   8.376
   48POPC   C3A 5501  12.002  10.615   7.984
   48POPC   C4A 5502  12.084  10.574   7.529
   48POPC   C1B 5503  11.898  10.208   8.675
   48POPC   C2B 5504  12.019  10.082   8.299
   48POPC   C3B 5505  11.988  10.107   7.894
   48POPC   C4B 5506  11.639  10.267   7.716
   49POPC   NC3 5507  42.947  26.593   9.611
   49POPC   PO4 5508  42.932  27.287   9.546
   49POPC   GL1 5509  42.944  26.965   9.208
   49POPC   GL2 5510  43.260  26.832   9.214
   49POPC   C1A 5511  42.911  26.871   8.757
   49POPC   D2A 5512  43.105  26.937   8.342
   49POPC   C3A 5513  42.929  27.060   7.921
   49POPC   C4A 5514  42.758  26.870   7.524
   49POPC   C1B 5515  43.278  26.510   8.899
   49POPC   C2B 5516  43.281  26.412   8.460
   49POPC   C3B 5517  43.465  26.402   8.037
   49POPC   C4B 5518  43.240  26.688   7.737
   50POPC   NC3 5519  14.245  16.154   9.427
   50POPC   PO4 5520  13.885  15.480   9.393
   50POPC   GL1 5521  14.041  15.824   9.098
   50POPC   GL2 5522  14.420  15.943   9.022
   50POPC   C1A 5523  14.077  16.027   8.686
   50POPC   D2A 5524  14.309  15.989   8.323
   50POPC   C3A 5525  14.156  16.171   7.973
   50POPC   C4A 5526  14.226  15.950   7.681
   50POPC   C1B 5527  14.684  15.879   8.703
   50POPC   C2B 5528  14.831  15.971   8.328
   50POPC   C3B 5529  14.685  15.951   7.949
   50POPC   C4B 5530  14.672  16.171   7.605
   51POPC   NC3 5531  33.307  39.080   9.562
   51POPC   PO4 5532  32.672  39.087   9.396
   51POPC   GL1 5533  32.822  39.475   9.197
   51POPC   GL2 5534  33.169  39.467   9.246
   51POPC   C1A 5535  32.899  39.496   8.777
   51POPC   D2A 5536  32.997  39.091   8.574
   51POPC   C3A 5537  32.968  39.120   8.149
   51POPC   C4A 5538  33.024  39.264   7.737
   51POPC   C1B 5539  33.410  39.558   8.878
   51POPC   C2B 5540  33.302  39.488   8.473
   51POPC   C3B 5541  33.358  39.456   8.077
   51POPC   C4B 5542  33.336  39.720   7.761
   52POPC   NC3 5543  36.684  38.600   9.547
   52POPC   PO4 5544  37.219  38.799   9.190
   52POPC   GL1 5545  36.990  38.615   8.909
   52POPC   GL2 5546  36.765  38.411   9.093
   52POPC   C1A 5547  36.931  38.419   8.536
   52POPC   D2A 5548  37.055  38.078   8.304
   52POPC   C3A 5549  36.988  38.271   7.923
   52POPC   C4A 5550  36.971  38.726   7.785
   52POPC   C1B 5551  36.498  38.432   8.811
   52POPC   C2B 5552  36.382  38.493   8.422
   52POPC   C3B 5553  36.554  38.633   8.051
   52POPC   C4B 5554  36.506  38.346   7.692
   53POPC   NC3 5555  13.478   3.261   9.570
   53POPC   PO4 5556  13.922   3.838   9.533
   53POPC   GL1 5557  13.589   3.710   9.225
   53POPC   GL2 5558  13.628   3.376   9.079
   53POPC   C1A 5559  13.303   3.752   8.861
   53POPC   D2A 5560  13.167   3.641   8.442
   53POPC   C3A 5561  13.387   3.814   8.097
   53POPC   C4A 5562  13.737   3.928   7.848
   53POPC   C1B 5563  13.706   3.534   8.638
   53POPC   C2B 5564  13.846   3.482   8.199
   53POPC   C3B 5565  13.811   3.318   7.762
   53POPC   C4B 5566  13.891   3.110   7.325
   54POPC   NC3 5567  28.443  33.712   9.381
   54POPC   PO4 5568  27.971  34.197   9.424
   54POPC   GL1 5569  28.169  34.019   9.071
   54POPC   GL2 5570  28.551  34.095   9.067
   54POPC   C1A 5571  28.220  33.707   8.739
   54POPC   D2A 5572  27.963  33.585   8.350
   54POPC   C3A 5573  28.127  33.828   7.998
   54POPC   C4A 5574  28.557  33.788   7.855
   54POPC   C1B 5575  28.455  34.172   8.672
   54POPC   C2B 5576  28.437  34.105   8.267
   54POPC   C3B 5577  28.204  34.340   7.944
   54POPC   C4B 5578  27.867  34.144   7.685
   55POPC   NC3 5579  15.346  11.801   9.510
   55POPC   PO4 5580  14.840  12.291   9.549
   55POPC   GL1 5581  14.929  11.997   9.211
   55POPC   GL2 5582  14.911  11.644   9.280
   55POPC   C1A 5583  15.185  12.026   8.821
   55POPC   D2A 5584  15.251  12.350   8.479
   55POPC   C3A 5585  15.323  12.281   8.030
   55POPC   C4A 5586  15.001  12.168   7.781
   55POPC   C1B 5587  14.848  11.633   8.830
   55POPC   C2B 5588  14.971  11.771   8.406
   55POPC   C3B 5589  15.189  11.736   8.007
   55POPC   C4B 5590  15.216  11.773   7.562
   56POPC   NC3 5591   7.957  10.458   9.539
   56POPC   PO4 5592   8.141  11.048   9.423
   56POPC   GL1 5593   8.380  10.808   9.129
   56POPC   GL2 5594   8.223  10.471   9.091
   56POPC   C1A 5595   8.322  10.757   8.686
   56POPC   D2A 5596   8.144  10.449   8.454
   56POPC   C3A 5597   8.368  10.471   8.118
   56POPC   C4A 5598   8.218  10.738   7.831
   56POPC   C1B 5599   8.413  10.178   8.783
   56POPC   C2B 5600   8.425   9.983   8.355
   56POPC   C3B 5601   8.451  10.011   7.919
   56POPC   C4B 5602   8.515  10.327   7.637
   57POPC   NC3 5603  10.030  36.654   9.699
   57POPC   PO4 5604  10.210  36.077   9.564
   57POPC   GL1 5605   9.962  35.840   9.204
   57POPC   GL2 5606   9.583  35.925   9.169
   57POPC   C1A 5607   9.798  35.710   8.763
   57POPC   D2A 5608   9.765  35.581   8.328
   57POPC   C3A 5609   9.782  35.905   8.059
   57POPC   C4A 5610   9.586  35.959   7.650
   57POPC   C1B 5611   9.690  36.207   8.802
   57POPC   C2B 5612   9.742  36.323   8.343
   57POPC   C3B 5613   9.674  36.411   7.867
   57POPC   C4B 5614   9.382  36.390   7.449
   58POPC   NC3 5615   1.204  22.309   9.575
   58POPC   PO4 5616   1.602  21.772   9.653
   58POPC   GL1 5617   1.329  21.900   9.229
   58POPC   GL2 5618   1.292  22.254   9.068
   58POPC   C1A 5619   1.008  21.896   8.853
   58POPC   D2A 5620   1.134  21.761   8.410
   58POPC   C3A 5621   1.044  21.992   8.044
   58POPC   C4A 5622   0.877  22.120   7.683
   58POPC   C1B 5623   1.328  22.200   8.583
   58POPC   C2B 5624   1.416  22.322   8.118
   58POPC   C3B 5625   1.520  22.028   7.824
   58POPC   C4B 5626   1.732  21.727   8.055
   59POPC   NC3 5627  23.848   1.484   9.615
   59POPC   PO4 5628  23.762   0.846   9.534
   59POPC   GL1 5629  23.597   1.131   9.196
   59POPC   GL2 5630  23.419   1.445   9.292
   59POPC   C1A 5631  23.735   1.233   8.765
   59POPC   D2A 5632  23.945   1.240   8.346
   59POPC   C3A 5633  23.735   1.127   7.928
   59POPC   C4A 5634  23.365   1.058   7.642
   59POPC   C1B 5635  23.343   1.553   8.841
   59POPC   C2B 5636  23.414   1.452   8.391
   59POPC   C3B 5637  23.363   1.491   7.935
   59POPC   C4B 5638  23.627   1.477   7.533
   60POPC   NC3 5639  26.647  19.594   9.324
   60POPC   PO4 5640  26.766  20.258   9.499
   60POPC   GL1 5641  26.794  20.052   9.116
   60POPC   GL2 5642  27.019  19.765   9.043
   60POPC   C1A 5643  27.008  20.202   8.751
   60POPC   D2A 5644  27.153  20.072   8.345
   60POPC   C3A 5645  26.819  19.876   8.115
   60POPC   C4A 5646  26.770  19.826   7.682
   60POPC   C1B 5647  26.765  19.764   8.649
   60POPC   C2B 5648  26.662  19.423   8.325
   60POPC   C3B 5649  26.516  19.406   7.879
   60POPC   C4B 5650  26.545  19.463   7.410
   61POPC   NC3 5651   9.664  13.270   9.450
   61POPC   PO4 5652   9.799  13.921   9.561
   61POPC   GL1 5653   9.629  13.753   9.183
   61POPC   GL2 5654   9.910  13.533   9.065
   61POPC   C1A 5655   9.662  13.861   8.748
   61POPC   D2A 5656   9.896  13.589   8.491
   61POPC   C3A 5657   9.711  13.639   8.097
   61POPC   C4A 5658   9.677  13.918   7.743
   61POPC   C1B 5659   9.564  13.351   8.807
   61POPC   C2B 5660   9.646  13.146   8.415
   61POPC   C3B 5661   9.862  13.166   8.023
   61POPC   C4B 5662   9.694  13.386   7.655
   62POPC   NC3 5663  44.448  20.252   9.301
   62POPC   PO4 5664  44.815  19.730   9.427
   62POPC   GL1 5665  44.910  19.839   9.050
   62POPC   GL2 5666  44.914  20.174   9.066
   62POPC   C1A 5667  44.606  19.921   8.727
   62POPC   D2A 5668  44.259  19.891   8.428
   62POPC   C3A 5669  44.427  19.966   8.024
   62POPC   C4A 5670  44.461  19.772   7.607
   62POPC   C1B 5671   0.101  20.115   8.661
   62POPC   C2B 5672  44.854  20.037   8.302
   62POPC   C3B 5673  44.906  19.823   7.921
   62POPC   C4B 5674  44.799  20.166   7.656
   63POPC   NC3 5675  30.138  29.343   9.511
   63POPC   PO4 5676  30.231  28.770   9.090
   63POPC   GL1 5677  29.914  29.017   8.965
   63POPC   GL2 5678  29.858  29.315   9.072
   63POPC   C1A 5679  29.870  29.116   8.584
   63POPC   D2A 5680  30.055  28.968   8.277
   63POPC   C3A 5681  29.792  29.149   8.008
   63POPC   C4A 5682  29.644  29.040   7.621
   63POPC   C1B 5683  29.589  29.493   8.746
   63POPC   C2B 5684  29.425  29.319   8.351
   63POPC   C3B 5685  29.458  29.515   7.910
   63POPC   C4B 5686  29.360  29.463   7.476
   64POPC   NC3 5687  19.257  44.809   9.449
   64POPC   PO4 5688  19.012  44.158   9.334
   64POPC   GL1 5689  19.064  44.492   9.020
   64POPC   GL2 5690  18.927  44.851   9.009
   64POPC   C1A 5691  18.915  44.537   8.581
   64POPC   D2A 5692  18.907  44.800   8.192
   64POPC   C3A 5693  18.912  44.579   7.822
   64POPC   C4A 5694  19.294  44.383   7.765
   64POPC   C1B 5695  19.314  44.851   8.721
   64POPC   C2B 5696  19.479  44.878   8.268
   64POPC   C3B 5697  19.264  44.988   7.872
   64POPC   C4B 5698  19.215  44.884   7.450
   65POPC   NC3 5699  31.860  21.291   9.426
   65POPC   PO4 5700  31.357  21.758   9.367
   65POPC   GL1 5701  31.433  21.373   9.132
   65POPC   GL2 5702  31.762  21.380   8.937
   65POPC   C1A 5703  31.317  21.171   8.750
   65POPC   D2A 5704  31.441  21.049   8.335
   65POPC   C3A 5705  31.715  21.330   8.162
   65POPC   C4A 5706  31.882  21.373   7.770
   65POPC   C1B 5707  31.541  21.700   8.699
   65POPC   C2B 5708  31.672  21.915   8.332
   65POPC   C3B 5709  31.599  21.790   7.906
   65POPC   C4B 5710  31.181  21.651   7.815
   66POPC   NC3 5711  44.673  26.380   9.432
   66POPC   PO4 5712  44.547  25.745   9.648
   66POPC   GL1 5713  44.763  25.864   9.270
   66POPC   GL2 5714  44.478  25.779   9.123
   66POPC   C1A 5715  44.863  25.934   8.807
   66POPC   D2A 5716  44.931  26.189   8.407
   66POPC   C3A 5717  44.978  25.929   8.015
   66POPC   C4A 5718  44.800  25.967   7.556
   66POPC   C1B 5719  44.376  25.673   8.726
   66POPC   C2B 5720  44.569  25.845   8.360
   66POPC   C3B 5721  44.520  26.137   8.004
   66POPC   C4B 5722  44.276  25.983   7.653
   67POPC   NC3 5723   5.922  32.204   9.665
   67POPC   PO4 5724   6.488  31.848   9.574
   67POPC   GL1 5725   6.146  32.056   9.232
   67POPC   GL2 5726   5.795  32.208   9.167
   67POPC   C1A 5727   5.955  31.974   8.761
   67POPC   D2A 5728   6.003  32.200   8.358
   67POPC   C3A 5729   5.832  32.126   7.949
   67POPC   C4A 5730   6.030  32.114   7.516
   67POPC   C1B 5731   5.609  32.340   8.721
   67POPC   C2B 5732   5.599  32.488   8.254
   67POPC   C3B 5733   5.534  32.504   7.786
   67POPC   C4B 5734   5.210  32.543   7.444
   68POPC   NC3 5735  21.369  34.987   9.743
   68POPC   PO4 5736  21.527  34.298   9.475
   68POPC   GL1 5737  21.308  34.350   9.106
   68POPC   GL2 5738  21.607  34.223   8.963
   68POPC   C1A 5739  21.355  34.537   8.683
   68POPC   D2A 5740  21.127  34.459   8.324
   68POPC   C3A 5741  21.249  34.687   7.988
   68POPC   C4A 5742  21.373  34.653   7.573
   68POPC   C1B 5743  21.792  34.267   8.556
   68POPC   C2B 5744  21.608  34.365   8.157
   68POPC   C3B 5745  21.775  34.381   7.746
   68POPC   C4B 5746  21.658  34.242   7.328
   69POPC   NC3 5747  34.949   9.073   9.407
   69POPC   PO4 5748  35.592   8.908   9.553
   69POPC   GL1 5749  35.341   8.722   9.179
   69POPC   GL2 5750  35.079   8.936   8.942
   69POPC   C1A 5751  35.318   8.541   8.761
   69POPC   D2A 5752  35.354   8.859   8.449
   69POPC   C3A 5753  35.285   8.736   8.037
   69POPC   C4A 5754  35.375   9.002   7.689
   69POPC   C1B 5755  35.082   9.249   8.593
   69POPC   C2B 5756  35.018   9.177   8.150
   69POPC   C3B 5757  35.076   9.394   7.740
   69POPC   C4B 5758  35.038   9.367   7.293
   70POPC   NC3 5759  40.342   7.127   9.560
   70POPC   PO4 5760  40.048   6.552   9.691
   70POPC   GL1 5761  40.065   6.409   9.258
   70POPC   GL2 5762  40.319   6.194   9.185
   70POPC   C1A 5763  39.887   6.613   8.906
   70POPC   D2A 5764  40.043   6.823   8.552
   70POPC   C3A 5765  39.858   6.753   8.179
   70POPC   C4A 5766  40.099   6.644   7.830
   70POPC   C1B 5767  40.078   6.167   8.775
   70POPC   C2B 5768  40.118   6.327   8.376
   70POPC   C3B 5769  40.254   6.182   8.000
   70POPC   C4B 5770  40.056   6.133   7.644
   71POPC   NC3 5771  33.046  37.637   9.581
   71POPC   PO4 5772  32.954  38.242   9.372
   71POPC   GL1 5773  32.974  37.935   9.085
   71POPC   GL2 5774  33.230  37.714   9.126
   71POPC   C1A 5775  32.977  38.001   8.664
   71POPC   D2A 5776  32.865  38.020   8.236
   71POPC   C3A 5777  32.760  37.598   8.110
   71POPC   C4A 5778  32.948  37.287   7.876
   71POPC   C1B 5779  33.136  37.466   8.807
   71POPC   C2B 5780  33.182  37.586   8.395
   71POPC   C3B 5781  33.260  37.749   7.999
   71POPC   C4B 5782  33.372  37.503   7.676
   72POPC   NC3 5783  22.527  36.986   9.352
   72POPC   PO4 5784  23.056  37.246   9.605
   72POPC   GL1 5785  23.166  36.909   9.255
   72POPC   GL2 5786  22.905  36.768   9.037
   72POPC   C1A 5787  23.322  36.938   8.806
   72POPC   D2A 5788  23.068  36.877   8.401
   72POPC   C3A 5789  23.190  36.844   7.950
   72POPC   C4A 5790  22.914  36.699   7.610
   72POPC   C1B 5791  22.828  37.153   8.770
   72POPC   C2B 5792  22.692  37.325   8.359
   72POPC   C3B 5793  22.638  37.157   7.936
   72POPC   C4B 5794  22.720  37.174   7.486
   73POPC   NC3 5795  44.697  37.271   9.497
   73POPC   PO4 5796  44.632  36.643   9.486
   73POPC   GL1 5797  44.712  36.679   9.095
   73POPC   GL2 5798  44.776  37.030   9.038
   73POPC   C1A 5799  44.610  36.641   8.680
   73POPC   D2A 5800  44.750  36.949   8.429
   73POPC   C3A 5801  44.964  36.774   8.111
   73POPC   C4A 5802  44.739  36.748   7.743
   73POPC   C1B 5803  44.884  37.374   8.762
   73POPC   C2B 5804   0.094  37.323   8.352
   73POPC   C3B 5805  44.891  37.253   7.946
   73POPC   C4B 5806  44.994  37.231   7.504
   74POPC   NC3 5807  13.688  28.624  10.032
   74POPC   PO4 5808  13.503  28.103   9.673
   74POPC   GL1 5809  13.420  27.919   9.218
   74POPC   GL2 5810  13.600  28.195   9.081
   74POPC   C1A 5811  13.331  27.953   8.738
   74POPC   D2A 5812  13.457  27.847   8.300
   74POPC   C3A 5813  13.489  28.135   7.937
   74POPC   C4A 5814  13.873  28.328   7.736
   74POPC   C1B 5815  13.508  28.425   8.667
   74POPC   C2B 5816  13.626  28.528   8.233
   74POPC   C3B 5817  13.690  28.784   7.870
   74POPC   C4B 5818  13.776  28.792   7.416
   75POPC   NC3 5819  27.736   1.774   9.369
   75POPC   PO4 5820  27.324   2.368   9.576
   75POPC   GL1 5821  27.477   2.184   9.169
   75POPC   GL2 5822  27.855   2.219   9.084
   75POPC   C1A 5823  27.411   2.049   8.721
   75POPC   D2A 5824  27.379   2.170   8.261
   75POPC   C3A 5825  27.475   1.910   7.858
   75POPC   C4A 5826  27.550   1.715   7.406
   75POPC   C1B 5827  27.929   1.914   8.724
   75POPC   C2B 5828  27.858   1.707   8.293
   75POPC   C3B 5829  28.024   1.879   7.894
   75POPC   C4B 5830  27.860   2.262   7.771
   76POPC   NC3 5831  42.626  28.776   9.473
   76POPC   PO4 5832  42.603  29.450   9.411
   76POPC   GL1 5833  42.467  29.318   8.999
   76POPC   GL2 5834  42.453  28.981   9.051
   76POPC   C1A 5835  42.068  29.198   8.750
   76POPC   D2A 5836  42.007  29.027   8.335
   76POPC   C3A 5837  42.240  29.289   8.034
   76POPC   C4A 5838  42.173  29.233   7.594
   76POPC   C1B 5839  42.386  28.776   8.677
   76POPC   C2B 5840  42.512  28.855   8.262
   76POPC   C3B 5841  42.308  28.813   7.883
   76POPC   C4B 5842  42.530  28.851   7.516
   77POPC   NC3 5843  44.144  43.371   9.307
   77POPC   PO4 5844  44.809  43.197   9.571
   77POPC   GL1 5845  44.698  43.101   9.148
   77POPC   GL2 5846  44.694  42.767   9.082
   77POPC   C1A 5847  44.513  43.158   8.725
   77POPC   D2A 5848  44.722  43.231   8.335
   77POPC   C3A 5849  44.472  43.319   7.993
   77POPC   C4A 5850  44.613  43.292   7.560
   77POPC   C1B 5851  44.427  42.659   8.757
   77POPC   C2B 5852  44.566  42.740   8.364
   77POPC   C3B 5853  44.682  42.819   7.947
   77POPC   C4B 5854  44.330  42.904   7.735
   78POPC   NC3 5855   8.436  26.549   9.715
   78POPC   PO4 5856   8.343  25.921   9.391
   78POPC   GL1 5857   8.229  25.957   9.005
   78POPC   GL2 5858   7.892  26.006   9.077
   78POPC   C1A 5859   8.379  26.181   8.630
   78POPC   D2A 5860   8.177  26.349   8.282
   78POPC   C3A 5861   8.350  26.264   7.928
   78POPC   C4A 5862   8.496  25.847   7.805
   78POPC   C1B 5863   7.904  26.020   8.606
   78POPC   C2B 5864   8.182  25.826   8.294
   78POPC   C3B 5865   8.011  25.646   7.954
   78POPC   C4B 5866   7.789  25.776   7.624
   79POPC   NC3 5867   2.098  11.544   9.376
   79POPC   PO4 5868   1.695  11.010   9.392
   79POPC   GL1 5869   1.982  11.119   9.068
   79POPC   GL2 5870   2.317  11.006   8.952
   79POPC   C1A 5871   1.905  11.098   8.648
   79POPC   D2A 5872   2.119  11.244   8.321
   79POPC   C3A 5873   1.825  11.495   8.097
   79POPC   C4A 5874   1.839  11.244   7.772
   79POPC   C1B 5875   2.312  11.457   8.763
   79POPC   C2B 5876   2.204  11.744   8.394
   79POPC   C3B 5877   2.307  11.585   7.987
   79POPC   C4B 5878   2.250  11.554   7.583
   80POPC   NC3 5879  11.015  21.492   9.470
   80POPC   PO4 5880  11.614  21.267   9.703
   80POPC   GL1 5881  11.414  21.232   9.267
   80POPC   GL2 5882  11.041  21.079   9.173
   80POPC   C1A 5883  11.358  21.405   8.844
   80POPC   D2A 5884  11.507  21.231   8.472
   80POPC   C3A 5885  11.328  21.304   8.102
   80POPC   C4A 5886  11.517  21.374   7.720
   80POPC   C1B 5887  10.867  21.302   8.807
   80POPC   C2B 5888  11.031  21.573   8.479
   80POPC   C3B 5889  10.931  21.688   8.081
   80POPC   C4B 5890  11.115  21.698   7.705
   81POPC   NC3 5891   1.941  27.514   9.601
   81POPC   PO4 5892   2.209  27.958   9.778
   81POPC   GL1 5893   2.166  27.900   9.318
   81POPC   GL2 5894   1.819  27.892   9.242
   81POPC   C1A 5895   2.149  27.604   8.949
   81POPC   D2A 5896   2.274  27.667   8.517
   81POPC   C3A 5897   2.117  27.503   8.108
   81POPC   C4A 5898   2.367  27.477   7.738
   81POPC   C1B 5899   1.884  27.993   8.778
   81POPC   C2B 5900   1.792  27.816   8.358
   81POPC   C3B 5901   1.803  27.861   7.900
   81POPC   C4B 5902   1.570  27.849   7.495
   82POPC   NC3 5903  42.637  37.364   9.398
   82POPC   PO4 5904  42.436  37.927   9.208
   82POPC   GL1 5905  42.424  37.593   8.948
   82POPC   GL2 5906  42.060  37.599   8.949
   82POPC   C1A 5907  42.565  37.793   8.581
   82POPC   D2A 5908  42.521  38.152   8.398
   82POPC   C3A 5909  42.290  37.967   8.118
   82POPC   C4A 5910  42.398  38.032   7.700
   82POPC   C1B 5911  42.127  37.561   8.493
   82POPC   C2B 5912  42.498  37.374   8.305
   82POPC   C3B 5913  42.444  37.448   7.907
   82POPC   C4B 5914  42.062  37.639   7.773
   83POPC   NC3 5915  40.556  36.638   9.526
   83POPC   PO4 5916  41.011  37.194   9.457
   83POPC   GL1 5917  40.815  36.905   9.155
   83POPC   GL2 5918  40.527  37.025   9.148
   83POPC   C1A 5919  40.893  36.912   8.715
   83POPC   D2A 5920  41.133  37.261   8.570
   83POPC   C3A 5921  41.148  37.322   8.119
   83POPC   C4A 5922  41.024  37.080   7.738
   83POPC   C1B 5923  40.379  36.926   8.731
   83POPC   C2B 5924  40.483  36.813   8.315
   83POPC   C3B 5925  40.558  36.951   7.884
   83POPC   C4B 5926  40.643  36.818   7.447
   84POPC   NC3 5927  40.844  31.761   9.783
   84POPC   PO4 5928  41.050  31.231   9.441
   84POPC   GL1 5929  41.017  31.440   9.056
   84POPC   GL2 5930  41.295  31.662   9.070
   84POPC   C1A 5931  40.684  31.559   8.710
   84POPC   D2A 5932  40.460  31.735   8.340
   84POPC   C3A 5933  40.567  31.516   7.966
   84POPC   C4A 5934  40.641  31.383   7.544
   84POPC   C1B 5935  41.130  31.795   8.708
   84POPC   C2B 5936  40.956  31.859   8.317
   84POPC   C3B 5937  40.992  31.804   7.911
   84POPC   C4B 5938  41.116  31.532   7.603
   85POPC   NC3 5939  25.181   2.930   9.786
   85POPC   PO4 5940  25.595   2.532   9.364
   85POPC   GL1 5941  25.316   2.711   9.061
   85POPC   GL2 5942  25.030   2.892   9.114
   85POPC   C1A 5943  25.125   2.709   8.634
   85POPC   D2A 5944  25.093   2.822   8.217
   85POPC   C3A 5945  25.347   2.603   7.932
   85POPC   C4A 5946  25.596   2.616   7.565
   85POPC   C1B 5947  25.340   3.136   8.805
   85POPC   C2B 5948  25.507   3.078   8.367
   85POPC   C3B 5949  25.387   3.129   7.918
   85POPC   C4B 5950  25.680   3.186   7.616
   86POPC   NC3 5951   3.997  35.458   9.353
   86POPC   PO4 5952   3.453  35.092   9.456
   86POPC   GL1 5953   3.544  35.371   9.103
   86POPC   GL2 5954   3.555  35.723   9.254
   86POPC   C1A 5955   3.663  35.347   8.617
   86POPC   D2A 5956   3.838  35.451   8.166
   86POPC   C3A 5957   3.668  35.377   7.731
   86POPC   C4A 5958   3.812  35.551   7.311
   86POPC   C1B 5959   3.487  35.786   8.814
   86POPC   C2B 5960   3.431  35.790   8.380
   86POPC   C3B 5961   3.475  35.860   7.948
   86POPC   C4B 5962   3.375  35.763   7.504
   87POPC   NC3 5963  23.556  18.453   9.433
   87POPC   PO4 5964  23.981  17.899   9.469
   87POPC   GL1 5965  23.779  18.121   9.101
   87POPC   GL2 5966  23.853  18.500   9.013
   87POPC   C1A 5967  23.693  18.185   8.658
   87POPC   D2A 5968  23.832  18.605   8.487
   87POPC   C3A 5969  23.835  18.590   8.050
   87POPC   C4A 5970  23.908  18.161   7.962
   87POPC   C1B 5971  23.430  18.578   8.805
   87POPC   C2B 5972  23.300  18.638   8.359
   87POPC   C3B 5973  23.366  18.391   7.963
   87POPC   C4B 5974  23.396  18.544   7.520
   88POPC   NC3 5975  10.500  18.703   9.387
   88POPC   PO4 5976  10.117  19.253   9.332
   88POPC   GL1 5977  10.437  19.096   9.044
   88POPC   GL2 5978  10.743  19.283   9.005
   88POPC   C1A 5979  10.435  18.913   8.622
   88POPC   D2A 5980  10.576  18.788   8.201
   88POPC   C3A 5981  10.411  19.009   7.817
   88POPC   C4A 5982  10.626  18.938   7.390
   88POPC   C1B 5983  10.935  19.078   8.687
   88POPC   C2B 5984  10.777  19.241   8.342
   88POPC   C3B 5985  10.872  19.179   7.948
   88POPC   C4B 5986  10.909  19.323   7.556
   89POPC   NC3 5987  14.681  14.312   9.522
   89POPC   PO4 5988  15.326  14.638   9.707
   89POPC   GL1 5989  15.326  14.635   9.251
   89POPC   GL2 5990  15.005  14.693   9.158
   89POPC   C1A 5991  15.240  14.409   8.821
   89POPC   D2A 5992  15.160  14.564   8.399
   89POPC   C3A 5993  15.403  14.455   8.036
   89POPC   C4A 5994  15.389  14.617   7.653
   89POPC   C1B 5995  14.962  14.894   8.742
   89POPC   C2B 5996  14.827  14.953   8.289
   89POPC   C3B 5997  14.926  14.628   7.939
   89POPC   C4B 5998  14.733  14.214   7.797
   90POPC   NC3 5999  30.441  19.696   9.413
   90POPC   PO4 6000  30.814  20.254   9.492
   90POPC   GL1 6001  30.734  19.978   9.136
   90POPC   GL2 6002  30.883  19.624   9.193
   90POPC   C1A 6003  30.567  19.857   8.765
   90POPC   D2A 6004  30.737  19.942   8.394
   90POPC   C3A 6005  30.650  19.629   8.102
   90POPC   C4A 6006  30.414  19.621   7.711
   90POPC   C1B 6007  31.041  19.658   8.792
   90POPC   C2B 6008  31.118  19.585   8.356
   90POPC   C3B 6009  31.192  19.723   7.920
   90POPC   C4B 6010  31.328  19.522   7.547
   91POPC   NC3 6011   9.097  27.094   9.414
   91POPC   PO4 6012   8.536  26.812   9.340
   91POPC   GL1 6013   8.880  26.668   9.104
   91POPC   GL2 6014   9.188  26.545   9.228
   91POPC   C1A 6015   8.923  26.619   8.677
   91POPC   D2A 6016   8.720  26.488   8.288
   91POPC   C3A 6017   8.856  26.722   7.922
   91POPC   C4A 6018   9.071  26.980   7.632
   91POPC   C1B 6019   9.301  26.284   8.850
   91POPC   C2B 6020   9.257  26.358   8.390
   91POPC   C3B 6021   9.327  26.640   8.068
   91POPC   C4B 6022   9.242  26.492   7.674
   92POPC   NC3 6023  33.988  10.304   9.482
   92POPC   PO4 6024  33.901  10.944   9.411
   92POPC   GL1 6025  34.064  10.604   9.048
   92POPC   GL2 6026  34.180  10.240   9.028
   92POPC   C1A 6027  34.107  10.472   8.565
   92POPC   D2A 6028  34.152  10.580   8.101
   92POPC   C3A 6029  33.895  10.584   7.691
   92POPC   C4A 6030  33.906  10.849   7.298
   92POPC   C1B 6031  33.814  10.093   8.763
   92POPC   C2B 6032  33.682  10.234   8.332
   92POPC   C3B 6033  33.613  10.196   7.888
   92POPC   C4B 6034  33.427  10.433   7.541
   93POPC   NC3 6035  24.663  38.349   9.624
   93POPC   PO4 6036  24.120  38.562   9.453
   93POPC   GL1 6037  24.363  38.296   9.176
   93POPC   GL2 6038  24.724  38.185   9.159
   93POPC   C1A 6039  24.450  38.440   8.774
   93POPC   D2A 6040  24.197  38.450   8.411
   93POPC   C3A 6041  24.426  38.481   8.081
   93POPC   C4A 6042  24.320  38.508   7.670
   93POPC   C1B 6043  24.940  38.267   8.796
   93POPC   C2B 6044  24.913  38.541   8.478
   93POPC   C3B 6045  24.927  38.561   8.069
   93POPC   C4B 6046  24.772  38.274   7.763
   94POPC   NC3 6047  12.925  23.744   9.544
   94POPC   PO4 6048  12.822  23.071   9.440
   94POPC   GL1 6049  12.626  23.264   9.112
   94POPC   GL2 6050  12.652  23.598   9.163
   94POPC   C1A 6051  12.845  23.383   8.751
   94POPC   D2A 6052  13.093  23.685   8.582
   94POPC   C3A 6053  13.023  23.585   8.174
   94POPC   C4A 6054  13.188  23.764   7.823
   94POPC   C1B 6055  12.689  23.858   8.834
   94POPC   C2B 6056  12.606  23.779   8.437
   94POPC   C3B 6057  12.608  23.939   8.069
   94POPC   C4B 6058  12.742  24.064   7.712
   95POPC   NC3 6059   3.161  20.051   9.230
   95POPC   PO4 6060   2.501  19.985   9.485
   95POPC   GL1 6061   2.533  19.966   9.067
   95POPC   GL2 6062   2.786  19.774   9.004
   95POPC   C1A 6063   2.440  19.854   8.650
   95POPC   D2A 6064   2.446  19.632   8.267
   95POPC   C3A 6065   2.359  19.730   7.855
   95POPC   C4A 6066   2.559  19.750   7.469
   95POPC   C1B 6067   2.900  19.582   8.642
   95POPC   C2B 6068   2.914  19.846   8.331
   95POPC   C3B 6069   2.813  19.924   7.960
   95POPC   C4B 6070   2.888  20.136   7.589
   96POPC   NC3 6071   0.137  41.264   9.503
   96POPC   PO4 6072   0.592  41.783   9.531
   96POPC   GL1 6073   0.438  41.544   9.201
   96POPC   GL2 6074   0.226  41.791   9.055
   96POPC   C1A 6075   0.337  41.275   8.856
   96POPC   D2A 6076   0.436  41.489   8.507
   96POPC   C3A 6077   0.441  41.377   8.077
   96POPC   C4A 6078   0.260  41.336   7.676
   96POPC   C1B 6079   0.286  41.974   8.636
   96POPC   C2B 6080   0.281  41.861   8.179
   96POPC   C3B 6081   0.534  41.788   7.807
   96POPC   C4B 6082   0.656  41.604   7.404
   97POPC   NC3 6083  35.543   9.740   9.345
   97POPC   PO4 6084  35.327  10.319   9.554
   97POPC   GL1 6085  35.253  10.476   9.127
   97POPC   GL2 6086  35.093  10.837   9.112
   97POPC   C1A 6087  35.375  10.250   8.734
   97POPC   D2A 6088  35.450  10.021   8.323
   97POPC   C3A 6089  35.464  10.321   7.985
   97POPC   C4A 6090  35.466  10.771   7.921
   97POPC   C1B 6091  34.959  10.637   8.734
   97POPC   C2B 6092  35.120  10.486   8.350
   97POPC   C3B 6093  34.987  10.616   7.957
   97POPC   C4B 6094  35.151  10.498   7.594
   98POPC   NC3 6095  16.947  35.100   9.612
   98POPC   PO4 6096  16.935  35.827   9.664
   98POPC   GL1 6097  17.023  35.706   9.212
   98POPC   GL2 6098  17.105  35.341   9.197
   98POPC   C1A 6099  16.724  35.528   8.875
   98POPC   D2A 6100  16.646  35.204   8.554
   98POPC   C3A 6101  16.535  35.414   8.168
   98POPC   C4A 6102  16.545  35.374   7.695
   98POPC   C1B 6103  17.158  35.297   8.780
   98POPC   C2B 6104  16.988  35.550   8.427
   98POPC   C3B 6105  17.041  35.527   8.003
   98POPC   C4B 6106  17.079  35.315   7.618
   99POPC   NC3 6107  32.781  40.821   9.787
   99POPC   PO4 6108  33.365  40.468   9.557
   99POPC   GL1 6109  33.126  40.543   9.213
   99POPC   GL2 6110  32.994  40.891   9.257
   99POPC   C1A 6111  33.217  40.742   8.828
   99POPC   D2A 6112  32.955  40.747   8.497
   99POPC   C3A 6113  33.237  40.898   8.213
   99POPC   C4A 6114  33.170  40.892   7.807
   99POPC   C1B 6115  32.776  41.059   8.880
   99POPC   C2B 6116  32.578  41.102   8.474
   99POPC   C3B 6117  32.784  41.062   8.112
   99POPC   C4B 6118  32.696  41.113   7.707
  100POPC   NC3 6119  40.999  28.062   9.432
  100POPC   PO4 6120  40.542  28.469   9.254
  100POPC   GL1 6121  40.848  28.335   9.022
  100POPC   GL2 6122  41.163  28.423   9.120
  100POPC   C1A 6123  40.794  28.164   8.659
  100POPC   D2A 6124  40.983  28.055   8.302
  100POPC   C3A 6125  40.894  28.271   7.952
  100POPC   C4A 6126  40.696  28.626   7.824
  100POPC   C1B 6127  41.285  28.398   8.718
  100POPC   C2B 6128  41.027  28.550   8.425
  100POPC   C3B 6129  41.061  28.813   8.137
  100POPC   C4B 6130  41.187  28.777   7.731
  101POPC   NC3 6131  11.758  34.633   9.459
  101POPC   PO4 6132  12.336  34.283   9.574
  101POPC   GL1 6133  12.174  34.473   9.150
  101POPC   GL2 6134  11.948  34.775   9.001
  101POPC   C1A 6135  11.928  34.331   8.804
  101POPC   D2A 6136  11.768  34.539   8.442
  101POPC   C3A 6137  11.965  34.638   8.099
  101POPC   C4A 6138  11.932  34.519   7.687
  101POPC   C1B 6139  12.204  34.731   8.623
  101POPC   C2B 6140  12.463  34.698   8.264
  101POPC   C3B 6141  12.401  34.611   7.830
  101POPC   C4B 6142  12.288  34.797   7.399
  102POPC   NC3 6143  26.696  10.137   9.524
  102POPC   PO4 6144  27.053   9.560   9.346
  102POPC   GL1 6145  26.686   9.686   9.167
  102POPC   GL2 6146  26.734   9.998   9.052
  102POPC   C1A 6147  26.592   9.587   8.733
  102POPC   D2A 6148  26.908   9.592   8.389
  102POPC   C3A 6149  26.804   9.424   8.010
  102POPC   C4A 6150  26.882   9.590   7.664
  102POPC   C1B 6151  26.680  10.104   8.662
  102POPC   C2B 6152  26.593  10.214   8.278
  102POPC   C3B 6153  26.742  10.006   7.930
  102POPC   C4B 6154  26.984  10.047   7.512
  103POPC   NC3 6155   6.554  32.348   9.493
  103POPC   PO4 6156   7.192  32.116   9.389
  103POPC   GL1 6157   6.843  32.039   9.097
  103POPC   GL2 6158   6.581  32.324   8.996
  103POPC   C1A 6159   6.824  32.033   8.602
  103POPC   D2A 6160   6.490  32.339   8.477
  103POPC   C3A 6161   6.410  32.395   8.049
  103POPC   C4A 6162   6.596  32.132   7.762
  103POPC   C1B 6163   6.431  31.910   8.863
  103POPC   C2B 6164   6.356  31.846   8.455
  103POPC   C3B 6165   6.248  31.853   8.025
  103POPC   C4B 6166   6.408  31.684   7.641
  104POPC   NC3 6167  31.284   6.098   9.571
  104POPC   PO4 6168  31.544   5.449   9.645
  104POPC   GL1 6169  31.480   5.743   9.231
  104POPC   GL2 6170  31.693   6.066   9.247
  104POPC   C1A 6171  31.252   5.754   8.783
  104POPC   D2A 6172  30.996   5.847   8.386
  104POPC   C3A 6173  31.265   5.904   8.050
  104POPC   C4A 6174  31.392   5.732   7.656
  104POPC   C1B 6175  31.622   6.224   8.855
  104POPC   C2B 6176  31.493   6.103   8.485
  104POPC   C3B 6177  31.680   6.193   8.090
  104POPC   C4B 6178  31.472   6.240   7.692
  105POPC   NC3 6179  38.550   8.371   9.383
  105POPC   PO4 6180  38.080   7.909   9.388
  105POPC   GL1 6181  38.293   8.032   9.075
  105POPC   GL2 6182  38.578   7.914   9.112
  105POPC   C1A 6183  38.299   8.354   8.776
  105POPC   D2A 6184  38.488   8.356   8.418
  105POPC   C3A 6185  38.341   8.361   8.051
  105POPC   C4A 6186  38.470   8.275   7.658
  105POPC   C1B 6187  38.730   8.063   8.759
  105POPC   C2B 6188  38.860   7.972   8.357
  105POPC   C3B 6189  38.854   7.833   7.958
  105POPC   C4B 6190  38.709   7.858   7.537
  106POPC   NC3 6191  19.136   2.293   9.470
  106POPC   PO4 6192  18.718   1.718   9.490
  106POPC   GL1 6193  18.752   2.077   9.226
  106POPC   GL2 6194  19.079   2.014   9.047
  106POPC   C1A 6195  18.704   2.239   8.814
  106POPC   D2A 6196  18.965   2.046   8.481
  106POPC   C3A 6197  19.037   2.130   8.038
  106POPC   C4A 6198  18.851   2.050   7.660
  106POPC   C1B 6199  19.308   1.730   8.777
  106POPC   C2B 6200  19.384   1.769   8.348
  106POPC   C3B 6201  19.401   1.618   7.956
  106POPC   C4B 6202  19.329   1.913   7.674
  107POPC   NC3 6203  13.974   6.829   9.604
  107POPC   PO4 6204  14.479   6.450   9.534
  107POPC   GL1 6205  14.500   6.716   9.212
  107POPC   GL2 6206  14.462   6.420   9.021
  107POPC   C1A 6207  14.588   6.847   8.777
  107POPC   D2A 6208  14.400   6.736   8.387
  107POPC   C3A 6209  14.552   6.900   7.997
  107POPC   C4A 6210  14.585   6.704   7.603
  107POPC   C1B 6211  14.664   6.226   8.711
  107POPC   C2B 6212  14.871   6.381   8.394
  107POPC   C3B 6213  14.658   6.399   8.032
  107POPC   C4B 6214  14.490   6.201   7.680
  108POPC   NC3 6215  12.573   9.323   9.472
  108POPC   PO4 6216  12.665   8.734   9.365
  108POPC   GL1 6217  12.970   9.018   9.242
  108POPC   GL2 6218  13.036   9.390   9.238
  108POPC   C1A 6219  13.022   8.983   8.827
  108POPC   D2A 6220  12.779   9.088   8.468
  108POPC   C3A 6221  12.701   8.829   8.093
  108POPC   C4A 6222  12.805   8.898   7.664
  108POPC   C1B 6223  13.002   9.496   8.793
  108POPC   C2B 6224  13.120   9.452   8.323
  108POPC   C3B 6225  13.126   9.180   7.956
  108POPC   C4B 6226  13.260   9.199   7.512
  109POPC   NC3 6227  42.510  27.149   9.388
  109POPC   PO4 6228  42.461  26.522   9.496
  109POPC   GL1 6229  42.301  26.554   9.079
  109POPC   GL2 6230  42.154  26.847   9.182
  109POPC   C1A 6231  42.403  26.723   8.664
  109POPC   D2A 6232  42.559  27.001   8.320
  109POPC   C3A 6233  42.532  26.735   7.958
  109POPC   C4A 6234  42.235  26.488   7.783
  109POPC   C1B 6235  41.940  26.872   8.825
  109POPC   C2B 6236  41.926  26.829   8.400
  109POPC   C3B 6237  42.086  27.029   8.036
  109POPC   C4B 6238  41.983  27.281   7.669
  110POPC   NC3 6239   0.785   2.472   9.810
  110POPC   PO4 6240   1.265   2.916   9.647
  110POPC   GL1 6241   1.245   2.913   9.177
  110POPC   GL2 6242   1.477   2.684   9.044
  110POPC   C1A 6243   1.028   2.803   8.763
  110POPC   D2A 6244   1.041   2.959   8.327
  110POPC   C3A 6245   0.847   2.804   7.938
  110POPC   C4A 6246   1.012   2.622   7.562
  110POPC   C1B 6247   1.510   2.909   8.659
  110POPC   C2B 6248   1.443   2.608   8.365
  110POPC   C3B 6249   1.352   2.677   7.974
  110POPC   C4B 6250   1.267   3.052   7.727
  111POPC   NC3 6251  26.033  10.457   9.688
  111POPC   PO4 6252  25.460  10.676   9.579
  111POPC   GL1 6253  25.772  10.585   9.177
  111POPC   GL2 6254  26.115  10.401   9.202
  111POPC   C1A 6255  25.784  10.653   8.688
  111POPC   D2A 6256  26.003  10.868   8.313
  111POPC   C3A 6257  25.976  10.699   7.913
  111POPC   C4A 6258  25.671  10.932   7.719
  111POPC   C1B 6259  26.239  10.362   8.789
  111POPC   C2B 6260  26.091  10.361   8.342
  111POPC   C3B 6261  26.222  10.213   7.922
  111POPC   C4B 6262  26.140  10.396   7.510
  112POPC   NC3 6263  19.691  27.971   9.429
  112POPC   PO4 6264  19.998  28.591   9.315
  112POPC   GL1 6265  19.597  28.515   9.134
  112POPC   GL2 6266  19.755  28.223   9.006
  112POPC   C1A 6267  19.637  28.636   8.725
  112POPC   D2A 6268  20.048  28.508   8.534
  112POPC   C3A 6269  20.036  28.647   8.123
  112POPC   C4A 6270  19.763  28.475   7.791
  112POPC   C1B 6271  20.066  28.048   8.776
  112POPC   C2B 6272  20.120  27.967   8.365
  112POPC   C3B 6273  19.908  28.029   7.992
  112POPC   C4B 6274  20.093  28.125   7.576
  113POPC   NC3 6275  35.333  42.077   9.565
  113POPC   PO4 6276  35.469  42.690   9.469
  113POPC   GL1 6277  35.248  42.512   9.198
  113POPC   GL2 6278  35.483  42.255   9.117
  113POPC   C1A 6279  35.146  42.432   8.782
  113POPC   D2A 6280  35.261  42.569   8.396
  113POPC   C3A 6281  35.144  42.237   8.134
  113POPC   C4A 6282  35.077  42.321   7.740
  113POPC   C1B 6283  35.664  42.370   8.737
  113POPC   C2B 6284  35.630  42.216   8.322
  113POPC   C3B 6285  35.604  42.212   7.882
  113POPC   C4B 6286  35.777  42.065   7.526
  114POPC   NC3 6287  39.721   4.664   9.356
  114POPC   PO4 6288  40.234   5.119   9.585
  114POPC   GL1 6289  40.025   5.051   9.216
  114POPC   GL2 6290  40.187   4.755   9.132
  114POPC   C1A 6291  39.801   5.259   8.879
  114POPC   D2A 6292  39.687   5.405   8.474
  114POPC   C3A 6293  39.872   5.336   8.082
  114POPC   C4A 6294  39.701   5.230   7.657
  114POPC   C1B 6295  39.914   4.777   8.739
  114POPC   C2B 6296  39.767   4.889   8.331
  114POPC   C3B 6297  39.806   4.793   7.896
  114POPC   C4B 6298  40.014   4.818   7.478
  115POPC   NC3 6299  20.756  35.128   9.661
  115POPC   PO4 6300  20.445  35.696   9.406
  115POPC   GL1 6301  20.528  35.469   9.063
  115POPC   GL2 6302  20.680  35.168   9.162
  115POPC   C1A 6303  20.726  35.375   8.685
  115POPC   D2A 6304  20.462  35.399   8.327
  115POPC   C3A 6305  20.652  35.483   7.950
  115POPC   C4A 6306  20.416  35.491   7.604
  115POPC   C1B 6307  20.491  34.924   8.833
  115POPC   C2B 6308  20.326  34.900   8.398
  115POPC   C3B 6309  20.433  35.014   7.944
  115POPC   C4B 6310  20.479  34.745   7.582
  116POPC   NC3 6311  20.136   9.581   9.518
  116POPC   PO4 6312  19.450   9.726   9.542
  116POPC   GL1 6313  19.728   9.667   9.231
  116POPC   GL2 6314  19.879   9.940   9.242
  116POPC   C1A 6315  19.854   9.610   8.827
  116POPC   D2A 6316  19.773   9.742   8.429
  116POPC   C3A 6317  19.800   9.530   8.057
  116POPC   C4A 6318  19.975   9.672   7.680
  116POPC   C1B 6319  19.719  10.102   8.858
  116POPC   C2B 6320  19.667  10.224   8.434
  116POPC   C3B 6321  19.602  10.014   8.013
  116POPC   C4B 6322  19.834  10.151   7.661
  117POPC   NC3 6323  44.933   2.664   9.560
  117POPC   PO4 6324  44.357   2.938   9.700
  117POPC   GL1 6325  44.557   2.818   9.229
  117POPC   GL2 6326  44.873   2.876   9.056
  117POPC   C1A 6327  44.459   2.707   8.790
  117POPC   D2A 6328  44.622   2.836   8.374
  117POPC   C3A 6329  44.463   2.656   7.972
  117POPC   C4A 6330  44.574   2.774   7.547
  117POPC   C1B 6331   0.011   3.114   8.666
  117POPC   C2B 6332   0.000   3.194   8.229
  117POPC   C3B 6333  44.920   2.967   7.876
  117POPC   C4B 6334   0.067   3.131   7.492
  118POPC   NC3 6335  38.040  11.355   9.521
  118POPC   PO4 6336  37.622  10.827   9.389
  118POPC   GL1 6337  37.768  11.130   9.142
  118POPC   GL2 6338  38.123  10.990   9.144
  118POPC   C1A 6339  37.707  11.222   8.722
  118POPC   D2A 6340  37.860  11.346   8.335
  118POPC   C3A 6341  37.626  11.256   7.998
  118POPC   C4A 6342  37.521  11.510   7.689
  118POPC   C1B 6343  37.941  10.791   8.781
  118POPC   C2B 6344  37.726  10.849   8.371
  118POPC   C3B 6345  37.941  10.855   7.955
  118POPC   C4B 6346  38.008  11.145   7.604
  119POPC   NC3 6347  17.702  23.201   9.453
  119POPC   PO4 6348  17.615  22.510   9.254
  119POPC   GL1 6349  17.704  22.870   9.055
  119POPC   GL2 6350  17.413  23.004   9.082
  119POPC   C1A 6351  17.656  23.005   8.628
  119POPC   D2A 6352  17.492  22.744   8.285
  119POPC   C3A 6353  17.626  22.912   7.921
  119POPC   C4A 6354  17.948  23.075   7.674
  119POPC   C1B 6355  17.218  23.239   8.761
  119POPC   C2B 6356  17.259  23.219   8.324
  119POPC   C3B 6357  17.176  23.124   7.924
  119POPC   C4B 6358  17.466  23.334   7.696
  120POPC   NC3 6359  40.191   2.307   9.405
  120POPC   PO4 6360  40.345   1.754   9.671
  120POPC   GL1 6361  40.185   1.825   9.170
  120POPC   GL2 6362  39.886   2.068   9.080
  120POPC   C1A 6363  40.235   2.010   8.710
  120POPC   D2A 6364  40.120   1.791   8.339
  120POPC   C3A 6365  40.026   1.860   7.931
  120POPC   C4A 6366  40.077   2.189   7.655
  120POPC   C1B 6367  39.717   2.044   8.650
  120POPC   C2B 6368  39.865   2.247   8.250
  120POPC   C3B 6369  39.617   2.196   7.864
  120POPC   C4B 6370  39.594   1.928   7.497
  121POPC   NC3 6371  32.170  33.200   9.621
  121POPC   PO4 6372  32.444  32.544   9.570
  121POPC   GL1 6373  32.352  32.907   9.239
  121POPC   GL2 6374  32.001  32.873   9.228
  121POPC   C1A 6375  32.271  33.247   8.873
  121POPC   D2A 6376  32.304  33.398   8.400
  121POPC   C3A 6377  32.394  33.122   8.026
  121POPC   C4A 6378  32.492  32.932   7.615
  121POPC   C1B 6379  32.111  32.745   8.814
  121POPC   C2B 6380  32.121  32.937   8.456
  121POPC   C3B 6381  31.885  33.086   8.131
  121POPC   C4B 6382  31.991  32.982   7.721
  122POPC   NC3 6383   6.341  10.470   9.638
  122POPC   PO4 6384   6.925  10.367   9.395
  122POPC   GL1 6385   6.603  10.490   9.169
  122POPC   GL2 6386   6.807  10.379   8.909
  122POPC   C1A 6387   6.337  10.488   8.800
  122POPC   D2A 6388   6.401  10.779   8.468
  122POPC   C3A 6389   6.264  10.725   8.045
  122POPC   C4A 6390   6.345  10.448   7.714
  122POPC   C1B 6391   6.919  10.773   8.756
  122POPC   C2B 6392   6.887  10.844   8.334
  122POPC   C3B 6393   6.749  10.570   8.006
  122POPC   C4B 6394   6.775  10.692   7.551
  123POPC   NC3 6395  40.359  32.899   9.439
  123POPC   PO4 6396  40.866  33.353   9.482
  123POPC   GL1 6397  40.798  33.049   9.164
  123POPC   GL2 6398  40.842  32.683   9.209
  123POPC   C1A 6399  40.702  33.100   8.751
  123POPC   D2A 6400  40.394  33.235   8.451
  123POPC   C3A 6401  40.620  33.205   8.063
  123POPC   C4A 6402  40.962  33.330   7.818
  123POPC   C1B 6403  40.698  32.582   8.782
  123POPC   C2B 6404  40.604  32.759   8.354
  123POPC   C3B 6405  40.686  32.711   7.897
  123POPC   C4B 6406  40.669  32.749   7.425
  124POPC   NC3 6407   3.010  18.202   9.504
  124POPC   PO4 6408   2.285  18.231   9.422
  124POPC   GL1 6409   2.616  18.426   9.103
  124POPC   GL2 6410   2.908  18.179   9.033
  124POPC   C1A 6411   2.782  18.436   8.638
  124POPC   D2A 6412   2.663  18.063   8.407
  124POPC   C3A 6413   2.514  18.104   7.991
  124POPC   C4A 6414   2.562  18.438   7.723
  124POPC   C1B 6415   3.187  17.978   8.759
  124POPC   C2B 6416   3.182  18.188   8.393
  124POPC   C3B 6417   2.964  18.343   8.069
  124POPC   C4B 6418   2.981  18.122   7.664
  125POPC   NC3 6419  26.643  34.652   9.528
  125POPC   PO4 6420  27.253  34.749   9.336
  125POPC   GL1 6421  26.896  34.604   9.062
  125POPC   GL2 6422  26.588  34.829   9.035
  125POPC   C1A 6423  27.040  34.408   8.674
  125POPC   D2A 6424  27.115  34.555   8.270
  125POPC   C3A 6425  26.746  34.432   8.074
  125POPC   C4A 6426  26.589  34.358   7.675
  125POPC   C1B 6427  26.741  34.847   8.614
  125POPC   C2B 6428  26.606  35.087   8.286
  125POPC   C3B 6429  26.559  34.884   7.949
  125POPC   C4B 6430  26.598  34.841   7.553
  126POPC   NC3 6431  37.803  31.362   9.541
  126POPC   PO4 6432  37.405  31.912   9.589
  126POPC   GL1 6433  37.509  31.663   9.233
  126POPC   GL2 6434  37.860  31.727   9.187
  126POPC   C1A 6435  37.444  31.412   8.859
  126POPC   D2A 6436  37.226  31.389   8.452
  126POPC   C3A 6437  37.471  31.488   8.111
  126POPC   C4A 6438  37.400  31.538   7.683
  126POPC   C1B 6439  37.932  31.551   8.792
  126POPC   C2B 6440  38.049  31.459   8.388
  126POPC   C3B 6441  38.012  31.541   7.964
  126POPC   C4B 6442  37.861  31.621   7.521
  127POPC   NC3 6443  29.795  25.036   9.464
  127POPC   PO4 6444  29.799  25.739   9.555
  127POPC   GL1 6445  29.775  25.513   9.163
  127POPC   GL2 6446  30.033  25.280   9.090
  127POPC   C1A 6447  29.928  25.622   8.733
  127POPC   D2A 6448  30.107  25.476   8.335
  127POPC   C3A 6449  29.824  25.567   7.992
  127POPC   C4A 6450  29.660  25.439   7.604
  127POPC   C1B 6451  29.865  25.115   8.731
  127POPC   C2B 6452  29.987  24.942   8.362
  127POPC   C3B 6453  29.877  25.070   7.975
  127POPC   C4B 6454  29.873  24.939   7.571
  128POPC   NC3 6455  37.749  29.575   9.380
  128POPC   PO4 6456  37.880  30.210   9.534
  128POPC   GL1 6457  37.626  30.049   9.139
  128POPC   GL2 6458  37.488  29.720   8.962
  128POPC   C1A 6459  37.480  30.142   8.716
  128POPC   D2A 6460  37.661  30.225   8.345
  128POPC   C3A 6461  37.584  30.117   7.961
  128POPC   C4A 6462  37.433  30.104   7.569
  128POPC   C1B 6463  37.859  29.770   8.770
  128POPC   C2B 6464  37.794  29.740   8.389
  128POPC   C3B 6465  37.987  29.815   8.055
  128POPC   C4B 6466  37.714  29.676   7.761
  129POPC   NC3 6467  32.870  33.529   9.549
  129POPC   PO4 6468  33.189  34.070   9.595
  129POPC   GL1 6469  33.301  33.857   9.192
  129POPC   GL2 6470  33.211  33.495   9.131
  129POPC   C1A 6471  33.179  33.843   8.731
  129POPC   D2A 6472  33.113  33.921   8.267
  129POPC   C3A 6473  33.393  34.078   7.944
  129POPC   C4A 6474  33.189  34.048   7.529
  129POPC   C1B 6475  32.823  33.475   8.867
  129POPC   C2B 6476  32.741  33.627   8.463
  129POPC   C3B 6477  32.850  33.508   8.036
  129POPC   C4B 6478  33.220  33.632   7.811
  130POPC   NC3 6479  26.990  35.581   9.405
  130POPC   PO4 6480  26.364  35.201   9.413
  130POPC   GL1 6481  26.664  35.315   9.134
  130POPC   GL2 6482  26.975  35.137   9.116
  130POPC   C1A 6483  26.703  35.346   8.718
  130POPC   D2A 6484  26.909  35.509   8.401
  130POPC   C3A 6485  26.833  35.450   8.005
  130POPC   C4A 6486  26.526  35.339   7.731
  130POPC   C1B 6487  27.169  35.103   8.689
  130POPC   C2B 6488  27.103  35.073   8.226
  130POPC   C3B 6489  27.025  35.051   7.743
  130POPC   C4B 6490  27.195  35.249   7.339
  131POPC   NC3 6491  22.100  23.965   9.510
  131POPC   PO4 6492  21.957  23.411   9.531
  131POPC   GL1 6493  22.155  23.534   9.166
  131POPC   GL2 6494  22.523  23.484   9.153
  131POPC   C1A 6495  21.963  23.667   8.786
  131POPC   D2A 6496  22.043  23.513   8.353
  131POPC   C3A 6497  21.930  23.813   8.020
  131POPC   C4A 6498  21.863  23.761   7.582
  131POPC   C1B 6499  22.434  23.564   8.710
  131POPC   C2B 6500  22.329  23.921   8.443
  131POPC   C3B 6501  22.428  23.925   7.999
  131POPC   C4B 6502  22.340  23.599   7.695
  132POPC   NC3 6503  17.064  22.595   9.464
  132POPC   PO4 6504  16.524  23.104   9.467
  132POPC   GL1 6505  16.639  22.828   9.166
  132POPC   GL2 6506  16.914  23.037   9.128
  132POPC   C1A 6507  16.734  22.739   8.731
  132POPC   D2A 6508  16.497  22.731   8.340
  132POPC   C3A 6509  16.725  22.838   7.973
  132POPC   C4A 6510  16.591  22.900   7.567
  132POPC   C1B 6511  16.723  23.308   8.797
  132POPC   C2B 6512  16.754  23.180   8.371
  132POPC   C3B 6513  16.754  23.381   7.968
  132POPC   C4B 6514  16.596  23.397   7.543
  133POPC   NC3 6515  39.898  35.164   9.496
  133POPC   PO4 6516  40.521  35.573   9.416
  133POPC   GL1 6517  40.182  35.444   9.101
  133POPC   GL2 6518  39.952  35.158   9.018
  133POPC   C1A 6519  40.008  35.573   8.687
  133POPC   D2A 6520  39.854  35.475   8.284
  133POPC   C3A 6521  40.130  35.602   7.930
  133POPC   C4A 6522  39.894  35.357   7.659
  133POPC   C1B 6523  40.141  35.078   8.679
  133POPC   C2B 6524  40.035  34.971   8.307
  133POPC   C3B 6525  40.224  35.098   7.954
  133POPC   C4B 6526  40.131  34.906   7.591
  134POPC   NC3 6527  41.983   3.795   9.517
  134POPC   PO4 6528  42.384   4.384   9.340
  134POPC   GL1 6529  42.461   4.033   9.084
  134POPC   GL2 6530  42.174   3.964   8.898
  134POPC   C1A 6531  42.625   4.059   8.684
  134POPC   D2A 6532  42.495   3.858   8.300
  134POPC   C3A 6533  42.430   4.201   8.064
  134POPC   C4A 6534  42.459   4.273   7.659
  134POPC   C1B 6535  42.172   4.280   8.569
  134POPC   C2B 6536  41.909   4.273   8.201
  134POPC   C3B 6537  41.986   4.157   7.801
  134POPC   C4B 6538  42.128   4.065   7.348
  135POPC   NC3 6539  18.093  27.187   9.361
  135POPC   PO4 6540  18.257  27.778   9.626
  135POPC   GL1 6541  18.389  27.763   9.217
  135POPC   GL2 6542  18.503  27.415   9.127
  135POPC   C1A 6543  18.392  27.879   8.813
  135POPC   D2A 6544  18.242  27.635   8.485
  135POPC   C3A 6545  18.156  27.842   8.114
  135POPC   C4A 6546  18.140  27.718   7.715
  135POPC   C1B 6547  18.366  27.161   8.752
  135POPC   C2B 6548  18.206  27.147   8.341
  135POPC   C3B 6549  18.368  27.321   7.970
  135POPC   C4B 6550  18.555  27.412   7.565
  136POPC   NC3 6551  24.971  32.682   9.520
  136POPC   PO4 6552  25.447  33.184   9.479
  136POPC   GL1 6553  25.367  32.934   9.117
  136POPC   GL2 6554  25.021  32.935   9.079
  136POPC   C1A 6555  25.300  32.909   8.662
  136POPC   D2A 6556  25.196  33.282   8.390
  136POPC   C3A 6557  25.273  33.111   8.020
  136POPC   C4A 6558  25.357  32.715   7.882
  136POPC   C1B 6559  24.849  33.109   8.721
  136POPC   C2B 6560  24.945  32.824   8.298
  136POPC   C3B 6561  24.861  32.771   7.832
  136POPC   C4B 6562  24.854  32.699   7.349
  137POPC   NC3 6563  24.162  36.624   9.447
  137POPC   PO4 6564  24.511  37.300   9.512
  137POPC   GL1 6565  24.399  37.004   9.154
  137POPC   GL2 6566  24.399  36.658   9.006
  137POPC   C1A 6567  24.228  37.046   8.722
  137POPC   D2A 6568  24.402  37.017   8.284
  137POPC   C3A 6569  24.283  36.827   7.886
  137POPC   C4A 6570  24.193  37.077   7.535
  137POPC   C1B 6571  24.810  36.733   8.828
  137POPC   C2B 6572  24.742  36.660   8.423
  137POPC   C3B 6573  24.855  36.675   8.011
  137POPC   C4B 6574  24.634  36.446   7.713
  138POPC   NC3 6575  35.330  28.999   9.510
  138POPC   PO4 6576  35.307  29.663   9.455
  138POPC   GL1 6577  35.570  29.427   9.123
  138POPC   GL2 6578  35.286  29.215   9.074
  138POPC   C1A 6579  35.606  29.135   8.717
  138POPC   D2A 6580  35.343  28.973   8.405
  138POPC   C3A 6581  35.487  28.933   7.978
  138POPC   C4A 6582  35.248  28.899   7.620
  138POPC   C1B 6583  35.014  29.177   8.772
  138POPC   C2B 6584  34.895  29.337   8.422
  138POPC   C3B 6585  35.070  29.252   8.039
  138POPC   C4B 6586  34.912  29.283   7.651
  139POPC   NC3 6587   6.334  34.846   9.529
  139POPC   PO4 6588   6.384  34.210   9.569
  139POPC   GL1 6589   6.482  34.443   9.176
  139POPC   GL2 6590   6.486  34.817   9.052
  139POPC   C1A 6591   6.585  34.390   8.751
  139POPC   D2A 6592   6.779  34.400   8.375
  139POPC   C3A 6593   6.622  34.482   7.979
  139POPC   C4A 6594   6.736  34.284   7.583
  139POPC   C1B 6595   6.540  34.876   8.615
  139POPC   C2B 6596   6.244  34.704   8.324
  139POPC   C3B 6597   6.168  34.774   7.891
  139POPC   C4B 6598   6.502  34.797   7.598
  140POPC   NC3 6599  41.555  26.740   9.634
  140POPC   PO4 6600  40.988  26.975   9.318
  140POPC   GL1 6601  41.417  26.829   9.135
  140POPC   GL2 6602  41.711  26.567   9.180
  140POPC   C1A 6603  41.450  26.766   8.704
  140POPC   D2A 6604  41.232  26.817   8.330
  140POPC   C3A 6605  41.544  26.976   8.072
  140POPC   C4A 6606  41.498  27.159   7.697
  140POPC   C1B 6607  41.795  26.386   8.787
  140POPC   C2B 6608  41.594  26.381   8.384
  140POPC   C3B 6609  41.750  26.506   8.024
  140POPC   C4B 6610  41.815  26.760   7.704
  141POPC   NC3 6611   2.048   5.664   9.574
  141POPC   PO4 6612   1.737   6.286   9.391
  141POPC   GL1 6613   1.890   5.953   9.108
  141POPC   GL2 6614   1.735   5.599   9.184
  141POPC   C1A 6615   2.070   6.066   8.668
  141POPC   D2A 6616   1.995   5.985   8.241
  141POPC   C3A 6617   2.099   6.167   7.860
  141POPC   C4A 6618   2.234   5.814   7.631
  141POPC   C1B 6619   1.968   5.557   8.809
  141POPC   C2B 6620   1.842   5.513   8.392
  141POPC   C3B 6621   2.015   5.527   7.993
  141POPC   C4B 6622   1.859   5.391   7.601
  142POPC   NC3 6623  17.280  42.362   9.507
  142POPC   PO4 6624  17.856  42.042   9.473
  142POPC   GL1 6625  17.645  42.268   9.119
  142POPC   GL2 6626  17.470  42.630   9.110
  142POPC   C1A 6627  17.747  42.444   8.714
  142POPC   D2A 6628  17.770  42.237   8.303
  142POPC   C3A 6629  17.758  42.432   7.891
  142POPC   C4A 6630  17.817  42.250   7.436
  142POPC   C1B 6631  17.237  42.372   8.808
  142POPC   C2B 6632  17.051  42.214   8.430
  142POPC   C3B 6633  17.312  42.164   8.089
  142POPC   C4B 6634  17.340  42.292   7.651
  143POPC   NC3 6635  22.184  26.498   9.387
  143POPC   PO4 6636  21.968  27.029   9.686
  143POPC   GL1 6637  22.057  26.965   9.221
  143POPC   GL2 6638  21.830  26.690   9.081
  143POPC   C1A 6639  22.215  26.920   8.780
  143POPC   D2A 6640  22.392  26.896   8.352
  143POPC   C3A 6641  22.136  26.986   7.960
  143POPC   C4A 6642  21.989  27.099   7.531
  143POPC   C1B 6643  21.753  26.785   8.650
  143POPC   C2B 6644  21.962  26.628   8.301
  143POPC   C3B 6645  21.865  26.450   7.925
  143POPC   C4B 6646  21.740  26.630   7.549
  144POPC   NC3 6647  21.461  22.359   9.427
  144POPC   PO4 6648  21.718  21.696   9.391
  144POPC   GL1 6649  21.537  21.987   9.081
  144POPC   GL2 6650  21.301  21.876   8.863
  144POPC   C1A 6651  21.671  22.188   8.695
  144POPC   D2A 6652  21.388  22.224   8.365
  144POPC   C3A 6653  21.527  22.243   7.943
  144POPC   C4A 6654  21.458  21.937   7.653
  144POPC   C1B 6655  21.178  22.334   8.829
  144POPC   C2B 6656  20.927  22.492   8.505
  144POPC   C3B 6657  21.074  22.482   8.064
  144POPC   C4B 6658  21.008  22.274   7.683
  145POPC   NC3 6659  43.561  17.998   9.528
  145POPC   PO4 6660  44.180  18.262   9.670
  145POPC   GL1 6661  44.021  18.183   9.213
  145POPC   GL2 6662  43.715  18.130   9.082
  145POPC   C1A 6663  44.009  18.376   8.775
  145POPC   D2A 6664  43.658  18.327   8.497
  145POPC   C3A 6665  43.784  18.425   8.090
  145POPC   C4A 6666  44.154  18.413   7.848
  145POPC   C1B 6667  43.826  17.898   8.732
  145POPC   C2B 6668  43.681  17.789   8.319
  145POPC   C3B 6669  43.833  17.938   7.909
  145POPC   C4B 6670  43.730  18.250   7.590
  146POPC   NC3 6671  17.252  36.147   9.517
  146POPC   PO4 6672  17.918  35.893   9.489
  146POPC   GL1 6673  17.603  35.917   9.177
  146POPC   GL2 6674  17.576  36.272   9.153
  146POPC   C1A 6675  17.524  35.934   8.736
  146POPC   D2A 6676  17.775  36.029   8.366
  146POPC   C3A 6677  17.619  36.080   8.003
  146POPC   C4A 6678  17.317  35.852   7.715
  146POPC   C1B 6679  17.290  36.377   8.843
  146POPC   C2B 6680  17.071  36.444   8.483
  146POPC   C3B 6681  17.285  36.451   8.100
  146POPC   C4B 6682  17.394  36.358   7.663
  147POPC   NC3 6683  10.587   7.611   9.592
  147POPC   PO4 6684  10.271   6.954   9.527
  147POPC   GL1 6685  10.568   7.202   9.213
  147POPC   GL2 6686  10.433   7.557   9.125
  147POPC   C1A 6687  10.783   7.415   8.817
  147POPC   D2A 6688  10.540   7.597   8.456
  147POPC   C3A 6689  10.445   7.426   8.054
  147POPC   C4A 6690  10.527   7.265   7.653
  147POPC   C1B 6691  10.212   7.753   8.806
  147POPC   C2B 6692  10.191   8.007   8.431
  147POPC   C3B 6693  10.191   7.924   8.008
  147POPC   C4B 6694  10.302   7.713   7.644
  148POPC   NC3 6695  12.279   8.499   9.485
  148POPC   PO4 6696  11.933   9.197   9.524
  148POPC   GL1 6697  12.042   8.965   9.183
  148POPC   GL2 6698  11.928   8.578   9.133
  148POPC   C1A 6699  12.013   9.233   8.806
  148POPC   D2A 6700  12.263   9.110   8.434
  148POPC   C3A 6701  12.137   9.232   8.029
  148POPC   C4A 6702  12.358   9.132   7.653
  148POPC   C1B 6703  12.031   8.721   8.732
  148POPC   C2B 6704  11.753   8.955   8.466
  148POPC   C3B 6705  11.820   8.786   8.074
  148POPC   C4B 6706  11.912   8.900   7.670
  149POPC   NC3 6707  33.908  24.133   9.473
  149POPC   PO4 6708  33.718  23.506   9.418
  149POPC   GL1 6709  33.703  23.622   9.022
  149POPC   GL2 6710  33.746  23.996   8.999
  149POPC   C1A 6711  33.556  23.640   8.604
  149POPC   D2A 6712  33.417  23.974   8.323
  149POPC   C3A 6713  33.572  23.873   7.909
  149POPC   C4A 6714  33.732  23.484   7.708
  149POPC   C1B 6715  34.091  23.782   8.776
  149POPC   C2B 6716  34.055  23.606   8.379
  149POPC   C3B 6717  34.084  23.723   7.984
  149POPC   C4B 6718  34.154  23.752   7.563
  150POPC   NC3 6719  22.567   9.642   9.389
  150POPC   PO4 6720  22.060  10.061   9.491
  150POPC   GL1 6721  22.130   9.930   9.108
  150POPC   GL2 6722  22.454  10.035   9.070
  150POPC   C1A 6723  21.963   9.911   8.710
  150POPC   D2A 6724  22.129   9.920   8.318
  150POPC   C3A 6725  22.010   9.715   7.966
  150POPC   C4A 6726  21.979   9.353   7.727
  150POPC   C1B 6727  22.373  10.236   8.664
  150POPC   C2B 6728  22.575  10.161   8.269
  150POPC   C3B 6729  22.553   9.841   7.945
  150POPC   C4B 6730  22.340   9.713   7.570
  151POPC   NC3 6731  30.730  22.169   9.635
  151POPC   PO4 6732  30.310  22.488   9.329
  151POPC   GL1 6733  30.616  22.252   9.138
  151POPC   GL2 6734  30.375  21.997   9.085
  151POPC   C1A 6735  30.717  22.202   8.707
  151POPC   D2A 6736  30.570  22.462   8.370
  151POPC   C3A 6737  30.806  22.407   8.023
  151POPC   C4A 6738  30.865  22.056   7.797
  151POPC   C1B 6739  30.418  21.774   8.701
  151POPC   C2B 6740  30.654  21.751   8.305
  151POPC   C3B 6741  30.596  21.622   7.868
  151POPC   C4B 6742  30.419  21.924   7.577
  152POPC   NC3 6743  41.933  35.688   9.653
  152POPC   PO4 6744  42.402  35.195   9.610
  152POPC   GL1 6745  42.347  35.454   9.188
  152POPC   GL2 6746  42.086  35.651   9.082
  152POPC   C1A 6747  42.466  35.449   8.752
  152POPC   D2A 6748  42.311  35.397   8.332
  152POPC   C3A 6749  42.551  35.158   8.008
  152POPC   C4A 6750  42.485  35.260   7.580
  152POPC   C1B 6751  42.057  35.775   8.627
  152POPC   C2B 6752  42.261  35.882   8.205
  152POPC   C3B 6753  42.224  35.593   7.846
  152POPC   C4B 6754  42.197  35.608   7.350
  153POPC   NC3 6755  32.462   9.157   9.701
  153POPC   PO4 6756  32.316   8.605   9.374
  153POPC   GL1 6757  32.396   8.795   9.063
  153POPC   GL2 6758  32.072   8.976   9.108
  153POPC   C1A 6759  32.304   8.705   8.666
  153POPC   D2A 6760  32.203   8.946   8.345
  153POPC   C3A 6761  32.438   8.911   8.045
  153POPC   C4A 6762  32.303   8.997   7.645
  153POPC   C1B 6763  31.843   8.902   8.736
  153POPC   C2B 6764  31.705   8.918   8.303
  153POPC   C3B 6765  31.868   9.157   7.929
  153POPC   C4B 6766  31.853   9.586   7.753
  154POPC   NC3 6767  25.700  44.801   9.448
  154POPC   PO4 6768  26.180  44.410   9.459
  154POPC   GL1 6769  25.965  44.471   9.077
  154POPC   GL2 6770  26.284  44.654   8.985
  154POPC   C1A 6771  25.903  44.697   8.656
  154POPC   D2A 6772  25.753  44.881   8.261
  154POPC   C3A 6773  25.952  44.716   7.893
  154POPC   C4A 6774  25.794  44.376   7.673
  154POPC   C1B 6775  26.270  44.318   8.677
  154POPC   C2B 6776  26.073  44.350   8.273
  154POPC   C3B 6777  26.271  44.305   7.885
  154POPC   C4B 6778  26.225  44.421   7.429
  155POPC   NC3 6779  34.952  17.851   9.271
  155POPC   PO4 6780  34.316  18.135   9.421
  155POPC   GL1 6781  34.550  18.292   9.070
  155POPC   GL2 6782  34.449  18.622   8.912
  155POPC   C1A 6783  34.957  18.395   8.851
  155POPC   D2A 6784  35.070  18.462   8.413
  155POPC   C3A 6785  34.805  18.414   8.077
  155POPC   C4A 6786  34.585  18.259   7.694
  155POPC   C1B 6787  34.540  18.335   8.569
  155POPC   C2B 6788  34.424  18.121   8.233
  155POPC   C3B 6789  34.262  18.462   8.000
  155POPC   C4B 6790  34.250  18.637   7.609
  156POPC   NC3 6791  24.054  39.790   9.344
  156POPC   PO4 6792  24.720  40.018   9.382
  156POPC   GL1 6793  24.542  40.149   9.063
  156POPC   GL2 6794  24.229  40.247   9.157
  156POPC   C1A 6795  24.683  40.176   8.682
  156POPC   D2A 6796  24.671  39.893   8.358
  156POPC   C3A 6797  24.298  39.759   8.184
  156POPC   C4A 6798  24.350  40.049   7.890
  156POPC   C1B 6799  24.151  40.134   8.736
  156POPC   C2B 6800  24.293  40.270   8.351
  156POPC   C3B 6801  24.284  40.531   7.999
  156POPC   C4B 6802  24.132  40.380   7.580
  157POPC   NC3 6803  28.667  20.951   9.405
  157POPC   PO4 6804  28.469  20.378   9.756
  157POPC   GL1 6805  28.361  20.520   9.305
  157POPC   GL2 6806  28.219  20.855   9.183
  157POPC   C1A 6807  28.385  20.436   8.840
  157POPC   D2A 6808  28.593  20.418   8.417
  157POPC   C3A 6809  28.303  20.328   8.066
  157POPC   C4A 6810  28.177  20.589   7.718
  157POPC   C1B 6811  28.397  21.001   8.765
  157POPC   C2B 6812  28.628  20.953   8.332
  157POPC   C3B 6813  28.654  20.696   7.916
  157POPC   C4B 6814  28.530  20.840   7.468
  158POPC   NC3 6815  37.578  33.111   9.529
  158POPC   PO4 6816  37.353  33.501   9.040
  158POPC   GL1 6817  37.820  33.450   8.958
  158POPC   GL2 6818  37.943  33.140   9.110
  158POPC   C1A 6819  38.053  33.264   8.583
  158POPC   D2A 6820  38.106  33.241   8.124
  158POPC   C3A 6821  37.740  33.129   7.896
  158POPC   C4A 6822  37.325  33.348   7.858
  158POPC   C1B 6823  37.753  32.859   8.794
  158POPC   C2B 6824  37.640  32.809   8.353
  158POPC   C3B 6825  37.359  32.834   8.014
  158POPC   C4B 6826  37.351  32.924   7.569
  159POPC   NC3 6827  38.649   1.736   9.545
  159POPC   PO4 6828  38.413   1.053   9.589
  159POPC   GL1 6829  38.669   1.099   9.234
  159POPC   GL2 6830  38.748   1.421   9.121
  159POPC   C1A 6831  38.763   0.976   8.846
  159POPC   D2A 6832  38.477   0.978   8.491
  159POPC   C3A 6833  38.644   1.119   8.081
  159POPC   C4A 6834  38.460   1.216   7.668
  159POPC   C1B 6835  38.393   1.359   8.830
  159POPC   C2B 6836  38.335   1.459   8.367
  159POPC   C3B 6837  38.307   1.617   7.923
  159POPC   C4B 6838  38.117   1.579   7.479
  160POPC   NC3 6839  41.417  17.786   9.462
  160POPC   PO4 6840  41.284  17.202   9.522
  160POPC   GL1 6841  41.603  17.374   9.198
  160POPC   GL2 6842  41.857  17.667   9.215
  160POPC   C1A 6843  41.603  17.574   8.773
  160POPC   D2A 6844  41.634  17.778   8.374
  160POPC   C3A 6845  41.485  17.590   7.958
  160POPC   C4A 6846  41.367  17.286   7.649
  160POPC   C1B 6847  42.061  17.382   8.937
  160POPC   C2B 6848  42.067  17.416   8.502
  160POPC   C3B 6849  41.898  17.297   8.132
  160POPC   C4B 6850  41.942  17.340   7.712
  161POPC   NC3 6851   3.681  39.377   9.619
  161POPC   PO4 6852   3.137  39.540   9.394
  161POPC   GL1 6853   3.371  39.194   9.233
  161POPC   GL2 6854   3.098  39.075   9.076
  161POPC   C1A 6855   3.640  39.011   8.896
  161POPC   D2A 6856   3.715  39.250   8.503
  161POPC   C3A 6857   3.839  39.136   8.088
  161POPC   C4A 6858   3.593  39.013   7.733
  161POPC   C1B 6859   3.252  39.324   8.739
  161POPC   C2B 6860   3.280  39.497   8.324
  161POPC   C3B 6861   3.186  39.291   7.925
  161POPC   C4B 6862   3.255  39.408   7.484
  162POPC   NC3 6863  40.855   2.431   9.404
  162POPC   PO4 6864  41.090   3.107   9.441
  162POPC   GL1 6865  40.905   2.831   9.099
  162POPC   GL2 6866  41.054   2.501   8.950
  162POPC   C1A 6867  40.682   2.926   8.725
  162POPC   D2A 6868  40.940   3.147   8.447
  162POPC   C3A 6869  40.827   3.090   8.071
  162POPC   C4A 6870  40.777   2.769   7.773
  162POPC   C1B 6871  41.107   2.667   8.575
  162POPC   C2B 6872  40.885   2.575   8.245
  162POPC   C3B 6873  41.089   2.399   7.933
  162POPC   C4B 6874  41.124   2.453   7.515
  163POPC   NC3 6875  44.724  10.067   9.590
  163POPC   PO4 6876   0.176   9.714   9.256
  163POPC   GL1 6877  44.771   9.694   9.127
  163POPC   GL2 6878  44.619  10.030   9.092
  163POPC   C1A 6879  44.681   9.464   8.747
  163POPC   D2A 6880  44.553   9.646   8.364
  163POPC   C3A 6881  44.367   9.421   8.041
  163POPC   C4A 6882  44.590   9.553   7.680
  163POPC   C1B 6883  44.742  10.013   8.686
  163POPC   C2B 6884  44.949  10.000   8.281
  163POPC   C3B 6885  44.826   9.968   7.889
  163POPC   C4B 6886  44.898  10.329   7.671
  164POPC   NC3 6887  44.388  41.479   9.411
  164POPC   PO4 6888  44.689  42.047   9.489
  164POPC   GL1 6889  44.709  41.788   9.124
  164POPC   GL2 6890  44.835  41.450   9.126
  164POPC   C1A 6891  44.667  41.733   8.684
  164POPC   D2A 6892  44.581  41.465   8.328
  164POPC   C3A 6893  44.523  41.661   7.949
  164POPC   C4A 6894  44.324  41.396   7.682
  164POPC   C1B 6895  44.834  41.230   8.717
  164POPC   C2B 6896   0.006  41.203   8.280
  164POPC   C3B 6897  44.792  41.184   7.865
  164POPC   C4B 6898  44.775  41.466   7.496
  165POPC   NC3 6899  44.320   5.920   9.538
  165POPC   PO4 6900  44.913   5.627   9.435
  165POPC   GL1 6901  44.718   5.825   9.123
  165POPC   GL2 6902  44.397   5.696   9.096
  165POPC   C1A 6903  44.874   6.038   8.768
  165POPC   D2A 6904  44.950   6.187   8.367
  165POPC   C3A 6905   0.033   5.918   8.041
  165POPC   C4A 6906  44.726   6.155   7.857
  165POPC   C1B 6907  44.344   5.854   8.720
  165POPC   C2B 6908  44.574   5.841   8.357
  165POPC   C3B 6909  44.571   5.669   7.969
  165POPC   C4B 6910  44.418   5.847   7.610
  166POPC   NC3 6911  31.677  30.926   9.384
  166POPC   PO4 6912  31.294  30.397   9.587
  166POPC   GL1 6913  31.460  30.486   9.177
  166POPC   GL2 6914  31.803  30.404   9.079
  166POPC   C1A 6915  31.429  30.777   8.815
  166POPC   D2A 6916  31.462  30.650   8.420
  166POPC   C3A 6917  31.388  30.801   8.001
  166POPC   C4A 6918  31.470  30.563   7.634
  166POPC   C1B 6919  31.909  30.582   8.671
  166POPC   C2B 6920  31.911  30.848   8.282
  166POPC   C3B 6921  31.881  30.809   7.833
  166POPC   C4B 6922  31.926  30.650   7.387
  167POPC   NC3 6923  41.051  30.710   9.506
  167POPC   PO4 6924  40.439  30.982   9.458
  167POPC   GL1 6925  40.652  30.756   9.119
  167POPC   GL2 6926  40.962  30.907   9.052
  167POPC   C1A 6927  40.652  30.677   8.662
  167POPC   D2A 6928  40.876  30.736   8.248
  167POPC   C3A 6929  40.674  30.650   7.819
  167POPC   C4A 6930  40.502  30.840   7.429
  167POPC   C1B 6931  40.926  31.110   8.667
  167POPC   C2B 6932  40.899  31.315   8.290
  167POPC   C3B 6933  40.892  31.110   7.889
  167POPC   C4B 6934  41.184  30.767   7.777
  168POPC   NC3 6935  44.285  25.671  10.019
  168POPC   PO4 6936  44.558  25.152   9.622
  168POPC   GL1 6937  44.654  25.309   9.200
  168POPC   GL2 6938  44.900  25.056   9.155
  168POPC   C1A 6939  44.809  25.391   8.749
  168POPC   D2A 6940  44.981  25.140   8.361
  168POPC   C3A 6941  44.830  25.309   8.019
  168POPC   C4A 6942  44.584  25.632   7.883
  168POPC   C1B 6943  44.780  24.886   8.743
  168POPC   C2B 6944  44.503  24.890   8.374
  168POPC   C3B 6945  44.595  24.860   7.934
  168POPC   C4B 6946  44.348  24.904   7.567
  169POPC   NC3 6947  12.365  28.776   9.541
  169POPC   PO4 6948  11.917  28.253   9.548
  169POPC   GL1 6949  12.080  28.133   9.168
  169POPC   GL2 6950  12.276  28.423   9.171
  169POPC   C1A 6951  12.047  28.271   8.747
  169POPC   D2A 6952  11.755  28.353   8.449
  169POPC   C3A 6953  11.908  28.321   8.053
  169POPC   C4A 6954  11.877  28.470   7.680
  169POPC   C1B 6955  12.471  28.546   8.759
  169POPC   C2B 6956  12.307  28.483   8.331
  169POPC   C3B 6957  12.411  28.318   7.899
  169POPC   C4B 6958  12.363  28.468   7.463
  170POPC   NC3 6959  12.585  34.692   9.493
  170POPC   PO4 6960  13.229  34.617   9.274
  170POPC   GL1 6961  12.860  34.753   9.054
  170POPC   GL2 6962  12.484  34.878   9.036
  170POPC   C1A 6963  12.639  34.473   8.725
  170POPC   D2A 6964  12.700  34.256   8.303
  170POPC   C3A 6965  12.877  34.544   7.987
  170POPC   C4A 6966  13.124  34.820   7.745
  170POPC   C1B 6967  12.670  34.971   8.662
  170POPC   C2B 6968  12.925  34.950   8.360
  170POPC   C3B 6969  12.778  35.071   8.036
  170POPC   C4B 6970  12.647  35.011   7.668
  171POPC   NC3 6971  23.663  32.834   9.590
  171POPC   PO4 6972  23.459  32.172   9.536
  171POPC   GL1 6973  23.514  32.321   9.130
  171POPC   GL2 6974  23.861  32.461   9.153
  171POPC   C1A 6975  23.349  32.168   8.715
  171POPC   D2A 6976  23.261  32.253   8.264
  171POPC   C3A 6977  23.387  31.982   7.947
  171POPC   C4A 6978  23.551  32.229   7.622
  171POPC   C1B 6979  23.901  32.067   8.887
  171POPC   C2B 6980  23.757  31.924   8.469
  171POPC   C3B 6981  23.887  32.054   8.045
  171POPC   C4B 6982  24.060  32.079   7.628
  172POPC   NC3 6983  43.595   8.193   9.467
  172POPC   PO4 6984  43.029   7.896   9.417
  172POPC   GL1 6985  43.192   8.205   9.133
  172POPC   GL2 6986  43.463   7.984   9.025
  172POPC   C1A 6987  43.130   8.333   8.695
  172POPC   D2A 6988  42.882   8.339   8.296
  172POPC   C3A 6989  43.138   8.483   7.933
  172POPC   C4A 6990  43.139   8.480   7.458
  172POPC   C1B 6991  43.121   7.781   8.795
  172POPC   C2B 6992  43.111   7.773   8.388
  172POPC   C3B 6993  43.307   7.991   8.088
  172POPC   C4B 6994  43.150   8.025   7.692
  173POPC   NC3 6995  37.421  19.491   9.651
  173POPC   PO4 6996  37.988  19.891   9.572
  173POPC   GL1 6997  37.677  19.767   9.243
  173POPC   GL2 6998  37.788  20.065   9.055
  173POPC   C1A 6999  37.490  19.725   8.808
  173POPC   D2A 7000  37.444  19.937   8.392
  173POPC   C3A 7001  37.630  19.737   8.079
  173POPC   C4A 7002  37.480  19.621   7.669
  173POPC   C1B 7003  37.504  20.267   8.771
  173POPC   C2B 7004  37.635  20.435   8.389
  173POPC   C3B 7005  37.711  20.235   8.019
  173POPC   C4B 7006  37.638  20.118   7.591
  174POPC   NC3 7007   9.837  21.128   9.955
  174POPC   PO4 7008   9.632  21.587   9.396
  174POPC   GL1 7009   9.634  21.306   9.073
  174POPC   GL2 7010   9.376  21.486   8.935
  174POPC   C1A 7011   9.690  21.228   8.634
  174POPC   D2A 7012   9.563  21.449   8.305
  174POPC   C3A 7013   9.931  21.469   8.091
  174POPC   C4A 7014  10.071  21.265   7.723
  174POPC   C1B 7015   9.316  21.833   8.658
  174POPC   C2B 7016   9.401  21.949   8.238
  174POPC   C3B 7017   9.525  21.733   7.880
  174POPC   C4B 7018   9.530  21.273   7.794
  175POPC   NC3 7019  44.533  24.666   9.574
  175POPC   PO4 7020   0.178  24.371   9.526
  175POPC   GL1 7021  44.867  24.274   9.172
  175POPC   GL2 7022  44.686  24.583   9.110
  175POPC   C1A 7023  44.871  24.363   8.705
  175POPC   D2A 7024  44.906  24.590   8.325
  175POPC   C3A 7025  44.770  24.389   7.969
  175POPC   C4A 7026  44.668  24.470   7.550
  175POPC   C1B 7027  44.384  24.546   8.766
  175POPC   C2B 7028  44.429  24.363   8.367
  175POPC   C3B 7029  44.257  24.459   7.991
  175POPC   C4B 7030  44.215  24.283   7.598
  176POPC   NC3 7031  22.333  36.421   9.696
  176POPC   PO4 7032  22.231  35.776   9.551
  176POPC   GL1 7033  22.280  36.082   9.199
  176POPC   GL2 7034  22.272  36.470   9.184
  176POPC   C1A 7035  22.220  36.114   8.758
  176POPC   D2A 7036  22.373  35.919   8.389
  176POPC   C3A 7037  22.096  35.990   8.072
  176POPC   C4A 7038  21.910  35.802   7.709
  176POPC   C1B 7039  22.492  36.556   8.800
  176POPC   C2B 7040  22.406  36.448   8.384
  176POPC   C3B 7041  22.577  36.502   7.983
  176POPC   C4B 7042  22.238  36.349   7.749
  177POPC   NC3 7043  43.494  20.470   9.758
  177POPC   PO4 7044  42.988  20.794   9.551
  177POPC   GL1 7045  43.140  20.725   9.194
  177POPC   GL2 7046  43.355  20.980   9.224
  177POPC   C1A 7047  43.018  20.504   8.823
  177POPC   D2A 7048  43.044  20.640   8.402
  177POPC   C3A 7049  42.994  20.334   8.105
  177POPC   C4A 7050  43.197  20.432   7.714
  177POPC   C1B 7051  43.221  20.972   8.761
  177POPC   C2B 7052  43.474  20.915   8.380
  177POPC   C3B 7053  43.399  20.854   7.961
  177POPC   C4B 7054  43.164  21.089   7.708
  178POPC   NC3 7055  37.944  21.933   9.433
  178POPC   PO4 7056  37.562  22.433   9.691
  178POPC   GL1 7057  37.631  22.496   9.183
  178POPC   GL2 7058  37.777  22.233   9.063
  178POPC   C1A 7059  37.391  22.362   8.745
  178POPC   D2A 7060  37.216  22.500   8.290
  178POPC   C3A 7061  37.432  22.254   7.928
  178POPC   C4A 7062  37.586  21.800   7.911
  178POPC   C1B 7063  37.986  22.253   8.681
  178POPC   C2B 7064  37.872  22.024   8.312
  178POPC   C3B 7065  37.986  22.126   7.917
  178POPC   C4B 7066  37.913  22.477   7.716
  179POPC   NC3 7067   0.442  26.400   9.365
  179POPC   PO4 7068   0.308  25.790   9.517
  179POPC   GL1 7069   0.263  25.994   9.142
  179POPC   GL2 7070   0.601  25.908   9.102
  179POPC   C1A 7071   0.323  26.184   8.733
  179POPC   D2A 7072   0.408  26.054   8.311
  179POPC   C3A 7073   0.490  26.272   7.948
  179POPC   C4A 7074   0.300  26.051   7.633
  179POPC   C1B 7075   0.755  25.900   8.683
  179POPC   C2B 7076   0.698  25.650   8.312
  179POPC   C3B 7077   0.685  25.781   7.850
  179POPC   C4B 7078   0.796  26.067   7.468
  180POPC   NC3 7079  24.072  27.014   9.364
  180POPC   PO4 7080  23.510  26.606   9.389
  180POPC   GL1 7081  23.668  26.832   9.071
  180POPC   GL2 7082  23.527  27.168   9.084
  180POPC   C1A 7083  23.545  26.768   8.655
  180POPC   D2A 7084  23.262  26.658   8.334
  180POPC   C3A 7085  23.514  26.756   7.981
  180POPC   C4A 7086  23.935  26.610   7.976
  180POPC   C1B 7087  23.831  27.199   8.724
  180POPC   C2B 7088  23.858  27.028   8.302
  180POPC   C3B 7089  23.899  27.121   7.863
  180POPC   C4B 7090  23.766  26.909   7.510
  181POPC   NC3 7091  14.914   9.726   9.584
  181POPC   PO4 7092  15.484   9.653   9.627
  181POPC   GL1 7093  15.483   9.786   9.165
  181POPC   GL2 7094  15.104   9.783   9.111
  181POPC   C1A 7095  15.418   9.749   8.730
  181POPC   D2A 7096  15.160   9.914   8.433
  181POPC   C3A 7097  15.306   9.848   8.038
  181POPC   C4A 7098  15.472  10.102   7.741
  181POPC   C1B 7099  14.786   9.804   8.781
  181POPC   C2B 7100  14.707   9.715   8.336
  181POPC   C3B 7101  14.888   9.568   7.950
  181POPC   C4B 7102  15.315   9.372   7.820
  182POPC   NC3 7103  33.039  20.938   9.402
  182POPC   PO4 7104  33.341  20.300   9.400
  182POPC   GL1 7105  33.111  20.522   9.103
  182POPC   GL2 7106  32.820  20.358   9.174
  182POPC   C1A 7107  33.142  20.777   8.739
  182POPC   D2A 7108  32.981  20.682   8.332
  182POPC   C3A 7109  33.218  20.720   7.963
  182POPC   C4A 7110  33.048  20.830   7.602
  182POPC   C1B 7111  32.708  20.464   8.744
  182POPC   C2B 7112  32.681  20.214   8.386
  182POPC   C3B 7113  32.685  20.355   7.989
  182POPC   C4B 7114  32.944  20.327   7.623
  183POPC   NC3 7115   1.268  38.686   9.530
  183POPC   PO4 7116   1.644  38.292   9.208
  183POPC   GL1 7117   1.348  38.429   8.972
  183POPC   GL2 7118   1.081  38.644   9.052
  183POPC   C1A 7119   1.361  38.518   8.555
  183POPC   D2A 7120   1.573  38.680   8.237
  183POPC   C3A 7121   1.465  38.473   7.882
  183POPC   C4A 7122   1.758  38.530   7.605
  183POPC   C1B 7123   0.925  38.731   8.634
  183POPC   C2B 7124   1.007  38.608   8.180
  183POPC   C3B 7125   1.042  38.722   7.735
  183POPC   C4B 7126   0.910  38.677   7.294
  184POPC   NC3 7127  38.628  26.305   9.529
  184POPC   PO4 7128  38.359  25.623   9.445
  184POPC   GL1 7129  38.431  25.929   9.083
  184POPC   GL2 7130  38.595  26.271   9.044
  184POPC   C1A 7131  38.440  26.016   8.650
  184POPC   D2A 7132  38.401  25.731   8.343
  184POPC   C3A 7133  38.306  25.784   7.936
  184POPC   C4A 7134  38.317  26.165   7.720
  184POPC   C1B 7135  38.898  26.351   8.769
  184POPC   C2B 7136  38.964  26.172   8.417
  184POPC   C3B 7137  38.652  26.141   8.116
  184POPC   C4B 7138  38.775  26.400   7.785
  185POPC   NC3 7139  36.124  17.044   9.715
  185POPC   PO4 7140  35.797  17.623   9.539
  185POPC   GL1 7141  35.823  17.728   9.108
  185POPC   GL2 7142  36.140  17.746   9.108
  185POPC   C1A 7143  35.987  17.588   8.659
  185POPC   D2A 7144  36.290  17.369   8.357
  185POPC   C3A 7145  36.247  17.524   7.965
  185POPC   C4A 7146  35.845  17.677   7.957
  185POPC   C1B 7147  36.410  17.895   8.838
  185POPC   C2B 7148  36.378  17.873   8.415
  185POPC   C3B 7149  36.217  18.026   8.049
  185POPC   C4B 7150  36.102  18.001   7.618
  186POPC   NC3 7151  11.550  42.140   9.594
  186POPC   PO4 7152  11.105  42.579   9.597
  186POPC   GL1 7153  11.389  42.482   9.257
  186POPC   GL2 7154  11.232  42.224   9.172
  186POPC   C1A 7155  11.623  42.445   8.851
  186POPC   D2A 7156  11.648  42.226   8.455
  186POPC   C3A 7157  11.491  42.418   8.084
  186POPC   C4A 7158  11.218  42.660   7.805
  186POPC   C1B 7159  11.329  42.014   8.798
  186POPC   C2B 7160  11.090  41.998   8.446
  186POPC   C3B 7161  11.089  41.873   8.050
  186POPC   C4B 7162  11.223  42.132   7.744
  187POPC   NC3 7163   5.495  10.557   9.307
  187POPC   PO4 7164   5.952  10.232   9.585
  187POPC   GL1 7165   5.999  10.365   9.185
  187POPC   GL2 7166   5.714  10.119   9.106
  187POPC   C1A 7167   5.939  10.756   8.882
  187POPC   D2A 7168   5.893  10.716   8.432
  187POPC   C3A 7169   5.746  10.813   8.045
  187POPC   C4A 7170   5.897  10.663   7.642
  187POPC   C1B 7171   5.806  10.297   8.719
  187POPC   C2B 7172   6.101  10.247   8.398
  187POPC   C3B 7173   5.949  10.330   8.031
  187POPC   C4B 7174   5.834  10.171   7.658
  188POPC   NC3 7175  32.299  16.160   9.528
  188POPC   PO4 7176  31.806  16.579   9.368
  188POPC   GL1 7177  32.099  16.275   9.054
  188POPC   GL2 7178  32.397  16.021   9.052
  188POPC   C1A 7179  32.398  16.380   8.704
  188POPC   D2A 7180  32.286  16.317   8.254
  188POPC   C3A 7181  32.396  16.028   7.944
  188POPC   C4A 7182  32.114  15.662   7.868
  188POPC   C1B 7183  32.280  15.902   8.638
  188POPC   C2B 7184  32.426  15.632   8.311
  188POPC   C3B 7185  32.632  15.571   7.942
  188POPC   C4B 7186  32.463  15.415   7.586
  189POPC   NC3 7187  25.841  25.022   9.535
  189POPC   PO4 7188  26.463  25.185   9.583
  189POPC   GL1 7189  26.167  25.231   9.218
  189POPC   GL2 7190  26.181  25.503   9.084
  189POPC   C1A 7191  25.980  25.152   8.795
  189POPC   D2A 7192  25.790  25.206   8.420
  189POPC   C3A 7193  25.977  25.000   8.107
  189POPC   C4A 7194  25.914  25.132   7.674
  189POPC   C1B 7195  26.454  25.287   8.751
  189POPC   C2B 7196  26.347  25.316   8.345
  189POPC   C3B 7197  26.288  25.364   7.926
  189POPC   C4B 7198  26.479  25.176   7.574
  190POPC   NC3 7199  17.422  38.462   9.767
  190POPC   PO4 7200  17.788  38.000   9.348
  190POPC   GL1 7201  17.546  38.140   9.076
  190POPC   GL2 7202  17.390  38.414   9.227
  190POPC   C1A 7203  17.611  38.369   8.729
  190POPC   D2A 7204  17.761  38.493   8.360
  190POPC   C3A 7205  17.966  38.180   8.100
  190POPC   C4A 7206  17.653  38.153   7.800
  190POPC   C1B 7207  17.158  38.526   8.844
  190POPC   C2B 7208  17.174  38.666   8.368
  190POPC   C3B 7209  17.300  38.540   7.935
  190POPC   C4B 7210  17.080  38.419   7.537
  191POPC   NC3 7211  38.972  18.751   9.501
  191POPC   PO4 7212  38.622  19.275   9.261
  191POPC   GL1 7213  38.453  18.972   9.061
  191POPC   GL2 7214  38.753  18.806   9.060
  191POPC   C1A 7215  38.204  18.958   8.706
  191POPC   D2A 7216  38.384  19.023   8.321
  191POPC   C3A 7217  38.300  18.851   7.931
  191POPC   C4A 7218  38.498  19.170   7.680
  191POPC   C1B 7219  38.681  18.730   8.667
  191POPC   C2B 7220  38.868  18.854   8.288
  191POPC   C3B 7221  38.825  18.797   7.860
  191POPC   C4B 7222  38.590  18.681   7.490
  192POPC   NC3 7223  28.749  36.481   9.452
  192POPC   PO4 7224  29.352  36.152   9.435
  192POPC   GL1 7225  29.186  36.334   9.083
  192POPC   GL2 7226  28.832  36.253   9.002
  192POPC   C1A 7227  29.289  36.201   8.664
  192POPC   D2A 7228  29.460  36.257   8.242
  192POPC   C3A 7229  29.192  36.104   7.907
  192POPC   C4A 7230  29.228  36.130   7.460
  192POPC   C1B 7231  28.643  35.948   8.734
  192POPC   C2B 7232  28.603  36.023   8.334
  192POPC   C3B 7233  28.748  35.805   7.970
  192POPC   C4B 7234  28.751  36.031   7.604
  193POPC   NC3 7235  44.854  10.995   9.889
  193POPC   PO4 7236  44.447  11.454   9.487
  193POPC   GL1 7237  44.506  11.355   9.083
  193POPC   GL2 7238  44.409  10.954   9.100
  193POPC   C1A 7239  44.832  11.368   8.806
  193POPC   D2A 7240  44.710  11.320   8.403
  193POPC   C3A 7241  44.987  11.373   8.084
  193POPC   C4A 7242  44.820  11.344   7.694
  193POPC   C1B 7243  44.359  11.061   8.690
  193POPC   C2B 7244  44.496  10.840   8.367
  193POPC   C3B 7245  44.599  10.962   7.986
  193POPC   C4B 7246  44.387  11.084   7.636
  194POPC   NC3 7247  44.574  19.348   9.497
  194POPC   PO4 7248  44.743  18.733   9.474
  194POPC   GL1 7249  44.766  18.723   9.050
  194POPC   GL2 7250  44.616  19.063   9.033
  194POPC   C1A 7251  44.719  18.761   8.615
  194POPC   D2A 7252  44.528  19.060   8.351
  194POPC   C3A 7253  44.636  18.946   7.966
  194POPC   C4A 7254  44.355  18.858   7.668
  194POPC   C1B 7255  44.737  19.400   8.727
  194POPC   C2B 7256  44.640  19.565   8.328
  194POPC   C3B 7257  44.481  19.428   7.959
  194POPC   C4B 7258  44.704  19.295   7.584
  195POPC   NC3 7259  11.939  26.669   9.561
  195POPC   PO4 7260  12.462  26.751   9.220
  195POPC   GL1 7261  12.098  26.778   9.018
  195POPC   GL2 7262  11.796  26.916   9.122
  195POPC   C1A 7263  12.175  26.767   8.584
  195POPC   D2A 7264  12.420  26.674   8.238
  195POPC   C3A 7265  12.271  26.880   7.861
  195POPC   C4A 7266  12.055  26.683   7.509
  195POPC   C1B 7267  11.733  27.004   8.657
  195POPC   C2B 7268  11.884  26.971   8.213
  195POPC   C3B 7269  11.735  27.001   7.803
  195POPC   C4B 7270  11.871  27.141   7.386
  196POPC   NC3 7271  26.467  36.521   9.407
  196POPC   PO4 7272  26.840  35.972   9.585
  196POPC   GL1 7273  26.746  36.130   9.203
  196POPC   GL2 7274  26.412  36.034   9.298
  196POPC   C1A 7275  26.887  36.050   8.778
  196POPC   D2A 7276  27.103  35.960   8.393
  196POPC   C3A 7277  26.795  35.958   8.100
  196POPC   C4A 7278  26.763  36.248   7.784
  196POPC   C1B 7279  26.513  35.755   8.951
  196POPC   C2B 7280  26.499  35.793   8.517
  196POPC   C3B 7281  26.366  35.614   8.141
  196POPC   C4B 7282  26.389  35.890   7.782
  197POPC   NC3 7283  10.142  34.844   9.471
  197POPC   PO4 7284   9.644  34.359   9.577
  197POPC   GL1 7285   9.848  34.475   9.210
  197POPC   GL2 7286   9.497  34.597   9.114
  197POPC   C1A 7287   9.899  34.660   8.796
  197POPC   D2A 7288   9.620  34.613   8.458
  197POPC   C3A 7289   9.889  34.737   8.075
  197POPC   C4A 7290   9.964  34.624   7.658
  197POPC   C1B 7291   9.477  34.222   8.907
  197POPC   C2B 7292   9.313  34.149   8.502
  197POPC   C3B 7293   9.523  34.229   8.131
  197POPC   C4B 7294   9.603  34.277   7.717
  198POPC   NC3 7295   9.467   3.468   9.488
  198POPC   PO4 7296  10.038   3.728   9.505
  198POPC   GL1 7297   9.882   3.587   9.119
  198POPC   GL2 7298   9.711   3.283   9.069
  198POPC   C1A 7299   9.706   3.669   8.721
  198POPC   D2A 7300   9.569   3.576   8.314
  198POPC   C3A 7301   9.874   3.754   8.077
  198POPC   C4A 7302   9.929   3.992   7.736
  198POPC   C1B 7303   9.376   3.232   8.731
  198POPC   C2B 7304   9.240   3.185   8.270
  198POPC   C3B 7305   9.504   3.139   7.871
  198POPC   C4B 7306   9.678   3.207   7.429
  199POPC   NC3 7307  14.514  44.307   9.315
  199POPC   PO4 7308  14.628  44.844   9.678
  199POPC   GL1 7309  14.377  44.947   9.187
  199POPC   GL2 7310  14.221  44.638   9.065
  199POPC   C1A 7311  14.459  44.884   8.685
  199POPC   D2A 7312  14.244  44.711   8.421
  199POPC   C3A 7313  14.441  44.624   8.124
  199POPC   C4A 7314  14.450  44.844   7.765
  199POPC   C1B 7315  14.021  44.389   8.713
  199POPC   C2B 7316  14.152  44.184   8.331
  199POPC   C3B 7317  14.051  44.332   7.991
  199POPC   C4B 7318  14.366  44.365   7.694
  200POPC   NC3 7319  30.380  20.586   9.443
  200POPC   PO4 7320  29.776  20.972   9.540
  200POPC   GL1 7321  29.970  20.776   9.161
  200POPC   GL2 7322  29.697  20.632   8.991
  200POPC   C1A 7323  30.137  20.651   8.723
  200POPC   D2A 7324  30.257  20.799   8.291
  200POPC   C3A 7325  30.016  20.740   7.877
  200POPC   C4A 7326  29.654  20.767   7.576
  200POPC   C1B 7327  29.666  20.323   8.698
  200POPC   C2B 7328  29.831  20.436   8.304
  200POPC   C3B 7329  29.837  20.245   7.932
  200POPC   C4B 7330  29.671  20.236   7.563
  201POPC   NC3 7331   7.535  22.458   9.551
  201POPC   PO4 7332   7.412  23.122   9.571
  201POPC   GL1 7333   7.420  22.835   9.206
  201POPC   GL2 7334   7.754  22.730   9.122
  201POPC   C1A 7335   7.294  22.787   8.778
  201POPC   D2A 7336   7.459  22.762   8.349
  201POPC   C3A 7337   7.220  22.776   7.958
  201POPC   C4A 7338   7.380  22.955   7.578
  201POPC   C1B 7339   7.736  22.522   8.722
  201POPC   C2B 7340   7.685  22.316   8.315
  201POPC   C3B 7341   7.676  22.554   7.909
  201POPC   C4B 7342   7.656  22.568   7.418
  202POPC   NC3 7343  32.612   9.706   9.420
  202POPC   PO4 7344  32.104   9.457   9.653
  202POPC   GL1 7345  32.208   9.454   9.222
  202POPC   GL2 7346  32.504   9.286   9.158
  202POPC   C1A 7347  32.242   9.716   8.840
  202POPC   D2A 7348  31.969   9.909   8.512
  202POPC   C3A 7349  32.099   9.894   8.082
  202POPC   C4A 7350  32.485   9.934   7.862
  202POPC   C1B 7351  32.380   9.218   8.742
  202POPC   C2B 7352  32.208   9.454   8.378
  202POPC   C3B 7353  32.320   9.423   7.948
  202POPC   C4B 7354  32.396   9.492   7.522
  203POPC   NC3 7355  34.975  11.516   9.559
  203POPC   PO4 7356  35.686  11.509   9.749
  203POPC   GL1 7357  35.530  11.502   9.275
  203POPC   GL2 7358  35.181  11.378   9.095
  203POPC   C1A 7359  35.608  11.482   8.809
  203POPC   D2A 7360  35.383  11.525   8.436
  203POPC   C3A 7361  35.427  11.247   8.131
  203POPC   C4A 7362  35.436  11.388   7.708
  203POPC   C1B 7363  35.266  11.097   8.694
  203POPC   C2B 7364  35.000  10.999   8.310
  203POPC   C3B 7365  35.021  11.115   7.861
  203POPC   C4B 7366  35.265  10.976   7.482
  204POPC   NC3 7367  25.776  19.387   9.393
  204POPC   PO4 7368  26.287  18.920   9.558
  204POPC   GL1 7369  26.131  18.912   9.153
  204POPC   GL2 7370  25.769  18.855   9.197
  204POPC   C1A 7371  26.002  19.165   8.787
  204POPC   D2A 7372  26.135  19.367   8.395
  204POPC   C3A 7373  26.004  19.182   7.998
  204POPC   C4A 7374  26.078  19.349   7.613
  204POPC   C1B 7375  25.837  18.654   8.801
  204POPC   C2B 7376  25.648  18.625   8.400
  204POPC   C3B 7377  25.824  18.666   7.969
  204POPC   C4B 7378  25.938  18.837   7.571
  205POPC   NC3 7379  31.841  41.062   9.546
  205POPC   PO4 7380  32.393  40.700   9.585
  205POPC   GL1 7381  32.277  40.695   9.138
  205POPC   GL2 7382  32.607  40.602   9.101
  205POPC   C1A 7383  32.233  40.889   8.768
  205POPC   D2A 7384  32.206  40.710   8.370
  205POPC   C3A 7385  32.327  40.899   8.003
  205POPC   C4A 7386  32.199  41.117   7.663
  205POPC   C1B 7387  32.495  40.432   8.730
  205POPC   C2B 7388  32.606  40.387   8.322
  205POPC   C3B 7389  32.497  40.409   7.907
  205POPC   C4B 7390  32.763  40.612   7.616
  206POPC   NC3 7391  25.144  40.187   9.345
  206POPC   PO4 7392  25.667  39.888   9.546
  206POPC   GL1 7393  25.480  39.867   9.121
  206POPC   GL2 7394  25.133  39.696   9.148
  206POPC   C1A 7395  25.388  39.829   8.668
  206POPC   D2A 7396  25.141  40.096   8.414
  206POPC   C3A 7397  25.241  40.258   8.001
  206POPC   C4A 7398  25.414  40.046   7.648
  206POPC   C1B 7399  24.925  39.615   8.740
  206POPC   C2B 7400  25.075  39.594   8.306
  206POPC   C3B 7401  24.958  39.846   7.938
  206POPC   C4B 7402  24.998  39.767   7.525
  207POPC   NC3 7403  24.303  35.023   9.373
  207POPC   PO4 7404  24.732  35.509   9.544
  207POPC   GL1 7405  24.560  35.431   9.149
  207POPC   GL2 7406  24.252  35.616   9.221
  207POPC   C1A 7407  24.633  35.137   8.767
  207POPC   D2A 7408  24.610  35.033   8.317
  207POPC   C3A 7409  24.722  35.406   8.066
  207POPC   C4A 7410  24.730  35.156   7.701
  207POPC   C1B 7411  24.176  35.378   8.814
  207POPC   C2B 7412  24.335  35.447   8.422
  207POPC   C3B 7413  24.244  35.265   8.030
  207POPC   C4B 7414  23.938  35.245   7.744
  208POPC   NC3 7415  33.793  35.493   9.665
  208POPC   PO4 7416  33.693  34.925   9.477
  208POPC   GL1 7417  33.893  35.149   9.154
  208POPC   GL2 7418  33.699  35.461   9.165
  208POPC   C1A 7419  33.924  35.331   8.727
  208POPC   D2A 7420  33.710  35.309   8.325
  208POPC   C3A 7421  33.951  35.295   7.955
  208POPC   C4A 7422  34.010  35.592   7.645
  208POPC   C1B 7423  33.676  35.784   8.851
  208POPC   C2B 7424  33.840  35.790   8.455
  208POPC   C3B 7425  33.658  35.739   8.044
  208POPC   C4B 7426  33.602  35.923   7.652
  209POPC   NC3 7427  30.972  21.464   9.407
  209POPC   PO4 7428  30.381  21.768   9.546
  209POPC   GL1 7429  30.512  21.481   9.130
  209POPC   GL2 7430  30.355  21.122   9.068
  209POPC   C1A 7431  30.830  21.431   8.751
  209POPC   D2A 7432  31.107  21.464   8.353
  209POPC   C3A 7433  30.931  21.258   7.990
  209POPC   C4A 7434  30.871  21.208   7.557
  209POPC   C1B 7435  30.510  21.008   8.709
  209POPC   C2B 7436  30.513  21.270   8.378
  209POPC   C3B 7437  30.257  21.291   8.091
  209POPC   C4B 7438  30.432  21.102   7.786
  210POPC   NC3 7439  44.567   6.757   9.335
  210POPC   PO4 7440  44.126   6.287   9.332
  210POPC   GL1 7441  44.455   6.275   9.005
  210POPC   GL2 7442  44.771   6.499   8.957
  210POPC   C1A 7443  44.503   6.356   8.548
  210POPC   D2A 7444  44.713   6.637   8.231
  210POPC   C3A 7445  44.559   6.629   7.810
  210POPC   C4A 7446  44.425   6.325   7.484
  210POPC   C1B 7447  44.696   6.874   8.690
  210POPC   C2B 7448  44.527   7.128   8.348
  210POPC   C3B 7449  44.413   7.097   7.927
  210POPC   C4B 7450  44.720   7.049   7.575
  211POPC   NC3 7451   3.153  19.057   9.335
  211POPC   PO4 7452   3.800  19.182   9.545
  211POPC   GL1 7453   3.627  19.191   9.137
  211POPC   GL2 7454   3.574  18.857   9.072
  211POPC   C1A 7455   3.389  19.195   8.736
  211POPC   D2A 7456   3.586  19.070   8.392
  211POPC   C3A 7457   3.531  19.223   8.016
  211POPC   C4A 7458   3.211  19.155   7.745
  211POPC   C1B 7459   3.779  18.677   8.688
  211POPC   C2B 7460   3.963  18.761   8.268
  211POPC   C3B 7461   3.828  18.785   7.856
  211POPC   C4B 7462   3.622  18.667   7.432
  212POPC   NC3 7463  37.386  27.693   9.432
  212POPC   PO4 7464  36.778  27.375   9.515
  212POPC   GL1 7465  36.863  27.626   9.175
  212POPC   GL2 7466  36.599  27.887   9.133
  212POPC   C1A 7467  36.923  27.405   8.793
  212POPC   D2A 7468  36.911  27.156   8.410
  212POPC   C3A 7469  37.161  27.396   8.089
  212POPC   C4A 7470  37.209  27.564   7.648
  212POPC   C1B 7471  36.571  27.782   8.751
  212POPC   C2B 7472  36.765  27.639   8.377
  212POPC   C3B 7473  36.592  27.384   8.069
  212POPC   C4B 7474  36.650  27.445   7.645
  213POPC   NC3 7475  30.349   8.880   9.364
  213POPC   PO4 7476  30.949   8.770   9.499
  213POPC   GL1 7477  30.995   8.795   9.056
  213POPC   GL2 7478  30.721   9.005   9.022
  213POPC   C1A 7479  30.943   8.836   8.606
  213POPC   D2A 7480  30.650   8.873   8.297
  213POPC   C3A 7481  30.880   8.926   7.933
  213POPC   C4A 7482  30.993   9.232   7.650
  213POPC   C1B 7483  30.378   9.054   8.723
  213POPC   C2B 7484  30.096   9.303   8.515
  213POPC   C3B 7485  30.140   9.344   8.064
  213POPC   C4B 7486  30.353   9.005   7.848
  214POPC   NC3 7487  23.103  33.451   9.568
  214POPC   PO4 7488  23.731  33.301   9.696
  214POPC   GL1 7489  23.681  33.229   9.250
  214POPC   GL2 7490  23.908  33.441   9.100
  214POPC   C1A 7491  23.893  32.960   8.908
  214POPC   D2A 7492  24.021  33.004   8.448
  214POPC   C3A 7493  23.851  32.921   8.003
  214POPC   C4A 7494  23.410  32.857   7.877
  214POPC   C1B 7495  23.760  33.398   8.671
  214POPC   C2B 7496  23.710  33.365   8.219
  214POPC   C3B 7497  23.642  33.356   7.763
  214POPC   C4B 7498  23.919  33.152   7.412
  215POPC   NC3 7499  22.787  26.065   9.591
  215POPC   PO4 7500  22.080  26.203   9.725
  215POPC   GL1 7501  22.104  25.990   9.251
  215POPC   GL2 7502  22.108  26.223   9.001
  215POPC   C1A 7503  22.054  25.812   8.760
  215POPC   D2A 7504  22.296  25.761   8.352
  215POPC   C3A 7505  22.147  25.956   7.960
  215POPC   C4A 7506  21.858  25.837   7.625
  215POPC   C1B 7507  22.239  26.418   8.669
  215POPC   C2B 7508  22.387  26.290   8.292
  215POPC   C3B 7509  22.378  26.478   7.935
  215POPC   C4B 7510  22.231  26.649   7.595
  216POPC   NC3 7511  13.474  24.241   9.476
  216POPC   PO4 7512  13.917  24.681   9.237
  216POPC   GL1 7513  13.612  24.486   9.009
  216POPC   GL2 7514  13.296  24.619   9.160
  216POPC   C1A 7515  13.788  24.371   8.601
  216POPC   D2A 7516  14.045  24.664   8.362
  216POPC   C3A 7517  13.966  24.685   7.918
  216POPC   C4A 7518  13.640  24.432   7.826
  216POPC   C1B 7519  13.188  24.508   8.726
  216POPC   C2B 7520  13.371  24.508   8.322
  216POPC   C3B 7521  13.255  24.740   7.992
  216POPC   C4B 7522  13.341  24.716   7.515
  217POPC   NC3 7523  15.571  38.640   9.590
  217POPC   PO4 7524  14.906  38.379   9.547
  217POPC   GL1 7525  15.034  38.450   9.146
  217POPC   GL2 7526  15.376  38.346   9.207
  217POPC   C1A 7527  15.109  38.238   8.749
  217POPC   D2A 7528  15.293  38.053   8.377
  217POPC   C3A 7529  15.163  38.313   8.032
  217POPC   C4A 7530  14.951  38.504   7.713
  217POPC   C1B 7531  15.447  38.625   8.861
  217POPC   C2B 7532  15.295  38.616   8.442
  217POPC   C3B 7533  15.486  38.752   8.062
  217POPC   C4B 7534  15.579  38.631   7.681
  218POPC   NC3 7535   2.918   6.306   9.545
  218POPC   PO4 7536   2.334   6.019   9.489
  218POPC   GL1 7537   2.617   6.053   9.177
  218POPC   GL2 7538   2.679   5.694   9.152
  218POPC   C1A 7539   2.566   5.991   8.751
  218POPC   D2A 7540   2.400   5.748   8.425
  218POPC   C3A 7541   2.507   5.974   8.071
  218POPC   C4A 7542   2.775   6.055   7.738
  218POPC   C1B 7543   2.901   5.612   8.756
  218POPC   C2B 7544   2.914   5.801   8.338
  218POPC   C3B 7545   2.946   5.604   7.934
  218POPC   C4B 7546   3.154   5.731   7.539
  219POPC   NC3 7547  14.106   5.230   9.402
  219POPC   PO4 7548  14.788   5.162   9.573
  219POPC   GL1 7549  14.549   5.030   9.163
  219POPC   GL2 7550  14.207   4.891   9.033
  219POPC   C1A 7551  14.462   5.226   8.739
  219POPC   D2A 7552  14.575   5.423   8.333
  219POPC   C3A 7553  14.397   5.152   8.024
  219POPC   C4A 7554  14.277   5.154   7.605
  219POPC   C1B 7555  14.005   4.934   8.586
  219POPC   C2B 7556  13.999   4.805   8.125
  219POPC   C3B 7557  13.904   4.810   7.676
  219POPC   C4B 7558  13.925   5.049   7.249
  220POPC   NC3 7559  15.104  41.970  10.003
  220POPC   PO4 7560  14.780  42.450   9.626
  220POPC   GL1 7561  15.065  42.257   9.335
  220POPC   GL2 7562  14.934  41.936   9.223
  220POPC   C1A 7563  15.194  42.277   8.909
  220POPC   D2A 7564  15.118  42.219   8.475
  220POPC   C3A 7565  15.380  42.302   8.116
  220POPC   C4A 7566  15.231  42.313   7.673
  220POPC   C1B 7567  14.711  42.034   8.816
  220POPC   C2B 7568  14.601  42.272   8.438
  220POPC   C3B 7569  14.802  42.178   8.025
  220POPC   C4B 7570  14.803  42.078   7.575
  221POPC   NC3 7571  11.808   1.999   9.649
  221POPC   PO4 7572  12.497   2.159   9.677
  221POPC   GL1 7573  12.218   2.224   9.255
  221POPC   GL2 7574  11.895   2.065   9.153
  221POPC   C1A 7575  12.233   2.086   8.780
  221POPC   D2A 7576  12.015   2.178   8.392
  221POPC   C3A 7577  12.208   2.046   8.015
  221POPC   C4A 7578  12.136   1.718   7.718
  221POPC   C1B 7579  11.762   1.859   8.753
  221POPC   C2B 7580  11.778   1.755   8.301
  221POPC   C3B 7581  11.723   1.949   7.904
  221POPC   C4B 7582  11.513   1.828   7.544
  222POPC   NC3 7583  19.356  31.821   9.479
  222POPC   PO4 7584  18.880  31.523   9.806
  222POPC   GL1 7585  19.000  31.449   9.311
  222POPC   GL2 7586  19.353  31.306   9.206
  222POPC   C1A 7587  18.991  31.315   8.827
  222POPC   D2A 7588  19.176  31.192   8.374
  222POPC   C3A 7589  18.931  31.233   7.961
  222POPC   C4A 7590  18.796  31.618   7.722
  222POPC   C1B 7591  19.492  31.398   8.756
  222POPC   C2B 7592  19.369  31.710   8.399
  222POPC   C3B 7593  19.281  31.787   7.949
  222POPC   C4B 7594  19.383  31.399   7.798
  223POPC   NC3 7595  26.879  14.065   9.581
  223POPC   PO4 7596  27.035  14.685   9.636
  223POPC   GL1 7597  26.785  14.512   9.211
  223POPC   GL2 7598  26.847  14.189   9.081
  223POPC   C1A 7599  26.838  14.487   8.700
  223POPC   D2A 7600  26.968  14.199   8.334
  223POPC   C3A 7601  26.841  14.409   7.949
  223POPC   C4A 7602  26.537  14.737   7.924
  223POPC   C1B 7603  26.564  14.058   8.731
  223POPC   C2B 7604  26.570  13.832   8.382
  223POPC   C3B 7605  26.615  13.965   8.004
  223POPC   C4B 7606  26.802  14.001   7.646
  224POPC   NC3 7607  28.431  40.571   9.686
  224POPC   PO4 7608  29.100  40.893   9.484
  224POPC   GL1 7609  29.302  40.809   9.121
  224POPC   GL2 7610  29.020  40.759   8.908
  224POPC   C1A 7611  29.408  40.993   8.722
  224POPC   D2A 7612  29.304  40.739   8.383
  224POPC   C3A 7613  29.335  40.967   8.020
  224POPC   C4A 7614  29.452  40.842   7.639
  224POPC   C1B 7615  28.738  40.648   8.612
  224POPC   C2B 7616  28.836  40.427   8.292
  224POPC   C3B 7617  29.084  40.498   7.974
  224POPC   C4B 7618  28.857  40.387   7.648
  225POPC   NC3 7619  23.986  24.579   9.496
  225POPC   PO4 7620  23.508  24.093   9.462
  225POPC   GL1 7621  23.770  24.288   9.083
  225POPC   GL2 7622  24.024  24.577   9.013
  225POPC   C1A 7623  23.648  24.507   8.671
  225POPC   D2A 7624  23.502  24.384   8.258
  225POPC   C3A 7625  23.539  24.633   7.907
  225POPC   C4A 7626  23.648  24.261   7.687
  225POPC   C1B 7627  24.153  24.452   8.629
  225POPC   C2B 7628  24.000  24.613   8.246
  225POPC   C3B 7629  24.093  24.518   7.817
  225POPC   C4B 7630  24.073  24.811   7.487
  226POPC   NC3 7631   1.283  14.617   9.474
  226POPC   PO4 7632   1.097  13.966   9.404
  226POPC   GL1 7633   1.194  14.234   9.114
  226POPC   GL2 7634   0.899  14.470   9.193
  226POPC   C1A 7635   1.435  14.257   8.734
  226POPC   D2A 7636   1.329  14.336   8.349
  226POPC   C3A 7637   1.320  14.579   8.019
  226POPC   C4A 7638   1.411  14.448   7.579
  226POPC   C1B 7639   1.104  14.634   8.813
  226POPC   C2B 7640   0.892  14.611   8.434
  226POPC   C3B 7641   0.865  14.792   8.045
  226POPC   C4B 7642   0.927  14.612   7.672
  227POPC   NC3 7643  22.449  10.327   9.537
  227POPC   PO4 7644  22.082  10.936   9.440
  227POPC   GL1 7645  22.049  10.769   9.055
  227POPC   GL2 7646  22.159  10.450   9.077
  227POPC   C1A 7647  22.283  10.760   8.663
  227POPC   D2A 7648  22.458  10.652   8.316
  227POPC   C3A 7649  22.241  10.747   8.020
  227POPC   C4A 7650  22.452  10.624   7.726
  227POPC   C1B 7651  21.888  10.435   8.684
  227POPC   C2B 7652  22.002  10.400   8.283
  227POPC   C3B 7653  22.196  10.209   7.902
  227POPC   C4B 7654  21.968  10.048   7.542
  228POPC   NC3 7655   0.720   6.838   9.427
  228POPC   PO4 7656   0.015   6.582   9.437
  228POPC   GL1 7657   0.259   6.420   9.086
  228POPC   GL2 7658   0.587   6.384   9.197
  228POPC   C1A 7659   0.217   6.519   8.644
  228POPC   D2A 7660   0.308   6.513   8.190
  228POPC   C3A 7661   0.094   6.756   7.872
  228POPC   C4A 7662   0.339   7.062   7.659
  228POPC   C1B 7663   0.697   6.629   8.821
  228POPC   C2B 7664   0.801   6.451   8.443
  228POPC   C3B 7665   0.839   6.605   8.092
  228POPC   C4B 7666   0.605   6.620   7.774
  229POPC   NC3 7667  40.854   8.640   9.550
  229POPC   PO4 7668  40.587   7.973   9.714
  229POPC   GL1 7669  40.630   8.077   9.203
  229POPC   GL2 7670  40.586   8.427   9.135
  229POPC   C1A 7671  40.858   8.141   8.784
  229POPC   D2A 7672  40.773   7.953   8.372
  229POPC   C3A 7673  40.942   8.148   7.991
  229POPC   C4A 7674  40.920   8.123   7.553
  229POPC   C1B 7675  40.509   8.550   8.673
  229POPC   C2B 7676  40.697   8.580   8.214
  229POPC   C3B 7677  40.729   8.556   7.735
  229POPC   C4B 7678  40.768   8.484   7.226
  230POPC   NC3 7679  43.631  18.977   9.404
  230POPC   PO4 7680  42.983  18.954   9.575
  230POPC   GL1 7681  43.066  19.029   9.167
  230POPC   GL2 7682  43.332  18.860   9.037
  230POPC   C1A 7683  43.055  19.195   8.767
  230POPC   D2A 7684  43.250  19.122   8.398
  230POPC   C3A 7685  43.041  19.015   8.005
  230POPC   C4A 7686  42.885  19.204   7.585
  230POPC   C1B 7687  43.273  18.691   8.673
  230POPC   C2B 7688  43.351  18.648   8.252
  230POPC   C3B 7689  43.361  18.609   7.850
  230POPC   C4B 7690  43.016  18.697   7.619
  231POPC   NC3 7691  30.591  33.716   9.489
  231POPC   PO4 7692  31.171  33.856   9.575
  231POPC   GL1 7693  30.930  34.006   9.195
  231POPC   GL2 7694  30.569  34.128   9.152
  231POPC   C1A 7695  30.777  33.805   8.812
  231POPC   D2A 7696  30.788  33.889   8.386
  231POPC   C3A 7697  30.677  33.574   8.065
  231POPC   C4A 7698  30.751  33.868   7.710
  231POPC   C1B 7699  30.283  33.945   8.837
  231POPC   C2B 7700  30.278  33.743   8.421
  231POPC   C3B 7701  30.324  33.938   8.002
  231POPC   C4B 7702  30.178  34.040   7.596
  232POPC   NC3 7703  36.286  31.656   9.234
  232POPC   PO4 7704  35.838  31.239   9.449
  232POPC   GL1 7705  35.961  31.185   9.030
  232POPC   GL2 7706  36.326  31.177   9.006
  232POPC   C1A 7707  35.998  31.479   8.663
  232POPC   D2A 7708  36.083  31.705   8.276
  232POPC   C3A 7709  36.065  31.453   7.895
  232POPC   C4A 7710  36.107  31.255   7.496
  232POPC   C1B 7711  36.575  31.346   8.661
  232POPC   C2B 7712  36.616  31.721   8.395
  232POPC   C3B 7713  36.498  31.738   7.961
  232POPC   C4B 7714  36.569  31.403   7.673
  233POPC   NC3 7715  13.119  22.700   9.483
  233POPC   PO4 7716  12.413  22.541   9.467
  233POPC   GL1 7717  12.549  22.753   9.103
  233POPC   GL2 7718  12.907  22.796   9.045
  233POPC   C1A 7719  12.557  22.952   8.700
  233POPC   D2A 7720  12.498  23.267   8.400
  233POPC   C3A 7721  12.651  23.147   8.005
  233POPC   C4A 7722  12.945  23.314   7.738
  233POPC   C1B 7723  13.083  22.936   8.698
  233POPC   C2B 7724  13.057  23.084   8.315
  233POPC   C3B 7725  13.101  22.872   7.923
  233POPC   C4B 7726  13.041  22.763   7.520
  234POPC   NC3 7727  36.065  34.213   9.339
  234POPC   PO4 7728  36.235  34.836   9.458
  234POPC   GL1 7729  36.218  34.900   9.040
  234POPC   GL2 7730  35.899  34.734   9.029
  234POPC   C1A 7731  36.261  34.629   8.661
  234POPC   D2A 7732  36.319  34.383   8.256
  234POPC   C3A 7733  36.365  34.688   7.915
  234POPC   C4A 7734  36.081  34.821   7.606
  234POPC   C1B 7735  35.736  34.541   8.647
  234POPC   C2B 7736  35.555  34.442   8.230
  234POPC   C3B 7737  35.777  34.255   7.874
  234POPC   C4B 7738  36.171  34.297   7.655
  235POPC   NC3 7739  31.390   0.422   9.356
  235POPC   PO4 7740  31.909  44.986   9.363
  235POPC   GL1 7741  31.494  44.985   9.096
  235POPC   GL2 7742  31.102   0.053   9.098
  235POPC   C1A 7743  31.422   0.194   8.702
  235POPC   D2A 7744  31.588   0.047   8.326
  235POPC   C3A 7745  31.527   0.343   7.964
  235POPC   C4A 7746  31.918   0.537   7.806
  235POPC   C1B 7747  30.993   0.458   8.816
  235POPC   C2B 7748  31.118   0.704   8.450
  235POPC   C3B 7749  31.197   0.743   7.977
  235POPC   C4B 7750  31.241   0.546   7.552
  236POPC   NC3 7751  32.305  40.277   9.406
  236POPC   PO4 7752  31.949  39.749   9.597
  236POPC   GL1 7753  32.062  39.885   9.207
  236POPC   GL2 7754  31.873  40.218   9.153
  236POPC   C1A 7755  32.268  39.968   8.836
  236POPC   D2A 7756  32.284  39.763   8.478
  236POPC   C3A 7757  32.467  39.932   8.151
  236POPC   C4A 7758  32.424  39.868   7.734
  236POPC   C1B 7759  31.968  40.426   8.791
  236POPC   C2B 7760  32.093  40.231   8.444
  236POPC   C3B 7761  32.003  40.142   8.080
  236POPC   C4B 7762  32.068  40.221   7.696
  237POPC   NC3 7763  39.242  40.939   9.660
  237POPC   PO4 7764  39.045  41.569   9.626
  237POPC   GL1 7765  39.024  41.403   9.202
  237POPC   GL2 7766  39.356  41.219   9.163
  237POPC   C1A 7767  38.931  41.648   8.805
  237POPC   D2A 7768  39.186  41.636   8.428
  237POPC   C3A 7769  39.092  41.484   8.021
  237POPC   C4A 7770  39.309  41.294   7.672
  237POPC   C1B 7771  39.446  41.647   8.928
  237POPC   C2B 7772  39.523  41.973   8.580
  237POPC   C3B 7773  39.535  41.877   8.118
  237POPC   C4B 7774  39.454  41.811   7.680
  238POPC   NC3 7775   5.950  12.246   9.551
  238POPC   PO4 7776   6.306  11.722   9.279
  238POPC   GL1 7777   6.056  12.031   9.062
  238POPC   GL2 7778   6.173  12.355   9.108
  238POPC   C1A 7779   5.803  12.068   8.666
  238POPC   D2A 7780   5.862  11.853   8.263
  238POPC   C3A 7781   5.687  11.868   7.886
  238POPC   C4A 7782   5.896  12.232   7.763
  238POPC   C1B 7783   6.155  12.472   8.702
  238POPC   C2B 7784   6.001  12.375   8.291
  238POPC   C3B 7785   6.219  12.560   7.984
  238POPC   C4B 7786   6.430  12.503   7.610
  239POPC   NC3 7787  27.742  44.078   9.685
  239POPC   PO4 7788  27.197  43.685   9.627
  239POPC   GL1 7789  27.533  43.701   9.253
  239POPC   GL2 7790  27.816  43.459   9.243
  239POPC   C1A 7791  27.563  44.006   8.872
  239POPC   D2A 7792  27.666  43.891   8.423
  239POPC   C3A 7793  27.643  44.066   7.975
  239POPC   C4A 7794  27.469  44.045   7.559
  239POPC   C1B 7795  27.882  43.596   8.797
  239POPC   C2B 7796  27.907  43.434   8.384
  239POPC   C3B 7797  27.688  43.554   8.046
  239POPC   C4B 7798  27.685  43.609   7.656
  240POPC   NC3 7799   8.589  35.408   9.447
  240POPC   PO4 7800   9.120  35.844   9.410
  240POPC   GL1 7801   8.917  35.555   9.079
  240POPC   GL2 7802   8.543  35.507   8.962
  240POPC   C1A 7803   9.003  35.321   8.719
  240POPC   D2A 7804   9.236  35.382   8.368
  240POPC   C3A 7805   9.041  35.184   8.003
  240POPC   C4A 7806   9.224  35.192   7.577
  240POPC   C1B 7807   8.682  35.735   8.611
  240POPC   C2B 7808   8.958  35.807   8.261
  240POPC   C3B 7809   9.250  35.641   7.928
  240POPC   C4B 7810   8.895  35.575   7.671
  241POPC   NC3 7811   5.085  15.784   9.515
  241POPC   PO4 7812   5.169  16.401   9.696
  241POPC   GL1 7813   5.156  16.215   9.224
  241POPC   GL2 7814   5.444  16.379   9.076
  241POPC   C1A 7815   4.965  15.985   8.811
  241POPC   D2A 7816   4.849  15.958   8.336
  241POPC   C3A 7817   5.071  15.913   7.915
  241POPC   C4A 7818   5.093  15.785   7.434
  241POPC   C1B 7819   5.328  16.307   8.689
  241POPC   C2B 7820   5.306  16.204   8.276
  241POPC   C3B 7821   5.374  16.448   7.925
  241POPC   C4B 7822   5.337  16.203   7.592
  242POPC   NC3 7823   8.002  43.064   9.560
  242POPC   PO4 7824   7.339  43.148   9.512
  242POPC   GL1 7825   7.461  43.242   9.103
  242POPC   GL2 7826   7.733  43.006   9.092
  242POPC   C1A 7827   7.624  43.299   8.695
  242POPC   D2A 7828   7.785  43.196   8.344
  242POPC   C3A 7829   7.468  43.273   8.109
  242POPC   C4A 7830   7.406  43.198   7.675
  242POPC   C1B 7831   7.390  42.855   8.774
  242POPC   C2B 7832   7.455  42.798   8.310
  242POPC   C3B 7833   7.741  42.870   7.933
  242POPC   C4B 7834   7.648  42.764   7.478
  243POPC   NC3 7835   5.113  36.718   9.507
  243POPC   PO4 7836   5.640  36.724   9.306
  243POPC   GL1 7837   5.276  36.602   8.992
  243POPC   GL2 7838   4.916  36.676   9.048
  243POPC   C1A 7839   4.981  36.394   8.660
  243POPC   D2A 7840   4.636  36.557   8.437
  243POPC   C3A 7841   4.854  36.707   8.084
  243POPC   C4A 7842   4.861  36.691   7.661
  243POPC   C1B 7843   4.934  36.921   8.665
  243POPC   C2B 7844   4.911  37.191   8.282
  243POPC   C3B 7845   4.939  37.189   7.818
  243POPC   C4B 7846   4.995  37.271   7.386
  244POPC   NC3 7847  30.812  44.059   9.402
  244POPC   PO4 7848  30.521  43.526   9.670
  244POPC   GL1 7849  30.456  43.723   9.245
  244POPC   GL2 7850  30.756  43.607   9.050
  244POPC   C1A 7851  30.459  43.898   8.789
  244POPC   D2A 7852  30.769  43.716   8.488
  244POPC   C3A 7853  30.617  43.682   8.090
  244POPC   C4A 7854  30.409  43.893   7.761
  244POPC   C1B 7855  31.113  43.432   8.798
  244POPC   C2B 7856  31.315  43.496   8.387
  244POPC   C3B 7857  31.142  43.771   8.077
  244POPC   C4B 7858  30.917  43.720   7.684
  245POPC   NC3 7859   1.036  39.482   9.960
  245POPC   PO4 7860   1.384  39.138   9.625
  245POPC   GL1 7861   1.265  39.122   9.197
  245POPC   GL2 7862   1.108  39.443   9.083
  245POPC   C1A 7863   1.363  39.013   8.778
  245POPC   D2A 7864   1.236  39.035   8.366
  245POPC   C3A 7865   1.176  39.344   8.086
  245POPC   C4A 7866   1.404  39.076   7.802
  245POPC   C1B 7867   1.022  39.443   8.639
  245POPC   C2B 7868   0.755  39.166   8.418
  245POPC   C3B 7869   0.707  39.018   8.034
  245POPC   C4B 7870   0.874  39.203   7.685
  246POPC   NC3 7871  41.849  27.679   9.455
  246POPC   PO4 7872  41.424  27.181   9.687
  246POPC   GL1 7873  41.469  27.327   9.254
  246POPC   GL2 7874  41.390  27.628   9.080
  246POPC   C1A 7875  41.624  27.266   8.824
  246POPC   D2A 7876  41.451  27.316   8.424
  246POPC   C3A 7877  41.664  27.496   8.049
  246POPC   C4A 7878  41.979  27.740   7.863
  246POPC   C1B 7879  41.232  27.874   8.747
  246POPC   C2B 7880  41.420  27.837   8.346
  246POPC   C3B 7881  41.248  27.805   7.928
  246POPC   C4B 7882  41.046  27.776   7.496
  247POPC   NC3 7883  39.548  36.033   9.443
  247POPC   PO4 7884  39.082  36.366   9.651
  247POPC   GL1 7885  39.077  36.131   9.218
  247POPC   GL2 7886  39.221  35.804   9.143
  247POPC   C1A 7887  39.162  36.232   8.791
  247POPC   D2A 7888  39.137  36.051   8.393
  247POPC   C3A 7889  39.263  36.203   7.997
  247POPC   C4A 7890  39.113  36.274   7.528
  247POPC   C1B 7891  39.093  35.675   8.754
  247POPC   C2B 7892  39.314  35.567   8.390
  247POPC   C3B 7893  39.126  35.700   7.999
  247POPC   C4B 7894  39.319  35.839   7.622
  248POPC   NC3 7895   7.404  28.781   9.369
  248POPC   PO4 7896   7.065  28.296   9.571
  248POPC   GL1 7897   7.142  28.380   9.145
  248POPC   GL2 7898   7.059  28.689   8.985
  248POPC   C1A 7899   7.338  28.267   8.729
  248POPC   D2A 7900   7.609  27.990   8.422
  248POPC   C3A 7901   7.485  28.101   8.025
  248POPC   C4A 7902   7.666  28.400   7.812
  248POPC   C1B 7903   7.230  28.850   8.603
  248POPC   C2B 7904   7.421  28.716   8.215
  248POPC   C3B 7905   7.318  28.769   7.779
  248POPC   C4B 7906   7.137  28.815   7.358
  249POPC   NC3 7907  42.709  41.413   9.578
  249POPC   PO4 7908  43.344  41.653   9.584
  249POPC   GL1 7909  43.150  41.430   9.264
  249POPC   GL2 7910  43.303  41.703   9.069
  249POPC   C1A 7911  42.997  41.377   8.827
  249POPC   D2A 7912  43.121  41.576   8.395
  249POPC   C3A 7913  42.994  41.336   8.010
  249POPC   C4A 7914  42.868  41.535   7.611
  249POPC   C1B 7915  43.482  41.495   8.756
  249POPC   C2B 7916  43.652  41.625   8.413
  249POPC   C3B 7917  43.591  41.837   8.026
  249POPC   C4B 7918  43.335  41.630   7.725
  250POPC   NC3 7919   7.360  12.894   9.555
  250POPC   PO4 7920   6.976  12.456   9.370
  250POPC   GL1 7921   7.197  12.764   9.064
  250POPC   GL2 7922   7.556  12.833   9.099
  250POPC   C1A 7923   7.305  12.985   8.672
  250POPC   D2A 7924   7.577  12.917   8.318
  250POPC   C3A 7925   7.348  12.984   7.948
  250POPC   C4A 7926   7.412  12.792   7.576
  250POPC   C1B 7927   7.608  12.580   8.728
  250POPC   C2B 7928   7.630  12.407   8.351
  250POPC   C3B 7929   7.772  12.547   7.945
  250POPC   C4B 7930   7.646  12.356   7.567
  251POPC   NC3 7931   1.543  13.848   9.289
  251POPC   PO4 7932   2.069  13.403   9.339
  251POPC   GL1 7933   1.929  13.556   9.027
  251POPC   GL2 7934   2.163  13.816   9.051
  251POPC   C1A 7935   1.883  13.367   8.619
  251POPC   D2A 7936   1.584  13.351   8.330
  251POPC   C3A 7937   1.686  13.633   8.005
  251POPC   C4A 7938   1.848  13.521   7.612
  251POPC   C1B 7939   2.320  13.590   8.696
  251POPC   C2B 7940   2.132  13.696   8.299
  251POPC   C3B 7941   2.261  13.646   7.896
  251POPC   C4B 7942   2.331  13.779   7.483
  252POPC   NC3 7943  23.791  43.195   9.366
  252POPC   PO4 7944  23.201  43.542   9.421
  252POPC   GL1 7945  23.361  43.302   9.079
  252POPC   GL2 7946  23.377  42.978   8.964
  252POPC   C1A 7947  23.684  43.346   8.755
  252POPC   D2A 7948  23.857  43.209   8.415
  252POPC   C3A 7949  23.632  43.341   8.122
  252POPC   C4A 7950  23.717  43.215   7.783
  252POPC   C1B 7951  23.836  42.843   8.811
  252POPC   C2B 7952  24.038  42.738   8.422
  252POPC   C3B 7953  23.744  42.783   8.082
  252POPC   C4B 7954  23.747  42.724   7.643
  253POPC   NC3 7955  11.882  16.207   9.530
  253POPC   PO4 7956  11.817  16.890   9.661
  253POPC   GL1 7957  11.973  16.877   9.231
  253POPC   GL2 7958  11.917  16.545   9.141
  253POPC   C1A 7959  12.068  17.011   8.794
  253POPC   D2A 7960  12.011  16.823   8.382
  253POPC   C3A 7961  11.896  16.984   7.994
  253POPC   C4A 7962  12.010  16.688   7.676
  253POPC   C1B 7963  12.057  16.450   8.733
  253POPC   C2B 7964  11.768  16.331   8.421
  253POPC   C3B 7965  11.687  16.480   8.015
  253POPC   C4B 7966  11.730  16.279   7.614
  254POPC   NC3 7967  34.820   9.843   9.519
  254POPC   PO4 7968  34.487   9.234   9.531
  254POPC   GL1 7969  34.590   9.513   9.211
  254POPC   GL2 7970  34.339   9.758   9.178
  254POPC   C1A 7971  34.701   9.564   8.789
  254POPC   D2A 7972  34.498   9.535   8.385
  254POPC   C3A 7973  34.538   9.827   8.055
  254POPC   C4A 7974  34.744   9.764   7.698
  254POPC   C1B 7975  34.237   9.815   8.729
  254POPC   C2B 7976  34.139  10.007   8.311
  254POPC   C3B 7977  34.143  10.117   7.843
  254POPC   C4B 7978  34.500  10.133   7.474
  255POPC   NC3 7979  22.476   0.366   9.670
  255POPC   PO4 7980  22.180  44.691   9.647
  255POPC   GL1 7981  22.051  44.777   9.234
  255POPC   GL2 7982  22.325  44.574   9.123
  255POPC   C1A 7983  21.987  44.670   8.780
  255POPC   D2A 7984  22.187  44.454   8.449
  255POPC   C3A 7985  22.128  44.735   8.110
  255POPC   C4A 7986  21.825  44.964   7.851
  255POPC   C1B 7987  22.580  44.437   8.792
  255POPC   C2B 7988  22.755  44.294   8.421
  255POPC   C3B 7989  22.618  44.477   8.067
  255POPC   C4B 7990  22.431  44.628   7.706
  256POPC   NC3 7991  42.237  34.778   9.722
  256POPC   PO4 7992  42.605  34.206   9.629
  256POPC   GL1 7993  42.460  34.496   9.264
  256POPC   GL2 7994  42.183  34.758   9.217
  256POPC   C1A 7995  42.564  34.756   8.877
  256POPC   D2A 7996  42.387  34.920   8.491
  256POPC   C3A 7997  42.521  34.674   8.139
  256POPC   C4A 7998  42.647  34.406   7.779
  256POPC   C1B 7999  42.003  34.655   8.779
  256POPC   C2B 8000  41.942  34.590   8.326
  256POPC   C3B 8001  42.135  34.428   7.946
  256POPC   C4B 8002  42.296  34.774   7.678
  257POPC   NC3 8003   4.611  41.127   9.692
  257POPC   PO4 8004   5.263  41.336   9.750
  257POPC   GL1 8005   5.027  41.085   9.333
  257POPC   GL2 8006   4.939  40.702   9.177
  257POPC   C1A 8007   4.983  41.065   8.833
  257POPC   D2A 8008   5.227  40.888   8.437
  257POPC   C3A 8009   5.178  40.920   7.957
  257POPC   C4A 8010   5.267  40.648   7.582
  257POPC   C1B 8011   4.894  40.570   8.686
  257POPC   C2B 8012   4.794  40.712   8.233
  257POPC   C3B 8013   4.840  40.522   7.838
  257POPC   C4B 8014   5.039  40.100   7.754
  258POPC   NC3 8015   5.363  41.787   9.712
  258POPC   PO4 8016   5.878  42.236   9.627
  258POPC   GL1 8017   5.900  42.441   9.221
  258POPC   GL2 8018   5.586  42.611   9.215
  258POPC   C1A 8019   6.002  42.369   8.806
  258POPC   D2A 8020   5.947  42.543   8.394
  258POPC   C3A 8021   5.922  42.298   7.996
  258POPC   C4A 8022   5.606  42.103   7.714
  258POPC   C1B 8023   5.687  42.790   8.813
  258POPC   C2B 8024   5.627  42.931   8.408
  258POPC   C3B 8025   5.592  42.744   8.031
  258POPC   C4B 8026   5.722  42.591   7.637
  259POPC   NC3 8027   5.783  13.219   9.392
  259POPC   PO4 8028   6.180  13.754   9.628
  259POPC   GL1 8029   6.004  13.693   9.196
  259POPC   GL2 8030   6.295  13.532   9.118
  259POPC   C1A 8031   5.716  13.623   8.801
  259POPC   D2A 8032   5.623  13.224   8.536
  259POPC   C3A 8033   5.711  13.208   8.062
  259POPC   C4A 8034   5.879  13.441   7.703
  259POPC   C1B 8035   6.147  13.365   8.748
  259POPC   C2B 8036   6.019  13.498   8.354
  259POPC   C3B 8037   6.248  13.568   7.999
  259POPC   C4B 8038   6.365  13.692   7.589
  260POPC   NC3 8039  30.421  18.020   9.716
  260POPC   PO4 8040  30.748  18.572   9.410
  260POPC   GL1 8041  30.594  18.345   9.054
  260POPC   GL2 8042  30.721  18.006   8.993
  260POPC   C1A 8043  30.677  18.316   8.595
  260POPC   D2A 8044  30.928  18.398   8.230
  260POPC   C3A 8045  30.596  18.501   7.914
  260POPC   C4A 8046  30.270  18.464   7.636
  260POPC   C1B 8047  30.659  17.816   8.605
  260POPC   C2B 8048  30.602  17.919   8.198
  260POPC   C3B 8049  30.819  18.060   7.862
  260POPC   C4B 8050  31.024  17.921   7.506
  261POPC   NC3 8051  20.893   9.117   9.433
  261POPC   PO4 8052  20.179   9.119   9.557
  261POPC   GL1 8053  20.429   9.017   9.169
  261POPC   GL2 8054  20.684   9.255   8.993
  261POPC   C1A 8055  20.497   8.881   8.710
  261POPC   D2A 8056  20.588   9.190   8.366
  261POPC   C3A 8057  20.625   9.037   7.922
  261POPC   C4A 8058  20.435   8.700   7.673
  261POPC   C1B 8059  20.981   9.074   8.734
  261POPC   C2B 8060  21.001   8.872   8.330
  261POPC   C3B 8061  21.132   9.025   7.925
  261POPC   C4B 8062  21.217   9.391   7.705
  262POPC   NC3 8063   7.241  14.519   9.519
  262POPC   PO4 8064   7.659  14.084   9.370
  262POPC   GL1 8065   7.628  14.519   9.176
  262POPC   GL2 8066   7.296  14.524   9.016
  262POPC   C1A 8067   7.670  14.815   8.817
  262POPC   D2A 8068   7.433  14.803   8.437
  262POPC   C3A 8069   7.603  14.691   8.012
  262POPC   C4A 8070   7.490  14.488   7.627
  262POPC   C1B 8071   7.486  14.326   8.683
  262POPC   C2B 8072   7.411  14.253   8.255
  262POPC   C3B 8073   7.132  14.264   7.923
  262POPC   C4B 8074   7.101  14.190   7.473
  263POPC   NC3 8075  34.896  32.792   9.496
  263POPC   PO4 8076  34.311  32.845   9.544
  263POPC   GL1 8077  34.520  32.966   9.178
  263POPC   GL2 8078  34.501  32.636   9.110
  263POPC   C1A 8079  34.646  33.122   8.771
  263POPC   D2A 8080  34.539  33.403   8.410
  263POPC   C3A 8081  34.711  33.369   7.996
  263POPC   C4A 8082  34.707  33.027   7.724
  263POPC   C1B 8083  34.663  32.555   8.740
  263POPC   C2B 8084  34.526  32.721   8.423
  263POPC   C3B 8085  34.501  32.692   8.028
  263POPC   C4B 8086  34.231  32.816   7.682
  264POPC   NC3 8087  26.593  32.812   9.494
  264POPC   PO4 8088  27.166  33.092   9.496
  264POPC   GL1 8089  27.116  33.190   9.100
  264POPC   GL2 8090  26.765  33.107   9.092
  264POPC   C1A 8091  27.076  32.981   8.720
  264POPC   D2A 8092  26.920  32.778   8.385
  264POPC   C3A 8093  26.986  32.983   7.987
  264POPC   C4A 8094  27.059  32.925   7.543
  264POPC   C1B 8095  26.621  33.211   8.700
  264POPC   C2B 8096  26.561  33.147   8.270
  264POPC   C3B 8097  26.522  33.182   7.845
  264POPC   C4B 8098  26.426  33.504   7.526
  265POPC   NC3 8099   0.885  19.838   9.486
  265POPC   PO4 8100   1.469  20.069   9.786
  265POPC   GL1 8101   1.376  19.886   9.333
  265POPC   GL2 8102   1.178  20.110   9.147
  265POPC   C1A 8103   1.471  19.722   8.875
  265POPC   D2A 8104   1.516  19.749   8.357
  265POPC   C3A 8105   1.151  19.715   8.002
  265POPC   C4A 8106   0.922  19.622   7.519
  265POPC   C1B 8107   1.260  20.181   8.692
  265POPC   C2B 8108   1.219  20.169   8.247
  265POPC   C3B 8109   1.455  20.102   7.893
  265POPC   C4B 8110   1.180  20.024   7.570
  266POPC   NC3 8111  32.122  24.689   9.553
  266POPC   PO4 8112  32.589  24.227   9.522
  266POPC   GL1 8113  32.466  24.433   9.165
  266POPC   GL2 8114  32.125  24.366   9.156
  266POPC   C1A 8115  32.424  24.409   8.734
  266POPC   D2A 8116  32.433  24.619   8.380
  266POPC   C3A 8117  32.354  24.365   8.108
  266POPC   C4A 8118  32.398  24.596   7.790
  266POPC   C1B 8119  31.864  24.501   8.780
  266POPC   C2B 8120  31.746  24.789   8.449
  266POPC   C3B 8121  31.930  24.698   8.047
  266POPC   C4B 8122  31.792  24.872   7.666
  267POPC   NC3 8123  21.229  21.696   9.368
  267POPC   PO4 8124  21.573  21.244   9.749
  267POPC   GL1 8125  21.527  21.254   9.247
  267POPC   GL2 8126  21.214  21.245   9.128
  267POPC   C1A 8127  21.600  21.459   8.804
  267POPC   D2A 8128  21.480  21.697   8.402
  267POPC   C3A 8129  21.696  21.542   8.044
  267POPC   C4A 8130  21.572  21.455   7.637
  267POPC   C1B 8131  21.399  21.000   8.821
  267POPC   C2B 8132  21.590  20.968   8.446
  267POPC   C3B 8133  21.389  21.109   8.089
  267POPC   C4B 8134  21.152  21.422   7.923
  268POPC   NC3 8135  29.177   1.475   9.512
  268POPC   PO4 8136  28.754   1.017   9.407
  268POPC   GL1 8137  29.119   1.120   9.166
  268POPC   GL2 8138  29.431   1.027   9.298
  268POPC   C1A 8139  29.217   1.323   8.820
  268POPC   D2A 8140  29.031   1.260   8.460
  268POPC   C3A 8141  29.197   1.445   8.130
  268POPC   C4A 8142  28.948   1.490   7.756
  268POPC   C1B 8143  29.539   0.904   8.869
  268POPC   C2B 8144  29.591   1.160   8.498
  268POPC   C3B 8145  29.617   1.147   8.063
  268POPC   C4B 8146  29.374   1.200   7.701
  269POPC   NC3 8147  29.610  16.755   9.490
  269POPC   PO4 8148  30.288  16.786   9.562
  269POPC   GL1 8149  30.022  16.706   9.155
  269POPC   GL2 8150  29.709  16.511   9.061
  269POPC   C1A 8151  30.056  16.550   8.711
  269POPC   D2A 8152  29.828  16.435   8.352
  269POPC   C3A 8153  30.024  16.589   7.952
  269POPC   C4A 8154  30.237  16.438   7.594
  269POPC   C1B 8155  29.555  16.724   8.743
  269POPC   C2B 8156  29.438  16.789   8.342
  269POPC   C3B 8157  29.530  16.567   7.957
  269POPC   C4B 8158  29.611  16.885   7.708
  270POPC   NC3 8159  10.083  34.087   9.553
  270POPC   PO4 8160   9.753  33.497   9.427
  270POPC   GL1 8161   9.634  33.723   9.115
  270POPC   GL2 8162   9.939  33.888   9.107
  270POPC   C1A 8163   9.642  33.794   8.688
  270POPC   D2A 8164   9.906  33.837   8.360
  270POPC   C3A 8165   9.788  33.826   7.964
  270POPC   C4A 8166   9.620  33.473   7.861
  270POPC   C1B 8167   9.978  34.161   8.780
  270POPC   C2B 8168  10.011  34.333   8.366
  270POPC   C3B 8169  10.103  34.230   7.941
  270POPC   C4B 8170  10.030  34.130   7.467
  271POPC   NC3 8171   0.513  11.718   9.619
  271POPC   PO4 8172   0.057  12.157   9.450
  271POPC   GL1 8173   0.375  12.058   9.145
  271POPC   GL2 8174   0.180  11.935   8.859
  271POPC   C1A 8175   0.622  12.160   8.741
  271POPC   D2A 8176   0.559  12.316   8.337
  271POPC   C3A 8177   0.619  12.013   7.981
  271POPC   C4A 8178   0.343  11.791   7.681
  271POPC   C1B 8179   0.180  12.399   8.809
  271POPC   C2B 8180   0.139  12.625   8.423
  271POPC   C3B 8181   0.177  12.404   8.010
  271POPC   C4B 8182   0.156  12.255   7.572
  272POPC   NC3 8183  42.052   6.034   9.164
  272POPC   PO4 8184  42.294   6.551   9.620
  272POPC   GL1 8185  42.441   6.669   9.190
  272POPC   GL2 8186  42.164   6.851   9.083
  272POPC   C1A 8187  42.387   6.569   8.718
  272POPC   D2A 8188  42.253   6.797   8.332
  272POPC   C3A 8189  42.373   6.539   7.986
  272POPC   C4A 8190  42.201   6.258   7.683
  272POPC   C1B 8191  42.357   7.079   8.785
  272POPC   C2B 8192  42.228   7.309   8.451
  272POPC   C3B 8193  41.976   7.179   8.118
  272POPC   C4B 8194  42.176   6.952   7.801
  273POPC   NC3 8195  29.578  31.630   9.591
  273POPC   PO4 8196  30.164  31.386   9.553
  273POPC   GL1 8197  29.925  31.318   9.167
  273POPC   GL2 8198  29.651  31.041   9.189
  273POPC   C1A 8199  29.961  31.515   8.754
  273POPC   D2A 8200  29.874  31.427   8.340
  273POPC   C3A 8201  30.085  31.617   8.013
  273POPC   C4A 8202  29.870  31.871   7.666
  273POPC   C1B 8203  29.670  31.104   8.770
  273POPC   C2B 8204  29.577  31.030   8.380
  273POPC   C3B 8205  29.595  31.142   7.986
  273POPC   C4B 8206  29.797  31.348   7.708
  274POPC   NC3 8207  16.051  25.504   9.407
  274POPC   PO4 8208  15.668  25.010   9.302
  274POPC   GL1 8209  15.774  25.234   8.985
  274POPC   GL2 8210  15.731  25.623   9.013
  274POPC   C1A 8211  15.968  24.987   8.668
  274POPC   D2A 8212  16.060  24.810   8.288
  274POPC   C3A 8213  15.837  25.019   7.968
  274POPC   C4A 8214  16.013  24.981   7.522
  274POPC   C1B 8215  16.121  25.500   8.737
  274POPC   C2B 8216  16.284  25.286   8.350
  274POPC   C3B 8217  16.250  25.276   7.882
  274POPC   C4B 8218  16.292  25.431   7.438
  275POPC   NC3 8219  36.650  30.070   9.385
  275POPC   PO4 8220  37.288  29.706   9.404
  275POPC   GL1 8221  36.967  29.755   9.118
  275POPC   GL2 8222  37.088  30.091   9.083
  275POPC   C1A 8223  36.645  29.660   8.782
  275POPC   D2A 8224  36.615  29.828   8.313
  275POPC   C3A 8225  36.862  29.645   7.986
  275POPC   C4A 8226  37.193  29.709   7.725
  275POPC   C1B 8227  37.015  29.964   8.653
  275POPC   C2B 8228  37.222  29.932   8.283
  275POPC   C3B 8229  37.072  30.137   7.942
  275POPC   C4B 8230  36.686  30.104   7.787
  276POPC   NC3 8231   6.425  44.094   9.529
  276POPC   PO4 8232   7.014  43.814   9.512
  276POPC   GL1 8233   6.724  43.809   9.150
  276POPC   GL2 8234   6.445  44.033   9.003
  276POPC   C1A 8235   6.820  43.800   8.715
  276POPC   D2A 8236   6.635  43.911   8.302
  276POPC   C3A 8237   6.773  43.691   7.937
  276POPC   C4A 8238   6.833  43.898   7.582
  276POPC   C1B 8239   6.285  43.718   8.682
  276POPC   C2B 8240   6.193  43.643   8.242
  276POPC   C3B 8241   6.278  43.782   7.820
  276POPC   C4B 8242   6.278  43.845   7.386
  277POPC   NC3 8243  28.145  38.856   9.518
  277POPC   PO4 8244  28.399  39.456   9.493
  277POPC   GL1 8245  28.407  39.225   9.145
  277POPC   GL2 8246  28.070  39.136   9.109
  277POPC   C1A 8247  28.349  39.332   8.702
  277POPC   D2A 8248  28.553  39.372   8.331
  277POPC   C3A 8249  28.422  39.536   7.988
  277POPC   C4A 8250  28.502  39.363   7.605
  277POPC   C1B 8251  27.930  39.030   8.722
  277POPC   C2B 8252  27.994  39.146   8.317
  277POPC   C3B 8253  28.035  38.881   7.996
  277POPC   C4B 8254  28.166  38.986   7.584
  278POPC   NC3 8255  13.235   9.842   9.519
  278POPC   PO4 8256  13.824  10.132   9.472
  278POPC   GL1 8257  13.730   9.865   9.081
  278POPC   GL2 8258  13.410   9.708   9.057
  278POPC   C1A 8259  13.891   9.686   8.680
  278POPC   D2A 8260  13.824   9.342   8.385
  278POPC   C3A 8261  13.914   9.524   7.982
  278POPC   C4A 8262  13.846   9.971   7.876
  278POPC   C1B 8263  13.402   9.775   8.644
  278POPC   C2B 8264  13.530   9.744   8.240
  278POPC   C3B 8265  13.390   9.607   7.845
  278POPC   C4B 8266  13.160   9.705   7.467
  279POPC   NC3 8267   7.909  16.600   9.548
  279POPC   PO4 8268   8.486  16.905   9.403
  279POPC   GL1 8269   8.117  16.859   9.140
  279POPC   GL2 8270   7.998  16.498   9.070
  279POPC   C1A 8271   8.166  16.821   8.701
  279POPC   D2A 8272   8.415  16.642   8.375
  279POPC   C3A 8273   8.361  16.746   7.923
  279POPC   C4A 8274   8.312  17.036   7.572
  279POPC   C1B 8275   8.027  16.314   8.686
  279POPC   C2B 8276   7.925  16.502   8.330
  279POPC   C3B 8277   7.864  16.392   7.931
  279POPC   C4B 8278   7.905  16.682   7.619
  280POPC   NC3 8279  35.547  23.023   9.809
  280POPC   PO4 8280  35.067  22.745   9.441
  280POPC   GL1 8281  35.396  22.843   9.159
  280POPC   GL2 8282  35.507  23.157   9.242
  280POPC   C1A 8283  35.398  22.770   8.702
  280POPC   D2A 8284  35.073  22.839   8.359
  280POPC   C3A 8285  35.233  22.741   7.962
  280POPC   C4A 8286  35.625  22.851   7.733
  280POPC   C1B 8287  35.365  23.276   8.799
  280POPC   C2B 8288  35.447  23.435   8.345
  280POPC   C3B 8289  35.352  23.243   7.918
  280POPC   C4B 8290  35.336  23.142   7.410
  281POPC   NC3 8291  13.631  13.407   9.351
  281POPC   PO4 8292  13.894  14.001   9.399
  281POPC   GL1 8293  13.671  13.850   9.055
  281POPC   GL2 8294  13.339  13.754   9.100
  281POPC   C1A 8295  13.612  13.578   8.684
  281POPC   D2A 8296  13.572  13.534   8.237
  281POPC   C3A 8297  13.883  13.737   7.988
  281POPC   C4A 8298  13.988  13.560   7.592
  281POPC   C1B 8299  13.312  13.997   8.719
  281POPC   C2B 8300  13.238  14.027   8.297
  281POPC   C3B 8301  13.356  13.999   7.908
  281POPC   C4B 8302  13.417  13.620   7.735
  282POPC   NC3 8303   2.295  10.000   9.674
  282POPC   PO4 8304   2.065   9.429   9.333
  282POPC   GL1 8305   2.289   9.660   9.048
  282POPC   GL2 8306   2.238   9.984   9.136
  282POPC   C1A 8307   2.265   9.678   8.599
  282POPC   D2A 8308   1.924   9.523   8.338
  282POPC   C3A 8309   2.102   9.348   8.002
  282POPC   C4A 8310   2.277   9.534   7.683
  282POPC   C1B 8311   1.955  10.096   8.769
  282POPC   C2B 8312   1.982  10.044   8.359
  282POPC   C3B 8313   2.074   9.900   7.979
  282POPC   C4B 8314   1.903   9.909   7.584
  283POPC   NC3 8315  11.196   3.705   9.710
  283POPC   PO4 8316  11.398   4.340   9.511
  283POPC   GL1 8317  11.566   4.373   9.099
  283POPC   GL2 8318  11.266   4.315   8.927
  283POPC   C1A 8319  11.668   4.160   8.720
  283POPC   D2A 8320  11.477   4.347   8.396
  283POPC   C3A 8321  11.632   4.141   8.041
  283POPC   C4A 8322  11.413   4.247   7.712
  283POPC   C1B 8323  10.988   4.217   8.605
  283POPC   C2B 8324  10.999   4.580   8.408
  283POPC   C3B 8325  11.140   4.600   8.003
  283POPC   C4B 8326  10.931   4.422   7.650
  284POPC   NC3 8327  17.856  21.200   9.386
  284POPC   PO4 8328  17.306  21.555   9.639
  284POPC   GL1 8329  17.372  21.512   9.220
  284POPC   GL2 8330  17.005  21.457   9.180
  284POPC   C1A 8331  17.539  21.396   8.825
  284POPC   D2A 8332  17.526  21.145   8.501
  284POPC   C3A 8333  17.647  21.345   8.135
  284POPC   C4A 8334  17.688  21.359   7.696
  284POPC   C1B 8335  17.064  21.589   8.768
  284POPC   C2B 8336  17.277  21.583   8.393
  284POPC   C3B 8337  17.158  21.428   7.991
  284POPC   C4B 8338  17.020  21.591   7.605
  285POPC   NC3 8339  15.180  27.032   9.520
  285POPC   PO4 8340  15.538  26.487   9.295
  285POPC   GL1 8341  15.297  26.765   9.084
  285POPC   GL2 8342  14.982  26.768   9.102
  285POPC   C1A 8343  15.312  26.912   8.695
  285POPC   D2A 8344  15.364  26.703   8.335
  285POPC   C3A 8345  15.337  26.909   7.975
  285POPC   C4A 8346  15.266  26.832   7.565
  285POPC   C1B 8347  14.824  26.685   8.670
  285POPC   C2B 8348  14.854  26.751   8.205
  285POPC   C3B 8349  14.843  27.022   7.826
  285POPC   C4B 8350  14.797  26.889   7.382
  286POPC   NC3 8351  12.761  12.367   9.561
  286POPC   PO4 8352  12.691  11.661   9.434
  286POPC   GL1 8353  12.923  11.961   9.113
  286POPC   GL2 8354  13.077  12.311   9.112
  286POPC   C1A 8355  13.093  11.915   8.660
  286POPC   D2A 8356  12.958  11.809   8.219
  286POPC   C3A 8357  13.135  12.010   7.813
  286POPC   C4A 8358  12.994  11.899   7.374
  286POPC   C1B 8359  13.059  12.419   8.666
  286POPC   C2B 8360  13.044  12.325   8.232
  286POPC   C3B 8361  12.751  12.356   7.899
  286POPC   C4B 8362  12.779  12.345   7.453
  287POPC   NC3 8363  13.242   2.486   9.468
  287POPC   PO4 8364  13.711   2.885   9.751
  287POPC   GL1 8365  13.523   2.872   9.247
  287POPC   GL2 8366  13.483   2.532   9.048
  287POPC   C1A 8367  13.554   2.960   8.783
  287POPC   D2A 8368  13.883   3.002   8.452
  287POPC   C3A 8369  13.852   2.736   8.079
  287POPC   C4A 8370  13.711   2.814   7.682
  287POPC   C1B 8371  13.317   2.451   8.679
  287POPC   C2B 8372  13.371   2.621   8.258
  287POPC   C3B 8373  13.519   2.382   7.897
  287POPC   C4B 8374  13.546   2.399   7.444
  288POPC   NC3 8375   2.055  12.672   9.629
  288POPC   PO4 8376   1.946  11.972   9.499
  288POPC   GL1 8377   2.140  12.006   9.088
  288POPC   GL2 8378   2.191  12.346   9.123
  288POPC   C1A 8379   2.012  12.151   8.662
  288POPC   D2A 8380   1.708  12.357   8.352
  288POPC   C3A 8381   1.598  12.114   7.959
  288POPC   C4A 8382   1.856  11.847   7.701
  288POPC   C1B 8383   2.418  12.463   8.764
  288POPC   C2B 8384   2.254  12.478   8.346
  288POPC   C3B 8385   2.113  12.224   7.994
  288POPC   C4B 8386   2.338  12.102   7.609
  289POPC   NC3 8387   5.521  34.907   9.458
  289POPC   PO4 8388   5.661  34.270   9.695
  289POPC   GL1 8389   5.967  34.384   9.301
  289POPC   GL2 8390   5.934  34.735   9.193
  289POPC   C1A 8391   6.072  34.445   8.818
  289POPC   D2A 8392   5.856  34.365   8.418
  289POPC   C3A 8393   6.143  34.267   8.063
  289POPC   C4A 8394   6.236  34.330   7.643
  289POPC   C1B 8395   5.658  34.766   8.813
  289POPC   C2B 8396   5.445  34.710   8.423
  289POPC   C3B 8397   5.628  34.680   8.042
  289POPC   C4B 8398   5.750  34.465   7.713
  290POPC   NC3 8399  28.085  32.012   9.517
  290POPC   PO4 8400  28.703  31.844   9.610
  290POPC   GL1 8401  28.541  31.950   9.179
  290POPC   GL2 8402  28.184  31.987   9.020
  290POPC   C1A 8403  28.721  32.071   8.776
  290POPC   D2A 8404  28.522  31.961   8.416
  290POPC   C3A 8405  28.623  32.045   8.002
  290POPC   C4A 8406  28.285  31.926   7.736
  290POPC   C1B 8407  28.293  32.384   8.839
  290POPC   C2B 8408  28.340  32.575   8.432
  290POPC   C3B 8409  28.267  32.434   7.986
  290POPC   C4B 8410  28.512  32.402   7.593
  291POPC   NC3 8411  15.600  27.930   9.382
  291POPC   PO4 8412  15.185  27.492   9.497
  291POPC   GL1 8413  15.183  27.303   9.104
  291POPC   GL2 8414  15.546  27.376   9.107
  291POPC   C1A 8415  14.917  27.187   8.762
  291POPC   D2A 8416  15.102  27.194   8.320
  291POPC   C3A 8417  14.965  27.506   8.014
  291POPC   C4A 8418  14.860  27.949   7.845
  291POPC   C1B 8419  15.399  27.431   8.667
  291POPC   C2B 8420  15.427  27.601   8.259
  291POPC   C3B 8421  15.414  27.720   7.845
  291POPC   C4B 8422  15.423  27.309   7.664
  292POPC   NC3 8423  27.504  31.799   9.639
  292POPC   PO4 8424  27.947  31.192   9.657
  292POPC   GL1 8425  27.762  31.254   9.132
  292POPC   GL2 8426  27.462  31.535   9.139
  292POPC   C1A 8427  27.531  31.205   8.761
  292POPC   D2A 8428  27.692  31.374   8.408
  292POPC   C3A 8429  27.441  31.378   8.096
  292POPC   C4A 8430  27.576  31.200   7.723
  292POPC   C1B 8431  27.709  31.707   8.802
  292POPC   C2B 8432  27.602  31.893   8.416
  292POPC   C3B 8433  27.790  31.778   8.045
  292POPC   C4B 8434  27.555  31.712   7.704
  293POPC   NC3 8435   9.217  28.831   9.394
  293POPC   PO4 8436   8.716  28.435   9.544
  293POPC   GL1 8437   8.892  28.344   9.156
  293POPC   GL2 8438   9.026  27.970   9.154
  293POPC   C1A 8439   8.954  28.592   8.762
  293POPC   D2A 8440   9.144  28.721   8.357
  293POPC   C3A 8441   8.904  28.684   7.987
  293POPC   C4A 8442   8.849  28.383   7.690
  293POPC   C1B 8443   8.776  28.044   8.773
  293POPC   C2B 8444   8.737  28.313   8.376
  293POPC   C3B 8445   8.584  28.090   8.011
  293POPC   C4B 8446   8.642  27.926   7.616
  294POPC   NC3 8447  36.876  41.361   9.392
  294POPC   PO4 8448  36.757  40.694   9.399
  294POPC   GL1 8449  36.643  40.725   9.030
  294POPC   GL2 8450  36.672  41.101   8.972
  294POPC   C1A 8451  36.738  40.658   8.628
  294POPC   D2A 8452  36.737  41.002   8.415
  294POPC   C3A 8453  36.860  40.869   8.042
  294POPC   C4A 8454  36.701  40.944   7.639
  294POPC   C1B 8455  37.090  40.969   8.816
  294POPC   C2B 8456  37.256  40.875   8.408
  294POPC   C3B 8457  37.326  41.105   8.031
  294POPC   C4B 8458  37.217  40.894   7.652
  295POPC   NC3 8459  40.996  25.180   9.403
  295POPC   PO4 8460  41.045  24.487   9.497
  295POPC   GL1 8461  40.751  24.522   9.177
  295POPC   GL2 8462  40.635  24.870   9.178
  295POPC   C1A 8463  40.707  24.458   8.750
  295POPC   D2A 8464  40.817  24.587   8.363
  295POPC   C3A 8465  40.852  24.328   8.018
  295POPC   C4A 8466  40.845  24.469   7.613
  295POPC   C1B 8467  40.391  24.885   8.806
  295POPC   C2B 8468  40.304  24.717   8.385
  295POPC   C3B 8469  40.522  24.775   8.000
  295POPC   C4B 8470  40.656  24.923   7.609
  296POPC   NC3 8471  31.227  35.336   9.411
  296POPC   PO4 8472  31.877  35.189   9.557
  296POPC   GL1 8473  31.716  35.264   9.139
  296POPC   GL2 8474  31.529  35.529   8.992
  296POPC   C1A 8475  31.845  35.120   8.723
  296POPC   D2A 8476  31.821  35.153   8.279
  296POPC   C3A 8477  31.463  35.240   8.026
  296POPC   C4A 8478  31.607  34.915   7.746
  296POPC   C1B 8479  31.418  35.416   8.546
  296POPC   C2B 8480  31.081  35.626   8.305
  296POPC   C3B 8481  31.077  35.694   7.883
  296POPC   C4B 8482  31.437  35.629   7.642
  297POPC   NC3 8483  19.213  39.092   9.449
  297POPC   PO4 8484  18.765  39.693   9.509
  297POPC   GL1 8485  18.924  39.398   9.161
  297POPC   GL2 8486  19.222  39.606   9.020
  297POPC   C1A 8487  18.904  39.040   8.812
  297POPC   D2A 8488  18.764  38.973   8.351
  297POPC   C3A 8489  18.952  39.124   7.914
  297POPC   C4A 8490  18.713  39.178   7.492
  297POPC   C1B 8491  19.364  39.262   8.745
  297POPC   C2B 8492  19.293  39.116   8.294
  297POPC   C3B 8493  19.469  39.084   7.878
  297POPC   C4B 8494  19.530  39.351   7.523
  298POPC   NC3 8495  16.500  34.215   9.742
  298POPC   PO4 8496  16.965  34.608   9.659
  298POPC   GL1 8497  16.996  34.550   9.209
  298POPC   GL2 8498  17.223  34.792   9.107
  298POPC   C1A 8499  16.747  34.368   8.846
  298POPC   D2A 8500  16.538  34.148   8.465
  298POPC   C3A 8501  16.588  34.380   8.076
  298POPC   C4A 8502  16.965  34.537   7.915
  298POPC   C1B 8503  17.080  34.785   8.695
  298POPC   C2B 8504  17.106  35.045   8.325
  298POPC   C3B 8505  16.832  35.048   7.990
  298POPC   C4B 8506  16.554  34.819   7.750
  299POPC   NC3 8507   3.082  14.125  10.028
  299POPC   PO4 8508   2.545  14.102   9.680
  299POPC   GL1 8509   2.648  14.259   9.245
  299POPC   GL2 8510   2.955  14.076   9.144
  299POPC   C1A 8511   2.532  14.512   8.846
  299POPC   D2A 8512   2.707  14.606   8.439
  299POPC   C3A 8513   2.609  14.450   8.058
  299POPC   C4A 8514   2.381  14.637   7.700
  299POPC   C1B 8515   2.998  14.272   8.728
  299POPC   C2B 8516   2.985  14.182   8.290
  299POPC   C3B 8517   3.118  14.210   7.856
  299POPC   C4B 8518   3.070  14.251   7.361
  300POPC   NC3 8519  35.103  19.243   9.410
  300POPC   PO4 8520  35.676  18.916   9.472
  300POPC   GL1 8521  35.613  19.060   9.030
  300POPC   GL2 8522  35.274  19.180   8.934
  300POPC   C1A 8523  35.624  19.141   8.582
  300POPC   D2A 8524  35.367  19.242   8.263
  300POPC   C3A 8525  35.045  18.983   8.109
  300POPC   C4A 8526  35.241  18.966   7.698
  300POPC   C1B 8527  35.008  19.407   8.612
  300POPC   C2B 8528  35.103  19.674   8.238
  300POPC   C3B 8529  35.174  19.498   7.826
  300POPC   C4B 8530  35.011  19.591   7.393
  301POPC   NC3 8531   4.687  36.127   9.632
  301POPC   PO4 8532   5.376  36.122   9.602
  301POPC   GL1 8533   5.077  36.189   9.229
  301POPC   GL2 8534   5.429  36.117   9.083
  301POPC   C1A 8535   4.925  35.931   8.831
  301POPC   D2A 8536   5.003  35.911   8.382
  301POPC   C3A 8537   4.807  36.191   8.100
  301POPC   C4A 8538   4.710  36.208   7.691
  301POPC   C1B 8539   5.405  36.080   8.650
  301POPC   C2B 8540   5.282  36.317   8.256
  301POPC   C3B 8541   5.235  36.302   7.814
  301POPC   C4B 8542   5.572  36.426   7.530
  302POPC   NC3 8543  44.067   0.934   9.522
  302POPC   PO4 8544  43.672   1.366   9.680
  302POPC   GL1 8545  43.743   1.222   9.245
  302POPC   GL2 8546  44.073   1.398   9.244
  302POPC   C1A 8547  43.992   1.099   8.848
  302POPC   D2A 8548  44.133   1.226   8.442
  302POPC   C3A 8549  43.958   1.097   8.057
  302POPC   C4A 8550  43.831   0.849   7.679
  302POPC   C1B 8551  44.104   1.632   8.847
  302POPC   C2B 8552  44.305   1.703   8.463
  302POPC   C3B 8553  44.152   1.622   8.062
  302POPC   C4B 8554  44.018   1.420   7.682
  303POPC   NC3 8555  21.475  27.169   9.603
  303POPC   PO4 8556  21.672  27.892   9.594
  303POPC   GL1 8557  21.567  27.693   9.219
  303POPC   GL2 8558  21.280  27.524   9.260
  303POPC   C1A 8559  21.413  27.655   8.798
  303POPC   D2A 8560  21.610  27.669   8.445
  303POPC   C3A 8561  21.384  27.698   8.102
  303POPC   C4A 8562  21.437  27.836   7.715
  303POPC   C1B 8563  21.143  27.230   8.887
  303POPC   C2B 8564  21.368  27.204   8.488
  303POPC   C3B 8565  21.196  27.210   8.070
  303POPC   C4B 8566  21.141  27.429   7.712
  304POPC   NC3 8567  19.727  25.516   9.556
  304POPC   PO4 8568  19.483  24.855   9.434
  304POPC   GL1 8569  19.631  25.198   9.159
  304POPC   GL2 8570  19.951  25.386   9.097
  304POPC   C1A 8571  19.580  25.195   8.737
  304POPC   D2A 8572  19.839  25.292   8.389
  304POPC   C3A 8573  19.645  25.166   8.025
  304POPC   C4A 8574  19.570  25.225   7.645
  304POPC   C1B 8575  20.049  25.019   8.858
  304POPC   C2B 8576  20.186  24.891   8.436
  304POPC   C3B 8577  20.110  24.969   8.041
  304POPC   C4B 8578  20.094  25.272   7.721
  305POPC   NC3 8579  21.796  23.021   9.380
  305POPC   PO4 8580  21.226  23.078   9.667
  305POPC   GL1 8581  21.323  23.173   9.242
  305POPC   GL2 8582  21.017  23.233   9.198
  305POPC   C1A 8583  21.335  23.053   8.786
  305POPC   D2A 8584  21.309  22.826   8.385
  305POPC   C3A 8585  21.451  22.968   7.979
  305POPC   C4A 8586  21.770  22.714   7.801
  305POPC   C1B 8587  20.956  23.391   8.837
  305POPC   C2B 8588  21.178  23.427   8.470
  305POPC   C3B 8589  21.068  23.344   8.080
  305POPC   C4B 8590  21.063  23.202   7.699
  306POPC   NC3 8591  39.039  32.197   9.727
  306POPC   PO4 8592  39.688  32.419   9.524
  306POPC   GL1 8593  39.295  32.335   9.265
  306POPC   GL2 8594  38.999  32.088   9.207
  306POPC   C1A 8595  39.283  32.343   8.816
  306POPC   D2A 8596  39.512  32.196   8.458
  306POPC   C3A 8597  39.305  32.284   8.092
  306POPC   C4A 8598  39.403  32.119   7.672
  306POPC   C1B 8599  38.851  32.050   8.744
  306POPC   C2B 8600  38.848  31.886   8.290
  306POPC   C3B 8601  38.924  32.017   7.855
  306POPC   C4B 8602  38.987  32.446   7.738
  307POPC   NC3 8603  11.481  26.301   9.525
  307POPC   PO4 8604  11.666  25.618   9.502
  307POPC   GL1 8605  11.628  25.959   9.132
  307POPC   GL2 8606  11.282  26.038   9.087
  307POPC   C1A 8607  11.537  26.133   8.668
  307POPC   D2A 8608  11.284  26.119   8.297
  307POPC   C3A 8609  11.415  26.167   7.889
  307POPC   C4A 8610  11.451  26.133   7.436
  307POPC   C1B 8611  11.061  25.899   8.697
  307POPC   C2B 8612  11.081  25.639   8.327
  307POPC   C3B 8613  11.163  25.718   7.896
  307POPC   C4B 8614  10.992  26.038   7.624
  308POPC   NC3 8615  24.946  15.495   9.519
  308POPC   PO4 8616  24.251  15.333   9.446
  308POPC   GL1 8617  24.395  15.154   9.061
  308POPC   GL2 8618  24.714  15.247   9.142
  308POPC   C1A 8619  24.337  14.975   8.678
  308POPC   D2A 8620  24.330  15.221   8.295
  308POPC   C3A 8621  24.388  15.015   7.905
  308POPC   C4A 8622  24.425  15.137   7.489
  308POPC   C1B 8623  24.991  15.488   8.878
  308POPC   C2B 8624  25.064  15.418   8.457
  308POPC   C3B 8625  24.794  15.382   8.119
  308POPC   C4B 8626  24.858  15.217   7.732
  309POPC   NC3 8627  37.234  29.261   9.448
  309POPC   PO4 8628  36.693  28.902   9.460
  309POPC   GL1 8629  36.737  29.241   9.150
  309POPC   GL2 8630  37.045  29.276   8.952
  309POPC   C1A 8631  36.577  29.162   8.744
  309POPC   D2A 8632  36.749  29.333   8.373
  309POPC   C3A 8633  37.012  29.085   8.107
  309POPC   C4A 8634  37.065  28.871   7.706
  309POPC   C1B 8635  37.227  29.490   8.585
  309POPC   C2B 8636  37.404  29.471   8.158
  309POPC   C3B 8637  37.378  29.264   7.778
  309POPC   C4B 8638  37.147  29.300   7.403
  310POPC   NC3 8639  22.678   0.787   9.414
  310POPC   PO4 8640  22.044   0.527   9.593
  310POPC   GL1 8641  22.088   0.681   9.163
  310POPC   GL2 8642  22.380   0.810   9.027
  310POPC   C1A 8643  22.232   0.392   8.817
  310POPC   D2A 8644  22.116   0.106   8.522
  310POPC   C3A 8645  22.153   0.254   8.115
  310POPC   C4A 8646  21.893   0.471   7.820
  310POPC   C1B 8647  22.526   0.775   8.637
  310POPC   C2B 8648  22.246   0.752   8.261
  310POPC   C3B 8649  22.380   0.636   7.845
  310POPC   C4B 8650  22.599   0.751   7.447
  311POPC   NC3 8651   6.140  15.697   9.468
  311POPC   PO4 8652   5.584  16.028   9.434
  311POPC   GL1 8653   5.785  15.911   9.075
  311POPC   GL2 8654   6.136  15.946   9.043
  311POPC   C1A 8655   5.805  16.132   8.695
  311POPC   D2A 8656   5.781  16.370   8.309
  311POPC   C3A 8657   5.775  16.113   7.913
  311POPC   C4A 8658   5.546  15.777   7.722
  311POPC   C1B 8659   6.357  16.027   8.682
  311POPC   C2B 8660   6.437  16.128   8.284
  311POPC   C3B 8661   6.284  15.958   7.906
  311POPC   C4B 8662   6.057  15.733   7.603
  312POPC   NC3 8663  30.064  41.637   9.631
  312POPC   PO4 8664  29.419  41.541   9.701
  312POPC   GL1 8665  29.706  41.505   9.293
  312POPC   GL2 8666  29.886  41.762   9.168
  312POPC   C1A 8667  29.696  41.417   8.845
  312POPC   D2A 8668  29.932  41.566   8.483
  312POPC   C3A 8669  29.818  41.556   8.064
  312POPC   C4A 8670  30.015  41.369   7.729
  312POPC   C1B 8671  29.776  41.964   8.775
  312POPC   C2B 8672  29.562  41.968   8.358
  312POPC   C3B 8673  29.730  42.064   7.950
  312POPC   C4B 8674  29.745  41.807   7.587
  313POPC   NC3 8675  40.260  25.436   9.466
  313POPC   PO4 8676  40.854  25.615   9.349
  313POPC   GL1 8677  40.639  25.395   9.076
  313POPC   GL2 8678  40.965  25.324   8.926
  313POPC   C1A 8679  40.541  25.410   8.664
  313POPC   D2A 8680  40.616  25.111   8.381
  313POPC   C3A 8681  40.729  25.237   8.001
  313POPC   C4A 8682  40.645  25.423   7.595
  313POPC   C1B 8683  40.953  24.950   8.739
  313POPC   C2B 8684  41.097  24.994   8.330
  313POPC   C3B 8685  41.058  24.854   7.922
  313POPC   C4B 8686  41.097  25.192   7.650
  314POPC   NC3 8687  25.562  38.604   9.505
  314POPC   PO4 8688  25.077  38.124   9.536
  314POPC   GL1 8689  25.189  38.408   9.214
  314POPC   GL2 8690  25.478  38.272   9.116
  314POPC   C1A 8691  25.312  38.640   8.806
  314POPC   D2A 8692  25.424  38.484   8.389
  314POPC   C3A 8693  25.400  38.749   8.011
  314POPC   C4A 8694  25.069  38.788   7.635
  314POPC   C1B 8695  25.600  38.018   8.794
  314POPC   C2B 8696  25.541  37.968   8.377
  314POPC   C3B 8697  25.561  38.186   8.005
  314POPC   C4B 8698  25.278  38.338   7.739
  315POPC   NC3 8699   5.815  36.323   9.451
  315POPC   PO4 8700   5.694  35.640   9.405
  315POPC   GL1 8701   5.825  35.760   9.023
  315POPC   GL2 8702   6.024  36.010   9.103
  315POPC   C1A 8703   5.920  35.950   8.617
  315POPC   D2A 8704   5.785  36.255   8.356
  315POPC   C3A 8705   5.668  36.069   7.996
  315POPC   C4A 8706   5.916  36.084   7.689
  315POPC   C1B 8707   6.182  36.345   8.827
  315POPC   C2B 8708   6.247  36.463   8.382
  315POPC   C3B 8709   6.037  36.502   7.958
  315POPC   C4B 8710   6.109  36.510   7.489
  316POPC   NC3 8711  17.376  37.960   9.529
  316POPC   PO4 8712  17.770  37.483   9.788
  316POPC   GL1 8713  17.617  37.536   9.285
  316POPC   GL2 8714  17.257  37.662   9.136
  316POPC   C1A 8715  17.652  37.684   8.818
  316POPC   D2A 8716  17.679  37.506   8.436
  316POPC   C3A 8717  17.575  37.737   8.092
  316POPC   C4A 8718  17.714  37.671   7.685
  316POPC   C1B 8719  17.182  37.978   8.772
  316POPC   C2B 8720  17.311  38.161   8.351
  316POPC   C3B 8721  17.176  38.043   7.948
  316POPC   C4B 8722  17.115  37.656   7.830
  317POPC   NC3 8723  19.834  22.384   9.551
  317POPC   PO4 8724  20.094  21.788   9.472
  317POPC   GL1 8725  20.048  22.144   9.149
  317POPC   GL2 8726  19.684  22.201   9.064
  317POPC   C1A 8727  20.041  22.212   8.693
  317POPC   D2A 8728  19.883  21.910   8.387
  317POPC   C3A 8729  19.868  21.987   7.962
  317POPC   C4A 8730  19.615  22.189   7.688
  317POPC   C1B 8731  19.518  22.206   8.634
  317POPC   C2B 8732  19.692  22.393   8.265
  317POPC   C3B 8733  19.822  22.600   7.908
  317POPC   C4B 8734  20.040  22.474   7.547
  318POPC   NC3 8735   7.275  16.992   9.519
  318POPC   PO4 8736   7.505  16.372   9.455
  318POPC   GL1 8737   7.292  16.617   9.190
  318POPC   GL2 8738   7.580  16.814   9.137
  318POPC   C1A 8739   7.136  16.805   8.840
  318POPC   D2A 8740   7.174  16.572   8.474
  318POPC   C3A 8741   7.486  16.695   8.166
  318POPC   C4A 8742   7.452  16.861   7.751
  318POPC   C1B 8743   7.644  16.742   8.715
  318POPC   C2B 8744   7.791  17.032   8.426
  318POPC   C3B 8745   7.921  16.985   8.032
  318POPC   C4B 8746   7.835  17.224   7.684
  319POPC   NC3 8747  42.459   5.296   9.389
  319POPC   PO4 8748  41.907   4.962   9.524
  319POPC   GL1 8749  42.036   5.009   9.100
  319POPC   GL2 8750  42.349   4.858   9.081
  319POPC   C1A 8751  42.061   5.184   8.677
  319POPC   D2A 8752  41.839   5.322   8.285
  319POPC   C3A 8753  42.147   5.143   7.997
  319POPC   C4A 8754  42.000   4.726   7.955
  319POPC   C1B 8755  42.512   4.710   8.660
  319POPC   C2B 8756  42.526   4.706   8.186
  319POPC   C3B 8757  42.459   4.775   7.736
  319POPC   C4B 8758  42.567   4.926   7.287
  320POPC   NC3 8759  18.379   3.354   9.516
  320POPC   PO4 8760  18.025   4.022   9.498
  320POPC   GL1 8761  18.162   3.718   9.184
  320POPC   GL2 8762  18.100   3.350   9.092
  320POPC   C1A 8763  18.394   3.678   8.816
  320POPC   D2A 8764  18.246   3.641   8.390
  320POPC   C3A 8765  18.379   3.570   7.970
  320POPC   C4A 8766  18.376   3.829   7.591
  320POPC   C1B 8767  18.014   3.087   8.726
  320POPC   C2B 8768  18.029   3.162   8.278
  320POPC   C3B 8769  18.157   3.120   7.841
  320POPC   C4B 8770  17.975   3.327   7.442
  321POPC   NC3 8771  29.145   2.913   9.561
  321POPC   PO4 8772  29.179   2.313   9.281
  321POPC   GL1 8773  29.009   2.620   9.062
  321POPC   GL2 8774  28.999   2.978   9.082
  321POPC   C1A 8775  29.064   2.613   8.615
  321POPC   D2A 8776  29.198   2.238   8.401
  321POPC   C3A 8777  29.331   2.384   8.007
  321POPC   C4A 8778  29.111   2.743   7.801
  321POPC   C1B 8779  28.859   3.085   8.666
  321POPC   C2B 8780  28.929   2.978   8.236
  321POPC   C3B 8781  28.851   3.179   7.825
  321POPC   C4B 8782  29.096   3.100   7.433
  322POPC   NC3 8783  40.473  18.267   9.532
  322POPC   PO4 8784  41.079  18.093   9.389
  322POPC   GL1 8785  40.860  18.333   9.072
  322POPC   GL2 8786  40.495  18.457   9.051
  322POPC   C1A 8787  40.916  18.525   8.711
  322POPC   D2A 8788  40.754  18.373   8.331
  322POPC   C3A 8789  41.032  18.380   7.989
  322POPC   C4A 8790  40.981  17.997   7.725
  322POPC   C1B 8791  40.349  18.573   8.642
  322POPC   C2B 8792  40.359  18.652   8.204
  322POPC   C3B 8793  40.536  18.409   7.814
  322POPC   C4B 8794  40.462  18.528   7.349
  323POPC   NC3 8795  44.041   5.439   9.613
  323POPC   PO4 8796  43.817   4.833   9.689
  323POPC   GL1 8797  43.895   4.944   9.262
  323POPC   GL2 8798  43.658   4.721   9.086
  323POPC   C1A 8799  43.967   4.993   8.828
  323POPC   D2A 8800  43.902   5.003   8.420
  323POPC   C3A 8801  44.184   4.966   8.095
  323POPC   C4A 8802  44.224   5.306   7.801
  323POPC   C1B 8803  43.466   4.721   8.665
  323POPC   C2B 8804  43.439   4.860   8.239
  323POPC   C3B 8805  43.725   4.912   7.888
  323POPC   C4B 8806  43.729   4.714   7.474
  324POPC   NC3 8807  40.709  38.294   9.495
  324POPC   PO4 8808  41.147  38.751   9.483
  324POPC   GL1 8809  40.994  38.482   9.134
  324POPC   GL2 8810  41.037  38.070   9.182
  324POPC   C1A 8811  40.619  38.573   8.873
  324POPC   D2A 8812  40.668  38.705   8.447
  324POPC   C3A 8813  40.603  38.455   8.093
  324POPC   C4A 8814  40.954  38.488   7.845
  324POPC   C1B 8815  40.822  38.114   8.812
  324POPC   C2B 8816  40.733  38.071   8.404
  324POPC   C3B 8817  40.848  37.972   8.013
  324POPC   C4B 8818  40.688  38.105   7.648
  325POPC   NC3 8819   7.111  25.102   9.728
  325POPC   PO4 8820   7.680  25.320   9.669
  325POPC   GL1 8821   7.605  25.244   9.239
  325POPC   GL2 8822   7.255  25.269   9.205
  325POPC   C1A 8823   7.725  25.056   8.814
  325POPC   D2A 8824   7.542  24.978   8.383
  325POPC   C3A 8825   7.490  25.100   7.931
  325POPC   C4A 8826   7.494  24.920   7.498
  325POPC   C1B 8827   7.350  25.400   8.746
  325POPC   C2B 8828   7.291  25.435   8.274
  325POPC   C3B 8829   7.075  25.386   7.848
  325POPC   C4B 8830   6.968  25.652   7.484
  326POPC   NC3 8831  34.989  29.999   9.420
  326POPC   PO4 8832  35.534  30.431   9.461
  326POPC   GL1 8833  35.411  30.253   9.055
  326POPC   GL2 8834  35.342  29.904   9.014
  326POPC   C1A 8835  35.168  30.317   8.668
  326POPC   D2A 8836  35.113  30.221   8.247
  326POPC   C3A 8837  35.509  30.153   8.073
  326POPC   C4A 8838  35.656  30.031   7.677
  326POPC   C1B 8839  35.353  29.594   8.680
  326POPC   C2B 8840  35.186  29.719   8.279
  326POPC   C3B 8841  35.332  29.690   7.881
  326POPC   C4B 8842  35.473  29.362   7.707
  327POPC   NC3 8843  13.998  26.821   9.781
  327POPC   PO4 8844  13.418  26.579   9.460
  327POPC   GL1 8845  13.659  26.717   9.134
  327POPC   GL2 8846  13.445  26.945   9.039
  327POPC   C1A 8847  13.817  26.889   8.714
  327POPC   D2A 8848  13.578  27.063   8.393
  327POPC   C3A 8849  13.711  26.911   8.014
  327POPC   C4A 8850  13.997  26.775   7.725
  327POPC   C1B 8851  13.369  26.666   8.693
  327POPC   C2B 8852  13.434  26.569   8.274
  327POPC   C3B 8853  13.330  26.498   7.873
  327POPC   C4B 8854  13.179  26.695   7.518
  328POPC   NC3 8855  31.188  18.673   9.300
  328POPC   PO4 8856  31.089  19.293   9.541
  328POPC   GL1 8857  31.392  19.186   9.207
  328POPC   GL2 8858  31.649  18.879   9.183
  328POPC   C1A 8859  31.343  19.218   8.767
  328POPC   D2A 8860  31.141  19.057   8.409
  328POPC   C3A 8861  31.292  19.226   8.023
  328POPC   C4A 8862  31.284  19.014   7.640
  328POPC   C1B 8863  31.837  18.956   8.774
  328POPC   C2B 8864  31.717  19.200   8.398
  328POPC   C3B 8865  31.736  19.003   8.006
  328POPC   C4B 8866  31.748  19.170   7.627
  329POPC   NC3 8867   1.791   9.793   9.301
  329POPC   PO4 8868   1.123   9.732   9.488
  329POPC   GL1 8869   1.068   9.776   9.072
  329POPC   GL2 8870   1.374   9.625   9.006
  329POPC   C1A 8871   1.098   9.958   8.635
  329POPC   D2A 8872   0.929   9.918   8.193
  329POPC   C3A 8873   1.141   9.689   7.853
  329POPC   C4A 8874   1.040   9.844   7.416
  329POPC   C1B 8875   1.572   9.759   8.636
  329POPC   C2B 8876   1.501   9.842   8.218
  329POPC   C3B 8877   1.654   9.606   7.878
  329POPC   C4B 8878   1.485   9.609   7.465
  330POPC   NC3 8879  14.558  23.291   9.536
  330POPC   PO4 8880  14.078  23.740   9.533
  330POPC   GL1 8881  14.327  23.622   9.184
  330POPC   GL2 8882  14.655  23.726   9.239
  330POPC   C1A 8883  14.275  23.511   8.746
  330POPC   D2A 8884  14.438  23.559   8.334
  330POPC   C3A 8885  14.139  23.622   8.018
  330POPC   C4A 8886  14.183  23.735   7.621
  330POPC   C1B 8887  14.726  23.765   8.779
  330POPC   C2B 8888  14.606  24.045   8.418
  330POPC   C3B 8889  14.502  23.972   7.974
  330POPC   C4B 8890  14.663  23.966   7.560
  331POPC   NC3 8891  34.459  14.784   9.469
  331POPC   PO4 8892  34.436  14.104   9.481
  331POPC   GL1 8893  34.770  14.283   9.176
  331POPC   GL2 8894  34.694  14.621   9.056
  331POPC   C1A 8895  34.817  14.267   8.734
  331POPC   D2A 8896  34.516  14.460   8.486
  331POPC   C3A 8897  34.527  14.433   8.042
  331POPC   C4A 8898  34.801  14.255   7.746
  331POPC   C1B 8899  34.852  14.816   8.694
  331POPC   C2B 8900  34.944  14.706   8.283
  331POPC   C3B 8901  34.818  14.823   7.870
  331POPC   C4B 8902  34.801  14.808   7.416
  332POPC   NC3 8903  11.011  25.063   9.373
  332POPC   PO4 8904  11.391  24.496   9.520
  332POPC   GL1 8905  11.016  24.548   9.231
  332POPC   GL2 8906  10.842  24.246   9.098
  332POPC   C1A 8907  10.985  24.660   8.792
  332POPC   D2A 8908  11.334  24.411   8.592
  332POPC   C3A 8909  11.477  24.452   8.176
  332POPC   C4A 8910  11.524  24.232   7.800
  332POPC   C1B 8911  10.870  24.178   8.654
  332POPC   C2B 8912  10.979  24.222   8.207
  332POPC   C3B 8913  10.971  24.399   7.793
  332POPC   C4B 8914  10.899  24.247   7.375
  333POPC   NC3 8915  30.490  24.691   9.626
  333POPC   PO4 8916  30.813  24.226   9.375
  333POPC   GL1 8917  30.644  24.351   9.021
  333POPC   GL2 8918  30.718  24.704   9.099
  333POPC   C1A 8919  30.718  24.332   8.604
  333POPC   D2A 8920  30.969  24.573   8.323
  333POPC   C3A 8921  30.739  24.717   7.959
  333POPC   C4A 8922  30.580  24.454   7.625
  333POPC   C1B 8923  30.435  24.798   8.758
  333POPC   C2B 8924  30.398  24.614   8.320
  333POPC   C3B 8925  30.200  24.665   7.915
  333POPC   C4B 8926  30.379  24.937   7.608
  334POPC   NC3 8927   8.301  23.099   9.590
  334POPC   PO4 8928   8.015  22.468   9.474
  334POPC   GL1 8929   8.294  22.716   9.201
  334POPC   GL2 8930   8.175  23.063   9.108
  334POPC   C1A 8931   8.293  22.692   8.743
  334POPC   D2A 8932   8.113  22.602   8.322
  334POPC   C3A 8933   8.137  22.918   7.982
  334POPC   C4A 8934   7.911  22.968   7.593
  334POPC   C1B 8935   8.531  23.144   8.864
  334POPC   C2B 8936   8.548  23.048   8.422
  334POPC   C3B 8937   8.664  23.006   7.988
  334POPC   C4B 8938   8.607  23.300   7.616
  335POPC   NC3 8939  23.580  25.490   9.385
  335POPC   PO4 8940  23.993  25.041   9.536
  335POPC   GL1 8941  23.849  25.109   9.093
  335POPC   GL2 8942  23.725  25.437   8.903
  335POPC   C1A 8943  23.782  25.015   8.652
  335POPC   D2A 8944  23.675  25.370   8.381
  335POPC   C3A 8945  23.726  25.120   7.993
  335POPC   C4A 8946  23.687  25.154   7.552
  335POPC   C1B 8947  23.950  25.759   8.607
  335POPC   C2B 8948  24.056  25.716   8.172
  335POPC   C3B 8949  24.052  25.456   7.825
  335POPC   C4B 8950  24.077  25.464   7.343
  336POPC   NC3 8951  38.034  44.286   9.419
  336POPC   PO4 8952  38.221  44.970   9.530
  336POPC   GL1 8953  37.983  44.846   9.159
  336POPC   GL2 8954  37.667  44.647   9.207
  336POPC   C1A 8955  37.818  44.786   8.750
  336POPC   D2A 8956  37.804  44.517   8.415
  336POPC   C3A 8957  37.718  44.802   8.129
  336POPC   C4A 8958  37.735  44.860   7.728
  336POPC   C1B 8959  37.460  44.428   8.829
  336POPC   C2B 8960  37.293  44.419   8.397
  336POPC   C3B 8961  37.450  44.393   7.980
  336POPC   C4B 8962  37.603  44.392   7.557
  337POPC   NC3 8963  32.711   7.821   9.536
  337POPC   PO4 8964  33.241   8.337   9.469
  337POPC   GL1 8965  33.090   8.280   9.125
  337POPC   GL2 8966  32.805   8.165   9.149
  337POPC   C1A 8967  33.235   8.209   8.753
  337POPC   D2A 8968  33.017   8.324   8.390
  337POPC   C3A 8969  33.251   8.292   8.009
  337POPC   C4A 8970  33.236   8.266   7.565
  337POPC   C1B 8971  32.672   8.381   8.797
  337POPC   C2B 8972  32.499   8.310   8.399
  337POPC   C3B 8973  32.664   7.999   8.128
  337POPC   C4B 8974  32.769   8.203   7.754
  338POPC   NC3 8975  25.133  23.374   9.626
  338POPC   PO4 8976  25.590  23.695   9.442
  338POPC   GL1 8977  25.417  23.628   9.080
  338POPC   GL2 8978  25.060  23.652   9.155
  338POPC   C1A 8979  25.551  23.793   8.697
  338POPC   D2A 8980  25.667  23.857   8.267
  338POPC   C3A 8981  25.435  23.827   7.889
  338POPC   C4A 8982  25.309  23.395   7.894
  338POPC   C1B 8983  25.037  23.751   8.703
  338POPC   C2B 8984  24.863  24.026   8.372
  338POPC   C3B 8985  24.944  23.814   8.035
  338POPC   C4B 8986  24.810  23.702   7.679
  339POPC   NC3 8987  42.948  30.450   9.482
  339POPC   PO4 8988  42.605  30.968   9.722
  339POPC   GL1 8989  42.798  31.026   9.256
  339POPC   GL2 8990  43.027  30.767   9.094
  339POPC   C1A 8991  42.832  31.118   8.777
  339POPC   D2A 8992  42.784  31.081   8.290
  339POPC   C3A 8993  43.028  30.804   7.996
  339POPC   C4A 8994  43.023  30.639   7.547
  339POPC   C1B 8995  43.189  30.761   8.642
  339POPC   C2B 8996  43.437  30.656   8.248
  339POPC   C3B 8997  43.314  30.377   7.857
  339POPC   C4B 8998  43.324  30.271   7.367
  340POPC   NC3 8999  10.755  33.359   9.685
  340POPC   PO4 9000  10.515  34.020   9.745
  340POPC   GL1 9001  10.475  33.874   9.279
  340POPC   GL2 9002  10.799  33.841   9.129
  340POPC   C1A 9003  10.361  33.803   8.826
  340POPC   D2A 9004  10.373  33.999   8.414
  340POPC   C3A 9005  10.349  33.770   8.031
  340POPC   C4A 9006  10.463  33.986   7.668
  340POPC   C1B 9007  10.819  34.001   8.716
  340POPC   C2B 9008  10.777  33.739   8.335
  340POPC   C3B 9009  10.884  33.861   7.932
  340POPC   C4B 9010  10.935  33.891   7.486
  341POPC   NC3 9011  27.270   1.925   9.764
  341POPC   PO4 9012  26.679   1.816   9.489
  341POPC   GL1 9013  26.684   2.012   9.089
  341POPC   GL2 9014  26.438   2.318   9.143
  341POPC   C1A 9015  26.899   2.215   8.712
  341POPC   D2A 9016  26.778   2.390   8.305
  341POPC   C3A 9017  27.017   2.216   7.908
  341POPC   C4A 9018  27.076   1.912   7.519
  341POPC   C1B 9019  26.386   2.139   8.723
  341POPC   C2B 9020  26.220   2.000   8.343
  341POPC   C3B 9021  26.472   2.132   8.009
  341POPC   C4B 9022  26.632   2.127   7.590
  342POPC   NC3 9023  17.913  37.152   9.483
  342POPC   PO4 9024  17.512  36.563   9.590
  342POPC   GL1 9025  17.606  36.780   9.247
  342POPC   GL2 9026  17.411  37.055   9.279
  342POPC   C1A 9027  17.621  36.768   8.810
  342POPC   D2A 9028  17.385  36.868   8.429
  342POPC   C3A 9029  17.551  36.852   8.014
  342POPC   C4A 9030  17.702  36.769   7.636
  342POPC   C1B 9031  17.417  37.243   8.879
  342POPC   C2B 9032  17.185  37.364   8.534
  342POPC   C3B 9033  17.313  37.290   8.128
  342POPC   C4B 9034  17.381  37.243   7.690
  343POPC   NC3 9035  10.045   6.414   9.516
  343POPC   PO4 9036   9.489   6.777   9.486
  343POPC   GL1 9037   9.770   6.766   9.149
  343POPC   GL2 9038   9.675   6.431   9.129
  343POPC   C1A 9039   9.873   6.897   8.699
  343POPC   D2A 9040   9.974   6.628   8.311
  343POPC   C3A 9041   9.721   6.565   7.972
  343POPC   C4A 9042   9.723   6.874   7.695
  343POPC   C1B 9043   9.866   6.369   8.739
  343POPC   C2B 9044  10.047   6.135   8.379
  343POPC   C3B 9045  10.118   6.260   7.941
  343POPC   C4B 9046  10.016   6.444   7.554
  344POPC   NC3 9047   7.600  15.630   9.604
  344POPC   PO4 9048   7.407  14.949   9.538
  344POPC   GL1 9049   7.429  15.247   9.220
  344POPC   GL2 9050   7.214  15.020   9.063
  344POPC   C1A 9051   7.556  15.335   8.780
  344POPC   D2A 9052   7.782  15.160   8.401
  344POPC   C3A 9053   7.501  15.193   8.086
  344POPC   C4A 9054   7.473  15.455   7.738
  344POPC   C1B 9055   6.878  14.788   8.854
  344POPC   C2B 9056   6.984  14.588   8.473
  344POPC   C3B 9057   7.098  14.775   8.056
  344POPC   C4B 9058   7.294  14.944   7.673
  345POPC   NC3 9059   2.788  12.999   9.562
  345POPC   PO4 9060   2.470  12.529   9.493
  345POPC   GL1 9061   2.691  12.745   9.121
  345POPC   GL2 9062   2.662  13.128   9.103
  345POPC   C1A 9063   2.821  12.775   8.695
  345POPC   D2A 9064   2.737  12.639   8.287
  345POPC   C3A 9065   2.469  12.840   8.028
  345POPC   C4A 9066   2.286  12.632   7.717
  345POPC   C1B 9067   2.760  13.271   8.716
  345POPC   C2B 9068   2.979  13.116   8.337
  345POPC   C3B 9069   3.023  12.887   7.937
  345POPC   C4B 9070   2.744  12.913   7.585
  346POPC   NC3 9071  20.583  16.943   9.523
  346POPC   PO4 9072  20.647  16.433   9.304
  346POPC   GL1 9073  20.558  16.789   9.036
  346POPC   GL2 9074  20.247  16.920   9.078
  346POPC   C1A 9075  20.519  17.014   8.644
  346POPC   D2A 9076  20.695  16.831   8.293
  346POPC   C3A 9077  20.554  16.784   7.882
  346POPC   C4A 9078  20.822  16.956   7.555
  346POPC   C1B 9079  20.209  16.611   8.690
  346POPC   C2B 9080  20.331  16.441   8.268
  346POPC   C3B 9081  20.156  16.447   7.832
  346POPC   C4B 9082  20.051  16.324   7.379
  347POPC   NC3 9083   5.232  35.735   9.371
  347POPC   PO4 9084   5.191  35.151   9.753
  347POPC   GL1 9085   5.207  35.267   9.250
  347POPC   GL2 9086   5.282  35.048   9.020
  347POPC   C1A 9087   5.078  35.449   8.781
  347POPC   D2A 9088   4.790  35.466   8.383
  347POPC   C3A 9089   4.867  35.443   7.943
  347POPC   C4A 9090   4.819  35.059   7.741
  347POPC   C1B 9091   5.084  34.961   8.660
  347POPC   C2B 9092   5.189  35.147   8.296
  347POPC   C3B 9093   5.341  35.228   7.920
  347POPC   C4B 9094   5.337  35.683   7.915
  348POPC   NC3 9095   7.829  19.083   9.523
  348POPC   PO4 9096   8.487  19.176   9.556
  348POPC   GL1 9097   8.280  19.012   9.199
  348POPC   GL2 9098   8.430  19.296   9.052
  348POPC   C1A 9099   8.061  18.868   8.800
  348POPC   D2A 9100   8.263  18.740   8.392
  348POPC   C3A 9101   8.099  18.751   7.960
  348POPC   C4A 9102   8.079  18.827   7.495
  348POPC   C1B 9103   8.506  19.090   8.714
  348POPC   C2B 9104   8.360  19.236   8.353
  348POPC   C3B 9105   8.519  19.044   8.008
  348POPC   C4B 9106   8.404  19.184   7.633
  349POPC   NC3 9107  10.123  17.425   9.615
  349POPC   PO4 9108   9.606  17.857   9.525
  349POPC   GL1 9109   9.883  17.650   9.206
  349POPC   GL2 9110   9.634  17.370   9.159
  349POPC   C1A 9111   9.971  17.439   8.782
  349POPC   D2A 9112   9.676  17.359   8.441
  349POPC   C3A 9113   9.713  17.466   8.019
  349POPC   C4A 9114   9.989  17.399   7.705
  349POPC   C1B 9115   9.478  17.640   8.811
  349POPC   C2B 9116   9.261  17.639   8.398
  349POPC   C3B 9117   9.376  17.852   8.024
  349POPC   C4B 9118   9.514  17.755   7.614
  350POPC   NC3 9119  17.035  44.619   9.594
  350POPC   PO4 9120  16.533   0.007   9.497
  350POPC   GL1 9121  16.704  44.660   9.185
  350POPC   GL2 9122  17.020  44.431   9.111
  350POPC   C1A 9123  16.446  44.528   8.832
  350POPC   D2A 9124  16.329  44.756   8.461
  350POPC   C3A 9125  16.489  44.622   8.083
  350POPC   C4A 9126  16.475  44.829   7.702
  350POPC   C1B 9127  16.950  44.656   8.714
  350POPC   C2B 9128  17.057  44.659   8.279
  350POPC   C3B 9129  16.943  44.774   7.884
  350POPC   C4B 9130  17.048  44.480   7.583
  351POPC   NC3 9131  38.889  27.266   9.439
  351POPC   PO4 9132  38.286  27.022   9.579
  351POPC   GL1 9133  38.319  26.787   9.190
  351POPC   GL2 9134  38.113  27.038   9.095
  351POPC   C1A 9135  38.283  26.583   8.747
  351POPC   D2A 9136  38.587  26.568   8.389
  351POPC   C3A 9137  38.614  26.839   7.995
  351POPC   C4A 9138  38.437  26.720   7.574
  351POPC   C1B 9139  38.426  27.059   8.751
  351POPC   C2B 9140  38.238  26.954   8.359
  351POPC   C3B 9141  38.145  27.044   7.947
  351POPC   C4B 9142  38.392  27.211   7.603
  352POPC   NC3 9143  10.092  12.492   9.341
  352POPC   PO4 9144  10.656  12.775   9.615
  352POPC   GL1 9145  10.453  12.821   9.174
  352POPC   GL2 9146  10.290  13.153   9.088
  352POPC   C1A 9147  10.431  12.721   8.710
  352POPC   D2A 9148  10.357  12.493   8.306
  352POPC   C3A 9149  10.584  12.681   7.933
  352POPC   C4A 9150  10.845  13.046   7.809
  352POPC   C1B 9151  10.102  13.127   8.665
  352POPC   C2B 9152  10.305  13.012   8.259
  352POPC   C3B 9153  10.326  13.121   7.792
  352POPC   C4B 9154  10.139  13.267   7.386
  353POPC   NC3 9155  26.330  13.609   9.548
  353POPC   PO4 9156  25.966  14.111   9.786
  353POPC   GL1 9157  25.996  13.953   9.237
  353POPC   GL2 9158  25.684  14.042   9.074
  353POPC   C1A 9159  25.883  13.625   8.830
  353POPC   D2A 9160  25.740  13.615   8.349
  353POPC   C3A 9161  25.950  13.289   8.028
  353POPC   C4A 9162  26.127  13.429   7.629
  353POPC   C1B 9163  26.008  14.105   8.754
  353POPC   C2B 9164  26.081  14.028   8.347
  353POPC   C3B 9165  26.146  13.775   8.005
  353POPC   C4B 9166  26.295  13.926   7.596
  354POPC   NC3 9167   8.645   5.191   9.577
  354POPC   PO4 9168   9.260   5.077   9.613
  354POPC   GL1 9169   8.969   4.968   9.237
  354POPC   GL2 9170   8.933   5.310   9.151
  354POPC   C1A 9171   8.843   4.961   8.761
  354POPC   D2A 9172   8.873   4.830   8.300
  354POPC   C3A 9173   9.005   5.029   7.926
  354POPC   C4A 9174   9.346   4.973   7.611
  354POPC   C1B 9175   9.158   5.378   8.776
  354POPC   C2B 9176   9.126   5.280   8.360
  354POPC   C3B 9177   9.330   5.392   7.976
  354POPC   C4B 9178   9.221   5.487   7.534
  355POPC   NC3 9179  31.204  29.929   9.542
  355POPC   PO4 9180  30.555  29.725   9.618
  355POPC   GL1 9181  30.645  29.956   9.246
  355POPC   GL2 9182  30.410  29.751   9.069
  355POPC   C1A 9183  30.621  30.142   8.822
  355POPC   D2A 9184  30.383  29.898   8.508
  355POPC   C3A 9185  30.456  29.876   8.076
  355POPC   C4A 9186  30.567  30.222   7.846
  355POPC   C1B 9187  30.749  29.642   8.763
  355POPC   C2B 9188  30.934  29.793   8.390
  355POPC   C3B 9189  30.964  29.720   7.964
  355POPC   C4B 9190  30.664  29.525   7.752
  356POPC   NC3 9191  34.225  21.236   9.368
  356POPC   PO4 9192  33.500  21.079   9.436
  356POPC   GL1 9193  33.761  21.361   9.162
  356POPC   GL2 9194  33.700  21.716   9.127
  356POPC   C1A 9195  33.989  21.473   8.771
  356POPC   D2A 9196  33.949  21.257   8.400
  356POPC   C3A 9197  33.610  21.356   8.179
  356POPC   C4A 9198  33.817  21.414   7.802
  356POPC   C1B 9199  33.620  21.816   8.696
  356POPC   C2B 9200  33.847  21.782   8.323
  356POPC   C3B 9201  33.669  21.883   7.949
  356POPC   C4B 9202  33.613  21.777   7.509
  357POPC   NC3 9203  17.583  25.313   9.635
  357POPC   PO4 9204  17.191  24.721   9.619
  357POPC   GL1 9205  17.491  24.906   9.291
  357POPC   GL2 9206  17.293  24.830   9.021
  357POPC   C1A 9207  17.605  25.198   8.927
  357POPC   D2A 9208  17.504  25.153   8.491
  357POPC   C3A 9209  17.780  25.313   8.210
  357POPC   C4A 9210  17.794  25.339   7.802
  357POPC   C1B 9211  17.093  25.215   8.818
  357POPC   C2B 9212  17.050  25.407   8.406
  357POPC   C3B 9213  17.222  25.367   7.963
  357POPC   C4B 9214  17.095  25.141   7.550
  358POPC   NC3 9215  12.944  42.434   9.533
  358POPC   PO4 9216  12.619  41.769   9.509
  358POPC   GL1 9217  12.774  42.064   9.184
  358POPC   GL2 9218  12.624  42.419   9.131
  358POPC   C1A 9219  12.711  42.136   8.737
  358POPC   D2A 9220  12.956  42.018   8.392
  358POPC   C3A 9221  12.893  42.153   7.995
  358POPC   C4A 9222  13.200  42.174   7.691
  358POPC   C1B 9223  12.893  42.610   8.776
  358POPC   C2B 9224  13.062  42.526   8.357
  358POPC   C3B 9225  13.077  42.617   7.924
  358POPC   C4B 9226  12.957  42.918   7.687
  359POPC   NC3 9227  34.748  12.321   9.501
  359POPC   PO4 9228  34.514  11.634   9.558
  359POPC   GL1 9229  34.627  11.931   9.181
  359POPC   GL2 9230  34.417  12.246   9.111
  359POPC   C1A 9231  34.902  11.931   8.793
  359POPC   D2A 9232  35.088  11.939   8.352
  359POPC   C3A 9233  34.772  11.902   8.035
  359POPC   C4A 9234  34.513  12.122   7.758
  359POPC   C1B 9235  34.427  12.162   8.653
  359POPC   C2B 9236  34.462  12.375   8.233
  359POPC   C3B 9237  34.249  12.531   7.854
  359POPC   C4B 9238  34.059  12.239   7.507
  360POPC   NC3 9239  10.217  16.067   9.573
  360POPC   PO4 9240  10.784  15.610   9.545
  360POPC   GL1 9241  10.659  15.773   9.139
  360POPC   GL2 9242  10.450  16.056   9.133
  360POPC   C1A 9243  10.523  15.768   8.687
  360POPC   D2A 9244  10.181  15.718   8.406
  360POPC   C3A 9245  10.273  15.766   7.999
  360POPC   C4A 9246  10.632  15.727   7.752
  360POPC   C1B 9247  10.391  16.259   8.768
  360POPC   C2B 9248  10.460  16.156   8.329
  360POPC   C3B 9249  10.398  16.269   7.915
  360POPC   C4B 9250  10.349  16.068   7.519
  361POPC   NC3 9251  43.550   1.789   9.566
  361POPC   PO4 9252  43.739   2.443   9.655
  361POPC   GL1 9253  43.708   2.284   9.174
  361POPC   GL2 9254  43.600   1.903   9.081
  361POPC   C1A 9255  43.884   2.120   8.728
  361POPC   D2A 9256  44.069   2.143   8.298
  361POPC   C3A 9257  43.896   2.045   7.879
  361POPC   C4A 9258  44.231   1.877   7.608
  361POPC   C1B 9259  43.606   1.512   8.821
  361POPC   C2B 9260  43.776   1.597   8.419
  361POPC   C3B 9261  43.632   1.547   8.005
  361POPC   C4B 9262  43.603   1.716   7.578
  362POPC   NC3 9263  27.130  13.194   9.455
  362POPC   PO4 9264  26.810  13.662   9.811
  362POPC   GL1 9265  26.796  13.573   9.332
  362POPC   GL2 9266  27.053  13.741   9.192
  362POPC   C1A 9267  26.715  13.562   8.843
  362POPC   D2A 9268  26.704  13.339   8.409
  362POPC   C3A 9269  26.757  13.485   7.979
  362POPC   C4A 9270  26.625  13.528   7.555
  362POPC   C1B 9271  27.094  13.884   8.746
  362POPC   C2B 9272  27.084  13.685   8.345
  362POPC   C3B 9273  27.142  13.800   7.933
  362POPC   C4B 9274  27.109  13.638   7.457
  363POPC   NC3 9275  13.305  37.790   9.500
  363POPC   PO4 9276  13.738  37.307   9.489
  363POPC   GL1 9277  13.625  37.569   9.174
  363POPC   GL2 9278  13.271  37.410   9.169
  363POPC   C1A 9279  13.721  37.835   8.782
  363POPC   D2A 9280  13.535  37.892   8.360
  363POPC   C3A 9281  13.760  37.750   7.975
  363POPC   C4A 9282  13.600  37.854   7.527
  363POPC   C1B 9283  13.482  37.392   8.742
  363POPC   C2B 9284  13.715  37.419   8.416
  363POPC   C3B 9285  13.516  37.283   8.072
  363POPC   C4B 9286  13.555  37.385   7.684
  364POPC   NC3 9287  21.807  31.449   9.422
  364POPC   PO4 9288  22.240  31.007   9.498
  364POPC   GL1 9289  22.174  31.261   9.106
  364POPC   GL2 9290  21.851  31.415   8.926
  364POPC   C1A 9291  22.293  31.253   8.713
  364POPC   D2A 9292  22.364  31.061   8.362
  364POPC   C3A 9293  22.070  31.193   8.092
  364POPC   C4A 9294  22.015  31.212   7.690
  364POPC   C1B 9295  22.087  31.722   8.727
  364POPC   C2B 9296  22.174  31.668   8.318
  364POPC   C3B 9297  21.966  31.698   7.919
  364POPC   C4B 9298  21.819  31.703   7.480
  365POPC   NC3 9299   9.242  22.933   9.472
  365POPC   PO4 9300   8.591  22.736   9.653
  365POPC   GL1 9301   8.772  22.943   9.260
  365POPC   GL2 9302   8.830  22.586   9.206
  365POPC   C1A 9303   9.033  23.162   8.852
  365POPC   D2A 9304   8.947  23.377   8.442
  365POPC   C3A 9305   9.176  23.218   8.105
  365POPC   C4A 9306   9.074  23.118   7.706
  365POPC   C1B 9307   8.816  22.717   8.790
  365POPC   C2B 9308   9.040  22.837   8.424
  365POPC   C3B 9309   9.056  22.662   8.013
  365POPC   C4B 9310   8.859  22.678   7.603
  366POPC   NC3 9311  21.168  40.978   9.546
  366POPC   PO4 9312  21.597  40.496   9.468
  366POPC   GL1 9313  21.285  40.624   9.145
  366POPC   GL2 9314  21.371  41.001   9.075
  366POPC   C1A 9315  21.123  40.734   8.722
  366POPC   D2A 9316  21.301  41.134   8.560
  366POPC   C3A 9317  21.284  41.090   8.122
  366POPC   C4A 9318  21.310  40.666   7.928
  366POPC   C1B 9319  21.647  40.771   8.764
  366POPC   C2B 9320  21.682  40.805   8.305
  366POPC   C3B 9321  21.768  40.858   7.844
  366POPC   C4B 9322  21.604  40.932   7.410
  367POPC   NC3 9323  20.171  32.072   9.635
  367POPC   PO4 9324  19.760  32.519   9.530
  367POPC   GL1 9325  19.878  32.214   9.198
  367POPC   GL2 9326  20.138  31.975   9.146
  367POPC   C1A 9327  19.897  32.334   8.755
  367POPC   D2A 9328  19.640  32.301   8.389
  367POPC   C3A 9329  19.768  32.244   7.947
  367POPC   C4A 9330  19.705  32.461   7.541
  367POPC   C1B 9331  20.242  31.951   8.730
  367POPC   C2B 9332  20.073  32.042   8.340
  367POPC   C3B 9333  20.220  31.975   7.905
  367POPC   C4B 9334  20.022  32.043   7.508
  368POPC   NC3 9335  12.563  14.713   9.441
  368POPC   PO4 9336  12.021  15.067   9.596
  368POPC   GL1 9337  11.825  15.110   9.200
  368POPC   GL2 9338  11.826  15.455   9.195
  368POPC   C1A 9339  11.815  15.003   8.749
  368POPC   D2A 9340  11.954  15.258   8.365
  368POPC   C3A 9341  11.888  15.108   7.971
  368POPC   C4A 9342  11.892  14.924   7.572
  368POPC   C1B 9343  12.047  15.439   8.837
  368POPC   C2B 9344  12.332  15.536   8.547
  368POPC   C3B 9345  12.259  15.638   8.139
  368POPC   C4B 9346  12.225  15.474   7.747
  369POPC   NC3 9347  41.224   3.594   9.478
  369POPC   PO4 9348  41.783   3.334   9.522
  369POPC   GL1 9349  41.546   3.327   9.160
  369POPC   GL2 9350  41.533   3.696   9.094
  369POPC   C1A 9351  41.230   3.343   8.832
  369POPC   D2A 9352  41.151   3.613   8.482
  369POPC   C3A 9353  41.443   3.442   8.159
  369POPC   C4A 9354  41.551   3.344   7.718
  369POPC   C1B 9355  41.682   3.607   8.709
  369POPC   C2B 9356  42.003   3.763   8.440
  369POPC   C3B 9357  41.927   3.659   8.024
  369POPC   C4B 9358  41.812   3.751   7.591
  370POPC   NC3 9359   4.307  13.269   9.419
  370POPC   PO4 9360   4.543  12.632   9.423
  370POPC   GL1 9361   4.115  12.762   9.265
  370POPC   GL2 9362   3.934  13.055   9.097
  370POPC   C1A 9363   4.027  12.613   8.866
  370POPC   D2A 9364   4.277  12.500   8.525
  370POPC   C3A 9365   4.223  12.723   8.124
  370POPC   C4A 9366   4.051  12.933   7.733
  370POPC   C1B 9367   4.355  12.989   8.852
  370POPC   C2B 9368   4.507  12.978   8.456
  370POPC   C3B 9369   4.647  13.006   8.040
  370POPC   C4B 9370   4.809  13.135   7.683
  371POPC   NC3 9371  25.111  30.911   9.373
  371POPC   PO4 9372  25.694  30.830   9.662
  371POPC   GL1 9373  25.578  30.722   9.229
  371POPC   GL2 9374  25.470  31.028   9.056
  371POPC   C1A 9375  25.325  30.542   8.860
  371POPC   D2A 9376  25.421  30.502   8.418
  371POPC   C3A 9377  25.172  30.385   8.078
  371POPC   C4A 9378  25.108  30.638   7.708
  371POPC   C1B 9379  25.654  30.909   8.728
  371POPC   C2B 9380  25.426  31.025   8.394
  371POPC   C3B 9381  25.247  31.027   8.005
  371POPC   C4B 9382  25.463  31.041   7.636
  372POPC   NC3 9383  29.703   5.662   9.788
  372POPC   PO4 9384  29.128   5.805   9.472
  372POPC   GL1 9385  28.985   5.642   9.120
  372POPC   GL2 9386  29.033   5.980   9.003
  372POPC   C1A 9387  29.090   5.606   8.674
  372POPC   D2A 9388  28.930   5.892   8.347
  372POPC   C3A 9389  29.086   5.743   7.939
  372POPC   C4A 9390  29.417   5.917   7.705
  372POPC   C1B 9391  28.794   6.288   8.781
  372POPC   C2B 9392  29.014   6.437   8.419
  372POPC   C3B 9393  29.164   6.274   8.041
  372POPC   C4B 9394  28.965   6.179   7.679
  373POPC   NC3 9395  21.852  37.879   9.572
  373POPC   PO4 9396  22.564  37.754   9.780
  373POPC   GL1 9397  22.293  37.904   9.340
  373POPC   GL2 9398  22.098  37.643   9.177
  373POPC   C1A 9399  22.366  38.000   8.882
  373POPC   D2A 9400  22.366  37.689   8.547
  373POPC   C3A 9401  22.288  37.819   8.122
  373POPC   C4A 9402  22.447  37.644   7.723
  373POPC   C1B 9403  21.928  37.757   8.817
  373POPC   C2B 9404  21.877  37.526   8.445
  373POPC   C3B 9405  22.171  37.333   8.176
  373POPC   C4B 9406  22.150  37.229   7.735
  374POPC   NC3 9407  19.035  34.232   9.376
  374POPC   PO4 9408  18.777  34.782   9.343
  374POPC   GL1 9409  19.097  34.650   9.038
  374POPC   GL2 9410  19.245  34.331   8.940
  374POPC   C1A 9411  18.961  34.552   8.589
  374POPC   D2A 9412  18.807  34.785   8.219
  374POPC   C3A 9413  18.950  34.634   7.810
  374POPC   C4A 9414  19.238  34.623   7.456
  374POPC   C1B 9415  19.441  34.628   8.666
  374POPC   C2B 9416  19.320  34.614   8.227
  374POPC   C3B 9417  19.503  34.675   7.878
  374POPC   C4B 9418  19.614  35.014   7.716
  375POPC   NC3 9419  21.993  44.279   9.400
  375POPC   PO4 9420  21.923  43.697   9.738
  375POPC   GL1 9421  22.077  43.560   9.291
  375POPC   GL2 9422  22.325  43.775   9.176
  375POPC   C1A 9423  22.012  43.553   8.810
  375POPC   D2A 9424  21.839  43.467   8.366
  375POPC   C3A 9425  22.059  43.610   7.981
  375POPC   C4A 9426  21.993  43.915   7.646
  375POPC   C1B 9427  22.274  44.013   8.781
  375POPC   C2B 9428  22.314  43.958   8.331
  375POPC   C3B 9429  22.195  44.222   7.983
  375POPC   C4B 9430  21.919  44.462   7.723
  376POPC   NC3 9431  18.450  21.490   9.584
  376POPC   PO4 9432  17.895  21.653   9.306
  376POPC   GL1 9433  18.246  21.384   9.111
  376POPC   GL2 9434  18.627  21.266   9.158
  376POPC   C1A 9435  18.091  21.305   8.717
  376POPC   D2A 9436  18.044  21.574   8.386
  376POPC   C3A 9437  18.124  21.423   7.987
  376POPC   C4A 9438  18.323  21.645   7.704
  376POPC   C1B 9439  18.613  21.402   8.730
  376POPC   C2B 9440  18.471  21.256   8.327
  376POPC   C3B 9441  18.630  21.270   7.908
  376POPC   C4B 9442  18.614  21.003   7.559
  377POPC   NC3 9443  27.492   9.500   9.410
  377POPC   PO4 9444  27.941   9.995   9.494
  377POPC   GL1 9445  27.674   9.935   9.157
  377POPC   GL2 9446  27.320   9.969   9.200
  377POPC   C1A 9447  27.638   9.771   8.765
  377POPC   D2A 9448  27.471   9.703   8.385
  377POPC   C3A 9449  27.714   9.681   7.999
  377POPC   C4A 9450  27.626   9.453   7.654
  377POPC   C1B 9451  27.139   9.893   8.765
  377POPC   C2B 9452  27.086  10.052   8.325
  377POPC   C3B 9453  27.221   9.870   7.952
  377POPC   C4B 9454  27.487   9.977   7.655
  378POPC   NC3 9455  22.502  33.093   9.616
  378POPC   PO4 9456  23.210  32.915   9.474
  378POPC   GL1 9457  22.827  32.829   9.248
  378POPC   GL2 9458  22.842  33.144   9.200
  378POPC   C1A 9459  22.671  32.921   8.808
  378POPC   D2A 9460  22.879  33.166   8.508
  378POPC   C3A 9461  22.746  33.098   8.101
  378POPC   C4A 9462  22.872  32.803   7.783
  378POPC   C1B 9463  23.137  33.413   8.915
  378POPC   C2B 9464  23.279  33.494   8.485
  378POPC   C3B 9465  23.232  33.278   8.128
  378POPC   C4B 9466  23.112  33.258   7.750
  379POPC   NC3 9467  34.177  19.584   9.570
  379POPC   PO4 9468  34.694  19.969   9.369
  379POPC   GL1 9469  34.527  19.862   8.997
  379POPC   GL2 9470  34.402  19.566   9.111
  379POPC   C1A 9471  34.560  19.689   8.602
  379POPC   D2A 9472  34.687  19.997   8.322
  379POPC   C3A 9473  34.468  20.082   7.958
  379POPC   C4A 9474  34.821  19.881   7.781
  379POPC   C1B 9475  34.102  19.495   8.801
  379POPC   C2B 9476  34.041  19.650   8.395
  379POPC   C3B 9477  34.264  19.585   8.007
  379POPC   C4B 9478  34.334  19.734   7.611
  380POPC   NC3 9479  22.309  39.602   9.748
  380POPC   PO4 9480  21.928  39.046   9.509
  380POPC   GL1 9481  22.134  39.227   9.180
  380POPC   GL2 9482  21.861  39.418   9.102
  380POPC   C1A 9483  22.328  39.044   8.795
  380POPC   D2A 9484  22.171  38.784   8.431
  380POPC   C3A 9485  22.370  38.830   8.022
  380POPC   C4A 9486  22.216  38.944   7.610
  380POPC   C1B 9487  21.987  39.430   8.693
  380POPC   C2B 9488  22.165  39.298   8.291
  380POPC   C3B 9489  22.440  39.338   7.931
  380POPC   C4B 9490  22.450  39.403   7.469
  381POPC   NC3 9491   8.322   0.563   9.477
  381POPC   PO4 9492   7.760   0.252   9.213
  381POPC   GL1 9493   8.225   0.282   9.078
  381POPC   GL2 9494   8.429   0.626   8.997
  381POPC   C1A 9495   8.487   0.181   8.745
  381POPC   D2A 9496   8.471   0.396   8.396
  381POPC   C3A 9497   8.467   0.189   8.049
  381POPC   C4A 9498   8.464   0.602   7.902
  381POPC   C1B 9499   8.128   0.620   8.683
  381POPC   C2B 9500   8.013   0.699   8.229
  381POPC   C3B 9501   8.017   0.813   7.783
  381POPC   C4B 9502   7.957   0.927   7.342
  382POPC   NC3 9503  30.734  29.398   9.360
  382POPC   PO4 9504  30.372  28.898   9.574
  382POPC   GL1 9505  30.668  28.965   9.147
  382POPC   GL2 9506  30.385  29.236   9.053
  382POPC   C1A 9507  30.726  29.122   8.678
  382POPC   D2A 9508  30.948  29.252   8.260
  382POPC   C3A 9509  30.856  28.999   7.872
  382POPC   C4A 9510  30.814  28.724   7.474
  382POPC   C1B 9511  30.254  29.433   8.707
  382POPC   C2B 9512  30.456  29.422   8.323
  382POPC   C3B 9513  30.287  29.288   7.963
  382POPC   C4B 9514  30.044  29.359   7.615
  383POPC   NC3 9515  20.966  38.310   9.636
  383POPC   PO4 9516  20.369  38.687   9.492
  383POPC   GL1 9517  20.508  38.594   9.101
  383POPC   GL2 9518  20.850  38.467   9.144
  383POPC   C1A 9519  20.316  38.573   8.685
  383POPC   D2A 9520  20.121  38.529   8.283
  383POPC   C3A 9521  20.305  38.564   7.869
  383POPC   C4A 9522  20.248  38.243   7.572
  383POPC   C1B 9523  20.843  38.599   8.698
  383POPC   C2B 9524  20.663  38.576   8.270
  383POPC   C3B 9525  20.820  38.456   7.849
  383POPC   C4B 9526  21.091  38.594   7.518
  384POPC   NC3 9527  12.200  17.150   9.622
  384POPC   PO4 9528  12.191  17.807   9.696
  384POPC   GL1 9529  12.062  17.552   9.325
  384POPC   GL2 9530  12.387  17.589   9.190
  384POPC   C1A 9531  11.962  17.560   8.856
  384POPC   D2A 9532  11.871  17.356   8.437
  384POPC   C3A 9533  11.862  17.642   8.091
  384POPC   C4A 9534  11.836  17.531   7.651
  384POPC   C1B 9535  12.476  17.389   8.793
  384POPC   C2B 9536  12.390  17.201   8.396
  384POPC   C3B 9537  12.268  17.349   8.000
  384POPC   C4B 9538  12.357  17.633   7.669
  385POPC   NC3 9539  29.530   5.834   9.247
  385POPC   PO4 9540  30.104   5.597   9.531
  385POPC   GL1 9541  30.098   5.875   9.158
  385POPC   GL2 9542  29.923   6.181   9.073
  385POPC   C1A 9543  29.983   5.844   8.711
  385POPC   D2A 9544  30.093   5.826   8.295
  385POPC   C3A 9545  29.823   5.702   7.985
  385POPC   C4A 9546  30.040   5.816   7.676
  385POPC   C1B 9547  29.591   6.185   8.706
  385POPC   C2B 9548  29.577   6.055   8.263
  385POPC   C3B 9549  29.790   6.218   7.879
  385POPC   C4B 9550  29.790   6.165   7.388
  386POPC   NC3 9551  21.088  36.111   9.676
  386POPC   PO4 9552  21.468  35.643   9.435
  386POPC   GL1 9553  21.418  35.989   9.145
  386POPC   GL2 9554  21.290  36.328   9.255
  386POPC   C1A 9555  21.665  36.156   8.784
  386POPC   D2A 9556  21.721  35.930   8.407
  386POPC   C3A 9557  21.601  36.144   8.030
  386POPC   C4A 9558  21.444  36.030   7.652
  386POPC   C1B 9559  21.197  36.345   8.838
  386POPC   C2B 9560  21.227  36.147   8.448
  386POPC   C3B 9561  21.135  36.364   8.090
  386POPC   C4B 9562  21.003  36.287   7.704
  387POPC   NC3 9563  29.103  34.780   9.360
  387POPC   PO4 9564  29.544  34.231   9.562
  387POPC   GL1 9565  29.375  34.378   9.179
  387POPC   GL2 9566  29.035  34.310   9.089
  387POPC   C1A 9567  29.422  34.457   8.749
  387POPC   D2A 9568  29.527  34.312   8.360
  387POPC   C3A 9569  29.274  34.528   8.117
  387POPC   C4A 9570  28.995  34.669   7.775
  387POPC   C1B 9571  28.966  34.238   8.647
  387POPC   C2B 9572  28.815  34.428   8.273
  387POPC   C3B 9573  28.712  34.270   7.857
  387POPC   C4B 9574  28.789  34.307   7.409
  388POPC   NC3 9575  15.375  40.530   9.594
  388POPC   PO4 9576  14.790  40.893   9.554
  388POPC   GL1 9577  15.136  40.877   9.275
  388POPC   GL2 9578  14.920  40.960   9.029
  388POPC   C1A 9579  15.280  40.614   8.916
  388POPC   D2A 9580  15.317  40.736   8.472
  388POPC   C3A 9581  15.118  40.516   8.128
  388POPC   C4A 9582  15.078  40.598   7.706
  388POPC   C1B 9583  14.962  41.129   8.620
  388POPC   C2B 9584  14.854  40.956   8.227
  388POPC   C3B 9585  14.869  41.058   7.787
  388POPC   C4B 9586  14.928  41.190   7.384
  389POPC   NC3 9587  36.365  19.095   9.644
  389POPC   PO4 9588  37.052  18.909   9.527
  389POPC   GL1 9589  37.254  18.919   9.127
  389POPC   GL2 9590  36.948  18.955   8.946
  389POPC   C1A 9591  37.339  19.143   8.738
  389POPC   D2A 9592  36.990  19.106   8.445
  389POPC   C3A 9593  37.035  19.052   8.000
  389POPC   C4A 9594  36.748  19.116   7.680
  389POPC   C1B 9595  36.722  18.720   8.667
  389POPC   C2B 9596  36.608  18.832   8.255
  389POPC   C3B 9597  36.756  18.607   7.935
  389POPC   C4B 9598  36.547  18.654   7.584
  390POPC   NC3 9599  20.628  42.856   9.511
  390POPC   PO4 9600  21.012  43.378   9.544
  390POPC   GL1 9601  20.812  43.284   9.129
  390POPC   GL2 9602  20.435  43.185   9.178
  390POPC   C1A 9603  20.632  43.376   8.746
  390POPC   D2A 9604  20.722  43.070   8.445
  390POPC   C3A 9605  20.520  43.216   8.110
  390POPC   C4A 9606  20.704  43.150   7.731
  390POPC   C1B 9607  20.358  42.952   8.814
  390POPC   C2B 9608  20.242  42.855   8.399
  390POPC   C3B 9609  20.045  43.003   8.056
  390POPC   C4B 9610  20.181  43.092   7.656
  391POPC   NC3 9611  33.396  32.039   9.555
  391POPC   PO4 9612  34.085  31.941   9.548
  391POPC   GL1 9613  33.845  32.256   9.292
  391POPC   GL2 9614  33.564  32.182   9.086
  391POPC   C1A 9615  33.921  32.492   8.907
  391POPC   D2A 9616  33.780  32.691   8.504
  391POPC   C3A 9617  33.997  32.600   8.114
  391POPC   C4A 9618  33.840  32.435   7.730
  391POPC   C1B 9619  33.902  31.988   8.844
  391POPC   C2B 9620  33.790  31.938   8.426
  391POPC   C3B 9621  33.600  32.164   8.109
  391POPC   C4B 9622  33.594  31.977   7.727
  392POPC   NC3 9623  30.329  38.867   9.408
  392POPC   PO4 9624  30.894  39.127   9.689
  392POPC   GL1 9625  30.802  39.145   9.234
  392POPC   GL2 9626  30.742  39.515   9.061
  392POPC   C1A 9627  30.799  39.080   8.788
  392POPC   D2A 9628  30.818  39.388   8.437
  392POPC   C3A 9629  30.979  39.142   8.108
  392POPC   C4A 9630  30.855  38.911   7.747
  392POPC   C1B 9631  30.401  39.409   8.750
  392POPC   C2B 9632  30.409  39.082   8.409
  392POPC   C3B 9633  30.453  39.158   7.985
  392POPC   C4B 9634  30.718  39.445   7.786
  393POPC   NC3 9635  35.994  17.284   9.278
  393POPC   PO4 9636  36.123  16.610   9.548
  393POPC   GL1 9637  36.108  16.572   9.098
  393POPC   GL2 9638  36.059  16.863   9.022
  393POPC   C1A 9639  36.100  16.568   8.600
  393POPC   D2A 9640  35.813  16.480   8.235
  393POPC   C3A 9641  35.967  16.552   7.821
  393POPC   C4A 9642  36.218  16.238   7.655
  393POPC   C1B 9643  36.020  17.068   8.661
  393POPC   C2B 9644  36.004  16.947   8.249
  393POPC   C3B 9645  36.255  17.005   7.928
  393POPC   C4B 9646  35.979  17.160   7.662
  394POPC   NC3 9647  11.375  23.219   9.537
  394POPC   PO4 9648  11.158  22.803   9.216
  394POPC   GL1 9649  11.266  22.950   8.892
  394POPC   GL2 9650  11.574  23.092   9.082
  394POPC   C1A 9651  11.107  22.761   8.504
  394POPC   D2A 9652  10.807  22.618   8.204
  394POPC   C3A 9653  10.951  22.893   7.923
  394POPC   C4A 9654  11.204  23.012   7.632
  394POPC   C1B 9655  11.710  22.832   8.732
  394POPC   C2B 9656  11.628  22.812   8.285
  394POPC   C3B 9657  11.629  23.059   7.882
  394POPC   C4B 9658  11.661  23.074   7.379
  395POPC   NC3 9659  27.189   5.201   9.894
  395POPC   PO4 9660  27.747   5.002   9.512
  395POPC   GL1 9661  27.510   4.900   9.171
  395POPC   GL2 9662  27.459   4.582   9.179
  395POPC   C1A 9663  27.584   5.140   8.800
  395POPC   D2A 9664  27.838   5.185   8.483
  395POPC   C3A 9665  27.605   5.241   8.148
  395POPC   C4A 9666  27.762   5.143   7.768
  395POPC   C1B 9667  27.628   4.571   8.795
  395POPC   C2B 9668  27.524   4.486   8.409
  395POPC   C3B 9669  27.580   4.736   8.053
  395POPC   C4B 9670  27.710   4.642   7.647
  396POPC   NC3 9671  37.087  35.635   9.375
  396POPC   PO4 9672  36.866  35.039   9.481
  396POPC   GL1 9673  36.997  35.219   9.093
  396POPC   GL2 9674  36.719  35.429   8.973
  396POPC   C1A 9675  37.197  35.460   8.769
  396POPC   D2A 9676  37.171  35.747   8.434
  396POPC   C3A 9677  37.032  35.485   8.112
  396POPC   C4A 9678  37.171  35.351   7.715
  396POPC   C1B 9679  36.738  35.359   8.525
  396POPC   C2B 9680  36.719  35.086   8.176
  396POPC   C3B 9681  36.727  35.035   7.728
  396POPC   C4B 9682  36.608  34.755   7.389
  397POPC   NC3 9683  10.801   9.081   9.344
  397POPC   PO4 9684  10.170   8.835   9.474
  397POPC   GL1 9685  10.408   8.736   9.074
  397POPC   GL2 9686  10.777   8.747   8.966
  397POPC   C1A 9687  10.424   8.760   8.630
  397POPC   D2A 9688  10.755   8.801   8.343
  397POPC   C3A 9689  10.433   8.933   8.083
  397POPC   C4A 9690  10.158   8.929   7.735
  397POPC   C1B 9691  10.740   9.168   8.713
  397POPC   C2B 9692  10.751   9.332   8.301
  397POPC   C3B 9693  10.887   9.144   7.920
  397POPC   C4B 9694  10.861   9.321   7.506
  398POPC   NC3 9695  18.892  35.222   9.402
  398POPC   PO4 9696  19.569  35.227   9.516
  398POPC   GL1 9697  19.317  35.098   9.162
  398POPC   GL2 9698  19.205  35.432   9.062
  398POPC   C1A 9699  19.184  35.045   8.732
  398POPC   D2A 9700  19.409  35.094   8.363
  398POPC   C3A 9701  19.178  35.064   7.988
  398POPC   C4A 9702  19.172  35.171   7.541
  398POPC   C1B 9703  18.904  35.453   8.695
  398POPC   C2B 9704  18.948  35.538   8.246
  398POPC   C3B 9705  18.874  35.439   7.851
  398POPC   C4B 9706  18.693  35.081   7.765
  399POPC   NC3 9707  13.085  25.438   9.538
  399POPC   PO4 9708  12.991  24.820   9.586
  399POPC   GL1 9709  12.768  25.100   9.295
  399POPC   GL2 9710  13.088  25.106   9.136
  399POPC   C1A 9711  12.694  25.113   8.827
  399POPC   D2A 9712  12.959  24.981   8.473
  399POPC   C3A 9713  12.898  25.328   8.171
  399POPC   C4A 9714  12.549  25.420   7.875
  399POPC   C1B 9715  13.287  25.399   8.856
  399POPC   C2B 9716  13.361  25.337   8.434
  399POPC   C3B 9717  13.358  25.487   8.040
  399POPC   C4B 9718  13.074  25.652   7.772
  400POPC   NC3 9719  31.096  37.794   9.461
  400POPC   PO4 9720  31.737  37.460   9.436
  400POPC   GL1 9721  31.445  37.624   9.124
  400POPC   GL2 9722  31.139  37.385   9.164
  400POPC   C1A 9723  31.461  37.802   8.685
  400POPC   D2A 9724  31.167  37.826   8.311
  400POPC   C3A 9725  31.340  37.985   7.917
  400POPC   C4A 9726  31.465  37.731   7.536
  400POPC   C1B 9727  31.345  37.260   8.778
  400POPC   C2B 9728  31.256  37.282   8.345
  400POPC   C3B 9729  31.343  37.409   7.927
  400POPC   C4B 9730  31.121  37.372   7.544
  401POPC   NC3 9731  18.337   2.479   9.464
  401POPC   PO4 9732  18.010   3.070   9.512
  401POPC   GL1 9733  18.109   2.829   9.169
  401POPC   GL2 9734  18.463   2.931   9.165
  401POPC   C1A 9735  18.281   2.629   8.799
  401POPC   D2A 9736  18.380   2.799   8.400
  401POPC   C3A 9737  18.300   2.579   8.046
  401POPC   C4A 9738  18.148   2.596   7.640
  401POPC   C1B 9739  18.522   3.174   8.766
  401POPC   C2B 9740  18.615   3.235   8.304
  401POPC   C3B 9741  18.636   2.962   7.936
  401POPC   C4B 9742  18.739   2.524   7.807
  402POPC   NC3 9743   5.009  12.557   9.421
  402POPC   PO4 9744   5.353  13.194   9.587
  402POPC   GL1 9745   5.234  12.977   9.202
  402POPC   GL2 9746   4.854  12.964   9.124
  402POPC   C1A 9747   5.272  12.887   8.756
  402POPC   D2A 9748   5.040  12.952   8.374
  402POPC   C3A 9749   5.222  13.034   7.958
  402POPC   C4A 9750   5.266  12.763   7.598
  402POPC   C1B 9751   4.783  12.660   8.759
  402POPC   C2B 9752   4.733  12.519   8.313
  402POPC   C3B 9753   4.907  12.578   7.921
  402POPC   C4B 9754   4.563  12.670   7.634
  403POPC   NC3 9755  37.569  20.217   9.490
  403POPC   PO4 9756  38.035  20.748   9.720
  403POPC   GL1 9757  37.917  20.548   9.294
  403POPC   GL2 9758  37.811  20.835   9.136
  403POPC   C1A 9759  37.965  20.492   8.804
  403POPC   D2A 9760  38.056  20.796   8.464
  403POPC   C3A 9761  37.788  20.820   8.087
  403POPC   C4A 9762  37.669  20.636   7.705
  403POPC   C1B 9763  37.568  20.820   8.733
  403POPC   C2B 9764  37.341  20.885   8.359
  403POPC   C3B 9765  37.240  20.995   7.971
  403POPC   C4B 9766  37.274  20.938   7.581
  404POPC   NC3 9767  38.252  37.216   9.548
  404POPC   PO4 9768  38.503  36.536   9.531
  404POPC   GL1 9769  38.456  36.814   9.210
  404POPC   GL2 9770  38.647  37.086   9.267
  404POPC   C1A 9771  38.391  36.782   8.780
  404POPC   D2A 9772  38.167  36.764   8.397
  404POPC   C3A 9773  38.390  36.836   7.985
  404POPC   C4A 9774  38.418  36.916   7.517
  404POPC   C1B 9775  38.710  37.174   8.835
  404POPC   C2B 9776  38.655  37.022   8.402
  404POPC   C3B 9777  38.797  37.145   7.984
  404POPC   C4B 9778  38.956  37.535   7.835
  405POPC   NC3 9779  36.416  32.445   9.378
  405POPC   PO4 9780  35.872  32.033   9.477
  405POPC   GL1 9781  36.132  32.120   9.119
  405POPC   GL2 9782  36.057  32.431   8.949
  405POPC   C1A 9783  36.422  32.094   8.756
  405POPC   D2A 9784  36.257  32.374   8.454
  405POPC   C3A 9785  36.318  32.213   8.065
  405POPC   C4A 9786  36.149  32.428   7.754
  405POPC   C1B 9787  35.923  32.048   8.666
  405POPC   C2B 9788  35.809  32.136   8.235
  405POPC   C3B 9789  35.889  31.967   7.829
  405POPC   C4B 9790  35.924  32.112   7.401
  406POPC   NC3 9791  20.879   2.118   9.883
  406POPC   PO4 9792  20.319   1.974   9.682
  406POPC   GL1 9793  20.471   1.988   9.255
  406POPC   GL2 9794  20.540   1.643   9.162
  406POPC   C1A 9795  20.452   1.960   8.790
  406POPC   D2A 9796  20.695   1.852   8.422
  406POPC   C3A 9797  20.576   1.974   8.002
  406POPC   C4A 9798  20.330   2.324   7.804
  406POPC   C1B 9799  20.856   1.564   8.815
  406POPC   C2B 9800  20.850   1.353   8.406
  406POPC   C3B 9801  20.830   1.483   7.986
  406POPC   C4B 9802  20.776   1.579   7.554
  407POPC   NC3 9803  20.880  10.054   9.509
  407POPC   PO4 9804  20.582   9.491   9.421
  407POPC   GL1 9805  20.665   9.758   9.117
  407POPC   GL2 9806  20.417   9.953   9.217
  407POPC   C1A 9807  20.618   9.673   8.690
  407POPC   D2A 9808  20.616   9.821   8.273
  407POPC   C3A 9809  20.809   9.517   8.021
  407POPC   C4A 9810  20.739   9.512   7.604
  407POPC   C1B 9811  20.218   9.959   8.840
  407POPC   C2B 9812  20.186  10.103   8.438
  407POPC   C3B 9813  20.137   9.961   8.060
  407POPC   C4B 9814  20.445   9.897   7.753
  408POPC   NC3 9815  37.208  42.645   9.517
  408POPC   PO4 9816  37.859  42.524   9.449
  408POPC   GL1 9817  37.697  42.437   9.059
  408POPC   GL2 9818  37.427  42.184   8.981
  408POPC   C1A 9819  37.927  42.359   8.701
  408POPC   D2A 9820  37.919  42.341   8.286
  408POPC   C3A 9821  37.677  42.025   8.096
  408POPC   C4A 9822  37.776  42.133   7.705
  408POPC   C1B 9823  37.254  42.618   8.853
  408POPC   C2B 9824  37.238  42.813   8.443
  408POPC   C3B 9825  37.434  42.518   8.186
  408POPC   C4B 9826  37.332  42.318   7.803
  409POPC   NC3 9827  24.888  19.559   9.252
  409POPC   PO4 9828  25.322  19.810   9.756
  409POPC   GL1 9829  25.247  19.946   9.265
  409POPC   GL2 9830  25.469  20.195   9.102
  409POPC   C1A 9831  25.068  20.023   8.807
  409POPC   D2A 9832  24.986  19.704   8.444
  409POPC   C3A 9833  25.114  19.712   8.010
  409POPC   C4A 9834  25.119  19.390   7.684
  409POPC   C1B 9835  25.560  19.857   8.790
  409POPC   C2B 9836  25.521  19.788   8.330
  409POPC   C3B 9837  25.603  19.525   7.957
  409POPC   C4B 9838  25.589  19.467   7.508
  410POPC   NC3 9839   4.581  39.387   9.361
  410POPC   PO4 9840   3.986  39.036   9.539
  410POPC   GL1 9841   4.071  39.181   9.141
  410POPC   GL2 9842   4.081  39.524   9.194
  410POPC   C1A 9843   4.131  39.038   8.707
  410POPC   D2A 9844   4.255  38.844   8.311
  410POPC   C3A 9845   4.348  39.064   7.977
  410POPC   C4A 9846   4.105  39.134   7.635
  410POPC   C1B 9847   4.142  39.581   8.745
  410POPC   C2B 9848   4.189  39.400   8.347
  410POPC   C3B 9849   4.191  39.544   7.945
  410POPC   C4B 9850   4.358  39.595   7.533
  411POPC   NC3 9851  30.626  41.247   9.543
  411POPC   PO4 9852  30.962  41.798   9.535
  411POPC   GL1 9853  30.709  41.643   9.210
  411POPC   GL2 9854  30.379  41.614   9.243
  411POPC   C1A 9855  30.728  41.349   8.867
  411POPC   D2A 9856  30.994  41.243   8.520
  411POPC   C3A 9857  30.865  41.340   8.096
  411POPC   C4A 9858  30.991  41.596   7.728
  411POPC   C1B 9859  30.213  41.403   8.887
  411POPC   C2B 9860  30.397  41.357   8.462
  411POPC   C3B 9861  30.339  41.570   8.088
  411POPC   C4B 9862  30.515  41.452   7.726
  412POPC   NC3 9863  15.599  10.834   9.462
  412POPC   PO4 9864  15.757  10.134   9.453
  412POPC   GL1 9865  15.916  10.300   9.068
  412POPC   GL2 9866  15.911  10.632   9.113
  412POPC   C1A 9867  15.965  10.378   8.668
  412POPC   D2A 9868  15.815  10.469   8.333
  412POPC   C3A 9869  15.965  10.257   7.982
  412POPC   C4A 9870  15.970  10.403   7.550
  412POPC   C1B 9871  16.153  10.847   8.838
  412POPC   C2B 9872  16.060  10.913   8.455
  412POPC   C3B 9873  15.962  10.867   8.052
  412POPC   C4B 9874  16.047  11.078   7.726
  413POPC   NC3 9875  11.989  12.965   9.576
  413POPC   PO4 9876  12.642  12.817   9.766
  413POPC   GL1 9877  12.370  12.733   9.335
  413POPC   GL2 9878  12.294  13.028   9.106
  413POPC   C1A 9879  12.129  12.600   8.924
  413POPC   D2A 9880  12.165  12.852   8.521
  413POPC   C3A 9881  12.231  12.670   8.105
  413POPC   C4A 9882  12.218  12.864   7.721
  413POPC   C1B 9883  11.885  13.130   8.890
  413POPC   C2B 9884  11.826  13.219   8.421
  413POPC   C3B 9885  11.794  12.967   8.023
  413POPC   C4B 9886  11.778  13.169   7.603
  414POPC   NC3 9887  22.273  42.480   9.465
  414POPC   PO4 9888  21.699  42.076   9.466
  414POPC   GL1 9889  21.960  42.316   9.094
  414POPC   GL2 9890  22.208  42.585   8.988
  414POPC   C1A 9891  21.860  42.492   8.664
  414POPC   D2A 9892  22.082  42.556   8.264
  414POPC   C3A 9893  21.880  42.441   7.873
  414POPC   C4A 9894  21.843  42.429   7.378
  414POPC   C1B 9895  22.416  42.400   8.657
  414POPC   C2B 9896  22.643  42.506   8.306
  414POPC   C3B 9897  22.472  42.578   7.917
  414POPC   C4B 9898  22.305  42.529   7.535
  415POPC   NC3 9899  12.438  21.376   9.546
  415POPC   PO4 9900  13.139  21.550   9.756
  415POPC   GL1 9901  12.902  21.522   9.318
  415POPC   GL2 9902  12.815  21.182   9.222
  415POPC   C1A 9903  13.028  21.517   8.842
  415POPC   D2A 9904  13.084  21.309   8.421
  415POPC   C3A 9905  13.171  21.425   7.992
  415POPC   C4A 9906  12.794  21.462   7.723
  415POPC   C1B 9907  12.764  21.029   8.782
  415POPC   C2B 9908  12.584  20.839   8.386
  415POPC   C3B 9909  12.360  21.020   8.033
  415POPC   C4B 9910  12.498  21.070   7.621
  416POPC   NC3 9911  22.703  35.928   9.455
  416POPC   PO4 9912  22.712  36.542   9.468
  416POPC   GL1 9913  22.767  36.282   9.123
  416POPC   GL2 9914  23.098  36.198   9.106
  416POPC   C1A 9915  22.765  36.110   8.729
  416POPC   D2A 9916  22.885  36.367   8.402
  416POPC   C3A 9917  22.777  36.061   8.099
  416POPC   C4A 9918  22.864  36.164   7.719
  416POPC   C1B 9919  23.311  35.968   8.797
  416POPC   C2B 9920  23.179  35.976   8.398
  416POPC   C3B 9921  23.276  35.954   7.947
  416POPC   C4B 9922  23.246  35.909   7.514
  417POPC   NC3 9923   2.165  36.811   9.543
  417POPC   PO4 9924   1.928  37.351   9.744
  417POPC   GL1 9925   2.030  37.207   9.260
  417POPC   GL2 9926   2.310  37.368   9.120
  417POPC   C1A 9927   1.751  37.115   8.831
  417POPC   D2A 9928   1.739  36.872   8.435
  417POPC   C3A 9929   1.689  37.088   8.066
  417POPC   C4A 9930   1.768  36.847   7.740
  417POPC   C1B 9931   2.276  37.063   8.812
  417POPC   C2B 9932   2.135  37.160   8.410
  417POPC   C3B 9933   2.165  36.951   8.056
  417POPC   C4B 9934   2.167  37.155   7.689
  418POPC   NC3 9935   2.620  41.925   9.574
  418POPC   PO4 9936   2.571  41.267   9.548
  418POPC   GL1 9937   2.715  41.561   9.198
  418POPC   GL2 9938   2.376  41.694   9.175
  418POPC   C1A 9939   2.830  41.684   8.742
  418POPC   D2A 9940   2.732  41.476   8.322
  418POPC   C3A 9941   2.837  41.724   7.936
  418POPC   C4A 9942   3.010  41.489   7.622
  418POPC   C1B 9943   2.358  41.477   8.787
  418POPC   C2B 9944   2.234  41.628   8.400
  418POPC   C3B 9945   2.251  41.397   8.065
  418POPC   C4B 9946   2.550  41.338   7.759
  419POPC   NC3 9947  11.607   2.811   9.880
  419POPC   PO4 9948  11.024   2.909   9.536
  419POPC   GL1 9949  11.339   2.768   9.238
  419POPC   GL2 9950  11.135   2.587   9.011
  419POPC   C1A 9951  11.519   2.827   8.802
  419POPC   D2A 9952  11.344   2.950   8.389
  419POPC   C3A 9953  11.583   2.877   8.031
  419POPC   C4A 9954  11.576   2.720   7.618
  419POPC   C1B 9955  10.941   2.755   8.651
  419POPC   C2B 9956  11.005   2.553   8.237
  419POPC   C3B 9957  11.115   2.712   7.827
  419POPC   C4B 9958  11.055   2.649   7.369
  420POPC   NC3 9959  27.624  18.213   9.831
  420POPC   PO4 9960  27.773  18.700   9.402
  420POPC   GL1 9961  27.694  18.416   9.120
  420POPC   GL2 9962  27.525  18.144   9.301
  420POPC   C1A 9963  27.812  18.451   8.702
  420POPC   D2A 9964  27.563  18.597   8.367
  420POPC   C3A 9965  27.695  18.603   7.950
  420POPC   C4A 9966  27.671  18.386   7.602
  420POPC   C1B 9967  27.602  17.980   8.885
  420POPC   C2B 9968  27.560  18.088   8.466
  420POPC   C3B 9969  27.469  18.152   8.039
  420POPC   C4B 9970  27.525  17.905   7.677
  421POPC   NC3 9971  17.415   0.270   9.584
  421POPC   PO4 9972  17.853   0.694   9.774
  421POPC   GL1 9973  17.785   0.374   9.281
  421POPC   GL2 9974  17.479   0.502   9.124
  421POPC   C1A 9975  17.816   0.437   8.765
  421POPC   D2A 9976  17.510   0.531   8.415
  421POPC   C3A 9977  17.608   0.473   7.963
  421POPC   C4A 9978  17.804   0.715   7.635
  421POPC   C1B 9979  17.336   0.148   8.899
  421POPC   C2B 9980  17.326   0.040   8.482
  421POPC   C3B 9981  17.160   0.235   8.119
  421POPC   C4B 9982  17.157   0.200   7.690
  422POPC   NC3 9983   0.347  10.298   9.616
  422POPC   PO4 9984   0.167  10.880   9.543
  422POPC   GL1 9985   0.324  10.777   9.146
  422POPC   GL2 9986   0.604  10.574   9.162
  422POPC   C1A 9987   0.276  10.596   8.732
  422POPC   D2A 9988   0.526  10.671   8.384
  422POPC   C3A 9989   0.647  10.537   8.026
  422POPC   C4A 9990   0.374  10.458   7.720
  422POPC   C1B 9991   0.704  10.323   8.794
  422POPC   C2B 9992   0.447  10.146   8.448
  422POPC   C3B 9993   0.450  10.036   8.021
  422POPC   C4B 9994   0.811  10.156   7.730
  423POPC   NC3 9995  19.224  22.636   9.354
  423POPC   PO4 9996  18.579  22.600   9.442
  423POPC   GL1 9997  18.834  22.882   9.147
  423POPC   GL2 9998  18.914  23.247   9.206
  423POPC   C1A 9999  19.062  22.949   8.763
  423POPC   D2A10000  18.939  23.118   8.363
  423POPC   C3A10001  19.014  22.909   7.972
  423POPC   C4A10002  19.311  22.578   7.816
  423POPC   C1B10003  18.969  23.448   8.796
  423POPC   C2B10004  18.777  23.598   8.408
  423POPC   C3B10005  18.850  23.425   7.955
  423POPC   C4B10006  18.761  23.135   7.570
  424POPC   NC310007  30.372  42.509   9.395
  424POPC   PO410008  30.992  42.668   9.463
  424POPC   GL110009  30.793  42.433   9.075
  424POPC   GL210010  30.577  42.127   9.115
  424POPC   C1A10011  30.742  42.247   8.626
  424POPC   D2A10012  30.465  42.441   8.272
  424POPC   C3A10013  30.502  42.487   7.794
  424POPC   C4A10014  30.800  42.403   7.448
  424POPC   C1B10015  30.503  41.817   8.778
  424POPC   C2B10016  30.693  41.778   8.386
  424POPC   C3B10017  30.737  42.050   8.058
  424POPC   C4B10018  30.636  41.964   7.655
  425POPC   NC310019  37.765  40.130   9.535
  425POPC   PO410020  37.849  39.441   9.268
  425POPC   GL110021  37.826  39.828   9.109
  425POPC   GL210022  38.087  40.063   9.154
  425POPC   C1A10023  37.777  39.996   8.705
  425POPC   D2A10024  37.445  39.932   8.416
  425POPC   C3A10025  37.609  40.035   8.039
  425POPC   C4A10026  37.364  40.267   7.762
  425POPC   C1B10027  38.266  39.825   8.820
  425POPC   C2B10028  38.214  39.801   8.386
  425POPC   C3B10029  38.089  39.604   8.012
  425POPC   C4B10030  37.861  39.672   7.661
  426POPC   NC310031  38.470  18.122   9.571
  426POPC   PO410032  38.524  18.806   9.559
  426POPC   GL110033  38.397  18.466   9.191
  426POPC   GL210034  38.678  18.330   9.168
  426POPC   C1A10035  38.221  18.446   8.761
  426POPC   D2A10036  38.406  18.474   8.332
  426POPC   C3A10037  38.411  18.105   8.069
  426POPC   C4A10038  38.298  18.137   7.647
  426POPC   C1B10039  38.667  18.190   8.760
  426POPC   C2B10040  38.828  18.075   8.390
  426POPC   C3B10041  38.874  18.355   8.111
  426POPC   C4B10042  38.807  18.292   7.712
  427POPC   NC310043  16.875   3.213   9.563
  427POPC   PO410044  16.489   3.806   9.541
  427POPC   GL110045  16.562   3.473   9.179
  427POPC   GL210046  16.909   3.305   9.069
  427POPC   C1A10047  16.401   3.565   8.756
  427POPC   D2A10048  16.468   3.634   8.304
  427POPC   C3A10049  16.337   3.719   7.900
  427POPC   C4A10050  16.348   3.434   7.616
  427POPC   C1B10051  16.848   3.287   8.630
  427POPC   C2B10052  16.957   3.546   8.275
  427POPC   C3B10053  16.838   3.558   7.860
  427POPC   C4B10054  17.048   3.166   7.814
  428POPC   NC310055  13.280  27.012   9.509
  428POPC   PO410056  12.760  26.692   9.717
  428POPC   GL110057  12.963  26.666   9.257
  428POPC   GL210058  12.926  26.994   9.131
  428POPC   C1A10059  12.892  26.571   8.794
  428POPC   D2A10060  12.957  26.392   8.385
  428POPC   C3A10061  12.848  26.594   7.992
  428POPC   C4A10062  12.759  26.897   7.695
  428POPC   C1B10063  13.082  27.107   8.741
  428POPC   C2B10064  13.069  26.903   8.361
  428POPC   C3B10065  13.193  26.990   7.977
  428POPC   C4B10066  13.050  27.317   7.728
  429POPC   NC310067   6.538   7.995   9.356
  429POPC   PO410068   6.788   8.610   9.564
  429POPC   GL110069   6.756   8.567   9.123
  429POPC   GL210070   7.033   8.412   9.019
  429POPC   C1A10071   6.646   8.466   8.680
  429POPC   D2A10072   6.659   8.147   8.346
  429POPC   C3A10073   6.628   8.249   7.934
  429POPC   C4A10074   6.455   7.990   7.695
  429POPC   C1B10075   7.013   8.111   8.703
  429POPC   C2B10076   7.078   8.451   8.378
  429POPC   C3B10077   6.975   8.619   7.938
  429POPC   C4B10078   6.854   8.429   7.494
  430POPC   NC310079  30.329   6.383   9.493
  430POPC   PO410080  29.585   6.241   9.457
  430POPC   GL110081  29.697   6.624   9.159
  430POPC   GL210082  30.045   6.685   9.179
  430POPC   C1A10083  29.919   6.572   8.717
  430POPC   D2A10084  30.003   6.342   8.355
  430POPC   C3A10085  29.963   6.681   8.051
  430POPC   C4A10086  29.884   6.639   7.604
  430POPC   C1B10087  30.260   6.920   8.841
  430POPC   C2B10088  30.087   7.021   8.466
  430POPC   C3B10089  30.182   7.224   8.097
  430POPC   C4B10090  30.291   6.963   7.753
  431POPC   NC310091  37.926  17.824   9.438
  431POPC   PO410092  37.449  17.405   9.554
  431POPC   GL110093  37.659  17.484   9.175
  431POPC   GL210094  37.370  17.649   9.067
  431POPC   C1A10095  37.711  17.333   8.744
  431POPC   D2A10096  37.544  17.522   8.331
  431POPC   C3A10097  37.655  17.387   7.888
  431POPC   C4A10098  37.608  17.353   7.420
  431POPC   C1B10099  37.692  17.822   8.776
  431POPC   C2B10100  37.845  17.949   8.386
  431POPC   C3B10101  37.960  17.828   7.997
  431POPC   C4B10102  37.901  17.752   7.570
  432POPC   NC310103  24.937  26.709   9.763
  432POPC   PO410104  24.358  26.604   9.444
  432POPC   GL110105  24.575  26.935   9.236
  432POPC   GL210106  24.812  26.727   9.192
  432POPC   C1A10107  24.692  27.058   8.793
  432POPC   D2A10108  24.686  27.144   8.338
  432POPC   C3A10109  24.334  26.970   8.101
  432POPC   C4A10110  24.280  26.800   7.666
  432POPC   C1B10111  24.645  26.531   8.821
  432POPC   C2B10112  24.755  26.626   8.423
  432POPC   C3B10113  24.794  26.747   7.998
  432POPC   C4B10114  24.748  26.631   7.566
  433POPC   NC310115  42.719   8.224   9.388
  433POPC   PO410116  42.053   8.060   9.405
  433POPC   GL110117  42.295   8.388   9.169
  433POPC   GL210118  42.106   8.597   8.981
  433POPC   C1A10119  42.599   8.357   8.779
  433POPC   D2A10120  42.650   7.948   8.548
  433POPC   C3A10121  42.636   7.931   8.082
  433POPC   C4A10122  42.310   7.905   7.748
  433POPC   C1B10123  42.118   8.214   8.732
  433POPC   C2B10124  42.318   8.305   8.351
  433POPC   C3B10125  42.347   8.372   7.949
  433POPC   C4B10126  42.136   8.338   7.525
  434POPC   NC310127  33.676  18.713   9.923
  434POPC   PO410128  33.752  19.328   9.589
  434POPC   GL110129  33.790  19.245   9.152
  434POPC   GL210130  34.000  18.964   9.171
  434POPC   C1A10131  33.600  19.127   8.757
  434POPC   D2A10132  33.826  19.172   8.372
  434POPC   C3A10133  33.790  19.401   7.994
  434POPC   C4A10134  33.994  19.336   7.598
  434POPC   C1B10135  34.070  18.925   8.758
  434POPC   C2B10136  34.100  18.751   8.369
  434POPC   C3B10137  33.962  18.895   7.958
  434POPC   C4B10138  33.769  18.801   7.578
  435POPC   NC310139   9.215  17.958   9.303
  435POPC   PO410140   8.649  17.565   9.493
  435POPC   GL110141   8.695  17.388   9.119
  435POPC   GL210142   9.079  17.386   9.146
  435POPC   C1A10143   8.804  17.546   8.734
  435POPC   D2A10144   8.785  17.439   8.315
  435POPC   C3A10145   8.912  17.615   7.931
  435POPC   C4A10146   9.065  17.499   7.501
  435POPC   C1B10147   9.198  17.219   8.756
  435POPC   C2B10148   9.224  17.111   8.337
  435POPC   C3B10149   9.264  17.214   7.902
  435POPC   C4B10150   9.211  16.905   7.546
  436POPC   NC310151  13.018   8.433   9.367
  436POPC   PO410152  13.293   7.801   9.493
  436POPC   GL110153  12.932   7.935   9.133
  436POPC   GL210154  12.692   8.246   9.043
  436POPC   C1A10155  12.866   7.960   8.668
  436POPC   D2A10156  12.973   8.242   8.310
  436POPC   C3A10157  13.091   8.195   7.872
  436POPC   C4A10158  12.872   8.384   7.557
  436POPC   C1B10159  12.586   8.405   8.662
  436POPC   C2B10160  12.465   8.112   8.354
  436POPC   C3B10161  12.567   8.242   7.947
  436POPC   C4B10162  12.377   8.595   7.715
  437POPC   NC310163  11.354  16.926   9.590
  437POPC   PO410164  11.398  16.258   9.466
  437POPC   GL110165  11.397  16.621   9.170
  437POPC   GL210166  11.046  16.769   9.182
  437POPC   C1A10167  11.604  16.745   8.768
  437POPC   D2A10168  11.525  16.954   8.372
  437POPC   C3A10169  11.308  16.835   7.999
  437POPC   C4A10170  11.371  16.629   7.612
  437POPC   C1B10171  11.099  16.941   8.754
  437POPC   C2B10172  10.905  17.074   8.356
  437POPC   C3B10173  10.968  17.223   7.923
  437POPC   C4B10174  11.126  17.066   7.484
  438POPC   NC310175  42.270  33.865   9.552
  438POPC   PO410176  42.558  33.234   9.417
  438POPC   GL110177  42.415  33.584   9.129
  438POPC   GL210178  42.659  33.854   9.059
  438POPC   C1A10179  42.096  33.866   8.881
  438POPC   D2A10180  41.904  34.077   8.490
  438POPC   C3A10181  41.971  33.916   8.041
  438POPC   C4A10182  42.192  33.638   7.710
  438POPC   C1B10183  42.500  33.674   8.636
  438POPC   C2B10184  42.414  33.676   8.199
  438POPC   C3B10185  42.609  33.887   7.848
  438POPC   C4B10186  42.596  33.777   7.410
  439POPC   NC310187  17.577   2.925   9.465
  439POPC   PO410188  16.985   2.777   9.656
  439POPC   GL110189  17.140   2.841   9.231
  439POPC   GL210190  17.364   2.567   9.111
  439POPC   C1A10191  17.326   3.012   8.839
  439POPC   D2A10192  17.583   2.935   8.486
  439POPC   C3A10193  17.312   2.845   8.146
  439POPC   C4A10194  17.267   2.711   7.735
  439POPC   C1B10195  17.758   2.572   8.850
  439POPC   C2B10196  17.921   2.548   8.416
  439POPC   C3B10197  17.813   2.739   8.037
  439POPC   C4B10198  17.719   2.944   7.680
  440POPC   NC310199  21.956  28.265   9.695
  440POPC   PO410200  22.525  28.246   9.246
  440POPC   GL110201  22.136  28.463   9.156
  440POPC   GL210202  21.880  28.222   9.196
  440POPC   C1A10203  22.044  28.387   8.712
  440POPC   D2A10204  22.379  28.290   8.399
  440POPC   C3A10205  22.220  28.303   7.992
  440POPC   C4A10206  22.380  28.495   7.648
  440POPC   C1B10207  21.617  28.109   8.894
  440POPC   C2B10208  21.577  28.206   8.478
  440POPC   C3B10209  21.748  28.072   8.102
  440POPC   C4B10210  21.953  27.900   7.750
  441POPC   NC310211  38.741  29.499   9.336
  441POPC   PO410212  39.157  29.942   9.588
  441POPC   GL110213  39.246  29.996   9.168
  441POPC   GL210214  39.425  29.714   9.115
  441POPC   C1A10215  39.089  30.047   8.778
  441POPC   D2A10216  39.118  30.265   8.423
  441POPC   C3A10217  39.110  29.993   8.050
  441POPC   C4A10218  39.186  30.074   7.628
  441POPC   C1B10219  39.545  29.763   8.747
  441POPC   C2B10220  39.260  29.648   8.434
  441POPC   C3B10221  39.391  29.534   8.043
  441POPC   C4B10222  39.533  29.711   7.651
  442POPC   NC310223   6.282  27.417   9.554
  442POPC   PO410224   5.747  27.618   9.583
  442POPC   GL110225   5.934  27.649   9.170
  442POPC   GL210226   5.948  27.301   9.141
  442POPC   C1A10227   5.943  27.850   8.744
  442POPC   D2A10228   5.641  27.803   8.393
  442POPC   C3A10229   5.753  27.847   7.943
  442POPC   C4A10230   5.509  28.077   7.633
  442POPC   C1B10231   5.958  27.344   8.677
  442POPC   C2B10232   6.048  27.518   8.245
  442POPC   C3B10233   6.022  27.418   7.780
  442POPC   C4B10234   6.007  27.304   7.319
  443POPC   NC310235  44.272  38.018   9.597
  443POPC   PO410236  43.883  37.445   9.798
  443POPC   GL110237  43.872  37.604   9.322
  443POPC   GL210238  44.050  37.389   9.101
  443POPC   C1A10239  43.982  37.859   8.917
  443POPC   D2A10240  44.226  38.020   8.525
  443POPC   C3A10241  44.084  37.868   8.101
  443POPC   C4A10242  43.777  37.964   7.774
  443POPC   C1B10243  43.896  37.356   8.712
  443POPC   C2B10244  44.047  37.341   8.311
  443POPC   C3B10245  43.930  37.370   7.887
  443POPC   C4B10246  44.087  37.616   7.549
  444POPC   NC310247  37.342  37.138   9.292
  444POPC   PO410248  37.969  36.868   9.410
  444POPC   GL110249  37.673  36.696   9.109
  444POPC   GL210250  37.321  36.552   9.154
  444POPC   C1A10251  37.738  36.844   8.709
  444POPC   D2A10252  37.616  36.685   8.353
  444POPC   C3A10253  37.860  36.805   8.000
  444POPC   C4A10254  38.054  37.176   7.821
  444POPC   C1B10255  37.224  36.743   8.760
  444POPC   C2B10256  37.103  36.698   8.343
  444POPC   C3B10257  37.321  36.751   7.941
  444POPC   C4B10258  37.543  37.143   7.789
  445POPC   NC310259   8.338   7.892   9.528
  445POPC   PO410260   8.307   8.456   9.303
  445POPC   GL110261   8.092   8.145   9.119
  445POPC   GL210262   8.305   8.256   8.823
  445POPC   C1A10263   7.866   8.055   8.751
  445POPC   D2A10264   8.104   8.088   8.356
  445POPC   C3A10265   8.201   8.245   7.947
  445POPC   C4A10266   7.805   8.265   7.787
  445POPC   C1B10267   8.546   7.974   8.553
  445POPC   C2B10268   8.428   7.692   8.223
  445POPC   C3B10269   8.478   7.824   7.803
  445POPC   C4B10270   8.500   8.202   7.536
  446POPC   NC310271  39.456  33.264   9.764
  446POPC   PO410272  39.451  34.014   9.562
  446POPC   GL110273  39.479  34.055   9.131
  446POPC   GL210274  39.278  33.753   9.112
  446POPC   C1A10275  39.231  34.067   8.715
  446POPC   D2A10276  38.930  33.901   8.395
  446POPC   C3A10277  39.119  33.908   7.996
  446POPC   C4A10278  39.422  34.226   7.828
  446POPC   C1B10279  38.934  33.613   8.833
  446POPC   C2B10280  38.963  33.367   8.460
  446POPC   C3B10281  38.982  33.341   8.036
  446POPC   C4B10282  39.161  33.451   7.654
  447POPC   NC310283  34.318  17.655   9.546
  447POPC   PO410284  34.851  17.323   9.653
  447POPC   GL110285  34.440  17.283   9.219
  447POPC   GL210286  34.265  17.585   9.048
  447POPC   C1A10287  34.480  17.274   8.696
  447POPC   D2A10288  34.728  17.432   8.310
  447POPC   C3A10289  34.638  17.305   7.857
  447POPC   C4A10290  34.351  17.441   7.509
  447POPC   C1B10291  34.517  17.847   8.752
  447POPC   C2B10292  34.874  17.970   8.463
  447POPC   C3B10293  34.866  17.857   8.024
  447POPC   C4B10294  34.701  17.776   7.636
  448POPC   NC310295   6.937  31.705   9.487
  448POPC   PO410296   7.574  31.408   9.322
  448POPC   GL110297   7.443  31.451   8.957
  448POPC   GL210298   7.108  31.574   9.008
  448POPC   C1A10299   7.441  31.649   8.577
  448POPC   D2A10300   7.724  31.635   8.258
  448POPC   C3A10301   7.639  31.543   7.830
  448POPC   C4A10302   7.792  31.483   7.380
  448POPC   C1B10303   7.120  31.251   8.654
  448POPC   C2B10304   7.264  31.271   8.237
  448POPC   C3B10305   7.162  31.306   7.820
  448POPC   C4B10306   7.290  31.439   7.421
  449POPC   NC310307  33.996  30.038   9.307
  449POPC   PO410308  34.529  29.795   9.607
  449POPC   GL110309  34.602  29.751   9.186
  449POPC   GL210310  34.929  29.587   9.108
  449POPC   C1A10311  34.433  29.933   8.814
  449POPC   D2A10312  34.175  29.954   8.486
  449POPC   C3A10313  34.272  30.161   8.121
  449POPC   C4A10314  34.370  29.919   7.788
  449POPC   C1B10315  34.910  29.835   8.711
  449POPC   C2B10316  34.698  29.865   8.294
  449POPC   C3B10317  34.823  29.726   7.878
  449POPC   C4B10318  35.025  29.707   7.443
  450POPC   NC310319  16.933   8.137   9.533
  450POPC   PO410320  16.368   7.814   9.734
  450POPC   GL110321  16.505   8.067   9.282
  450POPC   GL210322  16.627   8.382   9.181
  450POPC   C1A10323  16.714   8.022   8.838
  450POPC   D2A10324  16.764   8.277   8.478
  450POPC   C3A10325  16.634   8.152   8.092
  450POPC   C4A10326  16.505   7.992   7.711
  450POPC   C1B10327  17.037   8.429   8.924
  450POPC   C2B10328  17.140   8.596   8.520
  450POPC   C3B10329  17.140   8.417   8.106
  450POPC   C4B10330  17.025   8.160   7.750
  451POPC   NC310331  11.783   3.055   9.356
  451POPC   PO410332  11.699   2.457   9.606
  451POPC   GL110333  11.821   2.573   9.178
  451POPC   GL210334  12.158   2.723   9.161
  451POPC   C1A10335  11.976   2.537   8.749
  451POPC   D2A10336  12.187   2.652   8.373
  451POPC   C3A10337  11.968   2.526   7.997
  451POPC   C4A10338  12.093   2.663   7.607
  451POPC   C1B10339  12.187   3.004   8.797
  451POPC   C2B10340  11.872   3.025   8.485
  451POPC   C3B10341  12.046   3.062   8.093
  451POPC   C4B10342  11.935   3.124   7.717
  452POPC   NC310343  10.898  43.885   9.509
  452POPC   PO410344  11.497  44.109   9.760
  452POPC   GL110345  11.314  43.757   9.274
  452POPC   GL210346  10.989  43.737   9.027
  452POPC   C1A10347  11.454  43.673   8.822
  452POPC   D2A10348  11.534  43.949   8.430
  452POPC   C3A10349  11.305  43.882   8.091
  452POPC   C4A10350  11.354  43.737   7.667
  452POPC   C1B10351  11.053  43.793   8.560
  452POPC   C2B10352  10.878  43.627   8.214
  452POPC   C3B10353  10.878  43.777   7.809
  452POPC   C4B10354  10.948  43.970   7.411
  453POPC   NC310355  42.170  29.630   9.283
  453POPC   PO410356  42.038  30.214   9.550
  453POPC   GL110357  42.226  30.107   9.134
  453POPC   GL210358  42.594  30.006   9.119
  453POPC   C1A10359  42.081  30.013   8.707
  453POPC   D2A10360  42.124  30.291   8.357
  453POPC   C3A10361  42.331  30.117   7.983
  453POPC   C4A10362  42.169  29.761   7.750
  453POPC   C1B10363  42.512  30.267   8.746
  453POPC   C2B10364  42.591  30.051   8.416
  453POPC   C3B10365  42.594  29.702   8.131
  453POPC   C4B10366  42.685  29.796   7.724
  454POPC   NC310367  26.120  22.505   9.329
  454POPC   PO410368  26.386  23.089   9.454
  454POPC   GL110369  26.275  22.915   9.082
  454POPC   GL210370  25.909  22.976   9.125
  454POPC   C1A10371  26.114  22.871   8.664
  454POPC   D2A10372  25.921  22.867   8.273
  454POPC   C3A10373  26.206  22.881   7.941
  454POPC   C4A10374  26.300  22.519   7.745
  454POPC   C1B10375  25.781  23.291   8.782
  454POPC   C2B10376  25.852  23.377   8.303
  454POPC   C3B10377  25.796  23.173   7.870
  454POPC   C4B10378  25.741  22.687   7.796
  455POPC   NC310379   2.405  17.792   9.397
  455POPC   PO410380   1.837  17.562   9.479
  455POPC   GL110381   2.055  17.473   9.139
  455POPC   GL210382   2.242  17.165   9.154
  455POPC   C1A10383   1.951  17.312   8.746
  455POPC   D2A10384   2.159  17.234   8.366
  455POPC   C3A10385   1.951  17.430   8.023
  455POPC   C4A10386   1.578  17.429   7.802
  455POPC   C1B10387   2.452  17.346   8.826
  455POPC   C2B10388   2.330  17.684   8.557
  455POPC   C3B10389   2.422  17.625   8.128
  455POPC   C4B10390   2.261  17.716   7.717
  456POPC   NC310391  34.444  15.460   9.417
  456POPC   PO410392  35.028  15.580   9.397
  456POPC   GL110393  34.779  15.370   9.044
  456POPC   GL210394  34.518  15.110   9.071
  456POPC   C1A10395  34.673  15.294   8.628
  456POPC   D2A10396  34.909  15.210   8.279
  456POPC   C3A10397  34.968  15.437   7.915
  456POPC   C4A10398  34.758  15.318   7.532
  456POPC   C1B10399  34.347  14.903   8.736
  456POPC   C2B10400  34.466  14.940   8.304
  456POPC   C3B10401  34.474  15.193   7.952
  456POPC   C4B10402  34.377  15.001   7.586
  457POPC   NC310403  38.268  42.371   9.595
  457POPC   PO410404  38.885  42.285   9.522
  457POPC   GL110405  38.561  42.386   9.183
  457POPC   GL210406  38.203  42.237   9.118
  457POPC   C1A10407  38.414  42.585   8.797
  457POPC   D2A10408  38.521  42.760   8.404
  457POPC   C3A10409  38.323  42.570   8.062
  457POPC   C4A10410  38.663  42.319   7.909
  457POPC   C1B10411  38.447  42.075   8.771
  457POPC   C2B10412  38.415  42.152   8.339
  457POPC   C3B10413  38.215  42.072   7.942
  457POPC   C4B10414  38.164  41.842   7.552
  458POPC   NC310415   4.495  41.951   9.477
  458POPC   PO410416   4.150  42.513   9.362
  458POPC   GL110417   4.198  42.160   9.082
  458POPC   GL210418   4.497  42.323   8.980
  458POPC   C1A10419   4.286  42.041   8.631
  458POPC   D2A10420   4.390  42.397   8.453
  458POPC   C3A10421   4.392  42.401   8.025
  458POPC   C4A10422   4.301  42.166   7.691
  458POPC   C1B10423   4.788  42.600   8.717
  458POPC   C2B10424   4.747  42.755   8.328
  458POPC   C3B10425   4.827  42.668   7.918
  458POPC   C4B10426   4.662  42.514   7.543
  459POPC   NC310427  32.982  24.508   9.503
  459POPC   PO410428  33.610  24.477   9.632
  459POPC   GL110429  33.407  24.341   9.231
  459POPC   GL210430  33.308  24.645   9.092
  459POPC   C1A10431  33.425  24.313   8.737
  459POPC   D2A10432  33.298  24.558   8.361
  459POPC   C3A10433  33.333  24.328   7.950
  459POPC   C4A10434  33.241  24.111   7.538
  459POPC   C1B10435  32.957  24.480   8.843
  459POPC   C2B10436  32.854  24.302   8.447
  459POPC   C3B10437  32.848  24.473   8.056
  459POPC   C4B10438  32.831  24.375   7.652
  460POPC   NC310439  40.477  21.890   9.577
  460POPC   PO410440  40.903  21.399   9.754
  460POPC   GL110441  40.679  21.351   9.313
  460POPC   GL210442  40.555  21.572   9.108
  460POPC   C1A10443  40.849  21.282   8.839
  460POPC   D2A10444  41.171  21.492   8.539
  460POPC   C3A10445  41.076  21.498   8.110
  460POPC   C4A10446  40.772  21.236   7.885
  460POPC   C1B10447  40.357  21.418   8.742
  460POPC   C2B10448  40.308  21.246   8.323
  460POPC   C3B10449  40.311  21.452   7.924
  460POPC   C4B10450  40.633  21.705   7.724
  461POPC   NC310451   1.684   2.830   9.490
  461POPC   PO410452   2.225   2.726   9.438
  461POPC   GL110453   1.990   2.800   9.063
  461POPC   GL210454   1.783   3.100   9.053
  461POPC   C1A10455   1.877   2.559   8.688
  461POPC   D2A10456   1.956   2.350   8.275
  461POPC   C3A10457   2.190   2.596   7.942
  461POPC   C4A10458   2.056   2.717   7.544
  461POPC   C1B10459   2.000   3.072   8.633
  461POPC   C2B10460   1.870   2.847   8.255
  461POPC   C3B10461   1.768   2.983   7.846
  461POPC   C4B10462   2.051   3.268   7.599
  462POPC   NC310463  12.893  13.135   9.968
  462POPC   PO410464  13.073  12.746   9.449
  462POPC   GL110465  12.843  12.768   9.117
  462POPC   GL210466  13.064  12.838   8.910
  462POPC   C1A10467  12.594  12.752   8.779
  462POPC   D2A10468  12.647  12.601   8.389
  462POPC   C3A10469  12.889  12.813   8.078
  462POPC   C4A10470  12.751  12.843   7.646
  462POPC   C1B10471  13.308  13.166   8.739
  462POPC   C2B10472  13.129  13.328   8.389
  462POPC   C3B10473  13.148  13.254   7.967
  462POPC   C4B10474  13.207  13.109   7.536
  463POPC   NC310475  22.999  15.052   9.507
  463POPC   PO410476  22.426  15.441   9.496
  463POPC   GL110477  22.649  15.139   9.130
  463POPC   GL210478  23.027  15.135   9.023
  463POPC   C1A10479  22.691  15.197   8.656
  463POPC   D2A10480  22.872  15.359   8.285
  463POPC   C3A10481  22.934  15.103   7.952
  463POPC   C4A10482  22.695  15.035   7.611
  463POPC   C1B10483  23.224  15.202   8.653
  463POPC   C2B10484  23.363  15.186   8.249
  463POPC   C3B10485  23.288  15.482   7.932
  463POPC   C4B10486  23.133  15.308   7.541
  464POPC   NC310487  21.936  19.132   9.336
  464POPC   PO410488  22.602  19.086   9.409
  464POPC   GL110489  22.381  19.250   9.052
  464POPC   GL210490  22.262  18.922   9.014
  464POPC   C1A10491  22.165  19.232   8.629
  464POPC   D2A10492  22.249  19.007   8.233
  464POPC   C3A10493  22.429  19.250   7.947
  464POPC   C4A10494  22.079  19.372   7.694
  464POPC   C1B10495  21.894  18.791   8.766
  464POPC   C2B10496  21.767  18.952   8.378
  464POPC   C3B10497  21.841  18.802   7.948
  464POPC   C4B10498  21.760  18.820   7.497
  465POPC   NC310499  41.537  23.404   9.942
  465POPC   PO410500  41.469  23.951   9.527
  465POPC   GL110501  41.417  23.724   9.128
  465POPC   GL210502  41.631  23.456   9.010
  465POPC   C1A10503  41.507  23.857   8.708
  465POPC   D2A10504  41.562  24.096   8.341
  465POPC   C3A10505  41.260  23.915   8.045
  465POPC   C4A10506  41.393  23.659   7.685
  465POPC   C1B10507  41.880  23.509   8.693
  465POPC   C2B10508  41.778  23.301   8.345
  465POPC   C3B10509  41.715  23.638   8.083
  465POPC   C4B10510  41.989  23.683   7.723
  466POPC   NC310511  20.931  26.805   9.480
  466POPC   PO410512  20.433  26.429   9.455
  466POPC   GL110513  20.548  26.723   9.142
  466POPC   GL210514  20.544  27.078   9.247
  466POPC   C1A10515  20.771  26.647   8.760
  466POPC   D2A10516  20.591  26.760   8.391
  466POPC   C3A10517  20.771  26.703   7.993
  466POPC   C4A10518  20.938  26.963   7.674
  466POPC   C1B10519  20.601  27.139   8.799
  466POPC   C2B10520  20.826  27.225   8.418
  466POPC   C3B10521  20.645  27.224   7.991
  466POPC   C4B10522  20.301  27.256   7.698
  467POPC   NC310523  10.300   2.076   9.324
  467POPC   PO410524   9.645   2.184   9.567
  467POPC   GL110525   9.808   1.982   9.199
  467POPC   GL210526   9.653   1.686   9.110
  467POPC   C1A10527   9.912   2.009   8.756
  467POPC   D2A10528  10.117   2.277   8.434
  467POPC   C3A10529  10.085   2.129   8.013
  467POPC   C4A10530   9.958   2.139   7.577
  467POPC   C1B10531   9.682   1.549   8.673
  467POPC   C2B10532   9.637   1.724   8.272
  467POPC   C3B10533   9.592   1.966   7.919
  467POPC   C4B10534   9.593   1.824   7.477
  468POPC   NC310535  23.796  33.824   9.630
  468POPC   PO410536  23.154  33.913   9.450
  468POPC   GL110537  23.501  33.759   9.205
  468POPC   GL210538  23.843  33.955   9.161
  468POPC   C1A10539  23.486  33.833   8.789
  468POPC   D2A10540  23.413  34.094   8.410
  468POPC   C3A10541  23.348  33.817   8.072
  468POPC   C4A10542  23.477  33.852   7.657
  468POPC   C1B10543  24.003  33.830   8.785
  468POPC   C2B10544  23.844  33.829   8.398
  468POPC   C3B10545  23.870  33.786   7.994
  468POPC   C4B10546  24.023  33.812   7.640
  469POPC   NC310547  18.497   4.011   9.475
  469POPC   PO410548  18.427   4.628   9.668
  469POPC   GL110549  18.270   4.408   9.257
  469POPC   GL210550  17.903   4.398   9.161
  469POPC   C1A10551  18.307   4.500   8.830
  469POPC   D2A10552  18.531   4.623   8.470
  469POPC   C3A10553  18.331   4.485   8.095
  469POPC   C4A10554  18.369   4.327   7.684
  469POPC   C1B10555  18.006   4.091   8.826
  469POPC   C2B10556  18.084   4.162   8.399
  469POPC   C3B10557  18.047   4.031   7.963
  469POPC   C4B10558  17.893   4.188   7.554
  470POPC   NC310559  31.279  32.992   9.536
  470POPC   PO410560  30.702  32.973   9.588
  470POPC   GL110561  30.702  32.900   9.159
  470POPC   GL210562  31.006  32.775   9.101
  470POPC   C1A10563  30.612  33.016   8.733
  470POPC   D2A10564  30.333  32.947   8.373
  470POPC   C3A10565  30.490  33.061   7.963
  470POPC   C4A10566  30.391  32.939   7.503
  470POPC   C1B10567  31.143  33.104   8.808
  470POPC   C2B10568  30.984  33.306   8.424
  470POPC   C3B10569  31.026  33.128   8.018
  470POPC   C4B10570  30.818  33.190   7.612
  471POPC   NC310571  33.836  28.082   9.586
  471POPC   PO410572  33.944  28.742   9.402
  471POPC   GL110573  33.852  28.395   9.169
  471POPC   GL210574  33.488  28.331   9.292
  471POPC   C1A10575  33.913  28.459   8.742
  471POPC   D2A10576  33.854  28.215   8.389
  471POPC   C3A10577  34.129  28.221   8.068
  471POPC   C4A10578  33.983  28.424   7.760
  471POPC   C1B10579  33.415  28.386   8.865
  471POPC   C2B10580  33.487  28.602   8.463
  471POPC   C3B10581  33.530  28.447   8.030
  471POPC   C4B10582  33.485  28.678   7.645
  472POPC   NC310583   7.875   8.504   9.460
  472POPC   PO410584   7.946   9.229   9.444
  472POPC   GL110585   7.948   9.007   9.034
  472POPC   GL210586   7.971   8.656   8.994
  472POPC   C1A10587   8.134   8.993   8.616
  472POPC   D2A10588   8.426   9.210   8.344
  472POPC   C3A10589   8.371   9.153   7.895
  472POPC   C4A10590   8.268   9.189   7.468
  472POPC   C1B10591   7.879   8.551   8.621
  472POPC   C2B10592   8.016   8.592   8.257
  472POPC   C3B10593   7.996   8.736   7.867
  472POPC   C4B10594   8.312   8.680   7.649
  473POPC   NC310595  24.047  44.469   9.911
  473POPC   PO410596  24.437  44.812   9.496
  473POPC   GL110597  24.566  44.781   9.073
  473POPC   GL210598  24.431  44.478   9.041
  473POPC   C1A10599  24.661  44.692   8.616
  473POPC   D2A10600  24.412  44.602   8.240
  473POPC   C3A10601  24.637  44.717   7.845
  473POPC   C4A10602  24.642  44.890   7.418
  473POPC   C1B10603  24.141  44.291   8.742
  473POPC   C2B10604  23.951  44.342   8.377
  473POPC   C3B10605  24.070  44.146   8.040
  473POPC   C4B10606  24.372  44.299   7.812
  474POPC   NC310607  11.786  12.150   9.523
  474POPC   PO410608  11.144  11.902   9.592
  474POPC   GL110609  11.192  11.802   9.152
  474POPC   GL210610  10.938  11.504   9.135
  474POPC   C1A10611  11.393  12.067   8.816
  474POPC   D2A10612  11.291  12.364   8.449
  474POPC   C3A10613  11.560  12.467   8.082
  474POPC   C4A10614  11.392  12.310   7.710
  474POPC   C1B10615  11.037  11.567   8.735
  474POPC   C2B10616  11.174  11.837   8.423
  474POPC   C3B10617  11.431  11.952   8.105
  474POPC   C4B10618  11.303  11.802   7.693
  475POPC   NC310619  28.172  32.755   9.483
  475POPC   PO410620  28.076  33.427   9.422
  475POPC   GL110621  28.398  33.245   9.143
  475POPC   GL210622  28.346  32.918   9.015
  475POPC   C1A10623  28.555  33.299   8.706
  475POPC   D2A10624  28.460  33.557   8.316
  475POPC   C3A10625  28.294  33.365   7.941
  475POPC   C4A10626  28.550  33.289   7.608
  475POPC   C1B10627  28.070  33.202   8.737
  475POPC   C2B10628  28.151  33.094   8.352
  475POPC   C3B10629  28.454  32.919   8.082
  475POPC   C4B10630  28.303  32.856   7.690
  476POPC   NC310631  35.919  41.643   9.323
  476POPC   PO410632  36.546  41.546   9.662
  476POPC   GL110633  36.375  41.477   9.202
  476POPC   GL210634  36.246  41.818   8.981
  476POPC   C1A10635  36.219  41.380   8.775
  476POPC   D2A10636  36.401  41.394   8.380
  476POPC   C3A10637  36.146  41.427   8.021
  476POPC   C4A10638  36.437  41.358   7.707
  476POPC   C1B10639  35.911  41.901   8.706
  476POPC   C2B10640  35.789  41.727   8.332
  476POPC   C3B10641  36.018  41.925   8.015
  476POPC   C4B10642  36.196  41.788   7.607
  477POPC   NC310643  15.427  14.187   9.688
  477POPC   PO410644  14.886  13.898   9.474
  477POPC   GL110645  15.032  14.017   9.104
  477POPC   GL210646  14.779  14.231   9.011
  477POPC   C1A10647  15.046  13.767   8.721
  477POPC   D2A10648  15.206  13.505   8.360
  477POPC   C3A10649  15.344  13.640   7.945
  477POPC   C4A10650  15.126  13.609   7.541
  477POPC   C1B10651  14.805  14.205   8.550
  477POPC   C2B10652  15.078  14.082   8.174
  477POPC   C3B10653  15.222  14.091   7.708
  477POPC   C4B10654  15.244  14.007   7.240
  478POPC   NC310655  14.608  13.529   9.532
  478POPC   PO410656  14.376  14.045   9.764
  478POPC   GL110657  14.386  13.941   9.255
  478POPC   GL210658  14.612  13.717   9.061
  478POPC   C1A10659  14.135  13.754   8.841
  478POPC   D2A10660  14.063  13.484   8.443
  478POPC   C3A10661  14.340  13.492   8.086
  478POPC   C4A10662  14.407  13.801   7.759
  478POPC   C1B10663  14.550  13.507   8.669
  478POPC   C2B10664  14.713  13.732   8.345
  478POPC   C3B10665  14.846  13.677   7.977
  478POPC   C4B10666  14.705  13.404   7.726
  479POPC   NC310667  40.256   8.248   9.872
  479POPC   PO410668  39.681   8.342   9.506
  479POPC   GL110669  39.816   8.006   9.213
  479POPC   GL210670  40.119   8.183   9.086
  479POPC   C1A10671  39.872   7.835   8.780
  479POPC   D2A10672  39.745   8.095   8.410
  479POPC   C3A10673  39.926   8.104   7.994
  479POPC   C4A10674  39.758   7.978   7.613
  479POPC   C1B10675  40.344   8.056   8.721
  479POPC   C2B10676  40.334   8.218   8.298
  479POPC   C3B10677  40.437   8.030   7.885
  479POPC   C4B10678  40.412   8.227   7.467
  480POPC   NC310679  15.276  10.095   9.499
  480POPC   PO410680  15.123  10.771   9.490
  480POPC   GL110681  15.143  10.468   9.166
  480POPC   GL210682  15.438  10.425   9.136
  480POPC   C1A10683  14.958  10.274   8.781
  480POPC   D2A10684  14.693  10.211   8.377
  480POPC   C3A10685  14.920  10.179   7.984
  480POPC   C4A10686  15.100  10.546   7.788
  480POPC   C1B10687  15.463  10.269   8.707
  480POPC   C2B10688  15.341  10.351   8.242
  480POPC   C3B10689  15.583  10.561   7.890
  480POPC   C4B10690  15.535  10.603   7.432
  481POPC   NC310691  39.402  25.709   9.444
  481POPC   PO410692  39.112  26.321   9.542
  481POPC   GL110693  39.096  26.098   9.175
  481POPC   GL210694  38.887  25.838   9.291
  481POPC   C1A10695  39.314  25.997   8.788
  481POPC   D2A10696  39.374  25.812   8.385
  481POPC   C3A10697  39.596  25.849   7.996
  481POPC   C4A10698  39.410  26.088   7.655
  481POPC   C1B10699  38.852  25.798   8.807
  481POPC   C2B10700  38.898  25.677   8.343
  481POPC   C3B10701  39.052  25.890   7.959
  481POPC   C4B10702  38.833  25.940   7.569
  482POPC   NC310703  29.846  38.215   9.548
  482POPC   PO410704  29.842  38.861   9.461
  482POPC   GL110705  29.911  38.543   9.134
  482POPC   GL210706  29.794  38.170   9.067
  482POPC   C1A10707  29.955  38.462   8.693
  482POPC   D2A10708  29.833  38.640   8.351
  482POPC   C3A10709  30.055  38.801   8.042
  482POPC   C4A10710  29.908  38.658   7.692
  482POPC   C1B10711  29.997  37.948   8.741
  482POPC   C2B10712  30.065  38.099   8.327
  482POPC   C3B10713  30.161  38.273   7.993
  482POPC   C4B10714  29.956  38.142   7.681
  483POPC   NC310715  18.332  24.801   9.478
  483POPC   PO410716  18.023  24.192   9.488
  483POPC   GL110717  18.256  24.411   9.175
  483POPC   GL210718  18.611  24.414   9.245
  483POPC   C1A10719  18.191  24.594   8.790
  483POPC   D2A10720  17.952  24.286   8.564
  483POPC   C3A10721  17.913  24.287   8.125
  483POPC   C4A10722  17.875  24.479   7.733
  483POPC   C1B10723  18.658  24.398   8.829
  483POPC   C2B10724  18.552  24.520   8.429
  483POPC   C3B10725  18.570  24.812   8.158
  483POPC   C4B10726  18.381  24.637   7.797
  484POPC   NC310727  43.341  25.734   9.692
  484POPC   PO410728  43.984  25.853   9.706
  484POPC   GL110729  44.025  25.965   9.263
  484POPC   GL210730  44.247  26.233   9.193
  484POPC   C1A10731  43.938  25.978   8.787
  484POPC   D2A10732  43.614  26.015   8.420
  484POPC   C3A10733  43.743  25.923   7.986
  484POPC   C4A10734  43.690  25.862   7.540
  484POPC   C1B10735  44.416  26.216   8.765
  484POPC   C2B10736  44.224  26.359   8.363
  484POPC   C3B10737  44.033  26.331   7.946
  484POPC   C4B10738  43.929  26.343   7.480
  485POPC   NC310739  28.909   7.156   9.361
  485POPC   PO410740  29.386   7.463   9.684
  485POPC   GL110741  29.293   7.508   9.216
  485POPC   GL210742  29.614   7.602   9.098
  485POPC   C1A10743  29.159   7.299   8.771
  485POPC   D2A10744  29.303   7.425   8.374
  485POPC   C3A10745  29.243   7.236   7.990
  485POPC   C4A10746  29.032   7.211   7.644
  485POPC   C1B10747  29.356   7.757   8.756
  485POPC   C2B10748  29.451   7.925   8.355
  485POPC   C3B10749  29.432   7.725   7.976
  485POPC   C4B10750  29.208   7.805   7.647
  486POPC   NC310751  26.697  20.723   9.503
  486POPC   PO410752  27.309  20.788   9.116
  486POPC   GL110753  27.001  20.709   8.841
  486POPC   GL210754  26.764  20.565   9.029
  486POPC   C1A10755  26.827  20.598   8.471
  486POPC   D2A10756  26.781  20.387   8.120
  486POPC   C3A10757  26.854  20.698   7.865
  486POPC   C4A10758  27.207  20.908   7.793
  486POPC   C1B10759  26.442  20.746   8.763
  486POPC   C2B10760  26.315  20.896   8.370
  486POPC   C3B10761  26.363  20.816   7.918
  486POPC   C4B10762  26.617  21.085   7.588
  487POPC   NC310763  30.272  40.489   9.484
  487POPC   PO410764  30.781  40.817   9.608
  487POPC   GL110765  30.694  40.680   9.200
  487POPC   GL210766  30.422  40.890   9.187
  487POPC   C1A10767  30.761  40.601   8.757
  487POPC   D2A10768  30.747  40.829   8.352
  487POPC   C3A10769  30.753  40.588   7.958
  487POPC   C4A10770  30.987  40.530   7.567
  487POPC   C1B10771  30.412  40.949   8.765
  487POPC   C2B10772  30.238  40.870   8.355
  487POPC   C3B10773  30.415  41.032   8.000
  487POPC   C4B10774  30.398  40.824   7.624
  488POPC   NC310775   6.029  19.774   9.459
  488POPC   PO410776   5.462  19.935   9.308
  488POPC   GL110777   5.788  19.936   9.017
  488POPC   GL210778   6.049  20.140   9.095
  488POPC   C1A10779   6.025  19.727   8.691
  488POPC   D2A10780   6.263  19.686   8.287
  488POPC   C3A10781   6.004  19.724   7.905
  488POPC   C4A10782   5.583  19.593   7.760
  488POPC   C1B10783   6.149  20.248   8.704
  488POPC   C2B10784   5.995  20.144   8.321
  488POPC   C3B10785   6.124  20.217   7.911
  488POPC   C4B10786   5.889  20.076   7.517
  489POPC   NC310787   8.559   2.170   9.429
  489POPC   PO410788   8.073   1.713   9.571
  489POPC   GL110789   8.120   1.984   9.154
  489POPC   GL210790   8.197   2.365   9.132
  489POPC   C1A10791   8.249   2.090   8.692
  489POPC   D2A10792   8.125   2.175   8.269
  489POPC   C3A10793   8.376   2.054   7.898
  489POPC   C4A10794   7.989   2.147   7.626
  489POPC   C1B10795   8.557   2.468   8.804
  489POPC   C2B10796   8.421   2.578   8.359
  489POPC   C3B10797   8.298   2.528   7.918
  489POPC   C4B10798   8.421   2.357   7.473
  490POPC   NC310799  26.017  30.465   9.613
  490POPC   PO410800  26.226  31.031   9.519
  490POPC   GL110801  26.114  30.785   9.166
  490POPC   GL210802  26.257  30.425   9.149
  490POPC   C1A10803  26.180  30.881   8.726
  490POPC   D2A10804  25.961  31.073   8.365
  490POPC   C3A10805  25.957  30.833   7.995
  490POPC   C4A10806  25.805  30.418   7.954
  490POPC   C1B10807  25.860  30.427   8.889
  490POPC   C2B10808  25.917  30.533   8.463
  490POPC   C3B10809  26.283  30.513   8.257
  490POPC   C4B10810  26.321  30.360   7.850
  491POPC   NC310811  16.951  39.133   9.493
  491POPC   PO410812  16.386  39.398   9.464
  491POPC   GL110813  16.612  39.266   9.094
  491POPC   GL210814  16.883  39.467   9.072
  491POPC   C1A10815  16.460  39.130   8.651
  491POPC   D2A10816  16.663  38.928   8.276
  491POPC   C3A10817  16.535  39.164   7.927
  491POPC   C4A10818  16.613  39.478   7.608
  491POPC   C1B10819  16.942  39.282   8.696
  491POPC   C2B10820  16.802  39.446   8.319
  491POPC   C3B10821  17.009  39.393   7.935
  491POPC   C4B10822  17.204  39.647   7.658
  492POPC   NC310823   1.275   6.127   9.443
  492POPC   PO410824   1.383   5.494   9.569
  492POPC   GL110825   1.169   5.677   9.175
  492POPC   GL210826   1.386   5.925   9.004
  492POPC   C1A10827   0.984   5.778   8.743
  492POPC   D2A10828   0.926   5.948   8.331
  492POPC   C3A10829   1.042   5.792   7.904
  492POPC   C4A10830   0.901   5.737   7.443
  492POPC   C1B10831   1.601   5.895   8.637
  492POPC   C2B10832   1.512   5.892   8.212
  492POPC   C3B10833   1.676   5.878   7.820
  492POPC   C4B10834   1.413   6.030   7.550
  493POPC   NC310835  18.435  41.349   9.719
  493POPC   PO410836  18.351  40.687   9.608
  493POPC   GL110837  18.253  40.788   9.070
  493POPC   GL210838  18.554  40.676   8.916
  493POPC   C1A10839  18.280  40.993   8.637
  493POPC   D2A10840  18.029  40.916   8.265
  493POPC   C3A10841  18.088  40.619   7.932
  493POPC   C4A10842  18.070  40.235   7.721
  493POPC   C1B10843  18.828  40.920   8.695
  493POPC   C2B10844  18.733  41.103   8.320
  493POPC   C3B10845  18.504  40.918   8.029
  493POPC   C4B10846  18.604  40.771   7.648
  494POPC   NC310847  34.223  11.276   9.477
  494POPC   PO410848  34.855  11.036   9.544
  494POPC   GL110849  34.644  11.089   9.181
  494POPC   GL210850  34.643  11.425   9.131
  494POPC   C1A10851  34.781  11.147   8.761
  494POPC   D2A10852  34.889  11.475   8.510
  494POPC   C3A10853  34.688  11.407   8.142
  494POPC   C4A10854  34.629  11.424   7.713
  494POPC   C1B10855  34.470  11.634   8.761
  494POPC   C2B10856  34.367  11.769   8.330
  494POPC   C3B10857  34.216  11.597   7.947
  494POPC   C4B10858  34.198  11.748   7.542
  495POPC   NC310859  37.934  10.499   9.437
  495POPC   PO410860  37.166  10.629   9.580
  495POPC   GL110861  37.361  10.462   9.147
  495POPC   GL210862  37.647  10.207   9.122
  495POPC   C1A10863  37.489  10.556   8.745
  495POPC   D2A10864  37.535  10.371   8.330
  495POPC   C3A10865  37.467  10.674   7.969
  495POPC   C4A10866  37.364  10.319   7.775
  495POPC   C1B10867  37.927  10.282   8.742
  495POPC   C2B10868  38.033  10.452   8.304
  495POPC   C3B10869  37.869  10.340   7.893
  495POPC   C4B10870  37.757  10.580   7.531
  496POPC   NC310871  18.836  42.982   9.529
  496POPC   PO410872  19.404  42.794   9.490
  496POPC   GL110873  19.223  43.142   9.206
  496POPC   GL210874  18.858  43.143   9.050
  496POPC   C1A10875  19.416  43.236   8.811
  496POPC   D2A10876  19.619  43.069   8.442
  496POPC   C3A10877  19.337  43.084   8.082
  496POPC   C4A10878  19.316  42.989   7.602
  496POPC   C1B10879  18.641  43.185   8.643
  496POPC   C2B10880  18.860  43.268   8.251
  496POPC   C3B10881  18.896  43.165   7.821
  496POPC   C4B10882  18.876  43.203   7.341
  497POPC   NC310883  31.196   4.924   9.630
  497POPC   PO410884  30.602   5.166   9.464
  497POPC   GL110885  30.415   5.175   9.052
  497POPC   GL210886  30.110   5.366   9.072
  497POPC   C1A10887  30.605   5.107   8.621
  497POPC   D2A10888  30.531   4.998   8.178
  497POPC   C3A10889  30.823   5.088   7.862
  497POPC   C4A10890  30.932   5.547   7.818
  497POPC   C1B10891  30.213   5.403   8.633
  497POPC   C2B10892  30.503   5.522   8.298
  497POPC   C3B10893  30.425   5.452   7.866
  497POPC   C4B10894  30.617   5.331   7.458
  498POPC   NC310895  21.912  10.505   9.516
  498POPC   PO410896  21.297  10.249   9.479
  498POPC   GL110897  21.267  10.488   9.121
  498POPC   GL210898  21.629  10.410   9.109
  498POPC   C1A10899  21.263  10.494   8.662
  498POPC   D2A10900  21.494  10.533   8.282
  498POPC   C3A10901  21.197  10.448   7.982
  498POPC   C4A10902  21.040  10.687   7.665
  498POPC   C1B10903  21.517  10.110   8.839
  498POPC   C2B10904  21.547  10.045   8.409
  498POPC   C3B10905  21.683  10.129   7.993
  498POPC   C4B10906  21.479  10.210   7.632
  499POPC   NC310907  24.251   2.844   9.427
  499POPC   PO410908  24.622   2.388   9.549
  499POPC   GL110909  24.602   2.571   9.149
  499POPC   GL210910  24.278   2.454   9.078
  499POPC   C1A10911  24.617   2.709   8.728
  499POPC   D2A10912  24.459   2.878   8.326
  499POPC   C3A10913  24.677   2.816   7.925
  499POPC   C4A10914  24.835   3.038   7.560
  499POPC   C1B10915  24.363   2.268   8.681
  499POPC   C2B10916  24.249   2.406   8.308
  499POPC   C3B10917  24.211   2.618   7.941
  499POPC   C4B10918  24.129   2.308   7.726
  500POPC   NC310919  36.303  29.209   9.415
  500POPC   PO410920  35.741  28.846   9.311
  500POPC   GL110921  36.021  29.092   9.003
  500POPC   GL210922  36.164  29.439   8.987
  500POPC   C1A10923  36.098  29.107   8.561
  500POPC   D2A10924  35.790  29.237   8.244
  500POPC   C3A10925  35.957  29.115   7.873
  500POPC   C4A10926  36.394  28.869   7.889
  500POPC   C1B10927  35.904  29.557   8.688
  500POPC   C2B10928  36.163  29.572   8.342
  500POPC   C3B10929  36.362  29.390   8.032
  500POPC   C4B10930  36.376  29.634   7.708
  501POPC   NC310931  32.489  23.759   9.572
  501POPC   PO410932  32.094  23.282   9.417
  501POPC   GL110933  32.367  23.505   9.119
  501POPC   GL210934  32.371  23.898   9.106
  501POPC   C1A10935  32.459  23.618   8.697
  501POPC   D2A10936  32.467  23.958   8.413
  501POPC   C3A10937  32.430  23.752   8.027
  501POPC   C4A10938  32.144  23.613   7.697
  501POPC   C1B10939  32.100  24.029   8.782
  501POPC   C2B10940  31.960  24.190   8.385
  501POPC   C3B10941  31.984  24.031   7.967
  501POPC   C4B10942  32.340  24.116   7.666
  502POPC   NC310943  14.535  11.926   9.592
  502POPC   PO410944  13.952  12.315   9.655
  502POPC   GL110945  14.212  12.159   9.277
  502POPC   GL210946  14.222  11.787   9.203
  502POPC   C1A10947  14.218  12.176   8.810
  502POPC   D2A10948  14.074  11.960   8.406
  502POPC   C3A10949  14.113  12.172   8.002
  502POPC   C4A10950  14.083  12.216   7.565
  502POPC   C1B10951  14.339  11.684   8.761
  502POPC   C2B10952  14.472  11.615   8.348
  502POPC   C3B10953  14.595  11.948   8.054
  502POPC   C4B10954  14.554  12.091   7.607
  503POPC   NC310955   8.742  25.638   9.463
  503POPC   PO410956   8.845  26.296   9.538
  503POPC   GL110957   8.882  26.089   9.105
  503POPC   GL210958   8.708  25.773   8.985
  503POPC   C1A10959   8.876  26.097   8.636
  503POPC   D2A10960   8.710  25.978   8.244
  503POPC   C3A10961   8.866  26.199   7.879
  503POPC   C4A10962   8.654  26.351   7.510
  503POPC   C1B10963   9.146  25.706   8.842
  503POPC   C2B10964   9.277  25.839   8.413
  503POPC   C3B10965   9.162  25.791   7.970
  503POPC   C4B10966   8.914  25.611   7.609
  504POPC   NC310967   1.633  17.159   9.446
  504POPC   PO410968   2.056  16.587   9.513
  504POPC   GL110969   1.781  16.560   9.127
  504POPC   GL210970   2.004  16.759   8.964
  504POPC   C1A10971   1.682  16.505   8.635
  504POPC   D2A10972   1.621  16.254   8.232
  504POPC   C3A10973   1.795  16.530   7.906
  504POPC   C4A10974   2.009  16.951   7.922
  504POPC   C1B10975   2.214  16.380   8.834
  504POPC   C2B10976   2.530  16.403   8.509
  504POPC   C3B10977   2.606  16.453   8.069
  504POPC   C4B10978   2.320  16.592   7.762
  505POPC   NC310979  44.942  21.556   9.754
  505POPC   PO410980  44.404  21.197   9.650
  505POPC   GL110981  44.421  21.463   9.251
  505POPC   GL210982  44.711  21.696   9.256
  505POPC   C1A10983  44.493  21.510   8.780
  505POPC   D2A10984  44.606  21.331   8.376
  505POPC   C3A10985  44.546  21.477   7.958
  505POPC   C4A10986  44.458  21.271   7.572
  505POPC   C1B10987  44.986  21.613   8.893
  505POPC   C2B10988  44.896  21.720   8.463
  505POPC   C3B10989   0.020  21.676   8.031
  505POPC   C4B10990  44.910  21.493   7.599
  506POPC   NC310991   9.017   0.569   9.527
  506POPC   PO410992   8.574   0.119   9.446
  506POPC   GL110993   8.805   0.321   9.125
  506POPC   GL210994   9.139   0.299   9.096
  506POPC   C1A10995   8.851   0.539   8.729
  506POPC   D2A10996   8.903   0.677   8.326
  506POPC   C3A10997   8.939   0.419   8.000
  506POPC   C4A10998   8.930   0.716   7.683
  506POPC   C1B10999   9.272   0.293   8.628
  506POPC   C2B11000   9.404   0.519   8.254
  506POPC   C3B11001   9.400   0.512   7.788
  506POPC   C4B11002   9.152   0.171   7.595
  507POPC   NC311003   1.791  13.042   9.338
  507POPC   PO411004   2.345  13.047   9.679
  507POPC   GL111005   2.222  12.867   9.195
  507POPC   GL211006   2.163  13.100   8.962
  507POPC   C1A11007   1.945  12.676   8.816
  507POPC   D2A11008   1.882  12.892   8.432
  507POPC   C3A11009   1.907  12.711   8.038
  507POPC   C4A11010   1.802  12.873   7.646
  507POPC   C1B11011   2.354  12.959   8.636
  507POPC   C2B11012   2.297  13.210   8.329
  507POPC   C3B11013   2.011  13.217   8.024
  507POPC   C4B11014   2.239  13.168   7.665
  508POPC   NC311015  32.343  32.262   9.924
  508POPC   PO411016  32.941  32.097   9.612
  508POPC   GL111017  33.074  32.272   9.167
  508POPC   GL211018  32.907  32.183   8.892
  508POPC   C1A11019  33.224  32.578   8.828
  508POPC   D2A11020  33.058  32.685   8.401
  508POPC   C3A11021  33.098  32.412   7.999
  508POPC   C4A11022  32.915  32.187   7.628
  508POPC   C1B11023  33.289  32.099   8.671
  508POPC   C2B11024  33.147  31.981   8.300
  508POPC   C3B11025  33.155  31.852   7.922
  508POPC   C4B11026  33.196  31.797   7.450
  509POPC   NC311027  31.183  25.833   9.844
  509POPC   PO411028  31.571  26.299   9.514
  509POPC   GL111029  31.505  26.195   9.092
  509POPC   GL211030  31.241  25.914   9.126
  509POPC   C1A11031  31.777  26.245   8.718
  509POPC   D2A11032  31.751  26.059   8.294
  509POPC   C3A11033  31.658  26.210   7.867
  509POPC   C4A11034  31.588  26.232   7.404
  509POPC   C1B11035  31.470  25.799   8.758
  509POPC   C2B11036  31.326  25.763   8.362
  509POPC   C3B11037  31.188  26.039   8.057
  509POPC   C4B11038  31.147  26.128   7.642
  510POPC   NC311039  24.839  39.380   9.529
  510POPC   PO411040  24.180  39.396   9.567
  510POPC   GL111041  24.297  39.365   9.146
  510POPC   GL211042  24.549  39.617   9.130
  510POPC   C1A11043  24.558  39.145   8.832
  510POPC   D2A11044  24.517  38.865   8.440
  510POPC   C3A11045  24.389  38.992   8.004
  510POPC   C4A11046  24.576  39.119   7.592
  510POPC   C1B11047  24.403  39.642   8.713
  510POPC   C2B11048  24.594  39.379   8.387
  510POPC   C3B11049  24.706  39.404   7.995
  510POPC   C4B11050  24.529  39.631   7.690
  511POPC   NC311051  10.964   4.912   9.726
  511POPC   PO411052  11.643   5.002   9.571
  511POPC   GL111053  11.291   5.103   9.313
  511POPC   GL211054  11.215   4.774   9.175
  511POPC   C1A11055  11.238   5.333   8.924
  511POPC   D2A11056  11.235   5.213   8.460
  511POPC   C3A11057  11.304   5.441   8.052
  511POPC   C4A11058  11.300   5.360   7.632
  511POPC   C1B11059  11.386   4.775   8.727
  511POPC   C2B11060  11.546   4.843   8.290
  511POPC   C3B11061  11.471   4.959   7.867
  511POPC   C4B11062  11.162   4.864   7.544
  512POPC   NC311063  10.236  28.282   9.417
  512POPC   PO411064   9.669  28.710   9.420
  512POPC   GL111065   9.776  28.330   9.188
  512POPC   GL211066   9.573  28.006   9.231
  512POPC   C1A11067   9.878  28.164   8.793
  512POPC   D2A11068   9.699  28.088   8.383
  512POPC   C3A11069   9.709  28.323   7.970
  512POPC   C4A11070   9.426  28.664   7.824
  512POPC   C1B11071   9.360  28.233   8.883
  512POPC   C2B11072   9.192  28.101   8.497
  512POPC   C3B11073   9.173  28.240   8.091
  512POPC   C4B11074   9.307  28.093   7.718
  513POPC   NC311075   5.752  17.262   9.502
  513POPC   PO411076   6.365  17.665   9.521
  513POPC   GL111077   6.174  17.505   9.156
  513POPC   GL211078   5.876  17.355   9.023
  513POPC   C1A11079   6.245  17.488   8.725
  513POPC   D2A11080   5.833  17.476   8.456
  513POPC   C3A11081   5.914  17.392   8.019
  513POPC   C4A11082   6.198  17.524   7.740
  513POPC   C1B11083   5.556  17.164   8.854
  513POPC   C2B11084   5.295  17.202   8.498
  513POPC   C3B11085   5.452  17.208   8.094
  513POPC   C4B11086   5.503  17.390   7.683
  514POPC   NC311087  26.863  28.944   9.470
  514POPC   PO411088  26.494  29.448   9.698
  514POPC   GL111089  26.631  29.451   9.237
  514POPC   GL211090  26.682  29.139   9.052
  514POPC   C1A11091  26.722  29.561   8.759
  514POPC   D2A11092  27.103  29.454   8.454
  514POPC   C3A11093  26.966  29.446   8.022
  514POPC   C4A11094  26.947  29.019   7.834
  514POPC   C1B11095  26.519  29.104   8.668
  514POPC   C2B11096  26.671  29.094   8.286
  514POPC   C3B11097  26.523  28.788   8.024
  514POPC   C4B11098  26.553  28.747   7.615
  515POPC   NC311099  10.228  32.584   9.876
  515POPC   PO411100  10.670  32.205   9.450
  515POPC   GL111101  10.522  32.095   9.028
  515POPC   GL211102  10.366  31.756   8.966
  515POPC   C1A11103  10.485  32.342   8.625
  515POPC   D2A11104  10.150  32.598   8.364
  515POPC   C3A11105  10.198  32.582   7.901
  515POPC   C4A11106  10.648  32.568   7.830
  515POPC   C1B11107  10.493  31.830   8.552
  515POPC   C2B11108  10.844  31.939   8.307
  515POPC   C3B11109  10.745  32.086   7.952
  515POPC   C4B11110  10.328  32.062   7.869
  516POPC   NC311111  32.636  21.853   9.375
  516POPC   PO411112  32.156  22.303   9.623
  516POPC   GL111113  32.233  22.133   9.219
  516POPC   GL211114  32.520  22.358   9.214
  516POPC   C1A11115  32.141  21.942   8.795
  516POPC   D2A11116  32.165  22.178   8.396
  516POPC   C3A11117  32.013  22.108   7.995
  516POPC   C4A11118  32.260  22.184   7.657
  516POPC   C1B11119  32.590  22.190   8.794
  516POPC   C2B11120  32.687  22.341   8.380
  516POPC   C3B11121  32.653  22.166   7.971
  516POPC   C4B11122  32.741  22.240   7.498
  517POPC   NC311123  15.370  19.290   9.478
  517POPC   PO411124  15.273  18.680   9.345
  517POPC   GL111125  15.218  18.947   9.033
  517POPC   GL211126  15.338  19.283   8.967
  517POPC   C1A11127  15.120  18.836   8.656
  517POPC   D2A11128  15.383  18.997   8.424
  517POPC   C3A11129  15.267  18.867   8.099
  517POPC   C4A11130  15.292  18.901   7.674
  517POPC   C1B11131  15.002  19.317   8.678
  517POPC   C2B11132  14.953  19.263   8.269
  517POPC   C3B11133  15.241  19.355   7.970
  517POPC   C4B11134  14.986  19.351   7.645
  518POPC   NC311135   8.050  32.732   9.405
  518POPC   PO411136   8.289  33.335   9.496
  518POPC   GL111137   8.273  33.145   9.124
  518POPC   GL211138   7.987  33.262   9.057
  518POPC   C1A11139   8.354  33.226   8.679
  518POPC   D2A11140   8.352  32.965   8.310
  518POPC   C3A11141   8.260  33.193   7.926
  518POPC   C4A11142   8.293  33.067   7.502
  518POPC   C1B11143   7.961  32.904   8.782
  518POPC   C2B11144   7.821  32.953   8.406
  518POPC   C3B11145   7.929  32.826   8.041
  518POPC   C4B11146   7.874  32.875   7.690
  519POPC   NC311147  35.951  31.619   9.676
  519POPC   PO411148  35.297  31.434   9.512
  519POPC   GL111149  35.177  31.402   9.127
  519POPC   GL211150  34.981  31.715   9.093
  519POPC   C1A11151  35.501  31.364   8.802
  519POPC   D2A11152  35.685  31.109   8.467
  519POPC   C3A11153  35.619  31.335   8.091
  519POPC   C4A11154  35.559  31.327   7.655
  519POPC   C1B11155  35.075  31.611   8.648
  519POPC   C2B11156  34.968  31.784   8.266
  519POPC   C3B11157  34.928  31.703   7.856
  519POPC   C4B11158  35.010  31.349   7.624
  520POPC   NC311159  36.335  40.762   9.544
  520POPC   PO411160  35.837  41.184   9.420
  520POPC   GL111161  36.160  40.989   9.121
  520POPC   GL211162  36.158  40.599   9.082
  520POPC   C1A11163  36.294  40.903   8.699
  520POPC   D2A11164  36.111  40.816   8.356
  520POPC   C3A11165  36.354  40.960   8.063
  520POPC   C4A11166  36.098  40.980   7.746
  520POPC   C1B11167  36.297  40.407   8.681
  520POPC   C2B11168  36.443  40.436   8.234
  520POPC   C3B11169  36.391  40.548   7.769
  520POPC   C4B11170  36.198  40.460   7.396
  521POPC   NC311171  18.042  37.205  10.041
  521POPC   PO411172  18.204  36.793   9.500
  521POPC   GL111173  18.091  36.797   9.117
  521POPC   GL211174  18.265  37.107   9.075
  521POPC   C1A11175  18.179  36.733   8.710
  521POPC   D2A11176  18.414  36.959   8.451
  521POPC   C3A11177  18.229  37.001   8.080
  521POPC   C4A11178  18.213  36.894   7.686
  521POPC   C1B11179  17.915  37.173   8.808
  521POPC   C2B11180  17.851  37.040   8.395
  521POPC   C3B11181  17.819  37.261   7.971
  521POPC   C4B11182  17.856  37.217   7.505
  522POPC   NC311183   8.745  23.851   9.509
  522POPC   PO411184   9.222  23.398   9.422
  522POPC   GL111185   8.935  23.570   9.139
  522POPC   GL211186   9.117  23.898   9.085
  522POPC   C1A11187   8.750  23.721   8.776
  522POPC   D2A11188   8.864  23.938   8.378
  522POPC   C3A11189   8.820  23.643   7.968
  522POPC   C4A11190   8.877  23.711   7.504
  522POPC   C1B11191   9.272  23.717   8.658
  522POPC   C2B11192   9.275  23.734   8.161
  522POPC   C3B11193   9.319  23.563   7.737
  522POPC   C4B11194   9.452  23.220   7.392
  523POPC   NC311195  19.462   3.926   9.228
  523POPC   PO411196  19.577   3.367   9.600
  523POPC   GL111197  19.688   3.373   9.206
  523POPC   GL211198  19.968   3.558   9.159
  523POPC   C1A11199  19.620   3.311   8.800
  523POPC   D2A11200  19.733   3.484   8.429
  523POPC   C3A11201  19.880   3.342   8.063
  523POPC   C4A11202  19.846   3.594   7.716
  523POPC   C1B11203  20.067   3.729   8.744
  523POPC   C2B11204  20.245   3.599   8.331
  523POPC   C3B11205  20.331   3.604   7.867
  523POPC   C4B11206  20.251   3.649   7.391
  524POPC   NC311207  40.586   9.476   9.469
  524POPC   PO411208  40.729  10.158   9.442
  524POPC   GL111209  40.833   9.796   9.137
  524POPC   GL211210  40.898   9.393   9.099
  524POPC   C1A11211  40.760   9.735   8.708
  524POPC   D2A11212  40.785   9.888   8.305
  524POPC   C3A11213  40.651   9.624   7.991
  524POPC   C4A11214  40.374   9.957   7.795
  524POPC   C1B11215  41.098   9.343   8.732
  524POPC   C2B11216  40.997   9.440   8.356
  524POPC   C3B11217  41.187   9.627   8.071
  524POPC   C4B11218  41.050   9.794   7.710
  525POPC   NC311219  25.615  14.853   9.358
  525POPC   PO411220  24.955  14.975   9.511
  525POPC   GL111221  25.181  15.046   9.153
  525POPC   GL211222  25.340  15.351   9.216
  525POPC   C1A11223  25.347  15.115   8.760
  525POPC   D2A11224  25.493  15.102   8.357
  525POPC   C3A11225  25.152  15.011   8.109
  525POPC   C4A11226  25.114  14.783   7.750
  525POPC   C1B11227  25.496  15.604   8.850
  525POPC   C2B11228  25.497  15.681   8.407
  525POPC   C3B11229  25.370  15.466   8.022
  525POPC   C4B11230  25.570  15.518   7.647
  526POPC   NC311231  21.637   8.909   9.554
  526POPC   PO411232  21.062   8.682   9.387
  526POPC   GL111233  21.323   8.927   9.139
  526POPC   GL211234  21.620   8.709   9.068
  526POPC   C1A11235  21.486   9.130   8.771
  526POPC   D2A11236  21.313   9.278   8.364
  526POPC   C3A11237  21.606   9.176   8.033
  526POPC   C4A11238  21.578   9.048   7.604
  526POPC   C1B11239  21.335   8.653   8.714
  526POPC   C2B11240  21.358   8.499   8.319
  526POPC   C3B11241  21.535   8.671   7.950
  526POPC   C4B11242  21.685   8.536   7.553
  527POPC   NC311243   6.035   5.653   9.637
  527POPC   PO411244   5.773   6.205   9.400
  527POPC   GL111245   5.891   5.999   9.053
  527POPC   GL211246   5.828   5.672   9.133
  527POPC   C1A11247   5.792   5.946   8.636
  527POPC   D2A11248   5.897   6.106   8.255
  527POPC   C3A11249   5.849   6.003   7.833
  527POPC   C4A11250   5.661   6.116   7.463
  527POPC   C1B11251   6.049   5.535   8.735
  527POPC   C2B11252   6.097   5.637   8.259
  527POPC   C3B11253   5.962   5.511   7.814
  527POPC   C4B11254   5.718   5.221   7.547
  528POPC   NC311255  22.773  37.954   9.406
  528POPC   PO411256  22.808  38.685   9.537
  528POPC   GL111257  22.827  38.449   9.156
  528POPC   GL211258  23.167  38.526   9.129
  528POPC   C1A11259  22.914  38.358   8.705
  528POPC   D2A11260  22.710  38.581   8.351
  528POPC   C3A11261  22.835  38.566   7.916
  528POPC   C4A11262  22.507  38.529   7.592
  528POPC   C1B11263  23.318  38.685   8.743
  528POPC   C2B11264  23.245  38.546   8.329
  528POPC   C3B11265  23.390  38.608   7.933
  528POPC   C4B11266  23.215  38.907   7.670
  529POPC   NC311267  15.001   5.573   9.688
  529POPC   PO411268  15.424   6.160   9.515
  529POPC   GL111269  15.214   5.988   9.189
  529POPC   GL211270  15.084   5.667   9.207
  529POPC   C1A11271  15.165   5.991   8.771
  529POPC   D2A11272  15.351   5.872   8.380
  529POPC   C3A11273  15.136   6.117   8.044
  529POPC   C4A11274  15.000   6.338   7.657
  529POPC   C1B11275  15.182   5.467   8.844
  529POPC   C2B11276  15.103   5.395   8.421
  529POPC   C3B11277  15.075   5.592   8.036
  529POPC   C4B11278  14.934   5.811   7.679
  530POPC   NC311279  26.486  24.336   9.410
  530POPC   PO411280  25.845  24.576   9.443
  530POPC   GL111281  25.806  24.777   9.058
  530POPC   GL211282  26.153  24.742   9.075
  530POPC   C1A11283  25.888  24.703   8.586
  530POPC   D2A11284  25.887  24.295   8.380
  530POPC   C3A11285  25.881  24.265   7.929
  530POPC   C4A11286  26.074  24.637   7.732
  530POPC   C1B11287  26.117  24.328   8.853
  530POPC   C2B11288  26.400  24.209   8.520
  530POPC   C3B11289  26.401  24.351   8.082
  530POPC   C4B11290  26.329  24.214   7.658
  531POPC   NC311291  30.427   7.314   9.404
  531POPC   PO411292  31.058   7.245   9.297
  531POPC   GL111293  30.817   7.508   9.077
  531POPC   GL211294  30.643   7.763   9.242
  531POPC   C1A11295  30.581   7.307   8.780
  531POPC   D2A11296  30.587   7.133   8.410
  531POPC   C3A11297  30.911   7.285   8.133
  531POPC   C4A11298  30.740   7.240   7.736
  531POPC   C1B11299  30.471   7.802   8.820
  531POPC   C2B11300  30.607   7.638   8.395
  531POPC   C3B11301  30.470   7.646   7.956
  531POPC   C4B11302  30.571   7.652   7.513
  532POPC   NC311303   3.934  11.365   9.656
  532POPC   PO411304   3.356  11.493   9.778
  532POPC   GL111305   3.513  11.380   9.346
  532POPC   GL211306   3.261  11.516   9.173
  532POPC   C1A11307   3.843  11.362   8.960
  532POPC   D2A11308   4.001  11.248   8.515
  532POPC   C3A11309   3.895  11.546   8.179
  532POPC   C4A11310   3.732  11.516   7.760
  532POPC   C1B11311   3.316  11.332   8.821
  532POPC   C2B11312   3.498  11.315   8.445
  532POPC   C3B11313   3.352  11.454   8.083
  532POPC   C4B11314   3.170  11.330   7.733
  533POPC   NC311315  24.972  16.335   9.749
  533POPC   PO411316  25.340  15.750   9.545
  533POPC   GL111317  25.216  15.885   9.153
  533POPC   GL211318  25.439  16.160   9.140
  533POPC   C1A11319  25.133  15.952   8.710
  533POPC   D2A11320  25.247  16.128   8.310
  533POPC   C3A11321  25.328  15.947   7.905
  533POPC   C4A11322  25.026  15.718   7.659
  533POPC   C1B11323  25.635  16.130   8.736
  533POPC   C2B11324  25.686  16.403   8.365
  533POPC   C3B11325  25.846  16.265   7.969
  533POPC   C4B11326  25.755  16.007   7.567
  534POPC   NC311327  38.595  41.570   9.523
  534POPC   PO411328  38.108  41.917   9.505
  534POPC   GL111329  38.331  41.646   9.102
  534POPC   GL211330  38.179  41.293   8.989
  534POPC   C1A11331  38.419  41.591   8.619
  534POPC   D2A11332  38.698  41.730   8.278
  534POPC   C3A11333  38.545  41.681   7.860
  534POPC   C4A11334  38.263  41.322   7.717
  534POPC   C1B11335  38.632  41.234   8.902
  534POPC   C2B11336  38.833  41.256   8.480
  534POPC   C3B11337  38.625  41.232   8.089
  534POPC   C4B11338  38.788  41.261   7.673
  535POPC   NC311339  17.803  10.122   9.632
  535POPC   PO411340  17.343  10.528   9.727
  535POPC   GL111341  17.297  10.613   9.254
  535POPC   GL211342  17.442  10.356   9.055
  535POPC   C1A11343  17.112  10.745   8.853
  535POPC   D2A11344  17.153  10.586   8.456
  535POPC   C3A11345  17.414  10.757   8.159
  535POPC   C4A11346  17.285  10.556   7.808
  535POPC   C1B11347  17.588  10.335   8.603
  535POPC   C2B11348  17.537  10.265   8.147
  535POPC   C3B11349  17.721  10.294   7.717
  535POPC   C4B11350  17.778  10.205   7.260
  536POPC   NC311351  15.754   0.105   9.561
  536POPC   PO411352  16.124   0.654   9.327
  536POPC   GL111353  15.883   0.288   9.106
  536POPC   GL211354  16.185   0.100   9.147
  536POPC   C1A11355  15.727   0.313   8.663
  536POPC   D2A11356  15.900   0.659   8.428
  536POPC   C3A11357  15.865   0.617   7.996
  536POPC   C4A11358  15.686   0.480   7.619
  536POPC   C1B11359  16.238   0.318   8.739
  536POPC   C2B11360  16.242   0.256   8.296
  536POPC   C3B11361  16.094   0.161   7.887
  536POPC   C4B11362  16.094   0.247   7.452
  537POPC   NC311363  44.427   7.649   9.358
  537POPC   PO411364  44.300   8.160   9.656
  537POPC   GL111365  44.483   8.166   9.196
  537POPC   GL211366  44.777   8.009   9.146
  537POPC   C1A11367  44.492   7.937   8.749
  537POPC   D2A11368  44.807   8.014   8.425
  537POPC   C3A11369  44.607   8.217   8.069
  537POPC   C4A11370  44.316   7.973   7.850
  537POPC   C1B11371  44.789   8.357   8.834
  537POPC   C2B11372  44.895   8.524   8.432
  537POPC   C3B11373   0.101   8.295   8.096
  537POPC   C4B11374  44.934   8.470   7.732
  538POPC   NC311375   2.719  39.441   9.605
  538POPC   PO411376   2.301  38.990   9.384
  538POPC   GL111377   2.607  39.186   9.151
  538POPC   GL211378   2.730  39.540   9.100
  538POPC   C1A11379   2.684  39.189   8.727
  538POPC   D2A11380   2.913  39.127   8.381
  538POPC   C3A11381   2.645  39.152   8.045
  538POPC   C4A11382   2.749  39.042   7.672
  538POPC   C1B11383   2.863  39.646   8.673
  538POPC   C2B11384   2.761  39.609   8.218
  538POPC   C3B11385   2.795  39.559   7.735
  538POPC   C4B11386   2.935  39.793   7.342
  539POPC   NC311387   4.657   9.335   9.440
  539POPC   PO411388   5.337   9.711   9.512
  539POPC   GL111389   5.223   9.701   9.113
  539POPC   GL211390   4.896   9.623   9.093
  539POPC   C1A11391   5.156   9.636   8.658
  539POPC   D2A11392   5.018   9.928   8.356
  539POPC   C3A11393   5.098   9.731   7.967
  539POPC   C4A11394   5.063   9.689   7.516
  539POPC   C1B11395   4.669   9.506   8.686
  539POPC   C2B11396   4.682   9.539   8.219
  539POPC   C3B11397   4.628   9.559   7.742
  539POPC   C4B11398   4.655   9.548   7.276
  540POPC   NC311399   4.627  14.211   9.542
  540POPC   PO411400   3.903  14.377   9.484
  540POPC   GL111401   4.255  14.367   9.211
  540POPC   GL211402   4.117  14.047   9.160
  540POPC   C1A11403   4.398  14.446   8.778
  540POPC   D2A11404   4.125  14.572   8.404
  540POPC   C3A11405   4.109  14.840   8.037
  540POPC   C4A11406   4.190  14.700   7.611
  540POPC   C1B11407   4.184  13.969   8.738
  540POPC   C2B11408   4.399  14.141   8.355
  540POPC   C3B11409   4.260  14.310   7.964
  540POPC   C4B11410   4.023  14.178   7.621
  541POPC   NC311411  26.536  15.393   9.467
  541POPC   PO411412  26.066  14.910   9.366
  541POPC   GL111413  26.183  15.258   9.113
  541POPC   GL211414  25.846  15.373   9.165
  541POPC   C1A11415  26.326  15.360   8.683
  541POPC   D2A11416  26.319  15.095   8.241
  541POPC   C3A11417  26.309  15.147   7.743
  541POPC   C4A11418  26.388  15.255   7.304
  541POPC   C1B11419  25.838  15.224   8.741
  541POPC   C2B11420  25.928  15.405   8.356
  541POPC   C3B11421  25.867  15.250   7.970
  541POPC   C4B11422  25.580  14.984   7.833
  542POPC   NC311423  17.852  43.134   9.784
  542POPC   PO411424  18.463  43.259   9.506
  542POPC   GL111425  18.329  43.113   9.127
  542POPC   GL211426  18.471  42.784   9.208
  542POPC   C1A11427  18.167  43.338   8.764
  542POPC   D2A11428  18.165  43.172   8.381
  542POPC   C3A11429  18.402  43.245   8.038
  542POPC   C4A11430  18.170  43.412   7.735
  542POPC   C1B11431  18.648  42.706   8.800
  542POPC   C2B11432  18.510  42.764   8.361
  542POPC   C3B11433  18.580  42.760   7.947
  542POPC   C4B11434  18.474  42.998   7.585
  543POPC   NC311435  42.834   6.741   9.534
  543POPC   PO411436  43.155   6.117   9.503
  543POPC   GL111437  42.974   6.349   9.158
  543POPC   GL211438  43.211   6.610   9.032
  543POPC   C1A11439  42.898   6.337   8.708
  543POPC   D2A11440  43.136   6.627   8.454
  543POPC   C3A11441  43.100   6.688   8.039
  543POPC   C4A11442  42.812   6.572   7.722
  543POPC   C1B11443  43.539   6.760   8.712
  543POPC   C2B11444  43.635   6.534   8.299
  543POPC   C3B11445  43.564   6.563   7.817
  543POPC   C4B11446  43.448   6.859   7.451
  544POPC   NC311447   3.704  40.708   9.650
  544POPC   PO411448   3.326  41.121   9.270
  544POPC   GL111449   3.747  40.932   9.134
  544POPC   GL211450   3.830  40.537   9.181
  544POPC   C1A11451   3.852  41.044   8.699
  544POPC   D2A11452   3.564  40.805   8.461
  544POPC   C3A11453   3.433  40.869   8.052
  544POPC   C4A11454   3.672  40.820   7.684
  544POPC   C1B11455   3.448  40.548   8.926
  544POPC   C2B11456   3.180  40.504   8.555
  544POPC   C3B11457   3.272  40.388   8.138
  544POPC   C4B11458   3.252  40.526   7.707
  545POPC   NC311459  21.361  42.840   9.216
  545POPC   PO411460  21.695  43.035   9.749
  545POPC   GL111461  21.649  43.272   9.269
  545POPC   GL211462  21.336  43.391   9.165
  545POPC   C1A11463  21.667  43.184   8.766
  545POPC   D2A11464  21.756  42.944   8.341
  545POPC   C3A11465  21.603  43.138   7.937
  545POPC   C4A11466  21.519  43.080   7.446
  545POPC   C1B11467  21.164  43.271   8.764
  545POPC   C2B11468  21.283  43.136   8.389
  545POPC   C3B11469  21.087  43.051   8.040
  545POPC   C4B11470  21.178  43.327   7.721
  546POPC   NC311471  22.363  24.950   9.492
  546POPC   PO411472  22.040  24.407   9.568
  546POPC   GL111473  22.054  24.579   9.168
  546POPC   GL211474  22.401  24.565   9.158
  546POPC   C1A11475  22.150  24.450   8.721
  546POPC   D2A11476  22.440  24.404   8.359
  546POPC   C3A11477  22.163  24.356   7.997
  546POPC   C4A11478  21.846  24.266   7.713
  546POPC   C1B11479  22.470  24.841   8.811
  546POPC   C2B11480  22.621  24.888   8.408
  546POPC   C3B11481  22.485  24.759   8.002
  546POPC   C4B11482  22.656  24.384   7.838
  547POPC   NC311483  21.190  18.575   9.559
  547POPC   PO411484  21.425  17.927   9.674
  547POPC   GL111485  21.479  18.213   9.335
  547POPC   GL211486  21.135  18.167   9.229
  547POPC   C1A11487  21.532  18.382   8.912
  547POPC   D2A11488  21.625  18.452   8.475
  547POPC   C3A11489  21.435  18.324   8.118
  547POPC   C4A11490  21.607  18.382   7.736
  547POPC   C1B11491  21.026  18.463   8.916
  547POPC   C2B11492  21.041  18.460   8.480
  547POPC   C3B11493  20.960  18.503   8.047
  547POPC   C4B11494  21.046  18.311   7.676
  548POPC   NC311495  26.169   4.186   9.611
  548POPC   PO411496  26.204   4.824   9.455
  548POPC   GL111497  26.143   4.437   9.158
  548POPC   GL211498  26.305   4.091   9.116
  548POPC   C1A11499  26.114   4.361   8.704
  548POPC   D2A11500  26.165   4.494   8.278
  548POPC   C3A11501  25.986   4.310   7.903
  548POPC   C4A11502  26.070   4.390   7.469
  548POPC   C1B11503  26.076   3.869   8.800
  548POPC   C2B11504  25.982   3.965   8.358
  548POPC   C3B11505  25.871   3.801   7.964
  548POPC   C4B11506  26.139   3.882   7.658
  549POPC   NC311507  11.639  20.835   9.816
  549POPC   PO411508  11.027  20.703   9.533
  549POPC   GL111509  11.394  20.699   9.246
  549POPC   GL211510  11.397  20.406   8.972
  549POPC   C1A11511  11.398  20.897   8.853
  549POPC   D2A11512  11.093  20.853   8.544
  549POPC   C3A11513  11.258  20.727   8.164
  549POPC   C4A11514  11.248  20.924   7.767
  549POPC   C1B11515  11.177  20.262   8.604
  549POPC   C2B11516  10.832  20.162   8.336
  549POPC   C3B11517  10.998  20.239   7.951
  549POPC   C4B11518  11.332  20.423   7.738
  550POPC   NC311519   8.101  44.167   9.481
  550POPC   PO411520   7.968  43.517   9.485
  550POPC   GL111521   8.190  43.743   9.190
  550POPC   GL211522   8.017  43.990   9.000
  550POPC   C1A11523   8.348  43.647   8.807
  550POPC   D2A11524   8.030  43.628   8.481
  550POPC   C3A11525   8.152  43.843   8.128
  550POPC   C4A11526   8.360  43.682   7.793
  550POPC   C1B11527   7.720  44.061   8.651
  550POPC   C2B11528   7.603  43.849   8.282
  550POPC   C3B11529   7.675  44.050   7.949
  550POPC   C4B11530   7.939  43.964   7.654
  551POPC   NC311531  40.790  23.416   9.489
  551POPC   PO411532  40.617  22.709   9.509
  551POPC   GL111533  40.763  22.939   9.172
  551POPC   GL211534  40.598  23.220   9.064
  551POPC   C1A11535  40.924  22.970   8.745
  551POPC   D2A11536  40.828  23.134   8.341
  551POPC   C3A11537  40.694  22.942   7.979
  551POPC   C4A11538  40.877  22.943   7.587
  551POPC   C1B11539  40.521  23.369   8.678
  551POPC   C2B11540  40.366  23.361   8.251
  551POPC   C3B11541  40.474  23.368   7.817
  551POPC   C4B11542  40.467  23.200   7.421
  552POPC   NC311543   5.796  22.475   9.610
  552POPC   PO411544   6.198  21.900   9.660
  552POPC   GL111545   6.033  21.800   9.216
  552POPC   GL211546   5.946  22.144   9.118
  552POPC   C1A11547   5.768  21.752   8.816
  552POPC   D2A11548   5.898  21.677   8.368
  552POPC   C3A11549   5.773  21.891   7.973
  552POPC   C4A11550   5.442  22.159   7.792
  552POPC   C1B11551   5.816  22.256   8.680
  552POPC   C2B11552   5.678  22.330   8.237
  552POPC   C3B11553   5.865  22.474   7.829
  552POPC   C4B11554   6.208  22.455   7.474
  553POPC   NC311555  31.994  16.999   9.461
  553POPC   PO411556  32.583  16.609   9.487
  553POPC   GL111557  32.476  16.882   9.120
  553POPC   GL211558  32.173  16.772   9.060
  553POPC   C1A11559  32.425  16.878   8.661
  553POPC   D2A11560  32.600  16.689   8.328
  553POPC   C3A11561  32.498  16.929   7.975
  553POPC   C4A11562  32.142  17.105   7.802
  553POPC   C1B11563  31.970  16.670   8.666
  553POPC   C2B11564  32.087  16.785   8.232
  553POPC   C3B11565  32.205  16.555   7.804
  553POPC   C4B11566  32.019  16.281   7.458
  554POPC   NC311567   5.854  30.583   9.805
  554POPC   PO411568   5.822  31.186   9.590
  554POPC   GL111569   5.857  30.777   9.280
  554POPC   GL211570   6.143  30.501   9.241
  554POPC   C1A11571   6.013  30.821   8.824
  554POPC   D2A11572   5.942  31.072   8.438
  554POPC   C3A11573   5.873  30.916   8.009
  554POPC   C4A11574   5.968  30.788   7.562
  554POPC   C1B11575   5.957  30.313   8.852
  554POPC   C2B11576   5.982  30.486   8.405
  554POPC   C3B11577   6.029  30.432   7.949
  554POPC   C4B11578   5.662  30.403   7.647
  555POPC   NC311579  29.141  23.060   9.616
  555POPC   PO411580  28.828  22.489   9.461
  555POPC   GL111581  29.049  22.787   9.164
  555POPC   GL211582  29.023  23.160   9.141
  555POPC   C1A11583  28.924  22.798   8.738
  555POPC   D2A11584  29.108  22.968   8.386
  555POPC   C3A11585  29.040  22.778   7.991
  555POPC   C4A11586  29.382  22.811   7.691
  555POPC   C1B11587  28.932  23.322   8.766
  555POPC   C2B11588  28.619  23.141   8.495
  555POPC   C3B11589  28.712  23.160   8.055
  555POPC   C4B11590  29.042  23.231   7.765
  556POPC   NC311591  39.015   2.153   9.827
  556POPC   PO411592  38.347   2.047   9.692
  556POPC   GL111593  38.383   2.062   9.211
  556POPC   GL211594  38.685   1.924   9.067
  556POPC   C1A11595  38.358   2.083   8.717
  556POPC   D2A11596  38.411   1.978   8.276
  556POPC   C3A11597  38.268   2.131   7.857
  556POPC   C4A11598  37.906   2.052   7.580
  556POPC   C1B11599  38.721   1.707   8.647
  556POPC   C2B11600  38.804   1.674   8.190
  556POPC   C3B11601  38.764   1.905   7.821
  556POPC   C4B11602  38.606   1.686   7.489
  557POPC   NC311603  20.165  40.673   9.456
  557POPC   PO411604  20.735  40.953   9.692
  557POPC   GL111605  20.656  40.969   9.236
  557POPC   GL211606  20.421  40.747   9.033
  557POPC   C1A11607  20.856  41.150   8.872
  557POPC   D2A11608  20.822  41.111   8.417
  557POPC   C3A11609  20.903  40.716   8.222
  557POPC   C4A11610  20.799  40.516   7.816
  557POPC   C1B11611  20.569  40.708   8.627
  557POPC   C2B11612  20.408  40.846   8.225
  557POPC   C3B11613  20.311  40.663   7.830
  557POPC   C4B11614  20.330  40.643   7.380
  558POPC   NC311615   1.734  36.270   9.343
  558POPC   PO411616   2.264  35.970   9.607
  558POPC   GL111617   2.224  36.094   9.186
  558POPC   GL211618   1.937  35.869   9.122
  558POPC   C1A11619   2.204  36.444   8.876
  558POPC   D2A11620   1.882  36.421   8.564
  558POPC   C3A11621   1.908  36.474   8.096
  558POPC   C4A11622   1.723  36.355   7.669
  558POPC   C1B11623   2.053  35.960   8.707
  558POPC   C2B11624   2.145  35.846   8.290
  558POPC   C3B11625   2.022  35.980   7.885
  558POPC   C4B11626   1.743  35.851   7.543
  559POPC   NC311627  43.258  40.397   9.529
  559POPC   PO411628  42.989  41.032   9.619
  559POPC   GL111629  43.166  40.871   9.290
  559POPC   GL211630  42.967  40.599   9.171
  559POPC   C1A11631  43.246  40.908   8.859
  559POPC   D2A11632  43.248  41.083   8.449
  559POPC   C3A11633  43.389  40.812   8.102
  559POPC   C4A11634  43.159  40.837   7.717
  559POPC   C1B11635  42.915  40.459   8.785
  559POPC   C2B11636  43.091  40.589   8.448
  559POPC   C3B11637  42.868  40.746   8.101
  559POPC   C4B11638  42.944  40.395   7.801
  560POPC   NC311639   9.665   2.665   9.511
  560POPC   PO411640  10.294   2.934   9.443
  560POPC   GL111641   9.987   2.755   9.100
  560POPC   GL211642   9.582   2.801   9.031
  560POPC   C1A11643   9.920   2.730   8.633
  560POPC   D2A11644   9.740   3.085   8.406
  560POPC   C3A11645   9.968   3.248   8.083
  560POPC   C4A11646  10.028   2.997   7.736
  560POPC   C1B11647   9.567   2.401   8.839
  560POPC   C2B11648   9.576   2.224   8.432
  560POPC   C3B11649   9.707   2.444   8.107
  560POPC   C4B11650   9.716   2.586   7.703
  561POPC   NC311651   5.759  43.354   9.584
  561POPC   PO411652   6.246  43.717   9.339
  561POPC   GL111653   5.833  43.663   9.172
  561POPC   GL211654   5.603  43.943   9.242
  561POPC   C1A11655   5.654  43.710   8.785
  561POPC   D2A11656   5.719  43.919   8.387
  561POPC   C3A11657   5.748  43.740   7.979
  561POPC   C4A11658   5.459  43.558   7.717
  561POPC   C1B11659   5.917  44.127   8.906
  561POPC   C2B11660   6.147  44.169   8.489
  561POPC   C3B11661   6.021  44.187   8.036
  561POPC   C4B11662   6.173  44.455   7.708
  562POPC   NC311663  23.505   9.824   9.614
  562POPC   PO411664  24.069   9.691   9.541
  562POPC   GL111665  23.755   9.641   9.193
  562POPC   GL211666  23.368   9.557   9.203
  562POPC   C1A11667  23.773   9.552   8.750
  562POPC   D2A11668  23.890   9.792   8.394
  562POPC   C3A11669  23.826   9.585   8.058
  562POPC   C4A11670  24.116   9.667   7.785
  562POPC   C1B11671  23.283   9.756   8.797
  562POPC   C2B11672  23.388   9.797   8.399
  562POPC   C3B11673  23.490   9.962   8.016
  562POPC   C4B11674  23.592   9.775   7.617
  563POPC   NC311675  44.091   0.262   9.467
  563POPC   PO411676  43.614   0.722   9.459
  563POPC   GL111677  43.866   0.613   9.147
  563POPC   GL211678  43.718   0.279   9.117
  563POPC   C1A11679  43.981   0.561   8.732
  563POPC   D2A11680  43.827   0.665   8.346
  563POPC   C3A11681  44.103   0.584   8.003
  563POPC   C4A11682  44.016   0.326   7.653
  563POPC   C1B11683  43.499   0.355   8.735
  563POPC   C2B11684  43.472   0.236   8.327
  563POPC   C3B11685  43.569   0.462   7.956
  563POPC   C4B11686  43.531   0.284   7.586
  564POPC   NC311687   6.704   1.967   9.746
  564POPC   PO411688   7.256   2.206   9.585
  564POPC   GL111689   6.954   2.106   9.244
  564POPC   GL211690   6.964   1.754   9.252
  564POPC   C1A11691   6.744   2.117   8.794
  564POPC   D2A11692   6.572   2.111   8.331
  564POPC   C3A11693   6.608   2.353   7.919
  564POPC   C4A11694   6.701   2.191   7.493
  564POPC   C1B11695   7.073   1.725   8.780
  564POPC   C2B11696   6.923   1.735   8.320
  564POPC   C3B11697   6.740   1.837   7.895
  564POPC   C4B11698   6.855   1.701   7.455
  565POPC   NC311699  22.362  38.804   9.502
  565POPC   PO411700  21.992  38.292   9.427
  565POPC   GL111701  22.290  38.432   9.173
  565POPC   GL211702  22.070  38.716   9.106
  565POPC   C1A11703  22.423  38.504   8.778
  565POPC   D2A11704  22.233  38.260   8.444
  565POPC   C3A11705  22.380  38.317   8.040
  565POPC   C4A11706  22.231  38.096   7.689
  565POPC   C1B11707  21.889  38.458   8.794
  565POPC   C2B11708  21.706  38.524   8.406
  565POPC   C3B11709  21.866  38.323   8.055
  565POPC   C4B11710  21.959  38.517   7.694
  566POPC   NC311711  40.951   1.721   9.244
  566POPC   PO411712  40.676   1.093   9.239
  566POPC   GL111713  40.842   1.247   8.909
  566POPC   GL211714  41.081   1.092   8.700
  566POPC   C1A11715  40.617   1.310   8.552
  566POPC   D2A11716  40.616   1.638   8.270
  566POPC   C3A11717  40.813   1.454   7.947
  566POPC   C4A11718  40.795   1.425   7.518
  566POPC   C1B11719  40.968   1.065   8.288
  566POPC   C2B11720  40.561   1.016   8.133
  566POPC   C3B11721  40.679   0.991   7.763
  566POPC   C4B11722  41.138   1.112   7.757
  567POPC   NC311723  39.903  38.092   9.584
  567POPC   PO411724  40.338  38.569   9.533
  567POPC   GL111725  40.192  38.450   9.183
  567POPC   GL211726  40.278  38.132   9.188
  567POPC   C1A11727  40.100  38.572   8.778
  567POPC   D2A11728  39.953  38.417   8.400
  567POPC   C3A11729  40.110  38.605   8.019
  567POPC   C4A11730  40.002  38.738   7.616
  567POPC   C1B11731  40.328  38.109   8.742
  567POPC   C2B11732  40.174  37.936   8.352
  567POPC   C3B11733  39.953  38.125   7.979
  567POPC   C4B11734  40.190  38.212   7.598
  568POPC   NC311735  19.476  37.473   9.400
  568POPC   PO411736  20.016  37.801   9.402
  568POPC   GL111737  19.874  37.582   9.087
  568POPC   GL211738  19.605  37.850   9.073
  568POPC   C1A11739  20.056  37.415   8.722
  568POPC   D2A11740  20.137  37.647   8.340
  568POPC   C3A11741  19.897  37.523   7.987
  568POPC   C4A11742  20.054  37.408   7.596
  568POPC   C1B11743  19.612  37.688   8.661
  568POPC   C2B11744  19.426  37.661   8.289
  568POPC   C3B11745  19.459  37.746   7.870
  568POPC   C4B11746  19.596  37.625   7.421
  569POPC   NC311747  41.017  20.166   9.449
  569POPC   PO411748  40.627  19.635   9.457
  569POPC   GL111749  40.734  19.777   9.069
  569POPC   GL211750  40.558  20.068   9.084
  569POPC   C1A11751  40.940  19.941   8.693
  569POPC   D2A11752  40.719  19.866   8.336
  569POPC   C3A11753  40.899  19.783   7.936
  569POPC   C4A11754  40.711  19.831   7.550
  569POPC   C1B11755  40.668  20.351   8.780
  569POPC   C2B11756  40.865  20.382   8.398
  569POPC   C3B11757  40.734  20.265   7.982
  569POPC   C4B11758  40.479  20.295   7.646
  570POPC   NC311759  11.531  27.290  10.003
  570POPC   PO411760  11.475  26.761   9.561
  570POPC   GL111761  11.321  26.702   9.171
  570POPC   GL211762  11.535  26.479   9.039
  570POPC   C1A11763  11.243  26.923   8.793
  570POPC   D2A11764  10.961  27.111   8.520
  570POPC   C3A11765  11.146  27.174   8.091
  570POPC   C4A11766  11.158  26.862   7.773
  570POPC   C1B11767  11.120  26.427   8.770
  570POPC   C2B11768  11.121  26.623   8.347
  570POPC   C3B11769  11.484  26.639   8.093
  570POPC   C4B11770  11.577  26.567   7.646
  571POPC   NC311771  18.166  19.791   9.422
  571POPC   PO411772  18.413  20.339   9.490
  571POPC   GL111773  18.401  20.092   9.096
  571POPC   GL211774  18.013  20.039   9.025
  571POPC   C1A11775  18.355  19.964   8.655
  571POPC   D2A11776  18.173  20.032   8.233
  571POPC   C3A11777  18.489  19.860   7.926
  571POPC   C4A11778  18.537  19.412   7.901
  571POPC   C1B11779  17.917  19.687   8.752
  571POPC   C2B11780  17.796  19.610   8.319
  571POPC   C3B11781  18.028  19.636   7.909
  571POPC   C4B11782  18.071  20.024   7.676
  572POPC   NC311783   4.553  10.687   9.516
  572POPC   PO411784   4.199  10.170   9.553
  572POPC   GL111785   4.377  10.358   9.175
  572POPC   GL211786   4.180  10.634   9.170
  572POPC   C1A11787   4.460  10.441   8.734
  572POPC   D2A11788   4.426  10.202   8.325
  572POPC   C3A11789   4.385  10.415   7.917
  572POPC   C4A11790   4.334  10.389   7.431
  572POPC   C1B11791   4.141  10.832   8.780
  572POPC   C2B11792   4.084  10.598   8.383
  572POPC   C3B11793   3.895  10.607   7.962
  572POPC   C4B11794   3.887  10.623   7.502
  573POPC   NC311795  23.592  27.946   9.551
  573POPC   PO411796  23.873  27.439   9.357
  573POPC   GL111797  23.773  27.767   9.094
  573POPC   GL211798  23.388  27.725   9.140
  573POPC   C1A11799  23.895  27.828   8.656
  573POPC   D2A11800  23.616  27.763   8.295
  573POPC   C3A11801  23.750  27.657   7.872
  573POPC   C4A11802  23.949  27.777   7.458
  573POPC   C1B11803  23.458  27.545   8.742
  573POPC   C2B11804  23.399  27.249   8.415
  573POPC   C3B11805  23.430  27.269   7.984
  573POPC   C4B11806  23.248  27.547   7.703
  574POPC   NC311807  21.252  26.186   9.573
  574POPC   PO411808  21.632  25.753   9.260
  574POPC   GL111809  21.291  25.974   9.094
  574POPC   GL211810  21.421  26.347   9.124
  574POPC   C1A11811  21.165  26.183   8.713
  574POPC   D2A11812  21.379  26.341   8.356
  574POPC   C3A11813  21.138  26.149   8.060
  574POPC   C4A11814  21.110  25.876   7.718
  574POPC   C1B11815  21.683  26.286   8.765
  574POPC   C2B11816  21.873  26.136   8.388
  574POPC   C3B11817  21.625  26.006   8.034
  574POPC   C4B11818  21.470  26.217   7.672
  575POPC   NC311819   9.666  33.041   9.429
  575POPC   PO411820   9.974  32.719   8.963
  575POPC   GL111821   9.857  33.171   8.992
  575POPC   GL211822  10.141  33.400   9.070
  575POPC   C1A11823   9.491  33.320   8.812
  575POPC   D2A11824   9.588  33.391   8.396
  575POPC   C3A11825   9.440  33.096   8.132
  575POPC   C4A11826   9.458  33.005   7.709
  575POPC   C1B11827  10.082  33.393   8.589
  575POPC   C2B11828   9.972  33.111   8.200
  575POPC   C3B11829   9.965  33.042   7.746
  575POPC   C4B11830  10.193  33.156   7.305
  576POPC   NC311831  41.247  33.249   9.738
  576POPC   PO411832  41.681  32.786   9.596
  576POPC   GL111833  41.669  32.969   9.217
  576POPC   GL211834  41.312  32.997   9.273
  576POPC   C1A11835  41.668  33.089   8.793
  576POPC   D2A11836  41.393  33.254   8.483
  576POPC   C3A11837  41.593  33.105   8.161
  576POPC   C4A11838  41.564  33.058   7.750
  576POPC   C1B11839  41.208  32.853   8.885
  576POPC   C2B11840  41.073  32.869   8.495
  576POPC   C3B11841  41.146  32.863   8.082
  576POPC   C4B11842  41.108  32.879   7.661
  577POPC   NC311843   9.768  41.660   9.552
  577POPC   PO411844   9.408  41.241   9.440
  577POPC   GL111845   9.634  41.464   9.086
  577POPC   GL211846   9.702  41.822   9.076
  577POPC   C1A11847   9.819  41.514   8.658
  577POPC   D2A11848  10.109  41.671   8.324
  577POPC   C3A11849  10.009  41.598   7.862
  577POPC   C4A11850  10.022  41.508   7.402
  577POPC   C1B11851  10.025  41.982   8.797
  577POPC   C2B11852  10.122  42.178   8.394
  577POPC   C3B11853  10.131  42.097   7.948
  577POPC   C4B11854   9.890  42.004   7.559
  578POPC   NC311855  16.123  21.657   9.512
  578POPC   PO411856  15.622  21.208   9.510
  578POPC   GL111857  15.868  21.329   9.182
  578POPC   GL211858  15.754  21.640   9.134
  578POPC   C1A11859  16.059  21.358   8.784
  578POPC   D2A11860  16.266  21.456   8.404
  578POPC   C3A11861  16.024  21.362   8.037
  578POPC   C4A11862  16.023  21.232   7.645
  578POPC   C1B11863  15.652  21.779   8.748
  578POPC   C2B11864  15.709  21.603   8.349
  578POPC   C3B11865  15.743  21.810   7.964
  578POPC   C4B11866  15.646  21.887   7.538
  579POPC   NC311867   9.629  27.487   9.434
  579POPC   PO411868  10.140  27.830   9.348
  579POPC   GL111869   9.879  27.654   9.009
  579POPC   GL211870   9.765  27.297   8.999
  579POPC   C1A11871   9.527  27.750   8.743
  579POPC   D2A11872   9.386  27.651   8.304
  579POPC   C3A11873   9.673  27.782   7.993
  579POPC   C4A11874   9.842  27.834   7.614
  579POPC   C1B11875   9.580  27.253   8.614
  579POPC   C2B11876   9.779  27.259   8.220
  579POPC   C3B11877   9.780  27.323   7.776
  579POPC   C4B11878   9.864  27.414   7.343
  580POPC   NC311879  42.567  20.965   9.560
  580POPC   PO411880  42.175  20.369   9.483
  580POPC   GL111881  42.324  20.484   9.101
  580POPC   GL211882  42.638  20.638   9.164
  580POPC   C1A11883  42.158  20.494   8.693
  580POPC   D2A11884  42.162  20.234   8.345
  580POPC   C3A11885  42.159  20.465   7.994
  580POPC   C4A11886  42.427  20.530   7.616
  580POPC   C1B11887  42.583  20.777   8.726
  580POPC   C2B11888  42.555  20.617   8.290
  580POPC   C3B11889  42.805  20.763   7.908
  580POPC   C4B11890  42.873  20.782   7.442
  581POPC   NC311891  13.364  15.688   9.509
  581POPC   PO411892  13.796  16.194   9.380
  581POPC   GL111893  13.559  16.186   9.066
  581POPC   GL211894  13.516  15.829   9.034
  581POPC   C1A11895  13.610  16.271   8.638
  581POPC   D2A11896  13.757  16.043   8.272
  581POPC   C3A11897  13.641  16.072   7.822
  581POPC   C4A11898  13.833  16.012   7.392
  581POPC   C1B11899  13.748  15.658   8.695
  581POPC   C2B11900  13.971  15.591   8.335
  581POPC   C3B11901  13.877  15.639   7.907
  581POPC   C4B11902  14.010  15.536   7.488
  582POPC   NC311903  29.807  39.241   9.705
  582POPC   PO411904  30.396  39.395   9.427
  582POPC   GL111905  30.032  39.434   9.176
  582POPC   GL211906  29.705  39.251   9.171
  582POPC   C1A11907  29.882  39.450   8.754
  582POPC   D2A11908  29.916  39.150   8.434
  582POPC   C3A11909  29.956  39.294   8.069
  582POPC   C4A11910  29.880  39.301   7.667
  582POPC   C1B11911  29.662  38.941   8.813
  582POPC   C2B11912  29.445  38.970   8.413
  582POPC   C3B11913  29.540  38.876   7.987
  582POPC   C4B11914  29.446  39.041   7.596
  583POPC   NC311915   9.857   0.761   9.610
  583POPC   PO411916   9.739   1.444   9.561
  583POPC   GL111917   9.702   1.184   9.206
  583POPC   GL211918   9.602   0.849   9.173
  583POPC   C1A11919   9.893   1.119   8.824
  583POPC   D2A11920  10.109   1.177   8.445
  583POPC   C3A11921   9.941   1.331   8.071
  583POPC   C4A11922   9.968   1.668   7.810
  583POPC   C1B11923   9.408   0.749   8.795
  583POPC   C2B11924   9.281   0.993   8.449
  583POPC   C3B11925   9.284   0.959   8.013
  583POPC   C4B11926   9.707   0.937   7.843
  584POPC   NC311927   8.908  20.402   9.999
  584POPC   PO411928   8.960  20.725   9.397
  584POPC   GL111929   8.806  20.685   9.025
  584POPC   GL211930   8.878  20.352   9.037
  584POPC   C1A11931   8.785  20.879   8.655
  584POPC   D2A11932   8.860  20.775   8.227
  584POPC   C3A11933   8.760  20.768   7.805
  584POPC   C4A11934   8.760  20.480   7.434
  584POPC   C1B11935   9.123  20.490   8.661
  584POPC   C2B11936   9.222  20.393   8.240
  584POPC   C3B11937   9.184  20.364   7.779
  584POPC   C4B11938   9.288  20.000   7.546
  585POPC   NC311939  36.198  35.920   9.431
  585POPC   PO411940  36.454  36.482   9.468
  585POPC   GL111941  36.323  36.318   9.079
  585POPC   GL211942  36.386  35.984   8.970
  585POPC   C1A11943  36.390  36.365   8.642
  585POPC   D2A11944  36.400  36.562   8.250
  585POPC   C3A11945  36.168  36.270   8.008
  585POPC   C4A11946  35.757  36.225   7.829
  585POPC   C1B11947  36.024  35.993   8.678
  585POPC   C2B11948  35.904  35.901   8.244
  585POPC   C3B11949  36.097  35.772   7.844
  585POPC   C4B11950  36.245  35.684   7.400
  586POPC   NC311951  14.688  22.540   9.390
  586POPC   PO411952  14.185  22.972   9.558
  586POPC   GL111953  14.247  23.107   9.144
  586POPC   GL211954  14.323  22.766   9.055
  586POPC   C1A11955  14.628  23.188   8.892
  586POPC   D2A11956  14.772  23.201   8.474
  586POPC   C3A11957  14.483  23.058   8.144
  586POPC   C4A11958  14.671  22.786   7.852
  586POPC   C1B11959  14.257  22.934   8.628
  586POPC   C2B11960  14.014  22.785   8.276
  586POPC   C3B11961  14.115  22.748   7.834
  586POPC   C4B11962  14.021  22.510   7.462
  587POPC   NC311963  39.128  29.466   9.763
  587POPC   PO411964  38.891  28.843   9.452
  587POPC   GL111965  38.992  29.034   9.115
  587POPC   GL211966  39.177  29.275   9.231
  587POPC   C1A11967  38.956  29.060   8.690
  587POPC   D2A11968  39.269  28.983   8.396
  587POPC   C3A11969  39.125  29.063   7.980
  587POPC   C4A11970  39.083  28.781   7.623
  587POPC   C1B11971  39.393  29.284   8.812
  587POPC   C2B11972  39.680  29.340   8.454
  587POPC   C3B11973  39.667  29.099   8.076
  587POPC   C4B11974  39.517  29.183   7.646
  588POPC   NC311975   6.838  17.839   9.496
  588POPC   PO411976   6.531  18.486   9.562
  588POPC   GL111977   6.563  18.412   9.155
  588POPC   GL211978   6.507  18.062   9.170
  588POPC   C1A11979   6.694  18.341   8.753
  588POPC   D2A11980   6.663  18.139   8.370
  588POPC   C3A11981   6.473  18.360   8.020
  588POPC   C4A11982   6.713  18.606   7.731
  588POPC   C1B11983   6.316  18.006   8.780
  588POPC   C2B11984   6.257  17.824   8.363
  588POPC   C3B11985   6.484  17.831   8.003
  588POPC   C4B11986   6.431  18.053   7.642
  589POPC   NC311987  12.885  40.412   9.539
  589POPC   PO411988  12.746  39.749   9.416
  589POPC   GL111989  12.842  40.100   9.115
  589POPC   GL211990  12.633  40.432   9.075
  589POPC   C1A11991  12.957  39.942   8.702
  589POPC   D2A11992  13.133  39.765   8.336
  589POPC   C3A11993  13.107  40.030   7.960
  589POPC   C4A11994  12.976  40.087   7.553
  589POPC   C1B11995  12.629  40.329   8.623
  589POPC   C2B11996  12.687  40.016   8.263
  589POPC   C3B11997  12.630  39.809   7.859
  589POPC   C4B11998  12.474  40.146   7.598
  590POPC   NC311999   3.749  21.621   9.544
  590POPC   PO412000   4.393  21.365   9.462
  590POPC   GL112001   4.209  21.194   9.088
  590POPC   GL212002   4.489  21.033   8.986
  590POPC   C1A12003   4.282  21.346   8.641
  590POPC   D2A12004   4.023  21.581   8.332
  590POPC   C3A12005   4.164  21.616   7.899
  590POPC   C4A12006   4.097  21.276   7.613
  590POPC   C1B12007   4.575  20.869   8.586
  590POPC   C2B12008   4.684  21.174   8.334
  590POPC   C3B12009   4.534  21.269   7.963
  590POPC   C4B12010   4.584  21.046   7.630
  591POPC   NC312011  24.589  22.342   9.466
  591POPC   PO412012  24.317  21.680   9.506
  591POPC   GL112013  24.269  22.021   9.168
  591POPC   GL212014  24.152  22.399   9.148
  591POPC   C1A12015  24.425  22.209   8.759
  591POPC   D2A12016  24.434  22.052   8.339
  591POPC   C3A12017  24.685  22.184   7.992
  591POPC   C4A12018  24.543  22.045   7.596
  591POPC   C1B12019  24.273  22.687   8.769
  591POPC   C2B12020  24.471  22.579   8.336
  591POPC   C3B12021  24.283  22.473   7.895
  591POPC   C4B12022  24.363  22.475   7.421
  592POPC   NC312023  32.369  41.111   9.390
  592POPC   PO412024  31.908  41.569   9.483
  592POPC   GL112025  32.174  41.535   9.152
  592POPC   GL212026  31.988  41.229   9.077
  592POPC   C1A12027  32.502  41.507   8.816
  592POPC   D2A12028  32.686  41.592   8.402
  592POPC   C3A12029  32.441  41.427   8.047
  592POPC   C4A12030  32.460  41.570   7.631
  592POPC   C1B12031  32.012  41.368   8.697
  592POPC   C2B12032  32.063  41.200   8.338
  592POPC   C3B12033  31.859  41.289   7.986
  592POPC   C4B12034  31.946  41.572   7.675
  593POPC   NC312035  30.453  17.229   9.560
  593POPC   PO412036  30.896  17.725   9.718
  593POPC   GL112037  30.679  17.634   9.323
  593POPC   GL212038  30.838  17.365   9.170
  593POPC   C1A12039  30.411  17.520   8.923
  593POPC   D2A12040  30.228  17.580   8.477
  593POPC   C3A12041  30.355  17.494   8.034
  593POPC   C4A12042  30.659  17.606   7.728
  593POPC   C1B12043  30.824  17.322   8.701
  593POPC   C2B12044  30.819  17.439   8.269
  593POPC   C3B12045  30.905  17.198   7.875
  593POPC   C4B12046  30.877  17.255   7.407
  594POPC   NC312047  18.024  44.480   9.653
  594POPC   PO412048  17.453  44.795   9.597
  594POPC   GL112049  17.640  44.769   9.201
  594POPC   GL212050  17.569  44.427   9.129
  594POPC   C1A12051  17.794  44.936   8.815
  594POPC   D2A12052  18.005  44.965   8.411
  594POPC   C3A12053  17.857  44.999   7.971
  594POPC   C4A12054  17.846  44.740   7.568
  594POPC   C1B12055  17.450  44.574   8.718
  594POPC   C2B12056  17.603  44.621   8.293
  594POPC   C3B12057  17.440  44.712   7.873
  594POPC   C4B12058  17.370  44.834   7.416
  595POPC   NC312059  14.842  14.997   9.660
  595POPC   PO412060  15.317  15.435   9.652
  595POPC   GL112061  15.168  15.195   9.287
  595POPC   GL212062  14.831  15.177   9.182
  595POPC   C1A12063  15.268  15.292   8.852
  595POPC   D2A12064  15.430  15.202   8.426
  595POPC   C3A12065  15.283  15.021   8.046
  595POPC   C4A12066  15.294  15.371   7.776
  595POPC   C1B12067  14.765  15.371   8.793
  595POPC   C2B12068  15.001  15.490   8.431
  595POPC   C3B12069  14.877  15.463   8.030
  595POPC   C4B12070  14.786  15.107   7.767
  596POPC   NC312071   3.869  18.718   9.495
  596POPC   PO412072   3.215  18.598   9.393
  596POPC   GL112073   3.438  18.224   9.172
  596POPC   GL212074   3.731  18.377   9.117
  596POPC   C1A12075   3.655  18.147   8.693
  596POPC   D2A12076   3.644  18.362   8.286
  596POPC   C3A12077   3.448  18.140   7.930
  596POPC   C4A12078   3.658  17.993   7.542
  596POPC   C1B12079   3.316  18.500   8.789
  596POPC   C2B12080   3.215  18.713   8.453
  596POPC   C3B12081   3.368  18.727   8.050
  596POPC   C4B12082   3.211  18.566   7.687
  597POPC   NC312083  10.550  27.609   9.472
  597POPC   PO412084  11.020  27.124   9.383
  597POPC   GL112085  10.696  27.282   9.117
  597POPC   GL212086  10.292  27.307   9.116
  597POPC   C1A12087  10.657  27.469   8.733
  597POPC   D2A12088  10.546  27.399   8.302
  597POPC   C3A12089  10.601  27.810   8.094
  597POPC   C4A12090  10.583  27.857   7.642
  597POPC   C1B12091  10.152  27.381   8.673
  597POPC   C2B12092  10.062  27.676   8.343
  597POPC   C3B12093  10.176  27.617   7.914
  597POPC   C4B12094  10.357  27.394   7.563
  598POPC   NC312095   6.589   9.527   9.407
  598POPC   PO412096   6.516  10.072   9.805
  598POPC   GL112097   6.459  10.029   9.333
  598POPC   GL212098   6.801   9.927   9.205
  598POPC   C1A12099   6.466  10.000   8.842
  598POPC   D2A12100   6.616  10.255   8.446
  598POPC   C3A12101   6.524  10.066   8.047
  598POPC   C4A12102   6.510   9.618   7.876
  598POPC   C1B12103   6.970   9.925   8.790
  598POPC   C2B12104   6.941   9.862   8.387
  598POPC   C3B12105   7.039   9.959   7.996
  598POPC   C4B12106   7.008   9.569   7.830
  599POPC   NC312107  39.453  37.628   9.391
  599POPC   PO412108  38.919  37.281   9.667
  599POPC   GL112109  38.958  37.497   9.216
  599POPC   GL212110  39.071  37.861   9.161
  599POPC   C1A12111  38.999  37.583   8.765
  599POPC   D2A12112  38.991  37.414   8.375
  599POPC   C3A12113  39.357  37.509   8.166
  599POPC   C4A12114  39.453  37.647   7.781
  599POPC   C1B12115  39.377  37.933   8.761
  599POPC   C2B12116  39.525  38.114   8.329
  599POPC   C3B12117  39.408  38.132   7.885
  599POPC   C4B12118  39.026  38.028   7.653
  600POPC   NC312119  10.031  29.990   9.901
  600POPC   PO412120   9.357  30.094   9.610
  600POPC   GL112121   9.544  29.873   9.243
  600POPC   GL212122   9.879  29.987   9.276
  600POPC   C1A12123   9.587  29.804   8.768
  600POPC   D2A12124   9.936  29.731   8.434
  600POPC   C3A12125   9.800  29.728   8.029
  600POPC   C4A12126   9.436  29.931   7.849
  600POPC   C1B12127   9.693  30.259   8.947
  600POPC   C2B12128   9.571  30.340   8.520
  600POPC   C3B12129   9.751  30.213   8.138
  600POPC   C4B12130   9.910  30.144   7.740
  601POPC   NC312131  19.458  33.919   9.739
  601POPC   PO412132  18.861  33.795   9.437
  601POPC   GL112133  18.968  33.631   9.091
  601POPC   GL212134  18.878  33.943   8.951
  601POPC   C1A12135  18.977  33.471   8.682
  601POPC   D2A12136  19.013  33.698   8.331
  601POPC   C3A12137  18.859  33.615   7.950
  601POPC   C4A12138  19.086  33.767   7.640
  601POPC   C1B12139  18.764  34.073   8.567
  601POPC   C2B12140  19.018  34.202   8.209
  601POPC   C3B12141  19.252  34.225   7.807
  601POPC   C4B12142  19.214  34.131   7.332
  602POPC   NC312143  12.566  24.660   9.497
  602POPC   PO412144  13.070  24.126   9.289
  602POPC   GL112145  12.767  24.318   9.022
  602POPC   GL212146  12.800  24.657   9.047
  602POPC   C1A12147  12.755  24.279   8.545
  602POPC   D2A12148  13.063  24.088   8.252
  602POPC   C3A12149  13.171  24.265   7.858
  602POPC   C4A12150  12.897  24.552   7.674
  602POPC   C1B12151  12.460  24.646   8.775
  602POPC   C2B12152  12.489  24.687   8.359
  602POPC   C3B12153  12.713  24.863   8.020
  602POPC   C4B12154  12.624  24.972   7.591
  603POPC   NC312155  17.117  28.537   9.407
  603POPC   PO412156  16.658  28.040   9.556
  603POPC   GL112157  16.786  28.161   9.172
  603POPC   GL212158  16.867  27.836   9.123
  603POPC   C1A12159  16.789  28.401   8.782
  603POPC   D2A12160  16.652  28.300   8.351
  603POPC   C3A12161  16.877  28.501   7.999
  603POPC   C4A12162  16.661  28.672   7.640
  603POPC   C1B12163  16.673  27.902   8.708
  603POPC   C2B12164  16.892  27.861   8.311
  603POPC   C3B12165  16.743  28.015   7.898
  603POPC   C4B12166  16.981  28.229   7.556
  604POPC   NC312167  14.361  19.242   9.513
  604POPC   PO412168  14.938  19.290   9.316
  604POPC   GL112169  14.617  19.275   9.028
  604POPC   GL212170  14.402  18.995   9.037
  604POPC   C1A12171  14.511  19.261   8.597
  604POPC   D2A12172  14.257  19.004   8.392
  604POPC   C3A12173  14.371  19.119   8.008
  604POPC   C4A12174  14.092  19.121   7.673
  604POPC   C1B12175  14.614  18.774   8.724
  604POPC   C2B12176  14.722  18.814   8.299
  604POPC   C3B12177  14.814  18.869   7.883
  604POPC   C4B12178  14.623  18.982   7.538
  605POPC   NC312179  22.769  35.297   9.573
  605POPC   PO412180  23.168  35.860   9.479
  605POPC   GL112181  22.929  35.582   9.160
  605POPC   GL212182  23.035  35.209   9.140
  605POPC   C1A12183  23.001  35.517   8.731
  605POPC   D2A12184  23.286  35.500   8.412
  605POPC   C3A12185  22.984  35.587   8.116
  605POPC   C4A12186  22.888  35.586   7.714
  605POPC   C1B12187  23.028  34.987   8.735
  605POPC   C2B12188  22.927  35.127   8.299
  605POPC   C3B12189  23.163  35.161   7.885
  605POPC   C4B12190  23.333  35.014   7.466
  606POPC   NC312191  36.764  21.579   9.770
  606POPC   PO412192  37.056  20.948   9.702
  606POPC   GL112193  36.867  21.276   9.312
  606POPC   GL212194  36.677  21.661   9.278
  606POPC   C1A12195  36.772  21.385   8.838
  606POPC   D2A12196  36.847  21.145   8.435
  606POPC   C3A12197  36.843  21.299   8.017
  606POPC   C4A12198  36.852  21.207   7.535
  606POPC   C1B12199  36.415  21.755   8.886
  606POPC   C2B12200  36.498  21.637   8.456
  606POPC   C3B12201  36.384  21.538   8.047
  606POPC   C4B12202  36.677  21.677   7.731
  607POPC   NC312203  29.055  31.868   9.316
  607POPC   PO412204  29.321  31.251   9.497
  607POPC   GL112205  29.109  31.351   9.139
  607POPC   GL212206  28.747  31.461   9.168
  607POPC   C1A12207  29.347  31.502   8.807
  607POPC   D2A12208  29.256  31.423   8.406
  607POPC   C3A12209  29.470  31.637   8.110
  607POPC   C4A12210  29.376  31.638   7.730
  607POPC   C1B12211  28.840  31.550   8.696
  607POPC   C2B12212  28.747  31.523   8.226
  607POPC   C3B12213  28.845  31.630   7.788
  607POPC   C4B12214  28.742  31.966   7.485
  608POPC   NC312215   6.316  42.263   9.479
  608POPC   PO412216   6.771  41.868   9.369
  608POPC   GL112217   6.576  42.161   9.020
  608POPC   GL212218   6.467  42.505   9.058
  608POPC   C1A12219   6.473  42.357   8.585
  608POPC   D2A12220   6.390  42.443   8.156
  608POPC   C3A12221   6.538  42.182   7.806
  608POPC   C4A12222   6.882  42.024   7.527
  608POPC   C1B12223   6.724  42.783   8.761
  608POPC   C2B12224   6.647  42.881   8.334
  608POPC   C3B12225   6.617  42.787   7.870
  608POPC   C4B12226   6.776  42.540   7.496
  609POPC   NC312227   4.705  18.539   9.255
  609POPC   PO412228   4.066  18.195   9.521
  609POPC   GL112229   4.172  18.091   9.154
  609POPC   GL212230   4.492  18.032   9.215
  609POPC   C1A12231   4.192  18.372   8.811
  609POPC   D2A12232   4.393  18.583   8.465
  609POPC   C3A12233   4.303  18.320   8.099
  609POPC   C4A12234   3.945  18.290   7.829
  609POPC   C1B12235   4.567  17.966   8.795
  609POPC   C2B12236   4.468  17.828   8.372
  609POPC   C3B12237   4.634  17.775   7.992
  609POPC   C4B12238   4.597  18.050   7.730
  610POPC   NC312239  18.015  42.482   9.385
  610POPC   PO412240  18.586  42.225   9.406
  610POPC   GL112241  18.212  42.106   9.104
  610POPC   GL212242  18.269  42.390   8.959
  610POPC   C1A12243  18.029  42.022   8.704
  610POPC   D2A12244  18.257  42.330   8.467
  610POPC   C3A12245  18.233  42.355   8.061
  610POPC   C4A12246  18.471  42.310   7.740
  610POPC   C1B12247  18.147  42.769   8.746
  610POPC   C2B12248  17.953  42.725   8.324
  610POPC   C3B12249  18.080  42.849   7.944
  610POPC   C4B12250  18.125  42.629   7.592
  611POPC   NC312251  40.347  40.565   9.546
  611POPC   PO412252  39.711  40.828   9.544
  611POPC   GL112253  39.853  40.826   9.149
  611POPC   GL212254  40.033  40.513   9.128
  611POPC   C1A12255  39.867  40.915   8.725
  611POPC   D2A12256  39.964  40.576   8.513
  611POPC   C3A12257  39.914  40.458   8.144
  611POPC   C4A12258  39.904  40.500   7.771
  611POPC   C1B12259  40.341  40.800   8.911
  611POPC   C2B12260  40.479  40.792   8.493
  611POPC   C3B12261  40.320  40.781   8.038
  611POPC   C4B12262  40.396  40.742   7.567
  612POPC   NC312263   6.170  14.893   9.472
  612POPC   PO412264   5.568  15.037   9.300
  612POPC   GL112265   5.947  15.058   9.038
  612POPC   GL212266   6.142  15.359   9.069
  612POPC   C1A12267   6.017  15.108   8.604
  612POPC   D2A12268   5.937  14.905   8.229
  612POPC   C3A12269   5.562  15.006   7.981
  612POPC   C4A12270   5.651  15.298   7.680
  612POPC   C1B12271   6.038  15.608   8.716
  612POPC   C2B12272   6.012  15.833   8.339
  612POPC   C3B12273   5.889  15.573   8.050
  612POPC   C4B12274   6.127  15.261   7.862
  613POPC   NC312275  31.345  36.319   9.548
  613POPC   PO412276  31.822  35.923   9.377
  613POPC   GL112277  31.551  36.147   9.074
  613POPC   GL212278  31.249  35.953   9.193
  613POPC   C1A12279  31.590  36.386   8.654
  613POPC   D2A12280  31.525  36.439   8.187
  613POPC   C3A12281  31.811  36.288   7.883
  613POPC   C4A12282  31.893  35.887   7.691
  613POPC   C1B12283  31.190  35.877   8.765
  613POPC   C2B12284  31.471  35.930   8.463
  613POPC   C3B12285  31.514  35.914   8.062
  613POPC   C4B12286  31.316  36.187   7.775
  614POPC   NC312287  38.104  22.909   9.284
  614POPC   PO412288  38.557  23.163   9.681
  614POPC   GL112289  38.596  22.872   9.201
  614POPC   GL212290  38.418  23.107   8.938
  614POPC   C1A12291  38.759  22.843   8.680
  614POPC   D2A12292  38.494  23.064   8.356
  614POPC   C3A12293  38.558  23.040   7.918
  614POPC   C4A12294  38.803  22.758   7.671
  614POPC   C1B12295  38.289  22.688   8.741
  614POPC   C2B12296  38.195  22.622   8.367
  614POPC   C3B12297  38.084  22.865   8.000
  614POPC   C4B12298  38.268  22.805   7.577
  615POPC   NC312299   6.240  18.106   9.625
  615POPC   PO412300   5.904  18.663   9.551
  615POPC   GL112301   6.049  18.374   9.217
  615POPC   GL212302   5.984  18.007   9.201
  615POPC   C1A12303   5.930  18.359   8.787
  615POPC   D2A12304   6.163  18.347   8.420
  615POPC   C3A12305   5.993  18.533   8.052
  615POPC   C4A12306   6.180  18.518   7.617
  615POPC   C1B12307   5.852  17.843   8.822
  615POPC   C2B12308   5.782  18.000   8.404
  615POPC   C3B12309   5.983  18.010   7.965
  615POPC   C4B12310   5.954  17.932   7.508
  616POPC   NC312311  18.157   6.154   9.407
  616POPC   PO412312  18.497   5.616   9.533
  616POPC   GL112313  18.319   5.751   9.108
  616POPC   GL212314  17.970   5.739   9.169
  616POPC   C1A12315  18.129   5.957   8.701
  616POPC   D2A12316  17.984   5.900   8.234
  616POPC   C3A12317  18.208   6.079   7.867
  616POPC   C4A12318  18.420   6.053   7.442
  616POPC   C1B12319  17.890   5.468   8.832
  616POPC   C2B12320  17.771   5.404   8.409
  616POPC   C3B12321  18.055   5.408   8.078
  616POPC   C4B12322  18.291   5.316   7.732
  617POPC   NC312323  20.691  29.445   9.502
  617POPC   PO412324  20.964  28.848   9.301
  617POPC   GL112325  20.637  29.075   9.093
  617POPC   GL212326  20.674  29.370   9.007
  617POPC   C1A12327  20.469  28.967   8.703
  617POPC   D2A12328  20.357  29.093   8.264
  617POPC   C3A12329  20.694  29.030   8.027
  617POPC   C4A12330  20.657  28.834   7.635
  617POPC   C1B12331  20.825  29.682   8.729
  617POPC   C2B12332  21.022  29.634   8.346
  617POPC   C3B12333  20.954  29.490   7.941
  617POPC   C4B12334  20.672  29.347   7.642
  618POPC   NC312335  14.410  21.643   9.734
  618POPC   PO412336  14.479  22.154   9.277
  618POPC   GL112337  14.497  22.081   8.904
  618POPC   GL212338  14.182  21.948   8.856
  618POPC   C1A12339  14.731  21.884   8.643
  618POPC   D2A12340  14.948  21.872   8.311
  618POPC   C3A12341  14.625  21.961   8.068
  618POPC   C4A12342  14.621  21.922   7.659
  618POPC   C1B12343  14.211  22.396   8.630
  618POPC   C2B12344  14.457  22.530   8.251
  618POPC   C3B12345  14.409  22.355   7.833
  618POPC   C4B12346  14.130  22.043   7.747
  619POPC   NC312347   0.136  17.699   9.489
  619POPC   PO412348   0.530  17.244   9.542
  619POPC   GL112349   0.489  17.473   9.123
  619POPC   GL212350   0.224  17.723   9.020
  619POPC   C1A12351   0.562  17.491   8.705
  619POPC   D2A12352   0.763  17.554   8.344
  619POPC   C3A12353   0.457  17.381   8.070
  619POPC   C4A12354   0.561  17.249   7.661
  619POPC   C1B12355   0.229  17.887   8.706
  619POPC   C2B12356   0.151  17.671   8.412
  619POPC   C3B12357   0.030  17.719   8.039
  619POPC   C4B12358   0.236  17.651   7.665
  620POPC   NC312359  42.415  16.911   9.532
  620POPC   PO412360  42.223  17.546   9.554
  620POPC   GL112361  42.452  17.590   9.201
  620POPC   GL212362  42.604  17.257   9.175
  620POPC   C1A12363  42.409  17.722   8.778
  620POPC   D2A12364  42.608  17.613   8.396
  620POPC   C3A12365  42.400  17.568   7.998
  620POPC   C4A12366  42.405  17.518   7.545
  620POPC   C1B12367  42.510  17.200   8.720
  620POPC   C2B12368  42.447  17.143   8.263
  620POPC   C3B12369  42.480  17.079   7.816
  620POPC   C4B12370  42.760  17.065   7.450
  621POPC   NC312371  40.430   0.715   9.266
  621POPC   PO412372  40.813   0.237   9.489
  621POPC   GL112373  40.827   0.370   9.059
  621POPC   GL212374  40.948   0.707   9.046
  621POPC   C1A12375  40.962   0.271   8.628
  621POPC   D2A12376  40.745   0.041   8.251
  621POPC   C3A12377  40.353   0.246   8.196
  621POPC   C4A12378  40.388   0.588   7.896
  621POPC   C1B12379  40.700   0.744   8.643
  621POPC   C2B12380  40.773   0.563   8.245
  621POPC   C3B12381  40.983   0.609   7.872
  621POPC   C4B12382  41.083   0.722   7.436
  622POPC   NC312383  32.627  32.063   9.288
  622POPC   PO412384  31.954  32.076   9.678
  622POPC   GL112385  32.058  32.190   9.237
  622POPC   GL212386  32.295  32.402   9.116
  622POPC   C1A12387  32.016  32.189   8.754
  622POPC   D2A12388  32.016  31.974   8.357
  622POPC   C3A12389  32.174  32.257   8.082
  622POPC   C4A12390  32.111  32.489   7.725
  622POPC   C1B12391  32.491  32.419   8.697
  622POPC   C2B12392  32.521  32.643   8.293
  622POPC   C3B12393  32.591  32.497   7.874
  622POPC   C4B12394  32.529  32.454   7.397
  623POPC   NC312395  27.362  15.942   9.591
  623POPC   PO412396  27.917  16.236   9.538
  623POPC   GL112397  27.613  16.198   9.204
  623POPC   GL212398  27.513  15.876   9.097
  623POPC   C1A12399  27.478  16.295   8.791
  623POPC   D2A12400  27.288  16.138   8.431
  623POPC   C3A12401  27.440  15.942   8.078
  623POPC   C4A12402  27.199  15.752   7.742
  623POPC   C1B12403  27.864  15.988   8.779
  623POPC   C2B12404  27.929  16.202   8.365
  623POPC   C3B12405  27.935  15.994   7.934
  623POPC   C4B12406  27.752  15.585   7.815
  624POPC   NC312407  11.005   1.433   9.459
  624POPC   PO412408  11.496   0.955   9.483
  624POPC   GL112409  11.279   1.099   9.155
  624POPC   GL212410  10.966   0.964   9.242
  624POPC   C1A12411  11.394   1.216   8.731
  624POPC   D2A12412  11.764   1.264   8.437
  624POPC   C3A12413  11.615   1.370   8.007
  624POPC   C4A12414  11.462   1.050   7.725
  624POPC   C1B12415  10.857   1.119   8.819
  624POPC   C2B12416  10.987   1.184   8.384
  624POPC   C3B12417  10.911   1.479   8.053
  624POPC   C4B12418  11.194   1.474   7.720
  625POPC   NC312419   4.739  29.436   9.426
  625POPC   PO412420   4.862  28.746   9.505
  625POPC   GL112421   5.046  28.992   9.171
  625POPC   GL212422   5.184  29.316   9.163
  625POPC   C1A12423   5.191  28.967   8.755
  625POPC   D2A12424   4.996  29.019   8.359
  625POPC   C3A12425   5.139  28.906   7.954
  625POPC   C4A12426   4.851  28.882   7.607
  625POPC   C1B12427   5.402  29.452   8.775
  625POPC   C2B12428   5.346  29.382   8.312
  625POPC   C3B12429   5.082  29.422   7.930
  625POPC   C4B12430   5.093  29.319   7.503
  626POPC   NC312431  18.450   0.277   9.583
  626POPC   PO412432  18.107   0.728   9.266
  626POPC   GL112433  18.381   0.527   8.996
  626POPC   GL212434  18.542   0.211   9.090
  626POPC   C1A12435  18.350   0.611   8.564
  626POPC   D2A12436  18.027   0.473   8.288
  626POPC   C3A12437  18.156   0.464   7.892
  626POPC   C4A12438  18.237   0.565   7.434
  626POPC   C1B12439  18.690   0.231   8.674
  626POPC   C2B12440  18.559   0.259   8.224
  626POPC   C3B12441  18.669   0.086   7.798
  626POPC   C4B12442  18.626   0.246   7.344
  627POPC   NC312443  20.212   7.851   9.851
  627POPC   PO412444  19.640   7.741   9.603
  627POPC   GL112445  19.729   7.506   9.199
  627POPC   GL212446  19.515   7.230   9.076
  627POPC   C1A12447  19.774   7.528   8.730
  627POPC   D2A12448  20.007   7.582   8.340
  627POPC   C3A12449  19.841   7.491   7.935
  627POPC   C4A12450  19.746   7.483   7.517
  627POPC   C1B12451  19.620   7.048   8.637
  627POPC   C2B12452  19.890   7.076   8.253
  627POPC   C3B12453  19.877   6.982   7.806
  627POPC   C4B12454  19.641   6.639   7.625
  628POPC   NC312455  19.669  42.422   9.390
  628POPC   PO412456  19.745  41.842   9.679
  628POPC   GL112457  20.073  42.084   9.261
  628POPC   GL212458  20.123  42.406   9.122
  628POPC   C1A12459  19.971  42.094   8.735
  628POPC   D2A12460  19.592  42.012   8.431
  628POPC   C3A12461  19.519  42.217   8.012
  628POPC   C4A12462  19.768  42.211   7.641
  628POPC   C1B12463  20.285  42.470   8.724
  628POPC   C2B12464  20.354  42.338   8.326
  628POPC   C3B12465  20.153  42.251   7.984
  628POPC   C4B12466  20.119  42.584   7.711
  629POPC   NC312467   2.133  44.406   9.487
  629POPC   PO412468   2.172   0.042   9.383
  629POPC   GL112469   1.998  44.775   9.001
  629POPC   GL212470   2.055  44.394   9.000
  629POPC   C1A12471   1.731  44.548   8.668
  629POPC   D2A12472   1.710  44.346   8.281
  629POPC   C3A12473   1.850  44.654   7.980
  629POPC   C4A12474   1.878   0.104   7.898
  629POPC   C1B12475   2.181  44.167   8.630
  629POPC   C2B12476   2.270  44.192   8.173
  629POPC   C3B12477   2.231  44.386   7.772
  629POPC   C4B12478   2.549  44.508   7.441
  630POPC   NC312479  14.670  20.720   9.451
  630POPC   PO412480  14.050  20.478   9.382
  630POPC   GL112481  14.372  20.480   9.080
  630POPC   GL212482  14.246  20.136   9.025
  630POPC   C1A12483  14.523  20.782   8.749
  630POPC   D2A12484  14.312  21.044   8.413
  630POPC   C3A12485  14.441  20.875   8.002
  630POPC   C4A12486  14.715  20.553   7.791
  630POPC   C1B12487  14.044  20.374   8.703
  630POPC   C2B12488  14.283  20.508   8.357
  630POPC   C3B12489  14.326  20.286   7.985
  630POPC   C4B12490  14.139  20.132   7.632
  631POPC   NC312491  18.345   1.049   9.477
  631POPC   PO412492  17.866   1.514   9.356
  631POPC   GL112493  18.104   1.290   9.093
  631POPC   GL212494  18.453   1.380   9.095
  631POPC   C1A12495  18.081   1.104   8.705
  631POPC   D2A12496  17.923   1.275   8.345
  631POPC   C3A12497  17.892   0.939   8.082
  631POPC   C4A12498  18.218   0.964   7.760
  631POPC   C1B12499  18.588   1.172   8.696
  631POPC   C2B12500  18.406   1.043   8.267
  631POPC   C3B12501  18.656   1.166   7.887
  631POPC   C4B12502  18.484   1.309   7.471
  632POPC   NC312503  37.465  16.947   9.574
  632POPC   PO412504  38.024  16.739   9.446
  632POPC   GL112505  37.688  16.944   9.107
  632POPC   GL212506  37.336  17.113   9.100
  632POPC   C1A12507  37.523  16.884   8.655
  632POPC   D2A12508  37.735  17.032   8.256
  632POPC   C3A12509  37.845  16.686   7.923
  632POPC   C4A12510  37.920  16.369   7.569
  632POPC   C1B12511  37.206  17.322   8.703
  632POPC   C2B12512  37.203  17.112   8.282
  632POPC   C3B12513  37.383  16.896   7.896
  632POPC   C4B12514  37.305  16.954   7.450
  633POPC   NC312515   0.214  42.966   9.478
  633POPC   PO412516   0.950  43.041   9.392
  633POPC   GL112517   0.569  43.193   9.185
  633POPC   GL212518   0.184  43.316   9.141
  633POPC   C1A12519   0.524  43.084   8.774
  633POPC   D2A12520   0.767  42.972   8.419
  633POPC   C3A12521   0.693  43.212   8.036
  633POPC   C4A12522   0.625  42.905   7.687
  633POPC   C1B12523   0.034  43.167   8.748
  633POPC   C2B12524   0.254  43.270   8.345
  633POPC   C3B12525   0.067  43.193   7.942
  633POPC   C4B12526   0.040  43.018   7.532
  634POPC   NC312527  22.431  41.602   9.696
  634POPC   PO412528  23.051  41.427   9.650
  634POPC   GL112529  22.802  41.383   9.291
  634POPC   GL212530  22.692  41.684   9.178
  634POPC   C1A12531  22.990  41.383   8.868
  634POPC   D2A12532  23.059  41.656   8.486
  634POPC   C3A12533  23.031  41.494   8.064
  634POPC   C4A12534  22.993  41.714   7.661
  634POPC   C1B12535  22.558  41.589   8.744
  634POPC   C2B12536  22.624  41.325   8.377
  634POPC   C3B12537  22.548  41.311   7.933
  634POPC   C4B12538  22.294  41.613   7.748
  635POPC   NC312539  15.610  43.072   9.577
  635POPC   PO412540  16.229  43.278   9.496
  635POPC   GL112541  15.995  43.029   9.224
  635POPC   GL212542  15.788  43.307   9.154
  635POPC   C1A12543  15.775  42.880   8.850
  635POPC   D2A12544  15.931  42.910   8.430
  635POPC   C3A12545  15.706  42.990   8.043
  635POPC   C4A12546  15.987  42.860   7.708
  635POPC   C1B12547  16.011  43.330   8.785
  635POPC   C2B12548  15.933  43.415   8.393
  635POPC   C3B12549  16.125  43.264   8.031
  635POPC   C4B12550  15.958  43.355   7.648
  636POPC   NC312551  22.747  21.371   9.649
  636POPC   PO412552  22.878  20.807   9.380
  636POPC   GL112553  22.816  21.154   9.149
  636POPC   GL212554  23.154  21.251   9.144
  636POPC   C1A12555  22.821  21.440   8.779
  636POPC   D2A12556  22.878  21.684   8.388
  636POPC   C3A12557  22.775  21.426   8.023
  636POPC   C4A12558  23.045  21.500   7.708
  636POPC   C1B12559  23.090  20.991   8.746
  636POPC   C2B12560  23.021  21.143   8.361
  636POPC   C3B12561  23.237  21.127   7.979
  636POPC   C4B12562  23.459  21.198   7.562
  637POPC   NC312563  10.649  29.386   9.595
  637POPC   PO412564  10.361  28.788   9.530
  637POPC   GL112565  10.318  29.117   9.197
  637POPC   GL212566  10.607  29.331   9.109
  637POPC   C1A12567  10.425  28.984   8.777
  637POPC   D2A12568  10.649  29.011   8.399
  637POPC   C3A12569  10.461  28.841   8.038
  637POPC   C4A12570  10.326  29.012   7.661
  637POPC   C1B12571  10.428  29.507   8.768
  637POPC   C2B12572  10.479  29.578   8.357
  637POPC   C3B12573  10.597  29.356   8.020
  637POPC   C4B12574  10.609  29.426   7.604
  638POPC   NC312575  23.297  13.508   9.418
  638POPC   PO412576  22.632  13.615   9.494
  638POPC   GL112577  22.787  13.821   9.112
  638POPC   GL212578  23.136  13.857   9.097
  638POPC   C1A12579  22.896  13.610   8.709
  638POPC   D2A12580  22.842  13.348   8.324
  638POPC   C3A12581  22.809  13.550   7.931
  638POPC   C4A12582  23.115  13.413   7.652
  638POPC   C1B12583  23.334  13.856   8.708
  638POPC   C2B12584  23.311  13.593   8.373
  638POPC   C3B12585  23.250  13.777   7.994
  638POPC   C4B12586  23.500  13.808   7.658
  639POPC   NC312587  22.538  16.086   9.533
  639POPC   PO412588  23.159  16.087   9.707
  639POPC   GL112589  23.091  15.998   9.280
  639POPC   GL212590  23.079  15.622   9.226
  639POPC   C1A12591  22.875  16.147   8.926
  639POPC   D2A12592  22.829  16.079   8.490
  639POPC   C3A12593  22.944  16.347   8.140
  639POPC   C4A12594  22.878  16.229   7.699
  639POPC   C1B12595  22.993  15.636   8.787
  639POPC   C2B12596  23.181  15.733   8.385
  639POPC   C3B12597  22.932  15.826   8.025
  639POPC   C4B12598  22.729  15.560   7.716
  640POPC   NC312599  17.202  21.120   9.501
  640POPC   PO412600  16.562  21.420   9.504
  640POPC   GL112601  16.518  21.282   9.103
  640POPC   GL212602  16.777  21.005   9.157
  640POPC   C1A12603  16.606  21.162   8.695
  640POPC   D2A12604  16.782  21.360   8.355
  640POPC   C3A12605  16.534  21.367   7.959
  640POPC   C4A12606  16.494  21.409   7.516
  640POPC   C1B12607  17.107  21.066   8.835
  640POPC   C2B12608  17.065  20.929   8.414
  640POPC   C3B12609  16.869  20.982   8.042
  640POPC   C4B12610  16.903  21.118   7.656
  641POPC   NC312611   2.586   9.266   9.351
  641POPC   PO412612   2.779   9.873   9.659
  641POPC   GL112613   2.745   9.838   9.235
  641POPC   GL212614   2.736  10.166   9.115
  641POPC   C1A12615   2.756   9.653   8.815
  641POPC   D2A12616   2.809   9.465   8.407
  641POPC   C3A12617   2.536   9.687   8.111
  641POPC   C4A12618   2.554   9.991   7.762
  641POPC   C1B12619   3.107  10.032   8.893
  641POPC   C2B12620   3.089   9.894   8.484
  641POPC   C3B12621   2.935  10.037   8.109
  641POPC   C4B12622   3.012  10.261   7.719
  642POPC   NC312623  13.652  21.657   9.790
  642POPC   PO412624  13.382  21.222   9.343
  642POPC   GL112625  13.616  21.367   9.028
  642POPC   GL212626  13.746  21.702   9.024
  642POPC   C1A12627  13.542  21.443   8.616
  642POPC   D2A12628  13.777  21.572   8.263
  642POPC   C3A12629  13.746  21.322   7.905
  642POPC   C4A12630  13.469  21.306   7.562
  642POPC   C1B12631  13.406  21.900   8.756
  642POPC   C2B12632  13.289  21.827   8.317
  642POPC   C3B12633  13.476  21.822   7.899
  642POPC   C4B12634  13.786  21.702   7.583
  643POPC   NC312635  40.208  38.985   9.389
  643POPC   PO412636  39.558  39.190   9.459
  643POPC   GL112637  39.816  39.244   9.107
  643POPC   GL212638  40.098  39.437   9.101
  643POPC   C1A12639  39.901  39.044   8.698
  643POPC   D2A12640  40.231  38.938   8.418
  643POPC   C3A12641  40.211  39.100   8.015
  643POPC   C4A12642  39.768  39.071   7.903
  643POPC   C1B12643  40.293  39.375   8.708
  643POPC   C2B12644  40.045  39.479   8.345
  643POPC   C3B12645  39.975  39.530   7.903
  643POPC   C4B12646  40.089  39.529   7.499
  644POPC   NC312647  17.479  39.924   9.477
  644POPC   PO412648  17.905  40.447   9.290
  644POPC   GL112649  17.664  40.110   9.037
  644POPC   GL212650  17.750  39.743   9.101
  644POPC   C1A12651  17.614  39.949   8.600
  644POPC   D2A12652  17.259  39.832   8.358
  644POPC   C3A12653  17.247  40.060   7.989
  644POPC   C4A12654  17.208  40.152   7.541
  644POPC   C1B12655  17.951  39.616   8.765
  644POPC   C2B12656  17.986  39.598   8.328
  644POPC   C3B12657  17.811  39.940   8.083
  644POPC   C4B12658  17.642  39.895   7.684
  645POPC   NC312659   8.913  14.735   9.447
  645POPC   PO412660   8.816  14.106   9.586
  645POPC   GL112661   8.953  14.121   9.117
  645POPC   GL212662   8.934  14.483   9.004
  645POPC   C1A12663   8.870  14.125   8.664
  645POPC   D2A12664   8.824  14.464   8.364
  645POPC   C3A12665   8.922  14.271   7.973
  645POPC   C4A12666   9.269  14.216   7.704
  645POPC   C1B12667   9.282  14.472   8.698
  645POPC   C2B12668   9.395  14.618   8.291
  645POPC   C3B12669   9.217  14.711   7.888
  645POPC   C4B12670   9.252  14.625   7.392
  646POPC   NC312671  41.451  16.791   9.555
  646POPC   PO412672  42.054  16.626   9.562
  646POPC   GL112673  41.897  16.933   9.223
  646POPC   GL212674  41.694  16.670   9.087
  646POPC   C1A12675  41.689  17.071   8.780
  646POPC   D2A12676  41.571  16.791   8.429
  646POPC   C3A12677  41.570  16.929   7.977
  646POPC   C4A12678  41.301  16.757   7.647
  646POPC   C1B12679  42.006  16.689   8.723
  646POPC   C2B12680  42.053  16.835   8.276
  646POPC   C3B12681  42.032  16.814   7.805
  646POPC   C4B12682  41.793  16.496   7.524
  647POPC   NC312683  23.320  36.442   9.494
  647POPC   PO412684  23.961  36.107   9.494
  647POPC   GL112685  23.755  36.099   9.087
  647POPC   GL212686  23.561  36.414   9.032
  647POPC   C1A12687  23.789  36.175   8.640
  647POPC   D2A12688  23.657  35.951   8.281
  647POPC   C3A12689  23.756  36.166   7.917
  647POPC   C4A12690  23.758  35.972   7.533
  647POPC   C1B12691  23.341  36.455   8.632
  647POPC   C2B12692  23.363  36.412   8.177
  647POPC   C3B12693  23.344  36.397   7.707
  647POPC   C4B12694  23.580  36.379   7.298
  648POPC   NC312695  12.911  35.655   9.588
  648POPC   PO412696  12.927  35.011   9.541
  648POPC   GL112697  12.761  35.278   9.217
  648POPC   GL212698  13.077  35.450   9.156
  648POPC   C1A12699  12.558  35.432   8.817
  648POPC   D2A12700  12.749  35.482   8.390
  648POPC   C3A12701  12.555  35.522   7.974
  648POPC   C4A12702  12.882  35.450   7.680
  648POPC   C1B12703  13.067  35.257   8.779
  648POPC   C2B12704  13.236  35.359   8.398
  648POPC   C3B12705  13.275  35.232   8.009
  648POPC   C4B12706  13.380  35.515   7.736
  649POPC   NC312707  43.959   8.036   9.936
  649POPC   PO412708  43.813   8.588   9.581
  649POPC   GL112709  44.019   8.423   9.223
  649POPC   GL212710  44.005   8.047   9.228
  649POPC   C1A12711  44.189   8.348   8.799
  649POPC   D2A12712  44.193   8.162   8.358
  649POPC   C3A12713  44.129   8.437   7.958
  649POPC   C4A12714  44.094   8.693   7.568
  649POPC   C1B12715  43.923   7.903   8.823
  649POPC   C2B12716  43.708   7.995   8.449
  649POPC   C3B12717  43.821   7.985   8.010
  649POPC   C4B12718  43.605   7.820   7.663
  650POPC   NC312719  25.062  13.064   9.538
  650POPC   PO412720  25.578  12.691   9.731
  650POPC   GL112721  25.552  12.732   9.266
  650POPC   GL212722  25.205  12.634   9.195
  650POPC   C1A12723  25.505  12.680   8.794
  650POPC   D2A12724  25.250  12.605   8.432
  650POPC   C3A12725  25.449  12.480   8.045
  650POPC   C4A12726  25.571  12.862   7.813
  650POPC   C1B12727  24.891  12.584   8.844
  650POPC   C2B12728  24.810  12.316   8.459
  650POPC   C3B12729  24.932  12.413   8.027
  650POPC   C4B12730  25.065  12.746   7.813
  651POPC   NC312731  22.856   1.534   9.493
  651POPC   PO412732  23.086   0.923   9.590
  651POPC   GL112733  23.052   1.119   9.198
  651POPC   GL212734  22.725   1.189   9.069
  651POPC   C1A12735  23.234   1.053   8.789
  651POPC   D2A12736  22.983   0.910   8.443
  651POPC   C3A12737  23.079   1.095   8.090
  651POPC   C4A12738  22.848   1.076   7.748
  651POPC   C1B12739  22.860   1.375   8.676
  651POPC   C2B12740  22.906   1.546   8.251
  651POPC   C3B12741  22.644   1.538   7.855
  651POPC   C4B12742  22.610   1.393   7.411
  652POPC   NC312743   8.617  37.152   9.824
  652POPC   PO412744   8.812  36.699   9.571
  652POPC   GL112745   9.039  36.700   9.153
  652POPC   GL212746   9.251  36.368   9.150
  652POPC   C1A12747   8.860  36.786   8.695
  652POPC   D2A12748   8.851  36.834   8.215
  652POPC   C3A12749   8.637  36.686   7.808
  652POPC   C4A12750   8.559  36.792   7.330
  652POPC   C1B12751   9.246  36.457   8.727
  652POPC   C2B12752   9.261  36.549   8.312
  652POPC   C3B12753   9.166  36.590   7.862
  652POPC   C4B12754   9.049  36.897   7.533
  653POPC   NC312755  44.129   2.652   9.399
  653POPC   PO412756  43.742   3.180   9.547
  653POPC   GL112757  43.758   2.886   9.194
  653POPC   GL212758  44.070   3.047   9.056
  653POPC   C1A12759  43.927   2.636   8.789
  653POPC   D2A12760  44.144   2.643   8.390
  653POPC   C3A12761  43.946   2.581   7.990
  653POPC   C4A12762  44.080   2.856   7.654
  653POPC   C1B12763  43.662   3.079   8.755
  653POPC   C2B12764  43.700   2.911   8.386
  653POPC   C3B12765  43.895   3.085   8.075
  653POPC   C4B12766  43.607   2.987   7.798
  654POPC   NC312767  38.277   0.430   9.633
  654POPC   PO412768  38.902   0.351   9.630
  654POPC   GL112769  38.678   0.452   9.249
  654POPC   GL212770  38.517   0.129   9.136
  654POPC   C1A12771  38.571   0.499   8.789
  654POPC   D2A12772  38.528   0.279   8.393
  654POPC   C3A12773  38.654   0.427   8.009
  654POPC   C4A12774  38.433   0.726   7.804
  654POPC   C1B12775  38.218   0.119   8.789
  654POPC   C2B12776  38.170  44.919   8.392
  654POPC   C3B12777  38.188  44.925   7.986
  654POPC   C4B12778  38.342   0.147   7.670
  655POPC   NC312779  27.158  17.758   9.437
  655POPC   PO412780  27.796  17.846   9.619
  655POPC   GL112781  27.931  17.784   9.222
  655POPC   GL212782  27.701  17.480   9.147
  655POPC   C1A12783  28.015  17.703   8.831
  655POPC   D2A12784  27.727  17.551   8.521
  655POPC   C3A12785  27.783  17.762   8.130
  655POPC   C4A12786  28.010  17.778   7.756
  655POPC   C1B12787  27.461  17.201   8.848
  655POPC   C2B12788  27.416  17.143   8.390
  655POPC   C3B12789  27.467  17.374   8.022
  655POPC   C4B12790  27.707  17.363   7.648
  656POPC   NC312791   4.961  23.023   9.647
  656POPC   PO412792   5.417  22.710   9.626
  656POPC   GL112793   5.283  22.888   9.206
  656POPC   GL212794   4.960  22.746   9.125
  656POPC   C1A12795   5.135  23.087   8.787
  656POPC   D2A12796   4.883  23.013   8.395
  656POPC   C3A12797   5.026  23.046   7.944
  656POPC   C4A12798   5.005  23.210   7.491
  656POPC   C1B12799   5.114  22.592   8.685
  656POPC   C2B12800   5.271  22.678   8.251
  656POPC   C3B12801   5.111  22.540   7.841
  656POPC   C4B12802   5.205  22.447   7.382
  657POPC   NC312803  34.845  13.879   9.475
  657POPC   PO412804  34.805  13.193   9.298
  657POPC   GL112805  34.635  13.541   9.142
  657POPC   GL212806  34.320  13.696   9.192
  657POPC   C1A12807  34.591  13.572   8.729
  657POPC   D2A12808  34.342  13.388   8.407
  657POPC   C3A12809  34.592  13.402   8.056
  657POPC   C4A12810  34.549  13.452   7.639
  657POPC   C1B12811  34.385  14.014   8.818
  657POPC   C2B12812  34.538  13.940   8.361
  657POPC   C3B12813  34.467  13.900   7.895
  657POPC   C4B12814  34.216  13.841   7.496
  658POPC   NC312815  13.474  14.030   9.585
  658POPC   PO412816  13.665  14.653   9.650
  658POPC   GL112817  13.692  14.437   9.249
  658POPC   GL212818  13.414  14.297   9.174
  658POPC   C1A12819  13.785  14.283   8.807
  658POPC   D2A12820  13.757  14.013   8.438
  658POPC   C3A12821  13.766  14.262   8.067
  658POPC   C4A12822  13.555  14.444   7.716
  658POPC   C1B12823  13.288  14.485   8.832
  658POPC   C2B12824  13.439  14.470   8.435
  658POPC   C3B12825  13.212  14.493   8.064
  658POPC   C4B12826  13.049  14.384   7.688
  659POPC   NC312827   7.814  33.531   9.448
  659POPC   PO412828   7.203  33.906   9.536
  659POPC   GL112829   7.357  33.943   9.100
  659POPC   GL212830   7.507  33.616   9.062
  659POPC   C1A12831   7.549  33.942   8.663
  659POPC   D2A12832   7.578  33.782   8.255
  659POPC   C3A12833   7.650  34.001   7.887
  659POPC   C4A12834   7.537  33.736   7.502
  659POPC   C1B12835   7.151  33.588   8.781
  659POPC   C2B12836   7.051  33.697   8.357
  659POPC   C3B12837   7.088  33.467   7.974
  659POPC   C4B12838   6.690  33.416   7.763
  660POPC   NC312839  25.821  31.189   9.360
  660POPC   PO412840  26.328  31.587   9.721
  660POPC   GL112841  26.234  31.481   9.248
  660POPC   GL212842  25.917  31.629   9.099
  660POPC   C1A12843  26.234  31.400   8.781
  660POPC   D2A12844  25.981  31.578   8.441
  660POPC   C3A12845  26.123  31.449   8.068
  660POPC   C4A12846  26.337  31.715   7.823
  660POPC   C1B12847  25.801  31.940   8.757
  660POPC   C2B12848  25.660  32.043   8.366
  660POPC   C3B12849  25.788  31.839   8.018
  660POPC   C4B12850  25.861  31.605   7.663
  661POPC   NC312851  40.223  27.732   9.662
  661POPC   PO412852  39.736  28.062   9.316
  661POPC   GL112853  39.964  27.779   9.030
  661POPC   GL212854  40.199  27.520   9.068
  661POPC   C1A12855  39.811  27.488   8.676
  661POPC   D2A12856  39.849  27.229   8.299
  661POPC   C3A12857  39.840  27.396   7.880
  661POPC   C4A12858  40.005  27.794   7.702
  661POPC   C1B12859  40.302  27.294   8.672
  661POPC   C2B12860  40.516  27.360   8.309
  661POPC   C3B12861  40.333  27.506   7.968
  661POPC   C4B12862  40.249  27.322   7.592
  662POPC   NC312863  24.673  13.730   9.477
  662POPC   PO412864  24.043  13.565   9.556
  662POPC   GL112865  24.153  13.623   9.123
  662POPC   GL212866  24.385  13.907   9.089
  662POPC   C1A12867  24.262  13.522   8.690
  662POPC   D2A12868  24.351  13.286   8.298
  662POPC   C3A12869  24.452  13.561   7.957
  662POPC   C4A12870  24.813  13.619   7.684
  662POPC   C1B12871  24.260  14.064   8.705
  662POPC   C2B12872  24.213  13.905   8.275
  662POPC   C3B12873  24.359  14.058   7.862
  662POPC   C4B12874  24.368  13.880   7.454
  663POPC   NC312875  23.062  24.236   9.486
  663POPC   PO412876  22.831  24.829   9.480
  663POPC   GL112877  22.910  24.552   9.118
  663POPC   GL212878  23.260  24.413   9.050
  663POPC   C1A12879  22.827  24.477   8.706
  663POPC   D2A12880  23.125  24.670   8.463
  663POPC   C3A12881  23.006  24.712   8.044
  663POPC   C4A12882  23.097  24.688   7.606
  663POPC   C1B12883  23.250  24.194   8.662
  663POPC   C2B12884  23.005  24.193   8.282
  663POPC   C3B12885  23.156  24.253   7.860
  663POPC   C4B12886  23.221  24.228   7.402
  664POPC   NC312887  20.747  33.188   9.803
  664POPC   PO412888  21.096  32.743   9.417
  664POPC   GL112889  20.897  33.015   9.071
  664POPC   GL212890  20.702  33.272   9.213
  664POPC   C1A12891  20.584  32.943   8.725
  664POPC   D2A12892  20.374  32.951   8.317
  664POPC   C3A12893  20.565  32.778   7.951
  664POPC   C4A12894  20.853  32.931   7.669
  664POPC   C1B12895  20.708  33.465   8.786
  664POPC   C2B12896  20.737  33.331   8.364
  664POPC   C3B12897  20.597  33.277   7.952
  664POPC   C4B12898  20.746  33.453   7.570
  665POPC   NC312899   8.618  33.003   9.486
  665POPC   PO412900   9.256  33.187   9.572
  665POPC   GL112901   9.184  33.078   9.172
  665POPC   GL212902   9.430  32.848   9.010
  665POPC   C1A12903   8.924  33.220   8.856
  665POPC   D2A12904   9.074  33.193   8.466
  665POPC   C3A12905   8.758  33.268   8.147
  665POPC   C4A12906   8.719  33.028   7.767
  665POPC   C1B12907   9.027  32.727   8.806
  665POPC   C2B12908   8.845  32.754   8.388
  665POPC   C3B12909   9.085  32.755   8.022
  665POPC   C4B12910   9.068  32.719   7.593
  666POPC   NC312911  23.836  42.197   9.320
  666POPC   PO412912  23.561  42.801   9.426
  666POPC   GL112913  23.485  42.496   9.070
  666POPC   GL212914  23.282  42.192   9.045
  666POPC   C1A12915  23.509  42.483   8.615
  666POPC   D2A12916  23.805  42.293   8.329
  666POPC   C3A12917  23.753  42.266   7.904
  666POPC   C4A12918  23.363  42.423   7.755
  666POPC   C1B12919  23.623  42.000   8.750
  666POPC   C2B12920  23.594  41.822   8.382
  666POPC   C3B12921  23.355  41.905   8.042
  666POPC   C4B12922  23.458  41.929   7.642
  667POPC   NC312923  11.474  42.930   9.529
  667POPC   PO412924  10.959  43.401   9.426
  667POPC   GL112925  11.304  43.262   9.126
  667POPC   GL212926  11.459  42.925   9.027
  667POPC   C1A12927  11.239  43.234   8.678
  667POPC   D2A12928  11.477  43.401   8.375
  667POPC   C3A12929  11.309  43.389   8.037
  667POPC   C4A12930  11.201  43.161   7.762
  667POPC   C1B12931  11.203  42.718   8.723
  667POPC   C2B12932  11.290  42.854   8.307
  667POPC   C3B12933  11.610  42.954   8.033
  667POPC   C4B12934  11.739  42.679   7.720
  668POPC   NC312935   1.030  20.571   9.409
  668POPC   PO412936   1.390  20.971   9.757
  668POPC   GL112937   1.394  20.865   9.173
  668POPC   GL212938   1.302  20.578   8.996
  668POPC   C1A12939   1.333  20.993   8.738
  668POPC   D2A12940   1.197  20.710   8.432
  668POPC   C3A12941   1.013  20.815   8.034
  668POPC   C4A12942   1.059  20.442   7.808
  668POPC   C1B12943   1.661  20.573   8.755
  668POPC   C2B12944   1.620  20.433   8.365
  668POPC   C3B12945   1.496  20.605   8.005
  668POPC   C4B12946   1.656  20.486   7.640
  669POPC   NC312947  19.800  34.844   9.579
  669POPC   PO412948  19.775  34.196   9.508
  669POPC   GL112949  19.968  34.529   9.220
  669POPC   GL212950  19.631  34.647   9.136
  669POPC   C1A12951  19.992  34.777   8.804
  669POPC   D2A12952  19.809  34.767   8.377
  669POPC   C3A12953  19.964  34.870   8.030
  669POPC   C4A12954  19.993  34.623   7.672
  669POPC   C1B12955  19.736  34.265   8.841
  669POPC   C2B12956  19.515  34.192   8.425
  669POPC   C3B12957  19.719  34.251   8.022
  669POPC   C4B12958  19.666  34.269   7.526
  670POPC   NC312959  42.040  44.916   9.512
  670POPC   PO412960  41.676  44.379   9.529
  670POPC   GL112961  41.648  44.695   9.176
  670POPC   GL212962  41.931  44.822   9.029
  670POPC   C1A12963  41.458  44.850   8.777
  670POPC   D2A12964  41.117  44.801   8.504
  670POPC   C3A12965  41.167  44.778   8.059
  670POPC   C4A12966  41.317  44.594   7.702
  670POPC   C1B12967  41.878  44.609   8.638
  670POPC   C2B12968  41.619  44.591   8.256
  670POPC   C3B12969  41.731  44.808   7.883
  670POPC   C4B12970  41.716  44.942   7.442
  671POPC   NC312971  23.827  13.220   9.324
  671POPC   PO412972  23.592  13.848   9.338
  671POPC   GL112973  23.648  13.597   9.011
  671POPC   GL212974  23.372  13.353   8.947
  671POPC   C1A12975  23.822  13.775   8.623
  671POPC   D2A12976  23.714  13.870   8.175
  671POPC   C3A12977  23.970  13.677   7.839
  671POPC   C4A12978  23.910  13.679   7.381
  671POPC   C1B12979  23.627  13.271   8.626
  671POPC   C2B12980  23.836  13.390   8.288
  671POPC   C3B12981  23.578  13.374   7.959
  671POPC   C4B12982  23.615  13.321   7.548
  672POPC   NC312983  21.066  34.182   9.562
  672POPC   PO412984  21.508  33.650   9.504
  672POPC   GL112985  21.450  33.754   9.117
  672POPC   GL212986  21.147  33.855   9.037
  672POPC   C1A12987  21.597  33.773   8.714
  672POPC   D2A12988  21.344  34.025   8.497
  672POPC   C3A12989  21.363  33.928   8.083
  672POPC   C4A12990  21.303  34.179   7.737
  672POPC   C1B12991  21.213  33.440   8.806
  672POPC   C2B12992  21.271  33.470   8.387
  672POPC   C3B12993  21.035  33.555   7.997
  672POPC   C4B12994  21.219  33.670   7.638
  673POPC   NC312995   6.418  13.988   9.317
  673POPC   PO412996   5.964  14.470   9.550
  673POPC   GL112997   6.155  14.411   9.139
  673POPC   GL212998   6.360  14.735   9.025
  673POPC   C1A12999   6.042  14.100   8.767
  673POPC   D2A13000   5.766  13.953   8.390
  673POPC   C3A13001   5.900  13.964   7.945
  673POPC   C4A13002   5.800  14.148   7.547
  673POPC   C1B13003   6.072  14.613   8.688
  673POPC   C2B13004   6.095  14.390   8.295
  673POPC   C3B13005   5.857  14.486   7.945
  673POPC   C4B13006   5.935  14.841   7.668
  674POPC   NC313007  24.897  19.647   9.793
  674POPC   PO413008  24.460  20.104   9.483
  674POPC   GL113009  24.399  19.952   9.089
  674POPC   GL213010  24.092  20.112   8.977
  674POPC   C1A13011  24.562  19.815   8.705
  674POPC   D2A13012  24.433  19.651   8.314
  674POPC   C3A13013  24.582  19.842   7.960
  674POPC   C4A13014  24.812  19.838   7.626
  674POPC   C1B13015  24.297  20.244   8.667
  674POPC   C2B13016  24.483  20.190   8.329
  674POPC   C3B13017  24.245  20.205   8.002
  674POPC   C4B13018  24.100  20.036   7.643
  675POPC   NC313019  14.885   6.388   9.287
  675POPC   PO413020  14.888   7.005   9.510
  675POPC   GL113021  15.109   6.856   9.160
  675POPC   GL213022  15.352   6.639   9.314
  675POPC   C1A13023  15.098   6.731   8.725
  675POPC   D2A13024  14.894   6.894   8.361
  675POPC   C3A13025  15.073   6.711   7.999
  675POPC   C4A13026  15.335   6.774   7.630
  675POPC   C1B13027  15.446   6.407   8.925
  675POPC   C2B13028  15.413   6.376   8.482
  675POPC   C3B13029  15.659   6.228   8.142
  675POPC   C4B13030  15.512   6.308   7.749
  676POPC   NC313031  18.174  18.102   9.466
  676POPC   PO413032  18.288  18.720   9.386
  676POPC   GL113033  18.269  18.469   9.061
  676POPC   GL213034  17.961  18.368   9.052
  676POPC   C1A13035  18.319  18.335   8.636
  676POPC   D2A13036  18.214  18.214   8.211
  676POPC   C3A13037  18.527  18.346   7.892
  676POPC   C4A13038  18.737  18.316   7.461
  676POPC   C1B13039  17.934  18.677   8.726
  676POPC   C2B13040  18.164  18.722   8.342
  676POPC   C3B13041  18.103  18.648   7.941
  676POPC   C4B13042  17.919  18.629   7.564
  677POPC   NC313043   6.421  13.360   9.691
  677POPC   PO413044   6.784  13.900   9.599
  677POPC   GL113045   6.783  13.580   9.279
  677POPC   GL213046   6.783  13.793   9.017
  677POPC   C1A13047   6.684  13.325   8.864
  677POPC   D2A13048   6.528  13.350   8.402
  677POPC   C3A13049   6.735  13.638   8.098
  677POPC   C4A13050   6.911  13.639   7.686
  677POPC   C1B13051   6.487  13.790   8.697
  677POPC   C2B13052   6.307  13.929   8.361
  677POPC   C3B13053   6.385  14.050   7.989
  677POPC   C4B13054   6.681  14.089   7.731
  678POPC   NC313055  38.231   9.692   9.947
  678POPC   PO413056  37.737   9.840   9.506
  678POPC   GL113057  37.733   9.668   9.116
  678POPC   GL213058  37.545   9.410   9.022
  678POPC   C1A13059  37.777   9.789   8.720
  678POPC   D2A13060  37.717   9.547   8.396
  678POPC   C3A13061  37.809   9.709   8.011
  678POPC   C4A13062  37.899   9.672   7.561
  678POPC   C1B13063  37.280   9.434   8.698
  678POPC   C2B13064  37.188   9.668   8.369
  678POPC   C3B13065  37.339   9.926   8.097
  678POPC   C4B13066  37.375   9.719   7.730
  679POPC   NC313067   4.491  18.282   9.665
  679POPC   PO413068   4.354  17.576   9.548
  679POPC   GL113069   4.306  17.555   9.132
  679POPC   GL213070   3.985  17.621   9.032
  679POPC   C1A13071   4.369  17.441   8.711
  679POPC   D2A13072   4.109  17.457   8.332
  679POPC   C3A13073   4.371  17.333   7.984
  679POPC   C4A13074   4.363  17.505   7.563
  679POPC   C1B13075   4.073  17.870   8.694
  679POPC   C2B13076   3.954  17.952   8.275
  679POPC   C3B13077   4.117  17.806   7.895
  679POPC   C4B13078   4.170  17.958   7.470
  680POPC   NC313079  35.083  34.377   9.440
  680POPC   PO413080  35.251  34.933   9.608
  680POPC   GL113081  35.117  34.788   9.150
  680POPC   GL213082  35.375  34.534   9.041
  680POPC   C1A13083  34.935  34.641   8.751
  680POPC   D2A13084  34.967  34.400   8.344
  680POPC   C3A13085  35.118  34.604   7.954
  680POPC   C4A13086  35.566  34.729   7.771
  680POPC   C1B13087  35.331  34.220   8.690
  680POPC   C2B13088  35.301  34.001   8.280
  680POPC   C3B13089  35.285  34.119   7.836
  680POPC   C4B13090  35.524  34.070   7.440
  681POPC   NC313091  37.007  17.430   9.451
  681POPC   PO413092  36.341  17.428   9.549
  681POPC   GL113093  36.557  17.506   9.219
  681POPC   GL213094  36.641  17.813   9.292
  681POPC   C1A13095  36.492  17.375   8.823
  681POPC   D2A13096  36.747  17.194   8.532
  681POPC   C3A13097  36.706  17.234   8.101
  681POPC   C4A13098  36.998  17.194   7.800
  681POPC   C1B13099  36.889  17.730   8.893
  681POPC   C2B13100  36.863  17.692   8.471
  681POPC   C3B13101  37.077  17.620   8.102
  681POPC   C4B13102  36.850  17.702   7.745
  682POPC   NC313103  27.670  10.362   9.516
  682POPC   PO413104  27.085  10.502   9.378
  682POPC   GL113105  27.270  10.408   8.964
  682POPC   GL213106  27.615  10.438   9.023
  682POPC   C1A13107  27.488  10.226   8.588
  682POPC   D2A13108  27.602  10.142   8.181
  682POPC   C3A13109  27.425  10.417   7.922
  682POPC   C4A13110  27.279  10.448   7.529
  682POPC   C1B13111  27.948  10.210   8.806
  682POPC   C2B13112  28.064  10.246   8.369
  682POPC   C3B13113  27.951  10.403   7.913
  682POPC   C4B13114  27.738  10.657   7.554
  683POPC   NC313115   2.378  16.932   9.577
  683POPC   PO413116   3.100  16.734   9.573
  683POPC   GL113117   2.873  16.648   9.227
  683POPC   GL213118   2.518  16.524   9.248
  683POPC   C1A13119   3.064  16.791   8.837
  683POPC   D2A13120   2.989  16.625   8.458
  683POPC   C3A13121   3.009  16.796   8.074
  683POPC   C4A13122   2.774  16.823   7.695
  683POPC   C1B13123   2.530  16.806   8.881
  683POPC   C2B13124   2.649  17.006   8.503
  683POPC   C3B13125   2.504  16.966   8.101
  683POPC   C4B13126   2.442  17.238   7.763
  684POPC   NC313127  41.567  38.767   9.297
  684POPC   PO413128  41.492  39.227   9.688
  684POPC   GL113129  41.533  39.287   9.238
  684POPC   GL213130  41.210  39.124   9.139
  684POPC   C1A13131  41.611  39.171   8.772
  684POPC   D2A13132  41.273  39.180   8.429
  684POPC   C3A13133  41.462  39.116   8.044
  684POPC   C4A13134  41.357  38.786   7.785
  684POPC   C1B13135  41.214  39.453   8.857
  684POPC   C2B13136  41.481  39.643   8.494
  684POPC   C3B13137  41.466  39.632   8.012
  684POPC   C4B13138  41.464  39.370   7.592
  685POPC   NC313139  14.238  15.554   9.657
  685POPC   PO413140  14.401  15.002   9.816
  685POPC   GL113141  14.328  15.168   9.301
  685POPC   GL213142  14.397  15.456   9.166
  685POPC   C1A13143  14.095  15.110   8.878
  685POPC   D2A13144  14.243  15.081   8.442
  685POPC   C3A13145  14.032  15.170   8.067
  685POPC   C4A13146  14.262  15.133   7.701
  685POPC   C1B13147  14.285  15.550   8.739
  685POPC   C2B13148  14.493  15.521   8.375
  685POPC   C3B13149  14.366  15.556   7.999
  685POPC   C4B13150  14.544  15.551   7.647
  686POPC   NC313151  35.727  12.128   9.442
  686POPC   PO413152  35.055  11.980   9.474
  686POPC   GL113153  35.294  11.955   9.144
  686POPC   GL213154  35.298  12.320   9.129
  686POPC   C1A13155  35.450  11.972   8.730
  686POPC   D2A13156  35.675  11.916   8.347
  686POPC   C3A13157  35.455  11.852   7.956
  686POPC   C4A13158  35.160  12.159   7.788
  686POPC   C1B13159  35.629  12.440   8.855
  686POPC   C2B13160  35.745  12.464   8.437
  686POPC   C3B13161  35.572  12.344   8.076
  686POPC   C4B13162  35.708  12.338   7.683
  687POPC   NC313163  14.197  37.315   9.559
  687POPC   PO413164  14.512  37.896   9.523
  687POPC   GL113165  14.318  37.683   9.165
  687POPC   GL213166  14.473  37.344   9.119
  687POPC   C1A13167  14.258  37.890   8.755
  687POPC   D2A13168  14.497  37.867   8.356
  687POPC   C3A13169  14.283  37.786   7.943
  687POPC   C4A13170  14.088  37.528   7.608
  687POPC   C1B13171  14.432  37.417   8.664
  687POPC   C2B13172  14.509  37.362   8.209
  687POPC   C3B13173  14.713  37.514   7.834
  687POPC   C4B13174  14.689  37.339   7.421
  688POPC   NC313175   2.268  14.495   9.580
  688POPC   PO413176   1.614  14.288   9.434
  688POPC   GL113177   1.812  14.241   9.066
  688POPC   GL213178   2.145  14.315   9.119
  688POPC   C1A13179   1.862  14.593   8.759
  688POPC   D2A13180   1.690  14.715   8.369
  688POPC   C3A13181   1.823  14.528   7.959
  688POPC   C4A13182   1.905  14.507   7.520
  688POPC   C1B13183   2.139  14.186   8.684
  688POPC   C2B13184   2.175  14.428   8.328
  688POPC   C3B13185   2.206  14.181   7.945
  688POPC   C4B13186   1.932  14.022   7.696
  689POPC   NC313187  43.445  41.169   9.639
  689POPC   PO413188  44.010  41.512   9.683
  689POPC   GL113189  43.774  41.538   9.281
  689POPC   GL213190  43.619  41.230   9.169
  689POPC   C1A13191  43.980  41.490   8.872
  689POPC   D2A13192  44.155  41.663   8.510
  689POPC   C3A13193  44.032  41.491   8.104
  689POPC   C4A13194  43.839  41.514   7.714
  689POPC   C1B13195  43.730  41.060   8.766
  689POPC   C2B13196  43.753  41.115   8.358
  689POPC   C3B13197  43.529  41.288   8.041
  689POPC   C4B13198  43.535  41.129   7.618
  690POPC   NC313199   3.769  19.825   9.501
  690POPC   PO413200   3.168  19.588   9.254
  690POPC   GL113201   3.502  19.674   9.060
  690POPC   GL213202   3.648  19.994   8.998
  690POPC   C1A13203   3.715  19.574   8.693
  690POPC   D2A13204   3.823  19.904   8.439
  690POPC   C3A13205   3.827  19.813   8.004
  690POPC   C4A13206   3.588  19.615   7.688
  690POPC   C1B13207   3.334  19.896   8.640
  690POPC   C2B13208   3.380  19.637   8.290
  690POPC   C3B13209   3.322  19.945   7.983
  690POPC   C4B13210   3.396  20.190   7.639
  691POPC   NC313211   8.730  10.458   9.430
  691POPC   PO413212   9.139  11.015   9.476
  691POPC   GL113213   9.105  10.700   9.142
  691POPC   GL213214   9.380  10.484   9.111
  691POPC   C1A13215   8.863  10.526   8.788
  691POPC   D2A13216   8.862  10.200   8.490
  691POPC   C3A13217   8.876  10.293   8.045
  691POPC   C4A13218   8.881  10.650   7.776
  691POPC   C1B13219   9.338  10.297   8.694
  691POPC   C2B13220   9.367  10.233   8.232
  691POPC   C3B13221   9.352  10.317   7.783
  691POPC   C4B13222   9.331  10.667   7.454
  692POPC   NC313223  41.964  40.974   9.287
  692POPC   PO413224  41.577  40.474   9.543
  692POPC   GL113225  41.523  40.710   9.123
  692POPC   GL213226  41.411  41.063   9.162
  692POPC   C1A13227  41.423  40.730   8.653
  692POPC   D2A13228  41.325  40.635   8.194
  692POPC   C3A13229  41.662  40.778   7.945
  692POPC   C4A13230  41.972  40.533   7.766
  692POPC   C1B13231  41.374  41.253   8.752
  692POPC   C2B13232  41.480  41.190   8.321
  692POPC   C3B13233  41.266  41.116   7.939
  692POPC   C4B13234  41.268  40.932   7.538
  693POPC   NC313235  32.534  22.133   9.828
  693POPC   PO413236  33.111  21.996   9.474
  693POPC   GL113237  33.006  22.087   9.095
  693POPC   GL213238  33.189  21.773   9.008
  693POPC   C1A13239  33.091  22.122   8.664
  693POPC   D2A13240  33.220  22.288   8.326
  693POPC   C3A13241  33.173  22.105   7.958
  693POPC   C4A13242  33.027  22.491   7.828
  693POPC   C1B13243  32.799  21.709   8.772
  693POPC   C2B13244  32.587  21.818   8.416
  693POPC   C3B13245  32.803  21.682   8.073
  693POPC   C4B13246  32.868  21.794   7.661
  694POPC   NC313247  25.208  43.933   9.518
  694POPC   PO413248  25.692  43.609   9.349
  694POPC   GL113249  25.445  43.770   9.032
  694POPC   GL213250  25.616  44.077   9.041
  694POPC   C1A13251  25.204  43.716   8.627
  694POPC   D2A13252  24.866  43.774   8.311
  694POPC   C3A13253  24.893  43.591   7.886
  694POPC   C4A13254  25.149  43.690   7.545
  694POPC   C1B13255  25.719  44.204   8.652
  694POPC   C2B13256  25.357  44.176   8.387
  694POPC   C3B13257  25.251  43.954   8.024
  694POPC   C4B13258  25.341  44.164   7.651
  695POPC   NC313259  43.698  33.863   9.478
  695POPC   PO413260  44.291  34.121   9.441
  695POPC   GL113261  44.048  33.888   9.098
  695POPC   GL213262  43.882  33.558   9.101
  695POPC   C1A13263  44.013  33.941   8.659
  695POPC   D2A13264  44.299  34.055   8.311
  695POPC   C3A13265  44.152  34.229   7.942
  695POPC   C4A13266  43.859  33.967   7.761
  695POPC   C1B13267  43.830  33.450   8.658
  695POPC   C2B13268  43.821  33.680   8.242
  695POPC   C3B13269  44.166  33.631   7.953
  695POPC   C4B13270  44.187  33.483   7.514
  696POPC   NC313271  21.825  35.547   9.744
  696POPC   PO413272  21.128  35.397   9.747
  696POPC   GL113273  21.189  35.188   9.304
  696POPC   GL213274  21.557  35.182   9.198
  696POPC   C1A13275  21.114  35.004   8.871
  696POPC   D2A13276  21.389  34.996   8.457
  696POPC   C3A13277  21.331  35.186   8.034
  696POPC   C4A13278  21.638  35.330   7.731
  696POPC   C1B13279  21.366  35.439   8.841
  696POPC   C2B13280  21.288  35.620   8.456
  696POPC   C3B13281  21.418  35.682   8.049
  696POPC   C4B13282  21.062  35.752   7.809
  697POPC   NC313283   2.823  28.940   9.848
  697POPC   PO413284   3.332  29.134   9.600
  697POPC   GL113285   3.043  29.018   9.246
  697POPC   GL213286   2.900  29.334   9.133
  697POPC   C1A13287   2.956  28.967   8.769
  697POPC   D2A13288   2.865  28.753   8.355
  697POPC   C3A13289   2.716  28.878   7.958
  697POPC   C4A13290   2.921  28.874   7.579
  697POPC   C1B13291   2.743  29.443   8.708
  697POPC   C2B13292   2.714  29.292   8.261
  697POPC   C3B13293   2.790  29.350   7.781
  697POPC   C4B13294   2.826  29.301   7.303
  698POPC   NC313295  13.127  11.526   9.435
  698POPC   PO413296  12.509  11.144   9.270
  698POPC   GL113297  12.966  11.172   9.098
  698POPC   GL213298  13.008  11.483   8.948
  698POPC   C1A13299  13.218  11.058   8.763
  698POPC   D2A13300  13.005  11.171   8.374
  698POPC   C3A13301  13.029  11.002   7.946
  698POPC   C4A13302  12.782  11.140   7.607
  698POPC   C1B13303  12.650  11.662   8.762
  698POPC   C2B13304  12.491  11.591   8.392
  698POPC   C3B13305  12.631  11.386   8.053
  698POPC   C4B13306  12.820  11.618   7.742
  699POPC   NC313307  39.704  33.655   9.432
  699POPC   PO413308  40.205  34.075   9.517
  699POPC   GL113309  40.150  33.745   9.142
  699POPC   GL213310  39.880  33.517   9.001
  699POPC   C1A13311  40.213  33.689   8.680
  699POPC   D2A13312  39.991  33.872   8.321
  699POPC   C3A13313  40.127  33.646   7.937
  699POPC   C4A13314  40.213  33.660   7.477
  699POPC   C1B13315  39.691  33.801   8.739
  699POPC   C2B13316  39.439  33.712   8.373
  699POPC   C3B13317  39.599  33.748   7.974
  699POPC   C4B13318  39.721  33.537   7.648
  700POPC   NC313319   4.204   7.153   9.528
  700POPC   PO413320   4.423   7.753   9.452
  700POPC   GL113321   4.231   7.691   9.097
  700POPC   GL213322   4.070   7.404   9.113
  700POPC   C1A13323   4.433   7.597   8.707
  700POPC   D2A13324   4.701   7.432   8.393
  700POPC   C3A13325   4.453   7.320   8.051
  700POPC   C4A13326   4.208   7.616   7.842
  700POPC   C1B13327   3.917   7.582   8.727
  700POPC   C2B13328   4.051   7.481   8.325
  700POPC   C3B13329   3.951   7.202   7.970
  700POPC   C4B13330   3.822   7.411   7.584
  701POPC   NC313331  43.183   9.151   9.546
  701POPC   PO413332  42.842   8.654   9.351
  701POPC   GL113333  43.081   8.996   9.087
  701POPC   GL213334  43.380   9.269   9.090
  701POPC   C1A13335  43.176   9.040   8.681
  701POPC   D2A13336  43.132   8.778   8.373
  701POPC   C3A13337  42.832   8.932   8.104
  701POPC   C4A13338  42.795   8.793   7.725
  701POPC   C1B13339  43.660   9.193   8.754
  701POPC   C2B13340  43.622   8.999   8.357
  701POPC   C3B13341  43.338   9.091   8.023
  701POPC   C4B13342  43.300   8.934   7.623
  702POPC   NC313343   0.406  38.419   9.672
  702POPC   PO413344   1.050  38.264   9.518
  702POPC   GL113345   0.685  38.356   9.217
  702POPC   GL213346   0.331  38.262   9.195
  702POPC   C1A13347   0.513  38.497   8.794
  702POPC   D2A13348   0.482  38.698   8.387
  702POPC   C3A13349   0.521  38.513   8.018
  702POPC   C4A13350   0.536  38.724   7.647
  702POPC   C1B13351   0.256  38.060   8.787
  702POPC   C2B13352   0.205  38.242   8.393
  702POPC   C3B13353   0.212  38.101   8.000
  702POPC   C4B13354   0.331  38.241   7.624
  703POPC   NC313355  38.574  32.822   9.617
  703POPC   PO413356  38.243  33.364   9.476
  703POPC   GL113357  38.458  33.093   9.188
  703POPC   GL213358  38.283  32.746   9.201
  703POPC   C1A13359  38.662  33.137   8.800
  703POPC   D2A13360  38.513  33.083   8.382
  703POPC   C3A13361  38.631  32.946   7.983
  703POPC   C4A13362  38.643  33.254   7.652
  703POPC   C1B13363  38.257  32.821   8.760
  703POPC   C2B13364  38.143  32.740   8.341
  703POPC   C3B13365  38.100  32.763   7.911
  703POPC   C4B13366  38.343  32.865   7.544
  704POPC   NC313367  39.903  23.879   9.465
  704POPC   PO413368  40.344  23.370   9.474
  704POPC   GL113369  40.137  23.529   9.074
  704POPC   GL213370  40.134  23.907   9.017
  704POPC   C1A13371  40.083  23.629   8.607
  704POPC   D2A13372  40.350  23.869   8.328
  704POPC   C3A13373  40.225  23.782   7.947
  704POPC   C4A13374  39.829  23.618   7.877
  704POPC   C1B13375  39.802  24.031   8.779
  704POPC   C2B13376  39.696  23.905   8.351
  704POPC   C3B13377  39.850  24.121   8.000
  704POPC   C4B13378  40.022  24.098   7.608
  705POPC   NC313379  26.949  28.219   9.573
  705POPC   PO413380  26.469  28.702   9.519
  705POPC   GL113381  26.650  28.608   9.146
  705POPC   GL213382  26.390  28.651   8.909
  705POPC   C1A13383  26.899  28.735   8.798
  705POPC   D2A13384  26.797  28.599   8.405
  705POPC   C3A13385  27.127  28.437   8.158
  705POPC   C4A13386  27.117  28.531   7.741
  705POPC   C1B13387  26.605  28.248   8.759
  705POPC   C2B13388  26.765  28.075   8.344
  705POPC   C3B13389  26.684  28.298   7.937
  705POPC   C4B13390  26.508  28.084   7.602
  706POPC   NC313391  44.874  37.951   9.385
  706POPC   PO413392  44.358  37.575   9.456
  706POPC   GL113393  44.535  37.628   9.111
  706POPC   GL213394  44.451  37.977   9.079
  706POPC   C1A13395  44.381  37.567   8.710
  706POPC   D2A13396  44.566  37.412   8.352
  706POPC   C3A13397  44.414  37.503   7.971
  706POPC   C4A13398  44.529  37.386   7.584
  706POPC   C1B13399  44.756  37.921   8.735
  706POPC   C2B13400  44.921  37.798   8.329
  706POPC   C3B13401  44.834  37.767   7.883
  706POPC   C4B13402  44.771  38.135   7.705
  707POPC   NC313403  14.490  42.149   9.430
  707POPC   PO413404  14.163  42.733   9.576
  707POPC   GL113405  14.274  42.526   9.181
  707POPC   GL213406  14.655  42.485   9.078
  707POPC   C1A13407  14.201  42.241   8.833
  707POPC   D2A13408  14.075  42.352   8.436
  707POPC   C3A13409  14.239  42.121   8.082
  707POPC   C4A13410  14.100  42.271   7.689
  707POPC   C1B13411  14.419  42.711   8.733
  707POPC   C2B13412  14.358  42.756   8.299
  707POPC   C3B13413  14.458  42.584   7.929
  707POPC   C4B13414  14.834  42.631   7.720
  708POPC   NC313415  37.123  26.166   9.489
  708POPC   PO413416  36.488  26.023   9.434
  708POPC   GL113417  36.726  26.247   9.133
  708POPC   GL213418  37.041  26.057   9.013
  708POPC   C1A13419  36.761  26.356   8.708
  708POPC   D2A13420  36.889  26.182   8.315
  708POPC   C3A13421  36.627  26.321   8.006
  708POPC   C4A13422  36.548  26.157   7.623
  708POPC   C1B13423  37.268  26.190   8.666
  708POPC   C2B13424  37.319  26.468   8.325
  708POPC   C3B13425  37.398  26.366   7.920
  708POPC   C4B13426  37.075  26.164   7.709
  709POPC   NC313427  22.603  28.601   9.523
  709POPC   PO413428  23.277  28.301   9.547
  709POPC   GL113429  23.053  28.393   9.193
  709POPC   GL213430  23.007  28.066   9.050
  709POPC   C1A13431  23.235  28.538   8.821
  709POPC   D2A13432  23.034  28.671   8.462
  709POPC   C3A13433  23.206  28.621   8.075
  709POPC   C4A13434  23.212  28.433   7.696
  709POPC   C1B13435  22.858  28.210   8.670
  709POPC   C2B13436  22.869  28.232   8.250
  709POPC   C3B13437  22.779  28.253   7.869
  709POPC   C4B13438  22.983  27.974   7.599
  710POPC   NC313439  24.962  31.682   9.499
  710POPC   PO413440  24.283  31.710   9.435
  710POPC   GL113441  24.586  31.622   9.146
  710POPC   GL213442  24.739  31.980   9.169
  710POPC   C1A13443  24.611  31.279   8.830
  710POPC   D2A13444  24.508  31.059   8.437
  710POPC   C3A13445  24.496  31.340   8.090
  710POPC   C4A13446  24.373  31.211   7.693
  710POPC   C1B13447  24.783  31.905   8.761
  710POPC   C2B13448  24.649  31.672   8.448
  710POPC   C3B13449  24.649  31.842   8.050
  710POPC   C4B13450  24.509  31.803   7.655
  711POPC   NC313451  36.937  41.831   9.661
  711POPC   PO413452  36.264  41.950   9.456
  711POPC   GL113453  36.684  41.877   9.217
  711POPC   GL213454  37.028  41.799   9.143
  711POPC   C1A13455  36.681  41.642   8.796
  711POPC   D2A13456  36.787  41.772   8.377
  711POPC   C3A13457  36.540  41.780   7.990
  711POPC   C4A13458  36.713  41.774   7.538
  711POPC   C1B13459  37.155  41.473   8.834
  711POPC   C2B13460  37.108  41.366   8.425
  711POPC   C3B13461  36.847  41.369   8.054
  711POPC   C4B13462  36.993  41.369   7.644
  712POPC   NC313463  34.783   6.394   9.555
  712POPC   PO413464  34.483   6.955   9.619
  712POPC   GL113465  34.524   6.917   9.179
  712POPC   GL213466  34.750   6.651   9.099
  712POPC   C1A13467  34.691   6.992   8.733
  712POPC   D2A13468  34.599   6.743   8.389
  712POPC   C3A13469  34.334   6.864   8.078
  712POPC   C4A13470  34.694   6.864   7.814
  712POPC   C1B13471  34.344   6.601   8.822
  712POPC   C2B13472  34.220   6.400   8.421
  712POPC   C3B13473  34.409   6.353   8.029
  712POPC   C4B13474  34.347   6.532   7.652
  713POPC   NC313475  16.488  27.617   9.448
  713POPC   PO413476  17.095  27.352   9.631
  713POPC   GL113477  16.948  27.340   9.172
  713POPC   GL213478  16.589  27.415   9.004
  713POPC   C1A13479  16.991  27.530   8.730
  713POPC   D2A13480  16.722  27.372   8.396
  713POPC   C3A13481  16.816  27.484   7.983
  713POPC   C4A13482  17.115  27.694   7.748
  713POPC   C1B13483  16.306  27.548   8.691
  713POPC   C2B13484  16.397  27.743   8.291
  713POPC   C3B13485  16.356  27.677   7.885
  713POPC   C4B13486  16.246  27.921   7.543
  714POPC   NC313487  40.688   4.880   9.495
  714POPC   PO413488  41.076   5.373   9.696
  714POPC   GL113489  41.093   5.244   9.281
  714POPC   GL213490  40.759   5.238   9.150
  714POPC   C1A13491  41.160   5.178   8.843
  714POPC   D2A13492  40.845   5.151   8.517
  714POPC   C3A13493  40.967   5.296   8.139
  714POPC   C4A13494  40.728   5.179   7.774
  714POPC   C1B13495  40.382   5.219   8.902
  714POPC   C2B13496  40.182   5.185   8.518
  714POPC   C3B13497  40.390   5.236   8.149
  714POPC   C4B13498  40.220   5.197   7.742
  715POPC   NC313499  36.048  16.156   9.657
  715POPC   PO413500  35.728  15.737   9.263
  715POPC   GL113501  35.868  16.111   9.157
  715POPC   GL213502  36.204  16.078   9.182
  715POPC   C1A13503  35.857  16.159   8.732
  715POPC   D2A13504  36.103  16.078   8.390
  715POPC   C3A13505  35.909  16.025   8.002
  715POPC   C4A13506  35.731  15.811   7.607
  715POPC   C1B13507  36.401  16.222   8.814
  715POPC   C2B13508  36.587  16.220   8.402
  715POPC   C3B13509  36.466  15.957   8.063
  715POPC   C4B13510  36.260  15.746   7.741
  716POPC   NC313511  40.310   3.985   9.409
  716POPC   PO413512  40.180   3.354   9.293
  716POPC   GL113513  39.787   3.543   9.146
  716POPC   GL213514  39.924   3.822   8.950
  716POPC   C1A13515  39.594   3.479   8.742
  716POPC   D2A13516  39.730   3.263   8.398
  716POPC   C3A13517  40.004   3.444   8.119
  716POPC   C4A13518  39.995   3.655   7.756
  716POPC   C1B13519  40.134   3.502   8.648
  716POPC   C2B13520  40.388   3.211   8.358
  716POPC   C3B13521  40.375   3.182   7.880
  716POPC   C4B13522  40.365   3.474   7.477
  717POPC   NC313523   6.204  35.588   9.388
  717POPC   PO413524   6.697  35.120   9.427
  717POPC   GL113525   6.618  35.353   9.087
  717POPC   GL213526   6.960  35.468   9.077
  717POPC   C1A13527   6.505  35.395   8.661
  717POPC   D2A13528   6.287  35.217   8.293
  717POPC   C3A13529   6.490  35.242   7.917
  717POPC   C4A13530   6.492  35.622   7.685
  717POPC   C1B13531   6.975  35.180   8.725
  717POPC   C2B13532   6.822  35.197   8.298
  717POPC   C3B13533   6.982  35.432   7.872
  717POPC   C4B13534   7.125  35.521   7.386
  718POPC   NC313535  28.313   0.970   9.520
  718POPC   PO413536  27.917   1.487   9.688
  718POPC   GL113537  28.139   1.482   9.199
  718POPC   GL213538  28.314   1.168   9.071
  718POPC   C1A13539  28.171   1.451   8.694
  718POPC   D2A13540  28.492   1.395   8.390
  718POPC   C3A13541  28.262   1.439   8.052
  718POPC   C4A13542  28.426   1.452   7.674
  718POPC   C1B13543  28.616   1.063   8.755
  718POPC   C2B13544  28.712   0.876   8.357
  718POPC   C3B13545  28.639   1.068   7.933
  718POPC   C4B13546  28.746   1.138   7.448
  719POPC   NC313547   1.344  10.213   9.612
  719POPC   PO413548   0.920  10.710   9.540
  719POPC   GL113549   1.133  10.619   9.158
  719POPC   GL213550   1.065  10.274   9.155
  719POPC   C1A13551   1.225  10.593   8.718
  719POPC   D2A13552   0.996  10.386   8.379
  719POPC   C3A13553   1.168  10.436   7.972
  719POPC   C4A13554   1.453  10.725   7.778
  719POPC   C1B13555   1.455  10.192   8.908
  719POPC   C2B13556   1.571  10.320   8.454
  719POPC   C3B13557   1.678  10.293   8.000
  719POPC   C4B13558   1.431  10.060   7.717
  720POPC   NC313559  43.972  21.339   9.647
  720POPC   PO413560  43.971  21.887   9.363
  720POPC   GL113561  43.904  21.519   9.182
  720POPC   GL213562  43.576  21.423   9.337
  720POPC   C1A13563  44.086  21.199   8.914
  720POPC   D2A13564  44.190  21.056   8.500
  720POPC   C3A13565  44.119  21.365   8.193
  720POPC   C4A13566  44.037  21.476   7.777
  720POPC   C1B13567  43.554  21.320   8.900
  720POPC   C2B13568  43.725  21.320   8.509
  720POPC   C3B13569  43.600  21.342   8.056
  720POPC   C4B13570  43.661  21.177   7.634
  721POPC   NC313571   9.487  31.999   9.387
  721POPC   PO413572   9.925  32.441   9.562
  721POPC   GL113573   9.810  32.288   9.153
  721POPC   GL213574  10.005  31.991   9.215
  721POPC   C1A13575   9.445  32.370   8.836
  721POPC   D2A13576   9.411  32.684   8.462
  721POPC   C3A13577   9.685  32.650   8.079
  721POPC   C4A13578   9.542  32.519   7.675
  721POPC   C1B13579  10.053  32.094   8.754
  721POPC   C2B13580   9.766  32.265   8.464
  721POPC   C3B13581   9.509  32.164   8.148
  721POPC   C4B13582   9.841  32.177   7.867
  722POPC   NC313583  42.098  18.939   9.611
  722POPC   PO413584  41.424  19.032   9.397
  722POPC   GL113585  41.612  18.972   9.018
  722POPC   GL213586  41.400  18.680   8.937
  722POPC   C1A13587  41.638  19.280   8.665
  722POPC   D2A13588  41.754  19.397   8.250
  722POPC   C3A13589  41.662  19.067   7.957
  722POPC   C4A13590  41.561  19.116   7.535
  722POPC   C1B13591  41.186  19.005   8.721
  722POPC   C2B13592  41.282  19.177   8.317
  722POPC   C3B13593  41.161  19.113   7.897
  722POPC   C4B13594  41.252  18.751   7.692
  723POPC   NC313595   7.787  13.662   9.227
  723POPC   PO413596   8.311  13.400   9.552
  723POPC   GL113597   8.285  13.758   9.246
  723POPC   GL213598   8.255  13.520   9.046
  723POPC   C1A13599   8.261  13.955   8.816
  723POPC   D2A13600   8.245  13.688   8.454
  723POPC   C3A13601   8.285  13.867   8.065
  723POPC   C4A13602   8.189  13.676   7.670
  723POPC   C1B13603   8.344  13.276   8.743
  723POPC   C2B13604   8.547  13.208   8.391
  723POPC   C3B13605   8.378  13.344   8.024
  723POPC   C4B13606   8.332  13.189   7.625
  724POPC   NC313607  11.115  12.769   9.641
  724POPC   PO413608  11.685  12.613   9.562
  724POPC   GL113609  11.435  12.873   9.226
  724POPC   GL213610  11.036  12.855   9.154
  724POPC   C1A13611  11.366  13.049   8.808
  724POPC   D2A13612  11.426  12.868   8.415
  724POPC   C3A13613  11.296  13.059   8.063
  724POPC   C4A13614  11.400  12.845   7.683
  724POPC   C1B13615  10.953  12.622   8.783
  724POPC   C2B13616  10.893  12.746   8.359
  724POPC   C3B13617  11.079  12.615   7.999
  724POPC   C4B13618  10.974  12.561   7.567
  725POPC   NC313619  38.159   9.815   9.327
  725POPC   PO413620  38.503   9.366   9.768
  725POPC   GL113621  38.559   9.531   9.303
  725POPC   GL213622  38.629   9.898   9.136
  725POPC   C1A13623  38.571   9.514   8.790
  725POPC   D2A13624  38.542   9.675   8.359
  725POPC   C3A13625  38.340   9.471   7.986
  725POPC   C4A13626  38.399   9.608   7.516
  725POPC   C1B13627  38.370  10.003   8.733
  725POPC   C2B13628  38.120   9.953   8.342
  725POPC   C3B13629  38.217   9.958   7.883
  725POPC   C4B13630  38.195  10.142   7.460
  726POPC   NC313631  23.399  12.522   9.286
  726POPC   PO413632  23.966  12.795   9.451
  726POPC   GL113633  23.945  12.643   9.064
  726POPC   GL213634  23.655  12.860   8.983
  726POPC   C1A13635  23.909  12.581   8.632
  726POPC   D2A13636  23.578  12.620   8.320
  726POPC   C3A13637  23.718  12.639   7.898
  726POPC   C4A13638  23.765  12.846   7.515
  726POPC   C1B13639  23.305  12.880   8.690
  726POPC   C2B13640  23.288  13.059   8.267
  726POPC   C3B13641  23.322  12.946   7.811
  726POPC   C4B13642  23.282  12.992   7.366
  727POPC   NC313643  28.087  17.392   9.496
  727POPC   PO413644  28.432  17.948   9.393
  727POPC   GL113645  28.454  17.563   9.142
  727POPC   GL213646  28.780  17.720   9.042
  727POPC   C1A13647  28.332  17.344   8.744
  727POPC   D2A13648  28.218  17.562   8.354
  727POPC   C3A13649  28.050  17.334   8.020
  727POPC   C4A13650  28.203  17.196   7.640
  727POPC   C1B13651  28.504  17.837   8.717
  727POPC   C2B13652  28.549  18.144   8.398
  727POPC   C3B13653  28.409  17.958   8.043
  727POPC   C4B13654  28.475  17.561   7.852
  728POPC   NC313655   5.507   7.403   9.566
  728POPC   PO413656   6.209   7.652   9.483
  728POPC   GL113657   6.099   7.542   9.097
  728POPC   GL213658   6.203   7.870   8.975
  728POPC   C1A13659   5.933   7.294   8.731
  728POPC   D2A13660   5.618   7.195   8.372
  728POPC   C3A13661   5.816   7.259   7.985
  728POPC   C4A13662   5.697   7.087   7.605
  728POPC   C1B13663   5.822   7.826   8.738
  728POPC   C2B13664   5.812   7.659   8.348
  728POPC   C3B13665   5.657   7.730   7.969
  728POPC   C4B13666   6.023   7.740   7.766
  729POPC   NC313667   6.203  11.292   9.348
  729POPC   PO413668   5.661  10.970   9.418
  729POPC   GL113669   5.662  11.204   9.069
  729POPC   GL213670   5.869  11.518   8.994
  729POPC   C1A13671   5.645  11.104   8.659
  729POPC   D2A13672   5.657  11.427   8.408
  729POPC   C3A13673   5.720  11.349   7.982
  729POPC   C4A13674   6.043  11.120   7.759
  729POPC   C1B13675   6.147  11.691   8.662
  729POPC   C2B13676   6.337  11.628   8.289
  729POPC   C3B13677   6.165  11.596   7.902
  729POPC   C4B13678   6.104  11.813   7.554
  730POPC   NC313679  27.411  26.667   9.399
  730POPC   PO413680  27.854  27.186   9.570
  730POPC   GL113681  27.829  26.947   9.252
  730POPC   GL213682  27.537  27.108   9.125
  730POPC   C1A13683  27.905  26.885   8.818
  730POPC   D2A13684  27.762  26.793   8.408
  730POPC   C3A13685  27.926  26.981   8.078
  730POPC   C4A13686  27.839  26.746   7.714
  730POPC   C1B13687  27.386  26.908   8.765
  730POPC   C2B13688  27.322  27.067   8.376
  730POPC   C3B13689  27.437  26.955   7.993
  730POPC   C4B13690  27.180  26.995   7.696
  731POPC   NC313691  28.483  15.803   9.783
  731POPC   PO413692  28.665  16.422   9.545
  731POPC   GL113693  28.552  16.275   9.138
  731POPC   GL213694  28.205  16.192   9.097
  731POPC   C1A13695  28.481  16.453   8.721
  731POPC   D2A13696  28.290  16.601   8.368
  731POPC   C3A13697  28.320  16.346   8.014
  731POPC   C4A13698  28.394  16.090   7.667
  731POPC   C1B13699  28.374  15.962   8.717
  731POPC   C2B13700  28.317  15.877   8.267
  731POPC   C3B13701  28.279  15.633   7.897
  731POPC   C4B13702  28.144  15.536   7.465
  732POPC   NC313703  40.643  35.110   9.338
  732POPC   PO413704  41.197  35.530   9.291
  732POPC   GL113705  40.915  35.409   9.025
  732POPC   GL213706  41.083  35.067   9.056
  732POPC   C1A13707  40.557  35.357   8.739
  732POPC   D2A13708  40.366  35.424   8.344
  732POPC   C3A13709  40.635  35.417   7.969
  732POPC   C4A13710  40.918  35.404   7.608
  732POPC   C1B13711  40.988  35.069   8.662
  732POPC   C2B13712  40.935  35.364   8.373
  732POPC   C3B13713  41.134  35.201   8.031
  732POPC   C4B13714  41.141  34.921   7.682
  733POPC   NC313715   7.215  31.076   9.271
  733POPC   PO413716   7.225  30.509   9.585
  733POPC   GL113717   7.396  30.570   9.144
  733POPC   GL213718   7.255  30.798   8.846
  733POPC   C1A13719   7.624  30.472   8.751
  733POPC   D2A13720   7.372  30.421   8.372
  733POPC   C3A13721   7.438  30.697   8.037
  733POPC   C4A13722   7.537  30.576   7.616
  733POPC   C1B13723   7.589  31.029   8.585
  733POPC   C2B13724   7.746  31.122   8.146
  733POPC   C3B13725   7.608  31.067   7.701
  733POPC   C4B13726   7.670  31.009   7.241
  734POPC   NC313727  41.259   0.491   9.466
  734POPC   PO413728  41.965   0.358   9.585
  734POPC   GL113729  41.683   0.235   9.226
  734POPC   GL213730  41.345   0.271   9.036
  734POPC   C1A13731  41.786   0.264   8.791
  734POPC   D2A13732  41.789   0.076   8.399
  734POPC   C3A13733  41.766   0.412   8.121
  734POPC   C4A13734  41.861   0.361   7.715
  734POPC   C1B13735  41.358   0.633   8.760
  734POPC   C2B13736  41.294   0.664   8.341
  734POPC   C3B13737  41.241   0.277   8.170
  734POPC   C4B13738  41.402   0.161   7.799
  735POPC   NC313739  44.874  16.933   9.540
  735POPC   PO413740  44.419  16.496   9.657
  735POPC   GL113741  44.640  16.546   9.263
  735POPC   GL213742  44.501  16.887   9.198
  735POPC   C1A13743  44.838  16.637   8.858
  735POPC   D2A13744  44.749  16.789   8.446
  735POPC   C3A13745  44.848  16.573   8.074
  735POPC   C4A13746  44.856  16.711   7.664
  735POPC   C1B13747  44.591  17.135   8.837
  735POPC   C2B13748  44.373  17.153   8.450
  735POPC   C3B13749  44.492  17.078   8.029
  735POPC   C4B13750  44.152  17.109   7.780
  736POPC   NC313751  37.921   1.051   9.581
  736POPC   PO413752  37.548   1.507   9.374
  736POPC   GL113753  37.820   1.202   9.083
  736POPC   GL213754  37.782   0.837   9.147
  736POPC   C1A13755  37.950   1.122   8.622
  736POPC   D2A13756  37.703   1.203   8.220
  736POPC   C3A13757  37.843   1.306   7.811
  736POPC   C4A13758  37.627   1.438   7.413
  736POPC   C1B13759  37.583   0.763   8.762
  736POPC   C2B13760  37.668   0.716   8.331
  736POPC   C3B13761  37.427   0.797   7.958
  736POPC   C4B13762  37.503   0.970   7.567
  737POPC   NC313763  23.410   0.683   9.831
  737POPC   PO413764  22.900   0.360   9.468
  737POPC   GL113765  22.720   0.416   9.066
  737POPC   GL213766  22.919   0.689   8.959
  737POPC   C1A13767  22.788   0.291   8.646
  737POPC   D2A13768  22.628   0.418   8.291
  737POPC   C3A13769  22.868   0.609   7.995
  737POPC   C4A13770  22.740   0.325   7.678
  737POPC   C1B13771  23.241   0.530   8.647
  737POPC   C2B13772  23.167   0.276   8.259
  737POPC   C3B13773  23.233   0.260   7.805
  737POPC   C4B13774  23.124   0.633   7.542
  738POPC   NC313775  38.707  33.487   9.453
  738POPC   PO413776  38.677  34.132   9.366
  738POPC   GL113777  38.386  33.838   9.224
  738POPC   GL213778  38.194  34.037   9.033
  738POPC   C1A13779  38.351  33.555   8.876
  738POPC   D2A13780  38.507  33.577   8.478
  738POPC   C3A13781  38.492  33.570   8.039
  738POPC   C4A13782  38.730  33.747   7.714
  738POPC   C1B13783  38.528  34.038   8.732
  738POPC   C2B13784  38.447  34.056   8.303
  738POPC   C3B13785  38.414  34.097   7.894
  738POPC   C4B13786  38.218  33.845   7.643
  739POPC   NC313787  21.639  24.625   9.517
  739POPC   PO413788  21.062  24.968   9.477
  739POPC   GL113789  21.279  24.655   9.121
  739POPC   GL213790  21.568  24.425   9.056
  739POPC   C1A13791  21.232  24.503   8.672
  739POPC   D2A13792  21.487  24.265   8.340
  739POPC   C3A13793  21.364  24.260   7.874
  739POPC   C4A13794  21.473  24.516   7.476
  739POPC   C1B13795  21.721  24.753   8.751
  739POPC   C2B13796  21.815  24.734   8.282
  739POPC   C3B13797  21.970  24.814   7.839
  739POPC   C4B13798  21.854  24.889   7.398
  740POPC   NC313799   4.389  28.648   9.526
  740POPC   PO413800   4.307  29.301   9.448
  740POPC   GL113801   4.512  29.013   9.173
  740POPC   GL213802   4.235  28.785   9.051
  740POPC   C1A13803   4.670  28.890   8.769
  740POPC   D2A13804   4.511  28.809   8.339
  740POPC   C3A13805   4.627  29.118   8.004
  740POPC   C4A13806   4.583  29.379   7.634
  740POPC   C1B13807   4.184  29.059   8.678
  740POPC   C2B13808   4.150  29.169   8.216
  740POPC   C3B13809   4.078  29.138   7.746
  740POPC   C4B13810   3.877  28.944   7.339
  741POPC   NC313811  25.753  15.922   9.526
  741POPC   PO413812  26.333  15.787   9.651
  741POPC   GL113813  26.190  16.087   9.325
  741POPC   GL213814  26.148  15.781   9.160
  741POPC   C1A13815  26.154  16.204   8.882
  741POPC   D2A13816  26.180  16.356   8.488
  741POPC   C3A13817  26.378  16.148   8.149
  741POPC   C4A13818  26.257  16.052   7.743
  741POPC   C1B13819  25.982  15.731   8.766
  741POPC   C2B13820  25.957  15.921   8.376
  741POPC   C3B13821  25.899  15.757   7.983
  741POPC   C4B13822  26.071  15.584   7.599
  742POPC   NC313823  29.370  37.406   9.295
  742POPC   PO413824  30.003  37.703   9.467
  742POPC   GL113825  29.807  37.616   9.120
  742POPC   GL213826  30.099  37.470   8.999
  742POPC   C1A13827  29.666  37.548   8.712
  742POPC   D2A13828  29.884  37.616   8.337
  742POPC   C3A13829  29.647  37.835   8.021
  742POPC   C4A13830  29.678  37.697   7.608
  742POPC   C1B13831  30.327  37.546   8.625
  742POPC   C2B13832  30.411  37.710   8.228
  742POPC   C3B13833  30.152  37.726   7.895
  742POPC   C4B13834  30.148  37.659   7.459
  743POPC   NC313835   2.905   8.721   9.678
  743POPC   PO413836   3.032   9.185   9.259
  743POPC   GL113837   3.014   8.775   9.170
  743POPC   GL213838   2.702   8.806   9.116
  743POPC   C1A13839   3.053   8.693   8.755
  743POPC   D2A13840   3.154   9.015   8.472
  743POPC   C3A13841   3.163   8.804   8.121
  743POPC   C4A13842   2.927   8.823   7.803
  743POPC   C1B13843   2.638   9.076   8.736
  743POPC   C2B13844   2.393   9.148   8.380
  743POPC   C3B13845   2.610   9.183   8.017
  743POPC   C4B13846   2.533   9.080   7.644
  744POPC   NC313847  10.820  34.225   9.455
  744POPC   PO413848  11.305  34.739   9.535
  744POPC   GL113849  11.316  34.610   9.130
  744POPC   GL213850  11.096  34.310   9.038
  744POPC   C1A13851  11.384  34.647   8.719
  744POPC   D2A13852  11.295  34.398   8.321
  744POPC   C3A13853  11.430  34.668   7.977
  744POPC   C4A13854  11.475  34.585   7.524
  744POPC   C1B13855  10.902  34.543   8.694
  744POPC   C2B13856  11.036  34.822   8.369
  744POPC   C3B13857  10.899  34.756   7.985
  744POPC   C4B13858  11.028  34.785   7.593
  745POPC   NC313859   1.077  42.676   9.622
  745POPC   PO413860   1.351  43.274   9.719
  745POPC   GL113861   1.447  43.170   9.244
  745POPC   GL213862   1.366  42.832   9.185
  745POPC   C1A13863   1.440  43.234   8.765
  745POPC   D2A13864   1.167  43.305   8.373
  745POPC   C3A13865   1.191  43.417   7.913
  745POPC   C4A13866   0.919  43.350   7.546
  745POPC   C1B13867   1.113  42.842   8.804
  745POPC   C2B13868   1.280  42.824   8.391
  745POPC   C3B13869   1.111  42.924   8.000
  745POPC   C4B13870   1.292  42.978   7.622
  746POPC   NC313871  40.947   7.801   9.479
  746POPC   PO413872  41.523   7.385   9.628
  746POPC   GL113873  41.627   7.229   9.242
  746POPC   GL213874  41.298   7.362   9.161
  746POPC   C1A13875  41.780   7.193   8.801
  746POPC   D2A13876  41.751   7.526   8.484
  746POPC   C3A13877  41.517   7.413   8.122
  746POPC   C4A13878  41.527   7.557   7.708
  746POPC   C1B13879  41.292   7.375   8.731
  746POPC   C2B13880  41.235   7.690   8.451
  746POPC   C3B13881  41.066   7.646   8.061
  746POPC   C4B13882  41.088   7.289   7.829
  747POPC   NC313883  25.603  20.137   9.604
  747POPC   PO413884  26.241  19.693   9.585
  747POPC   GL113885  26.215  19.845   9.197
  747POPC   GL213886  25.866  19.888   9.231
  747POPC   C1A13887  26.212  19.735   8.765
  747POPC   D2A13888  26.362  19.844   8.354
  747POPC   C3A13889  26.122  19.722   8.009
  747POPC   C4A13890  26.272  19.852   7.624
  747POPC   C1B13891  25.950  20.178   8.900
  747POPC   C2B13892  25.934  20.072   8.468
  747POPC   C3B13893  25.807  20.125   8.059
  747POPC   C4B13894  25.769  19.912   7.667
  748POPC   NC313895  34.891  23.828   9.338
  748POPC   PO413896  34.424  23.449   9.399
  748POPC   GL113897  34.572  23.555   9.025
  748POPC   GL213898  34.918  23.486   8.958
  748POPC   C1A13899  34.471  23.461   8.623
  748POPC   D2A13900  34.560  23.692   8.241
  748POPC   C3A13901  34.584  23.655   7.812
  748POPC   C4A13902  34.512  23.375   7.458
  748POPC   C1B13903  34.804  23.841   8.664
  748POPC   C2B13904  34.779  24.142   8.321
  748POPC   C3B13905  34.878  24.098   7.862
  748POPC   C4B13906  34.806  23.890   7.399
  749POPC   NC313907  28.422  29.509   9.535
  749POPC   PO413908  28.124  28.920   9.486
  749POPC   GL113909  28.253  29.199   9.173
  749POPC   GL213910  28.498  28.980   9.082
  749POPC   C1A13911  28.447  29.417   8.818
  749POPC   D2A13912  28.284  29.390   8.411
  749POPC   C3A13913  28.465  29.409   8.017
  749POPC   C4A13914  28.340  29.179   7.666
  749POPC   C1B13915  28.582  28.893   8.654
  749POPC   C2B13916  28.510  28.919   8.217
  749POPC   C3B13917  28.714  28.859   7.812
  749POPC   C4B13918  28.690  28.926   7.338
  750POPC   NC313919  16.889  21.786   9.591
  750POPC   PO413920  16.640  22.378   9.435
  750POPC   GL113921  16.671  22.168   9.107
  750POPC   GL213922  16.613  21.807   9.142
  750POPC   C1A13923  16.487  22.271   8.739
  750POPC   D2A13924  16.516  22.198   8.327
  750POPC   C3A13925  16.782  22.323   7.998
  750POPC   C4A13926  16.372  22.452   7.858
  750POPC   C1B13927  16.599  21.761   8.688
  750POPC   C2B13928  16.856  21.845   8.342
  750POPC   C3B13929  16.764  21.816   7.963
  750POPC   C4B13930  16.619  21.904   7.567
  751POPC   NC313931  32.497   7.089   9.720
  751POPC   PO413932  33.035   7.396   9.533
  751POPC   GL113933  33.103   7.415   9.140
  751POPC   GL213934  33.100   7.756   9.125
  751POPC   C1A13935  33.214   7.416   8.722
  751POPC   D2A13936  32.899   7.432   8.417
  751POPC   C3A13937  32.986   7.274   8.064
  751POPC   C4A13938  33.036   7.372   7.659
  751POPC   C1B13939  32.896   7.846   8.712
  751POPC   C2B13940  33.136   7.849   8.285
  751POPC   C3B13941  33.120   7.828   7.826
  751POPC   C4B13942  33.328   7.796   7.383
  752POPC   NC313943  29.030  29.157   9.486
  752POPC   PO413944  29.708  29.193   9.586
  752POPC   GL113945  29.473  29.004   9.233
  752POPC   GL213946  29.324  29.324   9.122
  752POPC   C1A13947  29.415  28.962   8.771
  752POPC   D2A13948  29.094  28.883   8.426
  752POPC   C3A13949  29.220  29.016   7.988
  752POPC   C4A13950  29.151  28.989   7.544
  752POPC   C1B13951  28.961  29.226   8.837
  752POPC   C2B13952  28.811  29.308   8.427
  752POPC   C3B13953  28.971  29.478   8.047
  752POPC   C4B13954  28.835  29.374   7.628
  753POPC   NC313955  16.279  36.679   9.491
  753POPC   PO413956  15.775  37.115   9.530
  753POPC   GL113957  15.911  36.933   9.182
  753POPC   GL213958  16.289  36.994   9.094
  753POPC   C1A13959  15.860  37.072   8.777
  753POPC   D2A13960  15.973  37.238   8.382
  753POPC   C3A13961  15.873  37.019   8.002
  753POPC   C4A13962  15.784  36.938   7.550
  753POPC   C1B13963  16.132  36.648   8.838
  753POPC   C2B13964  15.956  36.703   8.439
  753POPC   C3B13965  16.109  36.591   8.113
  753POPC   C4B13966  16.175  36.686   7.723
  754POPC   NC313967   2.485  21.089   9.497
  754POPC   PO413968   2.610  21.725   9.589
  754POPC   GL113969   2.647  21.479   9.149
  754POPC   GL213970   2.810  21.184   9.110
  754POPC   C1A13971   2.970  21.519   8.772
  754POPC   D2A13972   3.022  21.668   8.340
  754POPC   C3A13973   2.745  21.619   7.982
  754POPC   C4A13974   2.743  21.472   7.592
  754POPC   C1B13975   2.757  21.081   8.682
  754POPC   C2B13976   2.731  21.191   8.261
  754POPC   C3B13977   2.838  21.015   7.869
  754POPC   C4B13978   2.835  21.011   7.416
  755POPC   NC313979  10.722  13.197   9.407
  755POPC   PO413980  10.713  13.855   9.549
  755POPC   GL113981  10.454  13.672   9.222
  755POPC   GL213982  10.581  13.954   9.046
  755POPC   C1A13983  10.370  13.567   8.788
  755POPC   D2A13984  10.502  13.681   8.391
  755POPC   C3A13985  10.238  13.501   8.124
  755POPC   C4A13986  10.123  13.610   7.736
  755POPC   C1B13987  10.924  13.726   8.873
  755POPC   C2B13988  11.035  13.818   8.433
  755POPC   C3B13989  10.942  13.621   8.030
  755POPC   C4B13990  10.560  13.809   7.872
  756POPC   NC313991  26.646   0.751   9.758
  756POPC   PO413992  26.063   0.402   9.493
  756POPC   GL113993  26.037   0.381   9.052
  756POPC   GL213994  26.129   0.706   8.991
  756POPC   C1A13995  26.004   0.430   8.591
  756POPC   D2A13996  25.683   0.564   8.309
  756POPC   C3A13997  25.775   0.579   7.883
  756POPC   C4A13998  25.905   0.200   7.653
  756POPC   C1B13999  26.487   0.642   8.716
  756POPC   C2B14000  26.482   0.436   8.319
  756POPC   C3B14001  26.302   0.553   7.915
  756POPC   C4B14002  26.396   0.843   7.597
  757POPC   NC314003  10.397  25.838   9.522
  757POPC   PO414004  11.023  26.184   9.494
  757POPC   GL114005  10.766  26.049   9.128
  757POPC   GL214006  10.411  26.105   9.108
  757POPC   C1A14007  10.653  26.200   8.685
  757POPC   D2A14008  10.791  26.220   8.281
  757POPC   C3A14009  10.554  26.041   7.960
  757POPC   C4A14010  10.171  26.165   7.793
  757POPC   C1B14011  10.172  26.011   8.710
  757POPC   C2B14012  10.136  25.959   8.268
  757POPC   C3B14013  10.162  25.584   8.099
  757POPC   C4B14014  10.250  25.377   7.767
  758POPC   NC314015  30.694  25.531   9.497
  758POPC   PO414016  30.274  25.062   9.480
  758POPC   GL114017  30.537  25.191   9.116
  758POPC   GL214018  30.878  25.315   9.085
  758POPC   C1A14019  30.582  25.295   8.678
  758POPC   D2A14020  30.709  25.011   8.384
  758POPC   C3A14021  30.409  25.089   8.108
  758POPC   C4A14022  30.275  25.382   7.848
  758POPC   C1B14023  31.073  25.445   8.688
  758POPC   C2B14024  30.968  25.407   8.257
  758POPC   C3B14025  30.804  25.284   7.840
  758POPC   C4B14026  30.864  25.655   7.578
  759POPC   NC314027   7.961  13.082   9.635
  759POPC   PO414028   8.422  12.678   9.390
  759POPC   GL114029   8.290  12.942   9.110
  759POPC   GL214030   7.964  13.128   9.142
  759POPC   C1A14031   8.351  12.776   8.688
  759POPC   D2A14032   8.061  12.682   8.369
  759POPC   C3A14033   8.187  12.851   8.014
  759POPC   C4A14034   8.530  12.766   7.801
  759POPC   C1B14035   7.897  13.002   8.737
  759POPC   C2B14036   7.992  13.223   8.340
  759POPC   C3B14037   7.850  13.239   7.899
  759POPC   C4B14038   7.905  12.926   7.582
  760POPC   NC314039  25.217  41.851   9.318
  760POPC   PO414040  25.146  42.523   9.462
  760POPC   GL114041  25.141  42.323   9.118
  760POPC   GL214042  25.510  42.342   9.018
  760POPC   C1A14043  25.126  42.224   8.714
  760POPC   D2A14044  25.383  42.191   8.348
  760POPC   C3A14045  25.172  42.258   7.973
  760POPC   C4A14046  24.991  42.237   7.576
  760POPC   C1B14047  25.725  42.049   8.726
  760POPC   C2B14048  25.814  41.923   8.275
  760POPC   C3B14049  25.655  42.059   7.848
  760POPC   C4B14050  25.480  42.439   7.598
  761POPC   NC314051   8.059   3.022   9.530
  761POPC   PO414052   8.746   2.610   9.465
  761POPC   GL114053   8.538   2.879   9.150
  761POPC   GL214054   8.167   2.883   9.068
  761POPC   C1A14055   8.486   2.961   8.705
  761POPC   D2A14056   8.241   3.071   8.331
  761POPC   C3A14057   8.533   2.963   8.016
  761POPC   C4A14058   8.546   2.826   7.597
  761POPC   C1B14059   8.058   2.612   8.711
  761POPC   C2B14060   7.906   2.646   8.285
  761POPC   C3B14061   7.886   2.772   7.864
  761POPC   C4B14062   8.083   2.714   7.461
  762POPC   NC314063  33.268  17.923   9.466
  762POPC   PO414064  33.868  17.567   9.472
  762POPC   GL114065  33.767  17.451   9.076
  762POPC   GL214066  33.766  17.766   8.940
  762POPC   C1A14067  33.953  17.382   8.646
  762POPC   D2A14068  33.864  17.207   8.198
  762POPC   C3A14069  33.927  17.487   7.827
  762POPC   C4A14070  33.875  17.437   7.378
  762POPC   C1B14071  33.552  17.702   8.588
  762POPC   C2B14072  33.605  17.870   8.192
  762POPC   C3B14073  33.517  17.924   7.762
  762POPC   C4B14074  33.419  17.610   7.434
  763POPC   NC314075  29.533   2.045   9.460
  763POPC   PO414076  30.244   1.937   9.489
  763POPC   GL114077  29.951   2.070   9.161
  763POPC   GL214078  29.996   1.754   9.076
  763POPC   C1A14079  29.676   2.023   8.764
  763POPC   D2A14080  29.568   1.852   8.327
  763POPC   C3A14081  29.767   2.094   7.990
  763POPC   C4A14082  29.750   2.369   7.620
  763POPC   C1B14083  30.201   1.927   8.715
  763POPC   C2B14084  30.147   1.867   8.278
  763POPC   C3B14085  30.379   1.821   7.891
  763POPC   C4B14086  30.599   1.930   7.488
  764POPC   NC314087  18.671  22.071   9.567
  764POPC   PO414088  19.402  22.212   9.480
  764POPC   GL114089  19.112  22.038   9.267
  764POPC   GL214090  18.905  22.296   9.179
  764POPC   C1A14091  19.149  21.920   8.864
  764POPC   D2A14092  19.058  22.020   8.452
  764POPC   C3A14093  19.339  22.036   8.116
  764POPC   C4A14094  19.118  22.093   7.735
  764POPC   C1B14095  19.047  22.429   8.782
  764POPC   C2B14096  18.848  22.584   8.446
  764POPC   C3B14097  18.942  22.402   8.103
  764POPC   C4B14098  18.806  22.527   7.707
  765POPC   NC314099   8.936  42.877   9.646
  765POPC   PO414100   9.064  43.574   9.525
  765POPC   GL114101   8.817  43.237   9.249
  765POPC   GL214102   9.029  43.000   9.138
  765POPC   C1A14103   8.610  43.158   8.786
  765POPC   D2A14104   8.523  43.444   8.378
  765POPC   C3A14105   8.753  43.393   7.976
  765POPC   C4A14106   8.600  43.119   7.649
  765POPC   C1B14107   9.061  43.362   8.829
  765POPC   C2B14108   8.984  43.167   8.415
  765POPC   C3B14109   9.029  42.966   8.030
  765POPC   C4B14110   9.247  43.154   7.724
  766POPC   NC314111  31.954   8.319   9.498
  766POPC   PO414112  32.606   8.255   9.651
  766POPC   GL114113  32.334   8.071   9.253
  766POPC   GL214114  32.148   8.312   9.021
  766POPC   C1A14115  32.382   7.951   8.773
  766POPC   D2A14116  32.142   7.940   8.344
  766POPC   C3A14117  32.226   8.164   7.929
  766POPC   C4A14118  32.396   7.888   7.591
  766POPC   C1B14119  31.876   8.363   8.703
  766POPC   C2B14120  31.987   8.475   8.307
  766POPC   C3B14121  32.010   8.658   7.915
  766POPC   C4B14122  31.916   8.410   7.568
  767POPC   NC314123  25.148  25.082   9.417
  767POPC   PO414124  25.754  25.490   9.523
  767POPC   GL114125  25.646  25.310   9.147
  767POPC   GL214126  25.348  25.502   9.147
  767POPC   C1A14127  25.431  25.157   8.780
  767POPC   D2A14128  25.193  25.216   8.384
  767POPC   C3A14129  25.471  25.242   8.015
  767POPC   C4A14130  25.384  25.476   7.669
  767POPC   C1B14131  25.064  25.565   8.798
  767POPC   C2B14132  24.965  25.778   8.412
  767POPC   C3B14133  25.056  25.738   7.986
  767POPC   C4B14134  24.892  25.613   7.599
  768POPC   NC314135   3.882  41.314   9.442
  768POPC   PO414136   4.186  40.722   9.588
  768POPC   GL114137   4.249  40.822   9.155
  768POPC   GL214138   4.541  41.021   9.154
  768POPC   C1A14139   4.071  40.601   8.744
  768POPC   D2A14140   4.008  40.654   8.283
  768POPC   C3A14141   3.912  41.060   8.089
  768POPC   C4A14142   4.076  41.192   7.689
  768POPC   C1B14143   4.497  40.878   8.707
  768POPC   C2B14144   4.369  40.992   8.296
  768POPC   C3B14145   4.379  40.812   7.870
  768POPC   C4B14146   4.610  40.817   7.461
  769POPC   NC314147  28.666  35.492   9.572
  769POPC   PO414148  28.097  35.128   9.483
  769POPC   GL114149  28.279  35.379   9.143
  769POPC   GL214150  28.623  35.573   9.089
  769POPC   C1A14151  28.346  35.466   8.693
  769POPC   D2A14152  28.391  35.578   8.282
  769POPC   C3A14153  28.392  35.326   7.944
  769POPC   C4A14154  28.182  35.036   7.757
  769POPC   C1B14155  28.675  35.138   8.932
  769POPC   C2B14156  28.644  35.093   8.478
  769POPC   C3B14157  28.852  35.300   8.143
  769POPC   C4B14158  28.809  35.128   7.725
  770POPC   NC314159  16.493  18.026   9.653
  770POPC   PO414160  16.698  18.653   9.612
  770POPC   GL114161  16.727  18.348   9.280
  770POPC   GL214162  16.968  18.634   9.158
  770POPC   C1A14163  16.416  18.316   8.925
  770POPC   D2A14164  16.309  18.318   8.487
  770POPC   C3A14165  16.493  18.359   8.052
  770POPC   C4A14166  16.462  18.235   7.621
  770POPC   C1B14167  16.981  18.382   8.825
  770POPC   C2B14168  17.009  18.600   8.449
  770POPC   C3B14169  17.229  18.587   8.104
  770POPC   C4B14170  16.968  18.356   7.779
  771POPC   NC314171  11.327  36.828   9.625
  771POPC   PO414172  11.170  37.484   9.689
  771POPC   GL114173  11.236  37.193   9.234
  771POPC   GL214174  11.239  36.821   9.123
  771POPC   C1A14175  11.317  37.115   8.737
  771POPC   D2A14176  11.509  37.132   8.300
  771POPC   C3A14177  11.316  37.128   7.859
  771POPC   C4A14178  11.079  37.171   7.476
  771POPC   C1B14179  11.169  36.617   8.707
  771POPC   C2B14180  11.241  36.691   8.241
  771POPC   C3B14181  11.230  36.600   7.824
  771POPC   C4B14182  10.897  36.586   7.494
  772POPC   NC314183   7.970  25.641   9.507
  772POPC   PO414184   8.429  25.085   9.495
  772POPC   GL114185   8.384  25.410   9.174
  772POPC   GL214186   8.085  25.336   9.126
  772POPC   C1A14187   8.333  25.553   8.714
  772POPC   D2A14188   8.378  25.317   8.328
  772POPC   C3A14189   8.406  25.354   7.884
  772POPC   C4A14190   8.322  25.074   7.531
  772POPC   C1B14191   7.844  25.549   8.828
  772POPC   C2B14192   7.859  25.395   8.404
  772POPC   C3B14193   7.985  25.121   8.050
  772POPC   C4B14194   7.873  25.250   7.643
  773POPC   NC314195  29.055  25.292   9.570
  773POPC   PO414196  29.441  24.876   9.201
  773POPC   GL114197  29.309  25.292   9.127
  773POPC   GL214198  28.986  25.511   9.122
  773POPC   C1A14199  29.345  25.294   8.718
  773POPC   D2A14200  29.582  25.398   8.396
  773POPC   C3A14201  29.381  25.279   8.030
  773POPC   C4A14202  29.394  25.025   7.694
  773POPC   C1B14203  28.807  25.378   8.765
  773POPC   C2B14204  28.974  25.256   8.372
  773POPC   C3B14205  28.887  25.447   8.004
  773POPC   C4B14206  28.896  25.171   7.673
  774POPC   NC314207   0.512  24.684   9.433
  774POPC   PO414208   0.759  24.221   9.187
  774POPC   GL114209   0.359  24.292   9.029
  774POPC   GL214210   0.213  24.648   9.002
  774POPC   C1A14211   0.363  24.332   8.608
  774POPC   D2A14212   0.401  24.628   8.291
  774POPC   C3A14213   0.277  24.476   7.914
  774POPC   C4A14214   0.070  24.732   7.644
  774POPC   C1B14215   0.609  24.772   8.741
  774POPC   C2B14216   0.862  24.807   8.316
  774POPC   C3B14217   0.795  24.763   7.852
  774POPC   C4B14218   0.979  24.724   7.373
  775POPC   NC314219  32.360  29.518   9.552
  775POPC   PO414220  32.010  30.027   9.367
  775POPC   GL114221  32.304  29.819   9.139
  775POPC   GL214222  32.142  29.536   9.083
  775POPC   C1A14223  32.449  29.818   8.736
  775POPC   D2A14224  32.332  30.090   8.384
  775POPC   C3A14225  32.409  29.976   7.959
  775POPC   C4A14226  32.131  29.846   7.600
  775POPC   C1B14227  31.928  29.831   8.778
  775POPC   C2B14228  31.953  29.741   8.403
  775POPC   C3B14229  31.907  29.904   8.050
  775POPC   C4B14230  31.750  29.575   7.822
  776POPC   NC314231   8.483  26.363   9.249
  776POPC   PO414232   8.039  26.786   9.669
  776POPC   GL114233   8.046  26.907   9.187
  776POPC   GL214234   8.143  26.629   9.014
  776POPC   C1A14235   8.213  27.048   8.739
  776POPC   D2A14236   8.330  26.816   8.345
  776POPC   C3A14237   8.382  26.808   7.877
  776POPC   C4A14238   8.608  26.851   7.445
  776POPC   C1B14239   7.927  26.605   8.655
  776POPC   C2B14240   7.735  26.610   8.276
  776POPC   C3B14241   7.914  26.644   7.902
  776POPC   C4B14242   7.760  26.821   7.515
  777POPC   NC314243  43.876  15.540   9.415
  777POPC   PO414244  43.585  16.157   9.474
  777POPC   GL114245  43.874  16.015   9.159
  777POPC   GL214246  43.629  15.830   9.028
  777POPC   C1A14247  43.991  16.141   8.729
  777POPC   D2A14248  44.031  16.248   8.269
  777POPC   C3A14249  43.891  15.922   7.960
  777POPC   C4A14250  43.470  15.761   7.809
  777POPC   C1B14251  43.493  16.226   8.797
  777POPC   C2B14252  43.545  16.356   8.353
  777POPC   C3B14253  43.547  16.301   7.923
  777POPC   C4B14254  43.137  16.204   7.790
  778POPC   NC314255  20.181  44.067   9.610
  778POPC   PO414256  19.698  44.529   9.440
  778POPC   GL114257  19.916  44.538   9.098
  778POPC   GL214258  20.237  44.399   9.216
  778POPC   C1A14259  19.951  44.808   8.732
  778POPC   D2A14260  20.189  44.725   8.369
  778POPC   C3A14261  20.015  44.859   8.014
  778POPC   C4A14262  19.680  44.732   7.781
  778POPC   C1B14263  20.248  44.377   8.765
  778POPC   C2B14264  20.295  44.210   8.370
  778POPC   C3B14265  20.088  44.344   8.009
  778POPC   C4B14266  19.776  44.245   7.719
  779POPC   NC314267  28.218   4.919   9.508
  779POPC   PO414268  28.517   5.427   9.670
  779POPC   GL114269  28.503   5.388   9.196
  779POPC   GL214270  28.460   5.002   9.077
  779POPC   C1A14271  28.276   5.363   8.778
  779POPC   D2A14272  28.334   5.076   8.435
  779POPC   C3A14273  28.282   5.322   8.067
  779POPC   C4A14274  28.210   5.357   7.629
  779POPC   C1B14275  28.049   4.880   8.858
  779POPC   C2B14276  27.986   4.689   8.426
  779POPC   C3B14277  28.085   4.845   8.014
  779POPC   C4B14278  28.469   4.933   7.770
  780POPC   NC314279  34.515  30.637   9.464
  780POPC   PO414280  34.853  31.110   9.738
  780POPC   GL114281  34.784  30.946   9.205
  780POPC   GL214282  34.373  30.875   9.023
  780POPC   C1A14283  34.745  30.779   8.730
  780POPC   D2A14284  34.384  30.798   8.425
  780POPC   C3A14285  34.436  30.870   7.987
  780POPC   C4A14286  34.788  30.892   7.736
  780POPC   C1B14287  34.359  30.450   8.806
  780POPC   C2B14288  34.650  30.348   8.444
  780POPC   C3B14289  34.717  30.395   7.965
  780POPC   C4B14290  34.370  30.421   7.663
  781POPC   NC314291  12.677  13.116   9.424
  781POPC   PO414292  13.144  13.675   9.563
  781POPC   GL114293  12.864  13.563   9.246
  781POPC   GL214294  13.086  13.286   9.170
  781POPC   C1A14295  12.636  13.710   8.899
  781POPC   D2A14296  12.872  13.763   8.531
  781POPC   C3A14297  12.775  13.614   8.127
  781POPC   C4A14298  12.443  13.732   7.827
  781POPC   C1B14299  12.794  13.247   8.795
  781POPC   C2B14300  12.612  13.134   8.409
  781POPC   C3B14301  12.549  13.174   7.988
  781POPC   C4B14302  12.765  13.359   7.662
  782POPC   NC314303  41.314  43.390   9.419
  782POPC   PO414304  41.835  42.887   9.508
  782POPC   GL114305  41.649  43.092   9.168
  782POPC   GL214306  41.938  43.001   8.984
  782POPC   C1A14307  41.353  43.135   8.806
  782POPC   D2A14308  41.499  43.052   8.412
  782POPC   C3A14309  41.347  43.181   8.014
  782POPC   C4A14310  41.308  43.201   7.559
  782POPC   C1B14311  42.001  43.152   8.557
  782POPC   C2B14312  41.900  43.072   8.118
  782POPC   C3B14313  41.845  43.176   7.709
  782POPC   C4B14314  42.137  43.060   7.361
  783POPC   NC314315  23.356   0.670   9.306
  783POPC   PO414316  23.789   0.215   9.526
  783POPC   GL114317  23.927   0.395   9.135
  783POPC   GL214318  23.936   0.737   9.078
  783POPC   C1A14319  23.941   0.249   8.743
  783POPC   D2A14320  23.657   0.303   8.416
  783POPC   C3A14321  23.836   0.303   8.039
  783POPC   C4A14322  23.849   0.095   7.664
  783POPC   C1B14323  23.735   0.733   8.699
  783POPC   C2B14324  23.507   0.921   8.373
  783POPC   C3B14325  23.392   0.698   8.028
  783POPC   C4B14326  23.615   0.602   7.670
  784POPC   NC314327  10.270  14.024   9.564
  784POPC   PO414328  10.380  14.701   9.444
  784POPC   GL114329  10.311  14.547   9.082
  784POPC   GL214330  10.658  14.447   9.083
  784POPC   C1A14331  10.369  14.409   8.686
  784POPC   D2A14332  10.601  14.175   8.434
  784POPC   C3A14333  10.465  14.314   8.046
  784POPC   C4A14334  10.379  14.614   7.762
  784POPC   C1B14335  10.814  14.649   8.726
  784POPC   C2B14336  10.642  14.723   8.319
  784POPC   C3B14337  10.852  14.691   7.919
  784POPC   C4B14338  10.840  14.663   7.484
  785POPC   NC314339  27.924  13.618   9.580
  785POPC   PO414340  27.358  13.589   9.598
  785POPC   GL114341  27.472  13.461   9.159
  785POPC   GL214342  27.697  13.204   9.085
  785POPC   C1A14343  27.376  13.442   8.705
  785POPC   D2A14344  27.538  13.424   8.257
  785POPC   C3A14345  27.636  13.765   7.908
  785POPC   C4A14346  27.415  14.045   7.573
  785POPC   C1B14347  27.869  13.293   8.637
  785POPC   C2B14348  27.975  13.150   8.183
  785POPC   C3B14349  27.873  13.319   7.786
  785POPC   C4B14350  28.113  13.633   7.522
  786POPC   NC314351   9.135   2.355   9.514
  786POPC   PO414352   9.342   3.009   9.486
  786POPC   GL114353   9.076   2.943   9.110
  786POPC   GL214354   9.093   2.581   9.062
  786POPC   C1A14355   9.018   2.885   8.664
  786POPC   D2A14356   9.384   2.709   8.431
  786POPC   C3A14357   9.290   2.696   7.986
  786POPC   C4A14358   9.001   2.922   7.774
  786POPC   C1B14359   9.067   2.369   8.659
  786POPC   C2B14360   8.904   2.569   8.281
  786POPC   C3B14361   8.794   2.451   7.866
  786POPC   C4B14362   8.914   2.509   7.425
  787POPC   NC314363   3.932  27.897   9.554
  787POPC   PO414364   3.770  27.385   9.465
  787POPC   GL114365   3.573  27.678   9.131
  787POPC   GL214366   3.791  27.939   9.056
  787POPC   C1A14367   3.446  27.808   8.675
  787POPC   D2A14368   3.521  28.000   8.251
  787POPC   C3A14369   3.522  27.769   7.837
  787POPC   C4A14370   3.371  27.355   7.642
  787POPC   C1B14371   3.933  27.661   8.722
  787POPC   C2B14372   3.846  27.602   8.273
  787POPC   C3B14373   4.025  27.813   7.905
  787POPC   C4B14374   3.934  27.975   7.457
  788POPC   NC314375  30.260  30.258   9.546
  788POPC   PO414376  29.959  29.730   9.321
  788POPC   GL114377  29.906  30.000   9.014
  788POPC   GL214378  30.163  30.206   9.065
  788POPC   C1A14379  29.891  29.873   8.612
  788POPC   D2A14380  29.917  29.551   8.325
  788POPC   C3A14381  29.941  29.744   7.972
  788POPC   C4A14382  29.749  29.836   7.587
  788POPC   C1B14383  30.143  30.330   8.663
  788POPC   C2B14384  30.169  30.292   8.212
  788POPC   C3B14385  30.057  30.244   7.784
  788POPC   C4B14386  30.272  30.272   7.399
  789POPC   NC314387   7.271  32.622   9.393
  789POPC   PO414388   7.743  33.067   9.474
  789POPC   GL114389   7.587  32.968   9.131
  789POPC   GL214390   7.254  33.103   9.116
  789POPC   C1A14391   7.589  33.250   8.744
  789POPC   D2A14392   7.395  33.331   8.389
  789POPC   C3A14393   7.568  33.196   8.016
  789POPC   C4A14394   7.549  33.252   7.586
  789POPC   C1B14395   7.321  32.827   8.753
  789POPC   C2B14396   7.339  32.839   8.347
  789POPC   C3B14397   7.223  32.831   7.959
  789POPC   C4B14398   7.074  33.046   7.647
  790POPC   NC314399   6.664  11.707   9.575
  790POPC   PO414400   6.571  11.015   9.513
  790POPC   GL114401   6.731  11.299   9.216
  790POPC   GL214402   6.474  11.381   8.931
  790POPC   C1A14403   6.952  11.301   8.825
  790POPC   D2A14404   6.730  11.348   8.457
  790POPC   C3A14405   7.011  11.346   8.139
  790POPC   C4A14406   6.961  11.023   7.869
  790POPC   C1B14407   6.148  11.184   8.684
  790POPC   C2B14408   6.110  11.164   8.264
  790POPC   C3B14409   6.490  11.197   7.999
  790POPC   C4B14410   6.681  11.549   7.793
  791POPC   NC314411  44.201  25.457   9.490
  791POPC   PO414412  43.625  24.931   9.560
  791POPC   GL114413  43.910  25.095   9.222
  791POPC   GL214414  44.269  24.960   9.234
  791POPC   C1A14415  43.809  25.374   8.848
  791POPC   D2A14416  43.462  25.522   8.526
  791POPC   C3A14417  43.599  25.431   8.093
  791POPC   C4A14418  43.720  25.184   7.728
  791POPC   C1B14419  44.310  25.121   8.826
  791POPC   C2B14420  44.056  25.135   8.446
  791POPC   C3B14421  44.165  25.153   8.008
  791POPC   C4B14422  44.067  25.553   7.832
  792POPC   NC314423  13.932  39.169   9.677
  792POPC   PO414424  13.350  38.952   9.445
  792POPC   GL114425  13.545  39.183   9.149
  792POPC   GL214426  13.914  39.185   9.146
  792POPC   C1A14427  13.584  39.274   8.741
  792POPC   D2A14428  13.579  39.448   8.367
  792POPC   C3A14429  13.609  39.185   8.025
  792POPC   C4A14430  13.542  39.387   7.625
  792POPC   C1B14431  13.966  38.926   8.773
  792POPC   C2B14432  13.820  38.867   8.392
  792POPC   C3B14433  13.991  38.813   8.011
  792POPC   C4B14434  13.906  39.028   7.651
  793POPC   NC314435  18.272   8.819   9.586
  793POPC   PO414436  18.642   9.226   9.210
  793POPC   GL114437  18.625   8.881   8.959
  793POPC   GL214438  18.439   8.625   9.123
  793POPC   C1A14439  18.471   8.955   8.576
  793POPC   D2A14440  18.228   9.188   8.314
  793POPC   C3A14441  18.265   9.157   7.875
  793POPC   C4A14442  18.008   9.461   7.759
  793POPC   C1B14443  18.421   8.463   8.695
  793POPC   C2B14444  18.502   8.566   8.248
  793POPC   C3B14445  18.384   8.662   7.816
  793POPC   C4B14446  18.487   8.504   7.406
  794POPC   NC314447  17.960  36.390   9.479
  794POPC   PO414448  18.667  36.324   9.394
  794POPC   GL114449  18.368  36.372   9.094
  794POPC   GL214450  18.100  36.139   9.076
  794POPC   C1A14451  18.385  36.252   8.660
  794POPC   D2A14452  18.346  36.472   8.280
  794POPC   C3A14453  18.369  36.171   7.943
  794POPC   C4A14454  18.714  35.911   7.836
  794POPC   C1B14455  17.875  36.327   8.764
  794POPC   C2B14456  17.780  36.533   8.378
  794POPC   C3B14457  17.942  36.504   7.981
  794POPC   C4B14458  18.087  36.419   7.572
  795POPC   NC314459  31.602  33.679   9.606
  795POPC   PO414460  31.673  34.282   9.489
  795POPC   GL114461  31.450  34.065   9.155
  795POPC   GL214462  31.379  33.693   9.147
  795POPC   C1A14463  31.642  33.946   8.770
  795POPC   D2A14464  31.716  34.152   8.374
  795POPC   C3A14465  31.573  34.007   7.960
  795POPC   C4A14466  31.794  34.010   7.564
  795POPC   C1B14467  31.246  33.615   8.761
  795POPC   C2B14468  31.318  33.808   8.391
  795POPC   C3B14469  31.145  33.745   8.042
  795POPC   C4B14470  31.164  33.523   7.735
  796POPC   NC314471  42.073  30.625   9.316
  796POPC   PO414472  41.514  30.684   9.595
  796POPC   GL114473  41.477  30.589   9.158
  796POPC   GL214474  41.300  30.344   9.095
  796POPC   C1A14475  41.279  30.715   8.724
  796POPC   D2A14476  41.338  30.964   8.346
  796POPC   C3A14477  41.631  30.911   8.003
  796POPC   C4A14478  41.661  30.583   7.699
  796POPC   C1B14479  41.662  30.397   8.718
  796POPC   C2B14480  41.634  30.446   8.232
  796POPC   C3B14481  41.853  30.185   7.913
  796POPC   C4B14482  41.842  30.151   7.470
  797POPC   NC314483  42.744  11.387   9.935
  797POPC   PO414484  42.947  11.012   9.422
  797POPC   GL114485  43.304  11.057   9.100
  797POPC   GL214486  43.528  11.349   9.191
  797POPC   C1A14487  43.213  11.026   8.643
  797POPC   D2A14488  42.889  11.093   8.330
  797POPC   C3A14489  42.970  11.165   7.922
  797POPC   C4A14490  43.328  11.261   7.692
  797POPC   C1B14491  43.441  11.491   8.754
  797POPC   C2B14492  43.333  11.408   8.297
  797POPC   C3B14493  43.576  11.611   7.966
  797POPC   C4B14494  43.360  11.765   7.619
  798POPC   NC314495  28.408   9.891   9.499
  798POPC   PO414496  28.670   9.310   9.508
  798POPC   GL114497  28.468   9.513   9.146
  798POPC   GL214498  28.088   9.533   9.227
  798POPC   C1A14499  28.560   9.502   8.674
  798POPC   D2A14500  28.561   9.790   8.321
  798POPC   C3A14501  28.525   9.570   7.942
  798POPC   C4A14502  28.142   9.500   7.717
  798POPC   C1B14503  28.132   9.726   8.829
  798POPC   C2B14504  28.042   9.700   8.394
  798POPC   C3B14505  28.163   9.921   8.004
  798POPC   C4B14506  27.988   9.984   7.619
  799POPC   NC314507   5.120  20.187   9.507
  799POPC   PO414508   4.906  19.600   9.713
  799POPC   GL114509   4.975  19.779   9.241
  799POPC   GL214510   4.807  20.080   9.113
  799POPC   C1A14511   4.977  19.695   8.797
  799POPC   D2A14512   4.911  19.892   8.412
  799POPC   C3A14513   5.027  19.611   8.067
  799POPC   C4A14514   5.101  19.755   7.656
  799POPC   C1B14515   5.129  20.236   8.828
  799POPC   C2B14516   5.295  20.240   8.416
  799POPC   C3B14517   5.116  20.182   8.000
  799POPC   C4B14518   5.413  20.164   7.691
  800POPC   NC314519  35.567  16.476   9.415
  800POPC   PO414520  35.639  15.924   9.755
  800POPC   GL114521  35.363  16.047   9.224
  800POPC   GL214522  35.046  16.184   9.056
  800POPC   C1A14523  35.280  15.802   8.788
  800POPC   D2A14524  35.134  15.691   8.366
  800POPC   C3A14525  35.390  15.750   8.018
  800POPC   C4A14526  35.096  15.951   7.797
  800POPC   C1B14527  35.371  16.291   8.755
  800POPC   C2B14528  35.447  16.146   8.361
  800POPC   C3B14529  35.151  16.365   8.140
  800POPC   C4B14530  35.033  16.455   7.754
  801POPC   NC314531   3.702  42.435   9.446
  801POPC   PO414532   3.693  41.756   9.457
  801POPC   GL114533   3.464  42.068   9.183
  801POPC   GL214534   3.703  42.065   8.965
  801POPC   C1A14535   3.379  42.434   8.836
  801POPC   D2A14536   3.335  42.361   8.377
  801POPC   C3A14537   3.470  42.532   7.972
  801POPC   C4A14538   3.393  42.298   7.592
  801POPC   C1B14539   3.892  42.376   8.687
  801POPC   C2B14540   3.906  42.357   8.239
  801POPC   C3B14541   3.810  42.128   7.858
  801POPC   C4B14542   3.892  42.278   7.436
  802POPC   NC314543  16.336  20.930   9.433
  802POPC   PO414544  16.888  20.478   9.591
  802POPC   GL114545  16.722  20.496   9.172
  802POPC   GL214546  16.487  20.257   8.999
  802POPC   C1A14547  16.886  20.595   8.795
  802POPC   D2A14548  16.863  20.332   8.449
  802POPC   C3A14549  17.035  20.502   8.091
  802POPC   C4A14550  16.864  20.633   7.691
  802POPC   C1B14551  16.382  20.633   8.728
  802POPC   C2B14552  16.559  20.752   8.379
  802POPC   C3B14553  16.476  20.597   8.005
  802POPC   C4B14554  16.415  20.920   7.704
  803POPC   NC314555  10.894  19.621   9.341
  803POPC   PO414556  10.909  18.927   9.339
  803POPC   GL114557  11.279  19.069   9.093
  803POPC   GL214558  11.491  19.341   9.112
  803POPC   C1A14559  11.511  19.003   8.727
  803POPC   D2A14560  11.303  18.789   8.417
  803POPC   C3A14561  11.330  18.929   7.996
  803POPC   C4A14562  11.124  18.833   7.643
  803POPC   C1B14563  11.276  19.461   8.742
  803POPC   C2B14564  11.285  19.306   8.338
  803POPC   C3B14565  11.319  19.437   7.902
  803POPC   C4B14566  11.416  19.325   7.486
  804POPC   NC314567   9.169  30.487   9.799
  804POPC   PO414568   8.828  30.867   9.329
  804POPC   GL114569   8.865  30.806   8.959
  804POPC   GL214570   9.242  30.960   9.017
  804POPC   C1A14571   8.561  30.726   8.634
  804POPC   D2A14572   8.472  30.683   8.203
  804POPC   C3A14573   8.854  30.771   7.958
  804POPC   C4A14574   9.058  30.741   7.574
  804POPC   C1B14575   9.234  30.702   8.658
  804POPC   C2B14576   9.252  30.704   8.269
  804POPC   C3B14577   9.268  30.424   7.977
  804POPC   C4B14578   9.528  30.486   7.682
  805POPC   NC314579  44.436  42.532   9.471
  805POPC   PO414580   0.082  42.549   9.327
  805POPC   GL114581  44.891  42.277   9.051
  805POPC   GL214582  44.522  42.262   9.065
  805POPC   C1A14583  44.819  42.348   8.644
  805POPC   D2A14584   0.035  42.303   8.288
  805POPC   C3A14585  44.725  42.204   7.986
  805POPC   C4A14586  44.838  42.377   7.614
  805POPC   C1B14587  44.296  42.087   8.776
  805POPC   C2B14588  44.325  42.300   8.414
  805POPC   C3B14589  44.247  42.493   8.034
  805POPC   C4B14590  44.338  42.395   7.627
  806POPC   NC314591  25.887  35.009   9.351
  806POPC   PO414592  26.244  34.567   9.749
  806POPC   GL114593  26.277  34.489   9.219
  806POPC   GL214594  26.064  34.678   9.003
  806POPC   C1A14595  26.433  34.458   8.742
  806POPC   D2A14596  26.300  34.670   8.353
  806POPC   C3A14597  26.163  34.550   7.931
  806POPC   C4A14598  26.167  34.609   7.476
  806POPC   C1B14599  25.768  34.886   8.722
  806POPC   C2B14600  25.527  35.009   8.384
  806POPC   C3B14601  25.714  34.863   8.053
  806POPC   C4B14602  25.710  34.703   7.684
  807POPC   NC314603  31.297  31.793   9.348
  807POPC   PO414604  31.307  32.530   9.429
  807POPC   GL114605  31.524  32.227   9.161
  807POPC   GL214606  31.700  32.470   8.996
  807POPC   C1A14607  31.474  32.061   8.742
  807POPC   D2A14608  31.339  32.227   8.344
  807POPC   C3A14609  31.646  32.240   8.011
  807POPC   C4A14610  31.662  32.361   7.556
  807POPC   C1B14611  31.310  32.546   8.766
  807POPC   C2B14612  31.215  32.775   8.393
  807POPC   C3B14613  31.003  32.556   8.073
  807POPC   C4B14614  30.724  32.649   7.745
  808POPC   NC314615  43.713   6.265   9.553
  808POPC   PO414616  43.713   6.830   9.928
  808POPC   GL114617  43.848   6.732   9.382
  808POPC   GL214618  43.711   6.518   9.115
  808POPC   C1A14619  44.008   6.888   8.923
  808POPC   D2A14620  44.189   6.763   8.482
  808POPC   C3A14621  43.972   6.866   8.092
  808POPC   C4A14622  43.848   7.112   7.728
  808POPC   C1B14623  43.927   6.398   8.723
  808POPC   C2B14624  44.068   6.141   8.385
  808POPC   C3B14625  44.190   6.350   8.017
  808POPC   C4B14626  44.059   6.631   7.652
  809POPC   NC314627  43.651  13.585  10.035
  809POPC   PO414628  44.204  13.431   9.566
  809POPC   GL114629  44.223  13.445   9.119
  809POPC   GL214630  44.152  13.787   9.103
  809POPC   C1A14631  44.256  13.271   8.674
  809POPC   D2A14632  44.163  13.456   8.250
  809POPC   C3A14633  43.889  13.237   7.958
  809POPC   C4A14634  43.765  13.331   7.497
  809POPC   C1B14635  43.998  13.726   8.682
  809POPC   C2B14636  43.731  13.747   8.287
  809POPC   C3B14637  43.826  13.738   7.867
  809POPC   C4B14638  44.190  13.568   7.722
  810POPC   NC314639  10.281  32.534   9.246
  810POPC   PO414640  10.507  32.943   9.779
  810POPC   GL114641  10.546  33.000   9.292
  810POPC   GL214642  10.667  33.330   9.185
  810POPC   C1A14643  10.640  32.945   8.808
  810POPC   D2A14644  10.700  32.732   8.386
  810POPC   C3A14645  10.465  32.958   8.133
  810POPC   C4A14646  10.459  33.063   7.741
  810POPC   C1B14647  10.770  33.459   8.778
  810POPC   C2B14648  10.823  33.233   8.398
  810POPC   C3B14649  10.785  33.352   7.997
  810POPC   C4B14650  11.048  33.435   7.702
  811POPC   NC314651  29.111  33.065   9.634
  811POPC   PO414652  28.626  32.609   9.591
  811POPC   GL114653  28.845  32.912   9.209
  811POPC   GL214654  29.177  33.151   9.146
  811POPC   C1A14655  28.951  32.972   8.743
  811POPC   D2A14656  28.910  32.809   8.322
  811POPC   C3A14657  29.103  33.092   8.041
  811POPC   C4A14658  29.050  33.258   7.622
  811POPC   C1B14659  29.252  33.418   8.789
  811POPC   C2B14660  29.417  33.367   8.354
  811POPC   C3B14661  29.497  33.408   7.915
  811POPC   C4B14662  29.512  33.337   7.424
  812POPC   NC314663  33.636  24.881   9.390
  812POPC   PO414664  34.031  25.495   9.433
  812POPC   GL114665  33.804  25.319   9.093
  812POPC   GL214666  33.427  25.259   9.138
  812POPC   C1A14667  33.941  25.255   8.665
  812POPC   D2A14668  33.793  25.408   8.289
  812POPC   C3A14669  33.866  25.203   7.926
  812POPC   C4A14670  33.903  25.286   7.511
  812POPC   C1B14671  33.454  25.389   8.729
  812POPC   C2B14672  33.311  25.189   8.379
  812POPC   C3B14673  33.384  25.314   8.003
  812POPC   C4B14674  33.437  25.164   7.629
  813POPC   NC314675  10.359  22.949   9.282
  813POPC   PO414676  10.717  22.589   9.657
  813POPC   GL114677  10.707  22.645   9.122
  813POPC   GL214678  10.766  23.041   9.029
  813POPC   C1A14679  10.585  22.762   8.649
  813POPC   D2A14680  10.186  22.716   8.384
  813POPC   C3A14681  10.248  22.503   7.986
  813POPC   C4A14682  10.561  22.629   7.682
  813POPC   C1B14683  10.882  23.220   8.673
  813POPC   C2B14684  10.702  23.174   8.308
  813POPC   C3B14685  10.461  22.985   8.030
  813POPC   C4B14686  10.593  23.140   7.671
  814POPC   NC314687  18.640  17.226   9.589
  814POPC   PO414688  18.451  17.740   9.496
  814POPC   GL114689  18.241  17.732   9.100
  814POPC   GL214690  18.252  17.374   9.098
  814POPC   C1A14691  18.187  17.841   8.652
  814POPC   D2A14692  18.343  17.716   8.240
  814POPC   C3A14693  18.186  17.817   7.823
  814POPC   C4A14694  18.088  17.728   7.366
  814POPC   C1B14695  18.472  17.400   8.691
  814POPC   C2B14696  18.501  17.234   8.258
  814POPC   C3B14697  18.537  17.422   7.836
  814POPC   C4B14698  18.630  17.312   7.387
  815POPC   NC314699  15.825  37.558   9.636
  815POPC   PO414700  16.335  37.922   9.687
  815POPC   GL114701  16.188  37.787   9.248
  815POPC   GL214702  16.047  37.442   9.193
  815POPC   C1A14703  16.095  37.903   8.794
  815POPC   D2A14704  15.840  37.864   8.393
  815POPC   C3A14705  15.990  37.818   7.963
  815POPC   C4A14706  15.632  37.762   7.670
  815POPC   C1B14707  16.251  37.421   8.785
  815POPC   C2B14708  16.293  37.634   8.375
  815POPC   C3B14709  16.298  37.396   7.995
  815POPC   C4B14710  15.998  37.386   7.669
  816POPC   NC314711  12.690  44.267   9.521
  816POPC   PO414712  13.211  43.808   9.517
  816POPC   GL114713  12.969  43.722   9.152
  816POPC   GL214714  12.836  44.049   9.063
  816POPC   C1A14715  12.718  43.665   8.764
  816POPC   D2A14716  12.710  43.920   8.352
  816POPC   C3A14717  12.625  43.675   8.007
  816POPC   C4A14718  12.721  43.588   7.602
  816POPC   C1B14719  13.126  43.943   8.695
  816POPC   C2B14720  13.184  44.112   8.275
  816POPC   C3B14721  13.035  43.967   7.893
  816POPC   C4B14722  13.201  43.833   7.515
  817POPC   NC314723  14.481  33.952   9.953
  817POPC   PO414724  14.708  33.723   9.599
  817POPC   GL114725  14.527  33.741   9.131
  817POPC   GL214726  14.163  33.671   9.126
  817POPC   C1A14727  14.524  33.796   8.632
  817POPC   D2A14728  14.554  33.831   8.139
  817POPC   C3A14729  14.322  34.150   7.862
  817POPC   C4A14730  14.189  34.162   7.392
  817POPC   C1B14731  14.021  33.840   8.727
  817POPC   C2B14732  14.087  33.688   8.307
  817POPC   C3B14733  14.134  33.677   7.842
  817POPC   C4B14734  13.945  33.715   7.426
  818POPC   NC314735   6.221  31.098   9.375
  818POPC   PO414736   5.841  31.748   9.582
  818POPC   GL114737   5.780  31.655   9.144
  818POPC   GL214738   5.820  31.288   9.100
  818POPC   C1A14739   5.693  31.552   8.689
  818POPC   D2A14740   5.894  31.635   8.343
  818POPC   C3A14741   5.656  31.590   8.015
  818POPC   C4A14742   5.755  31.728   7.649
  818POPC   C1B14743   5.550  31.085   8.784
  818POPC   C2B14744   5.456  31.231   8.339
  818POPC   C3B14745   5.439  31.151   7.872
  818POPC   C4B14746   5.781  31.246   7.603
  819POPC   NC314747  22.830  17.814   9.496
  819POPC   PO414748  22.749  17.201   9.223
  819POPC   GL114749  22.970  17.422   8.967
  819POPC   GL214750  22.730  17.696   9.012
  819POPC   C1A14751  23.297  17.310   8.626
  819POPC   D2A14752  23.420  17.212   8.180
  819POPC   C3A14753  23.211  17.476   7.852
  819POPC   C4A14754  23.096  17.921   7.807
  819POPC   C1B14755  22.754  17.652   8.588
  819POPC   C2B14756  22.799  17.813   8.212
  819POPC   C3B14757  22.675  17.591   7.899
  819POPC   C4B14758  22.799  17.482   7.523
  820POPC   NC314759   7.921  14.858   9.448
  820POPC   PO414760   8.074  15.550   9.498
  820POPC   GL114761   7.949  15.288   9.153
  820POPC   GL214762   8.268  15.166   9.168
  820POPC   C1A14763   8.111  15.362   8.713
  820POPC   D2A14764   8.256  15.469   8.274
  820POPC   C3A14765   7.962  15.410   7.949
  820POPC   C4A14766   7.812  15.073   7.690
  820POPC   C1B14767   8.189  14.861   8.848
  820POPC   C2B14768   8.290  14.789   8.445
  820POPC   C3B14769   8.092  14.862   8.077
  820POPC   C4B14770   8.374  14.891   7.762
  821POPC   NC314771  17.095   1.292   9.611
  821POPC   PO414772  16.410   1.365   9.589
  821POPC   GL114773  16.672   1.106   9.330
  821POPC   GL214774  16.744   1.415   9.188
  821POPC   C1A14775  16.667   0.981   8.878
  821POPC   D2A14776  16.596   1.184   8.446
  821POPC   C3A14777  16.810   1.137   8.049
  821POPC   C4A14778  16.583   1.080   7.663
  821POPC   C1B14779  16.891   1.431   8.802
  821POPC   C2B14780  16.761   1.674   8.471
  821POPC   C3B14781  16.758   1.739   8.062
  821POPC   C4B14782  16.846   1.519   7.691
  822POPC   NC314783  31.249   8.444   9.340
  822POPC   PO414784  30.764   8.104   9.610
  822POPC   GL114785  30.760   8.368   9.239
  822POPC   GL214786  30.569   8.245   9.060
  822POPC   C1A14787  30.969   8.364   8.781
  822POPC   D2A14788  30.870   8.376   8.361
  822POPC   C3A14789  30.675   8.081   8.139
  822POPC   C4A14790  30.694   8.099   7.715
  822POPC   C1B14791  30.519   8.575   8.751
  822POPC   C2B14792  30.370   8.447   8.342
  822POPC   C3B14793  30.531   8.532   7.927
  822POPC   C4B14794  30.346   8.471   7.530
  823POPC   NC314795  34.368  42.071   9.315
  823POPC   PO414796  34.942  42.397   9.619
  823POPC   GL114797  34.756  42.352   9.172
  823POPC   GL214798  34.418  42.541   9.090
  823POPC   C1A14799  34.640  42.243   8.729
  823POPC   D2A14800  34.721  42.434   8.353
  823POPC   C3A14801  34.573  42.316   7.951
  823POPC   C4A14802  34.715  42.669   7.734
  823POPC   C1B14803  34.106  42.427   8.772
  823POPC   C2B14804  34.158  42.370   8.327
  823POPC   C3B14805  34.042  42.251   7.909
  823POPC   C4B14806  34.235  41.977   7.584
  824POPC   NC314807  34.827   7.556   9.368
  824POPC   PO414808  34.284   7.446   9.670
  824POPC   GL114809  34.350   7.570   9.196
  824POPC   GL214810  34.543   7.383   8.993
  824POPC   C1A14811  34.224   7.641   8.725
  824POPC   D2A14812  34.509   7.472   8.396
  824POPC   C3A14813  34.511   7.347   7.956
  824POPC   C4A14814  34.288   7.131   7.633
  824POPC   C1B14815  34.862   7.616   8.748
  824POPC   C2B14816  34.944   7.721   8.334
  824POPC   C3B14817  34.778   7.792   7.945
  824POPC   C4B14818  34.801   7.572   7.540
  825POPC   NC314819   0.608   9.580   9.370
  825POPC   PO414820   0.170   9.903   9.737
  825POPC   GL114821   0.510  10.057   9.220
  825POPC   GL214822   0.235  10.118   8.940
  825POPC   C1A14823   0.642   9.811   8.782
  825POPC   D2A14824   0.563   9.589   8.382
  825POPC   C3A14825   0.763   9.425   8.037
  825POPC   C4A14826   0.659   9.672   7.721
  825POPC   C1B14827   0.153   9.721   8.650
  825POPC   C2B14828   0.062   9.507   8.301
  825POPC   C3B14829   0.183   9.589   7.901
  825POPC   C4B14830   0.063   9.463   7.512
  826POPC   NC314831   7.108  44.278   9.510
  826POPC   PO414832   7.299  44.936   9.640
  826POPC   GL114833   7.250  44.677   9.206
  826POPC   GL214834   6.985  44.873   9.107
  826POPC   C1A14835   7.531  44.590   8.800
  826POPC   D2A14836   7.764  44.734   8.448
  826POPC   C3A14837   7.606  44.609   8.056
  826POPC   C4A14838   7.631  44.479   7.654
  826POPC   C1B14839   7.038  44.667   8.719
  826POPC   C2B14840   7.170  44.749   8.322
  826POPC   C3B14841   7.101  44.622   7.913
  826POPC   C4B14842   7.210  44.798   7.554
  827POPC   NC314843  29.528  33.477   9.412
  827POPC   PO414844  30.200  33.525   9.377
  827POPC   GL114845  29.882  33.691   9.101
  827POPC   GL214846  29.781  34.035   9.143
  827POPC   C1A14847  29.728  33.600   8.712
  827POPC   D2A14848  29.763  33.759   8.313
  827POPC   C3A14849  29.985  33.570   7.987
  827POPC   C4A14850  29.781  33.734   7.664
  827POPC   C1B14851  29.822  34.118   8.726
  827POPC   C2B14852  30.033  34.187   8.345
  827POPC   C3B14853  29.846  34.239   7.936
  827POPC   C4B14854  29.681  34.201   7.484
  828POPC   NC314855  18.526  23.995   9.512
  828POPC   PO414856  18.174  23.409   9.464
  828POPC   GL114857  18.226  23.541   9.098
  828POPC   GL214858  18.556  23.638   9.110
  828POPC   C1A14859  18.101  23.558   8.666
  828POPC   D2A14860  18.005  23.802   8.300
  828POPC   C3A14861  18.367  23.689   8.043
  828POPC   C4A14862  18.369  23.297   7.854
  828POPC   C1B14863  18.343  23.980   8.858
  828POPC   C2B14864  18.448  24.028   8.434
  828POPC   C3B14865  18.431  24.195   8.012
  828POPC   C4B14866  18.677  24.184   7.603
  829POPC   NC314867  17.073  36.663   9.720
  829POPC   PO414868  16.566  37.056   9.587
  829POPC   GL114869  16.748  36.768   9.244
  829POPC   GL214870  17.106  36.631   9.226
  829POPC   C1A14871  16.632  36.694   8.806
  829POPC   D2A14872  16.390  36.942   8.493
  829POPC   C3A14873  16.509  36.904   8.042
  829POPC   C4A14874  16.667  36.710   7.612
  829POPC   C1B14875  17.099  36.859   8.846
  829POPC   C2B14876  16.894  36.914   8.420
  829POPC   C3B14877  17.020  36.879   8.000
  829POPC   C4B14878  17.173  36.793   7.611
  830POPC   NC314879  19.563  19.220   9.554
  830POPC   PO414880  20.154  19.034   9.442
  830POPC   GL114881  19.868  19.082   9.110
  830POPC   GL214882  19.712  19.371   9.107
  830POPC   C1A14883  19.838  19.012   8.669
  830POPC   D2A14884  20.010  18.869   8.274
  830POPC   C3A14885  19.755  18.814   7.908
  830POPC   C4A14886  19.956  18.780   7.492
  830POPC   C1B14887  19.905  19.509   8.761
  830POPC   C2B14888  19.796  19.429   8.368
  830POPC   C3B14889  19.922  19.299   7.984
  830POPC   C4B14890  19.734  19.217   7.597
  831POPC   NC314891  29.829   0.345   9.567
  831POPC   PO414892  30.288   0.939   9.498
  831POPC   GL114893  30.098   0.628   9.216
  831POPC   GL214894  30.158   0.253   9.175
  831POPC   C1A14895  29.894   0.531   8.832
  831POPC   D2A14896  30.064   0.505   8.414
  831POPC   C3A14897  29.714   0.520   8.133
  831POPC   C4A14898  29.507   0.715   7.816
  831POPC   C1B14899  30.152   0.097   8.743
  831POPC   C2B14900  29.920   0.004   8.348
  831POPC   C3B14901  29.871   0.085   7.901
  831POPC   C4B14902  29.490   0.220   7.719
  832POPC   NC314903   5.438  20.848   9.568
  832POPC   PO414904   4.753  20.563   9.490
  832POPC   GL114905   5.106  20.621   9.234
  832POPC   GL214906   4.828  20.646   9.001
  832POPC   C1A14907   5.298  20.730   8.861
  832POPC   D2A14908   5.031  20.664   8.518
  832POPC   C3A14909   5.194  20.663   8.139
  832POPC   C4A14910   5.339  20.674   7.720
  832POPC   C1B14911   4.644  20.379   8.738
  832POPC   C2B14912   4.662  20.346   8.325
  832POPC   C3B14913   4.653  20.713   8.087
  832POPC   C4B14914   4.847  20.634   7.747
  833POPC   NC314915  14.580  36.438   9.271
  833POPC   PO414916  14.187  36.895   9.753
  833POPC   GL114917  14.188  36.927   9.231
  833POPC   GL214918  13.986  36.745   9.061
  833POPC   C1A14919  14.421  36.919   8.814
  833POPC   D2A14920  14.478  36.666   8.428
  833POPC   C3A14921  14.591  36.813   8.027
  833POPC   C4A14922  14.395  37.102   7.751
  833POPC   C1B14923  14.052  36.581   8.723
  833POPC   C2B14924  13.974  36.522   8.356
  833POPC   C3B14925  14.101  36.731   8.035
  833POPC   C4B14926  14.228  36.627   7.637
  834POPC   NC314927  28.844  42.177   9.463
  834POPC   PO414928  29.377  42.534   9.592
  834POPC   GL114929  29.225  42.374   9.178
  834POPC   GL214930  28.906  42.566   9.082
  834POPC   C1A14931  29.338  42.249   8.753
  834POPC   D2A14932  29.453  42.506   8.381
  834POPC   C3A14933  29.314  42.373   7.954
  834POPC   C4A14934  29.270  41.929   7.809
  834POPC   C1B14935  28.958  42.569   8.644
  834POPC   C2B14936  29.010  42.197   8.364
  834POPC   C3B14937  28.839  42.161   7.978
  834POPC   C4B14938  28.741  42.507   7.697
  835POPC   NC314939  29.431   4.735   9.582
  835POPC   PO414940  30.130   4.600   9.602
  835POPC   GL114941  29.998   4.377   9.223
  835POPC   GL214942  29.677   4.496   9.218
  835POPC   C1A14943  29.830   4.257   8.818
  835POPC   D2A14944  29.837   4.481   8.467
  835POPC   C3A14945  29.861   4.301   8.097
  835POPC   C4A14946  29.981   4.057   7.770
  835POPC   C1B14947  29.515   4.667   8.812
  835POPC   C2B14948  29.554   4.884   8.368
  835POPC   C3B14949  29.671   4.786   7.950
  835POPC   C4B14950  29.750   4.485   7.643
  836POPC   NC314951  19.305  32.482   9.483
  836POPC   PO414952  18.928  31.983   9.393
  836POPC   GL114953  19.112  32.289   9.057
  836POPC   GL214954  19.464  32.432   9.009
  836POPC   C1A14955  19.125  32.432   8.625
  836POPC   D2A14956  19.166  32.175   8.273
  836POPC   C3A14957  18.861  32.112   7.961
  836POPC   C4A14958  18.958  32.074   7.553
  836POPC   C1B14959  19.547  32.727   8.670
  836POPC   C2B14960  19.355  32.709   8.238
  836POPC   C3B14961  19.284  32.453   7.857
  836POPC   C4B14962  19.187  32.551   7.440
  837POPC   NC314963   2.327  37.529   9.600
  837POPC   PO414964   2.506  38.112   9.450
  837POPC   GL114965   2.620  37.785   9.164
  837POPC   GL214966   2.802  37.471   9.262
  837POPC   C1A14967   2.833  37.757   8.767
  837POPC   D2A14968   2.752  37.759   8.322
  837POPC   C3A14969   3.025  37.460   8.127
  837POPC   C4A14970   3.200  37.800   7.916
  837POPC   C1B14971   2.765  37.267   8.840
  837POPC   C2B14972   2.619  37.280   8.452
  837POPC   C3B14973   2.508  37.356   8.047
  837POPC   C4B14974   2.733  37.486   7.689
  838POPC   NC314975   0.965   7.341   9.673
  838POPC   PO414976   1.485   7.649   9.448
  838POPC   GL114977   1.263   7.453   9.099
  838POPC   GL214978   0.898   7.447   9.166
  838POPC   C1A14979   1.119   7.613   8.681
  838POPC   D2A14980   0.812   7.677   8.358
  838POPC   C3A14981   0.993   7.556   7.975
  838POPC   C4A14982   1.257   7.267   7.756
  838POPC   C1B14983   0.919   7.155   8.793
  838POPC   C2B14984   1.033   7.160   8.333
  838POPC   C3B14985   0.800   7.087   7.933
  838POPC   C4B14986   0.825   7.150   7.483
  839POPC   NC314987  32.430  34.227   9.488
  839POPC   PO414988  32.398  33.590   9.574
  839POPC   GL114989  32.458  33.718   9.155
  839POPC   GL214990  32.783  33.895   9.193
  839POPC   C1A14991  32.166  33.760   8.770
  839POPC   D2A14992  31.881  33.675   8.397
  839POPC   C3A14993  32.067  33.871   8.027
  839POPC   C4A14994  32.311  33.872   7.615
  839POPC   C1B14995  32.636  34.023   8.779
  839POPC   C2B14996  32.630  34.117   8.329
  839POPC   C3B14997  32.723  34.007   7.903
  839POPC   C4B14998  32.678  34.201   7.476
  840POPC   NC314999   5.408  18.648   9.504
  840POPC   PO415000   4.919  18.168   9.457
  840POPC   GL115001   5.170  18.364   9.126
  840POPC   GL215002   5.540  18.327   9.134
  840POPC   C1A15003   5.018  18.483   8.697
  840POPC   D2A15004   4.765  18.256   8.407
  840POPC   C3A15005   4.805  18.445   8.037
  840POPC   C4A15006   5.083  18.141   7.868
  840POPC   C1B15007   5.422  18.147   8.748
  840POPC   C2B15008   5.283  18.205   8.347
  840POPC   C3B15009   5.543  18.285   8.043
  840POPC   C4B15010   5.693  18.341   7.664
  841POPC   NC315011   7.195   4.609   9.527
  841POPC   PO415012   7.357   5.351   9.447
  841POPC   GL115013   7.356   5.191   9.046
  841POPC   GL215014   7.450   4.841   9.135
  841POPC   C1A15015   7.577   5.056   8.681
  841POPC   D2A15016   7.586   4.853   8.309
  841POPC   C3A15017   7.710   5.067   7.994
  841POPC   C4A15018   7.451   5.298   7.749
  841POPC   C1B15019   7.217   4.661   8.765
  841POPC   C2B15020   7.186   4.555   8.294
  841POPC   C3B15021   7.203   4.845   7.908
  841POPC   C4B15022   7.182   4.972   7.477
  842POPC   NC315023  14.510  38.290   9.750
  842POPC   PO415024  14.176  38.836   9.465
  842POPC   GL115025  14.245  38.590   9.104
  842POPC   GL215026  14.507  38.335   9.208
  842POPC   C1A15027  14.057  38.397   8.700
  842POPC   D2A15028  14.018  38.089   8.335
  842POPC   C3A15029  14.174  38.307   7.983
  842POPC   C4A15030  14.481  38.639   7.897
  842POPC   C1B15031  14.626  38.449   8.778
  842POPC   C2B15032  14.723  38.356   8.346
  842POPC   C3B15033  14.661  38.156   7.973
  842POPC   C4B15034  14.872  37.984   7.686
  843POPC   NC315035   3.979  14.549   9.902
  843POPC   PO415036   3.403  14.202   9.710
  843POPC   GL115037   3.381  14.329   9.236
  843POPC   GL215038   3.653  14.260   9.081
  843POPC   C1A15039   3.402  14.578   8.789
  843POPC   D2A15040   3.444  14.373   8.357
  843POPC   C3A15041   3.744  14.487   8.018
  843POPC   C4A15042   3.686  14.756   7.679
  843POPC   C1B15043   3.821  14.297   8.691
  843POPC   C2B15044   3.877  14.077   8.291
  843POPC   C3B15045   3.617  14.010   7.911
  843POPC   C4B15046   3.525  14.283   7.570
  844POPC   NC315047  10.604  20.534   9.628
  844POPC   PO415048  10.046  20.886   9.573
  844POPC   GL115049  10.235  20.541   9.268
  844POPC   GL215050  10.609  20.464   9.141
  844POPC   C1A15051  10.190  20.527   8.827
  844POPC   D2A15052  10.099  20.895   8.551
  844POPC   C3A15053  10.264  20.968   8.122
  844POPC   C4A15054  10.328  20.670   7.813
  844POPC   C1B15055  10.710  20.485   8.728
  844POPC   C2B15056  10.459  20.519   8.362
  844POPC   C3B15057  10.750  20.681   8.080
  844POPC   C4B15058  10.840  20.635   7.655
  845POPC   NC315059   7.787   7.529   9.257
  845POPC   PO415060   8.497   7.460   9.447
  845POPC   GL115061   8.255   7.378   9.087
  845POPC   GL215062   8.415   7.731   9.011
  845POPC   C1A15063   7.975   7.180   8.732
  845POPC   D2A15064   8.231   7.211   8.399
  845POPC   C3A15065   8.075   7.313   8.067
  845POPC   C4A15066   8.111   7.399   7.657
  845POPC   C1B15067   8.153   7.651   8.665
  845POPC   C2B15068   7.820   7.661   8.355
  845POPC   C3B15069   7.969   7.798   7.941
  845POPC   C4B15070   8.089   7.871   7.493
  846POPC   NC315071  33.168  42.605   9.910
  846POPC   PO415072  32.769  43.064   9.646
  846POPC   GL115073  33.021  43.146   9.276
  846POPC   GL215074  33.084  42.907   9.079
  846POPC   C1A15075  32.901  43.355   8.889
  846POPC   D2A15076  32.926  43.164   8.480
  846POPC   C3A15077  32.866  43.287   8.051
  846POPC   C4A15078  33.166  43.310   7.758
  846POPC   C1B15079  33.278  42.854   8.751
  846POPC   C2B15080  33.390  42.946   8.389
  846POPC   C3B15081  33.132  42.877   8.079
  846POPC   C4B15082  33.109  42.790   7.659
  847POPC   NC315083  27.946  12.619   9.521
  847POPC   PO415084  27.357  12.819   9.602
  847POPC   GL115085  27.500  12.731   9.225
  847POPC   GL215086  27.453  12.389   9.270
  847POPC   C1A15087  27.415  12.893   8.803
  847POPC   D2A15088  27.616  12.896   8.427
  847POPC   C3A15089  27.486  13.001   8.010
  847POPC   C4A15090  27.337  13.349   7.801
  847POPC   C1B15091  27.542  12.394   8.815
  847POPC   C2B15092  27.589  12.395   8.346
  847POPC   C3B15093  27.818  12.635   8.029
  847POPC   C4B15094  27.808  12.684   7.576
  848POPC   NC315095  28.741  30.096   9.351
  848POPC   PO415096  28.205  29.914   9.566
  848POPC   GL115097  28.328  29.846   9.153
  848POPC   GL215098  28.107  30.122   9.059
  848POPC   C1A15099  28.487  29.934   8.724
  848POPC   D2A15100  28.694  29.794   8.350
  848POPC   C3A15101  28.599  29.934   7.930
  848POPC   C4A15102  28.565  29.860   7.476
  848POPC   C1B15103  28.008  29.747   8.780
  848POPC   C2B15104  28.000  29.800   8.362
  848POPC   C3B15105  28.077  29.747   7.954
  848POPC   C4B15106  28.150  30.114   7.727
  849POPC   NC315107  32.645  18.513   9.313
  849POPC   PO415108  33.348  18.422   9.458
  849POPC   GL115109  33.109  18.258   9.107
  849POPC   GL215110  32.842  18.393   8.867
  849POPC   C1A15111  33.244  18.097   8.725
  849POPC   D2A15112  32.971  18.081   8.413
  849POPC   C3A15113  33.142  18.148   8.042
  849POPC   C4A15114  33.023  18.373   7.698
  849POPC   C1B15115  32.766  17.935   8.857
  849POPC   C2B15116  32.623  17.730   8.481
  849POPC   C3B15117  32.714  17.845   8.046
  849POPC   C4B15118  33.035  17.712   7.768
  850POPC   NC315119  11.257  44.818   9.487
  850POPC   PO415120  11.495  44.214   9.228
  850POPC   GL115121  11.230  44.518   9.065
  850POPC   GL215122  11.452  44.774   9.033
  850POPC   C1A15123  11.067  44.610   8.661
  850POPC   D2A15124  11.182  44.341   8.298
  850POPC   C3A15125  11.075  44.256   7.863
  850POPC   C4A15126  11.360  44.254   7.543
  850POPC   C1B15127  11.558  44.830   8.643
  850POPC   C2B15128  11.343  44.834   8.265
  850POPC   C3B15129  11.433  44.620   7.891
  850POPC   C4B15130  11.266  44.753   7.430
  851POPC   NC315131  16.645  26.527   9.514
  851POPC   PO415132  16.218  26.900   9.467
  851POPC   GL115133  16.598  26.937   9.168
  851POPC   GL215134  16.929  26.792   9.185
  851POPC   C1A15135  16.841  27.049   8.762
  851POPC   D2A15136  16.710  26.847   8.369
  851POPC   C3A15137  16.916  26.981   8.039
  851POPC   C4A15138  16.798  27.114   7.644
  851POPC   C1B15139  16.812  26.565   8.803
  851POPC   C2B15140  16.971  26.399   8.385
  851POPC   C3B15141  16.942  26.468   7.929
  851POPC   C4B15142  16.542  26.667   7.832
  852POPC   NC315143   8.521  15.637   9.267
  852POPC   PO415144   9.029  15.398   9.632
  852POPC   GL115145   9.119  15.237   9.218
  852POPC   GL215146   8.784  15.181   9.119
  852POPC   C1A15147   9.163  14.983   8.808
  852POPC   D2A15148   9.017  14.990   8.360
  852POPC   C3A15149   9.182  15.238   7.994
  852POPC   C4A15150   9.035  15.072   7.588
  852POPC   C1B15151   8.919  15.448   8.751
  852POPC   C2B15152   8.812  15.498   8.303
  852POPC   C3B15153   8.670  15.366   7.882
  852POPC   C4B15154   8.791  15.542   7.482
  853POPC   NC315155  35.788  10.313   9.668
  853POPC   PO415156  36.198  10.810   9.538
  853POPC   GL115157  36.017  10.443   9.213
  853POPC   GL215158  35.720  10.189   9.161
  853POPC   C1A15159  36.005  10.341   8.744
  853POPC   D2A15160  36.168  10.669   8.472
  853POPC   C3A15161  36.189  10.723   8.045
  853POPC   C4A15162  36.431  10.395   7.841
  853POPC   C1B15163  35.748   9.885   8.771
  853POPC   C2B15164  35.961   9.881   8.394
  853POPC   C3B15165  35.962  10.274   8.186
  853POPC   C4B15166  35.919  10.401   7.762
  854POPC   NC315167  15.123  26.430   9.491
  854POPC   PO415168  15.599  25.867   9.501
  854POPC   GL115169  15.316  26.054   9.146
  854POPC   GL215170  14.980  26.238   9.066
  854POPC   C1A15171  15.147  25.868   8.780
  854POPC   D2A15172  15.327  25.825   8.410
  854POPC   C3A15173  15.074  25.854   8.047
  854POPC   C4A15174  15.362  25.888   7.702
  854POPC   C1B15175  15.226  26.374   8.725
  854POPC   C2B15176  15.054  26.280   8.341
  854POPC   C3B15177  15.221  26.369   7.939
  854POPC   C4B15178  14.943  26.460   7.620
  855POPC   NC315179  12.782  15.969   9.679
  855POPC   PO415180  12.371  16.363   9.301
  855POPC   GL115181  12.707  16.002   9.188
  855POPC   GL215182  13.047  15.976   9.220
  855POPC   C1A15183  12.813  15.668   8.844
  855POPC   D2A15184  12.738  15.787   8.381
  855POPC   C3A15185  12.679  15.844   7.905
  855POPC   C4A15186  12.732  16.197   7.607
  855POPC   C1B15187  13.130  16.079   8.799
  855POPC   C2B15188  13.272  15.767   8.497
  855POPC   C3B15189  13.135  15.609   8.096
  855POPC   C4B15190  13.241  15.756   7.702
  856POPC   NC315191  22.060  40.532   9.476
  856POPC   PO415192  22.338  41.155   9.599
  856POPC   GL115193  22.367  40.911   9.240
  856POPC   GL215194  22.524  40.597   9.237
  856POPC   C1A15195  22.187  40.813   8.852
  856POPC   D2A15196  22.105  41.050   8.493
  856POPC   C3A15197  22.180  40.826   8.151
  856POPC   C4A15198  22.323  40.854   7.756
  856POPC   C1B15199  22.493  40.378   8.827
  856POPC   C2B15200  22.253  40.405   8.436
  856POPC   C3B15201  22.422  40.400   8.020
  856POPC   C4B15202  22.496  40.303   7.603
  857POPC   NC315203  14.667  39.843   9.756
  857POPC   PO415204  15.301  40.033   9.555
  857POPC   GL115205  15.007  40.084   9.243
  857POPC   GL215206  14.883  40.430   9.218
  857POPC   C1A15207  15.163  40.087   8.840
  857POPC   D2A15208  15.382  40.212   8.478
  857POPC   C3A15209  15.259  39.975   8.110
  857POPC   C4A15210  15.214  40.106   7.687
  857POPC   C1B15211  14.819  40.464   8.759
  857POPC   C2B15212  14.872  40.174   8.415
  857POPC   C3B15213  14.791  40.155   7.962
  857POPC   C4B15214  14.760  40.230   7.490
  858POPC   NC315215  19.510  44.027   9.369
  858POPC   PO415216  20.137  43.631   9.467
  858POPC   GL115217  19.827  43.656   9.157
  858POPC   GL215218  19.925  44.002   9.052
  858POPC   C1A15219  19.697  43.669   8.717
  858POPC   D2A15220  19.817  43.973   8.423
  858POPC   C3A15221  19.524  43.976   8.088
  858POPC   C4A15222  19.644  43.765   7.738
  858POPC   C1B15223  20.219  43.731   8.795
  858POPC   C2B15224  20.421  43.704   8.370
  858POPC   C3B15225  20.131  43.817   8.031
  858POPC   C4B15226  20.214  44.011   7.648
  859POPC   NC315227  16.851  17.396   9.630
  859POPC   PO415228  16.956  17.991   9.643
  859POPC   GL115229  16.777  17.771   9.275
  859POPC   GL215230  16.467  17.881   9.177
  859POPC   C1A15231  16.720  17.474   8.903
  859POPC   D2A15232  16.836  17.590   8.437
  859POPC   C3A15233  16.594  17.455   8.056
  859POPC   C4A15234  16.670  17.126   7.751
  859POPC   C1B15235  16.711  17.955   8.783
  859POPC   C2B15236  16.800  18.129   8.387
  859POPC   C3B15237  16.814  17.926   7.989
  859POPC   C4B15238  16.657  17.736   7.598
  860POPC   NC315239  42.096   3.077   9.319
  860POPC   PO415240  42.461   3.583   9.508
  860POPC   GL115241  42.379   3.521   9.113
  860POPC   GL215242  42.028   3.525   9.089
  860POPC   C1A15243  42.589   3.551   8.723
  860POPC   D2A15244  42.801   3.417   8.332
  860POPC   C3A15245  42.536   3.426   7.954
  860POPC   C4A15246  42.325   3.775   7.731
  860POPC   C1B15247  42.123   3.320   8.708
  860POPC   C2B15248  41.902   3.252   8.358
  860POPC   C3B15249  41.845   3.057   7.994
  860POPC   C4B15250  42.049   3.315   7.652
  861POPC   NC315251  20.875  31.562   9.480
  861POPC   PO415252  20.509  31.048   9.443
  861POPC   GL115253  20.463  31.374   9.111
  861POPC   GL215254  20.583  31.721   9.090
  861POPC   C1A15255  20.390  31.465   8.677
  861POPC   D2A15256  20.364  31.633   8.271
  861POPC   C3A15257  20.470  31.375   7.947
  861POPC   C4A15258  20.842  31.329   7.751
  861POPC   C1B15259  20.965  31.718   8.824
  861POPC   C2B15260  21.020  31.822   8.352
  861POPC   C3B15261  20.795  31.794   7.927
  861POPC   C4B15262  20.923  31.786   7.473
  862POPC   NC315263  22.388   8.295   9.797
  862POPC   PO415264  22.026   8.678   9.652
  862POPC   GL115265  22.113   8.386   9.270
  862POPC   GL215266  21.840   8.223   9.074
  862POPC   C1A15267  22.266   8.285   8.809
  862POPC   D2A15268  22.160   8.016   8.434
  862POPC   C3A15269  22.281   8.165   7.990
  862POPC   C4A15270  22.198   8.390   7.584
  862POPC   C1B15271  21.787   8.366   8.624
  862POPC   C2B15272  21.817   8.301   8.163
  862POPC   C3B15273  21.825   8.080   7.753
  862POPC   C4B15274  21.831   8.130   7.282
  863POPC   NC315275   6.491   7.273   9.546
  863POPC   PO415276   6.982   7.786   9.465
  863POPC   GL115277   6.720   7.525   9.177
  863POPC   GL215278   6.856   7.173   9.179
  863POPC   C1A15279   6.485   7.439   8.796
  863POPC   D2A15280   6.511   7.644   8.411
  863POPC   C3A15281   6.389   7.473   8.021
  863POPC   C4A15282   6.698   7.557   7.703
  863POPC   C1B15283   6.772   7.025   8.758
  863POPC   C2B15284   6.557   7.107   8.375
  863POPC   C3B15285   6.733   7.103   7.946
  863POPC   C4B15286   6.598   7.114   7.511
  864POPC   NC315287  43.971  11.429   9.504
  864POPC   PO415288  43.756  10.797   9.542
  864POPC   GL115289  43.848  10.943   9.134
  864POPC   GL215290  44.010  11.254   9.050
  864POPC   C1A15291  43.710  11.065   8.721
  864POPC   D2A15292  43.817  11.328   8.389
  864POPC   C3A15293  43.689  11.104   8.023
  864POPC   C4A15294  43.882  11.267   7.685
  864POPC   C1B15295  44.136  11.513   8.752
  864POPC   C2B15296  44.258  11.597   8.343
  864POPC   C3B15297  44.093  11.676   7.951
  864POPC   C4B15298  44.311  11.575   7.570
  865POPC   NC315299  18.547  10.390   9.583
  865POPC   PO415300  17.877  10.544   9.433
  865POPC   GL115301  18.238  10.489   9.188
  865POPC   GL215302  18.057  10.610   8.934
  865POPC   C1A15303  18.554  10.408   8.857
  865POPC   D2A15304  18.451  10.539   8.436
  865POPC   C3A15305  18.520  10.289   8.062
  865POPC   C4A15306  18.567  10.618   7.767
  865POPC   C1B15307  18.088  10.284   8.682
  865POPC   C2B15308  18.026  10.295   8.272
  865POPC   C3B15309  18.078  10.570   7.926
  865POPC   C4B15310  18.023  10.625   7.440
  866POPC   NC315311  28.042  18.225   9.449
  866POPC   PO415312  28.517  18.520   9.780
  866POPC   GL115313  28.398  18.503   9.240
  866POPC   GL215314  28.150  18.699   9.066
  866POPC   C1A15315  28.259  18.249   8.843
  866POPC   D2A15316  28.063  18.049   8.485
  866POPC   C3A15317  28.050  18.328   8.182
  866POPC   C4A15318  28.138  18.279   7.752
  866POPC   C1B15319  28.388  18.710   8.668
  866POPC   C2B15320  28.771  18.632   8.407
  866POPC   C3B15321  28.808  18.469   7.971
  866POPC   C4B15322  28.600  18.412   7.562
  867POPC   NC315323  22.765  23.218   9.530
  867POPC   PO415324  22.861  23.835   9.584
  867POPC   GL115325  22.944  23.846   9.161
  867POPC   GL215326  23.034  23.514   9.177
  867POPC   C1A15327  22.819  23.934   8.722
  867POPC   D2A15328  22.766  23.684   8.347
  867POPC   C3A15329  22.912  23.792   7.983
  867POPC   C4A15330  22.806  23.964   7.614
  867POPC   C1B15331  22.901  23.434   8.791
  867POPC   C2B15332  22.868  23.190   8.434
  867POPC   C3B15333  22.667  23.319   7.998
  867POPC   C4B15334  22.827  23.469   7.596
  868POPC   NC315335   0.896  21.479   9.464
  868POPC   PO415336   0.308  21.225   9.881
  868POPC   GL115337   0.242  21.331   9.378
  868POPC   GL215338  44.891  21.201   9.276
  868POPC   C1A15339   0.481  21.413   8.941
  868POPC   D2A15340   0.636  21.505   8.487
  868POPC   C3A15341   0.543  21.218   8.151
  868POPC   C4A15342   0.384  21.404   7.795
  868POPC   C1B15343   0.094  21.081   8.882
  868POPC   C2B15344   0.116  21.248   8.451
  868POPC   C3B15345  44.978  21.148   8.015
  868POPC   C4B15346   0.111  21.031   7.588
  869POPC   NC315347  38.651  28.587   9.756
  869POPC   PO415348  38.705  29.278   9.740
  869POPC   GL115349  38.487  29.074   9.226
  869POPC   GL215350  38.086  29.093   9.207
  869POPC   C1A15351  38.451  29.139   8.738
  869POPC   D2A15352  38.651  29.251   8.292
  869POPC   C3A15353  38.624  29.208   7.809
  869POPC   C4A15354  38.623  28.919   7.454
  869POPC   C1B15355  38.062  28.858   8.891
  869POPC   C2B15356  38.109  28.788   8.459
  869POPC   C3B15357  38.299  28.900   8.072
  869POPC   C4B15358  38.168  28.894   7.650
  870POPC   NC315359  41.728  20.472   9.376
  870POPC   PO415360  41.232  20.871   9.451
  870POPC   GL115361  41.366  20.695   9.087
  870POPC   GL215362  41.279  20.398   9.099
  870POPC   C1A15363  41.684  20.711   8.747
  870POPC   D2A15364  41.731  20.495   8.370
  870POPC   C3A15365  41.653  20.670   7.951
  870POPC   C4A15366  41.468  20.872   7.562
  870POPC   C1B15367  41.372  20.283   8.716
  870POPC   C2B15368  41.323  20.169   8.328
  870POPC   C3B15369  41.243  20.168   7.919
  870POPC   C4B15370  41.420  20.357   7.581
  871POPC   NC315371  32.063  28.603   9.473
  871POPC   PO415372  32.456  28.084   9.503
  871POPC   GL115373  32.402  28.351   9.133
  871POPC   GL215374  32.088  28.493   8.986
  871POPC   C1A15375  32.496  28.311   8.706
  871POPC   D2A15376  32.581  28.526   8.335
  871POPC   C3A15377  32.396  28.491   7.977
  871POPC   C4A15378  32.303  28.282   7.598
  871POPC   C1B15379  32.182  28.693   8.612
  871POPC   C2B15380  32.076  28.363   8.357
  871POPC   C3B15381  31.905  28.277   7.971
  871POPC   C4B15382  31.978  28.631   7.753
  872POPC   NC315383  24.965  16.351   9.224
  872POPC   PO415384  25.411  16.747   9.545
  872POPC   GL115385  25.331  16.690   9.117
  872POPC   GL215386  25.027  16.846   9.061
  872POPC   C1A15387  25.265  16.480   8.683
  872POPC   D2A15388  25.190  16.642   8.252
  872POPC   C3A15389  25.052  16.397   7.913
  872POPC   C4A15390  25.449  16.392   7.696
  872POPC   C1B15391  25.160  16.971   8.672
  872POPC   C2B15392  25.044  17.124   8.279
  872POPC   C3B15393  25.307  17.166   7.948
  872POPC   C4B15394  25.227  16.841   7.725
  873POPC   NC315395   6.222   8.890   9.377
  873POPC   PO415396   5.500   8.836   9.479
  873POPC   GL115397   5.629   8.849   9.092
  873POPC   GL215398   5.788   9.146   9.047
  873POPC   C1A15399   5.780   8.798   8.691
  873POPC   D2A15400   5.751   8.954   8.301
  873POPC   C3A15401   5.906   8.657   8.027
  873POPC   C4A15402   6.048   8.721   7.616
  873POPC   C1B15403   6.032   9.269   8.612
  873POPC   C2B15404   6.366   9.243   8.262
  873POPC   C3B15405   6.249   9.177   7.824
  873POPC   C4B15406   5.796   9.117   7.816
  874POPC   NC315407  40.476  37.394   9.531
  874POPC   PO415408  39.822  37.654   9.666
  874POPC   GL115409  40.067  37.668   9.304
  874POPC   GL215410  40.014  37.313   9.280
  874POPC   C1A15411  39.956  37.784   8.864
  874POPC   D2A15412  39.733  37.671   8.474
  874POPC   C3A15413  39.889  37.624   8.038
  874POPC   C4A15414  39.873  37.816   7.587
  874POPC   C1B15415  40.259  37.384   8.920
  874POPC   C2B15416  40.150  37.377   8.514
  874POPC   C3B15417  40.217  37.241   8.144
  874POPC   C4B15418  40.164  37.283   7.726
  875POPC   NC315419  26.315   1.632   9.716
  875POPC   PO415420  25.879   2.031   9.643
  875POPC   GL115421  25.971   2.071   9.200
  875POPC   GL215422  26.223   1.838   9.226
  875POPC   C1A15423  25.900   2.258   8.786
  875POPC   D2A15424  25.715   2.082   8.410
  875POPC   C3A15425  25.840   2.218   7.989
  875POPC   C4A15426  25.813   2.088   7.538
  875POPC   C1B15427  26.153   1.695   8.811
  875POPC   C2B15428  26.225   1.475   8.416
  875POPC   C3B15429  26.414   1.618   8.039
  875POPC   C4B15430  26.227   1.842   7.686
  876POPC   NC315431  40.266  26.208   9.499
  876POPC   PO415432  39.859  25.664   9.434
  876POPC   GL115433  39.733  25.887   9.081
  876POPC   GL215434  39.939  26.206   9.049
  876POPC   C1A15435  39.807  25.877   8.654
  876POPC   D2A15436  40.096  26.114   8.433
  876POPC   C3A15437  40.048  26.098   8.014
  876POPC   C4A15438  39.792  26.408   7.811
  876POPC   C1B15439  40.311  25.957   8.878
  876POPC   C2B15440  40.567  25.902   8.492
  876POPC   C3B15441  40.540  25.696   8.093
  876POPC   C4B15442  40.252  25.708   7.718
  877POPC   NC315443  23.332  20.791   9.300
  877POPC   PO415444  23.678  21.385   9.539
  877POPC   GL115445  23.955  21.476   9.137
  877POPC   GL215446  24.004  21.125   9.053
  877POPC   C1A15447  24.004  21.457   8.676
  877POPC   D2A15448  24.066  21.189   8.351
  877POPC   C3A15449  23.962  21.445   8.000
  877POPC   C4A15450  23.527  21.561   7.914
  877POPC   C1B15451  23.575  21.254   8.835
  877POPC   C2B15452  23.548  21.285   8.364
  877POPC   C3B15453  23.723  20.995   8.016
  877POPC   C4B15454  23.947  21.070   7.630
  878POPC   NC315455  27.763   8.538   9.424
  878POPC   PO415456  27.351   9.091   9.562
  878POPC   GL115457  27.334   9.091   9.130
  878POPC   GL215458  27.706   8.997   9.099
  878POPC   C1A15459  27.353   8.846   8.755
  878POPC   D2A15460  27.602   8.770   8.404
  878POPC   C3A15461  27.431   8.877   8.003
  878POPC   C4A15462  27.500   8.833   7.545
  878POPC   C1B15463  27.684   9.258   8.710
  878POPC   C2B15464  27.779   9.241   8.233
  878POPC   C3B15465  27.872   9.051   7.796
  878POPC   C4B15466  27.983   9.210   7.347
  879POPC   NC315467  11.432  31.771   9.534
  879POPC   PO415468  11.054  31.283   9.401
  879POPC   GL115469  11.197  31.269   9.002
  879POPC   GL215470  11.516  31.393   9.047
  879POPC   C1A15471  11.259  31.272   8.556
  879POPC   D2A15472  11.268  31.657   8.326
  879POPC   C3A15473  11.081  31.613   7.941
  879POPC   C4A15474  10.868  31.252   7.788
  879POPC   C1B15475  11.665  31.553   8.673
  879POPC   C2B15476  11.726  31.462   8.243
  879POPC   C3B15477  11.594  31.614   7.827
  879POPC   C4B15478  11.598  31.831   7.424
  880POPC   NC315479  15.591   9.328   9.321
  880POPC   PO415480  16.086   9.111   9.563
  880POPC   GL115481  15.893   8.823   9.213
  880POPC   GL215482  15.883   9.080   8.991
  880POPC   C1A15483  15.894   8.642   8.758
  880POPC   D2A15484  15.845   8.912   8.365
  880POPC   C3A15485  15.926   8.738   7.934
  880POPC   C4A15486  16.005   8.672   7.485
  880POPC   C1B15487  15.685   9.313   8.665
  880POPC   C2B15488  15.541   9.445   8.288
  880POPC   C3B15489  15.801   9.267   7.969
  880POPC   C4B15490  15.770   9.113   7.552
  881POPC   NC315491   0.837  41.453   9.740
  881POPC   PO415492   1.267  41.935   9.497
  881POPC   GL115493   1.307  41.752   9.147
  881POPC   GL215494   0.950  41.684   9.120
  881POPC   C1A15495   1.429  41.554   8.777
  881POPC   D2A15496   1.277  41.495   8.398
  881POPC   C3A15497   1.427  41.550   7.994
  881POPC   C4A15498   1.365  41.197   7.730
  881POPC   C1B15499   0.875  41.824   8.677
  881POPC   C2B15500   0.828  41.660   8.249
  881POPC   C3B15501   0.932  41.460   7.882
  881POPC   C4B15502   1.145  41.582   7.487
  882POPC   NC315503  39.642   5.583   9.453
  882POPC   PO415504  39.173   6.101   9.519
  882POPC   GL115505  39.197   5.835   9.153
  882POPC   GL215506  39.148   5.468   9.221
  882POPC   C1A15507  39.129   5.964   8.715
  882POPC   D2A15508  39.351   6.216   8.428
  882POPC   C3A15509  39.300   6.027   8.033
  882POPC   C4A15510  39.018   5.967   7.715
  882POPC   C1B15511  39.257   5.461   8.774
  882POPC   C2B15512  39.246   5.632   8.360
  882POPC   C3B15513  39.384   5.499   7.984
  882POPC   C4B15514  39.193   5.481   7.588
  883POPC   NC315515  29.164  28.166   9.486
  883POPC   PO415516  28.850  28.756   9.372
  883POPC   GL115517  29.223  28.532   9.108
  883POPC   GL215518  29.364  28.145   9.038
  883POPC   C1A15519  29.350  28.469   8.665
  883POPC   D2A15520  29.161  28.368   8.299
  883POPC   C3A15521  29.240  28.503   7.866
  883POPC   C4A15522  28.953  28.513   7.503
  883POPC   C1B15523  28.957  28.150   8.801
  883POPC   C2B15524  28.867  27.923   8.410
  883POPC   C3B15525  28.983  28.014   7.991
  883POPC   C4B15526  29.258  27.843   7.742
  884POPC   NC315527  35.349  27.409   9.440
  884POPC   PO415528  35.031  28.009   9.370
  884POPC   GL115529  35.088  27.654   9.083
  884POPC   GL215530  35.446  27.610   8.995
  884POPC   C1A15531  35.100  27.355   8.739
  884POPC   D2A15532  35.358  27.384   8.378
  884POPC   C3A15533  35.175  27.461   7.992
  884POPC   C4A15534  35.114  27.758   7.704
  884POPC   C1B15535  35.373  27.832   8.634
  884POPC   C2B15536  35.712  27.758   8.335
  884POPC   C3B15537  35.668  27.586   7.946
  884POPC   C4B15538  35.494  27.991   7.910
  885POPC   NC315539   6.677  28.482   9.729
  885POPC   PO415540   6.476  27.842   9.537
  885POPC   GL115541   6.647  28.188   9.243
  885POPC   GL215542   6.611  28.558   9.226
  885POPC   C1A15543   6.799  28.275   8.797
  885POPC   D2A15544   6.889  28.520   8.400
  885POPC   C3A15545   6.662  28.289   8.058
  885POPC   C4A15546   6.849  28.064   7.675
  885POPC   C1B15547   6.564  28.720   8.795
  885POPC   C2B15548   6.403  28.647   8.367
  885POPC   C3B15549   6.521  28.802   7.952
  885POPC   C4B15550   6.857  28.597   7.721
  886POPC   NC315551  25.098  18.792   9.561
  886POPC   PO415552  25.327  19.422   9.283
  886POPC   GL115553  25.282  19.018   9.132
  886POPC   GL215554  24.923  18.976   9.134
  886POPC   C1A15555  25.470  19.022   8.742
  886POPC   D2A15556  25.387  19.290   8.406
  886POPC   C3A15557  25.499  19.040   8.096
  886POPC   C4A15558  25.475  18.997   7.680
  886POPC   C1B15559  24.822  18.871   8.743
  886POPC   C2B15560  25.070  18.856   8.377
  886POPC   C3B15561  25.020  18.954   7.949
  886POPC   C4B15562  25.006  18.900   7.510
  887POPC   NC315563  19.054  26.889   9.602
  887POPC   PO415564  18.466  26.933   9.368
  887POPC   GL115565  18.901  26.895   9.118
  887POPC   GL215566  19.197  26.644   9.193
  887POPC   C1A15567  19.140  27.038   8.730
  887POPC   D2A15568  18.957  27.146   8.304
  887POPC   C3A15569  18.842  26.831   7.948
  887POPC   C4A15570  19.191  26.844   7.632
  887POPC   C1B15571  19.123  26.528   8.776
  887POPC   C2B15572  19.037  26.634   8.377
  887POPC   C3B15573  19.277  26.538   8.020
  887POPC   C4B15574  19.582  26.499   7.697
  888POPC   NC315575  20.094  29.716   9.490
  888POPC   PO415576  19.547  29.414   9.339
  888POPC   GL115577  19.765  29.636   9.094
  888POPC   GL215578  19.752  29.974   9.230
  888POPC   C1A15579  19.889  29.557   8.672
  888POPC   D2A15580  20.019  29.798   8.342
  888POPC   C3A15581  19.710  29.676   8.048
  888POPC   C4A15582  19.779  29.496   7.625
  888POPC   C1B15583  19.901  30.040   8.814
  888POPC   C2B15584  19.739  30.243   8.440
  888POPC   C3B15585  19.875  30.193   8.030
  888POPC   C4B15586  19.716  30.019   7.676
  889POPC   NC315587  31.524  37.052   9.394
  889POPC   PO415588  31.086  36.697   9.492
  889POPC   GL115589  31.151  36.862   9.116
  889POPC   GL215590  31.453  36.722   9.002
  889POPC   C1A15591  30.991  36.884   8.743
  889POPC   D2A15592  31.237  36.768   8.439
  889POPC   C3A15593  31.061  36.663   8.043
  889POPC   C4A15594  31.296  36.909   7.771
  889POPC   C1B15595  31.695  36.901   8.645
  889POPC   C2B15596  31.653  36.986   8.181
  889POPC   C3B15597  31.825  36.815   7.796
  889POPC   C4B15598  31.943  36.829   7.348
  890POPC   NC315599  41.492  34.165   9.461
  890POPC   PO415600  41.783  34.774   9.582
  890POPC   GL115601  41.671  34.775   9.153
  890POPC   GL215602  41.348  34.617   9.175
  890POPC   C1A15603  41.510  34.948   8.782
  890POPC   D2A15604  41.351  34.874   8.381
  890POPC   C3A15605  41.573  34.948   8.033
  890POPC   C4A15606  41.768  34.706   7.757
  890POPC   C1B15607  41.534  34.403   8.807
  890POPC   C2B15608  41.481  34.373   8.368
  890POPC   C3B15609  41.271  34.520   7.996
  890POPC   C4B15610  41.363  34.443   7.561
  891POPC   NC315611   3.240  41.598   9.381
  891POPC   PO415612   3.550  41.184   9.734
  891POPC   GL115613   3.615  41.444   9.067
  891POPC   GL215614   3.338  41.652   8.918
  891POPC   C1A15615   3.595  41.471   8.552
  891POPC   D2A15616   3.788  41.839   8.323
  891POPC   C3A15617   3.831  41.607   7.960
  891POPC   C4A15618   3.539  41.308   7.779
  891POPC   C1B15619   3.321  41.923   8.618
  891POPC   C2B15620   3.297  41.854   8.173
  891POPC   C3B15621   3.390  41.811   7.736
  891POPC   C4B15622   3.098  41.918   7.395
  892POPC   NC315623  27.999  38.307   9.490
  892POPC   PO415624  28.595  38.743   9.485
  892POPC   GL115625  28.563  38.443   9.134
  892POPC   GL215626  28.207  38.533   9.087
  892POPC   C1A15627  28.478  38.371   8.667
  892POPC   D2A15628  28.110  38.536   8.406
  892POPC   C3A15629  28.151  38.356   8.011
  892POPC   C4A15630  28.565  38.155   7.884
  892POPC   C1B15631  28.403  38.838   8.824
  892POPC   C2B15632  28.444  38.894   8.400
  892POPC   C3B15633  28.539  38.987   7.991
  892POPC   C4B15634  28.488  38.643   7.751
  893POPC   NC315635  26.807   1.360   9.466
  893POPC   PO415636  26.446   0.854   9.351
  893POPC   GL115637  26.623   1.048   9.014
  893POPC   GL215638  26.900   1.248   8.994
  893POPC   C1A15639  26.606   1.132   8.584
  893POPC   D2A15640  26.728   0.880   8.297
  893POPC   C3A15641  26.853   1.118   8.019
  893POPC   C4A15642  26.899   0.978   7.645
  893POPC   C1B15643  26.661   1.588   8.806
  893POPC   C2B15644  26.706   1.825   8.419
  893POPC   C3B15645  26.926   1.725   8.030
  893POPC   C4B15646  26.833   1.487   7.666
  894POPC   NC315647  13.797  36.841   9.523
  894POPC   PO415648  13.165  36.686   9.550
  894POPC   GL115649  13.395  36.773   9.187
  894POPC   GL215650  13.597  37.046   9.088
  894POPC   C1A15651  13.550  36.648   8.793
  894POPC   D2A15652  13.650  36.907   8.474
  894POPC   C3A15653  13.590  36.722   8.085
  894POPC   C4A15654  13.334  36.871   7.839
  894POPC   C1B15655  13.960  37.193   8.836
  894POPC   C2B15656  14.125  37.076   8.427
  894POPC   C3B15657  14.016  37.246   8.038
  894POPC   C4B15658  13.869  37.012   7.684
  895POPC   NC315659  30.112   3.165   9.586
  895POPC   PO415660  29.658   2.736   9.861
  895POPC   GL115661  29.632   2.565   9.376
  895POPC   GL215662  29.974   2.582   9.221
  895POPC   C1A15663  29.590   2.546   8.861
  895POPC   D2A15664  29.679   2.406   8.404
  895POPC   C3A15665  29.743   2.699   8.018
  895POPC   C4A15666  29.936   3.081   7.802
  895POPC   C1B15667  30.085   2.420   8.792
  895POPC   C2B15668  30.180   2.366   8.346
  895POPC   C3B15669  30.171   2.410   7.896
  895POPC   C4B15670  30.300   2.344   7.457
  896POPC   NC315671  42.640  19.201   9.418
  896POPC   PO415672  42.032  19.404   9.594
  896POPC   GL115673  42.150  19.216   9.173
  896POPC   GL215674  42.350  18.883   9.130
  896POPC   C1A15675  42.062  19.034   8.761
  896POPC   D2A15676  42.194  19.112   8.357
  896POPC   C3A15677  42.094  18.812   8.034
  896POPC   C4A15678  42.123  18.997   7.640
  896POPC   C1B15679  42.580  19.005   8.746
  896POPC   C2B15680  42.704  19.241   8.367
  896POPC   C3B15681  42.551  19.143   7.975
  896POPC   C4B15682  42.570  18.760   7.871
  897POPC   NC315683  24.383  18.728   9.483
  897POPC   PO415684  24.789  19.236   9.575
  897POPC   GL115685  24.473  19.226   9.193
  897POPC   GL215686  24.253  18.945   9.054
  897POPC   C1A15687  24.475  19.288   8.727
  897POPC   D2A15688  24.600  19.093   8.321
  897POPC   C3A15689  24.672  19.338   7.956
  897POPC   C4A15690  24.612  19.246   7.521
  897POPC   C1B15691  24.295  18.782   8.638
  897POPC   C2B15692  24.314  18.683   8.200
  897POPC   C3B15693  24.546  18.841   7.839
  897POPC   C4B15694  24.504  18.723   7.391
  898POPC   NC315695  40.525  33.710   9.523
  898POPC   PO415696  41.128  33.898   9.381
  898POPC   GL115697  40.804  33.797   9.103
  898POPC   GL215698  40.562  34.050   9.131
  898POPC   C1A15699  40.726  33.618   8.716
  898POPC   D2A15700  40.945  33.549   8.330
  898POPC   C3A15701  40.808  33.806   7.969
  898POPC   C4A15702  40.998  34.055   7.628
  898POPC   C1B15703  40.689  34.150   8.725
  898POPC   C2B15704  40.538  33.970   8.375
  898POPC   C3B15705  40.333  34.099   8.029
  898POPC   C4B15706  40.495  34.085   7.642
  899POPC   NC315707  41.639  38.459   9.745
  899POPC   PO415708  42.048  38.843   9.309
  899POPC   GL115709  41.857  38.439   9.079
  899POPC   GL215710  41.479  38.341   9.091
  899POPC   C1A15711  41.706  38.439   8.653
  899POPC   D2A15712  41.570  38.667   8.299
  899POPC   C3A15713  41.822  38.611   7.957
  899POPC   C4A15714  41.701  38.504   7.534
  899POPC   C1B15715  41.317  38.128   8.737
  899POPC   C2B15716  41.234  38.259   8.317
  899POPC   C3B15717  41.419  38.290   7.928
  899POPC   C4B15718  41.204  38.096   7.626
  900POPC   NC315719   8.517   6.088   9.415
  900POPC   PO415720   8.007   5.597   9.316
  900POPC   GL115721   8.252   5.761   9.058
  900POPC   GL215722   8.167   6.089   9.010
  900POPC   C1A15723   8.082   5.704   8.643
  900POPC   D2A15724   7.921   5.869   8.291
  900POPC   C3A15725   8.059   5.688   7.931
  900POPC   C4A15726   7.960   6.045   7.710
  900POPC   C1B15727   8.516   5.956   8.687
  900POPC   C2B15728   8.471   5.817   8.239
  900POPC   C3B15729   8.453   6.044   7.823
  900POPC   C4B15730   8.650   6.107   7.384
  901POPC   NC315731  20.442  19.443   9.463
  901POPC   PO415732  20.923  18.977   9.557
  901POPC   GL115733  20.740  19.146   9.172
  901POPC   GL215734  20.663  18.821   9.039
  901POPC   C1A15735  20.394  19.230   8.846
  901POPC   D2A15736  20.277  19.275   8.433
  901POPC   C3A15737  20.595  19.437   8.192
  901POPC   C4A15738  20.754  19.299   7.811
  901POPC   C1B15739  20.841  18.910   8.646
  901POPC   C2B15740  20.811  18.968   8.201
  901POPC   C3B15741  20.485  18.869   7.907
  901POPC   C4B15742  20.469  18.666   7.512
  902POPC   NC315743  38.588  24.458   9.661
  902POPC   PO415744  38.022  24.229   9.439
  902POPC   GL115745  38.279  24.458   9.194
  902POPC   GL215746  38.575  24.320   9.168
  902POPC   C1A15747  38.259  24.369   8.752
  902POPC   D2A15748  38.117  24.554   8.388
  902POPC   C3A15749  38.443  24.747   8.208
  902POPC   C4A15750  38.412  24.682   7.814
  902POPC   C1B15751  38.748  24.161   8.790
  902POPC   C2B15752  38.637  24.320   8.403
  902POPC   C3B15753  38.492  24.223   8.029
  902POPC   C4B15754  38.607  24.019   7.683
  903POPC   NC315755  33.657  20.627   9.473
  903POPC   PO415756  34.287  20.772   9.447
  903POPC   GL115757  34.017  20.755   9.120
  903POPC   GL215758  34.107  21.010   8.917
  903POPC   C1A15759  33.790  20.533   8.785
  903POPC   D2A15760  33.915  20.541   8.359
  903POPC   C3A15761  33.635  20.410   8.048
  903POPC   C4A15762  33.801  20.373   7.650
  903POPC   C1B15763  33.659  21.033   8.773
  903POPC   C2B15764  33.508  20.888   8.373
  903POPC   C3B15765  33.755  20.903   7.987
  903POPC   C4B15766  33.704  20.860   7.553
  904POPC   NC315767  12.713   3.172   9.386
  904POPC   PO415768  13.108   3.627   9.458
  904POPC   GL115769  12.885   3.552   9.078
  904POPC   GL215770  13.078   3.281   8.991
  904POPC   C1A15771  12.784   3.824   8.722
  904POPC   D2A15772  12.524   3.935   8.354
  904POPC   C3A15773  12.711   3.771   7.975
  904POPC   C4A15774  12.904   3.419   7.743
  904POPC   C1B15775  12.665   3.248   8.717
  904POPC   C2B15776  12.514   3.059   8.302
  904POPC   C3B15777  12.508   3.045   7.818
  904POPC   C4B15778  12.818   3.027   7.416
  905POPC   NC315779  10.245  44.101   9.832
  905POPC   PO415780   9.670  43.896   9.476
  905POPC   GL115781   9.951  43.819   9.166
  905POPC   GL215782  10.021  43.481   9.176
  905POPC   C1A15783   9.956  43.978   8.754
  905POPC   D2A15784   9.697  43.822   8.399
  905POPC   C3A15785   9.801  43.983   8.045
  905POPC   C4A15786  10.004  43.864   7.693
  905POPC   C1B15787   9.700  43.538   8.830
  905POPC   C2B15788   9.427  43.414   8.492
  905POPC   C3B15789   9.331  43.516   8.080
  905POPC   C4B15790   9.610  43.551   7.769
  906POPC   NC315791   7.681   1.982   9.603
  906POPC   PO415792   7.854   2.597   9.465
  906POPC   GL115793   7.665   2.270   9.179
  906POPC   GL215794   7.445   1.952   9.161
  906POPC   C1A15795   7.758   2.107   8.785
  906POPC   D2A15796   7.614   2.151   8.379
  906POPC   C3A15797   7.398   1.859   8.149
  906POPC   C4A15798   7.629   1.788   7.804
  906POPC   C1B15799   7.257   2.201   8.835
  906POPC   C2B15800   7.088   2.212   8.420
  906POPC   C3B15801   7.091   2.233   7.990
  906POPC   C4B15802   7.180   1.992   7.677
  907POPC   NC315803   0.326  22.299   9.519
  907POPC   PO415804   0.931  21.931   9.545
  907POPC   GL115805   0.592  21.849   9.231
  907POPC   GL215806   0.642  22.163   9.136
  907POPC   C1A15807   0.452  21.895   8.767
  907POPC   D2A15808   0.687  22.025   8.426
  907POPC   C3A15809   0.552  21.827   8.033
  907POPC   C4A15810   0.282  21.964   7.692
  907POPC   C1B15811   0.401  22.414   8.857
  907POPC   C2B15812   0.467  22.509   8.445
  907POPC   C3B15813   0.526  22.340   8.037
  907POPC   C4B15814   0.489  22.470   7.664
  908POPC   NC315815  23.321  29.266   9.629
  908POPC   PO415816  22.686  29.108   9.567
  908POPC   GL115817  22.944  29.074   9.231
  908POPC   GL215818  23.241  28.890   9.200
  908POPC   C1A15819  22.795  28.857   8.878
  908POPC   D2A15820  22.640  29.002   8.479
  908POPC   C3A15821  22.638  28.704   8.121
  908POPC   C4A15822  22.837  28.780   7.738
  908POPC   C1B15823  23.248  29.064   8.755
  908POPC   C2B15824  23.228  29.117   8.298
  908POPC   C3B15825  23.262  29.092   7.854
  908POPC   C4B15826  23.291  29.492   7.685
  909POPC   NC315827  36.390  27.639   9.511
  909POPC   PO415828  35.797  27.428   9.330
  909POPC   GL115829  36.139  27.533   9.051
  909POPC   GL215830  36.455  27.333   9.073
  909POPC   C1A15831  36.078  27.780   8.683
  909POPC   D2A15832  36.317  27.856   8.308
  909POPC   C3A15833  36.085  27.906   7.945
  909POPC   C4A15834  36.272  27.812   7.537
  909POPC   C1B15835  36.382  27.350   8.612
  909POPC   C2B15836  36.088  27.400   8.267
  909POPC   C3B15837  36.132  27.413   7.815
  909POPC   C4B15838  35.860  27.509   7.465
  910POPC   NC315839   1.804   6.662   9.643
  910POPC   PO415840   1.172   6.951   9.517
  910POPC   GL115841   1.143   6.864   9.134
  910POPC   GL215842   1.087   6.529   9.197
  910POPC   C1A15843   1.255   6.735   8.745
  910POPC   D2A15844   1.287   6.710   8.332
  910POPC   C3A15845   1.525   6.879   8.035
  910POPC   C4A15846   1.199   6.772   7.761
  910POPC   C1B15847   1.047   6.270   8.857
  910POPC   C2B15848   1.270   6.243   8.514
  910POPC   C3B15849   1.223   6.274   8.068
  910POPC   C4B15850   1.011   6.292   7.709
  911POPC   NC315851   6.938  15.026   9.524
  911POPC   PO415852   6.369  15.306   9.523
  911POPC   GL115853   6.632  15.211   9.172
  911POPC   GL215854   6.949  15.442   9.218
  911POPC   C1A15855   6.504  15.155   8.753
  911POPC   D2A15856   6.376  15.401   8.398
  911POPC   C3A15857   6.551  15.207   8.099
  911POPC   C4A15858   6.628  15.073   7.717
  911POPC   C1B15859   6.977  15.346   8.789
  911POPC   C2B15860   6.932  15.110   8.409
  911POPC   C3B15861   7.020  15.292   7.960
  911POPC   C4B15862   7.042  15.337   7.510
  912POPC   NC315863   1.521  20.524   9.839
  912POPC   PO415864   2.176  20.761   9.641
  912POPC   GL115865   2.112  20.463   9.275
  912POPC   GL215866   2.058  20.720   9.069
  912POPC   C1A15867   2.194  20.286   8.842
  912POPC   D2A15868   2.107  20.521   8.458
  912POPC   C3A15869   1.996  20.382   8.044
  912POPC   C4A15870   2.139  20.587   7.671
  912POPC   C1B15871   2.289  21.049   8.865
  912POPC   C2B15872   2.281  21.001   8.432
  912POPC   C3B15873   2.415  20.785   8.069
  912POPC   C4B15874   2.362  21.033   7.678
  913POPC   NC315875   8.637   8.665   9.522
  913POPC   PO415876   9.021   9.133   9.478
  913POPC   GL115877   8.886   8.960   9.137
  913POPC   GL215878   9.148   8.804   8.999
  913POPC   C1A15879   8.792   9.086   8.720
  913POPC   D2A15880   8.990   9.246   8.357
  913POPC   C3A15881   8.871   9.074   7.970
  913POPC   C4A15882   8.926   9.341   7.638
  913POPC   C1B15883   9.456   8.737   8.727
  913POPC   C2B15884   9.313   8.781   8.330
  913POPC   C3B15885   9.304   8.628   7.933
  913POPC   C4B15886   9.159   8.820   7.571
  914POPC   NC315887  21.303  25.437   9.364
  914POPC   PO415888  21.867  25.096   9.482
  914POPC   GL115889  21.522  25.095   9.086
  914POPC   GL215890  21.357  25.454   8.882
  914POPC   C1A15891  21.127  25.020   8.793
  914POPC   D2A15892  20.984  25.183   8.396
  914POPC   C3A15893  21.284  25.008   8.115
  914POPC   C4A15894  21.479  24.978   7.724
  914POPC   C1B15895  21.537  25.793   8.636
  914POPC   C2B15896  21.779  25.640   8.348
  914POPC   C3B15897  21.386  25.551   8.150
  914POPC   C4B15898  21.431  25.488   7.755
  915POPC   NC315899  22.988   9.098   9.800
  915POPC   PO415900  23.015   9.773   9.550
  915POPC   GL115901  22.949   9.939   9.153
  915POPC   GL215902  22.829   9.630   8.969
  915POPC   C1A15903  22.840  10.045   8.719
  915POPC   D2A15904  22.851   9.727   8.372
  915POPC   C3A15905  23.060   9.698   7.964
  915POPC   C4A15906  23.103   9.601   7.515
  915POPC   C1B15907  22.448   9.696   8.678
  915POPC   C2B15908  22.364   9.470   8.262
  915POPC   C3B15909  22.477   9.305   7.837
  915POPC   C4B15910  22.349   9.240   7.371
  916POPC   NC315911  33.239   6.977   9.458
  916POPC   PO415912  32.659   6.568   9.632
  916POPC   GL115913  32.786   6.699   9.225
  916POPC   GL215914  32.747   7.038   9.278
  916POPC   C1A15915  32.967   6.565   8.801
  916POPC   D2A15916  33.358   6.564   8.478
  916POPC   C3A15917  33.311   6.387   8.060
  916POPC   C4A15918  33.131   6.537   7.672
  916POPC   C1B15919  32.806   7.097   8.851
  916POPC   C2B15920  33.050   6.966   8.503
  916POPC   C3B15921  32.971   6.767   8.127
  916POPC   C4B15922  32.762   6.915   7.762
  917POPC   NC315923  19.579  20.792   9.351
  917POPC   PO415924  20.194  20.519   9.449
  917POPC   GL115925  19.981  20.555   9.077
  917POPC   GL215926  19.712  20.344   9.171
  917POPC   C1A15927  19.867  20.867   8.748
  917POPC   D2A15928  19.742  20.990   8.335
  917POPC   C3A15929  19.832  20.807   7.919
  917POPC   C4A15930  19.706  20.751   7.455
  917POPC   C1B15931  19.554  20.432   8.780
  917POPC   C2B15932  19.845  20.440   8.468
  917POPC   C3B15933  19.740  20.326   8.100
  917POPC   C4B15934  19.834  20.334   7.690
  918POPC   NC315935  17.530  28.917   9.773
  918POPC   PO415936  17.022  28.970   9.501
  918POPC   GL115937  17.380  28.992   9.242
  918POPC   GL215938  17.449  29.342   9.074
  918POPC   C1A15939  17.533  28.922   8.830
  918POPC   D2A15940  17.601  28.885   8.408
  918POPC   C3A15941  17.327  29.058   8.103
  918POPC   C4A15942  17.575  29.043   7.748
  918POPC   C1B15943  17.678  29.376   8.633
  918POPC   C2B15944  17.709  29.402   8.150
  918POPC   C3B15945  17.404  29.513   7.823
  918POPC   C4B15946  17.012  29.265   7.733
  919POPC   NC315947  19.959   8.759   9.422
  919POPC   PO415948  19.371   8.560   9.371
  919POPC   GL115949  19.594   8.900   9.093
  919POPC   GL215950  19.883   9.188   9.137
  919POPC   C1A15951  19.889   8.896   8.734
  919POPC   D2A15952  19.922   9.148   8.378
  919POPC   C3A15953  20.159   8.909   8.112
  919POPC   C4A15954  19.930   8.661   7.796
  919POPC   C1B15955  20.222   9.298   8.794
  919POPC   C2B15956  20.225   9.545   8.404
  919POPC   C3B15957  20.300   9.427   7.977
  919POPC   C4B15958  20.023   9.167   7.713
  920POPC   NC315959  39.526  32.804   9.313
  920POPC   PO415960  39.019  33.158   9.596
  920POPC   GL115961  39.105  33.218   9.169
  920POPC   GL215962  39.455  33.282   9.190
  920POPC   C1A15963  39.143  32.951   8.788
  920POPC   D2A15964  38.945  32.809   8.420
  920POPC   C3A15965  39.148  32.837   8.036
  920POPC   C4A15966  39.040  32.946   7.631
  920POPC   C1B15967  39.404  33.382   8.767
  920POPC   C2B15968  39.409  33.163   8.379
  920POPC   C3B15969  39.503  33.222   7.982
  920POPC   C4B15970  39.520  33.091   7.563
  921POPC   NC315971  36.675  18.668   9.377
  921POPC   PO415972  37.046  18.128   9.432
  921POPC   GL115973  36.801  18.247   9.097
  921POPC   GL215974  37.015  18.473   9.039
  921POPC   C1A15975  36.799  18.197   8.674
  921POPC   D2A15976  36.979  18.360   8.333
  921POPC   C3A15977  36.764  18.075   8.094
  921POPC   C4A15978  36.575  18.169   7.705
  921POPC   C1B15979  37.255  18.612   8.706
  921POPC   C2B15980  37.330  18.768   8.294
  921POPC   C3B15981  37.331  18.494   7.942
  921POPC   C4B15982  37.086  18.210   7.739
  922POPC   NC315983   1.630  42.881   9.630
  922POPC   PO415984   1.927  43.325   9.364
  922POPC   GL115985   1.948  43.064   9.065
  922POPC   GL215986   2.306  42.967   9.115
  922POPC   C1A15987   1.957  43.136   8.636
  922POPC   D2A15988   2.274  43.152   8.306
  922POPC   C3A15989   2.080  43.279   7.927
  922POPC   C4A15990   1.657  43.156   7.905
  922POPC   C1B15991   2.265  42.726   8.738
  922POPC   C2B15992   1.982  42.683   8.391
  922POPC   C3B15993   2.056  42.779   7.991
  922POPC   C4B15994   2.276  42.541   7.719
  923POPC   NC315995  21.669  36.919   9.562
  923POPC   PO415996  21.174  36.560   9.706
  923POPC   GL115997  21.208  36.849   9.303
  923POPC   GL215998  21.387  37.181   9.253
  923POPC   C1A15999  21.423  36.818   8.884
  923POPC   D2A16000  21.456  36.623   8.480
  923POPC   C3A16001  21.342  36.838   8.108
  923POPC   C4A16002  21.377  36.669   7.708
  923POPC   C1B16003  21.672  37.263   8.861
  923POPC   C2B16004  21.811  37.019   8.448
  923POPC   C3B16005  21.701  37.189   8.013
  923POPC   C4B16006  21.654  37.205   7.551
  924POPC   NC316007   3.749  34.745   9.427
  924POPC   PO416008   3.687  34.120   9.473
  924POPC   GL116009   3.607  34.353   9.096
  924POPC   GL216010   3.378  34.104   8.996
  924POPC   C1A16011   3.748  34.652   8.739
  924POPC   D2A16012   3.864  34.934   8.356
  924POPC   C3A16013   3.562  34.927   8.004
  924POPC   C4A16014   3.576  34.723   7.591
  924POPC   C1B16015   3.540  34.200   8.581
  924POPC   C2B16016   3.669  34.464   8.242
  924POPC   C3B16017   3.880  34.390   7.863
  924POPC   C4B16018   3.914  34.081   7.513
  925POPC   NC316019  22.136  32.368   9.642
  925POPC   PO416020  22.217  31.682   9.416
  925POPC   GL116021  22.172  32.081   9.162
  925POPC   GL216022  21.937  32.423   9.178
  925POPC   C1A16023  22.448  32.073   8.815
  925POPC   D2A16024  22.364  32.190   8.403
  925POPC   C3A16025  22.397  31.994   8.016
  925POPC   C4A16026  22.203  32.024   7.617
  925POPC   C1B16027  21.837  32.709   8.818
  925POPC   C2B16028  21.935  32.506   8.423
  925POPC   C3B16029  22.065  32.382   8.008
  925POPC   C4B16030  22.008  32.652   7.631
  926POPC   NC316031  27.287  44.983   9.755
  926POPC   PO416032  27.743  44.532   9.617
  926POPC   GL116033  27.643  44.526   9.191
  926POPC   GL216034  27.490  44.861   9.178
  926POPC   C1A16035  27.831  44.589   8.788
  926POPC   D2A16036  27.784  44.381   8.397
  926POPC   C3A16037  27.425  44.477   8.162
  926POPC   C4A16038  27.435  44.538   7.713
  926POPC   C1B16039  27.518   0.041   8.759
  926POPC   C2B16040  27.652  44.890   8.384
  926POPC   C3B16041  27.497  44.955   7.995
  926POPC   C4B16042  27.207   0.075   7.696
  927POPC   NC316043  30.582   2.287   9.497
  927POPC   PO416044  30.368   2.911   9.301
  927POPC   GL116045  30.509   2.565   9.052
  927POPC   GL216046  30.859   2.525   9.092
  927POPC   C1A16047  30.613   2.500   8.606
  927POPC   D2A16048  30.529   2.725   8.207
  927POPC   C3A16049  30.630   2.588   7.785
  927POPC   C4A16050  30.509   2.829   7.436
  927POPC   C1B16051  30.909   2.889   8.796
  927POPC   C2B16052  30.919   3.036   8.352
  927POPC   C3B16053  30.893   3.004   7.903
  927POPC   C4B16054  31.062   2.784   7.529
  928POPC   NC316055  16.191  18.727   9.573
  928POPC   PO416056  15.738  19.167   9.747
  928POPC   GL116057  15.740  19.052   9.242
  928POPC   GL216058  15.976  18.861   9.124
  928POPC   C1A16059  15.772  19.138   8.750
  928POPC   D2A16060  15.697  19.372   8.340
  928POPC   C3A16061  15.705  19.115   7.975
  928POPC   C4A16062  15.926  19.114   7.603
  928POPC   C1B16063  16.108  18.722   8.745
  928POPC   C2B16064  15.975  18.824   8.334
  928POPC   C3B16065  16.219  18.891   7.959
  928POPC   C4B16066  16.149  18.659   7.599
  929POPC   NC316067  19.466  23.533   9.368
  929POPC   PO416068  18.995  23.973   9.564
  929POPC   GL116069  19.047  23.791   9.185
  929POPC   GL216070  19.328  23.948   9.045
  929POPC   C1A16071  18.860  23.942   8.807
  929POPC   D2A16072  18.960  24.181   8.443
  929POPC   C3A16073  18.869  23.961   8.079
  929POPC   C4A16074  19.052  23.848   7.739
  929POPC   C1B16075  19.308  23.822   8.605
  929POPC   C2B16076  19.269  23.611   8.210
  929POPC   C3B16077  19.456  23.526   7.798
  929POPC   C4B16078  19.468  23.838   7.448
  930POPC   NC316079  17.976  28.141   9.524
  930POPC   PO416080  18.568  28.274   9.517
  930POPC   GL116081  18.349  28.287   9.155
  930POPC   GL216082  18.539  28.604   9.079
  930POPC   C1A16083  17.992  28.248   8.832
  930POPC   D2A16084  17.759  28.384   8.429
  930POPC   C3A16085  17.965  28.511   8.055
  930POPC   C4A16086  18.017  28.202   7.729
  930POPC   C1B16087  18.559  28.362   8.705
  930POPC   C2B16088  18.277  28.269   8.395
  930POPC   C3B16089  18.442  28.304   8.000
  930POPC   C4B16090  18.559  28.054   7.674
  931POPC   NC316091  19.574  23.809   9.870
  931POPC   PO416092  19.938  23.482   9.407
  931POPC   GL116093  19.818  23.776   9.109
  931POPC   GL216094  19.639  23.541   8.900
  931POPC   C1A16095  19.768  24.013   8.755
  931POPC   D2A16096  19.764  23.838   8.367
  931POPC   C3A16097  19.835  24.062   8.020
  931POPC   C4A16098  19.708  24.278   7.642
  931POPC   C1B16099  19.459  23.273   8.599
  931POPC   C2B16100  19.724  23.363   8.264
  931POPC   C3B16101  19.976  23.564   7.951
  931POPC   C4B16102  19.894  23.570   7.496
  932POPC   NC316103  42.627   1.675   9.486
  932POPC   PO416104  42.221   1.183   9.504
  932POPC   GL116105  42.463   1.154   9.155
  932POPC   GL216106  42.431   0.836   9.042
  932POPC   C1A16107  42.217   1.217   8.771
  932POPC   D2A16108  42.332   1.357   8.381
  932POPC   C3A16109  42.098   1.334   8.008
  932POPC   C4A16110  42.347   1.548   7.733
  932POPC   C1B16111  42.643   0.935   8.670
  932POPC   C2B16112  42.514   0.866   8.248
  932POPC   C3B16113  42.505   1.065   7.836
  932POPC   C4B16114  42.753   1.156   7.449
  933POPC   NC316115  34.287   8.812   9.493
  933POPC   PO416116  34.876   8.608   9.371
  933POPC   GL116117  34.614   8.725   9.077
  933POPC   GL216118  34.552   9.033   9.062
  933POPC   C1A16119  34.690   8.538   8.714
  933POPC   D2A16120  34.891   8.693   8.362
  933POPC   C3A16121  34.704   8.774   7.977
  933POPC   C4A16122  34.356   8.940   7.704
  933POPC   C1B16123  34.626   9.048   8.625
  933POPC   C2B16124  34.403   9.056   8.243
  933POPC   C3B16125  34.592   9.318   7.910
  933POPC   C4B16126  34.549   9.353   7.460
  934POPC   NC316127  31.843  34.703   9.604
  934POPC   PO416128  31.157  34.853   9.500
  934POPC   GL116129  31.408  34.617   9.174
  934POPC   GL216130  31.704  34.765   9.100
  934POPC   C1A16131  31.491  34.464   8.744
  934POPC   D2A16132  31.827  34.648   8.467
  934POPC   C3A16133  31.746  34.516   8.025
  934POPC   C4A16134  31.445  34.415   7.672
  934POPC   C1B16135  31.369  34.968   8.820
  934POPC   C2B16136  31.372  34.861   8.381
  934POPC   C3B16137  31.194  34.740   7.981
  934POPC   C4B16138  31.147  34.822   7.518
  935POPC   NC316139  33.780  37.317   9.535
  935POPC   PO416140  34.017  36.792   9.821
  935POPC   GL116141  33.986  36.847   9.290
  935POPC   GL216142  34.020  37.174   9.102
  935POPC   C1A16143  33.857  36.759   8.869
  935POPC   D2A16144  33.902  37.011   8.511
  935POPC   C3A16145  33.724  36.778   8.160
  935POPC   C4A16146  33.956  36.624   7.798
  935POPC   C1B16147  33.610  37.250   8.885
  935POPC   C2B16148  33.411  37.134   8.495
  935POPC   C3B16149  33.432  37.223   8.088
  935POPC   C4B16150  33.752  37.121   7.781
  936POPC   NC316151  24.825  33.565   9.332
  936POPC   PO416152  24.197  33.685   9.438
  936POPC   GL116153  24.435  33.779   9.045
  936POPC   GL216154  24.724  34.011   8.985
  936POPC   C1A16155  24.455  33.904   8.588
  936POPC   D2A16156  24.314  33.957   8.209
  936POPC   C3A16157  24.457  33.720   7.900
  936POPC   C4A16158  24.524  33.894   7.528
  936POPC   C1B16159  24.904  33.665   8.707
  936POPC   C2B16160  24.723  33.503   8.330
  936POPC   C3B16161  24.811  33.325   7.934
  936POPC   C4B16162  24.816  33.498   7.513
  937POPC   NC316163   2.378  38.556   9.565
  937POPC   PO416164   2.998  38.962   9.641
  937POPC   GL116165   2.803  38.711   9.288
  937POPC   GL216166   2.896  38.353   9.205
  937POPC   C1A16167   2.804  38.710   8.835
  937POPC   D2A16168   2.924  38.473   8.471
  937POPC   C3A16169   2.848  38.683   8.094
  937POPC   C4A16170   2.702  38.540   7.681
  937POPC   C1B16171   2.634  38.233   8.829
  937POPC   C2B16172   2.416  38.378   8.448
  937POPC   C3B16173   2.586  38.222   8.060
  937POPC   C4B16174   2.761  38.021   7.685
  938POPC   NC316175  10.250  25.104   9.422
  938POPC   PO416176  10.775  25.485   9.494
  938POPC   GL116177  10.612  25.281   9.132
  938POPC   GL216178  10.347  25.512   9.107
  938POPC   C1A16179  10.526  25.045   8.754
  938POPC   D2A16180  10.427  25.197   8.329
  938POPC   C3A16181  10.634  25.067   7.938
  938POPC   C4A16182  10.566  25.143   7.472
  938POPC   C1B16183  10.582  25.695   8.813
  938POPC   C2B16184  10.587  25.748   8.402
  938POPC   C3B16185  10.685  25.552   8.030
  938POPC   C4B16186  10.686  25.639   7.623
  939POPC   NC316187  22.301  34.693   9.532
  939POPC   PO416188  22.967  34.883   9.557
  939POPC   GL116189  22.762  34.723   9.214
  939POPC   GL216190  22.572  34.977   9.231
  939POPC   C1A16191  22.831  34.495   8.825
  939POPC   D2A16192  23.161  34.531   8.515
  939POPC   C3A16193  22.972  34.657   8.153
  939POPC   C4A16194  23.019  34.694   7.732
  939POPC   C1B16195  22.571  35.120   8.871
  939POPC   C2B16196  22.543  34.874   8.547
  939POPC   C3B16197  22.419  34.960   8.170
  939POPC   C4B16198  22.638  35.051   7.811
  940POPC   NC316199  25.661  13.858   9.565
  940POPC   PO416200  25.072  13.533   9.545
  940POPC   GL116201  25.263  13.765   9.218
  940POPC   GL216202  25.512  13.552   9.181
  940POPC   C1A16203  25.370  13.766   8.756
  940POPC   D2A16204  25.168  13.594   8.385
  940POPC   C3A16205  25.247  13.699   7.958
  940POPC   C4A16206  25.642  13.624   7.813
  940POPC   C1B16207  25.477  13.187   8.964
  940POPC   C2B16208  25.563  13.164   8.546
  940POPC   C3B16209  25.452  13.238   8.126
  940POPC   C4B16210  25.181  13.230   7.782
  941POPC   NC316211  30.075  22.885   9.392
  941POPC   PO416212  29.473  23.303   9.420
  941POPC   GL116213  29.620  23.009   9.096
  941POPC   GL216214  29.416  23.103   8.840
  941POPC   C1A16215  29.901  22.780   8.748
  941POPC   D2A16216  30.174  22.938   8.405
  941POPC   C3A16217  30.245  22.759   7.963
  941POPC   C4A16218  30.180  22.863   7.501
  941POPC   C1B16219  29.407  22.664   8.781
  941POPC   C2B16220  29.550  22.639   8.389
  941POPC   C3B16221  29.740  22.756   8.048
  941POPC   C4B16222  29.820  22.547   7.670
  942POPC   NC316223  19.146   9.391   9.601
  942POPC   PO416224  18.861  10.029   9.469
  942POPC   GL116225  19.039   9.755   9.195
  942POPC   GL216226  19.306   9.916   9.104
  942POPC   C1A16227  18.876   9.739   8.782
  942POPC   D2A16228  18.738  10.031   8.460
  942POPC   C3A16229  18.869   9.838   8.051
  942POPC   C4A16230  19.045   9.868   7.635
  942POPC   C1B16231  19.374   9.726   8.743
  942POPC   C2B16232  19.277   9.669   8.319
  942POPC   C3B16233  19.319   9.529   7.885
  942POPC   C4B16234  19.512   9.772   7.534
  943POPC   NC316235  38.743  44.876   9.516
  943POPC   PO416236  38.490  44.198   9.458
  943POPC   GL116237  38.419  44.564   9.181
  943POPC   GL216238  38.735  44.658   9.051
  943POPC   C1A16239  38.288  44.571   8.733
  943POPC   D2A16240  38.315  44.455   8.255
  943POPC   C3A16241  38.010  44.449   7.897
  943POPC   C4A16242  38.080  44.598   7.448
  943POPC   C1B16243  38.695  44.906   8.688
  943POPC   C2B16244  38.675  44.827   8.230
  943POPC   C3B16245  38.617  44.739   7.805
  943POPC   C4B16246  38.840  44.959   7.519
  944POPC   NC316247  22.871  19.434   9.517
  944POPC   PO416248  23.245  18.859   9.460
  944POPC   GL116249  23.155  19.171   9.144
  944POPC   GL216250  23.228  19.540   9.158
  944POPC   C1A16251  22.946  19.080   8.802
  944POPC   D2A16252  22.642  19.052   8.535
  944POPC   C3A16253  22.741  18.865   8.138
  944POPC   C4A16254  23.100  18.827   7.896
  944POPC   C1B16255  23.230  19.489   8.716
  944POPC   C2B16256  23.138  19.218   8.327
  944POPC   C3B16257  22.961  19.333   7.934
  944POPC   C4B16258  23.165  19.520   7.585
  945POPC   NC316259  16.853  10.012   9.924
  945POPC   PO416260  16.939   9.399   9.578
  945POPC   GL116261  16.959   9.515   9.148
  945POPC   GL216262  16.621   9.679   9.141
  945POPC   C1A16263  16.880   9.647   8.698
  945POPC   D2A16264  16.652   9.774   8.347
  945POPC   C3A16265  16.811   9.662   7.979
  945POPC   C4A16266  16.983   9.275   7.849
  945POPC   C1B16267  16.415   9.912   8.780
  945POPC   C2B16268  16.226  10.041   8.383
  945POPC   C3B16269  16.444  10.093   7.980
  945POPC   C4B16270  16.515   9.852   7.599
  946POPC   NC316271  39.864   3.000   9.368
  946POPC   PO416272  40.465   2.716   9.425
  946POPC   GL116273  40.277   2.888   9.079
  946POPC   GL216274  40.054   2.601   9.023
  946POPC   C1A16275  40.046   2.983   8.700
  946POPC   D2A16276  40.143   2.650   8.440
  946POPC   C3A16277  40.405   2.739   8.130
  946POPC   C4A16278  40.303   2.647   7.727
  946POPC   C1B16279  39.733   2.548   8.735
  946POPC   C2B16280  39.639   2.761   8.363
  946POPC   C3B16281  39.900   2.921   8.045
  946POPC   C4B16282  39.814   2.647   7.733
  947POPC   NC316283  38.000  36.400   9.446
  947POPC   PO416284  37.355  35.994   9.514
  947POPC   GL116285  37.618  36.136   9.186
  947POPC   GL216286  37.912  35.996   9.071
  947POPC   C1A16287  37.563  36.297   8.778
  947POPC   D2A16288  37.323  36.241   8.448
  947POPC   C3A16289  37.550  36.270   8.072
  947POPC   C4A16290  37.751  36.408   7.720
  947POPC   C1B16291  38.170  35.881   8.704
  947POPC   C2B16292  38.228  35.891   8.250
  947POPC   C3B16293  37.923  35.948   7.908
  947POPC   C4B16294  37.982  36.019   7.464
  948POPC   NC316295  42.743  28.121   9.378
  948POPC   PO416296  42.247  28.520   9.511
  948POPC   GL116297  42.328  28.333   9.120
  948POPC   GL216298  42.627  28.487   9.036
  948POPC   C1A16299  42.166  28.305   8.701
  948POPC   D2A16300  42.130  28.510   8.325
  948POPC   C3A16301  42.131  28.331   7.946
  948POPC   C4A16302  42.002  28.155   7.595
  948POPC   C1B16303  42.662  28.208   8.700
  948POPC   C2B16304  42.724  28.388   8.330
  948POPC   C3B16305  42.626  28.424   7.922
  948POPC   C4B16306  42.455  28.347   7.492
  949POPC   NC316307  21.063  33.562   9.439
  949POPC   PO416308  20.573  34.003   9.534
  949POPC   GL116309  20.622  33.817   9.149
  949POPC   GL216310  20.305  33.584   9.083
  949POPC   C1A16311  20.785  34.036   8.754
  949POPC   D2A16312  20.889  33.831   8.403
  949POPC   C3A16313  20.871  34.097   8.061
  949POPC   C4A16314  20.840  33.981   7.659
  949POPC   C1B16315  20.304  33.919   8.768
  949POPC   C2B16316  20.415  33.999   8.315
  949POPC   C3B16317  20.467  33.764   7.945
  949POPC   C4B16318  20.173  33.471   7.709
  950POPC   NC316319  25.298   8.607   9.483
  950POPC   PO416320  25.088   7.983   9.586
  950POPC   GL116321  25.306   8.192   9.185
  950POPC   GL216322  25.105   8.477   9.034
  950POPC   C1A16323  25.441   8.235   8.731
  950POPC   D2A16324  25.542   8.365   8.295
  950POPC   C3A16325  25.395   8.074   7.991
  950POPC   C4A16326  25.576   7.935   7.596
  950POPC   C1B16327  25.040   8.696   8.635
  950POPC   C2B16328  25.061   8.612   8.199
  950POPC   C3B16329  25.201   8.517   7.783
  950POPC   C4B16330  25.107   8.517   7.319
  951POPC   NC316331  35.012  16.019   9.558
  951POPC   PO416332  34.295  15.886   9.579
  951POPC   GL116333  34.546  16.121   9.305
  951POPC   GL216334  34.666  15.852   9.137
  951POPC   C1A16335  34.536  16.250   8.867
  951POPC   D2A16336  34.854  16.291   8.549
  951POPC   C3A16337  34.747  16.051   8.160
  951POPC   C4A16338  34.615  16.175   7.723
  951POPC   C1B16339  34.726  15.795   8.672
  951POPC   C2B16340  34.544  15.602   8.249
  951POPC   C3B16341  34.541  15.691   7.786
  951POPC   C4B16342  34.838  15.797   7.407
  952POPC   NC316343  38.085  25.321   9.716
  952POPC   PO416344  37.490  24.963   9.464
  952POPC   GL116345  37.637  25.292   9.147
  952POPC   GL216346  37.974  25.418   9.164
  952POPC   C1A16347  37.710  25.263   8.689
  952POPC   D2A16348  37.709  24.899   8.355
  952POPC   C3A16349  37.566  25.007   7.939
  952POPC   C4A16350  37.472  25.317   7.632
  952POPC   C1B16351  38.117  25.585   8.746
  952POPC   C2B16352  37.926  25.582   8.309
  952POPC   C3B16353  37.861  25.496   7.901
  952POPC   C4B16354  37.892  25.575   7.462
  953POPC   NC316355  10.243  23.633   9.599
  953POPC   PO416356  10.860  23.711   9.512
  953POPC   GL116357  10.576  23.791   9.191
  953POPC   GL216358  10.296  23.566   9.074
  953POPC   C1A16359  10.744  23.693   8.802
  953POPC   D2A16360  10.859  23.693   8.383
  953POPC   C3A16361  10.559  23.663   8.040
  953POPC   C4A16362  10.617  23.802   7.598
  953POPC   C1B16363  10.362  23.374   8.655
  953POPC   C2B16364  10.121  23.269   8.255
  953POPC   C3B16365  10.191  23.388   7.805
  953POPC   C4B16366  10.257  23.551   7.346
  954POPC   NC316367  39.069  19.345   9.385
  954POPC   PO416368  39.424  18.704   9.433
  954POPC   GL116369  39.288  18.967   9.117
  954POPC   GL216370  39.042  19.183   8.920
  954POPC   C1A16371  39.390  18.855   8.736
  954POPC   D2A16372  39.577  19.024   8.413
  954POPC   C3A16373  39.301  19.094   8.063
  954POPC   C4A16374  38.922  19.317   7.947
  954POPC   C1B16375  39.345  19.400   8.694
  954POPC   C2B16376  39.268  19.577   8.294
  954POPC   C3B16377  39.389  19.569   7.861
  954POPC   C4B16378  39.311  19.422   7.436
  955POPC   NC316379  21.525  32.968   9.919
  955POPC   PO416380  21.603  32.356   9.590
  955POPC   GL116381  21.414  32.369   9.150
  955POPC   GL216382  21.103  32.197   9.047
  955POPC   C1A16383  21.427  32.437   8.706
  955POPC   D2A16384  21.286  32.276   8.334
  955POPC   C3A16385  21.556  32.432   8.022
  955POPC   C4A16386  21.725  32.226   7.653
  955POPC   C1B16387  20.940  32.557   8.794
  955POPC   C2B16388  20.807  32.563   8.361
  955POPC   C3B16389  21.049  32.592   8.002
  955POPC   C4B16390  21.289  32.633   7.632
  956POPC   NC316391  43.513  32.738   9.465
  956POPC   PO416392  44.135  32.701   9.371
  956POPC   GL116393  43.854  32.757   9.037
  956POPC   GL216394  43.691  33.067   9.080
  956POPC   C1A16395  43.934  32.918   8.616
  956POPC   D2A16396  43.833  33.162   8.223
  956POPC   C3A16397  44.143  33.115   7.845
  956POPC   C4A16398  44.335  33.019   7.403
  956POPC   C1B16399  43.463  33.101   8.706
  956POPC   C2B16400  43.347  33.385   8.402
  956POPC   C3B16401  43.356  33.244   8.004
  956POPC   C4B16402  43.663  32.928   7.810
  957POPC   NC316403  31.132  40.532   9.486
  957POPC   PO416404  31.905  40.600   9.477
  957POPC   GL116405  31.756  40.779   9.114
  957POPC   GL216406  31.490  40.576   9.103
  957POPC   C1A16407  31.732  40.885   8.671
  957POPC   D2A16408  31.704  40.569   8.329
  957POPC   C3A16409  31.895  40.648   7.940
  957POPC   C4A16410  31.732  40.928   7.632
  957POPC   C1B16411  31.240  40.864   8.853
  957POPC   C2B16412  31.259  40.833   8.421
  957POPC   C3B16413  31.169  40.899   8.002
  957POPC   C4B16414  31.404  40.582   7.835
  958POPC   NC316415  30.752  44.944   9.763
  958POPC   PO416416  30.480  44.408   9.401
  958POPC   GL116417  30.545  44.409   8.987
  958POPC   GL216418  30.846  44.615   8.932
  958POPC   C1A16419  30.390  44.408   8.568
  958POPC   D2A16420  30.650  44.166   8.254
  958POPC   C3A16421  30.752  44.300   7.833
  958POPC   C4A16422  30.607  44.529   7.446
  958POPC   C1B16423  30.871  44.509   8.572
  958POPC   C2B16424  30.657  44.696   8.228
  958POPC   C3B16425  30.776  44.826   7.835
  958POPC   C4B16426  31.073  44.657   7.566
  959POPC   NC316427  41.401  35.053   9.470
  959POPC   PO416428  41.466  35.696   9.719
  959POPC   GL116429  41.676  35.456   9.297
  959POPC   GL216430  41.926  35.210   9.354
  959POPC   C1A16431  41.664  35.454   8.828
  959POPC   D2A16432  41.450  35.394   8.427
  959POPC   C3A16433  41.686  35.453   8.045
  959POPC   C4A16434  41.476  35.326   7.665
  959POPC   C1B16435  42.050  35.145   8.910
  959POPC   C2B16436  41.894  35.102   8.475
  959POPC   C3B16437  42.067  35.024   8.072
  959POPC   C4B16438  41.966  35.183   7.682
  960POPC   NC316439  13.264  40.930   9.727
  960POPC   PO416440  12.583  40.776   9.618
  960POPC   GL116441  12.785  40.899   9.247
  960POPC   GL216442  13.081  40.731   9.189
  960POPC   C1A16443  12.800  40.835   8.779
  960POPC   D2A16444  13.060  40.895   8.419
  960POPC   C3A16445  12.961  41.147   8.056
  960POPC   C4A16446  12.671  40.950   7.782
  960POPC   C1B16447  13.117  40.416   8.827
  960POPC   C2B16448  13.082  40.343   8.369
  960POPC   C3B16449  13.082  40.577   7.957
  960POPC   C4B16450  13.152  40.924   7.630
  961POPC   NC316451  41.031  39.166   9.644
  961POPC   PO416452  40.388  39.401   9.500
  961POPC   GL116453  40.685  39.227   9.216
  961POPC   GL216454  40.878  39.520   9.263
  961POPC   C1A16455  40.793  39.108   8.770
  961POPC   D2A16456  40.646  39.254   8.333
  961POPC   C3A16457  40.721  38.984   7.942
  961POPC   C4A16458  40.921  38.917   7.519
  961POPC   C1B16459  40.734  39.608   8.843
  961POPC   C2B16460  40.969  39.662   8.425
  961POPC   C3B16461  40.954  39.513   7.991
  961POPC   C4B16462  40.546  39.471   7.761
  962POPC   NC316463  12.585  26.367   9.438
  962POPC   PO416464  12.869  25.828   9.487
  962POPC   GL116465  12.958  26.123   9.175
  962POPC   GL216466  12.638  26.044   9.054
  962POPC   C1A16467  13.060  26.045   8.745
  962POPC   D2A16468  13.057  25.811   8.337
  962POPC   C3A16469  12.941  26.078   7.993
  962POPC   C4A16470  12.972  26.249   7.616
  962POPC   C1B16471  12.488  26.234   8.710
  962POPC   C2B16472  12.537  26.040   8.319
  962POPC   C3B16473  12.426  26.224   7.942
  962POPC   C4B16474  12.498  26.465   7.617
  963POPC   NC316475  34.536  42.594   9.685
  963POPC   PO416476  34.345  43.185   9.462
  963POPC   GL116477  34.681  43.159   9.141
  963POPC   GL216478  34.789  42.841   9.275
  963POPC   C1A16479  34.864  43.231   8.709
  963POPC   D2A16480  34.885  42.927   8.343
  963POPC   C3A16481  34.815  43.106   7.953
  963POPC   C4A16482  34.451  43.133   7.709
  963POPC   C1B16483  34.767  42.756   8.824
  963POPC   C2B16484  34.411  42.792   8.554
  963POPC   C3B16485  34.382  42.800   8.114
  963POPC   C4B16486  34.222  42.686   7.711
  964POPC   NC316487  32.139  27.710   9.518
  964POPC   PO416488  32.670  27.385   9.608
  964POPC   GL116489  32.467  27.451   9.209
  964POPC   GL216490  32.504  27.815   9.080
  964POPC   C1A16491  32.188  27.463   8.853
  964POPC   D2A16492  32.370  27.423   8.451
  964POPC   C3A16493  32.122  27.437   8.086
  964POPC   C4A16494  32.356  27.429   7.699
  964POPC   C1B16495  32.131  27.979   8.845
  964POPC   C2B16496  32.080  27.861   8.404
  964POPC   C3B16497  32.274  27.915   7.980
  964POPC   C4B16498  32.028  27.853   7.617
  965POPC   NC316499  14.541  21.691   9.249
  965POPC   PO416500  14.034  21.361   9.632
  965POPC   GL116501  14.126  21.361   9.168
  965POPC   GL216502  14.435  21.202   9.039
  965POPC   C1A16503  14.066  21.452   8.709
  965POPC   D2A16504  14.260  21.741   8.385
  965POPC   C3A16505  14.250  21.576   7.947
  965POPC   C4A16506  14.193  21.201   7.675
  965POPC   C1B16507  14.573  21.408   8.664
  965POPC   C2B16508  14.665  21.454   8.243
  965POPC   C3B16509  14.895  21.565   7.892
  965POPC   C4B16510  14.708  21.441   7.544
  966POPC   NC316511  33.611   8.596   9.553
  966POPC   PO416512  33.711   9.222   9.522
  966POPC   GL116513  33.704   8.950   9.151
  966POPC   GL216514  33.984   8.737   9.106
  966POPC   C1A16515  33.751   9.009   8.702
  966POPC   D2A16516  33.913   8.797   8.327
  966POPC   C3A16517  33.888   9.003   7.962
  966POPC   C4A16518  33.520   9.127   7.703
  966POPC   C1B16519  34.220   8.777   8.730
  966POPC   C2B16520  34.353   8.538   8.336
  966POPC   C3B16521  34.166   8.544   7.929
  966POPC   C4B16522  34.064   8.606   7.453
  967POPC   NC316523  31.300  27.152   9.339
  967POPC   PO416524  31.694  27.600   9.583
  967POPC   GL116525  31.756  27.477   9.163
  967POPC   GL216526  31.843  27.116   9.162
  967POPC   C1A16527  31.715  27.678   8.750
  967POPC   D2A16528  31.523  27.922   8.423
  967POPC   C3A16529  31.292  27.671   8.095
  967POPC   C4A16530  31.676  27.595   7.867
  967POPC   C1B16531  31.615  27.166   8.757
  967POPC   C2B16532  31.598  27.322   8.335
  967POPC   C3B16533  31.560  27.113   7.939
  967POPC   C4B16534  31.926  27.156   7.685
  968POPC   NC316535  27.545   3.527   9.585
  968POPC   PO416536  28.086   3.353   9.288
  968POPC   GL116537  27.800   3.625   9.076
  968POPC   GL216538  27.444   3.680   9.103
  968POPC   C1A16539  27.769   3.639   8.642
  968POPC   D2A16540  27.956   3.360   8.377
  968POPC   C3A16541  27.843   3.434   7.963
  968POPC   C4A16542  27.639   3.822   7.930
  968POPC   C1B16543  27.300   3.456   8.714
  968POPC   C2B16544  27.388   3.477   8.254
  968POPC   C3B16545  27.341   3.409   7.800
  968POPC   C4B16546  27.339   3.264   7.382
  969POPC   NC316547   2.172  16.120   9.478
  969POPC   PO416548   1.573  15.957   9.366
  969POPC   GL116549   1.819  16.040   9.086
  969POPC   GL216550   2.005  15.749   9.103
  969POPC   C1A16551   1.846  16.038   8.683
  969POPC   D2A16552   2.163  16.031   8.426
  969POPC   C3A16553   2.124  16.144   8.017
  969POPC   C4A16554   1.782  16.004   7.772
  969POPC   C1B16555   2.149  15.586   8.696
  969POPC   C2B16556   2.437  15.514   8.365
  969POPC   C3B16557   2.330  15.663   7.951
  969POPC   C4B16558   1.937  15.489   7.825
  970POPC   NC316559  39.368  28.805   9.460
  970POPC   PO416560  39.006  28.284   9.676
  970POPC   GL116561  39.051  28.405   9.245
  970POPC   GL216562  39.300  28.190   9.105
  970POPC   C1A16563  39.093  28.572   8.813
  970POPC   D2A16564  39.284  28.360   8.446
  970POPC   C3A16565  39.304  28.575   8.055
  970POPC   C4A16566  39.479  28.434   7.682
  970POPC   C1B16567  38.941  28.049   8.876
  970POPC   C2B16568  38.785  28.251   8.541
  970POPC   C3B16569  38.886  28.243   8.121
  970POPC   C4B16570  39.002  28.272   7.728
  971POPC   NC316571  44.470  23.889   9.586
  971POPC   PO416572   0.063  23.590   9.527
  971POPC   GL116573  44.741  23.610   9.188
  971POPC   GL216574  44.517  23.874   9.102
  971POPC   C1A16575  44.591  23.503   8.762
  971POPC   D2A16576  44.865  23.402   8.432
  971POPC   C3A16577  44.792  23.513   7.976
  971POPC   C4A16578  44.403  23.496   7.733
  971POPC   C1B16579  44.518  24.014   8.728
  971POPC   C2B16580  44.605  23.857   8.319
  971POPC   C3B16581  44.482  23.968   7.905
  971POPC   C4B16582  44.623  23.960   7.454
  972POPC   NC316583  10.523  17.011   9.513
  972POPC   PO416584  10.620  16.305   9.558
  972POPC   GL116585  10.526  16.577   9.225
  972POPC   GL216586  10.183  16.580   9.233
  972POPC   C1A16587  10.603  16.738   8.825
  972POPC   D2A16588  10.750  16.569   8.463
  972POPC   C3A16589  10.584  16.736   8.096
  972POPC   C4A16590  10.848  16.745   7.758
  972POPC   C1B16591  10.167  16.974   8.934
  972POPC   C2B16592  10.324  17.086   8.525
  972POPC   C3B16593  10.167  17.061   8.097
  972POPC   C4B16594  10.333  16.967   7.701
  973POPC   NC316595  41.778  23.564   9.460
  973POPC   PO416596  42.381  23.955   9.398
  973POPC   GL116597  42.170  23.709   9.106
  973POPC   GL216598  41.888  23.920   9.093
  973POPC   C1A16599  42.373  23.454   8.793
  973POPC   D2A16600  42.598  23.442   8.407
  973POPC   C3A16601  42.481  23.649   8.023
  973POPC   C4A16602  42.503  23.778   7.625
  973POPC   C1B16603  42.023  24.010   8.662
  973POPC   C2B16604  42.098  23.926   8.233
  973POPC   C3B16605  42.198  24.134   7.856
  973POPC   C4B16606  42.159  24.069   7.400
  974POPC   NC316607   1.364  34.866   9.431
  974POPC   PO416608   0.768  34.750   9.410
  974POPC   GL116609   1.077  34.629   9.060
  974POPC   GL216610   1.449  34.532   9.059
  974POPC   C1A16611   1.176  34.745   8.640
  974POPC   D2A16612   1.360  34.965   8.298
  974POPC   C3A16613   1.200  34.841   7.903
  974POPC   C4A16614   0.948  34.842   7.520
  974POPC   C1B16615   1.416  34.296   8.679
  974POPC   C2B16616   1.346  34.437   8.240
  974POPC   C3B16617   1.211  34.316   7.808
  974POPC   C4B16618   1.096  34.336   7.344
  975POPC   NC316619  13.971  15.013   9.590
  975POPC   PO416620  13.467  15.360   9.824
  975POPC   GL116621  13.481  15.188   9.334
  975POPC   GL216622  13.353  14.836   9.217
  975POPC   C1A16623  13.512  15.266   8.894
  975POPC   D2A16624  13.723  15.163   8.497
  975POPC   C3A16625  13.527  15.280   8.101
  975POPC   C4A16626  13.559  15.338   7.641
  975POPC   C1B16627  13.687  14.791   8.882
  975POPC   C2B16628  13.906  14.682   8.489
  975POPC   C3B16629  13.688  14.781   8.097
  975POPC   C4B16630  13.827  14.880   7.680
  976POPC   NC316631  36.525  42.345   9.436
  976POPC   PO416632  37.189  42.178   9.449
  976POPC   GL116633  36.935  42.321   9.103
  976POPC   GL216634  36.644  42.534   8.996
  976POPC   C1A16635  36.980  42.206   8.656
  976POPC   D2A16636  37.164  42.080   8.237
  976POPC   C3A16637  36.859  42.161   7.891
  976POPC   C4A16638  36.639  42.507   7.663
  976POPC   C1B16639  36.774  42.715   8.639
  976POPC   C2B16640  36.837  42.538   8.251
  976POPC   C3B16641  37.025  42.689   7.910
  976POPC   C4B16642  37.139  42.699   7.469
  977POPC   NC316643  38.288  40.628   9.657
  977POPC   PO416644  38.228  41.268   9.501
  977POPC   GL116645  38.420  40.903   9.256
  977POPC   GL216646  38.149  40.654   9.168
  977POPC   C1A16647  38.607  40.731   8.889
  977POPC   D2A16648  38.483  40.892   8.488
  977POPC   C3A16649  38.580  40.713   8.095
  977POPC   C4A16650  38.487  40.859   7.698
  977POPC   C1B16651  38.067  40.794   8.759
  977POPC   C2B16652  38.075  40.636   8.305
  977POPC   C3B16653  38.067  40.650   7.842
  977POPC   C4B16654  38.062  40.915   7.415
  978POPC   NC316655  30.885  39.565   9.557
  978POPC   PO416656  30.662  40.218   9.436
  978POPC   GL116657  30.688  40.175   9.027
  978POPC   GL216658  30.340  40.272   9.032
  978POPC   C1A16659  30.660  39.901   8.677
  978POPC   D2A16660  30.467  39.760   8.296
  978POPC   C3A16661  30.680  39.943   7.931
  978POPC   C4A16662  30.628  39.853   7.489
  978POPC   C1B16663  30.226  40.472   8.702
  978POPC   C2B16664  30.457  40.389   8.336
  978POPC   C3B16665  30.284  40.270   7.930
  978POPC   C4B16666  30.521  40.334   7.566
  979POPC   NC316667  14.004  17.155  10.037
  979POPC   PO416668  14.224  16.715   9.576
  979POPC   GL116669  14.419  16.845   9.159
  979POPC   GL216670  14.374  17.189   9.115
  979POPC   C1A16671  14.643  16.703   8.780
  979POPC   D2A16672  14.576  16.363   8.537
  979POPC   C3A16673  14.575  16.431   8.102
  979POPC   C4A16674  14.391  16.593   7.733
  979POPC   C1B16675  14.233  17.007   8.714
  979POPC   C2B16676  14.394  16.860   8.328
  979POPC   C3B16677  14.405  17.062   7.917
  979POPC   C4B16678  14.516  17.043   7.470
  980POPC   NC316679  11.058  32.482   9.543
  980POPC   PO416680  11.095  33.128   9.469
  980POPC   GL116681  11.027  32.899   9.136
  980POPC   GL216682  10.807  32.564   9.100
  980POPC   C1A16683  11.163  33.127   8.764
  980POPC   D2A16684  11.324  33.365   8.406
  980POPC   C3A16685  11.406  33.190   7.968
  980POPC   C4A16686  11.474  33.244   7.508
  980POPC   C1B16687  11.058  32.631   8.725
  980POPC   C2B16688  11.209  32.834   8.336
  980POPC   C3B16689  11.540  32.700   8.076
  980POPC   C4B16690  11.452  32.726   7.670
  981POPC   NC316691  38.103  18.807   9.392
  981POPC   PO416692  37.610  19.175   9.387
  981POPC   GL116693  37.802  19.069   9.042
  981POPC   GL216694  37.711  18.685   9.077
  981POPC   C1A16695  37.806  19.314   8.627
  981POPC   D2A16696  37.492  19.265   8.279
  981POPC   C3A16697  37.719  19.265   7.949
  981POPC   C4A16698  38.146  19.362   7.992
  981POPC   C1B16699  37.720  18.810   8.635
  981POPC   C2B16700  37.887  18.882   8.262
  981POPC   C3B16701  37.753  18.769   7.872
  981POPC   C4B16702  37.606  18.655   7.486
  982POPC   NC316703  37.181  25.319   9.396
  982POPC   PO416704  36.523  25.217   9.437
  982POPC   GL116705  36.608  25.310   9.030
  982POPC   GL216706  36.863  25.578   9.058
  982POPC   C1A16707  36.934  25.190   8.712
  982POPC   D2A16708  37.288  25.236   8.391
  982POPC   C3A16709  37.097  25.234   7.990
  982POPC   C4A16710  36.688  25.064   7.883
  982POPC   C1B16711  37.148  25.668   8.675
  982POPC   C2B16712  37.286  25.744   8.200
  982POPC   C3B16713  37.115  25.667   7.734
  982POPC   C4B16714  37.135  25.478   7.283
  983POPC   NC316715  25.947   0.850   9.446
  983POPC   PO416716  26.453   1.200   9.760
  983POPC   GL116717  26.283   1.326   9.287
  983POPC   GL216718  25.913   1.374   9.221
  983POPC   C1A16719  26.156   1.173   8.825
  983POPC   D2A16720  26.168   0.902   8.424
  983POPC   C3A16721  26.316   1.102   8.038
  983POPC   C4A16722  26.319   1.347   7.632
  983POPC   C1B16723  25.709   1.448   8.786
  983POPC   C2B16724  25.669   1.583   8.375
  983POPC   C3B16725  25.884   1.702   8.049
  983POPC   C4B16726  25.812   1.546   7.672
  984POPC   NC316727  14.015  25.081   9.455
  984POPC   PO416728  13.519  25.616   9.520
  984POPC   GL116729  13.715  25.406   9.173
  984POPC   GL216730  13.602  25.060   9.101
  984POPC   C1A16731  13.834  25.422   8.747
  984POPC   D2A16732  13.740  25.669   8.394
  984POPC   C3A16733  13.857  25.430   8.089
  984POPC   C4A16734  14.053  25.307   7.770
  984POPC   C1B16735  13.541  24.902   8.667
  984POPC   C2B16736  13.661  24.971   8.219
  984POPC   C3B16737  13.554  25.096   7.790
  984POPC   C4B16738  13.074  25.128   7.745
  985POPC   NC316739   2.440  13.509   9.571
  985POPC   PO416740   3.103  13.321   9.456
  985POPC   GL116741   3.035  13.559   9.068
  985POPC   GL216742   2.669  13.647   9.098
  985POPC   C1A16743   2.972  13.721   8.629
  985POPC   D2A16744   2.665  13.569   8.314
  985POPC   C3A16745   2.682  13.317   7.955
  985POPC   C4A16746   2.667  13.406   7.523
  985POPC   C1B16747   2.584  13.994   8.812
  985POPC   C2B16748   2.511  14.042   8.375
  985POPC   C3B16749   2.674  13.934   7.958
  985POPC   C4B16750   2.639  14.182   7.618
  986POPC   NC316751  21.840  33.971   9.345
  986POPC   PO416752  22.264  33.458   9.404
  986POPC   GL116753  22.333  33.849   9.105
  986POPC   GL216754  22.076  34.026   8.914
  986POPC   C1A16755  22.495  33.953   8.670
  986POPC   D2A16756  22.362  34.061   8.238
  986POPC   C3A16757  22.412  33.747   7.936
  986POPC   C4A16758  22.429  33.631   7.514
  986POPC   C1B16759  22.085  33.597   8.744
  986POPC   C2B16760  21.962  33.555   8.333
  986POPC   C3B16761  21.895  33.889   8.042
  986POPC   C4B16762  21.688  33.867   7.665
  987POPC   NC316763  29.417  40.121   9.434
  987POPC   PO416764  28.728  40.267   9.416
  987POPC   GL116765  29.044  40.294   9.101
  987POPC   GL216766  29.135  39.945   9.020
  987POPC   C1A16767  29.195  40.313   8.658
  987POPC   D2A16768  29.103  39.992   8.333
  987POPC   C3A16769  29.197  40.013   7.857
  987POPC   C4A16770  29.359  40.351   7.559
  987POPC   C1B16771  29.320  39.649   8.729
  987POPC   C2B16772  29.562  39.550   8.379
  987POPC   C3B16773  29.448  39.377   8.020
  987POPC   C4B16774  29.414  39.547   7.652
  988POPC   NC316775  17.296   5.668   9.555
  988POPC   PO416776  17.697   6.123   9.419
  988POPC   GL116777  17.537   5.988   9.060
  988POPC   GL216778  17.223   6.041   9.094
  988POPC   C1A16779  17.632   5.886   8.628
  988POPC   D2A16780  17.459   5.893   8.218
  988POPC   C3A16781  17.640   5.643   7.912
  988POPC   C4A16782  18.001   5.704   7.612
  988POPC   C1B16783  17.136   5.967   8.660
  988POPC   C2B16784  17.226   6.317   8.354
  988POPC   C3B16785  17.279   6.327   7.964
  988POPC   C4B16786  17.215   5.962   7.758
  989POPC   NC316787  24.492  14.902   9.480
  989POPC   PO416788  24.559  14.181   9.495
  989POPC   GL116789  24.601  14.417   9.095
  989POPC   GL216790  24.763  14.744   9.084
  989POPC   C1A16791  24.636  14.510   8.663
  989POPC   D2A16792  24.570  14.276   8.319
  989POPC   C3A16793  24.250  14.502   8.092
  989POPC   C4A16794  24.165  14.564   7.668
  989POPC   C1B16795  24.833  15.020   8.714
  989POPC   C2B16796  24.706  14.906   8.321
  989POPC   C3B16797  24.727  14.635   8.007
  989POPC   C4B16798  24.653  14.647   7.591
  990POPC   NC316799  38.714  36.096   9.564
  990POPC   PO416800  38.098  35.883   9.522
  990POPC   GL116801  38.416  35.888   9.186
  990POPC   GL216802  38.383  36.262   9.112
  990POPC   C1A16803  38.689  35.995   8.815
  990POPC   D2A16804  38.669  36.307   8.474
  990POPC   C3A16805  38.729  36.161   8.035
  990POPC   C4A16806  38.407  36.008   7.767
  990POPC   C1B16807  38.063  36.400   8.800
  990POPC   C2B16808  37.946  36.295   8.398
  990POPC   C3B16809  38.168  36.380   8.020
  990POPC   C4B16810  38.211  36.465   7.555
  991POPC   NC316811  27.761  28.224   9.597
  991POPC   PO416812  27.177  28.625   9.614
  991POPC   GL116813  27.485  28.582   9.266
  991POPC   GL216814  27.545  28.236   9.124
  991POPC   C1A16815  27.632  28.618   8.822
  991POPC   D2A16816  27.598  28.501   8.402
  991POPC   C3A16817  27.644  28.736   8.043
  991POPC   C4A16818  27.492  28.848   7.659
  991POPC   C1B16819  27.861  28.168   8.773
  991POPC   C2B16820  27.892  28.101   8.305
  991POPC   C3B16821  27.778  28.250   7.899
  991POPC   C4B16822  27.620  27.913   7.648
  992POPC   NC316823  20.106  23.058   9.478
  992POPC   PO416824  19.383  23.069   9.387
  992POPC   GL116825  19.738  23.066   9.126
  992POPC   GL216826  19.908  22.710   9.102
  992POPC   C1A16827  19.942  23.105   8.746
  992POPC   D2A16828  19.828  22.895   8.382
  992POPC   C3A16829  20.037  23.044   8.026
  992POPC   C4A16830  20.296  22.808   7.821
  992POPC   C1B16831  19.546  22.705   8.774
  992POPC   C2B16832  19.339  22.767   8.348
  992POPC   C3B16833  19.513  23.017   7.974
  992POPC   C4B16834  19.788  23.055   7.585
  993POPC   NC316835  23.836  11.717   9.416
  993POPC   PO416836  24.101  11.119   9.307
  993POPC   GL116837  23.884  11.330   9.066
  993POPC   GL216838  24.109  11.618   9.003
  993POPC   C1A16839  23.769  11.086   8.721
  993POPC   D2A16840  23.661  10.956   8.340
  993POPC   C3A16841  23.749  11.296   8.069
  993POPC   C4A16842  23.430  11.359   7.841
  993POPC   C1B16843  23.899  11.567   8.615
  993POPC   C2B16844  24.116  11.609   8.276
  993POPC   C3B16845  24.077  11.885   7.961
  993POPC   C4B16846  23.774  11.698   7.706
  994POPC   NC316847  24.680  42.490   9.465
  994POPC   PO416848  24.271  42.028   9.319
  994POPC   GL116849  24.589  42.188   9.020
  994POPC   GL216850  24.509  42.567   8.967
  994POPC   C1A16851  24.612  42.243   8.570
  994POPC   D2A16852  24.567  42.641   8.365
  994POPC   C3A16853  24.716  42.564   7.968
  994POPC   C4A16854  24.512  42.296   7.670
  994POPC   C1B16855  24.135  42.341   8.754
  994POPC   C2B16856  24.140  41.961   8.497
  994POPC   C3B16857  24.243  42.149   8.090
  994POPC   C4B16858  24.191  42.589   7.928
  995POPC   NC316859   3.212   7.867   9.260
  995POPC   PO416860   3.733   8.341   9.428
  995POPC   GL116861   3.674   8.416   9.036
  995POPC   GL216862   3.305   8.343   9.061
  995POPC   C1A16863   3.537   8.556   8.655
  995POPC   D2A16864   3.376   8.361   8.327
  995POPC   C3A16865   3.618   8.546   8.047
  995POPC   C4A16866   3.832   8.391   7.753
  995POPC   C1B16867   3.068   8.169   8.699
  995POPC   C2B16868   3.143   7.884   8.352
  995POPC   C3B16869   3.310   7.985   7.957
  995POPC   C4B16870   3.195   8.379   7.820
  996POPC   NC316871  18.164  29.427   9.191
  996POPC   PO416872  18.623  29.721   9.461
  996POPC   GL116873  18.563  29.923   9.072
  996POPC   GL216874  18.653  30.278   9.066
  996POPC   C1A16875  18.442  29.736   8.671
  996POPC   D2A16876  18.102  29.613   8.412
  996POPC   C3A16877  18.138  29.665   7.968
  996POPC   C4A16878  18.510  29.561   7.752
  996POPC   C1B16879  18.459  30.242   8.630
  996POPC   C2B16880  18.423  30.021   8.216
  996POPC   C3B16881  18.459  30.068   7.761
  996POPC   C4B16882  18.206  30.381   7.491
  997POPC   NC316883   5.580  12.828   9.790
  997POPC   PO416884   6.114  12.660   9.696
  997POPC   GL116885   5.875  12.727   9.293
  997POPC   GL216886   5.609  12.594   9.104
  997POPC   C1A16887   5.912  12.918   8.841
  997POPC   D2A16888   6.001  12.879   8.400
  997POPC   C3A16889   6.209  13.076   8.091
  997POPC   C4A16890   6.155  12.958   7.686
  997POPC   C1B16891   5.649  12.552   8.638
  997POPC   C2B16892   5.534  12.776   8.270
  997POPC   C3B16893   5.716  12.712   7.856
  997POPC   C4B16894   5.684  12.523   7.409
  998POPC   NC316895  24.660  26.222   9.410
  998POPC   PO416896  24.161  25.948   9.727
  998POPC   GL116897  24.234  26.090   9.241
  998POPC   GL216898  24.490  25.775   9.216
  998POPC   C1A16899  24.172  26.279   8.822
  998POPC   D2A16900  24.233  26.620   8.491
  998POPC   C3A16901  24.404  26.444   8.100
  998POPC   C4A16902  24.355  26.258   7.727
  998POPC   C1B16903  24.451  25.831   8.805
  998POPC   C2B16904  24.532  26.096   8.459
  998POPC   C3B16905  24.552  25.923   8.052
  998POPC   C4B16906  24.422  25.739   7.672
  999POPC   NC316907  38.993  42.743   9.517
  999POPC   PO416908  39.041  43.480   9.534
  999POPC   GL116909  39.262  43.276   9.191
  999POPC   GL216910  39.208  42.934   9.082
  999POPC   C1A16911  39.444  43.256   8.788
  999POPC   D2A16912  39.276  43.327   8.422
  999POPC   C3A16913  39.389  43.121   8.069
  999POPC   C4A16914  39.366  43.244   7.664
  999POPC   C1B16915  38.911  42.753   8.818
  999POPC   C2B16916  39.071  42.818   8.417
  999POPC   C3B16917  39.063  42.654   8.025
  999POPC   C4B16918  39.338  42.745   7.698
 1000POPC   NC316919  19.319   3.739   9.809
 1000POPC   PO416920  18.746   3.627   9.508
 1000POPC   GL116921  18.981   3.773   9.217
 1000POPC   GL216922  19.188   3.469   9.259
 1000POPC   C1A16923  18.987   3.890   8.773
 1000POPC   D2A16924  18.767   3.687   8.466
 1000POPC   C3A16925  18.950   3.678   8.097
 1000POPC   C4A16926  18.820   3.602   7.717
 1000POPC   C1B16927  18.987   3.397   8.859
 1000POPC   C2B16928  19.209   3.423   8.487
 1000POPC   C3B16929  19.361   3.330   8.083
 1000POPC   C4B16930  19.330   3.568   7.736
 1001POPC   NC316931  39.795  27.290   9.293
 1001POPC   PO416932  40.057  26.629   9.429
 1001POPC   GL116933  39.852  26.716   9.058
 1001POPC   GL216934  39.579  26.895   9.054
 1001POPC   C1A16935  39.936  26.931   8.700
 1001POPC   D2A16936  40.212  26.853   8.405
 1001POPC   C3A16937  40.217  27.022   8.021
 1001POPC   C4A16938  40.088  26.843   7.678
 1001POPC   C1B16939  39.433  26.948   8.637
 1001POPC   C2B16940  39.600  26.781   8.272
 1001POPC   C3B16941  39.636  26.919   7.885
 1001POPC   C4B16942  39.607  26.728   7.469
 1002POPC   NC316943   1.871  39.098   9.567
 1002POPC   PO416944   2.256  39.594   9.865
 1002POPC   GL116945   2.269  39.544   9.377
 1002POPC   GL216946   1.934  39.528   9.291
 1002POPC   C1A16947   2.243  39.458   8.882
 1002POPC   D2A16948   2.284  39.473   8.399
 1002POPC   C3A16949   2.141  39.207   8.031
 1002POPC   C4A16950   2.296  39.260   7.615
 1002POPC   C1B16951   1.626  39.435   8.953
 1002POPC   C2B16952   1.521  39.476   8.519
 1002POPC   C3B16953   1.759  39.527   8.148
 1002POPC   C4B16954   1.758  39.429   7.729
 1003POPC   NC316955  14.443   1.784   9.571
 1003POPC   PO416956  14.293   2.354   9.829
 1003POPC   GL116957  14.310   2.251   9.334
 1003POPC   GL216958  14.242   1.908   9.129
 1003POPC   C1A16959  14.296   2.327   8.861
 1003POPC   D2A16960  14.267   2.082   8.510
 1003POPC   C3A16961  14.511   2.247   8.185
 1003POPC   C4A16962  14.491   2.335   7.763
 1003POPC   C1B16963  14.642   1.953   8.877
 1003POPC   C2B16964  14.690   1.783   8.464
 1003POPC   C3B16965  14.535   1.755   8.069
 1003POPC   C4B16966  14.843   1.614   7.797
 1004POPC   NC316967  14.088  43.356   9.612
 1004POPC   PO416968  13.464  43.064   9.582
 1004POPC   GL116969  13.529  42.928   9.195
 1004POPC   GL216970  13.255  42.660   9.187
 1004POPC   C1A16971  13.705  43.174   8.869
 1004POPC   D2A16972  13.546  43.277   8.471
 1004POPC   C3A16973  13.762  43.244   8.111
 1004POPC   C4A16974  13.866  43.471   7.755
 1004POPC   C1B16975  13.351  42.812   8.754
 1004POPC   C2B16976  13.119  43.017   8.463
 1004POPC   C3B16977  13.278  43.053   8.075
 1004POPC   C4B16978  13.543  43.014   7.706
 1005POPC   NC316979   8.064  21.403   9.728
 1005POPC   PO416980   8.561  20.975   9.661
 1005POPC   GL116981   8.464  21.236   9.241
 1005POPC   GL216982   8.120  21.450   9.201
 1005POPC   C1A16983   8.433  21.249   8.762
 1005POPC   D2A16984   8.623  21.226   8.331
 1005POPC   C3A16985   8.385  21.126   7.964
 1005POPC   C4A16986   8.539  21.336   7.601
 1005POPC   C1B16987   8.113  21.652   8.770
 1005POPC   C2B16988   8.132  21.442   8.330
 1005POPC   C3B16989   8.129  21.587   7.906
 1005POPC   C4B16990   7.871  21.690   7.545
 1006POPC   NC316991  18.576  31.816   9.636
 1006POPC   PO416992  18.244  31.276   9.578
 1006POPC   GL116993  18.488  31.485   9.234
 1006POPC   GL216994  18.498  31.222   8.982
 1006POPC   C1A16995  18.628  31.678   8.808
 1006POPC   D2A16996  18.703  31.459   8.375
 1006POPC   C3A16997  18.421  31.372   7.984
 1006POPC   C4A16998  18.297  31.590   7.563
 1006POPC   C1B16999  18.222  31.422   8.630
 1006POPC   C2B17000  18.018  31.570   8.223
 1006POPC   C3B17001  17.911  31.373   7.818
 1006POPC   C4B17002  17.841  31.446   7.371
 1007POPC   NC317003  23.562  44.818   9.398
 1007POPC   PO417004  23.849  44.219   9.594
 1007POPC   GL117005  23.919  44.499   9.194
 1007POPC   GL217006  24.044  44.862   9.170
 1007POPC   C1A17007  23.716  44.603   8.792
 1007POPC   D2A17008  23.464  44.542   8.423
 1007POPC   C3A17009  23.501  44.880   8.135
 1007POPC   C4A17010  23.437  44.787   7.750
 1007POPC   C1B17011  24.172  44.799   8.736
 1007POPC   C2B17012  23.960  44.861   8.364
 1007POPC   C3B17013  23.955  44.678   7.969
 1007POPC   C4B17014  24.180  44.699   7.571
 1008POPC   NC317015  38.285  29.101   9.670
 1008POPC   PO417016  37.667  29.119   9.518
 1008POPC   GL117017  37.592  28.902   9.172
 1008POPC   GL217018  37.544  29.218   9.029
 1008POPC   C1A17019  37.509  28.778   8.773
 1008POPC   D2A17020  37.431  29.021   8.420
 1008POPC   C3A17021  37.432  28.785   8.051
 1008POPC   C4A17022  37.718  28.918   7.840
 1008POPC   C1B17023  37.806  29.262   8.711
 1008POPC   C2B17024  38.092  29.307   8.391
 1008POPC   C3B17025  38.013  29.308   7.974
 1008POPC   C4B17026  38.233  29.526   7.687
 1009POPC   NC317027  24.917  27.710   9.765
 1009POPC   PO417028  25.344  27.527   9.277
 1009POPC   GL117029  25.106  27.508   8.938
 1009POPC   GL217030  25.184  27.205   8.853
 1009POPC   C1A17031  25.125  27.790   8.599
 1009POPC   D2A17032  24.904  28.005   8.319
 1009POPC   C3A17033  25.179  27.865   7.998
 1009POPC   C4A17034  25.300  27.477   7.762
 1009POPC   C1B17035  25.522  27.443   8.654
 1009POPC   C2B17036  25.524  27.621   8.292
 1009POPC   C3B17037  25.760  27.487   7.989
 1009POPC   C4B17038  25.772  27.338   7.606
 1010POPC   NC317039   9.637  23.552   9.307
 1010POPC   PO417040   9.966  24.039   9.615
 1010POPC   GL117041   9.944  23.955   9.201
 1010POPC   GL217042   9.611  24.034   9.144
 1010POPC   C1A17043   9.902  23.818   8.778
 1010POPC   D2A17044  10.108  23.753   8.407
 1010POPC   C3A17045   9.900  23.730   8.028
 1010POPC   C4A17046  10.130  23.892   7.729
 1010POPC   C1B17047   9.499  24.169   8.766
 1010POPC   C2B17048   9.635  23.997   8.385
 1010POPC   C3B17049   9.583  24.118   7.958
 1010POPC   C4B17050   9.591  23.976   7.591
 1011POPC   NC317051   9.396  19.667   9.649
 1011POPC   PO417052   9.911  20.109   9.477
 1011POPC   GL117053   9.855  19.865   9.141
 1011POPC   GL217054   9.530  19.885   9.171
 1011POPC   C1A17055   9.955  19.839   8.754
 1011POPC   D2A17056   9.734  19.815   8.412
 1011POPC   C3A17057   9.953  19.659   8.086
 1011POPC   C4A17058   9.743  19.904   7.783
 1011POPC   C1B17059   9.471  19.613   8.834
 1011POPC   C2B17060   9.271  19.574   8.425
 1011POPC   C3B17061   9.472  19.507   8.050
 1011POPC   C4B17062   9.479  19.481   7.638
 1012POPC   NC317063  11.724  14.656   9.449
 1012POPC   PO417064  12.350  14.267   9.426
 1012POPC   GL117065  12.222  14.243   9.021
 1012POPC   GL217066  11.861  14.279   9.105
 1012POPC   C1A17067  12.341  14.540   8.664
 1012POPC   D2A17068  12.164  14.805   8.371
 1012POPC   C3A17069  12.114  14.622   7.960
 1012POPC   C4A17070  12.330  14.230   7.864
 1012POPC   C1B17071  11.848  14.451   8.723
 1012POPC   C2B17072  11.983  14.290   8.349
 1012POPC   C3B17073  11.744  14.275   7.998
 1012POPC   C4B17074  11.897  14.233   7.615
 1013POPC   NC317075   6.291  18.817   9.337
 1013POPC   PO417076   5.861  19.336   9.581
 1013POPC   GL117077   5.942  19.180   9.166
 1013POPC   GL217078   5.904  18.833   9.001
 1013POPC   C1A17079   6.182  19.203   8.781
 1013POPC   D2A17080   6.080  18.875   8.479
 1013POPC   C3A17081   5.883  19.097   8.138
 1013POPC   C4A17082   6.014  19.248   7.722
 1013POPC   C1B17083   5.672  19.151   8.691
 1013POPC   C2B17084   5.406  19.276   8.310
 1013POPC   C3B17085   5.405  19.129   7.887
 1013POPC   C4B17086   5.727  18.835   7.732
 1014POPC   NC317087  35.194  26.482   9.603
 1014POPC   PO417088  35.397  27.078   9.751
 1014POPC   GL117089  35.283  26.892   9.289
 1014POPC   GL217090  35.495  27.080   9.047
 1014POPC   C1A17091  35.098  26.848   8.861
 1014POPC   D2A17092  35.181  26.910   8.448
 1014POPC   C3A17093  34.999  26.728   8.080
 1014POPC   C4A17094  35.010  27.019   7.721
 1014POPC   C1B17095  35.580  26.719   8.742
 1014POPC   C2B17096  35.499  26.535   8.293
 1014POPC   C3B17097  35.674  26.601   7.860
 1014POPC   C4B17098  35.436  26.721   7.434
 1015POPC   NC317099  29.076   6.347   9.461
 1015POPC   PO417100  29.343   7.005   9.309
 1015POPC   GL117101  29.060   6.726   9.117
 1015POPC   GL217102  29.242   6.443   8.999
 1015POPC   C1A17103  28.899   6.825   8.745
 1015POPC   D2A17104  29.129   6.937   8.389
 1015POPC   C3A17105  28.920   6.833   8.047
 1015POPC   C4A17106  28.936   6.692   7.651
 1015POPC   C1B17107  29.426   6.704   8.721
 1015POPC   C2B17108  29.530   6.561   8.341
 1015POPC   C3B17109  29.447   6.685   7.958
 1015POPC   C4B17110  29.404   6.426   7.594
 1016POPC   NC317111   8.435  18.055   9.539
 1016POPC   PO417112   9.085  18.375   9.521
 1016POPC   GL117113   8.983  18.488   9.138
 1016POPC   GL217114   8.666  18.361   9.169
 1016POPC   C1A17115   8.950  18.263   8.747
 1016POPC   D2A17116   8.871  17.952   8.438
 1016POPC   C3A17117   8.941  18.118   8.071
 1016POPC   C4A17118   9.086  18.017   7.639
 1016POPC   C1B17119   8.501  18.535   8.818
 1016POPC   C2B17120   8.529  18.311   8.448
 1016POPC   C3B17121   8.545  18.449   8.031
 1016POPC   C4B17122   8.797  18.412   7.688
 1017POPC   NC317123   6.875  30.747   9.767
 1017POPC   PO417124   6.263  30.752   9.675
 1017POPC   GL117125   6.594  30.751   9.316
 1017POPC   GL217126   6.766  30.449   9.367
 1017POPC   C1A17127   6.650  30.891   8.860
 1017POPC   D2A17128   6.404  30.772   8.485
 1017POPC   C3A17129   6.381  30.910   8.065
 1017POPC   C4A17130   6.442  30.689   7.706
 1017POPC   C1B17131   6.928  30.438   8.976
 1017POPC   C2B17132   6.875  30.533   8.547
 1017POPC   C3B17133   6.856  30.660   8.129
 1017POPC   C4B17134   7.044  30.423   7.816
 1018POPC   NC317135  10.306  11.594   9.429
 1018POPC   PO417136   9.686  11.417   9.573
 1018POPC   GL117137   9.705  11.463   9.138
 1018POPC   GL217138   9.894  11.749   9.162
 1018POPC   C1A17139   9.577  11.326   8.710
 1018POPC   D2A17140   9.431  11.188   8.304
 1018POPC   C3A17141   9.755  11.244   7.988
 1018POPC   C4A17142  10.074  10.919   7.895
 1018POPC   C1B17143   9.970  11.662   8.745
 1018POPC   C2B17144   9.928  11.545   8.358
 1018POPC   C3B17145  10.069  11.694   7.994
 1018POPC   C4B17146  10.065  11.887   7.614
 1019POPC   NC317147  41.555   2.915   9.602
 1019POPC   PO417148  41.315   2.337   9.790
 1019POPC   GL117149  41.377   2.561   9.332
 1019POPC   GL217150  41.641   2.428   9.151
 1019POPC   C1A17151  41.430   2.857   8.948
 1019POPC   D2A17152  41.486   3.024   8.521
 1019POPC   C3A17153  41.291   2.911   8.133
 1019POPC   C4A17154  41.245   2.938   7.716
 1019POPC   C1B17155  41.540   2.417   8.714
 1019POPC   C2B17156  41.580   2.538   8.277
 1019POPC   C3B17157  41.557   2.536   7.797
 1019POPC   C4B17158  41.700   2.381   7.379
 1020POPC   NC317159  36.758  20.596   9.585
 1020POPC   PO417160  37.375  20.603   9.316
 1020POPC   GL117161  36.982  20.667   9.146
 1020POPC   GL217162  36.915  20.913   8.900
 1020POPC   C1A17163  36.646  20.474   8.888
 1020POPC   D2A17164  36.554  20.712   8.532
 1020POPC   C3A17165  36.829  20.700   8.178
 1020POPC   C4A17166  36.808  20.716   7.744
 1020POPC   C1B17167  37.090  20.570   8.665
 1020POPC   C2B17168  37.132  20.326   8.340
 1020POPC   C3B17169  37.273  20.503   7.996
 1020POPC   C4B17170  37.220  20.426   7.588
 1021POPC   NC317171  33.096  23.059   9.699
 1021POPC   PO417172  32.692  22.532   9.698
 1021POPC   GL117173  32.942  22.645   9.343
 1021POPC   GL217174  32.888  23.006   9.222
 1021POPC   C1A17175  32.908  22.573   8.905
 1021POPC   D2A17176  33.003  22.744   8.512
 1021POPC   C3A17177  32.829  22.845   8.129
 1021POPC   C4A17178  33.115  22.985   7.786
 1021POPC   C1B17179  32.667  23.032   8.804
 1021POPC   C2B17180  32.670  23.263   8.380
 1021POPC   C3B17181  32.770  23.363   7.920
 1021POPC   C4B17182  32.557  23.405   7.493
 1022POPC   NC317183   7.600   5.776   9.401
 1022POPC   PO417184   7.249   6.345   9.467
 1022POPC   GL117185   7.387   6.126   9.088
 1022POPC   GL217186   7.267   5.762   9.020
 1022POPC   C1A17187   7.668   6.080   8.731
 1022POPC   D2A17188   7.423   5.955   8.366
 1022POPC   C3A17189   7.309   6.187   7.993
 1022POPC   C4A17190   6.994   5.969   7.718
 1022POPC   C1B17191   7.546   5.570   8.719
 1022POPC   C2B17192   7.561   5.471   8.276
 1022POPC   C3B17193   7.559   5.753   7.901
 1022POPC   C4B17194   7.736   5.646   7.492
 1023POPC   NC317195  19.235  24.372   9.428
 1023POPC   PO417196  18.788  24.835   9.462
 1023POPC   GL117197  18.888  24.820   9.036
 1023POPC   GL217198  19.244  24.738   9.017
 1023POPC   C1A17199  18.990  24.696   8.596
 1023POPC   D2A17200  19.181  24.607   8.261
 1023POPC   C3A17201  18.905  24.467   7.981
 1023POPC   C4A17202  18.873  24.666   7.612
 1023POPC   C1B17203  19.358  24.375   8.763
 1023POPC   C2B17204  19.542  24.285   8.385
 1023POPC   C3B17205  19.341  24.170   8.008
 1023POPC   C4B17206  19.210  24.300   7.581
 1024POPC   NC317207  32.272  31.770   9.568
 1024POPC   PO417208  31.914  31.275   9.578
 1024POPC   GL117209  32.151  31.424   9.177
 1024POPC   GL217210  32.254  31.758   9.071
 1024POPC   C1A17211  32.218  31.370   8.736
 1024POPC   D2A17212  31.944  31.365   8.385
 1024POPC   C3A17213  32.074  31.568   8.020
 1024POPC   C4A17214  32.349  31.410   7.717
 1024POPC   C1B17215  32.406  31.861   8.709
 1024POPC   C2B17216  32.489  31.712   8.347
 1024POPC   C3B17217  32.644  31.999   8.054
 1024POPC   C4B17218  32.418  32.051   7.671
 1025POPC   NC317219  43.453  27.435   9.534
 1025POPC   PO417220  43.131  28.073   9.642
 1025POPC   GL117221  43.098  27.764   9.285
 1025POPC   GL217222  43.159  27.427   9.114
 1025POPC   C1A17223  43.121  27.870   8.850
 1025POPC   D2A17224  43.323  27.765   8.452
 1025POPC   C3A17225  43.166  27.470   8.165
 1025POPC   C4A17226  43.215  27.431   7.695
 1025POPC   C1B17227  42.955  27.402   8.707
 1025POPC   C2B17228  42.803  27.758   8.467
 1025POPC   C3B17229  42.910  27.950   8.094
 1025POPC   C4B17230  42.790  27.617   7.846
 1026POPC   NC317231  31.978  17.844   9.315
 1026POPC   PO417232  32.395  17.271   9.463
 1026POPC   GL117233  32.201  17.393   9.132
 1026POPC   GL217234  32.398  17.684   9.080
 1026POPC   C1A17235  32.080  17.240   8.737
 1026POPC   D2A17236  31.966  17.346   8.310
 1026POPC   C3A17237  32.256  17.622   8.108
 1026POPC   C4A17238  32.455  17.579   7.701
 1026POPC   C1B17239  32.166  17.748   8.699
 1026POPC   C2B17240  31.889  17.867   8.399
 1026POPC   C3B17241  31.915  18.014   7.984
 1026POPC   C4B17242  32.297  18.040   7.800
 1027POPC   NC317243  35.658  29.975   9.437
 1027POPC   PO417244  36.289  29.676   9.416
 1027POPC   GL117245  36.212  29.982   9.095
 1027POPC   GL217246  35.867  29.950   8.985
 1027POPC   C1A17247  36.253  29.962   8.648
 1027POPC   D2A17248  36.028  30.087   8.241
 1027POPC   C3A17249  36.147  30.064   7.808
 1027POPC   C4A17250  36.381  30.077   7.404
 1027POPC   C1B17251  35.639  30.030   8.600
 1027POPC   C2B17252  35.678  29.727   8.268
 1027POPC   C3B17253  35.886  29.627   7.900
 1027POPC   C4B17254  35.913  29.485   7.477
 1028POPC   NC317255  30.210  21.324   9.515
 1028POPC   PO417256  29.756  21.666   9.199
 1028POPC   GL117257  29.871  21.280   9.097
 1028POPC   GL217258  29.537  21.118   9.114
 1028POPC   C1A17259  30.099  21.359   8.692
 1028POPC   D2A17260  29.949  21.764   8.473
 1028POPC   C3A17261  30.156  21.804   8.087
 1028POPC   C4A17262  30.081  21.568   7.702
 1028POPC   C1B17263  29.610  21.237   8.661
 1028POPC   C2B17264  29.776  21.310   8.260
 1028POPC   C3B17265  29.791  21.196   7.827
 1028POPC   C4B17266  29.700  21.257   7.348
 1029POPC   NC317267  11.592   0.492   9.496
 1029POPC   PO417268  10.932   0.182   9.553
 1029POPC   GL117269  11.150   0.483   9.266
 1029POPC   GL217270  11.366   0.270   9.093
 1029POPC   C1A17271  11.193   0.711   8.851
 1029POPC   D2A17272  10.992   0.676   8.455
 1029POPC   C3A17273  11.144   0.801   8.049
 1029POPC   C4A17274  11.110   0.703   7.607
 1029POPC   C1B17275  11.491   0.337   8.662
 1029POPC   C2B17276  11.377   0.346   8.215
 1029POPC   C3B17277  11.349   0.106   7.803
 1029POPC   C4B17278  11.639   0.101   7.447
 1030POPC   NC317279   7.841  20.042   9.222
 1030POPC   PO417280   7.536  19.459   9.514
 1030POPC   GL117281   7.483  19.670   9.110
 1030POPC   GL217282   7.251  19.943   9.011
 1030POPC   C1A17283   7.596  19.756   8.686
 1030POPC   D2A17284   7.461  19.817   8.286
 1030POPC   C3A17285   7.801  19.805   7.985
 1030POPC   C4A17286   7.699  19.801   7.537
 1030POPC   C1B17287   7.395  20.232   8.670
 1030POPC   C2B17288   7.449  20.363   8.241
 1030POPC   C3B17289   7.415  20.096   7.852
 1030POPC   C4B17290   7.216  19.961   7.466
 1031POPC   NC317291  30.619  19.020   9.567
 1031POPC   PO417292  30.224  19.383   9.150
 1031POPC   GL117293  30.522  19.011   9.066
 1031POPC   GL217294  30.881  19.123   9.086
 1031POPC   C1A17295  30.767  18.793   8.728
 1031POPC   D2A17296  30.683  18.851   8.297
 1031POPC   C3A17297  30.925  18.868   7.947
 1031POPC   C4A17298  30.771  18.877   7.497
 1031POPC   C1B17299  30.692  19.307   8.662
 1031POPC   C2B17300  30.365  19.247   8.314
 1031POPC   C3B17301  30.509  19.158   7.892
 1031POPC   C4B17302  30.880  19.346   7.724
 1032POPC   NC317303  16.552   9.134   9.553
 1032POPC   PO417304  16.953   8.602   9.543
 1032POPC   GL117305  16.784   8.855   9.192
 1032POPC   GL217306  16.403   8.871   9.136
 1032POPC   C1A17307  16.713   8.771   8.742
 1032POPC   D2A17308  16.925   9.059   8.469
 1032POPC   C3A17309  16.786   8.872   8.106
 1032POPC   C4A17310  16.800   8.606   7.769
 1032POPC   C1B17311  16.603   9.233   8.881
 1032POPC   C2B17312  16.485   9.304   8.444
 1032POPC   C3B17313  16.284   9.090   8.102
 1032POPC   C4B17314  16.447   8.980   7.710
 1033POPC   NC317315  23.520  19.234   9.500
 1033POPC   PO417316  23.922  18.785   9.428
 1033POPC   GL117317  23.640  18.966   9.092
 1033POPC   GL217318  23.674  19.346   9.024
 1033POPC   C1A17319  23.459  19.048   8.678
 1033POPC   D2A17320  23.656  19.033   8.293
 1033POPC   C3A17321  23.563  19.036   7.885
 1033POPC   C4A17322  23.751  19.343   7.672
 1033POPC   C1B17323  23.948  19.168   8.729
 1033POPC   C2B17324  24.107  19.274   8.364
 1033POPC   C3B17325  24.096  19.105   8.001
 1033POPC   C4B17326  24.082  18.854   7.683
 1034POPC   NC317327  42.416  22.803   9.583
 1034POPC   PO417328  41.791  23.128   9.671
 1034POPC   GL117329  42.048  23.179   9.224
 1034POPC   GL217330  42.368  22.982   9.106
 1034POPC   C1A17331  42.025  23.038   8.758
 1034POPC   D2A17332  42.261  23.000   8.365
 1034POPC   C3A17333  42.162  23.251   8.007
 1034POPC   C4A17334  42.143  23.218   7.570
 1034POPC   C1B17335  42.630  23.006   8.743
 1034POPC   C2B17336  42.803  22.995   8.315
 1034POPC   C3B17337  42.594  22.957   7.894
 1034POPC   C4B17338  42.696  22.662   7.518
 1035POPC   NC317339  10.960  14.687   9.422
 1035POPC   PO417340  11.540  14.167   9.513
 1035POPC   GL117341  11.339  14.350   9.140
 1035POPC   GL217342  11.045  14.158   9.212
 1035POPC   C1A17343  11.362  14.586   8.678
 1035POPC   D2A17344  11.658  14.753   8.337
 1035POPC   C3A17345  11.566  14.720   7.930
 1035POPC   C4A17346  11.276  14.427   7.798
 1035POPC   C1B17347  11.033  14.206   8.760
 1035POPC   C2B17348  11.045  14.374   8.326
 1035POPC   C3B17349  10.927  14.136   8.001
 1035POPC   C4B17350  10.757  14.191   7.613
 1036POPC   NC317351  16.555   5.629   9.604
 1036POPC   PO417352  17.071   6.081   9.613
 1036POPC   GL117353  16.781   5.979   9.332
 1036POPC   GL217354  16.907   5.662   9.206
 1036POPC   C1A17355  16.606   5.958   8.936
 1036POPC   D2A17356  16.590   5.825   8.511
 1036POPC   C3A17357  16.853   5.989   8.178
 1036POPC   C4A17358  16.490   6.061   7.918
 1036POPC   C1B17359  16.835   5.475   8.818
 1036POPC   C2B17360  16.777   5.357   8.391
 1036POPC   C3B17361  16.608   5.549   8.061
 1036POPC   C4B17362  16.778   5.728   7.695
 1037POPC   NC317363  30.617  36.675   9.584
 1037POPC   PO417364  30.740  37.447   9.516
 1037POPC   GL117365  30.672  37.063   9.196
 1037POPC   GL217366  30.675  36.691   9.096
 1037POPC   C1A17367  30.471  37.031   8.769
 1037POPC   D2A17368  30.633  36.839   8.387
 1037POPC   C3A17369  30.649  37.010   7.983
 1037POPC   C4A17370  30.810  36.989   7.585
 1037POPC   C1B17371  30.504  36.493   8.765
 1037POPC   C2B17372  30.354  36.422   8.402
 1037POPC   C3B17373  30.587  36.441   8.082
 1037POPC   C4B17374  30.565  36.567   7.714
 1038POPC   NC317375   1.029  36.671   9.510
 1038POPC   PO417376   1.734  36.745   9.358
 1038POPC   GL117377   1.318  36.902   9.170
 1038POPC   GL217378   1.020  36.709   9.017
 1038POPC   C1A17379   1.186  37.132   8.831
 1038POPC   D2A17380   1.338  37.147   8.440
 1038POPC   C3A17381   1.185  37.144   8.056
 1038POPC   C4A17382   1.329  37.099   7.630
 1038POPC   C1B17383   1.389  36.637   8.757
 1038POPC   C2B17384   1.404  36.487   8.364
 1038POPC   C3B17385   1.397  36.649   8.011
 1038POPC   C4B17386   1.184  36.529   7.681
 1039POPC   NC317387  25.868  33.257   9.625
 1039POPC   PO417388  26.459  33.263   9.456
 1039POPC   GL117389  26.193  33.297   9.113
 1039POPC   GL217390  25.860  33.142   9.135
 1039POPC   C1A17391  26.121  33.197   8.699
 1039POPC   D2A17392  26.115  32.950   8.370
 1039POPC   C3A17393  26.037  33.168   7.984
 1039POPC   C4A17394  26.132  33.030   7.564
 1039POPC   C1B17395  25.783  32.836   8.801
 1039POPC   C2B17396  25.663  32.737   8.358
 1039POPC   C3B17397  25.884  32.689   7.999
 1039POPC   C4B17398  25.861  32.615   7.607
 1040POPC   NC317399  24.272  41.422   9.452
 1040POPC   PO417400  24.950  41.544   9.516
 1040POPC   GL117401  24.704  41.388   9.129
 1040POPC   GL217402  24.470  41.659   9.029
 1040POPC   C1A17403  24.533  41.321   8.667
 1040POPC   D2A17404  24.508  41.632   8.343
 1040POPC   C3A17405  24.364  41.468   7.972
 1040POPC   C4A17406  24.445  41.502   7.563
 1040POPC   C1B17407  24.838  41.748   8.768
 1040POPC   C2B17408  24.955  41.906   8.376
 1040POPC   C3B17409  24.735  42.016   8.054
 1040POPC   C4B17410  24.811  41.795   7.723
 1041POPC   NC317411  10.632   6.615   9.516
 1041POPC   PO417412  10.264   6.183   9.194
 1041POPC   GL117413  10.303   6.613   9.103
 1041POPC   GL217414  10.667   6.530   9.022
 1041POPC   C1A17415  10.326   6.675   8.688
 1041POPC   D2A17416  10.494   6.369   8.450
 1041POPC   C3A17417  10.469   6.587   8.093
 1041POPC   C4A17418  10.249   6.842   7.826
 1041POPC   C1B17419  10.764   6.904   8.821
 1041POPC   C2B17420  10.730   7.110   8.422
 1041POPC   C3B17421  10.769   7.001   8.008
 1041POPC   C4B17422  11.016   6.891   7.667
 1042POPC   NC317423  43.839  40.294   9.359
 1042POPC   PO417424  44.396  40.036   9.503
 1042POPC   GL117425  44.219  39.767   9.170
 1042POPC   GL217426  43.822  39.767   9.137
 1042POPC   C1A17427  44.135  39.814   8.721
 1042POPC   D2A17428  44.028  40.098   8.363
 1042POPC   C3A17429  44.073  39.904   7.951
 1042POPC   C4A17430  44.006  40.227   7.659
 1042POPC   C1B17431  43.628  39.724   8.739
 1042POPC   C2B17432  43.742  39.678   8.335
 1042POPC   C3B17433  43.544  39.680   7.953
 1042POPC   C4B17434  43.706  39.813   7.568
 1043POPC   NC317435  25.749  24.127   9.395
 1043POPC   PO417436  25.127  24.581   9.458
 1043POPC   GL117437  25.077  24.505   9.080
 1043POPC   GL217438  25.452  24.399   9.079
 1043POPC   C1A17439  25.100  24.230   8.775
 1043POPC   D2A17440  25.356  24.207   8.427
 1043POPC   C3A17441  25.185  24.282   8.033
 1043POPC   C4A17442  25.093  24.673   7.872
 1043POPC   C1B17443  25.397  24.651   8.708
 1043POPC   C2B17444  25.460  24.765   8.277
 1043POPC   C3B17445  25.604  24.766   7.863
 1043POPC   C4B17446  25.714  24.753   7.394
 1044POPC   NC317447  32.302  22.777   9.566
 1044POPC   PO417448  31.698  22.754   9.444
 1044POPC   GL117449  32.033  22.602   9.171
 1044POPC   GL217450  32.211  22.927   9.067
 1044POPC   C1A17451  32.218  22.535   8.755
 1044POPC   D2A17452  32.352  22.748   8.366
 1044POPC   C3A17453  32.406  22.624   7.920
 1044POPC   C4A17454  32.617  22.919   7.652
 1044POPC   C1B17455  32.200  23.165   8.655
 1044POPC   C2B17456  32.171  23.207   8.190
 1044POPC   C3B17457  31.990  23.096   7.779
 1044POPC   C4B17458  32.201  23.050   7.371
 1045POPC   NC317459  30.706   0.722   9.524
 1045POPC   PO417460  31.257   0.846   9.268
 1045POPC   GL117461  30.811   0.876   9.045
 1045POPC   GL217462  30.470   1.086   9.054
 1045POPC   C1A17463  30.694   0.979   8.615
 1045POPC   D2A17464  30.773   0.972   8.180
 1045POPC   C3A17465  30.831   1.262   7.836
 1045POPC   C4A17466  30.639   1.172   7.399
 1045POPC   C1B17467  30.380   1.396   8.695
 1045POPC   C2B17468  30.513   1.428   8.246
 1045POPC   C3B17469  30.335   1.305   7.845
 1045POPC   C4B17470  30.283   1.521   7.440
 1046POPC   NC317471  31.114  26.334   9.400
 1046POPC   PO417472  30.727  25.905   9.766
 1046POPC   GL117473  30.751  25.988   9.300
 1046POPC   GL217474  30.717  26.289   9.097
 1046POPC   C1A17475  30.768  25.818   8.883
 1046POPC   D2A17476  30.844  25.879   8.455
 1046POPC   C3A17477  30.588  25.724   8.110
 1046POPC   C4A17478  30.680  26.046   7.840
 1046POPC   C1B17479  30.443  26.227   8.763
 1046POPC   C2B17480  30.433  26.171   8.338
 1046POPC   C3B17481  30.402  26.426   7.972
 1046POPC   C4B17482  30.519  26.480   7.553
 1047POPC   NC317483  14.736  27.455   9.552
 1047POPC   PO417484  14.097  27.431   9.389
 1047POPC   GL117485  14.442  27.303   9.125
 1047POPC   GL217486  14.730  27.553   9.068
 1047POPC   C1A17487  14.450  27.375   8.686
 1047POPC   D2A17488  14.605  27.207   8.340
 1047POPC   C3A17489  14.400  27.383   8.010
 1047POPC   C4A17490  14.561  27.555   7.678
 1047POPC   C1B17491  14.873  27.676   8.653
 1047POPC   C2B17492  14.606  27.746   8.288
 1047POPC   C3B17493  14.339  27.926   7.951
 1047POPC   C4B17494  14.421  28.306   7.718
 1048POPC   NC317495  26.917   2.348   9.364
 1048POPC   PO417496  26.406   2.777   9.460
 1048POPC   GL117497  26.693   2.778   9.130
 1048POPC   GL217498  27.004   2.880   9.227
 1048POPC   C1A17499  26.750   2.719   8.713
 1048POPC   D2A17500  26.524   2.965   8.445
 1048POPC   C3A17501  26.650   2.884   8.061
 1048POPC   C4A17502  26.676   2.590   7.789
 1048POPC   C1B17503  27.213   2.927   8.842
 1048POPC   C2B17504  27.242   2.608   8.528
 1048POPC   C3B17505  27.135   2.681   8.110
 1048POPC   C4B17506  27.084   2.931   7.730
 1049POPC   NC317507  42.459  31.336   9.477
 1049POPC   PO417508  42.177  31.960   9.542
 1049POPC   GL117509  42.209  31.674   9.152
 1049POPC   GL217510  42.483  31.450   8.995
 1049POPC   C1A17511  42.242  31.799   8.711
 1049POPC   D2A17512  42.286  31.562   8.304
 1049POPC   C3A17513  42.209  31.785   7.949
 1049POPC   C4A17514  42.511  31.676   7.697
 1049POPC   C1B17515  42.143  31.299   8.709
 1049POPC   C2B17516  41.851  31.277   8.356
 1049POPC   C3B17517  42.027  31.235   7.920
 1049POPC   C4B17518  41.943  30.972   7.565
 1050POPC   NC317519  33.521   7.936   9.436
 1050POPC   PO417520  34.029   8.409   9.585
 1050POPC   GL117521  33.854   8.245   9.204
 1050POPC   GL217522  33.585   8.397   9.095
 1050POPC   C1A17523  33.741   7.988   8.799
 1050POPC   D2A17524  33.573   8.119   8.403
 1050POPC   C3A17525  33.769   8.256   8.083
 1050POPC   C4A17526  33.604   7.965   7.772
 1050POPC   C1B17527  33.723   8.498   8.723
 1050POPC   C2B17528  33.442   8.607   8.436
 1050POPC   C3B17529  33.454   8.753   8.067
 1050POPC   C4B17530  33.639   8.594   7.714
 1051POPC   NC317531  24.866  37.678   9.457
 1051POPC   PO417532  24.313  38.032   9.616
 1051POPC   GL117533  24.448  37.777   9.226
 1051POPC   GL217534  24.279  37.511   9.119
 1051POPC   C1A17535  24.556  37.875   8.794
 1051POPC   D2A17536  24.593  38.111   8.416
 1051POPC   C3A17537  24.616  37.877   8.064
 1051POPC   C4A17538  24.509  37.837   7.659
 1051POPC   C1B17539  24.140  37.568   8.737
 1051POPC   C2B17540  24.373  37.544   8.376
 1051POPC   C3B17541  24.318  37.423   7.951
 1051POPC   C4B17542  24.080  37.570   7.625
 1052POPC   NC317543  32.811  25.397   9.705
 1052POPC   PO417544  32.206  25.151   9.484
 1052POPC   GL117545  32.231  25.200   9.087
 1052POPC   GL217546  32.076  24.866   9.074
 1052POPC   C1A17547  32.094  25.395   8.692
 1052POPC   D2A17548  32.051  25.152   8.252
 1052POPC   C3A17549  31.978  25.342   7.867
 1052POPC   C4A17550  31.652  25.354   7.565
 1052POPC   C1B17551  32.169  24.904   8.686
 1052POPC   C2B17552  32.491  25.145   8.475
 1052POPC   C3B17553  32.527  25.054   8.061
 1052POPC   C4B17554  32.488  25.399   7.804
 1053POPC   NC317555   4.044  12.309   9.508
 1053POPC   PO417556   4.531  12.014   9.792
 1053POPC   GL117557   4.648  12.127   9.319
 1053POPC   GL217558   4.372  12.303   9.100
 1053POPC   C1A17559   4.591  11.920   8.879
 1053POPC   D2A17560   4.722  11.993   8.450
 1053POPC   C3A17561   4.388  12.120   8.151
 1053POPC   C4A17562   4.104  11.902   7.821
 1053POPC   C1B17563   4.065  12.089   8.861
 1053POPC   C2B17564   3.957  12.106   8.459
 1053POPC   C3B17565   3.914  12.286   8.108
 1053POPC   C4B17566   4.107  12.412   7.755
 1054POPC   NC317567  28.123  34.649   9.506
 1054POPC   PO417568  28.716  34.343   9.483
 1054POPC   GL117569  28.584  34.620   9.169
 1054POPC   GL217570  28.251  34.532   9.028
 1054POPC   C1A17571  28.655  34.644   8.739
 1054POPC   D2A17572  28.353  34.617   8.406
 1054POPC   C3A17573  28.522  34.781   8.027
 1054POPC   C4A17574  28.477  34.659   7.589
 1054POPC   C1B17575  28.229  34.950   8.789
 1054POPC   C2B17576  28.131  35.092   8.373
 1054POPC   C3B17577  27.946  34.770   8.112
 1054POPC   C4B17578  27.848  34.658   7.682
 1055POPC   NC317579  12.398   6.272   9.418
 1055POPC   PO417580  11.806   6.768   9.489
 1055POPC   GL117581  11.874   6.796   9.079
 1055POPC   GL217582  11.982   6.455   9.083
 1055POPC   C1A17583  12.087   6.786   8.709
 1055POPC   D2A17584  12.010   6.504   8.396
 1055POPC   C3A17585  12.126   6.794   8.101
 1055POPC   C4A17586  12.292   6.974   7.758
 1055POPC   C1B17587  12.286   6.315   8.784
 1055POPC   C2B17588  12.523   6.565   8.502
 1055POPC   C3B17589  12.446   6.389   8.114
 1055POPC   C4B17590  12.203   6.446   7.741
 1056POPC   NC317591  23.444  37.317   9.377
 1056POPC   PO417592  23.697  36.707   9.430
 1056POPC   GL117593  23.880  36.849   9.083
 1056POPC   GL217594  23.903  37.179   9.173
 1056POPC   C1A17595  23.804  36.729   8.691
 1056POPC   D2A17596  23.588  36.867   8.357
 1056POPC   C3A17597  23.796  36.679   8.038
 1056POPC   C4A17598  23.657  36.784   7.677
 1056POPC   C1B17599  23.739  37.248   8.751
 1056POPC   C2B17600  23.936  37.261   8.336
 1056POPC   C3B17601  23.839  37.199   7.910
 1056POPC   C4B17602  23.712  37.251   7.470
 1057POPC   NC317603  28.875  16.836   9.507
 1057POPC   PO417604  29.390  16.373   9.413
 1057POPC   GL117605  29.075  16.491   9.134
 1057POPC   GL217606  29.215  16.824   9.114
 1057POPC   C1A17607  28.974  16.609   8.692
 1057POPC   D2A17608  28.785  16.670   8.262
 1057POPC   C3A17609  29.079  16.759   7.960
 1057POPC   C4A17610  29.125  16.979   7.607
 1057POPC   C1B17611  29.189  17.076   8.736
 1057POPC   C2B17612  29.031  17.119   8.317
 1057POPC   C3B17613  29.347  17.220   8.012
 1057POPC   C4B17614  29.455  17.361   7.603
 1058POPC   NC317615  11.875   9.697   9.541
 1058POPC   PO417616  12.226  10.189   9.357
 1058POPC   GL117617  12.093   9.985   9.113
 1058POPC   GL217618  11.749  10.073   9.132
 1058POPC   C1A17619  12.274   9.877   8.733
 1058POPC   D2A17620  12.157   9.604   8.440
 1058POPC   C3A17621  12.321   9.744   8.061
 1058POPC   C4A17622  12.175   9.644   7.681
 1058POPC   C1B17623  11.784   9.717   8.851
 1058POPC   C2B17624  11.678   9.724   8.468
 1058POPC   C3B17625  11.795   9.629   8.073
 1058POPC   C4B17626  11.673   9.760   7.705
 1059POPC   NC317627  33.348  34.622   9.457
 1059POPC   PO417628  32.637  34.595   9.292
 1059POPC   GL117629  32.907  34.376   9.034
 1059POPC   GL217630  33.190  34.559   8.998
 1059POPC   C1A17631  33.027  34.321   8.590
 1059POPC   D2A17632  33.231  34.480   8.216
 1059POPC   C3A17633  32.988  34.432   7.844
 1059POPC   C4A17634  32.902  34.683   7.472
 1059POPC   C1B17635  33.152  34.824   8.676
 1059POPC   C2B17636  33.269  34.989   8.312
 1059POPC   C3B17637  33.097  34.925   7.903
 1059POPC   C4B17638  33.104  35.145   7.502
 1060POPC   NC317639   0.998  13.111   9.342
 1060POPC   PO417640   1.474  12.608   9.458
 1060POPC   GL117641   1.385  12.837   9.055
 1060POPC   GL217642   1.586  13.093   8.892
 1060POPC   C1A17643   1.431  12.721   8.605
 1060POPC   D2A17644   1.426  12.869   8.173
 1060POPC   C3A17645   1.050  12.838   7.899
 1060POPC   C4A17646   0.939  12.630   7.466
 1060POPC   C1B17647   1.191  13.197   8.661
 1060POPC   C2B17648   1.077  13.289   8.225
 1060POPC   C3B17649   1.346  13.263   7.847
 1060POPC   C4B17650   1.327  12.969   7.479
 1061POPC   NC317651  39.869   8.780   9.450
 1061POPC   PO417652  40.107   9.379   9.363
 1061POPC   GL117653  39.988   9.075   9.047
 1061POPC   GL217654  40.168   8.723   9.044
 1061POPC   C1A17655  39.982   8.971   8.610
 1061POPC   D2A17656  40.193   8.782   8.283
 1061POPC   C3A17657  40.071   8.987   7.872
 1061POPC   C4A17658  39.717   9.291   7.748
 1061POPC   C1B17659  39.887   8.489   8.755
 1061POPC   C2B17660  39.670   8.605   8.378
 1061POPC   C3B17661  39.795   8.579   7.968
 1061POPC   C4B17662  40.242   8.504   7.863
 1062POPC   NC317663  36.536  30.838   9.456
 1062POPC   PO417664  36.967  30.409   9.477
 1062POPC   GL117665  36.765  30.539   9.121
 1062POPC   GL217666  36.620  30.294   8.912
 1062POPC   C1A17667  36.681  30.841   8.807
 1062POPC   D2A17668  36.596  30.801   8.381
 1062POPC   C3A17669  36.693  31.097   8.076
 1062POPC   C4A17670  36.646  30.911   7.657
 1062POPC   C1B17671  37.058  30.459   8.738
 1062POPC   C2B17672  37.209  30.460   8.322
 1062POPC   C3B17673  36.947  30.628   7.989
 1062POPC   C4B17674  37.105  30.532   7.607
 1063POPC   NC317675   0.644   8.591   9.462
 1063POPC   PO417676   0.067   8.220   9.484
 1063POPC   GL117677   0.267   8.256   9.078
 1063POPC   GL217678   0.572   8.015   8.982
 1063POPC   C1A17679   0.255   8.229   8.631
 1063POPC   D2A17680   0.607   8.158   8.385
 1063POPC   C3A17681   0.524   7.991   8.024
 1063POPC   C4A17682   0.347   8.151   7.659
 1063POPC   C1B17683   0.690   8.417   8.812
 1063POPC   C2B17684   0.883   8.590   8.432
 1063POPC   C3B17685   0.831   8.449   8.015
 1063POPC   C4B17686   0.780   8.474   7.560
 1064POPC   NC317687  44.343  22.134   9.435
 1064POPC   PO417688  44.945  22.008   9.605
 1064POPC   GL117689  44.819  22.212   9.209
 1064POPC   GL217690   0.113  22.058   9.110
 1064POPC   C1A17691  44.556  22.364   8.829
 1064POPC   D2A17692  44.349  22.086   8.495
 1064POPC   C3A17693  44.491  22.191   8.071
 1064POPC   C4A17694  44.677  21.921   7.725
 1064POPC   C1B17695  45.000  22.155   8.703
 1064POPC   C2B17696   0.185  22.099   8.320
 1064POPC   C3B17697  44.992  22.242   7.971
 1064POPC   C4B17698  44.829  22.392   7.596
 1065POPC   NC317699  27.247   7.768   9.387
 1065POPC   PO417700  26.518   7.837   9.401
 1065POPC   GL117701  26.677   8.005   9.005
 1065POPC   GL217702  27.027   8.021   9.009
 1065POPC   C1A17703  26.701   8.287   8.619
 1065POPC   D2A17704  26.565   8.613   8.320
 1065POPC   C3A17705  26.594   8.401   7.939
 1065POPC   C4A17706  26.839   8.058   7.811
 1065POPC   C1B17707  27.174   8.364   8.769
 1065POPC   C2B17708  27.215   8.370   8.329
 1065POPC   C3B17709  27.118   8.488   7.889
 1065POPC   C4B17710  27.204   8.451   7.432
 1066POPC   NC317711  21.164  32.149   9.555
 1066POPC   PO417712  21.323  31.405   9.487
 1066POPC   GL117713  21.355  31.467   9.071
 1066POPC   GL217714  21.456  31.805   9.111
 1066POPC   C1A17715  21.392  31.518   8.620
 1066POPC   D2A17716  21.703  31.499   8.325
 1066POPC   C3A17717  21.585  31.363   7.908
 1066POPC   C4A17718  21.319  31.536   7.636
 1066POPC   C1B17719  21.632  31.965   8.728
 1066POPC   C2B17720  21.778  32.017   8.300
 1066POPC   C3B17721  21.493  31.898   7.975
 1066POPC   C4B17722  21.159  32.135   7.811
 1067POPC   NC317723   3.085  16.266   9.552
 1067POPC   PO417724   2.559  15.848   9.509
 1067POPC   GL117725   2.762  15.839   9.117
 1067POPC   GL217726   3.086  16.012   9.124
 1067POPC   C1A17727   2.593  15.895   8.697
 1067POPC   D2A17728   2.619  15.970   8.255
 1067POPC   C3A17729   2.792  15.901   7.925
 1067POPC   C4A17730   2.506  16.116   7.676
 1067POPC   C1B17731   2.880  16.288   8.865
 1067POPC   C2B17732   3.027  16.129   8.475
 1067POPC   C3B17733   3.093  16.287   8.084
 1067POPC   C4B17734   2.967  16.351   7.677
 1068POPC   NC317735  25.227  41.155   9.581
 1068POPC   PO417736  25.649  41.706   9.375
 1068POPC   GL117737  25.542  41.467   9.058
 1068POPC   GL217738  25.240  41.324   9.113
 1068POPC   C1A17739  25.358  41.619   8.678
 1068POPC   D2A17740  25.489  41.502   8.280
 1068POPC   C3A17741  25.251  41.743   7.985
 1068POPC   C4A17742  25.294  41.831   7.530
 1068POPC   C1B17743  25.024  41.217   8.749
 1068POPC   C2B17744  24.978  41.406   8.373
 1068POPC   C3B17745  24.874  41.364   7.975
 1068POPC   C4B17746  25.150  41.325   7.655
 1069POPC   NC317747   3.798  10.392   9.473
 1069POPC   PO417748   3.237  10.753   9.530
 1069POPC   GL117749   3.492  10.700   9.206
 1069POPC   GL217750   3.774  10.934   9.246
 1069POPC   C1A17751   3.433  10.454   8.832
 1069POPC   D2A17752   3.453  10.255   8.445
 1069POPC   C3A17753   3.380  10.473   8.065
 1069POPC   C4A17754   3.517  10.321   7.695
 1069POPC   C1B17755   3.640  10.931   8.790
 1069POPC   C2B17756   3.618  10.821   8.368
 1069POPC   C3B17757   3.607  11.027   7.954
 1069POPC   C4B17758   3.445  10.881   7.563
 1070POPC   NC317759  24.234   0.967   9.429
 1070POPC   PO417760  24.490   1.516   9.680
 1070POPC   GL117761  24.429   1.429   9.213
 1070POPC   GL217762  24.607   1.126   9.074
 1070POPC   C1A17763  24.281   1.376   8.755
 1070POPC   D2A17764  24.527   1.414   8.338
 1070POPC   C3A17765  24.289   1.366   7.977
 1070POPC   C4A17766  24.132   1.328   7.572
 1070POPC   C1B17767  24.747   0.834   8.748
 1070POPC   C2B17768  24.799   0.987   8.332
 1070POPC   C3B17769  24.661   1.025   7.917
 1070POPC   C4B17770  24.806   0.782   7.567
 1071POPC   NC317771  18.678  31.154   9.621
 1071POPC   PO417772  18.954  30.572   9.556
 1071POPC   GL117773  19.168  30.772   9.205
 1071POPC   GL217774  19.159  30.451   9.065
 1071POPC   C1A17775  19.140  30.821   8.739
 1071POPC   D2A17776  19.318  30.560   8.390
 1071POPC   C3A17777  19.138  30.697   8.007
 1071POPC   C4A17778  18.835  30.776   7.685
 1071POPC   C1B17779  18.961  30.324   8.665
 1071POPC   C2B17780  18.879  30.259   8.217
 1071POPC   C3B17781  18.914  30.288   7.763
 1071POPC   C4B17782  18.689  30.383   7.357
 1072POPC   NC317783  11.346  10.507   9.792
 1072POPC   PO417784  10.735  10.452   9.871
 1072POPC   GL117785  10.992  10.504   9.381
 1072POPC   GL217786  11.367  10.447   9.275
 1072POPC   C1A17787  11.060  10.375   8.878
 1072POPC   D2A17788  11.153  10.584   8.441
 1072POPC   C3A17789  11.051  10.389   8.002
 1072POPC   C4A17790  11.196  10.457   7.542
 1072POPC   C1B17791  11.542  10.574   8.856
 1072POPC   C2B17792  11.677  10.576   8.417
 1072POPC   C3B17793  11.482  10.633   8.025
 1072POPC   C4B17794  11.632  10.771   7.640
 1073POPC   NC317795  41.451  22.800   9.589
 1073POPC   PO417796  41.264  23.468   9.569
 1073POPC   GL117797  41.221  23.195   9.151
 1073POPC   GL217798  41.257  22.817   9.126
 1073POPC   C1A17799  41.465  23.072   8.720
 1073POPC   D2A17800  41.719  22.760   8.440
 1073POPC   C3A17801  41.804  22.857   7.998
 1073POPC   C4A17802  41.662  23.228   7.814
 1073POPC   C1B17803  41.268  22.584   8.739
 1073POPC   C2B17804  41.216  22.802   8.351
 1073POPC   C3B17805  41.257  22.951   7.977
 1073POPC   C4B17806  41.354  22.736   7.641
 1074POPC   NC317807   5.610  16.473   9.542
 1074POPC   PO417808   6.088  16.991   9.314
 1074POPC   GL117809   5.878  16.707   9.120
 1074POPC   GL217810   5.953  16.398   9.143
 1074POPC   C1A17811   5.713  16.674   8.738
 1074POPC   D2A17812   5.789  16.963   8.424
 1074POPC   C3A17813   5.768  16.809   8.012
 1074POPC   C4A17814   5.850  17.029   7.635
 1074POPC   C1B17815   6.171  16.478   8.738
 1074POPC   C2B17816   6.199  16.649   8.340
 1074POPC   C3B17817   6.154  16.459   7.958
 1074POPC   C4B17818   6.171  16.331   7.543
 1075POPC   NC317819  20.963  24.503   9.481
 1075POPC   PO417820  20.312  24.315   9.573
 1075POPC   GL117821  20.444  24.582   9.222
 1075POPC   GL217822  20.778  24.729   9.067
 1075POPC   C1A17823  20.377  24.617   8.801
 1075POPC   D2A17824  20.709  24.701   8.503
 1075POPC   C3A17825  20.566  24.601   8.103
 1075POPC   C4A17826  20.501  24.752   7.685
 1075POPC   C1B17827  20.773  24.295   8.841
 1075POPC   C2B17828  20.708  24.141   8.393
 1075POPC   C3B17829  20.843  24.198   7.932
 1075POPC   C4B17830  20.988  24.563   7.672
 1076POPC   NC317831  11.968  22.421   9.520
 1076POPC   PO417832  12.189  21.856   9.697
 1076POPC   GL117833  11.980  22.009   9.261
 1076POPC   GL217834  12.216  22.230   9.103
 1076POPC   C1A17835  11.802  22.092   8.836
 1076POPC   D2A17836  11.878  22.359   8.461
 1076POPC   C3A17837  11.837  22.149   8.061
 1076POPC   C4A17838  11.900  22.247   7.624
 1076POPC   C1B17839  12.388  22.191   8.692
 1076POPC   C2B17840  12.414  22.524   8.368
 1076POPC   C3B17841  12.195  22.518   8.027
 1076POPC   C4B17842  12.388  22.212   7.794
 1077POPC   NC317843  16.221  28.173   9.661
 1077POPC   PO417844  15.674  28.366   9.458
 1077POPC   GL117845  16.007  28.186   9.197
 1077POPC   GL217846  16.044  28.482   9.000
 1077POPC   C1A17847  16.212  28.041   8.828
 1077POPC   D2A17848  16.081  28.111   8.402
 1077POPC   C3A17849  16.263  28.203   7.978
 1077POPC   C4A17850  16.074  28.402   7.576
 1077POPC   C1B17851  15.712  28.240   8.758
 1077POPC   C2B17852  15.575  28.093   8.333
 1077POPC   C3B17853  15.537  28.235   7.880
 1077POPC   C4B17854  15.558  28.467   7.434
 1078POPC   NC317855  24.830  17.154   9.427
 1078POPC   PO417856  24.202  17.296   9.491
 1078POPC   GL117857  24.408  17.255   9.130
 1078POPC   GL217858  24.633  17.524   9.078
 1078POPC   C1A17859  24.340  17.334   8.709
 1078POPC   D2A17860  24.317  17.162   8.343
 1078POPC   C3A17861  24.518  17.341   8.053
 1078POPC   C4A17862  24.625  17.414   7.646
 1078POPC   C1B17863  24.492  17.829   8.734
 1078POPC   C2B17864  24.277  17.698   8.338
 1078POPC   C3B17865  24.252  17.740   7.895
 1078POPC   C4B17866  24.639  17.921   7.747
 1079POPC   NC317867  26.006  29.466   9.541
 1079POPC   PO417868  25.687  28.849   9.543
 1079POPC   GL117869  25.856  29.102   9.197
 1079POPC   GL217870  26.221  29.086   9.248
 1079POPC   C1A17871  26.028  28.995   8.792
 1079POPC   D2A17872  26.162  28.815   8.430
 1079POPC   C3A17873  26.162  29.142   8.155
 1079POPC   C4A17874  26.003  29.203   7.757
 1079POPC   C1B17875  26.219  29.454   8.930
 1079POPC   C2B17876  26.166  29.587   8.493
 1079POPC   C3B17877  26.464  29.570   8.164
 1079POPC   C4B17878  26.505  29.273   7.816
 1080POPC   NC317879  39.095  35.178   9.453
 1080POPC   PO417880  39.666  35.581   9.446
 1080POPC   GL117881  39.459  35.328   9.135
 1080POPC   GL217882  39.555  35.483   8.888
 1080POPC   C1A17883  39.143  35.166   8.777
 1080POPC   D2A17884  38.899  35.254   8.379
 1080POPC   C3A17885  38.979  35.153   7.943
 1080POPC   C4A17886  39.066  35.396   7.575
 1080POPC   C1B17887  39.633  35.148   8.634
 1080POPC   C2B17888  39.448  35.072   8.270
 1080POPC   C3B17889  39.469  35.333   7.937
 1080POPC   C4B17890  39.452  35.052   7.651
 1081POPC   NC317891  39.644  44.423   9.330
 1081POPC   PO417892  39.851  44.997   9.618
 1081POPC   GL117893  40.078  44.868   9.241
 1081POPC   GL217894  40.207  44.542   9.226
 1081POPC   C1A17895  40.091  44.999   8.817
 1081POPC   D2A17896  39.864   0.149   8.463
 1081POPC   C3A17897  39.932  44.956   8.091
 1081POPC   C4A17898  39.955  44.831   7.677
 1081POPC   C1B17899  40.054  44.461   8.782
 1081POPC   C2B17900  40.002  44.283   8.337
 1081POPC   C3B17901  40.054  44.356   7.878
 1081POPC   C4B17902  40.014  44.299   7.422
 1082POPC   NC317903  17.133  20.206   9.890
 1082POPC   PO417904  17.681  20.026   9.437
 1082POPC   GL117905  17.526  19.866   9.055
 1082POPC   GL217906  17.239  19.658   9.153
 1082POPC   C1A17907  17.601  20.083   8.653
 1082POPC   D2A17908  17.517  20.244   8.221
 1082POPC   C3A17909  17.646  19.953   7.956
 1082POPC   C4A17910  17.539  19.486   7.873
 1082POPC   C1B17911  17.236  19.546   8.750
 1082POPC   C2B17912  17.291  19.787   8.395
 1082POPC   C3B17913  17.083  20.002   8.121
 1082POPC   C4B17914  17.211  19.864   7.749
 1083POPC   NC317915  17.500  41.633   9.506
 1083POPC   PO417916  17.986  41.333   9.747
 1083POPC   GL117917  17.837  41.390   9.243
 1083POPC   GL217918  17.833  41.731   9.089
 1083POPC   C1A17919  17.639  41.361   8.808
 1083POPC   D2A17920  17.731  41.323   8.365
 1083POPC   C3A17921  17.828  41.728   8.211
 1083POPC   C4A17922  17.678  41.918   7.822
 1083POPC   C1B17923  17.442  41.852   8.868
 1083POPC   C2B17924  17.337  41.690   8.460
 1083POPC   C3B17925  17.349  41.548   8.037
 1083POPC   C4B17926  17.174  41.828   7.747
 1084POPC   NC317927  26.660  16.900   9.540
 1084POPC   PO417928  27.142  16.367   9.557
 1084POPC   GL117929  26.835  16.511   9.215
 1084POPC   GL217930  26.843  16.889   9.078
 1084POPC   C1A17931  26.584  16.518   8.825
 1084POPC   D2A17932  26.533  16.675   8.371
 1084POPC   C3A17933  26.751  16.486   8.000
 1084POPC   C4A17934  27.165  16.335   7.884
 1084POPC   C1B17935  26.613  17.046   8.718
 1084POPC   C2B17936  26.456  17.171   8.287
 1084POPC   C3B17937  26.600  16.965   7.893
 1084POPC   C4B17938  26.480  16.833   7.463
 1085POPC   NC317939  36.404  36.929   9.568
 1085POPC   PO417940  37.036  36.834   9.462
 1085POPC   GL117941  36.789  36.761   9.129
 1085POPC   GL217942  36.691  37.123   9.161
 1085POPC   C1A17943  36.681  36.775   8.686
 1085POPC   D2A17944  36.718  37.048   8.336
 1085POPC   C3A17945  36.780  36.807   7.965
 1085POPC   C4A17946  36.477  36.598   7.738
 1085POPC   C1B17947  36.928  37.202   8.786
 1085POPC   C2B17948  37.223  37.184   8.466
 1085POPC   C3B17949  37.111  37.207   8.039
 1085POPC   C4B17950  36.737  37.320   7.794
 1086POPC   NC317951   1.909   7.666   9.614
 1086POPC   PO417952   2.060   8.282   9.541
 1086POPC   GL117953   1.955   8.123   9.161
 1086POPC   GL217954   2.197   7.898   9.069
 1086POPC   C1A17955   2.061   8.336   8.763
 1086POPC   D2A17956   1.903   8.210   8.358
 1086POPC   C3A17957   2.117   8.295   7.986
 1086POPC   C4A17958   1.766   8.489   7.847
 1086POPC   C1B17959   2.003   7.841   8.708
 1086POPC   C2B17960   2.028   7.712   8.349
 1086POPC   C3B17961   1.880   7.828   7.941
 1086POPC   C4B17962   1.752   7.866   7.517
 1087POPC   NC317963  17.248  20.209   9.327
 1087POPC   PO417964  17.553  20.814   9.410
 1087POPC   GL117965  17.373  20.638   9.050
 1087POPC   GL217966  17.667  20.434   9.008
 1087POPC   C1A17967  17.380  20.573   8.594
 1087POPC   D2A17968  17.540  20.750   8.199
 1087POPC   C3A17969  17.353  20.768   7.796
 1087POPC   C4A17970  17.251  20.337   7.619
 1087POPC   C1B17971  17.829  20.839   8.782
 1087POPC   C2B17972  17.994  20.965   8.338
 1087POPC   C3B17973  17.892  20.954   7.903
 1087POPC   C4B17974  17.736  20.895   7.473
 1088POPC   NC317975  24.377  12.554   9.490
 1088POPC   PO417976  24.982  12.282   9.488
 1088POPC   GL117977  24.683  12.207   9.141
 1088POPC   GL217978  24.296  12.218   9.120
 1088POPC   C1A17979  24.627  11.947   8.780
 1088POPC   D2A17980  24.383  12.010   8.415
 1088POPC   C3A17981  24.557  12.073   8.040
 1088POPC   C4A17982  24.729  11.776   7.800
 1088POPC   C1B17983  24.391  12.426   8.759
 1088POPC   C2B17984  24.330  12.515   8.342
 1088POPC   C3B17985  24.167  12.406   7.949
 1088POPC   C4B17986  24.280  12.418   7.532
 1089POPC   NC317987  28.660  44.076  10.084
 1089POPC   PO417988  28.195  43.978   9.566
 1089POPC   GL117989  27.992  43.963   9.183
 1089POPC   GL217990  28.257  43.737   9.089
 1089POPC   C1A17991  28.052  44.095   8.745
 1089POPC   D2A17992  28.185  43.842   8.389
 1089POPC   C3A17993  28.152  44.005   7.978
 1089POPC   C4A17994  28.506  44.233   7.847
 1089POPC   C1B17995  28.534  43.940   8.785
 1089POPC   C2B17996  28.685  43.946   8.383
 1089POPC   C3B17997  28.601  43.767   8.040
 1089POPC   C4B17998  28.691  43.422   7.854
 1090POPC   NC317999  25.954  31.222   9.850
 1090POPC   PO418000  25.390  31.366   9.454
 1090POPC   GL118001  25.411  31.577   9.120
 1090POPC   GL218002  25.089  31.586   9.026
 1090POPC   C1A18003  25.588  31.452   8.745
 1090POPC   D2A18004  25.455  31.552   8.364
 1090POPC   C3A18005  25.610  31.365   8.033
 1090POPC   C4A18006  25.366  31.524   7.686
 1090POPC   C1B18007  25.121  31.258   8.774
 1090POPC   C2B18008  24.972  31.268   8.406
 1090POPC   C3B18009  25.013  31.477   8.080
 1090POPC   C4B18010  24.853  31.421   7.722
 1091POPC   NC318011  26.957  12.589   9.581
 1091POPC   PO418012  26.750  11.996   9.740
 1091POPC   GL118013  26.702  12.118   9.278
 1091POPC   GL218014  26.967  12.314   9.115
 1091POPC   C1A18015  26.575  12.129   8.819
 1091POPC   D2A18016  26.737  12.002   8.389
 1091POPC   C3A18017  26.549  11.832   8.002
 1091POPC   C4A18018  26.710  12.156   7.760
 1091POPC   C1B18019  27.055  12.534   8.688
 1091POPC   C2B18020  27.122  12.576   8.213
 1091POPC   C3B18021  27.221  12.269   7.865
 1091POPC   C4B18022  27.522  12.236   7.505
 1092POPC   NC318023  43.194  24.974   9.775
 1092POPC   PO418024  43.364  24.355   9.525
 1092POPC   GL118025  43.186  24.321   9.089
 1092POPC   GL218026  43.509  24.461   9.016
 1092POPC   C1A18027  42.965  24.481   8.727
 1092POPC   D2A18028  42.812  24.479   8.296
 1092POPC   C3A18029  43.009  24.531   7.879
 1092POPC   C4A18030  42.920  24.942   7.751
 1092POPC   C1B18031  43.473  24.579   8.621
 1092POPC   C2B18032  43.362  24.557   8.221
 1092POPC   C3B18033  43.505  24.378   7.826
 1092POPC   C4B18034  43.364  24.293   7.408
 1093POPC   NC318035  36.400  11.686   9.436
 1093POPC   PO418036  36.146  12.349   9.506
 1093POPC   GL118037  36.057  12.287   9.097
 1093POPC   GL218038  36.369  12.156   9.034
 1093POPC   C1A18039  35.980  12.104   8.700
 1093POPC   D2A18040  36.167  12.121   8.318
 1093POPC   C3A18041  35.979  12.001   7.964
 1093POPC   C4A18042  36.137  12.090   7.600
 1093POPC   C1B18043  36.413  11.830   8.696
 1093POPC   C2B18044  36.562  11.785   8.265
 1093POPC   C3B18045  36.549  12.085   7.944
 1093POPC   C4B18046  36.614  11.999   7.515
 1094POPC   NC318047  39.042  34.403   9.466
 1094POPC   PO418048  39.552  34.832   9.498
 1094POPC   GL118049  39.506  34.830   9.061
 1094POPC   GL218050  39.160  34.767   9.098
 1094POPC   C1A18051  39.382  34.694   8.640
 1094POPC   D2A18052  39.283  34.420   8.302
 1094POPC   C3A18053  39.200  34.680   7.935
 1094POPC   C4A18054  39.176  34.660   7.492
 1094POPC   C1B18055  38.931  34.485   8.798
 1094POPC   C2B18056  38.653  34.493   8.457
 1094POPC   C3B18057  38.819  34.344   8.067
 1094POPC   C4B18058  38.927  34.234   7.648
 1095POPC   NC318059  19.552  21.692   9.401
 1095POPC   PO418060  18.871  21.652   9.524
 1095POPC   GL118061  19.109  21.500   9.171
 1095POPC   GL218062  19.210  21.162   9.162
 1095POPC   C1A18063  19.181  21.436   8.716
 1095POPC   D2A18064  18.950  21.513   8.326
 1095POPC   C3A18065  19.134  21.570   7.914
 1095POPC   C4A18066  18.828  21.688   7.632
 1095POPC   C1B18067  19.352  20.949   8.745
 1095POPC   C2B18068  19.256  21.107   8.327
 1095POPC   C3B18069  19.103  21.045   7.922
 1095POPC   C4B18070  19.323  21.066   7.549
 1096POPC   NC318071  37.191  32.346   9.485
 1096POPC   PO418072  36.578  31.990   9.386
 1096POPC   GL118073  36.931  32.049   9.139
 1096POPC   GL218074  36.854  32.390   9.111
 1096POPC   C1A18075  37.008  32.173   8.708
 1096POPC   D2A18076  36.745  32.220   8.361
 1096POPC   C3A18077  36.837  32.122   7.939
 1096POPC   C4A18078  36.538  32.117   7.569
 1096POPC   C1B18079  36.648  32.544   8.761
 1096POPC   C2B18080  36.608  32.730   8.370
 1096POPC   C3B18081  36.821  32.622   8.041
 1096POPC   C4B18082  37.119  32.507   7.743
 1097POPC   NC318083  27.386   5.339   9.389
 1097POPC   PO418084  27.805   5.992   9.504
 1097POPC   GL118085  27.772   6.126   9.123
 1097POPC   GL218086  27.586   5.838   9.047
 1097POPC   C1A18087  27.759   6.221   8.730
 1097POPC   D2A18088  27.630   6.056   8.367
 1097POPC   C3A18089  27.630   5.915   7.944
 1097POPC   C4A18090  27.707   6.151   7.621
 1097POPC   C1B18091  27.379   5.669   8.691
 1097POPC   C2B18092  27.316   5.683   8.250
 1097POPC   C3B18093  27.273   5.511   7.882
 1097POPC   C4B18094  27.582   5.549   7.554
 1098POPC   NC318095  11.294  11.465   9.510
 1098POPC   PO418096  11.605  10.840   9.571
 1098POPC   GL118097  11.305  10.958   9.176
 1098POPC   GL218098  11.407  11.288   9.059
 1098POPC   C1A18099  11.172  11.043   8.697
 1098POPC   D2A18100  11.286  11.326   8.369
 1098POPC   C3A18101  11.130  11.287   7.959
 1098POPC   C4A18102  11.178  10.945   7.719
 1098POPC   C1B18103  11.564  11.573   8.773
 1098POPC   C2B18104  11.723  11.569   8.383
 1098POPC   C3B18105  11.599  11.488   7.982
 1098POPC   C4B18106  11.772  11.542   7.628
 1099POPC   NC318107   8.847  17.144   9.546
 1099POPC   PO418108   9.151  16.554   9.548
 1099POPC   GL118109   9.206  16.816   9.162
 1099POPC   GL218110   8.876  16.905   9.063
 1099POPC   C1A18111   9.193  16.707   8.698
 1099POPC   D2A18112   8.949  16.496   8.368
 1099POPC   C3A18113   8.999  16.606   7.933
 1099POPC   C4A18114   8.751  16.642   7.562
 1099POPC   C1B18115   8.728  17.007   8.641
 1099POPC   C2B18116   8.755  16.963   8.185
 1099POPC   C3B18117   8.793  17.102   7.768
 1099POPC   C4B18118   8.762  17.104   7.304
 1100POPC   NC318119  33.112  41.718   9.673
 1100POPC   PO418120  32.774  41.222   9.571
 1100POPC   GL118121  33.081  41.428   9.233
 1100POPC   GL218122  33.327  41.744   9.191
 1100POPC   C1A18123  33.042  41.522   8.791
 1100POPC   D2A18124  33.149  41.376   8.378
 1100POPC   C3A18125  32.971  41.522   7.978
 1100POPC   C4A18126  33.107  41.342   7.588
 1100POPC   C1B18127  33.320  41.977   8.823
 1100POPC   C2B18128  33.184  41.905   8.425
 1100POPC   C3B18129  33.256  42.011   8.022
 1100POPC   C4B18130  33.245  41.812   7.642
 1101POPC   NC318131   9.345  31.369   9.362
 1101POPC   PO418132  10.054  31.434   9.409
 1101POPC   GL118133   9.795  31.224   9.099
 1101POPC   GL218134   9.724  31.581   9.049
 1101POPC   C1A18135   9.514  31.271   8.713
 1101POPC   D2A18136   9.580  31.502   8.321
 1101POPC   C3A18137   9.655  31.217   8.015
 1101POPC   C4A18138   9.408  30.954   7.842
 1101POPC   C1B18139   9.950  31.606   8.683
 1101POPC   C2B18140  10.000  31.820   8.247
 1101POPC   C3B18141   9.824  31.672   7.830
 1101POPC   C4B18142   9.443  31.473   7.620
 1102POPC   NC318143  40.524  34.414   9.491
 1102POPC   PO418144  40.989  34.845   9.499
 1102POPC   GL118145  40.821  34.621   9.139
 1102POPC   GL218146  40.460  34.530   9.008
 1102POPC   C1A18147  41.027  34.532   8.775
 1102POPC   D2A18148  40.918  34.602   8.386
 1102POPC   C3A18149  40.758  34.362   8.085
 1102POPC   C4A18150  40.818  34.498   7.732
 1102POPC   C1B18151  40.565  34.821   8.750
 1102POPC   C2B18152  40.558  34.968   8.364
 1102POPC   C3B18153  40.730  34.910   8.011
 1102POPC   C4B18154  40.631  34.951   7.604
 1103POPC   NC318155  23.430  12.597   9.808
 1103POPC   PO418156  23.468  12.038   9.390
 1103POPC   GL118157  23.757  12.143   9.093
 1103POPC   GL218158  23.558  12.322   8.850
 1103POPC   C1A18159  24.002  12.069   8.740
 1103POPC   D2A18160  23.890  12.184   8.328
 1103POPC   C3A18161  23.642  12.138   7.972
 1103POPC   C4A18162  23.834  12.199   7.595
 1103POPC   C1B18163  23.537  11.921   8.636
 1103POPC   C2B18164  23.485  11.713   8.240
 1103POPC   C3B18165  23.241  11.826   7.871
 1103POPC   C4B18166  23.377  12.006   7.525
 1104POPC   NC318167  16.046  39.062   9.517
 1104POPC   PO418168  15.599  39.433   9.361
 1104POPC   GL118169  15.990  39.474   9.133
 1104POPC   GL218170  16.133  39.135   9.038
 1104POPC   C1A18171  16.049  39.508   8.687
 1104POPC   D2A18172  15.702  39.399   8.411
 1104POPC   C3A18173  15.765  39.478   7.974
 1104POPC   C4A18174  16.151  39.484   7.798
 1104POPC   C1B18175  15.768  39.021   8.871
 1104POPC   C2B18176  15.750  38.889   8.472
 1104POPC   C3B18177  16.029  39.055   8.169
 1104POPC   C4B18178  15.915  39.009   7.774
 1105POPC   NC318179   3.618  16.571   9.609
 1105POPC   PO418180   3.727  17.254   9.543
 1105POPC   GL118181   3.533  16.889   9.231
 1105POPC   GL218182   3.362  16.525   9.179
 1105POPC   C1A18183   3.715  16.690   8.854
 1105POPC   D2A18184   3.491  16.723   8.466
 1105POPC   C3A18185   3.626  16.735   8.068
 1105POPC   C4A18186   3.349  16.706   7.715
 1105POPC   C1B18187   3.383  16.317   8.772
 1105POPC   C2B18188   3.541  16.165   8.351
 1105POPC   C3B18189   3.551  16.262   7.885
 1105POPC   C4B18190   3.842  16.551   7.641
 1106POPC   NC318191  12.131  38.786   9.582
 1106POPC   PO418192  11.879  38.166   9.507
 1106POPC   GL118193  12.160  38.369   9.212
 1106POPC   GL218194  11.926  38.610   9.142
 1106POPC   C1A18195  12.353  38.356   8.816
 1106POPC   D2A18196  12.238  38.453   8.411
 1106POPC   C3A18197  12.237  38.670   8.052
 1106POPC   C4A18198  12.249  38.436   7.682
 1106POPC   C1B18199  11.828  38.452   8.736
 1106POPC   C2B18200  11.756  38.342   8.291
 1106POPC   C3B18201  11.767  38.416   7.859
 1106POPC   C4B18202  11.473  38.647   7.622
 1107POPC   NC318203  27.240  36.734   9.491
 1107POPC   PO418204  27.521  37.250   9.691
 1107POPC   GL118205  27.550  37.031   9.242
 1107POPC   GL218206  27.289  37.026   9.032
 1107POPC   C1A18207  27.760  36.822   8.896
 1107POPC   D2A18208  28.051  36.899   8.555
 1107POPC   C3A18209  27.941  36.901   8.111
 1107POPC   C4A18210  27.631  36.832   7.780
 1107POPC   C1B18211  27.350  36.924   8.615
 1107POPC   C2B18212  27.354  36.900   8.195
 1107POPC   C3B18213  27.167  37.009   7.806
 1107POPC   C4B18214  27.261  37.030   7.345
 1108POPC   NC318215  15.052  12.740   9.583
 1108POPC   PO418216  15.682  12.830   9.520
 1108POPC   GL118217  15.313  12.926   9.195
 1108POPC   GL218218  15.069  13.226   9.217
 1108POPC   C1A18219  15.092  12.722   8.846
 1108POPC   D2A18220  15.104  12.849   8.408
 1108POPC   C3A18221  14.903  12.657   8.051
 1108POPC   C4A18222  15.113  12.642   7.668
 1108POPC   C1B18223  14.974  13.234   8.754
 1108POPC   C2B18224  14.794  13.225   8.292
 1108POPC   C3B18225  15.088  13.143   7.913
 1108POPC   C4B18226  15.299  13.130   7.467
 1109POPC   NC318227  39.037  20.340   9.484
 1109POPC   PO418228  39.623  20.620   9.397
 1109POPC   GL118229  39.237  20.630   9.121
 1109POPC   GL218230  39.061  20.305   8.998
 1109POPC   C1A18231  39.186  20.808   8.733
 1109POPC   D2A18232  39.475  20.759   8.423
 1109POPC   C3A18233  39.395  20.951   8.048
 1109POPC   C4A18234  39.094  20.931   7.734
 1109POPC   C1B18235  39.391  20.341   8.747
 1109POPC   C2B18236  39.281  20.265   8.390
 1109POPC   C3B18237  39.316  20.399   8.023
 1109POPC   C4B18238  39.038  20.430   7.710
 1110POPC   NC318239  19.306   2.981   9.515
 1110POPC   PO418240  18.780   2.628   9.481
 1110POPC   GL118241  18.921   2.631   9.102
 1110POPC   GL218242  18.986   2.974   9.125
 1110POPC   C1A18243  18.793   2.735   8.693
 1110POPC   D2A18244  18.845   2.531   8.306
 1110POPC   C3A18245  19.329   2.501   8.179
 1110POPC   C4A18246  19.426   2.476   7.726
 1110POPC   C1B18247  19.247   2.962   8.775
 1110POPC   C2B18248  19.150   2.942   8.339
 1110POPC   C3B18249  19.140   2.897   7.880
 1110POPC   C4B18250  18.951   3.151   7.552
 1111POPC   NC318251   9.510  24.240   9.593
 1111POPC   PO418252   9.906  24.799   9.506
 1111POPC   GL118253   9.838  24.487   9.235
 1111POPC   GL218254   9.492  24.543   9.172
 1111POPC   C1A18255   9.963  24.358   8.841
 1111POPC   D2A18256   9.848  24.453   8.426
 1111POPC   C3A18257  10.043  24.224   8.140
 1111POPC   C4A18258  10.015  24.390   7.760
 1111POPC   C1B18259   9.598  24.719   8.781
 1111POPC   C2B18260   9.519  24.871   8.344
 1111POPC   C3B18261   9.583  24.827   7.862
 1111POPC   C4B18262   9.629  24.953   7.376
 1112POPC   NC318263   9.829   8.150   9.565
 1112POPC   PO418264   9.190   8.169   9.316
 1112POPC   GL118265   9.595   8.340   9.123
 1112POPC   GL218266   9.967   8.453   9.207
 1112POPC   C1A18267   9.824   8.107   8.798
 1112POPC   D2A18268   9.616   7.861   8.456
 1112POPC   C3A18269   9.565   8.113   8.088
 1112POPC   C4A18270   9.770   8.061   7.703
 1112POPC   C1B18271   9.957   8.614   8.814
 1112POPC   C2B18272  10.047   8.503   8.400
 1112POPC   C3B18273  10.003   8.415   7.976
 1112POPC   C4B18274   9.982   8.488   7.541
 1113POPC   NC318275  12.614  17.909   9.544
 1113POPC   PO418276  12.637  17.175   9.485
 1113POPC   GL118277  12.869  17.339   9.115
 1113POPC   GL218278  12.890  17.701   9.133
 1113POPC   C1A18279  13.096  17.430   8.708
 1113POPC   D2A18280  13.202  17.387   8.282
 1113POPC   C3A18281  12.807  17.310   8.054
 1113POPC   C4A18282  12.641  17.195   7.669
 1113POPC   C1B18283  12.900  17.899   8.750
 1113POPC   C2B18284  12.781  17.722   8.372
 1113POPC   C3B18285  12.937  17.816   7.973
 1113POPC   C4B18286  12.875  18.079   7.628
 1114POPC   NC318287  32.613  20.139   9.600
 1114POPC   PO418288  32.460  20.741   9.569
 1114POPC   GL118289  32.394  20.631   9.113
 1114POPC   GL218290  32.662  20.864   9.070
 1114POPC   C1A18291  32.168  20.465   8.691
 1114POPC   D2A18292  32.187  20.260   8.280
 1114POPC   C3A18293  32.204  20.544   7.937
 1114POPC   C4A18294  31.932  20.853   7.798
 1114POPC   C1B18295  32.423  20.911   8.690
 1114POPC   C2B18296  32.473  20.726   8.331
 1114POPC   C3B18297  32.656  20.870   7.964
 1114POPC   C4B18298  32.562  20.694   7.599
 1115POPC   NC318299  33.335  23.350   9.231
 1115POPC   PO418300  32.800  23.405   9.607
 1115POPC   GL118301  32.861  23.696   9.234
 1115POPC   GL218302  32.881  23.470   8.967
 1115POPC   C1A18303  32.824  23.958   8.838
 1115POPC   D2A18304  32.949  23.723   8.444
 1115POPC   C3A18305  32.983  23.922   8.028
 1115POPC   C4A18306  32.784  23.846   7.642
 1115POPC   C1B18307  33.117  23.235   8.652
 1115POPC   C2B18308  33.220  23.170   8.259
 1115POPC   C3B18309  33.289  23.450   7.970
 1115POPC   C4B18310  33.245  23.600   7.574
 1116POPC   NC318311  28.069   7.203   9.464
 1116POPC   PO418312  28.440   7.746   9.523
 1116POPC   GL118313  28.407   7.493   9.178
 1116POPC   GL218314  28.077   7.589   9.129
 1116POPC   C1A18315  28.659   7.423   8.786
 1116POPC   D2A18316  28.778   7.310   8.351
 1116POPC   C3A18317  28.611   7.623   8.067
 1116POPC   C4A18318  28.727   7.622   7.658
 1116POPC   C1B18319  28.166   7.238   8.815
 1116POPC   C2B18320  28.275   7.357   8.433
 1116POPC   C3B18321  28.193   7.333   7.996
 1116POPC   C4B18322  28.548   7.148   7.796
 1117POPC   NC318323  43.744  31.074   9.402
 1117POPC   PO418324  43.385  30.595   9.466
 1117POPC   GL118325  43.471  30.456   9.065
 1117POPC   GL218326  43.540  30.811   9.008
 1117POPC   C1A18327  43.793  30.434   8.728
 1117POPC   D2A18328  44.141  30.267   8.476
 1117POPC   C3A18329  44.090  30.290   8.054
 1117POPC   C4A18330  43.782  30.525   7.885
 1117POPC   C1B18331  43.671  30.936   8.619
 1117POPC   C2B18332  43.951  30.760   8.309
 1117POPC   C3B18333  44.198  30.788   7.920
 1117POPC   C4B18334  44.044  30.824   7.478
 1118POPC   NC318335  25.385  22.406   9.627
 1118POPC   PO418336  25.487  23.055   9.646
 1118POPC   GL118337  25.402  23.135   9.232
 1118POPC   GL218338  25.010  23.131   9.186
 1118POPC   C1A18339  25.470  22.864   8.873
 1118POPC   D2A18340  25.217  22.828   8.508
 1118POPC   C3A18341  25.417  22.926   8.134
 1118POPC   C4A18342  25.227  22.738   7.784
 1118POPC   C1B18343  25.168  23.272   8.793
 1118POPC   C2B18344  25.076  23.323   8.366
 1118POPC   C3B18345  24.937  23.074   8.030
 1118POPC   C4B18346  24.938  23.176   7.590
 1119POPC   NC318347  24.242   0.244   9.491
 1119POPC   PO418348  24.678   0.781   9.438
 1119POPC   GL118349  24.439   0.588   9.122
 1119POPC   GL218350  24.623   0.286   9.153
 1119POPC   C1A18351  24.267   0.650   8.703
 1119POPC   D2A18352  24.335   0.768   8.268
 1119POPC   C3A18353  24.692   0.540   8.055
 1119POPC   C4A18354  24.849   0.289   7.701
 1119POPC   C1B18355  24.492   0.184   8.760
 1119POPC   C2B18356  24.318   0.233   8.372
 1119POPC   C3B18357  24.297   0.067   7.981
 1119POPC   C4B18358  24.336   0.280   7.617
 1120POPC   NC318359  36.733  40.235   9.408
 1120POPC   PO418360  37.164  39.781   9.375
 1120POPC   GL118361  36.864  39.896   9.035
 1120POPC   GL218362  36.942  40.283   8.954
 1120POPC   C1A18363  36.790  39.633   8.648
 1120POPC   D2A18364  37.102  39.551   8.305
 1120POPC   C3A18365  37.064  39.811   7.911
 1120POPC   C4A18366  36.646  39.695   7.681
 1120POPC   C1B18367  36.716  40.140   8.611
 1120POPC   C2B18368  36.683  39.928   8.243
 1120POPC   C3B18369  36.677  40.149   7.873
 1120POPC   C4B18370  36.905  40.484   7.727
 1121POPC   NC318371  22.535  31.354   9.459
 1121POPC   PO418372  23.180  31.329   9.388
 1121POPC   GL118373  22.877  31.433   9.061
 1121POPC   GL218374  22.546  31.600   9.009
 1121POPC   C1A18375  23.101  31.525   8.702
 1121POPC   D2A18376  23.264  31.744   8.395
 1121POPC   C3A18377  23.146  31.462   8.092
 1121POPC   C4A18378  22.936  31.537   7.735
 1121POPC   C1B18379  22.619  31.621   8.568
 1121POPC   C2B18380  22.605  31.481   8.139
 1121POPC   C3B18381  22.415  31.539   7.737
 1121POPC   C4B18382  22.603  31.507   7.337
 1122POPC   NC318383  29.508   8.583   9.317
 1122POPC   PO418384  29.290   9.075   9.775
 1122POPC   GL118385  29.098   9.091   9.328
 1122POPC   GL218386  29.016   8.789   9.216
 1122POPC   C1A18387  29.059   9.138   8.857
 1122POPC   D2A18388  29.074   8.935   8.452
 1122POPC   C3A18389  29.231   9.138   8.127
 1122POPC   C4A18390  29.303   9.120   7.717
 1122POPC   C1B18391  28.988   8.591   8.828
 1122POPC   C2B18392  28.946   8.435   8.408
 1122POPC   C3B18393  29.043   8.582   8.019
 1122POPC   C4B18394  28.849   8.634   7.663
 1123POPC   NC318395  10.607  36.328   9.543
 1123POPC   PO418396  10.895  35.651   9.507
 1123POPC   GL118397  10.764  35.781   9.146
 1123POPC   GL218398  10.491  35.982   9.167
 1123POPC   C1A18399  10.744  35.900   8.743
 1123POPC   D2A18400  10.669  36.061   8.363
 1123POPC   C3A18401  10.770  35.849   8.007
 1123POPC   C4A18402  10.588  36.073   7.695
 1123POPC   C1B18403  10.212  36.139   8.860
 1123POPC   C2B18404  10.258  36.359   8.479
 1123POPC   C3B18405  10.225  36.226   8.052
 1123POPC   C4B18406  10.101  36.002   7.670
 1124POPC   NC318407  15.595  15.050   9.682
 1124POPC   PO418408  16.219  15.081   9.628
 1124POPC   GL118409  15.994  15.161   9.196
 1124POPC   GL218410  15.643  15.059   9.171
 1124POPC   C1A18411  15.837  15.263   8.734
 1124POPC   D2A18412  15.939  15.161   8.274
 1124POPC   C3A18413  15.903  15.306   7.827
 1124POPC   C4A18414  16.071  15.146   7.437
 1124POPC   C1B18415  15.508  14.844   8.791
 1124POPC   C2B18416  15.651  14.747   8.365
 1124POPC   C3B18417  15.762  14.817   7.915
 1124POPC   C4B18418  15.868  14.694   7.465
 1125POPC   NC318419  20.774  25.310   9.641
 1125POPC   PO418420  20.133  25.299   9.555
 1125POPC   GL118421  20.462  25.107   9.229
 1125POPC   GL218422  20.832  25.263   9.142
 1125POPC   C1A18423  20.543  25.117   8.765
 1125POPC   D2A18424  20.477  25.347   8.382
 1125POPC   C3A18425  20.590  25.124   8.032
 1125POPC   C4A18426  20.939  25.080   7.760
 1125POPC   C1B18427  20.855  25.525   8.780
 1125POPC   C2B18428  20.930  25.740   8.396
 1125POPC   C3B18429  20.862  25.554   8.005
 1125POPC   C4B18430  20.611  25.475   7.637
 1126POPC   NC318431  31.753  22.029   9.487
 1126POPC   PO418432  31.170  22.185   9.742
 1126POPC   GL118433  31.181  22.283   9.273
 1126POPC   GL218434  31.539  22.353   9.171
 1126POPC   C1A18435  31.224  22.120   8.838
 1126POPC   D2A18436  31.111  21.958   8.449
 1126POPC   C3A18437  31.266  22.140   8.089
 1126POPC   C4A18438  31.555  22.313   7.839
 1126POPC   C1B18439  31.741  22.283   8.772
 1126POPC   C2B18440  31.661  22.432   8.351
 1126POPC   C3B18441  31.906  22.631   8.042
 1126POPC   C4B18442  31.964  22.581   7.599
 1127POPC   NC318443  15.188  21.060   9.500
 1127POPC   PO418444  15.040  20.395   9.494
 1127POPC   GL118445  15.052  20.614   9.109
 1127POPC   GL218446  14.926  20.930   9.070
 1127POPC   C1A18447  15.335  20.797   8.811
 1127POPC   D2A18448  15.448  20.663   8.434
 1127POPC   C3A18449  15.136  20.629   8.138
 1127POPC   C4A18450  15.202  20.660   7.721
 1127POPC   C1B18451  14.977  21.125   8.706
 1127POPC   C2B18452  14.833  20.987   8.331
 1127POPC   C3B18453  14.918  21.058   7.895
 1127POPC   C4B18454  15.102  21.107   7.486
 1128POPC   NC318455  11.469  33.392   9.481
 1128POPC   PO418456  10.982  33.810   9.626
 1128POPC   GL118457  11.300  33.869   9.260
 1128POPC   GL218458  11.568  34.163   9.217
 1128POPC   C1A18459  11.248  33.692   8.831
 1128POPC   D2A18460  11.232  33.890   8.412
 1128POPC   C3A18461  11.365  33.716   8.047
 1128POPC   C4A18462  11.431  33.754   7.642
 1128POPC   C1B18463  11.478  34.146   8.760
 1128POPC   C2B18464  11.699  34.060   8.332
 1128POPC   C3B18465  11.575  34.184   7.903
 1128POPC   C4B18466  11.120  34.297   7.779
 1129POPC   NC318467  37.016  33.938   9.484
 1129POPC   PO418468  36.541  33.481   9.517
 1129POPC   GL118469  36.764  33.698   9.109
 1129POPC   GL218470  36.796  34.059   9.034
 1129POPC   C1A18471  36.845  33.731   8.658
 1129POPC   D2A18472  36.598  33.716   8.288
 1129POPC   C3A18473  36.919  33.713   7.929
 1129POPC   C4A18474  36.830  33.797   7.494
 1129POPC   C1B18475  36.567  34.167   8.672
 1129POPC   C2B18476  36.843  34.160   8.325
 1129POPC   C3B18477  37.156  34.207   8.014
 1129POPC   C4B18478  37.230  34.112   7.591
 1130POPC   NC318479   4.114   9.716   9.574
 1130POPC   PO418480   4.747   9.739   9.620
 1130POPC   GL118481   4.457   9.847   9.222
 1130POPC   GL218482   4.068   9.962   9.107
 1130POPC   C1A18483   4.447   9.940   8.780
 1130POPC   D2A18484   4.251   9.732   8.428
 1130POPC   C3A18485   4.257   9.795   7.974
 1130POPC   C4A18486   4.219   9.774   7.475
 1130POPC   C1B18487   3.976  10.148   8.671
 1130POPC   C2B18488   3.905  10.120   8.202
 1130POPC   C3B18489   3.989  10.155   7.752
 1130POPC   C4B18490   3.866  10.138   7.336
 1131POPC   NC318491  36.334  23.029   9.525
 1131POPC   PO418492  35.754  22.679   9.559
 1131POPC   GL118493  35.922  22.796   9.148
 1131POPC   GL218494  35.999  23.140   9.141
 1131POPC   C1A18495  35.994  22.866   8.696
 1131POPC   D2A18496  36.222  22.615   8.380
 1131POPC   C3A18497  36.101  22.732   7.974
 1131POPC   C4A18498  36.095  23.071   7.742
 1131POPC   C1B18499  36.325  23.198   8.880
 1131POPC   C2B18500  36.374  23.141   8.467
 1131POPC   C3B18501  36.493  23.088   8.087
 1131POPC   C4B18502  36.468  23.396   7.794
 1132POPC   NC318503  29.015  27.206   9.527
 1132POPC   PO418504  29.426  26.665   9.501
 1132POPC   GL118505  29.269  26.839   9.150
 1132POPC   GL218506  29.010  26.592   9.110
 1132POPC   C1A18507  29.224  26.859   8.720
 1132POPC   D2A18508  29.093  26.691   8.393
 1132POPC   C3A18509  29.173  26.992   8.113
 1132POPC   C4A18510  29.304  26.804   7.775
 1132POPC   C1B18511  28.727  26.607   8.743
 1132POPC   C2B18512  28.640  26.521   8.271
 1132POPC   C3B18513  28.822  26.703   7.897
 1132POPC   C4B18514  28.917  26.575   7.469
 1133POPC   NC318515  37.298  18.516   9.466
 1133POPC   PO418516  37.993  18.288   9.459
 1133POPC   GL118517  37.898  18.187   9.078
 1133POPC   GL218518  37.539  18.144   9.179
 1133POPC   C1A18519  37.707  18.319   8.721
 1133POPC   D2A18520  37.651  18.402   8.327
 1133POPC   C3A18521  37.971  18.359   8.069
 1133POPC   C4A18522  37.785  18.234   7.729
 1133POPC   C1B18523  37.266  18.093   8.827
 1133POPC   C2B18524  37.303  17.977   8.433
 1133POPC   C3B18525  37.457  17.981   8.034
 1133POPC   C4B18526  37.389  17.770   7.654
 1134POPC   NC318527   0.890  17.583   9.423
 1134POPC   PO418528   1.194  16.990   9.428
 1134POPC   GL118529   1.216  17.319   9.098
 1134POPC   GL218530   1.517  17.544   9.059
 1134POPC   C1A18531   1.068  17.632   8.767
 1134POPC   D2A18532   1.311  17.786   8.386
 1134POPC   C3A18533   1.192  17.731   7.986
 1134POPC   C4A18534   0.781  17.703   7.850
 1134POPC   C1B18535   1.467  17.382   8.613
 1134POPC   C2B18536   1.198  17.274   8.244
 1134POPC   C3B18537   1.101  17.263   7.776
 1134POPC   C4B18538   1.379  17.172   7.410
 1135POPC   NC318539  43.791   4.389   9.591
 1135POPC   PO418540  44.227   4.015   9.285
 1135POPC   GL118541  44.006   4.335   9.107
 1135POPC   GL218542  43.668   4.206   9.105
 1135POPC   C1A18543  43.929   4.491   8.695
 1135POPC   D2A18544  43.841   4.537   8.269
 1135POPC   C3A18545  43.782   4.386   7.877
 1135POPC   C4A18546  44.149   4.529   7.706
 1135POPC   C1B18547  43.864   3.986   8.722
 1135POPC   C2B18548  43.804   3.988   8.259
 1135POPC   C3B18549  44.084   3.986   7.902
 1135POPC   C4B18550  44.091   4.064   7.481
 1136POPC   NC318551  32.090  43.059   9.246
 1136POPC   PO418552  32.443  43.517   9.631
 1136POPC   GL118553  32.529  43.323   9.231
 1136POPC   GL218554  32.571  42.972   9.165
 1136POPC   C1A18555  32.441  43.230   8.748
 1136POPC   D2A18556  32.433  43.136   8.335
 1136POPC   C3A18557  32.398  43.463   8.052
 1136POPC   C4A18558  32.244  43.334   7.639
 1136POPC   C1B18559  32.713  42.807   8.773
 1136POPC   C2B18560  32.699  42.682   8.348
 1136POPC   C3B18561  32.621  42.839   7.938
 1136POPC   C4B18562  32.614  42.906   7.518
 1137POPC   NC318563  14.075  41.321   9.722
 1137POPC   PO418564  14.570  41.727   9.588
 1137POPC   GL118565  14.503  41.648   9.188
 1137POPC   GL218566  14.172  41.554   9.260
 1137POPC   C1A18567  14.619  41.519   8.782
 1137POPC   D2A18568  14.492  41.742   8.413
 1137POPC   C3A18569  14.658  41.522   8.069
 1137POPC   C4A18570  14.889  41.569   7.725
 1137POPC   C1B18571  14.128  41.709   8.847
 1137POPC   C2B18572  13.988  41.555   8.463
 1137POPC   C3B18573  14.139  41.585   8.054
 1137POPC   C4B18574  13.939  41.567   7.677
 1138POPC   NC318575   2.625  42.564   9.412
 1138POPC   PO418576   3.068  42.035   9.521
 1138POPC   GL118577   2.946  42.021   9.104
 1138POPC   GL218578   2.606  42.148   9.108
 1138POPC   C1A18579   2.904  42.232   8.693
 1138POPC   D2A18580   2.810  42.435   8.293
 1138POPC   C3A18581   3.029  42.249   7.967
 1138POPC   C4A18582   2.878  42.319   7.575
 1138POPC   C1B18583   2.416  41.999   8.740
 1138POPC   C2B18584   2.613  41.970   8.331
 1138POPC   C3B18585   2.529  42.159   7.920
 1138POPC   C4B18586   2.432  42.156   7.428
 1139POPC   NC318587  28.825  18.398   9.449
 1139POPC   PO418588  29.263  17.919   9.493
 1139POPC   GL118589  29.133  18.126   9.100
 1139POPC   GL218590  28.777  18.215   8.972
 1139POPC   C1A18591  29.275  18.362   8.728
 1139POPC   D2A18592  29.263  18.508   8.286
 1139POPC   C3A18593  29.290  18.289   7.858
 1139POPC   C4A18594  29.084  18.286   7.445
 1139POPC   C1B18595  28.983  17.961   8.629
 1139POPC   C2B18596  29.008  18.025   8.192
 1139POPC   C3B18597  28.834  17.977   7.766
 1139POPC   C4B18598  28.891  17.828   7.301
 1140POPC   NC318599  42.849  44.499   9.499
 1140POPC   PO418600  43.317  44.952   9.397
 1140POPC   GL118601  43.148  44.674   9.129
 1140POPC   GL218602  42.863  44.895   9.126
 1140POPC   C1A18603  43.235  44.612   8.723
 1140POPC   D2A18604  43.546  44.704   8.425
 1140POPC   C3A18605  43.502  44.484   8.033
 1140POPC   C4A18606  43.205  44.499   7.656
 1140POPC   C1B18607  43.031   0.101   8.753
 1140POPC   C2B18608  43.072  44.921   8.352
 1140POPC   C3B18609  42.894  44.707   8.028
 1140POPC   C4B18610  42.857  44.865   7.619
 1141POPC   NC318611  43.510  30.108   9.514
 1141POPC   PO418612  44.135  29.940   9.561
 1141POPC   GL118613  43.884  30.022   9.158
 1141POPC   GL218614  43.566  29.902   9.050
 1141POPC   C1A18615  43.949  29.874   8.733
 1141POPC   D2A18616  44.080  29.521   8.487
 1141POPC   C3A18617  44.085  29.740   8.117
 1141POPC   C4A18618  44.143  29.903   7.718
 1141POPC   C1B18619  43.434  30.079   8.685
 1141POPC   C2B18620  43.626  30.176   8.296
 1141POPC   C3B18621  43.677  30.015   7.898
 1141POPC   C4B18622  43.712  29.755   7.533
 1142POPC   NC318623  25.476  29.954   9.501
 1142POPC   PO418624  25.018  30.440   9.509
 1142POPC   GL118625  25.141  30.153   9.168
 1142POPC   GL218626  25.147  29.753   9.166
 1142POPC   C1A18627  25.454  30.038   8.855
 1142POPC   D2A18628  25.325  30.001   8.463
 1142POPC   C3A18629  25.539  30.007   8.102
 1142POPC   C4A18630  25.436  30.126   7.690
 1142POPC   C1B18631  25.215  29.556   8.748
 1142POPC   C2B18632  25.058  29.599   8.310
 1142POPC   C3B18633  25.165  29.726   7.867
 1142POPC   C4B18634  24.971  29.798   7.439
 1143POPC   NC318635  37.524  20.961   9.566
 1143POPC   PO418636  37.769  21.521   9.336
 1143POPC   GL118637  37.643  21.290   9.002
 1143POPC   GL218638  37.341  21.101   9.105
 1143POPC   C1A18639  37.792  21.254   8.568
 1143POPC   D2A18640  37.891  21.491   8.198
 1143POPC   C3A18641  37.698  21.270   7.854
 1143POPC   C4A18642  37.735  21.085   7.462
 1143POPC   C1B18643  37.269  21.286   8.673
 1143POPC   C2B18644  37.348  21.419   8.219
 1143POPC   C3B18645  37.239  21.464   7.748
 1143POPC   C4B18646  37.475  21.573   7.373
 1144POPC   NC318647  18.094  22.542   9.392
 1144POPC   PO418648  18.238  21.917   9.667
 1144POPC   GL118649  18.337  21.891   9.211
 1144POPC   GL218650  18.398  22.219   9.145
 1144POPC   C1A18651  18.141  21.984   8.764
 1144POPC   D2A18652  18.067  22.268   8.400
 1144POPC   C3A18653  18.111  21.996   8.039
 1144POPC   C4A18654  17.780  21.821   7.829
 1144POPC   C1B18655  18.651  22.059   8.815
 1144POPC   C2B18656  18.561  22.133   8.397
 1144POPC   C3B18657  18.447  22.375   8.059
 1144POPC   C4B18658  18.561  22.098   7.761
 1145POPC   NC318659  34.058  23.159   9.442
 1145POPC   PO418660  33.401  22.906   9.378
 1145POPC   GL118661  33.725  23.042   9.089
 1145POPC   GL218662  33.954  22.764   9.081
 1145POPC   C1A18663  33.971  23.254   8.771
 1145POPC   D2A18664  33.765  23.194   8.386
 1145POPC   C3A18665  33.996  23.166   8.027
 1145POPC   C4A18666  33.610  23.004   7.867
 1145POPC   C1B18667  33.871  22.766   8.654
 1145POPC   C2B18668  33.992  22.695   8.241
 1145POPC   C3B18669  33.992  22.668   7.798
 1145POPC   C4B18670  33.960  22.613   7.317
 1146POPC   NC318671  37.471  38.803   9.582
 1146POPC   PO418672  37.923  39.244   9.744
 1146POPC   GL118673  37.871  38.938   9.278
 1146POPC   GL218674  37.628  39.029   9.008
 1146POPC   C1A18675  38.031  38.828   8.807
 1146POPC   D2A18676  37.824  38.861   8.386
 1146POPC   C3A18677  37.798  39.119   8.015
 1146POPC   C4A18678  38.003  39.170   7.640
 1146POPC   C1B18679  37.590  39.385   8.695
 1146POPC   C2B18680  37.719  39.516   8.341
 1146POPC   C3B18681  37.498  39.542   7.988
 1146POPC   C4B18682  37.427  39.417   7.599
 1147POPC   NC318683  35.535  44.001   9.354
 1147POPC   PO418684  35.090  43.505   9.347
 1147POPC   GL118685  35.065  43.881   9.080
 1147POPC   GL218686  35.349  43.752   8.966
 1147POPC   C1A18687  35.202  44.111   8.672
 1147POPC   D2A18688  35.152  43.944   8.248
 1147POPC   C3A18689  35.291  43.996   7.839
 1147POPC   C4A18690  35.692  44.159   7.697
 1147POPC   C1B18691  35.225  43.585   8.607
 1147POPC   C2B18692  35.088  43.434   8.221
 1147POPC   C3B18693  35.216  43.437   7.786
 1147POPC   C4B18694  35.297  43.349   7.332
 1148POPC   NC318695   4.766  35.108   9.537
 1148POPC   PO418696   4.122  35.014   9.365
 1148POPC   GL118697   4.467  35.306   9.177
 1148POPC   GL218698   4.762  35.117   9.038
 1148POPC   C1A18699   4.558  35.543   8.816
 1148POPC   D2A18700   4.287  35.565   8.426
 1148POPC   C3A18701   4.366  35.340   8.032
 1148POPC   C4A18702   4.172  35.358   7.635
 1148POPC   C1B18703   4.583  35.067   8.642
 1148POPC   C2B18704   4.703  34.984   8.232
 1148POPC   C3B18705   4.442  34.762   7.946
 1148POPC   C4B18706   4.030  34.898   7.830
 1149POPC   NC318707  13.663  44.171   9.509
 1149POPC   PO418708  14.192  43.707   9.347
 1149POPC   GL118709  13.726  43.781   9.193
 1149POPC   GL218710  13.398  44.047   9.112
 1149POPC   C1A18711  13.579  43.679   8.821
 1149POPC   D2A18712  13.545  43.777   8.436
 1149POPC   C3A18713  13.882  43.765   8.189
 1149POPC   C4A18714  13.629  43.932   7.876
 1149POPC   C1B18715  13.549  44.220   8.763
 1149POPC   C2B18716  13.664  44.267   8.360
 1149POPC   C3B18717  13.552  44.426   8.004
 1149POPC   C4B18718  13.353  44.290   7.652
 1150POPC   NC318719  10.566  43.188   9.580
 1150POPC   PO418720   9.935  43.094   9.477
 1150POPC   GL118721  10.303  43.022   9.166
 1150POPC   GL218722  10.580  43.277   9.082
 1150POPC   C1A18723  10.459  42.932   8.722
 1150POPC   D2A18724  10.760  42.813   8.417
 1150POPC   C3A18725  10.889  43.121   8.178
 1150POPC   C4A18726  10.691  43.284   7.843
 1150POPC   C1B18727  10.740  43.393   8.677
 1150POPC   C2B18728  10.464  43.342   8.343
 1150POPC   C3B18729  10.320  43.002   8.144
 1150POPC   C4B18730  10.235  42.886   7.725
 1151POPC   NC318731  35.205  25.982   9.336
 1151POPC   PO418732  35.622  26.525   9.424
 1151POPC   GL118733  35.408  26.342   9.045
 1151POPC   GL218734  35.067  26.397   9.064
 1151POPC   C1A18735  35.373  26.011   8.688
 1151POPC   D2A18736  35.586  26.008   8.282
 1151POPC   C3A18737  35.462  25.883   7.886
 1151POPC   C4A18738  35.087  25.719   7.804
 1151POPC   C1B18739  35.091  26.415   8.595
 1151POPC   C2B18740  35.098  26.204   8.187
 1151POPC   C3B18741  35.242  26.357   7.788
 1151POPC   C4B18742  35.601  26.231   7.515
 1152POPC   NC318743  15.595  36.087   9.434
 1152POPC   PO418744  15.039  36.438   9.499
 1152POPC   GL118745  15.144  36.168   9.172
 1152POPC   GL218746  14.978  36.368   8.943
 1152POPC   C1A18747  15.383  36.121   8.777
 1152POPC   D2A18748  15.158  36.093   8.412
 1152POPC   C3A18749  15.338  36.133   7.984
 1152POPC   C4A18750  15.208  35.856   7.667
 1152POPC   C1B18751  15.098  36.591   8.577
 1152POPC   C2B18752  14.958  36.476   8.158
 1152POPC   C3B18753  14.949  36.375   7.737
 1152POPC   C4B18754  14.610  36.341   7.485
 1153POPC   NC318755  42.869   3.332   9.523
 1153POPC   PO418756  43.247   3.899   9.450
 1153POPC   GL118757  42.926   3.734   9.147
 1153POPC   GL218758  43.171   3.511   9.115
 1153POPC   C1A18759  43.047   3.791   8.692
 1153POPC   D2A18760  43.319   3.779   8.361
 1153POPC   C3A18761  43.102   3.680   8.008
 1153POPC   C4A18762  42.821   3.908   7.761
 1153POPC   C1B18763  43.113   3.292   8.735
 1153POPC   C2B18764  43.292   3.222   8.355
 1153POPC   C3B18765  43.167   3.170   7.947
 1153POPC   C4B18766  42.955   3.385   7.627
 1154POPC   NC318767  31.468   2.681   9.744
 1154POPC   PO418768  31.024   2.357   9.644
 1154POPC   GL118769  31.327   2.470   9.296
 1154POPC   GL218770  31.299   2.265   8.995
 1154POPC   C1A18771  31.406   2.767   8.930
 1154POPC   D2A18772  31.394   3.044   8.541
 1154POPC   C3A18773  31.356   2.891   8.104
 1154POPC   C4A18774  31.466   2.613   7.789
 1154POPC   C1B18775  31.138   2.482   8.595
 1154POPC   C2B18776  31.004   2.527   8.152
 1154POPC   C3B18777  31.053   2.303   7.746
 1154POPC   C4B18778  31.313   2.321   7.362
 1155POPC   NC318779  35.455  24.760   9.378
 1155POPC   PO418780  35.061  24.220   9.488
 1155POPC   GL118781  35.348  24.300   9.165
 1155POPC   GL218782  35.092  24.564   9.076
 1155POPC   C1A18783  35.528  24.476   8.759
 1155POPC   D2A18784  35.627  24.331   8.330
 1155POPC   C3A18785  35.366  24.318   7.968
 1155POPC   C4A18786  35.454  24.646   7.706
 1155POPC   C1B18787  35.069  24.260   8.752
 1155POPC   C2B18788  35.133  24.496   8.396
 1155POPC   C3B18789  35.143  24.791   8.089
 1155POPC   C4B18790  34.996  24.897   7.701
 1156POPC   NC318791  42.955  42.837   9.792
 1156POPC   PO418792  43.346  43.386   9.679
 1156POPC   GL118793  43.242  43.105   9.300
 1156POPC   GL218794  42.947  42.866   9.283
 1156POPC   C1A18795  43.077  43.131   8.861
 1156POPC   D2A18796  42.865  43.053   8.459
 1156POPC   C3A18797  43.145  43.151   8.102
 1156POPC   C4A18798  43.461  43.228   7.761
 1156POPC   C1B18799  42.847  42.663   8.891
 1156POPC   C2B18800  42.864  42.538   8.476
 1156POPC   C3B18801  42.965  42.660   8.072
 1156POPC   C4B18802  42.828  42.921   7.760
 1157POPC   NC318803  30.309  24.124   9.350
 1157POPC   PO418804  30.246  23.429   9.438
 1157POPC   GL118805  30.404  23.689   9.090
 1157POPC   GL218806  30.770  23.779   9.150
 1157POPC   C1A18807  30.607  23.787   8.678
 1157POPC   D2A18808  30.831  23.607   8.337
 1157POPC   C3A18809  30.618  23.703   7.953
 1157POPC   C4A18810  30.355  23.994   7.683
 1157POPC   C1B18811  31.076  23.936   8.824
 1157POPC   C2B18812  31.081  24.053   8.386
 1157POPC   C3B18813  30.810  24.168   8.049
 1157POPC   C4B18814  30.880  24.028   7.637
 1158POPC   NC318815  10.535  22.171   9.593
 1158POPC   PO418816  10.198  22.535   9.127
 1158POPC   GL118817  10.481  22.171   9.097
 1158POPC   GL218818  10.855  22.156   9.195
 1158POPC   C1A18819  10.565  21.926   8.767
 1158POPC   D2A18820  10.325  22.112   8.435
 1158POPC   C3A18821  10.454  22.002   8.047
 1158POPC   C4A18822  10.412  22.158   7.618
 1158POPC   C1B18823  10.896  22.331   8.762
 1158POPC   C2B18824  10.865  22.117   8.359
 1158POPC   C3B18825  10.909  22.188   7.899
 1158POPC   C4B18826  11.035  22.494   7.583
 1159POPC   NC318827  26.660   3.675   9.474
 1159POPC   PO418828  27.136   3.301   9.569
 1159POPC   GL118829  27.013   3.380   9.151
 1159POPC   GL218830  26.938   3.690   9.060
 1159POPC   C1A18831  26.830   3.235   8.767
 1159POPC   D2A18832  27.026   3.110   8.375
 1159POPC   C3A18833  26.868   3.331   8.007
 1159POPC   C4A18834  26.884   3.387   7.575
 1159POPC   C1B18835  26.957   3.862   8.670
 1159POPC   C2B18836  26.915   3.770   8.242
 1159POPC   C3B18837  27.123   3.853   7.845
 1159POPC   C4B18838  26.963   3.872   7.405
 1160POPC   NC318839  40.735  19.220   9.606
 1160POPC   PO418840  40.752  18.626   9.469
 1160POPC   GL118841  40.801  18.887   9.078
 1160POPC   GL218842  40.842  19.257   9.082
 1160POPC   C1A18843  40.679  18.965   8.622
 1160POPC   D2A18844  40.913  18.844   8.282
 1160POPC   C3A18845  40.731  18.853   7.927
 1160POPC   C4A18846  40.324  18.875   7.728
 1160POPC   C1B18847  40.892  19.434   8.643
 1160POPC   C2B18848  40.813  19.347   8.198
 1160POPC   C3B18849  40.688  19.341   7.764
 1160POPC   C4B18850  40.616  19.410   7.322
 1161POPC   NC318851  13.914  20.931   9.430
 1161POPC   PO418852  13.409  20.551   9.596
 1161POPC   GL118853  13.559  20.540   9.169
 1161POPC   GL218854  13.613  20.845   9.052
 1161POPC   C1A18855  13.531  20.499   8.685
 1161POPC   D2A18856  13.780  20.600   8.296
 1161POPC   C3A18857  13.737  20.475   7.854
 1161POPC   C4A18858  13.390  20.516   7.540
 1161POPC   C1B18859  13.785  20.985   8.666
 1161POPC   C2B18860  13.537  21.064   8.286
 1161POPC   C3B18861  13.428  20.904   7.883
 1161POPC   C4B18862  13.768  20.889   7.550
 1162POPC   NC318863  30.861  42.234   9.545
 1162POPC   PO418864  31.560  42.139   9.524
 1162POPC   GL118865  31.257  42.252   9.212
 1162POPC   GL218866  31.091  41.995   9.091
 1162POPC   C1A18867  31.233  42.386   8.783
 1162POPC   D2A18868  31.561  42.321   8.475
 1162POPC   C3A18869  31.483  42.435   8.059
 1162POPC   C4A18870  31.602  42.784   7.808
 1162POPC   C1B18871  31.511  41.926   8.843
 1162POPC   C2B18872  31.682  41.812   8.403
 1162POPC   C3B18873  31.716  41.966   7.937
 1162POPC   C4B18874  31.730  42.153   7.473
 1163POPC   NC318875  14.944  37.956   9.381
 1163POPC   PO418876  15.378  37.503   9.641
 1163POPC   GL118877  15.473  37.456   9.217
 1163POPC   GL218878  15.643  37.780   9.176
 1163POPC   C1A18879  15.216  37.622   8.832
 1163POPC   D2A18880  14.978  37.619   8.396
 1163POPC   C3A18881  15.194  37.710   7.982
 1163POPC   C4A18882  15.166  37.601   7.523
 1163POPC   C1B18883  15.728  37.558   8.797
 1163POPC   C2B18884  15.506  37.471   8.447
 1163POPC   C3B18885  15.631  37.456   8.068
 1163POPC   C4B18886  15.435  37.239   7.767
 1164POPC   NC318887  29.549  29.999   9.393
 1164POPC   PO418888  28.863  29.625   9.430
 1164POPC   GL118889  29.089  29.793   9.068
 1164POPC   GL218890  28.965  30.089   8.878
 1164POPC   C1A18891  29.131  29.677   8.632
 1164POPC   D2A18892  29.405  29.824   8.322
 1164POPC   C3A18893  29.123  29.995   8.042
 1164POPC   C4A18894  29.044  29.847   7.658
 1164POPC   C1B18895  29.432  30.115   8.746
 1164POPC   C2B18896  29.674  30.259   8.369
 1164POPC   C3B18897  29.589  30.180   7.945
 1164POPC   C4B18898  29.309  30.283   7.611
 1165POPC   NC318899   5.412   5.909   9.376
 1165POPC   PO418900   4.904   6.275   9.489
 1165POPC   GL118901   5.067   6.154   9.060
 1165POPC   GL218902   4.978   5.800   9.103
 1165POPC   C1A18903   5.283   5.900   8.707
 1165POPC   D2A18904   5.471   5.713   8.329
 1165POPC   C3A18905   5.343   5.856   7.952
 1165POPC   C4A18906   5.440   5.652   7.605
 1165POPC   C1B18907   4.780   5.889   8.700
 1165POPC   C2B18908   4.952   6.041   8.304
 1165POPC   C3B18909   4.838   5.947   7.891
 1165POPC   C4B18910   4.516   5.663   7.733
 1166POPC   NC318911  37.764  41.281   9.541
 1166POPC   PO418912  37.821  40.593   9.581
 1166POPC   GL118913  37.691  40.879   9.205
 1166POPC   GL218914  37.405  41.139   9.188
 1166POPC   C1A18915  37.557  40.722   8.798
 1166POPC   D2A18916  37.603  40.450   8.418
 1166POPC   C3A18917  37.587  40.665   8.014
 1166POPC   C4A18918  37.653  40.639   7.555
 1166POPC   C1B18919  37.628  41.244   8.805
 1166POPC   C2B18920  37.747  41.033   8.417
 1166POPC   C3B18921  37.876  41.113   8.007
 1166POPC   C4B18922  37.658  41.140   7.634
 1167POPC   NC318923  13.092  43.351   9.531
 1167POPC   PO418924  12.624  42.770   9.497
 1167POPC   GL118925  12.782  42.942   9.143
 1167POPC   GL218926  13.071  43.123   9.082
 1167POPC   C1A18927  12.677  43.110   8.745
 1167POPC   D2A18928  12.642  42.922   8.349
 1167POPC   C3A18929  12.771  43.195   8.072
 1167POPC   C4A18930  12.512  43.130   7.743
 1167POPC   C1B18931  13.156  43.410   8.785
 1167POPC   C2B18932  13.072  43.542   8.371
 1167POPC   C3B18933  13.317  43.557   8.019
 1167POPC   C4B18934  13.161  43.365   7.680
 1168POPC   NC318935  16.664  15.082   9.608
 1168POPC   PO418936  17.213  15.076   9.523
 1168POPC   GL118937  16.901  15.072   9.142
 1168POPC   GL218938  16.527  15.172   9.119
 1168POPC   C1A18939  16.839  15.085   8.668
 1168POPC   D2A18940  17.003  15.073   8.224
 1168POPC   C3A18941  16.726  14.952   7.898
 1168POPC   C4A18942  16.256  14.877   7.850
 1168POPC   C1B18943  16.352  15.253   8.683
 1168POPC   C2B18944  16.447  15.180   8.238
 1168POPC   C3B18945  16.423  15.347   7.766
 1168POPC   C4B18946  16.563  15.494   7.356
 1169POPC   NC318947   3.859  37.184   9.959
 1169POPC   PO418948   3.972  36.624   9.519
 1169POPC   GL118949   3.701  36.876   9.235
 1169POPC   GL218950   3.426  36.688   9.157
 1169POPC   C1A18951   3.635  37.144   8.839
 1169POPC   D2A18952   3.443  37.276   8.421
 1169POPC   C3A18953   3.602  37.147   8.003
 1169POPC   C4A18954   3.732  37.028   7.589
 1169POPC   C1B18955   3.651  36.621   8.775
 1169POPC   C2B18956   3.561  36.759   8.361
 1169POPC   C3B18957   3.604  36.631   7.921
 1169POPC   C4B18958   3.351  36.688   7.568
 1170POPC   NC318959  40.108  29.209   9.452
 1170POPC   PO418960  39.523  29.471   9.544
 1170POPC   GL118961  39.671  29.186   9.205
 1170POPC   GL218962  39.847  29.432   9.050
 1170POPC   C1A18963  39.850  28.998   8.797
 1170POPC   D2A18964  40.117  29.062   8.399
 1170POPC   C3A18965  40.114  28.765   8.054
 1170POPC   C4A18966  39.842  28.779   7.710
 1170POPC   C1B18967  40.151  29.473   8.727
 1170POPC   C2B18968  40.470  29.472   8.400
 1170POPC   C3B18969  40.358  29.465   7.971
 1170POPC   C4B18970  40.027  29.248   7.753
 1171POPC   NC318971   6.504  17.163   9.424
 1171POPC   PO418972   7.102  17.439   9.546
 1171POPC   GL118973   6.952  17.330   9.152
 1171POPC   GL218974   6.674  17.558   9.114
 1171POPC   C1A18975   6.746  17.206   8.759
 1171POPC   D2A18976   6.743  17.066   8.344
 1171POPC   C3A18977   6.635  17.305   7.987
 1171POPC   C4A18978   6.954  17.140   7.741
 1171POPC   C1B18979   6.780  17.797   8.777
 1171POPC   C2B18980   6.738  17.614   8.399
 1171POPC   C3B18981   6.979  17.661   8.035
 1171POPC   C4B18982   6.797  17.685   7.610
 1172POPC   NC318983  22.490  11.011   9.212
 1172POPC   PO418984  22.670  11.603   9.530
 1172POPC   GL118985  22.459  11.509   9.123
 1172POPC   GL218986  22.125  11.349   9.113
 1172POPC   C1A18987  22.486  11.357   8.670
 1172POPC   D2A18988  22.285  11.176   8.316
 1172POPC   C3A18989  22.303  11.482   8.022
 1172POPC   C4A18990  22.180  11.594   7.647
 1172POPC   C1B18991  21.977  11.171   8.735
 1172POPC   C2B18992  21.853  10.908   8.371
 1172POPC   C3B18993  21.842  11.047   7.921
 1172POPC   C4B18994  21.842  10.969   7.436
 1173POPC   NC318995  39.359   7.933   9.563
 1173POPC   PO418996  38.833   8.422   9.738
 1173POPC   GL118997  39.006   8.238   9.236
 1173POPC   GL218998  39.140   8.524   9.030
 1173POPC   C1A18999  39.237   8.082   8.830
 1173POPC   D2A19000  39.225   8.327   8.427
 1173POPC   C3A19001  39.392   8.158   8.021
 1173POPC   C4A19002  39.253   7.922   7.669
 1173POPC   C1B19003  38.844   8.584   8.698
 1173POPC   C2B19004  38.799   8.682   8.233
 1173POPC   C3B19005  38.873   8.349   7.972
 1173POPC   C4B19006  38.964   8.330   7.539
 1174POPC   NC319007  21.978  26.615   9.900
 1174POPC   PO419008  21.368  26.667   9.568
 1174POPC   GL119009  21.358  26.875   9.177
 1174POPC   GL219010  21.597  27.154   9.106
 1174POPC   C1A19011  21.277  26.709   8.762
 1174POPC   D2A19012  21.118  26.778   8.344
 1174POPC   C3A19013  21.277  26.629   7.910
 1174POPC   C4A19014  21.255  26.662   7.427
 1174POPC   C1B19015  21.842  27.323   8.778
 1174POPC   C2B19016  21.907  27.177   8.372
 1174POPC   C3B19017  21.637  26.945   8.086
 1174POPC   C4B19018  21.481  27.046   7.678
 1175POPC   NC319019  34.271  34.333   9.613
 1175POPC   PO419020  34.763  34.712   9.497
 1175POPC   GL119021  34.599  34.506   9.173
 1175POPC   GL219022  34.301  34.745   9.158
 1175POPC   C1A19023  34.391  34.377   8.799
 1175POPC   D2A19024  34.324  34.559   8.409
 1175POPC   C3A19025  34.518  34.366   8.114
 1175POPC   C4A19026  34.366  34.153   7.820
 1175POPC   C1B19027  34.470  34.907   8.738
 1175POPC   C2B19028  34.730  34.912   8.337
 1175POPC   C3B19029  34.613  34.807   7.895
 1175POPC   C4B19030  34.769  34.778   7.480
 1176POPC   NC319031  44.523  17.968   9.798
 1176POPC   PO419032  44.535  17.340   9.515
 1176POPC   GL119033  44.780  17.464   9.185
 1176POPC   GL219034   0.052  17.252   9.204
 1176POPC   C1A19035  44.744  17.668   8.795
 1176POPC   D2A19036  44.655  17.852   8.412
 1176POPC   C3A19037  44.543  17.566   8.124
 1176POPC   C4A19038  44.697  17.520   7.723
 1176POPC   C1B19039   0.086  17.292   8.781
 1176POPC   C2B19040  44.850  17.288   8.402
 1176POPC   C3B19041  44.992  17.166   7.993
 1176POPC   C4B19042   0.052  17.167   7.564
 1177POPC   NC319043  32.928  43.517   9.590
 1177POPC   PO419044  32.807  44.153   9.346
 1177POPC   GL119045  33.088  43.826   9.110
 1177POPC   GL219046  33.299  43.538   9.167
 1177POPC   C1A19047  33.044  43.805   8.678
 1177POPC   D2A19048  32.841  43.689   8.335
 1177POPC   C3A19049  33.054  43.799   7.964
 1177POPC   C4A19050  33.138  44.181   7.745
 1177POPC   C1B19051  33.375  43.361   8.734
 1177POPC   C2B19052  33.313  43.461   8.296
 1177POPC   C3B19053  33.555  43.585   7.951
 1177POPC   C4B19054  33.568  43.519   7.525
 1178POPC   NC319055  16.198  10.370   9.466
 1178POPC   PO419056  16.827  10.555   9.545
 1178POPC   GL119057  16.818  10.447   9.146
 1178POPC   GL219058  16.582  10.209   9.151
 1178POPC   C1A19059  16.935  10.242   8.775
 1178POPC   D2A19060  16.721  10.271   8.400
 1178POPC   C3A19061  16.817  10.518   8.058
 1178POPC   C4A19062  16.913  10.180   7.791
 1178POPC   C1B19063  16.443  10.434   8.778
 1178POPC   C2B19064  16.317  10.527   8.295
 1178POPC   C3B19065  16.341  10.590   7.859
 1178POPC   C4B19066  16.474  10.370   7.516
 1179POPC   NC319067  41.378  24.333   9.772
 1179POPC   PO419068  41.963  24.708   9.827
 1179POPC   GL119069  41.640  24.700   9.466
 1179POPC   GL219070  41.720  24.374   9.330
 1179POPC   C1A19071  41.436  24.765   9.025
 1179POPC   D2A19072  41.248  24.526   8.665
 1179POPC   C3A19073  41.355  24.565   8.233
 1179POPC   C4A19074  41.315  24.424   7.818
 1179POPC   C1B19075  41.699  24.345   8.879
 1179POPC   C2B19076  41.829  24.532   8.486
 1179POPC   C3B19077  41.819  24.457   8.038
 1179POPC   C4B19078  41.694  24.092   7.824
 1180POPC   NC319079  33.486  26.594   9.332
 1180POPC   PO419080  34.011  26.920   9.621
 1180POPC   GL119081  33.964  26.744   9.243
 1180POPC   GL219082  33.716  26.991   9.107
 1180POPC   C1A19083  33.972  26.691   8.795
 1180POPC   D2A19084  33.664  26.803   8.499
 1180POPC   C3A19085  33.676  26.504   8.178
 1180POPC   C4A19086  33.826  26.583   7.758
 1180POPC   C1B19087  33.385  27.129   8.826
 1180POPC   C2B19088  33.363  27.237   8.391
 1180POPC   C3B19089  33.568  27.017   8.037
 1180POPC   C4B19090  33.664  27.024   7.593
 1181POPC   NC319091  15.113  44.587   9.683
 1181POPC   PO419092  14.769  44.663   9.161
 1181POPC   GL119093  15.207  44.559   9.107
 1181POPC   GL219094  15.313  44.899   9.218
 1181POPC   C1A19095  15.263  44.434   8.644
 1181POPC   D2A19096  14.883  44.594   8.397
 1181POPC   C3A19097  14.901  44.638   7.932
 1181POPC   C4A19098  15.274  44.750   7.772
 1181POPC   C1B19099  15.439  44.898   8.777
 1181POPC   C2B19100  15.313  44.918   8.311
 1181POPC   C3B19101  15.553   0.124   7.966
 1181POPC   C4B19102  15.707  44.942   7.566
 1182POPC   NC319103  26.009  21.119   9.520
 1182POPC   PO419104  26.548  21.594   9.540
 1182POPC   GL119105  26.288  21.450   9.191
 1182POPC   GL219106  25.957  21.544   9.162
 1182POPC   C1A19107  26.119  21.180   8.842
 1182POPC   D2A19108  25.825  21.049   8.513
 1182POPC   C3A19109  25.943  21.189   8.116
 1182POPC   C4A19110  26.150  21.233   7.728
 1182POPC   C1B19111  25.802  21.591   8.719
 1182POPC   C2B19112  25.835  21.782   8.304
 1182POPC   C3B19113  25.947  21.662   7.888
 1182POPC   C4B19114  25.863  21.596   7.421
 1183POPC   NC319115   9.346  35.441   9.342
 1183POPC   PO419116   9.959  35.306   9.505
 1183POPC   GL119117   9.802  35.346   9.117
 1183POPC   GL219118   9.764  35.015   9.135
 1183POPC   C1A19119   9.979  35.222   8.722
 1183POPC   D2A19120  10.204  35.324   8.383
 1183POPC   C3A19121  10.040  35.260   7.995
 1183POPC   C4A19122   9.866  35.544   7.724
 1183POPC   C1B19123   9.497  35.033   8.767
 1183POPC   C2B19124   9.647  35.096   8.349
 1183POPC   C3B19125   9.549  35.224   7.962
 1183POPC   C4B19126   9.731  35.060   7.581
 1184POPC   NC319127   8.516  15.593   9.773
 1184POPC   PO419128   8.206  16.167   9.419
 1184POPC   GL119129   8.273  16.024   9.030
 1184POPC   GL219130   8.079  15.752   9.024
 1184POPC   C1A19131   8.296  15.865   8.600
 1184POPC   D2A19132   8.033  15.996   8.270
 1184POPC   C3A19133   8.202  15.938   7.903
 1184POPC   C4A19134   8.449  16.269   7.729
 1184POPC   C1B19135   7.780  15.794   8.682
 1184POPC   C2B19136   7.670  15.663   8.276
 1184POPC   C3B19137   7.698  15.887   7.863
 1184POPC   C4B19138   7.886  15.686   7.496
 1185POPC   NC319139  30.460  37.841   9.432
 1185POPC   PO419140  30.955  37.952   9.059
 1185POPC   GL119141  30.598  37.847   8.930
 1185POPC   GL219142  30.600  37.540   9.048
 1185POPC   C1A19143  30.485  38.073   8.586
 1185POPC   D2A19144  30.660  38.189   8.204
 1185POPC   C3A19145  30.583  37.995   7.811
 1185POPC   C4A19146  30.956  37.837   7.645
 1185POPC   C1B19147  30.845  37.382   8.754
 1185POPC   C2B19148  30.748  37.332   8.380
 1185POPC   C3B19149  30.852  37.504   8.026
 1185POPC   C4B19150  30.621  37.469   7.701
 1186POPC   NC319151   0.173   6.011   9.405
 1186POPC   PO419152   0.836   6.011   9.454
 1186POPC   GL119153   0.602   5.855   9.106
 1186POPC   GL219154   0.237   5.721   9.004
 1186POPC   C1A19155   0.558   6.112   8.756
 1186POPC   D2A19156   0.426   6.044   8.369
 1186POPC   C3A19157   0.602   6.125   7.981
 1186POPC   C4A19158   0.450   5.797   7.728
 1186POPC   C1B19159   0.493   5.612   8.655
 1186POPC   C2B19160   0.648   5.541   8.269
 1186POPC   C3B19161   0.472   5.327   7.962
 1186POPC   C4B19162   0.550   5.338   7.536
 1187POPC   NC319163  24.863   1.311   9.485
 1187POPC   PO419164  25.479   0.951   9.520
 1187POPC   GL119165  25.171   1.045   9.177
 1187POPC   GL219166  25.467   1.091   9.026
 1187POPC   C1A19167  25.045   1.249   8.770
 1187POPC   D2A19168  25.231   1.294   8.364
 1187POPC   C3A19169  25.034   1.374   7.962
 1187POPC   C4A19170  25.258   1.335   7.569
 1187POPC   C1B19171  25.714   0.886   8.737
 1187POPC   C2B19172  25.697   1.079   8.363
 1187POPC   C3B19173  25.585   1.202   7.970
 1187POPC   C4B19174  25.905   1.047   7.697
 1188POPC   NC319175  36.483   6.341   9.533
 1188POPC   PO419176  36.087   6.916   9.484
 1188POPC   GL119177  36.192   6.828   9.088
 1188POPC   GL219178  36.129   6.490   9.123
 1188POPC   C1A19179  36.398   6.747   8.685
 1188POPC   D2A19180  36.611   6.903   8.317
 1188POPC   C3A19181  36.482   6.862   7.878
 1188POPC   C4A19182  36.112   6.844   7.613
 1188POPC   C1B19183  36.052   6.398   8.697
 1188POPC   C2B19184  36.321   6.393   8.314
 1188POPC   C3B19185  36.169   6.435   7.907
 1188POPC   C4B19186  36.203   6.305   7.464
 1189POPC   NC319187   3.650  41.603   9.883
 1189POPC   PO419188   4.306  41.507   9.584
 1189POPC   GL119189   4.152  41.648   9.178
 1189POPC   GL219190   4.150  41.306   9.011
 1189POPC   C1A19191   3.972  41.690   8.783
 1189POPC   D2A19192   4.103  41.442   8.424
 1189POPC   C3A19193   4.306  41.722   8.126
 1189POPC   C4A19194   4.302  41.665   7.687
 1189POPC   C1B19195   4.525  41.380   8.737
 1189POPC   C2B19196   4.806  41.213   8.378
 1189POPC   C3B19197   4.728  41.194   7.925
 1189POPC   C4B19198   4.810  41.580   7.696
 1190POPC   NC319199  43.208  39.101   9.602
 1190POPC   PO419200  43.494  39.718   9.577
 1190POPC   GL119201  43.362  39.378   9.199
 1190POPC   GL219202  43.067  39.075   9.124
 1190POPC   C1A19203  43.403  39.247   8.750
 1190POPC   D2A19204  43.558  39.206   8.319
 1190POPC   C3A19205  43.275  39.243   7.949
 1190POPC   C4A19206  43.262  39.493   7.549
 1190POPC   C1B19207  42.904  39.305   8.785
 1190POPC   C2B19208  43.049  39.499   8.406
 1190POPC   C3B19209  42.806  39.382   8.059
 1190POPC   C4B19210  42.745  39.336   7.611
 1191POPC   NC319211   3.597  36.356   9.539
 1191POPC   PO419212   4.016  35.918   9.416
 1191POPC   GL119213   3.857  36.189   9.085
 1191POPC   GL219214   3.510  36.205   9.072
 1191POPC   C1A19215   3.796  36.151   8.638
 1191POPC   D2A19216   3.595  36.264   8.282
 1191POPC   C3A19217   3.892  36.188   7.985
 1191POPC   C4A19218   3.934  35.831   7.708
 1191POPC   C1B19219   3.277  36.277   8.705
 1191POPC   C2B19220   3.106  36.472   8.362
 1191POPC   C3B19221   3.188  36.336   7.949
 1191POPC   C4B19222   3.038  36.189   7.552
 1192POPC   NC319223   9.475  15.555   9.558
 1192POPC   PO419224   9.951  15.069   9.662
 1192POPC   GL119225   9.999  15.087   9.186
 1192POPC   GL219226   9.808  15.396   9.128
 1192POPC   C1A19227   9.703  14.943   8.832
 1192POPC   D2A19228   9.520  15.117   8.437
 1192POPC   C3A19229   9.643  14.997   8.031
 1192POPC   C4A19230   9.992  14.934   7.788
 1192POPC   C1B19231   9.437  15.430   8.847
 1192POPC   C2B19232   9.330  15.588   8.410
 1192POPC   C3B19233   9.702  15.607   8.141
 1192POPC   C4B19234   9.797  15.425   7.727
 1193POPC   NC319235  33.213  35.581   9.285
 1193POPC   PO419236  33.128  35.041   9.579
 1193POPC   GL119237  33.046  35.093   9.122
 1193POPC   GL219238  33.376  35.064   9.079
 1193POPC   C1A19239  32.885  35.258   8.701
 1193POPC   D2A19240  32.775  35.169   8.268
 1193POPC   C3A19241  32.886  35.408   7.898
 1193POPC   C4A19242  33.162  35.658   7.631
 1193POPC   C1B19243  33.389  35.341   8.712
 1193POPC   C2B19244  33.231  35.496   8.292
 1193POPC   C3B19245  33.414  35.325   7.900
 1193POPC   C4B19246  33.564  35.444   7.451
 1194POPC   NC319247  10.198   1.501   9.461
 1194POPC   PO419248  10.688   1.146   9.660
 1194POPC   GL119249  10.497   1.159   9.242
 1194POPC   GL219250  10.182   0.956   9.235
 1194POPC   C1A19251  10.368   1.368   8.840
 1194POPC   D2A19252  10.569   1.452   8.463
 1194POPC   C3A19253  10.461   1.226   8.081
 1194POPC   C4A19254  10.359   1.373   7.708
 1194POPC   C1B19255  10.414   0.855   8.846
 1194POPC   C2B19256  10.528   0.876   8.437
 1194POPC   C3B19257  10.603   0.726   8.010
 1194POPC   C4B19258  10.364   0.844   7.623
 1195POPC   NC319259  37.224  24.269   9.480
 1195POPC   PO419260  36.631  24.451   9.350
 1195POPC   GL119261  36.981  24.472   9.077
 1195POPC   GL219262  37.006  24.128   9.044
 1195POPC   C1A19263  37.075  24.678   8.677
 1195POPC   D2A19264  36.925  24.865   8.305
 1195POPC   C3A19265  37.081  24.719   7.917
 1195POPC   C4A19266  36.764  24.625   7.618
 1195POPC   C1B19267  36.819  24.216   8.663
 1195POPC   C2B19268  36.794  24.366   8.248
 1195POPC   C3B19269  36.941  24.231   7.862
 1195POPC   C4B19270  37.167  24.318   7.465
 1196POPC   NC319271  10.804  28.654   9.612
 1196POPC   PO419272  10.676  28.058   9.487
 1196POPC   GL119273  10.642  28.449   9.160
 1196POPC   GL219274  10.764  28.830   9.144
 1196POPC   C1A19275  10.396  28.453   8.763
 1196POPC   D2A19276  10.219  28.192   8.412
 1196POPC   C3A19277  10.231  28.368   8.022
 1196POPC   C4A19278  10.586  28.368   7.793
 1196POPC   C1B19279  10.870  28.664   8.741
 1196POPC   C2B19280  10.728  28.493   8.340
 1196POPC   C3B19281  10.950  28.647   7.997
 1196POPC   C4B19282  10.851  29.005   7.762
 1197POPC   NC319283  41.467  31.446   9.483
 1197POPC   PO419284  42.042  31.103   9.441
 1197POPC   GL119285  41.793  31.287   9.117
 1197POPC   GL219286  41.462  31.088   9.135
 1197POPC   C1A19287  41.759  31.613   8.797
 1197POPC   D2A19288  41.840  31.804   8.393
 1197POPC   C3A19289  41.722  31.633   8.003
 1197POPC   C4A19290  41.805  31.716   7.592
 1197POPC   C1B19291  41.406  31.261   8.754
 1197POPC   C2B19292  41.385  31.504   8.386
 1197POPC   C3B19293  41.335  31.327   7.993
 1197POPC   C4B19294  41.545  31.277   7.588
 1198POPC   NC319295  26.918  40.121   9.638
 1198POPC   PO419296  26.503  39.547   9.535
 1198POPC   GL119297  26.598  39.726   9.170
 1198POPC   GL219298  26.669  40.062   9.217
 1198POPC   C1A19299  26.763  39.673   8.766
 1198POPC   D2A19300  27.011  39.852   8.424
 1198POPC   C3A19301  26.803  40.017   8.080
 1198POPC   C4A19302  27.059  40.067   7.776
 1198POPC   C1B19303  26.885  40.165   8.844
 1198POPC   C2B19304  26.729  40.293   8.482
 1198POPC   C3B19305  26.932  40.530   8.179
 1198POPC   C4B19306  27.044  40.578   7.757
 1199POPC   NC319307  15.908   9.771   9.701
 1199POPC   PO419308  16.488  10.025   9.617
 1199POPC   GL119309  16.166   9.893   9.239
 1199POPC   GL219310  16.038   9.560   9.239
 1199POPC   C1A19311  15.897   9.883   8.804
 1199POPC   D2A19312  15.703   9.965   8.365
 1199POPC   C3A19313  15.807   9.772   7.963
 1199POPC   C4A19314  16.016   9.906   7.591
 1199POPC   C1B19315  16.161   9.463   8.821
 1199POPC   C2B19316  16.048   9.562   8.392
 1199POPC   C3B19317  16.282   9.604   8.023
 1199POPC   C4B19318  16.177   9.420   7.655
 1200POPC   NC319319  16.891  11.919   9.488
 1200POPC   PO419320  16.480  12.488   9.486
 1200POPC   GL119321  16.632  12.187   9.136
 1200POPC   GL219322  16.534  11.811   9.126
 1200POPC   C1A19323  16.535  12.157   8.705
 1200POPC   D2A19324  16.736  12.072   8.320
 1200POPC   C3A19325  16.473  12.087   7.951
 1200POPC   C4A19326  16.432  12.386   7.605
 1200POPC   C1B19327  16.660  11.676   8.719
 1200POPC   C2B19328  16.755  11.552   8.285
 1200POPC   C3B19329  16.889  11.796   7.906
 1200POPC   C4B19330  16.779  12.017   7.508
 1201POPC   NC319331  22.753  43.633   9.469
 1201POPC   PO419332  22.458  44.211   9.429
 1201POPC   GL119333  22.740  44.073   9.106
 1201POPC   GL219334  23.073  43.928   9.112
 1201POPC   C1A19335  22.719  43.780   8.762
 1201POPC   D2A19336  22.862  43.631   8.377
 1201POPC   C3A19337  22.751  43.892   8.066
 1201POPC   C4A19338  22.485  43.863   7.743
 1201POPC   C1B19339  23.231  43.799   8.701
 1201POPC   C2B19340  23.208  43.993   8.275
 1201POPC   C3B19341  23.210  43.882   7.812
 1201POPC   C4B19342  23.207  43.908   7.320
 1202POPC   NC319343  10.993  16.021   9.503
 1202POPC   PO419344  11.637  15.742   9.576
 1202POPC   GL119345  11.471  15.823   9.178
 1202POPC   GL219346  11.160  15.694   9.143
 1202POPC   C1A19347  11.397  15.941   8.735
 1202POPC   D2A19348  11.089  16.048   8.394
 1202POPC   C3A19349  11.287  16.149   7.983
 1202POPC   C4A19350  11.468  15.858   7.734
 1202POPC   C1B19351  10.997  15.582   8.748
 1202POPC   C2B19352  11.051  15.531   8.302
 1202POPC   C3B19353  11.093  15.558   7.862
 1202POPC   C4B19354  11.046  15.726   7.447
 1203POPC   NC319355  43.255  31.942   9.485
 1203POPC   PO419356  43.874  32.138   9.781
 1203POPC   GL119357  43.796  32.293   9.282
 1203POPC   GL219358  43.516  32.166   9.117
 1203POPC   C1A19359  43.775  32.349   8.746
 1203POPC   D2A19360  43.791  32.121   8.320
 1203POPC   C3A19361  43.878  32.331   7.920
 1203POPC   C4A19362  44.048  32.660   7.629
 1203POPC   C1B19363  43.364  31.882   8.801
 1203POPC   C2B19364  43.531  31.682   8.423
 1203POPC   C3B19365  43.326  31.804   8.028
 1203POPC   C4B19366  43.566  31.928   7.668
 1204POPC   NC319367  41.085   7.207   9.667
 1204POPC   PO419368  40.551   7.517   9.432
 1204POPC   GL119369  40.785   7.455   9.145
 1204POPC   GL219370  40.838   7.141   9.203
 1204POPC   C1A19371  40.824   7.625   8.786
 1204POPC   D2A19372  40.816   7.408   8.441
 1204POPC   C3A19373  40.551   7.557   8.120
 1204POPC   C4A19374  40.707   7.618   7.720
 1204POPC   C1B19375  40.489   7.115   8.895
 1204POPC   C2B19376  40.495   7.027   8.480
 1204POPC   C3B19377  40.683   7.074   8.079
 1204POPC   C4B19378  40.539   7.109   7.700
 1205POPC   NC319379  21.508   2.891   9.971
 1205POPC   PO419380  21.191   2.437   9.736
 1205POPC   GL119381  21.275   2.509   9.255
 1205POPC   GL219382  21.493   2.259   9.114
 1205POPC   C1A19383  21.017   2.731   8.897
 1205POPC   D2A19384  21.005   2.726   8.425
 1205POPC   C3A19385  21.276   2.573   8.074
 1205POPC   C4A19386  21.256   2.720   7.674
 1205POPC   C1B19387  21.393   2.456   8.715
 1205POPC   C2B19388  21.593   2.750   8.415
 1205POPC   C3B19389  21.697   2.857   7.963
 1205POPC   C4B19390  21.746   2.619   7.559
 1206POPC   NC319391  43.648  19.718   9.573
 1206POPC   PO419392  43.972  20.326   9.414
 1206POPC   GL119393  43.739  19.962   9.125
 1206POPC   GL219394  43.790  19.558   9.108
 1206POPC   C1A19395  43.779  19.849   8.667
 1206POPC   D2A19396  43.787  19.952   8.214
 1206POPC   C3A19397  44.010  19.707   7.910
 1206POPC   C4A19398  44.063  20.075   7.685
 1206POPC   C1B19399  43.711  19.320   8.720
 1206POPC   C2B19400  43.584  19.494   8.328
 1206POPC   C3B19401  43.544  19.519   7.907
 1206POPC   C4B19402  43.748  19.385   7.519
 1207POPC   NC319403  23.375  30.816   9.389
 1207POPC   PO419404  22.783  30.484   9.657
 1207POPC   GL119405  22.812  30.663   9.237
 1207POPC   GL219406  22.624  30.970   9.128
 1207POPC   C1A19407  22.861  30.562   8.796
 1207POPC   D2A19408  23.024  30.241   8.495
 1207POPC   C3A19409  23.156  30.388   8.097
 1207POPC   C4A19410  22.935  30.645   7.783
 1207POPC   C1B19411  22.780  31.078   8.686
 1207POPC   C2B19412  22.855  31.034   8.212
 1207POPC   C3B19413  22.688  31.095   7.774
 1207POPC   C4B19414  22.651  30.945   7.326
 1208POPC   NC319415   8.607  24.742   9.216
 1208POPC   PO419416   9.046  24.298   9.513
 1208POPC   GL119417   8.746  24.255   9.144
 1208POPC   GL219418   9.009  24.438   9.015
 1208POPC   C1A19419   8.670  24.369   8.662
 1208POPC   D2A19420   8.803  24.478   8.231
 1208POPC   C3A19421   8.774  24.154   7.904
 1208POPC   C4A19422   8.610  24.156   7.471
 1208POPC   C1B19423   9.155  24.514   8.632
 1208POPC   C2B19424   9.320  24.391   8.294
 1208POPC   C3B19425   9.207  24.453   7.896
 1208POPC   C4B19426   9.156  24.716   7.558
 1209POPC   NC319427   2.489  20.424   9.607
 1209POPC   PO419428   2.957  20.875   9.482
 1209POPC   GL119429   2.608  20.706   9.180
 1209POPC   GL219430   2.779  20.399   9.128
 1209POPC   C1A19431   2.535  20.629   8.726
 1209POPC   D2A19432   2.819  20.669   8.384
 1209POPC   C3A19433   2.860  20.491   7.983
 1209POPC   C4A19434   2.645  20.610   7.632
 1209POPC   C1B19435   2.812  20.209   8.691
 1209POPC   C2B19436   2.532  20.231   8.311
 1209POPC   C3B19437   2.434  20.226   7.868
 1209POPC   C4B19438   2.429  20.242   7.393
 1210POPC   NC319439  35.215  43.054   9.386
 1210POPC   PO419440  35.790  42.968   9.818
 1210POPC   GL119441  35.727  43.075   9.286
 1210POPC   GL219442  35.611  43.433   9.271
 1210POPC   C1A19443  35.513  42.862   8.854
 1210POPC   D2A19444  35.329  43.083   8.526
 1210POPC   C3A19445  35.342  42.999   8.094
 1210POPC   C4A19446  35.421  42.680   7.818
 1210POPC   C1B19447  35.651  43.356   8.841
 1210POPC   C2B19448  35.720  43.394   8.400
 1210POPC   C3B19449  35.850  43.189   8.046
 1210POPC   C4B19450  35.617  43.147   7.688
 1211POPC   NC319451   1.462  37.976   9.479
 1211POPC   PO419452   1.075  37.308   9.459
 1211POPC   GL119453   1.304  37.573   9.180
 1211POPC   GL219454   1.177  37.924   9.081
 1211POPC   C1A19455   1.429  37.544   8.740
 1211POPC   D2A19456   1.246  37.627   8.294
 1211POPC   C3A19457   1.496  37.536   7.900
 1211POPC   C4A19458   1.452  37.586   7.443
 1211POPC   C1B19459   0.937  38.190   8.794
 1211POPC   C2B19460   0.732  38.202   8.398
 1211POPC   C3B19461   0.911  37.954   8.058
 1211POPC   C4B19462   1.271  37.978   7.762
 1212POPC   NC319463  15.643  20.215   9.495
 1212POPC   PO419464  16.186  20.519   9.303
 1212POPC   GL119465  15.880  20.809   9.161
 1212POPC   GL219466  15.545  20.704   9.253
 1212POPC   C1A19467  15.850  20.871   8.733
 1212POPC   D2A19468  15.957  20.603   8.402
 1212POPC   C3A19469  15.991  20.805   8.013
 1212POPC   C4A19470  16.002  20.445   7.797
 1212POPC   C1B19471  15.650  20.405   8.866
 1212POPC   C2B19472  15.598  20.174   8.448
 1212POPC   C3B19473  15.555  20.349   8.020
 1212POPC   C4B19474  15.539  20.322   7.553
 1213POPC   NC319475   4.449   8.633   9.519
 1213POPC   PO419476   4.182   9.252   9.485
 1213POPC   GL119477   4.371   9.012   9.143
 1213POPC   GL219478   4.537   8.696   9.039
 1213POPC   C1A19479   4.390   9.075   8.717
 1213POPC   D2A19480   4.203   9.234   8.376
 1213POPC   C3A19481   4.393   9.184   8.003
 1213POPC   C4A19482   4.124   9.340   7.734
 1213POPC   C1B19483   4.382   8.559   8.647
 1213POPC   C2B19484   4.500   8.770   8.284
 1213POPC   C3B19485   4.562   8.702   7.848
 1213POPC   C4B19486   4.294   8.554   7.520
 1214POPC   NC319487  20.403  34.472   9.538
 1214POPC   PO419488  21.017  34.759   9.563
 1214POPC   GL119489  20.813  34.667   9.197
 1214POPC   GL219490  20.756  34.321   9.175
 1214POPC   C1A19491  20.855  34.571   8.758
 1214POPC   D2A19492  20.619  34.448   8.430
 1214POPC   C3A19493  20.718  34.613   8.048
 1214POPC   C4A19494  20.904  34.482   7.682
 1214POPC   C1B19495  20.377  34.413   8.898
 1214POPC   C2B19496  20.125  34.389   8.518
 1214POPC   C3B19497  20.209  34.431   8.097
 1214POPC   C4B19498  20.447  34.271   7.774
 1215POPC   NC319499  35.264  13.175   9.435
 1215POPC   PO419500  35.559  12.574   9.515
 1215POPC   GL119501  35.515  12.836   9.149
 1215POPC   GL219502  35.142  12.861   9.032
 1215POPC   C1A19503  35.613  12.934   8.720
 1215POPC   D2A19504  35.456  12.857   8.299
 1215POPC   C3A19505  35.694  12.815   7.916
 1215POPC   C4A19506  35.310  12.651   7.709
 1215POPC   C1B19507  35.201  13.243   8.754
 1215POPC   C2B19508  35.441  13.354   8.388
 1215POPC   C3B19509  35.382  13.227   7.941
 1215POPC   C4B19510  35.344  13.120   7.525
 1216POPC   NC319511   5.273   5.044   9.858
 1216POPC   PO419512   5.574   5.524   9.580
 1216POPC   GL119513   5.361   5.442   9.149
 1216POPC   GL219514   5.016   5.282   9.120
 1216POPC   C1A19515   5.279   5.394   8.690
 1216POPC   D2A19516   4.980   5.539   8.364
 1216POPC   C3A19517   5.012   5.437   7.930
 1216POPC   C4A19518   5.192   5.200   7.585
 1216POPC   C1B19519   4.817   5.168   8.693
 1216POPC   C2B19520   4.964   5.025   8.274
 1216POPC   C3B19521   4.839   4.917   7.844
 1216POPC   C4B19522   4.927   4.783   7.384
 1217POPC   NC319523  43.299  10.689   9.482
 1217POPC   PO419524  42.890  10.317   9.873
 1217POPC   GL119525  42.874  10.326   9.373
 1217POPC   GL219526  42.954  10.032   9.227
 1217POPC   C1A19527  42.821  10.385   8.874
 1217POPC   D2A19528  42.992  10.588   8.466
 1217POPC   C3A19529  42.880  10.605   8.002
 1217POPC   C4A19530  43.185  10.762   7.707
 1217POPC   C1B19531  43.272  10.039   8.878
 1217POPC   C2B19532  43.438  10.280   8.535
 1217POPC   C3B19533  43.289  10.334   8.114
 1217POPC   C4B19534  43.237  10.221   7.703
 1218POPC   NC319535  11.586   4.639   9.863
 1218POPC   PO419536  12.231   4.845   9.594
 1218POPC   GL119537  12.038   5.079   9.233
 1218POPC   GL219538  11.728   4.939   9.065
 1218POPC   C1A19539  12.172   5.072   8.815
 1218POPC   D2A19540  12.006   5.029   8.413
 1218POPC   C3A19541  12.126   4.941   8.023
 1218POPC   C4A19542  11.942   4.984   7.624
 1218POPC   C1B19543  11.697   5.250   8.759
 1218POPC   C2B19544  11.808   5.499   8.411
 1218POPC   C3B19545  11.793   5.349   7.983
 1218POPC   C4B19546  11.794   5.492   7.560
 1219POPC   NC319547  20.628  39.773   9.465
 1219POPC   PO419548  20.153  40.207   9.414
 1219POPC   GL119549  20.486  40.168   9.070
 1219POPC   GL219550  20.730  39.873   8.996
 1219POPC   C1A19551  20.680  40.213   8.639
 1219POPC   D2A19552  20.533  40.339   8.247
 1219POPC   C3A19553  20.336  40.033   8.012
 1219POPC   C4A19554  20.408  40.184   7.608
 1219POPC   C1B19555  21.031  39.695   8.708
 1219POPC   C2B19556  20.912  39.717   8.266
 1219POPC   C3B19557  20.839  39.990   7.895
 1219POPC   C4B19558  20.821  39.919   7.428
 1220POPC   NC319559  27.672  22.472   9.480
 1220POPC   PO419560  28.008  23.060   9.490
 1220POPC   GL119561  27.760  22.909   9.165
 1220POPC   GL219562  27.426  23.060   9.117
 1220POPC   C1A19563  27.800  22.660   8.808
 1220POPC   D2A19564  27.532  22.640   8.457
 1220POPC   C3A19565  27.709  22.756   8.050
 1220POPC   C4A19566  27.838  22.514   7.689
 1220POPC   C1B19567  27.148  23.018   8.735
 1220POPC   C2B19568  26.970  23.180   8.342
 1220POPC   C3B19569  27.208  23.260   7.972
 1220POPC   C4B19570  27.477  23.072   7.651
 1221POPC   NC319571  34.956  40.329   9.307
 1221POPC   PO419572  34.390  39.920   9.526
 1221POPC   GL119573  34.368  40.103   9.121
 1221POPC   GL219574  34.059  40.296   9.100
 1221POPC   C1A19575  34.611  40.059   8.745
 1221POPC   D2A19576  34.821  39.809   8.442
 1221POPC   C3A19577  34.837  39.984   8.039
 1221POPC   C4A19578  34.520  39.765   7.840
 1221POPC   C1B19579  34.224  40.388   8.691
 1221POPC   C2B19580  34.442  40.308   8.299
 1221POPC   C3B19581  34.264  40.185   7.939
 1221POPC   C4B19582  34.144  40.187   7.501
 1222POPC   NC319583  29.277  22.389   9.420
 1222POPC   PO419584  29.595  21.886   9.684
 1222POPC   GL119585  29.344  21.931   9.235
 1222POPC   GL219586  29.038  21.779   9.317
 1222POPC   C1A19587  29.225  22.171   8.807
 1222POPC   D2A19588  29.088  22.414   8.418
 1222POPC   C3A19589  29.323  22.377   8.025
 1222POPC   C4A19590  29.425  22.130   7.731
 1222POPC   C1B19591  28.907  21.789   8.892
 1222POPC   C2B19592  28.885  21.924   8.460
 1222POPC   C3B19593  29.078  21.889   8.052
 1222POPC   C4B19594  29.111  21.651   7.688
 1223POPC   NC319595  37.145  44.314   9.626
 1223POPC   PO419596  36.849  43.667   9.767
 1223POPC   GL119597  36.858  43.681   9.318
 1223POPC   GL219598  36.534  43.845   9.284
 1223POPC   C1A19599  37.100  43.645   8.908
 1223POPC   D2A19600  37.153  43.975   8.601
 1223POPC   C3A19601  37.036  43.995   8.165
 1223POPC   C4A19602  37.180  43.798   7.798
 1223POPC   C1B19603  36.768  44.065   8.947
 1223POPC   C2B19604  36.707  44.227   8.509
 1223POPC   C3B19605  36.539  44.066   8.098
 1223POPC   C4B19606  36.694  43.981   7.722
 1224POPC   NC319607   5.316  19.538   9.508
 1224POPC   PO419608   4.989  18.870   9.430
 1224POPC   GL119609   5.106  18.859   9.055
 1224POPC   GL219610   5.430  18.960   9.102
 1224POPC   C1A19611   5.123  19.036   8.674
 1224POPC   D2A19612   4.889  19.188   8.353
 1224POPC   C3A19613   4.889  19.020   7.967
 1224POPC   C4A19614   4.820  19.330   7.662
 1224POPC   C1B19615   5.489  18.672   8.725
 1224POPC   C2B19616   5.302  18.723   8.281
 1224POPC   C3B19617   5.249  18.645   7.822
 1224POPC   C4B19618   5.118  18.935   7.490
 1225POPC   NC319619  40.056  20.433   9.499
 1225POPC   PO419620  40.357  21.030   9.538
 1225POPC   GL119621  40.115  20.841   9.162
 1225POPC   GL219622  40.297  20.534   9.081
 1225POPC   C1A19623  39.827  20.644   8.799
 1225POPC   D2A19624  39.805  20.353   8.418
 1225POPC   C3A19625  39.786  20.598   8.055
 1225POPC   C4A19626  39.560  20.649   7.670
 1225POPC   C1B19627  40.177  20.288   8.752
 1225POPC   C2B19628  40.345  20.265   8.337
 1225POPC   C3B19629  40.089  20.204   7.960
 1225POPC   C4B19630  40.050  20.532   7.624
 1226POPC   NC319631  10.994   4.151   9.303
 1226POPC   PO419632  10.427   4.582   9.502
 1226POPC   GL119633  10.533   4.342   9.157
 1226POPC   GL219634  10.795   4.496   8.984
 1226POPC   C1A19635  10.453   4.192   8.730
 1226POPC   D2A19636  10.520   4.158   8.291
 1226POPC   C3A19637  10.243   4.310   7.961
 1226POPC   C4A19638  10.354   4.420   7.515
 1226POPC   C1B19639  10.432   4.709   8.807
 1226POPC   C2B19640  10.318   4.637   8.392
 1226POPC   C3B19641  10.621   4.627   8.062
 1226POPC   C4B19642  10.608   4.811   7.697
 1227POPC   NC319643  27.252  36.025   9.776
 1227POPC   PO419644  27.722  36.441   9.560
 1227POPC   GL119645  27.581  36.358   9.174
 1227POPC   GL219646  27.268  36.147   9.248
 1227POPC   C1A19647  27.839  36.339   8.775
 1227POPC   D2A19648  27.752  36.512   8.352
 1227POPC   C3A19649  27.950  36.434   7.918
 1227POPC   C4A19650  27.882  36.159   7.589
 1227POPC   C1B19651  27.398  36.060   8.813
 1227POPC   C2B19652  27.629  36.010   8.441
 1227POPC   C3B19653  27.560  36.124   8.030
 1227POPC   C4B19654  27.225  36.012   7.809
 1228POPC   NC319655  37.904  33.757   9.395
 1228POPC   PO419656  37.288  33.498   9.601
 1228POPC   GL119657  37.465  33.930   9.268
 1228POPC   GL219658  37.291  34.164   9.064
 1228POPC   C1A19659  37.723  34.007   8.833
 1228POPC   D2A19660  38.052  33.827   8.569
 1228POPC   C3A19661  38.030  33.796   8.125
 1228POPC   C4A19662  37.767  33.618   7.801
 1228POPC   C1B19663  37.279  34.113   8.621
 1228POPC   C2B19664  37.655  34.208   8.362
 1228POPC   C3B19665  37.645  34.096   7.953
 1228POPC   C4B19666  37.744  34.040   7.546
 1229POPC   NC319667  25.442  17.203   9.588
 1229POPC   PO419668  24.944  17.629   9.478
 1229POPC   GL119669  25.324  17.588   9.223
 1229POPC   GL219670  25.403  17.229   9.075
 1229POPC   C1A19671  25.489  17.691   8.803
 1229POPC   D2A19672  25.354  17.499   8.406
 1229POPC   C3A19673  25.506  17.646   8.003
 1229POPC   C4A19674  25.528  17.895   7.638
 1229POPC   C1B19675  25.045  17.427   8.827
 1229POPC   C2B19676  24.792  17.514   8.462
 1229POPC   C3B19677  24.965  17.573   8.032
 1229POPC   C4B19678  25.146  17.529   7.638
 1230POPC   NC319679  36.906  15.648   9.724
 1230POPC   PO419680  36.522  16.098   9.615
 1230POPC   GL119681  36.722  16.097   9.211
 1230POPC   GL219682  36.625  15.802   9.054
 1230POPC   C1A19683  36.915  16.184   8.800
 1230POPC   D2A19684  37.062  15.992   8.405
 1230POPC   C3A19685  36.978  16.194   8.020
 1230POPC   C4A19686  36.704  16.194   7.698
 1230POPC   C1B19687  36.640  15.761   8.607
 1230POPC   C2B19688  36.773  15.583   8.207
 1230POPC   C3B19689  36.826  15.661   7.767
 1230POPC   C4B19690  36.983  15.361   7.460
 1231POPC   NC319691   3.955  33.767   9.430
 1231POPC   PO419692   4.277  33.329   9.311
 1231POPC   GL119693   4.215  33.651   8.998
 1231POPC   GL219694   4.397  33.957   9.049
 1231POPC   C1A19695   4.199  33.776   8.575
 1231POPC   D2A19696   4.025  34.082   8.307
 1231POPC   C3A19697   4.215  34.001   7.914
 1231POPC   C4A19698   4.423  34.243   7.612
 1231POPC   C1B19699   4.584  34.108   8.631
 1231POPC   C2B19700   4.662  34.035   8.171
 1231POPC   C3B19701   4.662  33.750   7.812
 1231POPC   C4B19702   4.417  33.368   7.726
 1232POPC   NC319703  30.421  39.847   9.329
 1232POPC   PO419704  29.863  40.249   9.434
 1232POPC   GL119705  29.938  39.943   9.133
 1232POPC   GL219706  29.634  39.770   9.097
 1232POPC   C1A19707  30.143  39.895   8.741
 1232POPC   D2A19708  30.055  40.091   8.378
 1232POPC   C3A19709  29.990  39.797   8.092
 1232POPC   C4A19710  30.253  39.650   7.810
 1232POPC   C1B19711  29.641  40.030   8.682
 1232POPC   C2B19712  29.578  40.054   8.203
 1232POPC   C3B19713  29.695  39.986   7.719
 1232POPC   C4B19714  29.713  40.139   7.251
 1233POPC   NC319715  26.561  32.015   9.893
 1233POPC   PO419716  26.158  31.998   9.344
 1233POPC   GL119717  26.016  32.386   9.075
 1233POPC   GL219718  26.180  32.733   9.155
 1233POPC   C1A19719  26.007  32.407   8.622
 1233POPC   D2A19720  26.176  32.077   8.364
 1233POPC   C3A19721  26.132  32.239   7.983
 1233POPC   C4A19722  25.998  32.105   7.629
 1233POPC   C1B19723  26.407  32.743   8.758
 1233POPC   C2B19724  26.450  32.561   8.331
 1233POPC   C3B19725  26.418  32.673   7.896
 1233POPC   C4B19726  26.341  32.445   7.512
 1234POPC   NC319727  16.334  44.506   9.489
 1234POPC   PO419728  15.601  44.649   9.559
 1234POPC   GL119729  15.801  44.746   9.179
 1234POPC   GL219730  15.963  44.465   9.093
 1234POPC   C1A19731  15.955  44.866   8.775
 1234POPC   D2A19732  15.833  44.922   8.352
 1234POPC   C3A19733  15.665  44.621   8.072
 1234POPC   C4A19734  16.018  44.654   7.836
 1234POPC   C1B19735  15.803  44.383   8.682
 1234POPC   C2B19736  16.032  44.360   8.292
 1234POPC   C3B19737  16.207  44.192   7.916
 1234POPC   C4B19738  16.132  44.318   7.486
 1235POPC   NC319739  33.255  19.856   9.296
 1235POPC   PO419740  32.704  19.701   9.722
 1235POPC   GL119741  32.766  19.773   9.229
 1235POPC   GL219742  32.773  19.466   9.052
 1235POPC   C1A19743  32.874  19.985   8.809
 1235POPC   D2A19744  33.181  20.256   8.563
 1235POPC   C3A19745  33.169  20.218   8.093
 1235POPC   C4A19746  33.375  20.081   7.673
 1235POPC   C1B19747  33.083  19.531   8.718
 1235POPC   C2B19748  33.027  19.795   8.358
 1235POPC   C3B19749  32.916  19.794   7.929
 1235POPC   C4B19750  32.980  19.775   7.485
 1236POPC   NC319751   4.505  15.292   9.568
 1236POPC   PO419752   3.976  15.588   9.335
 1236POPC   GL119753   4.271  15.333   9.118
 1236POPC   GL219754   4.280  14.941   9.232
 1236POPC   C1A19755   4.249  15.456   8.702
 1236POPC   D2A19756   4.053  15.236   8.375
 1236POPC   C3A19757   4.213  15.435   8.036
 1236POPC   C4A19758   4.156  15.644   7.680
 1236POPC   C1B19759   4.305  14.947   8.769
 1236POPC   C2B19760   4.513  14.907   8.366
 1236POPC   C3B19761   4.594  14.710   7.950
 1236POPC   C4B19762   4.508  15.102   7.768
 1237POPC   NC319763  35.410  41.004   9.503
 1237POPC   PO419764  35.308  40.283   9.691
 1237POPC   GL119765  35.379  40.581   9.244
 1237POPC   GL219766  35.679  40.767   9.150
 1237POPC   C1A19767  35.275  40.819   8.832
 1237POPC   D2A19768  35.142  40.725   8.402
 1237POPC   C3A19769  35.170  40.943   7.977
 1237POPC   C4A19770  35.293  40.674   7.631
 1237POPC   C1B19771  35.780  40.940   8.767
 1237POPC   C2B19772  35.593  40.956   8.381
 1237POPC   C3B19773  35.665  40.829   7.980
 1237POPC   C4B19774  35.611  41.127   7.676
 1238POPC   NC319775  19.848  11.772   9.495
 1238POPC   PO419776  19.894  12.435   9.553
 1238POPC   GL119777  20.015  12.163   9.183
 1238POPC   GL219778  20.057  11.823   9.028
 1238POPC   C1A19779  20.037  12.270   8.741
 1238POPC   D2A19780  19.731  12.249   8.394
 1238POPC   C3A19781  19.859  12.176   7.962
 1238POPC   C4A19782  20.237  12.336   7.753
 1238POPC   C1B19783  19.924  11.789   8.574
 1238POPC   C2B19784  19.957  11.678   8.132
 1238POPC   C3B19785  19.938  11.739   7.700
 1238POPC   C4B19786  19.916  11.626   7.262
 1239POPC   NC319787  40.413  44.007   9.814
 1239POPC   PO419788  40.782  43.565   9.456
 1239POPC   GL119789  40.872  43.953   9.200
 1239POPC   GL219790  40.557  44.183   9.114
 1239POPC   C1A19791  41.129  43.974   8.821
 1239POPC   D2A19792  41.254  43.845   8.402
 1239POPC   C3A19793  40.902  43.909   8.127
 1239POPC   C4A19794  40.942  44.013   7.696
 1239POPC   C1B19795  40.634  43.947   8.736
 1239POPC   C2B19796  40.551  43.608   8.490
 1239POPC   C3B19797  40.525  43.475   8.090
 1239POPC   C4B19798  40.547  43.695   7.719
 1240POPC   NC319799  23.151  11.707   9.492
 1240POPC   PO419800  23.033  12.377   9.557
 1240POPC   GL119801  22.941  12.056   9.175
 1240POPC   GL219802  23.208  11.870   9.005
 1240POPC   C1A19803  22.765  11.780   8.823
 1240POPC   D2A19804  23.012  11.766   8.458
 1240POPC   C3A19805  22.850  12.029   8.117
 1240POPC   C4A19806  22.651  11.799   7.782
 1240POPC   C1B19807  23.098  12.193   8.715
 1240POPC   C2B19808  23.284  12.210   8.318
 1240POPC   C3B19809  23.202  12.423   7.948
 1240POPC   C4B19810  22.947  12.233   7.634
 1241POPC   NC319811  44.620   4.099   9.552
 1241POPC   PO419812  44.849   4.721   9.929
 1241POPC   GL119813  44.549   4.602   9.469
 1241POPC   GL219814  44.632   4.336   9.120
 1241POPC   C1A19815  44.351   4.731   9.024
 1241POPC   D2A19816  44.362   4.747   8.532
 1241POPC   C3A19817  44.727   4.558   8.249
 1241POPC   C4A19818  44.908   4.556   7.810
 1241POPC   C1B19819  44.394   4.250   8.714
 1241POPC   C2B19820  44.287   4.271   8.274
 1241POPC   C3B19821  44.523   4.232   7.877
 1241POPC   C4B19822  44.606   3.935   7.530
 1242POPC   NC319823  11.245  15.439   9.581
 1242POPC   PO419824  11.352  14.841   9.251
 1242POPC   GL119825  11.328  15.221   9.132
 1242POPC   GL219826  11.116  15.121   8.900
 1242POPC   C1A19827  11.508  15.440   8.801
 1242POPC   D2A19828  11.458  15.250   8.428
 1242POPC   C3A19829  11.565  15.490   8.077
 1242POPC   C4A19830  11.557  15.341   7.641
 1242POPC   C1B19831  10.959  15.089   8.552
 1242POPC   C2B19832  11.146  14.874   8.285
 1242POPC   C3B19833  11.237  15.087   7.966
 1242POPC   C4B19834  11.268  14.917   7.580
 1243POPC   NC319835  15.973  11.528   9.555
 1243POPC   PO419836  16.104  10.844   9.534
 1243POPC   GL119837  15.974  11.143   9.215
 1243POPC   GL219838  16.310  11.246   9.286
 1243POPC   C1A19839  15.880  11.288   8.761
 1243POPC   D2A19840  15.644  11.196   8.333
 1243POPC   C3A19841  15.676  11.463   7.946
 1243POPC   C4A19842  15.888  11.517   7.542
 1243POPC   C1B19843  16.384  11.314   8.918
 1243POPC   C2B19844  16.387  11.282   8.529
 1243POPC   C3B19845  16.139  11.340   8.177
 1243POPC   C4B19846  16.344  11.485   7.839
 1244POPC   NC319847  39.121  30.416   9.455
 1244POPC   PO419848  39.035  31.112   9.426
 1244POPC   GL119849  39.284  30.813   9.184
 1244POPC   GL219850  39.615  30.882   9.124
 1244POPC   C1A19851  39.234  30.685   8.754
 1244POPC   D2A19852  39.026  30.794   8.351
 1244POPC   C3A19853  39.098  30.515   7.996
 1244POPC   C4A19854  39.103  30.597   7.579
 1244POPC   C1B19855  39.734  30.794   8.689
 1244POPC   C2B19856  39.533  30.702   8.284
 1244POPC   C3B19857  39.386  30.920   7.902
 1244POPC   C4B19858  39.533  30.937   7.473
 1245POPC   NC319859  13.729  38.714   9.309
 1245POPC   PO419860  13.375  38.238   9.514
 1245POPC   GL119861  13.193  38.243   9.134
 1245POPC   GL219862  13.198  38.599   9.068
 1245POPC   C1A19863  13.397  38.247   8.715
 1245POPC   D2A19864  13.616  38.410   8.340
 1245POPC   C3A19865  13.656  38.241   7.922
 1245POPC   C4A19866  13.535  38.356   7.500
 1245POPC   C1B19867  13.435  38.759   8.710
 1245POPC   C2B19868  13.306  38.825   8.284
 1245POPC   C3B19869  13.437  38.711   7.884
 1245POPC   C4B19870  13.464  38.873   7.482
 1246POPC   NC319871  39.778  34.375   9.540
 1246POPC   PO419872  40.286  34.813   9.417
 1246POPC   GL119873  39.979  34.643   9.152
 1246POPC   GL219874  39.986  34.262   9.091
 1246POPC   C1A19875  39.891  34.639   8.714
 1246POPC   D2A19876  39.883  34.435   8.303
 1246POPC   C3A19877  39.746  34.704   7.964
 1246POPC   C4A19878  39.664  34.585   7.556
 1246POPC   C1B19879  40.177  34.202   8.707
 1246POPC   C2B19880  40.387  34.474   8.425
 1246POPC   C3B19881  40.315  34.611   8.016
 1246POPC   C4B19882  40.119  34.419   7.690
 1247POPC   NC319883  12.797   7.703   9.561
 1247POPC   PO419884  13.269   7.187   9.569
 1247POPC   GL119885  12.965   7.144   9.177
 1247POPC   GL219886  12.706   7.434   9.123
 1247POPC   C1A19887  12.936   7.269   8.705
 1247POPC   D2A19888  12.740   7.555   8.370
 1247POPC   C3A19889  12.954   7.681   7.948
 1247POPC   C4A19890  12.986   7.429   7.517
 1247POPC   C1B19891  12.441   7.186   8.789
 1247POPC   C2B19892  12.466   7.101   8.326
 1247POPC   C3B19893  12.636   7.292   7.916
 1247POPC   C4B19894  12.500   7.308   7.437
 1248POPC   NC319895   1.744  42.102   9.312
 1248POPC   PO419896   1.586  41.444   9.556
 1248POPC   GL119897   1.830  41.584   9.199
 1248POPC   GL219898   2.041  41.291   9.142
 1248POPC   C1A19899   1.912  41.747   8.778
 1248POPC   D2A19900   1.725  41.885   8.387
 1248POPC   C3A19901   1.900  41.768   8.004
 1248POPC   C4A19902   2.259  41.783   7.743
 1248POPC   C1B19903   1.818  41.220   8.769
 1248POPC   C2B19904   1.786  41.385   8.370
 1248POPC   C3B19905   1.799  41.196   7.975
 1248POPC   C4B19906   1.905  41.416   7.633
 1249POPC   NC319907  39.862  18.764   9.566
 1249POPC   PO419908  40.306  19.204   9.775
 1249POPC   GL119909  40.089  19.171   9.363
 1249POPC   GL219910  40.329  19.322   9.207
 1249POPC   C1A19911  39.959  18.998   8.931
 1249POPC   D2A19912  40.112  19.018   8.477
 1249POPC   C3A19913  39.908  18.897   8.064
 1249POPC   C4A19914  39.712  19.185   7.762
 1249POPC   C1B19915  40.383  19.316   8.820
 1249POPC   C2B19916  40.381  19.450   8.428
 1249POPC   C3B19917  40.251  19.286   8.041
 1249POPC   C4B19918  40.195  19.362   7.601
 1250POPC   NC319919  33.802  40.301   9.538
 1250POPC   PO419920  33.529  39.660   9.543
 1250POPC   GL119921  33.738  39.838   9.212
 1250POPC   GL219922  33.556  40.119   9.112
 1250POPC   C1A19923  34.046  39.773   8.899
 1250POPC   D2A19924  34.172  39.912   8.494
 1250POPC   C3A19925  33.948  39.832   8.114
 1250POPC   C4A19926  34.013  39.735   7.702
 1250POPC   C1B19927  33.636  39.962   8.682
 1250POPC   C2B19928  33.485  39.923   8.292
 1250POPC   C3B19929  33.452  40.172   7.943
 1250POPC   C4B19930  33.652  40.105   7.567
 1251POPC   NC319931  43.976  18.653   9.804
 1251POPC   PO419932  43.922  19.299   9.554
 1251POPC   GL119933  44.086  19.086   9.172
 1251POPC   GL219934  44.036  18.716   9.177
 1251POPC   C1A19935  44.191  19.137   8.726
 1251POPC   D2A19936  44.103  19.395   8.332
 1251POPC   C3A19937  44.029  19.174   7.921
 1251POPC   C4A19938  43.837  18.781   7.698
 1251POPC   C1B19939  43.776  18.815   8.787
 1251POPC   C2B19940  43.785  18.939   8.356
 1251POPC   C3B19941  43.550  19.045   8.006
 1251POPC   C4B19942  43.379  19.058   7.582
 1252POPC   NC319943  33.428  22.382   9.455
 1252POPC   PO419944  34.039  21.920   9.475
 1252POPC   GL119945  33.863  22.230   9.186
 1252POPC   GL219946  33.512  22.183   9.012
 1252POPC   C1A19947  33.940  22.272   8.760
 1252POPC   D2A19948  33.722  22.273   8.392
 1252POPC   C3A19949  34.006  22.229   8.059
 1252POPC   C4A19950  34.196  21.949   7.799
 1252POPC   C1B19951  33.420  22.543   8.754
 1252POPC   C2B19952  33.480  22.734   8.325
 1252POPC   C3B19953  33.533  22.493   7.956
 1252POPC   C4B19954  33.722  22.267   7.621
 1253POPC   NC319955  43.567   9.756   9.435
 1253POPC   PO419956  44.254  10.046   9.454
 1253POPC   GL119957  44.218   9.667   9.140
 1253POPC   GL219958  43.882   9.477   9.133
 1253POPC   C1A19959  44.160   9.507   8.693
 1253POPC   D2A19960  44.053   9.807   8.368
 1253POPC   C3A19961  44.282   9.954   8.013
 1253POPC   C4A19962  44.037  10.217   7.730
 1253POPC   C1B19963  43.679   9.698   8.765
 1253POPC   C2B19964  43.636   9.529   8.327
 1253POPC   C3B19965  43.711   9.781   7.931
 1253POPC   C4B19966  43.614   9.580   7.513
 1254POPC   NC319967  33.221  16.231   9.437
 1254POPC   PO419968  32.665  15.871   9.476
 1254POPC   GL119969  32.909  15.941   9.144
 1254POPC   GL219970  33.222  15.773   9.168
 1254POPC   C1A19971  32.892  16.170   8.783
 1254POPC   D2A19972  32.705  16.079   8.403
 1254POPC   C3A19973  32.913  16.051   8.048
 1254POPC   C4A19974  32.848  15.927   7.627
 1254POPC   C1B19975  33.297  15.854   8.727
 1254POPC   C2B19976  33.351  15.898   8.283
 1254POPC   C3B19977  33.226  15.689   7.903
 1254POPC   C4B19978  33.439  15.544   7.514
 1255POPC   NC319979  41.167  21.319   9.383
 1255POPC   PO419980  41.716  21.738   9.568
 1255POPC   GL119981  41.591  21.546   9.164
 1255POPC   GL219982  41.601  21.156   9.153
 1255POPC   C1A19983  41.689  21.411   8.731
 1255POPC   D2A19984  41.663  21.124   8.380
 1255POPC   C3A19985  41.694  21.322   7.982
 1255POPC   C4A19986  41.725  21.319   7.542
 1255POPC   C1B19987  41.327  21.067   8.768
 1255POPC   C2B19988  41.283  20.774   8.391
 1255POPC   C3B19989  41.262  21.021   8.018
 1255POPC   C4B19990  41.237  21.316   7.670
 1256POPC   NC319991   7.830  29.289   9.384
 1256POPC   PO419992   8.334  29.284   9.765
 1256POPC   GL119993   8.303  29.376   9.257
 1256POPC   GL219994   8.320  29.076   9.147
 1256POPC   C1A19995   8.092  29.348   8.809
 1256POPC   D2A19996   8.038  29.059   8.469
 1256POPC   C3A19997   7.981  29.257   8.078
 1256POPC   C4A19998   8.103  29.089   7.688
 1256POPC   C1B19999   8.490  28.946   8.778
 1256POPC   C2B20000   8.640  28.876   8.389
 1256POPC   C3B20001   8.468  29.024   8.038
 1256POPC   C4B20002   8.557  28.818   7.627
 1257POPC   NC320003  18.797  33.342   9.542
 1257POPC   PO420004  19.255  32.897   9.630
 1257POPC   GL120005  19.349  32.916   9.175
 1257POPC   GL220006  19.560  33.199   9.216
 1257POPC   C1A20007  19.109  32.955   8.746
 1257POPC   D2A20008  18.956  33.079   8.309
 1257POPC   C3A20009  19.019  32.908   7.850
 1257POPC   C4A20010  18.881  32.944   7.386
 1257POPC   C1B20011  19.444  33.343   8.832
 1257POPC   C2B20012  19.461  33.179   8.410
 1257POPC   C3B20013  19.275  33.336   8.021
 1257POPC   C4B20014  19.236  33.302   7.587
 1258POPC   NC320015  26.494  27.501   9.592
 1258POPC   PO420016  27.057  27.781   9.674
 1258POPC   GL120017  26.781  27.743   9.252
 1258POPC   GL220018  26.730  27.364   9.156
 1258POPC   C1A20019  26.771  27.690   8.768
 1258POPC   D2A20020  26.648  27.481   8.360
 1258POPC   C3A20021  26.679  27.712   7.945
 1258POPC   C4A20022  27.025  27.940   7.830
 1258POPC   C1B20023  26.808  27.133   8.756
 1258POPC   C2B20024  26.602  26.969   8.396
 1258POPC   C3B20025  26.614  27.068   7.954
 1258POPC   C4B20026  26.794  27.310   7.591
 1259POPC   NC320027  37.274   4.659   9.457
 1259POPC   PO420028  37.882   4.857   9.651
 1259POPC   GL120029  37.720   4.514   9.294
 1259POPC   GL220030  37.483   4.662   8.998
 1259POPC   C1A20031  37.833   4.322   8.864
 1259POPC   D2A20032  38.020   4.434   8.449
 1259POPC   C3A20033  37.778   4.473   8.096
 1259POPC   C4A20034  38.035   4.355   7.781
 1259POPC   C1B20035  37.490   4.631   8.530
 1259POPC   C2B20036  37.278   4.408   8.196
 1259POPC   C3B20037  37.266   4.161   7.798
 1259POPC   C4B20038  37.475   4.047   7.374
 1260POPC   NC320039   9.234  44.014   9.565
 1260POPC   PO420040   8.592  44.120   9.429
 1260POPC   GL120041   8.946  43.936   9.153
 1260POPC   GL220042   9.305  43.744   9.123
 1260POPC   C1A20043   8.939  43.862   8.744
 1260POPC   D2A20044   8.969  43.673   8.382
 1260POPC   C3A20045   8.768  43.907   8.069
 1260POPC   C4A20046   8.744  43.947   7.631
 1260POPC   C1B20047   9.430  43.999   8.795
 1260POPC   C2B20048   9.264  44.082   8.368
 1260POPC   C3B20049   9.266  44.004   7.914
 1260POPC   C4B20050   9.570  44.208   7.661
 1261POPC   NC320051   4.089   8.045   9.447
 1261POPC   PO420052   4.726   8.260   9.516
 1261POPC   GL120053   4.478   8.171   9.133
 1261POPC   GL220054   4.683   7.914   9.020
 1261POPC   C1A20055   4.110   8.094   8.808
 1261POPC   D2A20056   3.935   8.285   8.447
 1261POPC   C3A20057   4.221   8.363   8.092
 1261POPC   C4A20058   4.257   8.098   7.718
 1261POPC   C1B20059   4.580   8.092   8.630
 1261POPC   C2B20060   4.396   7.903   8.271
 1261POPC   C3B20061   4.656   7.849   7.926
 1261POPC   C4B20062   4.609   7.764   7.504
 1262POPC   NC320063  10.807  42.218   9.552
 1262POPC   PO420064  10.392  42.750   9.609
 1262POPC   GL120065  10.309  42.485   9.262
 1262POPC   GL220066  10.427  42.118   9.207
 1262POPC   C1A20067  10.337  42.418   8.818
 1262POPC   D2A20068  10.598  42.334   8.468
 1262POPC   C3A20069  10.429  42.510   8.108
 1262POPC   C4A20070  10.706  42.759   7.848
 1262POPC   C1B20071  10.528  41.917   8.766
 1262POPC   C2B20072  10.594  41.865   8.283
 1262POPC   C3B20073  10.657  42.106   7.877
 1262POPC   C4B20074  10.391  42.383   7.616
 1263POPC   NC320075   0.173  18.507   9.564
 1263POPC   PO420076   0.545  17.917   9.369
 1263POPC   GL120077   0.503  18.179   9.007
 1263POPC   GL220078   0.201  18.294   9.102
 1263POPC   C1A20079   0.582  18.238   8.555
 1263POPC   D2A20080   0.489  17.975   8.215
 1263POPC   C3A20081   0.255  18.155   7.912
 1263POPC   C4A20082   0.526  18.093   7.631
 1263POPC   C1B20083   0.204  18.550   8.735
 1263POPC   C2B20084   0.364  18.690   8.319
 1263POPC   C3B20085   0.323  18.654   7.855
 1263POPC   C4B20086   0.178  18.425   7.452
 1264POPC   NC320087  22.614  12.105   9.546
 1264POPC   PO420088  22.369  12.703   9.465
 1264POPC   GL120089  22.521  12.379   9.111
 1264POPC   GL220090  22.390  12.020   9.082
 1264POPC   C1A20091  22.588  12.221   8.647
 1264POPC   D2A20092  22.458  11.839   8.370
 1264POPC   C3A20093  22.244  12.022   7.978
 1264POPC   C4A20094  22.080  12.452   7.827
 1264POPC   C1B20095  22.148  11.729   8.770
 1264POPC   C2B20096  21.930  11.554   8.381
 1264POPC   C3B20097  21.805  11.735   7.963
 1264POPC   C4B20098  21.916  12.016   7.562
 1265POPC   NC320099  28.969  41.370   9.519
 1265POPC   PO420100  29.315  41.845   9.260
 1265POPC   GL120101  29.014  41.829   9.020
 1265POPC   GL220102  28.709  41.666   9.153
 1265POPC   C1A20103  29.150  41.501   8.734
 1265POPC   D2A20104  29.428  41.439   8.414
 1265POPC   C3A20105  29.321  41.477   8.018
 1265POPC   C4A20106  29.496  41.352   7.645
 1265POPC   C1B20107  28.675  41.703   8.681
 1265POPC   C2B20108  28.903  41.644   8.296
 1265POPC   C3B20109  28.837  41.400   7.926
 1265POPC   C4B20110  28.850  41.682   7.614
 1266POPC   NC320111  41.767  25.619   9.494
 1266POPC   PO420112  41.609  26.248   9.573
 1266POPC   GL120113  41.606  26.027   9.174
 1266POPC   GL220114  41.418  25.687   9.113
 1266POPC   C1A20115  41.414  26.066   8.748
 1266POPC   D2A20116  41.322  25.899   8.339
 1266POPC   C3A20117  41.371  26.139   7.939
 1266POPC   C4A20118  41.664  26.239   7.601
 1266POPC   C1B20119  41.783  25.716   8.810
 1266POPC   C2B20120  41.842  25.917   8.401
 1266POPC   C3B20121  41.673  25.712   7.986
 1266POPC   C4B20122  41.401  25.597   7.640
 1267POPC   NC320123  13.363  21.714   9.375
 1267POPC   PO420124  13.979  21.999   9.655
 1267POPC   GL120125  13.724  22.139   9.272
 1267POPC   GL220126  13.565  22.490   9.242
 1267POPC   C1A20127  13.766  22.238   8.839
 1267POPC   D2A20128  13.840  22.056   8.437
 1267POPC   C3A20129  13.823  22.325   8.066
 1267POPC   C4A20130  13.661  22.220   7.647
 1267POPC   C1B20131  13.322  22.501   8.849
 1267POPC   C2B20132  13.388  22.320   8.451
 1267POPC   C3B20133  13.296  22.314   8.009
 1267POPC   C4B20134  13.173  22.263   7.583
 1268POPC   NC320135  14.138  35.476   9.478
 1268POPC   PO420136  14.689  35.255   9.750
 1268POPC   GL120137  14.592  35.255   9.279
 1268POPC   GL220138  14.577  35.546   9.117
 1268POPC   C1A20139  14.429  35.144   8.823
 1268POPC   D2A20140  14.538  35.279   8.361
 1268POPC   C3A20141  14.420  35.093   7.939
 1268POPC   C4A20142  14.523  35.061   7.483
 1268POPC   C1B20143  14.405  35.642   8.727
 1268POPC   C2B20144  14.341  35.767   8.318
 1268POPC   C3B20145  14.432  35.615   7.970
 1268POPC   C4B20146  14.231  35.489   7.640
 1269POPC   NC320147  27.716  29.167   9.568
 1269POPC   PO420148  27.143  29.264   9.268
 1269POPC   GL120149  27.461  29.071   9.041
 1269POPC   GL220150  27.790  28.986   9.109
 1269POPC   C1A20151  27.456  29.022   8.602
 1269POPC   D2A20152  27.196  28.936   8.287
 1269POPC   C3A20153  27.392  29.181   8.015
 1269POPC   C4A20154  27.300  29.341   7.615
 1269POPC   C1B20155  27.950  29.172   8.757
 1269POPC   C2B20156  27.958  28.998   8.354
 1269POPC   C3B20157  27.911  29.200   7.950
 1269POPC   C4B20158  27.819  29.224   7.495
 1270POPC   NC320159   6.681  22.015   9.532
 1270POPC   PO420160   7.241  21.830   9.163
 1270POPC   GL120161   6.858  22.053   9.058
 1270POPC   GL220162   6.467  22.050   9.082
 1270POPC   C1A20163   6.725  22.191   8.669
 1270POPC   D2A20164   6.635  21.962   8.326
 1270POPC   C3A20165   6.771  22.098   7.941
 1270POPC   C4A20166   6.677  22.248   7.539
 1270POPC   C1B20167   6.237  21.931   8.707
 1270POPC   C2B20168   6.148  22.110   8.300
 1270POPC   C3B20169   6.251  22.117   7.877
 1270POPC   C4B20170   6.303  21.896   7.515
 1271POPC   NC320171  38.730  25.311   9.491
 1271POPC   PO420172  38.295  24.882   9.645
 1271POPC   GL120173  38.500  24.941   9.205
 1271POPC   GL220174  38.471  25.297   9.048
 1271POPC   C1A20175  38.407  24.873   8.738
 1271POPC   D2A20176  38.164  25.135   8.456
 1271POPC   C3A20177  38.095  25.060   8.020
 1271POPC   C4A20178  38.300  25.299   7.709
 1271POPC   C1B20179  38.618  25.349   8.623
 1271POPC   C2B20180  38.571  25.294   8.155
 1271POPC   C3B20181  38.785  25.464   7.790
 1271POPC   C4B20182  38.939  25.481   7.366
 1272POPC   NC320183  35.164  20.071   9.350
 1272POPC   PO420184  35.485  19.504   9.313
 1272POPC   GL120185  35.334  19.683   9.015
 1272POPC   GL220186  34.998  19.662   9.072
 1272POPC   C1A20187  35.463  19.632   8.614
 1272POPC   D2A20188  35.625  19.876   8.301
 1272POPC   C3A20189  35.664  19.598   7.992
 1272POPC   C4A20190  35.566  19.684   7.571
 1272POPC   C1B20191  35.031  19.926   8.703
 1272POPC   C2B20192  35.201  20.161   8.365
 1272POPC   C3B20193  35.314  20.026   7.907
 1272POPC   C4B20194  35.203  20.039   7.454
 1273POPC   NC320195  28.126  44.418   9.397
 1273POPC   PO420196  28.620  44.883   9.552
 1273POPC   GL120197  28.397  44.789   9.186
 1273POPC   GL220198  28.026  44.880   9.181
 1273POPC   C1A20199  28.453  44.479   8.823
 1273POPC   D2A20200  28.729  44.436   8.467
 1273POPC   C3A20201  28.607  44.686   8.094
 1273POPC   C4A20202  28.625  44.970   7.750
 1273POPC   C1B20203  28.217  44.947   8.755
 1273POPC   C2B20204  28.166  44.727   8.389
 1273POPC   C3B20205  27.945  44.689   7.994
 1273POPC   C4B20206  28.002  44.406   7.666
 1274POPC   NC320207   3.459   8.708   9.401
 1274POPC   PO420208   3.196   9.105   9.784
 1274POPC   GL120209   3.509   9.187   9.354
 1274POPC   GL220210   3.832   9.005   9.220
 1274POPC   C1A20211   3.500   9.048   8.855
 1274POPC   D2A20212   3.703   9.170   8.481
 1274POPC   C3A20213   3.582   9.080   8.049
 1274POPC   C4A20214   3.214   9.260   7.823
 1274POPC   C1B20215   3.961   8.814   8.815
 1274POPC   C2B20216   3.983   8.772   8.345
 1274POPC   C3B20217   4.031   8.841   7.889
 1274POPC   C4B20218   3.871   8.791   7.444
 1275POPC   NC320219  20.111  44.913   9.393
 1275POPC   PO420220  19.655   0.443   9.509
 1275POPC   GL120221  19.690   0.602   9.090
 1275POPC   GL220222  19.384   0.790   9.024
 1275POPC   C1A20223  19.923   0.519   8.678
 1275POPC   D2A20224  19.741   0.347   8.275
 1275POPC   C3A20225  19.946   0.332   7.849
 1275POPC   C4A20226  19.756   0.115   7.472
 1275POPC   C1B20227  19.502   0.804   8.622
 1275POPC   C2B20228  19.348   0.699   8.244
 1275POPC   C3B20229  19.469   0.498   7.849
 1275POPC   C4B20230  19.710   0.625   7.512
 1276POPC   NC320231  19.986  26.478   9.498
 1276POPC   PO420232  19.517  26.851   9.653
 1276POPC   GL120233  19.675  26.887   9.251
 1276POPC   GL220234  20.024  26.979   9.264
 1276POPC   C1A20235  19.623  26.682   8.859
 1276POPC   D2A20236  19.512  26.775   8.443
 1276POPC   C3A20237  19.780  26.744   8.096
 1276POPC   C4A20238  19.888  26.924   7.701
 1276POPC   C1B20239  20.130  26.850   8.842
 1276POPC   C2B20240  20.115  26.967   8.416
 1276POPC   C3B20241  20.275  26.837   8.006
 1276POPC   C4B20242  20.444  26.771   7.596
 1277POPC   NC320243  12.178   7.026   9.392
 1277POPC   PO420244  12.315   7.621   9.602
 1277POPC   GL120245  12.202   7.506   9.211
 1277POPC   GL220246  11.867   7.378   9.197
 1277POPC   C1A20247  12.263   7.670   8.821
 1277POPC   D2A20248  12.142   7.471   8.456
 1277POPC   C3A20249  12.294   7.685   8.110
 1277POPC   C4A20250  12.182   7.514   7.766
 1277POPC   C1B20251  11.788   7.213   8.779
 1277POPC   C2B20252  11.744   6.996   8.383
 1277POPC   C3B20253  11.830   7.232   8.006
 1277POPC   C4B20254  11.494   7.512   7.876
 1278POPC   NC320255  41.479  42.662   9.693
 1278POPC   PO420256  41.814  42.135   9.532
 1278POPC   GL120257  41.565  42.238   9.199
 1278POPC   GL220258  41.606  42.577   9.164
 1278POPC   C1A20259  41.636  42.147   8.770
 1278POPC   D2A20260  41.323  42.127   8.481
 1278POPC   C3A20261  41.369  42.110   8.032
 1278POPC   C4A20262  41.241  42.399   7.759
 1278POPC   C1B20263  41.454  42.627   8.720
 1278POPC   C2B20264  41.381  42.585   8.258
 1278POPC   C3B20265  41.570  42.750   7.903
 1278POPC   C4B20266  41.859  42.674   7.597
 1279POPC   NC320267   8.415  11.405   9.492
 1279POPC   PO420268   7.803  11.893   9.352
 1279POPC   GL120269   7.891  11.611   8.965
 1279POPC   GL220270   8.210  11.471   9.045
 1279POPC   C1A20271   7.952  11.171   8.728
 1279POPC   D2A20272   8.024  10.986   8.292
 1279POPC   C3A20273   8.194  11.285   7.954
 1279POPC   C4A20274   7.989  11.495   7.558
 1279POPC   C1B20275   8.475  11.235   8.818
 1279POPC   C2B20276   8.480  11.211   8.412
 1279POPC   C3B20277   8.596  10.963   8.109
 1279POPC   C4B20278   8.587  11.069   7.710
 1280POPC   NC320279  26.353  37.993   9.473
 1280POPC   PO420280  26.135  37.333   9.560
 1280POPC   GL120281  26.175  37.563   9.190
 1280POPC   GL220282  25.916  37.830   9.172
 1280POPC   C1A20283  26.086  37.485   8.754
 1280POPC   D2A20284  25.966  37.713   8.376
 1280POPC   C3A20285  26.089  37.576   7.970
 1280POPC   C4A20286  26.049  37.580   7.541
 1280POPC   C1B20287  26.128  37.996   8.796
 1280POPC   C2B20288  26.367  38.042   8.394
 1280POPC   C3B20289  26.220  38.126   7.973
 1280POPC   C4B20290  26.345  38.029   7.552
 1281POPC   NC320291  32.408  19.477   9.432
 1281POPC   PO420292  32.379  20.093   9.218
 1281POPC   GL120293  32.363  20.011   8.847
 1281POPC   GL220294  32.323  19.652   8.936
 1281POPC   C1A20295  32.034  19.876   8.603
 1281POPC   D2A20296  32.100  19.560   8.323
 1281POPC   C3A20297  32.321  19.801   8.055
 1281POPC   C4A20298  32.078  20.046   7.810
 1281POPC   C1B20299  32.571  19.643   8.539
 1281POPC   C2B20300  32.613  19.401   8.139
 1281POPC   C3B20301  32.524  19.501   7.678
 1281POPC   C4B20302  32.598  19.552   7.246
 1282POPC   NC320303  20.957  17.862   9.666
 1282POPC   PO420304  20.599  17.363   9.666
 1282POPC   GL120305  20.558  17.488   9.221
 1282POPC   GL220306  20.789  17.768   9.182
 1282POPC   C1A20307  20.598  17.519   8.745
 1282POPC   D2A20308  20.701  17.548   8.280
 1282POPC   C3A20309  20.492  17.282   7.951
 1282POPC   C4A20310  20.446  17.287   7.475
 1282POPC   C1B20311  20.845  17.995   8.793
 1282POPC   C2B20312  20.763  18.075   8.342
 1282POPC   C3B20313  20.820  17.923   7.932
 1282POPC   C4B20314  20.513  17.727   7.702
 1283POPC   NC320315  25.051  42.973   9.571
 1283POPC   PO420316  25.541  43.302   9.810
 1283POPC   GL120317  25.432  43.187   9.330
 1283POPC   GL220318  25.472  42.854   9.174
 1283POPC   C1A20319  25.206  43.257   8.922
 1283POPC   D2A20320  25.303  43.118   8.489
 1283POPC   C3A20321  25.268  43.424   8.192
 1283POPC   C4A20322  25.235  43.219   7.797
 1283POPC   C1B20323  25.175  42.745   8.832
 1283POPC   C2B20324  25.092  42.635   8.400
 1283POPC   C3B20325  25.291  42.750   8.024
 1283POPC   C4B20326  25.053  42.750   7.646
 1284POPC   NC320327   1.809  19.813   9.585
 1284POPC   PO420328   1.593  20.434   9.392
 1284POPC   GL120329   1.735  20.152   9.088
 1284POPC   GL220330   2.025  19.911   9.137
 1284POPC   C1A20331   1.776  20.069   8.670
 1284POPC   D2A20332   2.050  19.975   8.359
 1284POPC   C3A20333   1.883  19.846   7.984
 1284POPC   C4A20334   2.011  20.074   7.632
 1284POPC   C1B20335   1.994  19.621   8.781
 1284POPC   C2B20336   1.970  19.451   8.356
 1284POPC   C3B20337   2.032  19.347   7.937
 1284POPC   C4B20338   2.005  19.580   7.514
 1285POPC   NC320339   0.349  44.214   9.324
 1285POPC   PO420340   0.369  43.582   9.571
 1285POPC   GL120341   0.533  43.699   9.179
 1285POPC   GL220342   0.203  43.813   9.079
 1285POPC   C1A20343   0.757  43.872   8.839
 1285POPC   D2A20344   0.542  43.995   8.450
 1285POPC   C3A20345   0.688  44.204   8.070
 1285POPC   C4A20346   0.489  44.302   7.668
 1285POPC   C1B20347   0.277  43.623   8.721
 1285POPC   C2B20348   0.100  43.767   8.344
 1285POPC   C3B20349   0.144  44.041   8.011
 1285POPC   C4B20350   0.294  43.843   7.682
 1286POPC   NC320351  14.601   7.365   9.485
 1286POPC   PO420352  13.939   7.283   9.655
 1286POPC   GL120353  14.093   7.039   9.169
 1286POPC   GL220354  14.387   7.194   9.080
 1286POPC   C1A20355  14.144   7.133   8.662
 1286POPC   D2A20356  14.488   7.261   8.388
 1286POPC   C3A20357  14.294   7.352   8.005
 1286POPC   C4A20358  14.369   7.182   7.620
 1286POPC   C1B20359  14.556   7.516   8.835
 1286POPC   C2B20360  14.548   7.767   8.509
 1286POPC   C3B20361  14.576   7.787   8.094
 1286POPC   C4B20362  14.716   7.531   7.790
 1287POPC   NC320363  40.920  22.435   9.289
 1287POPC   PO420364  40.921  21.788   9.395
 1287POPC   GL120365  40.595  22.066   9.109
 1287POPC   GL220366  40.465  22.387   9.076
 1287POPC   C1A20367  40.513  21.907   8.686
 1287POPC   D2A20368  40.640  21.690   8.284
 1287POPC   C3A20369  40.933  21.991   7.995
 1287POPC   C4A20370  41.056  21.926   7.525
 1287POPC   C1B20371  40.703  22.390   8.684
 1287POPC   C2B20372  40.769  22.569   8.313
 1287POPC   C3B20373  40.978  22.516   7.931
 1287POPC   C4B20374  40.943  22.437   7.502
 1288POPC   NC320375  24.910  44.692   9.458
 1288POPC   PO420376  25.496  44.313   9.483
 1288POPC   GL120377  25.383  44.561   9.111
 1288POPC   GL220378  25.023  44.562   8.976
 1288POPC   C1A20379  25.399  44.725   8.693
 1288POPC   D2A20380  25.129  44.641   8.357
 1288POPC   C3A20381  25.408  44.530   8.004
 1288POPC   C4A20382  25.511  44.821   7.659
 1288POPC   C1B20383  25.011   0.045   8.840
 1288POPC   C2B20384  24.898   0.370   8.524
 1288POPC   C3B20385  24.797   0.068   8.206
 1288POPC   C4B20386  25.096  44.917   7.917
 1289POPC   NC320387  22.356  30.563   9.515
 1289POPC   PO420388  21.701  30.486   9.370
 1289POPC   GL120389  22.021  30.709   9.153
 1289POPC   GL220390  21.788  30.948   9.134
 1289POPC   C1A20391  22.323  30.732   8.796
 1289POPC   D2A20392  22.464  30.464   8.450
 1289POPC   C3A20393  22.498  30.675   8.056
 1289POPC   C4A20394  22.304  30.762   7.666
 1289POPC   C1B20395  21.817  30.653   8.707
 1289POPC   C2B20396  21.984  30.704   8.276
 1289POPC   C3B20397  21.808  30.767   7.842
 1289POPC   C4B20398  21.716  30.440   7.522
 1290POPC   NC320399  17.712  22.066   9.283
 1290POPC   PO420400  17.201  22.165   9.691
 1290POPC   GL120401  17.225  22.181   9.196
 1290POPC   GL220402  17.117  21.938   9.129
 1290POPC   C1A20403  17.444  21.959   8.737
 1290POPC   D2A20404  17.670  21.912   8.336
 1290POPC   C3A20405  17.669  22.264   8.068
 1290POPC   C4A20406  17.388  22.454   7.831
 1290POPC   C1B20407  16.987  22.151   8.725
 1290POPC   C2B20408  17.214  22.203   8.323
 1290POPC   C3B20409  17.273  21.941   7.965
 1290POPC   C4B20410  17.118  22.096   7.587
 1291POPC   NC320411  16.014  26.498   9.309
 1291POPC   PO420412  15.551  26.780   9.714
 1291POPC   GL120413  15.765  26.915   9.178
 1291POPC   GL220414  16.120  26.849   8.982
 1291POPC   C1A20415  15.745  26.685   8.717
 1291POPC   D2A20416  15.965  26.585   8.356
 1291POPC   C3A20417  15.751  26.606   7.968
 1291POPC   C4A20418  16.033  26.741   7.678
 1291POPC   C1B20419  16.342  27.036   8.678
 1291POPC   C2B20420  16.244  27.203   8.276
 1291POPC   C3B20421  16.333  27.149   7.846
 1291POPC   C4B20422  16.380  26.956   7.412
 1292POPC   NC320423  35.713  18.463   9.553
 1292POPC   PO420424  35.305  18.017   9.515
 1292POPC   GL120425  35.467  18.142   9.110
 1292POPC   GL220426  35.554  18.513   9.083
 1292POPC   C1A20427  35.468  18.222   8.658
 1292POPC   D2A20428  35.611  17.960   8.326
 1292POPC   C3A20429  35.296  18.101   8.098
 1292POPC   C4A20430  35.105  18.210   7.712
 1292POPC   C1B20431  35.380  18.713   8.750
 1292POPC   C2B20432  35.514  18.699   8.338
 1292POPC   C3B20433  35.346  18.577   7.978
 1292POPC   C4B20434  35.519  18.503   7.583
 1293POPC   NC320435  13.630   7.220   9.291
 1293POPC   PO420436  13.570   6.523   9.503
 1293POPC   GL120437  13.702   6.677   9.157
 1293POPC   GL220438  13.992   6.466   9.195
 1293POPC   C1A20439  13.505   6.803   8.771
 1293POPC   D2A20440  13.446   6.929   8.350
 1293POPC   C3A20441  13.318   6.686   7.984
 1293POPC   C4A20442  13.691   6.779   7.737
 1293POPC   C1B20443  14.075   6.659   8.813
 1293POPC   C2B20444  13.883   6.654   8.433
 1293POPC   C3B20445  13.829   6.425   8.075
 1293POPC   C4B20446  14.181   6.555   7.883
 1294POPC   NC320447  43.836  12.277  10.002
 1294POPC   PO420448  43.726  11.795   9.597
 1294POPC   GL120449  43.862  11.763   9.122
 1294POPC   GL220450  44.221  11.785   9.180
 1294POPC   C1A20451  43.810  11.873   8.639
 1294POPC   D2A20452  43.797  12.208   8.301
 1294POPC   C3A20453  43.692  12.125   7.853
 1294POPC   C4A20454  43.514  12.191   7.408
 1294POPC   C1B20455  44.214  12.108   8.888
 1294POPC   C2B20456  44.272  12.109   8.457
 1294POPC   C3B20457  44.241  12.172   8.035
 1294POPC   C4B20458  44.277  12.075   7.630
 1295POPC   NC320459  39.252  27.894   9.536
 1295POPC   PO420460  39.781  27.565   9.650
 1295POPC   GL120461  39.486  27.654   9.166
 1295POPC   GL220462  39.116  27.610   9.103
 1295POPC   C1A20463  39.399  27.836   8.741
 1295POPC   D2A20464  39.093  27.837   8.390
 1295POPC   C3A20465  39.337  28.001   8.025
 1295POPC   C4A20466  39.379  27.931   7.582
 1295POPC   C1B20467  39.166  27.380   8.704
 1295POPC   C2B20468  39.347  27.365   8.289
 1295POPC   C3B20469  39.342  27.461   7.843
 1295POPC   C4B20470  39.371  27.151   7.525
 1296POPC   NC320471  26.953  21.542   9.316
 1296POPC   PO420472  27.101  20.938   9.594
 1296POPC   GL120473  26.919  21.080   9.170
 1296POPC   GL220474  26.600  21.060   9.119
 1296POPC   C1A20475  27.094  21.246   8.737
 1296POPC   D2A20476  27.158  21.095   8.312
 1296POPC   C3A20477  26.898  21.275   7.986
 1296POPC   C4A20478  27.080  21.370   7.588
 1296POPC   C1B20479  26.591  21.280   8.705
 1296POPC   C2B20480  26.454  21.391   8.264
 1296POPC   C3B20481  26.461  21.612   7.850
 1296POPC   C4B20482  26.668  21.628   7.456
 1297POPC   NC320483  25.991  12.784   9.543
 1297POPC   PO420484  25.889  13.451   9.482
 1297POPC   GL120485  25.961  13.147   9.149
 1297POPC   GL220486  26.310  13.121   9.243
 1297POPC   C1A20487  25.977  12.872   8.754
 1297POPC   D2A20488  25.799  12.784   8.317
 1297POPC   C3A20489  26.083  12.751   7.994
 1297POPC   C4A20490  26.055  12.940   7.607
 1297POPC   C1B20491  26.405  13.153   8.792
 1297POPC   C2B20492  26.283  13.067   8.337
 1297POPC   C3B20493  26.469  13.081   7.871
 1297POPC   C4B20494  26.490  13.074   7.381
 1298POPC   NC320495   6.097   6.543   9.458
 1298POPC   PO420496   5.588   6.966   9.447
 1298POPC   GL120497   5.846   6.871   9.099
 1298POPC   GL220498   5.892   6.526   9.020
 1298POPC   C1A20499   5.686   6.822   8.691
 1298POPC   D2A20500   5.736   6.590   8.353
 1298POPC   C3A20501   5.688   6.768   8.007
 1298POPC   C4A20502   5.737   6.598   7.631
 1298POPC   C1B20503   6.048   6.378   8.684
 1298POPC   C2B20504   6.249   6.457   8.328
 1298POPC   C3B20505   6.100   6.448   7.940
 1298POPC   C4B20506   6.148   6.338   7.505
 1299POPC   NC320507  16.768   4.206   9.510
 1299POPC   PO420508  16.331   4.722   9.562
 1299POPC   GL120509  16.546   4.507   9.152
 1299POPC   GL220510  16.464   4.114   9.099
 1299POPC   C1A20511  16.923   4.520   8.839
 1299POPC   D2A20512  17.102   4.445   8.397
 1299POPC   C3A20513  16.744   4.511   8.066
 1299POPC   C4A20514  16.738   4.723   7.657
 1299POPC   C1B20515  16.546   4.193   8.661
 1299POPC   C2B20516  16.790   4.037   8.315
 1299POPC   C3B20517  16.783   4.051   7.875
 1299POPC   C4B20518  16.466   4.294   7.680
 1300POPC   NC320519  43.029  41.966   9.421
 1300POPC   PO420520  43.278  42.556   9.604
 1300POPC   GL120521  43.193  42.391   9.169
 1300POPC   GL220522  43.485  42.181   9.169
 1300POPC   C1A20523  42.990  42.142   8.788
 1300POPC   D2A20524  42.747  42.058   8.379
 1300POPC   C3A20525  42.955  41.902   7.986
 1300POPC   C4A20526  42.988  42.026   7.534
 1300POPC   C1B20527  43.454  42.334   8.696
 1300POPC   C2B20528  43.297  42.259   8.246
 1300POPC   C3B20529  43.289  42.353   7.777
 1300POPC   C4B20530  43.444  42.714   7.481
 1301POPC   NC320531  33.220  40.011   9.485
 1301POPC   PO420532  32.565  39.888   9.406
 1301POPC   GL120533  32.753  40.083   9.063
 1301POPC   GL220534  33.070  39.917   9.013
 1301POPC   C1A20535  32.749  39.984   8.617
 1301POPC   D2A20536  32.985  39.982   8.246
 1301POPC   C3A20537  32.861  39.671   7.962
 1301POPC   C4A20538  32.818  39.665   7.490
 1301POPC   C1B20539  33.199  40.240   8.762
 1301POPC   C2B20540  33.314  40.406   8.382
 1301POPC   C3B20541  33.031  40.448   8.025
 1301POPC   C4B20542  32.903  40.124   7.711
 1302POPC   NC320543  13.397  26.095   9.485
 1302POPC   PO420544  14.025  26.477   9.477
 1302POPC   GL120545  13.784  26.172   9.181
 1302POPC   GL220546  13.425  26.296   9.022
 1302POPC   C1A20547  13.588  25.878   8.835
 1302POPC   D2A20548  13.473  26.103   8.443
 1302POPC   C3A20549  13.464  25.983   8.004
 1302POPC   C4A20550  13.462  26.096   7.552
 1302POPC   C1B20551  13.797  26.383   8.734
 1302POPC   C2B20552  13.932  26.531   8.320
 1302POPC   C3B20553  13.803  26.361   7.911
 1302POPC   C4B20554  13.993  26.144   7.536
 1303POPC   NC320555  17.819  18.767   9.416
 1303POPC   PO420556  18.022  19.369   9.517
 1303POPC   GL120557  18.147  19.367   9.109
 1303POPC   GL220558  18.081  19.036   9.055
 1303POPC   C1A20559  18.365  19.421   8.730
 1303POPC   D2A20560  18.295  19.533   8.341
 1303POPC   C3A20561  18.075  19.191   8.140
 1303POPC   C4A20562  18.086  19.134   7.729
 1303POPC   C1B20563  18.401  18.917   8.750
 1303POPC   C2B20564  18.535  19.076   8.331
 1303POPC   C3B20565  18.531  18.914   7.908
 1303POPC   C4B20566  18.410  18.703   7.531
 1304POPC   NC320567  26.274  40.881   9.559
 1304POPC   PO420568  25.603  40.880   9.658
 1304POPC   GL120569  25.770  41.007   9.248
 1304POPC   GL220570  25.981  40.721   9.180
 1304POPC   C1A20571  25.839  41.034   8.771
 1304POPC   D2A20572  25.967  40.814   8.395
 1304POPC   C3A20573  25.876  41.021   8.026
 1304POPC   C4A20574  26.086  40.856   7.683
 1304POPC   C1B20575  25.906  40.512   8.805
 1304POPC   C2B20576  26.114  40.308   8.438
 1304POPC   C3B20577  26.105  40.452   8.004
 1304POPC   C4B20578  25.911  40.367   7.582
 1305POPC   NC320579  39.902  22.396   9.641
 1305POPC   PO420580  40.165  21.855   9.250
 1305POPC   GL120581  40.027  22.100   8.934
 1305POPC   GL220582  39.966  22.375   9.141
 1305POPC   C1A20583  40.168  22.251   8.529
 1305POPC   D2A20584  40.480  22.160   8.225
 1305POPC   C3A20585  40.244  21.974   7.909
 1305POPC   C4A20586  39.840  22.033   7.786
 1305POPC   C1B20587  39.949  22.623   8.794
 1305POPC   C2B20588  39.693  22.478   8.491
 1305POPC   C3B20589  39.643  22.434   8.056
 1305POPC   C4B20590  39.818  22.591   7.680
 1306POPC   NC320591  12.247  37.103   9.345
 1306POPC   PO420592  11.756  36.666   9.594
 1306POPC   GL120593  11.931  36.729   9.196
 1306POPC   GL220594  11.727  37.014   9.166
 1306POPC   C1A20595  12.178  36.634   8.790
 1306POPC   D2A20596  12.424  36.861   8.455
 1306POPC   C3A20597  12.243  37.002   8.062
 1306POPC   C4A20598  12.211  36.739   7.692
 1306POPC   C1B20599  11.838  37.018   8.731
 1306POPC   C2B20600  11.871  36.769   8.355
 1306POPC   C3B20601  11.762  36.879   7.914
 1306POPC   C4B20602  11.923  37.239   7.684
 1307POPC   NC320603  25.808  34.728   9.780
 1307POPC   PO420604  25.750  35.413   9.543
 1307POPC   GL120605  25.834  35.421   9.078
 1307POPC   GL220606  26.170  35.388   8.999
 1307POPC   C1A20607  25.845  35.394   8.625
 1307POPC   D2A20608  25.603  35.523   8.316
 1307POPC   C3A20609  25.745  35.396   7.939
 1307POPC   C4A20610  26.048  35.526   7.669
 1307POPC   C1B20611  26.254  35.083   8.674
 1307POPC   C2B20612  26.105  35.142   8.225
 1307POPC   C3B20613  26.105  35.035   7.768
 1307POPC   C4B20614  26.239  35.136   7.340
 1308POPC   NC320615  40.169  28.216   9.355
 1308POPC   PO420616  39.827  28.840   9.540
 1308POPC   GL120617  39.770  28.575   9.212
 1308POPC   GL220618  40.083  28.622   9.049
 1308POPC   C1A20619  39.618  28.534   8.806
 1308POPC   D2A20620  39.705  28.697   8.397
 1308POPC   C3A20621  39.773  28.369   8.108
 1308POPC   C4A20622  39.956  28.295   7.718
 1308POPC   C1B20623  40.185  28.575   8.592
 1308POPC   C2B20624  40.480  28.410   8.250
 1308POPC   C3B20625  40.411  28.165   7.846
 1308POPC   C4B20626  40.268  28.127   7.356
 1309POPC   NC320627  12.489  41.309   9.341
 1309POPC   PO420628  13.207  41.209   9.357
 1309POPC   GL120629  12.932  41.492   9.170
 1309POPC   GL220630  12.780  41.316   8.938
 1309POPC   C1A20631  13.014  41.745   8.825
 1309POPC   D2A20632  12.852  41.504   8.469
 1309POPC   C3A20633  12.788  41.641   8.081
 1309POPC   C4A20634  13.150  41.677   7.848
 1309POPC   C1B20635  12.453  41.252   8.661
 1309POPC   C2B20636  12.469  41.213   8.228
 1309POPC   C3B20637  12.393  41.394   7.853
 1309POPC   C4B20638  12.760  41.417   7.606
 1310POPC   NC320639  28.235  16.580   9.432
 1310POPC   PO420640  28.560  17.208   9.517
 1310POPC   GL120641  28.398  17.011   9.149
 1310POPC   GL220642  28.629  16.769   9.074
 1310POPC   C1A20643  28.138  16.861   8.784
 1310POPC   D2A20644  27.952  17.003   8.374
 1310POPC   C3A20645  28.086  16.811   7.951
 1310POPC   C4A20646  28.336  16.692   7.560
 1310POPC   C1B20647  28.626  16.956   8.656
 1310POPC   C2B20648  28.493  17.113   8.241
 1310POPC   C3B20649  28.651  17.016   7.812
 1310POPC   C4B20650  28.720  16.943   7.327
 1311POPC   NC320651   7.397   2.636   9.477
 1311POPC   PO420652   7.610   3.246   9.524
 1311POPC   GL120653   7.670   3.074   9.090
 1311POPC   GL220654   7.667   2.754   9.029
 1311POPC   C1A20655   7.807   3.059   8.621
 1311POPC   D2A20656   7.739   3.170   8.139
 1311POPC   C3A20657   7.411   2.914   7.862
 1311POPC   C4A20658   7.010   2.689   7.769
 1311POPC   C1B20659   7.544   2.581   8.659
 1311POPC   C2B20660   7.399   2.578   8.237
 1311POPC   C3B20661   7.574   2.360   7.876
 1311POPC   C4B20662   7.616   2.559   7.472
 1312POPC   NC320663  26.917  25.080   9.532
 1312POPC   PO420664  26.736  25.672   9.569
 1312POPC   GL120665  26.700  25.392   9.181
 1312POPC   GL220666  26.606  24.992   9.135
 1312POPC   C1A20667  26.893  25.537   8.803
 1312POPC   D2A20668  27.029  25.675   8.399
 1312POPC   C3A20669  26.788  25.485   8.073
 1312POPC   C4A20670  27.042  25.510   7.732
 1312POPC   C1B20671  26.862  24.923   8.800
 1312POPC   C2B20672  26.986  25.169   8.460
 1312POPC   C3B20673  27.098  25.084   8.054
 1312POPC   C4B20674  26.952  24.998   7.652
 1313POPC   NC320675  15.849  27.120   9.634
 1313POPC   PO420676  16.046  27.765   9.525
 1313POPC   GL120677  16.013  27.656   9.126
 1313POPC   GL220678  16.098  27.326   9.155
 1313POPC   C1A20679  15.809  27.736   8.740
 1313POPC   D2A20680  15.916  27.591   8.356
 1313POPC   C3A20681  15.887  27.836   8.004
 1313POPC   C4A20682  15.889  27.580   7.675
 1313POPC   C1B20683  15.872  27.224   8.751
 1313POPC   C2B20684  15.693  27.106   8.352
 1313POPC   C3B20685  15.822  27.137   7.920
 1313POPC   C4B20686  15.891  27.161   7.428
 1314POPC   NC320687  13.567  10.587   9.520
 1314POPC   PO420688  14.233  10.777   9.485
 1314POPC   GL120689  13.926  10.548   9.148
 1314POPC   GL220690  13.551  10.355   9.095
 1314POPC   C1A20691  13.939  10.249   8.816
 1314POPC   D2A20692  13.726  10.155   8.463
 1314POPC   C3A20693  13.744  10.466   8.150
 1314POPC   C4A20694  13.953  10.467   7.796
 1314POPC   C1B20695  13.285  10.247   8.768
 1314POPC   C2B20696  13.273  10.350   8.321
 1314POPC   C3B20697  13.349  10.119   7.943
 1314POPC   C4B20698  13.510  10.085   7.495
 1315POPC   NC320699  18.224  26.587   9.553
 1315POPC   PO420700  18.866  26.383   9.567
 1315POPC   GL120701  18.561  26.490   9.164
 1315POPC   GL220702  18.193  26.628   9.050
 1315POPC   C1A20703  18.611  26.693   8.746
 1315POPC   D2A20704  18.542  26.520   8.355
 1315POPC   C3A20705  18.261  26.715   8.082
 1315POPC   C4A20706  18.343  26.890   7.695
 1315POPC   C1B20707  18.081  26.716   8.611
 1315POPC   C2B20708  17.815  26.545   8.272
 1315POPC   C3B20709  17.915  26.406   7.821
 1315POPC   C4B20710  17.957  26.702   7.415
 1316POPC   NC320711  26.026   2.466   9.520
 1316POPC   PO420712  25.622   2.997   9.662
 1316POPC   GL120713  25.724   2.991   9.157
 1316POPC   GL220714  26.008   2.770   9.121
 1316POPC   C1A20715  25.697   2.754   8.734
 1316POPC   D2A20716  25.689   2.583   8.333
 1316POPC   C3A20717  25.799   2.831   7.974
 1316POPC   C4A20718  26.058   2.865   7.581
 1316POPC   C1B20719  26.246   2.653   8.796
 1316POPC   C2B20720  26.240   2.510   8.407
 1316POPC   C3B20721  26.228   2.595   8.025
 1316POPC   C4B20722  26.193   2.389   7.664
 1317POPC   NC320723  22.781  11.155   9.690
 1317POPC   PO420724  23.468  11.351   9.568
 1317POPC   GL120725  23.353  11.390   9.139
 1317POPC   GL220726  22.973  11.401   9.117
 1317POPC   C1A20727  23.372  11.444   8.701
 1317POPC   D2A20728  23.246  11.250   8.323
 1317POPC   C3A20729  22.947  11.451   8.072
 1317POPC   C4A20730  22.970  11.398   7.659
 1317POPC   C1B20731  22.963  11.114   8.752
 1317POPC   C2B20732  22.772  11.048   8.352
 1317POPC   C3B20733  22.622  11.082   7.930
 1317POPC   C4B20734  22.287  11.107   7.664
 1318POPC   NC320735  19.592  27.308   9.635
 1318POPC   PO420736  20.063  27.674   9.501
 1318POPC   GL120737  19.898  27.668   9.080
 1318POPC   GL220738  19.698  27.397   9.135
 1318POPC   C1A20739  19.761  27.679   8.637
 1318POPC   D2A20740  19.974  27.449   8.323
 1318POPC   C3A20741  19.844  27.407   7.916
 1318POPC   C4A20742  19.789  27.714   7.611
 1318POPC   C1B20743  19.712  27.181   8.749
 1318POPC   C2B20744  19.483  27.282   8.378
 1318POPC   C3B20745  19.425  27.085   8.002
 1318POPC   C4B20746  19.462  27.264   7.579
 1319POPC   NC320747  26.685  39.213   9.291
 1319POPC   PO420748  26.099  39.216   9.674
 1319POPC   GL120749  26.168  39.296   9.229
 1319POPC   GL220750  26.295  38.997   9.070
 1319POPC   C1A20751  26.258  39.485   8.813
 1319POPC   D2A20752  26.059  39.374   8.418
 1319POPC   C3A20753  26.093  39.510   7.978
 1319POPC   C4A20754  25.927  39.367   7.549
 1319POPC   C1B20755  26.089  38.914   8.685
 1319POPC   C2B20756  25.745  38.907   8.406
 1319POPC   C3B20757  25.815  39.079   8.010
 1319POPC   C4B20758  26.158  38.977   7.732
 1320POPC   NC320759  44.145  14.694   9.875
 1320POPC   PO420760  43.802  15.090   9.407
 1320POPC   GL120761  44.048  14.702   9.188
 1320POPC   GL220762  44.045  14.296   9.185
 1320POPC   C1A20763  44.063  14.572   8.729
 1320POPC   D2A20764  43.963  14.184   8.460
 1320POPC   C3A20765  43.763  14.288   8.109
 1320POPC   C4A20766  43.897  14.670   7.875
 1320POPC   C1B20767  44.322  14.166   8.819
 1320POPC   C2B20768  44.435  14.341   8.375
 1320POPC   C3B20769  44.224  14.073   7.994
 1320POPC   C4B20770  43.921  14.188   7.651
 1321POPC   NC320771   4.467  11.683   9.483
 1321POPC   PO420772   4.204  11.006   9.565
 1321POPC   GL120773   4.330  11.135   9.191
 1321POPC   GL220774   4.697  11.123   9.259
 1321POPC   C1A20775   4.383  11.408   8.838
 1321POPC   D2A20776   4.281  11.711   8.505
 1321POPC   C3A20777   4.458  11.604   8.095
 1321POPC   C4A20778   4.230  11.387   7.785
 1321POPC   C1B20779   4.660  10.932   8.845
 1321POPC   C2B20780   4.516  11.077   8.438
 1321POPC   C3B20781   4.249  10.985   8.088
 1321POPC   C4B20782   4.303  10.856   7.661
 1322POPC   NC320783   7.121  41.600   9.438
 1322POPC   PO420784   7.588  41.303   9.486
 1322POPC   GL120785   7.520  41.531   9.090
 1322POPC   GL220786   7.182  41.528   8.934
 1322POPC   C1A20787   7.581  41.750   8.693
 1322POPC   D2A20788   7.438  41.676   8.265
 1322POPC   C3A20789   7.702  41.596   7.898
 1322POPC   C4A20790   7.793  41.737   7.444
 1322POPC   C1B20791   7.430  41.260   8.635
 1322POPC   C2B20792   7.385  41.161   8.189
 1322POPC   C3B20793   7.167  41.438   7.886
 1322POPC   C4B20794   7.011  41.525   7.451
 1323POPC   NC320795  30.937  30.893   9.574
 1323POPC   PO420796  30.372  30.645   9.310
 1323POPC   GL120797  30.758  30.704   9.122
 1323POPC   GL220798  30.940  30.393   9.207
 1323POPC   C1A20799  30.732  30.885   8.722
 1323POPC   D2A20800  30.470  30.714   8.391
 1323POPC   C3A20801  30.600  30.875   7.989
 1323POPC   C4A20802  30.339  30.672   7.725
 1323POPC   C1B20803  31.050  30.431   8.762
 1323POPC   C2B20804  30.961  30.580   8.333
 1323POPC   C3B20805  30.981  30.524   7.887
 1323POPC   C4B20806  31.066  30.828   7.561
 1324POPC   NC320807  20.393  30.655   9.658
 1324POPC   PO420808  20.827  30.257   9.741
 1324POPC   GL120809  20.613  30.366   9.281
 1324POPC   GL220810  20.316  30.665   9.169
 1324POPC   C1A20811  20.543  30.408   8.817
 1324POPC   D2A20812  20.661  30.617   8.429
 1324POPC   C3A20813  20.938  30.478   8.127
 1324POPC   C4A20814  20.868  30.328   7.714
 1324POPC   C1B20815  20.420  30.932   8.771
 1324POPC   C2B20816  20.642  31.115   8.373
 1324POPC   C3B20817  20.653  30.887   7.955
 1324POPC   C4B20818  20.486  31.002   7.550
 1325POPC   NC320819  40.310  24.492   9.456
 1325POPC   PO420820  39.664  24.289   9.453
 1325POPC   GL120821  39.910  24.418   9.138
 1325POPC   GL220822  39.749  24.740   9.138
 1325POPC   C1A20823  40.209  24.370   8.808
 1325POPC   D2A20824  40.071  24.279   8.413
 1325POPC   C3A20825  40.328  24.305   8.038
 1325POPC   C4A20826  40.311  24.527   7.623
 1325POPC   C1B20827  39.882  24.741   8.713
 1325POPC   C2B20828  39.774  24.861   8.297
 1325POPC   C3B20829  39.934  24.641   7.966
 1325POPC   C4B20830  39.695  24.475   7.634
 1326POPC   NC320831   2.615   7.248   9.276
 1326POPC   PO420832   2.883   6.762   9.655
 1326POPC   GL120833   2.897   6.726   9.192
 1326POPC   GL220834   2.560   6.785   9.042
 1326POPC   C1A20835   2.938   6.505   8.767
 1326POPC   D2A20836   2.781   6.296   8.411
 1326POPC   C3A20837   2.855   6.455   8.036
 1326POPC   C4A20838   2.496   6.502   7.820
 1326POPC   C1B20839   2.878   7.000   8.735
 1326POPC   C2B20840   2.971   6.906   8.283
 1326POPC   C3B20841   2.855   6.932   7.824
 1326POPC   C4B20842   3.085   6.984   7.446
 1327POPC   NC320843   9.235   4.241   9.574
 1327POPC   PO420844   8.601   4.327   9.549
 1327POPC   GL120845   8.905   4.342   9.192
 1327POPC   GL220846   8.958   4.002   9.046
 1327POPC   C1A20847   9.030   4.438   8.749
 1327POPC   D2A20848   9.082   4.295   8.321
 1327POPC   C3A20849   9.216   4.562   7.976
 1327POPC   C4A20850   8.873   4.617   7.676
 1327POPC   C1B20851   8.737   4.007   8.610
 1327POPC   C2B20852   8.650   4.073   8.142
 1327POPC   C3B20853   8.589   4.191   7.682
 1327POPC   C4B20854   8.618   3.910   7.297
 1328POPC   NC320855  29.743  36.515   9.555
 1328POPC   PO420856  30.325  36.366   9.348
 1328POPC   GL120857  30.095  36.189   9.085
 1328POPC   GL220858  29.736  36.328   9.080
 1328POPC   C1A20859  30.195  36.048   8.703
 1328POPC   D2A20860  29.941  36.119   8.395
 1328POPC   C3A20861  30.090  36.230   8.001
 1328POPC   C4A20862  29.786  36.498   7.820
 1328POPC   C1B20863  29.702  35.944   8.849
 1328POPC   C2B20864  29.582  35.762   8.457
 1328POPC   C3B20865  29.710  35.849   8.029
 1328POPC   C4B20866  29.559  35.820   7.645
 1329POPC   NC320867  30.588  44.830   9.278
 1329POPC   PO420868  30.979   0.302   9.550
 1329POPC   GL120869  30.655   0.348   9.190
 1329POPC   GL220870  30.628   0.121   8.886
 1329POPC   C1A20871  30.434   0.581   8.833
 1329POPC   D2A20872  30.625   0.478   8.437
 1329POPC   C3A20873  30.483   0.587   8.033
 1329POPC   C4A20874  30.756   0.769   7.709
 1329POPC   C1B20875  30.933   0.016   8.589
 1329POPC   C2B20876  31.097   0.236   8.251
 1329POPC   C3B20877  30.930   0.305   7.856
 1329POPC   C4B20878  30.914   0.136   7.414
 1330POPC   NC320879  38.425  16.958   9.477
 1330POPC   PO420880  38.389  17.670   9.491
 1330POPC   GL120881  38.367  17.914   9.111
 1330POPC   GL220882  38.711  17.826   9.103
 1330POPC   C1A20883  38.264  17.857   8.663
 1330POPC   D2A20884  38.063  17.491   8.418
 1330POPC   C3A20885  38.183  17.368   8.018
 1330POPC   C4A20886  38.383  17.648   7.754
 1330POPC   C1B20887  38.745  17.652   8.692
 1330POPC   C2B20888  38.573  17.648   8.260
 1330POPC   C3B20889  38.830  17.838   7.925
 1330POPC   C4B20890  38.768  17.840   7.493
 1331POPC   NC320891  32.028  20.370   9.331
 1331POPC   PO420892  31.553  20.901   9.411
 1331POPC   GL120893  31.611  20.672   9.081
 1331POPC   GL220894  31.532  20.375   9.174
 1331POPC   C1A20895  31.440  20.655   8.677
 1331POPC   D2A20896  31.214  20.588   8.271
 1331POPC   C3A20897  31.407  20.769   7.890
 1331POPC   C4A20898  31.396  21.190   7.746
 1331POPC   C1B20899  31.687  20.216   8.787
 1331POPC   C2B20900  31.694  20.345   8.378
 1331POPC   C3B20901  31.726  20.371   7.970
 1331POPC   C4B20902  31.729  20.429   7.529
 1332POPC   NC320903  22.644  44.614   9.525
 1332POPC   PO420904  23.306  44.436   9.421
 1332POPC   GL120905  22.968  44.567   9.117
 1332POPC   GL220906  22.818  44.918   9.164
 1332POPC   C1A20907  22.972  44.765   8.693
 1332POPC   D2A20908  23.013  44.787   8.247
 1332POPC   C3A20909  23.120  44.433   8.001
 1332POPC   C4A20910  22.862  44.222   7.702
 1332POPC   C1B20911  22.493  44.947   8.858
 1332POPC   C2B20912  22.530  44.845   8.431
 1332POPC   C3B20913  22.596  44.988   8.022
 1332POPC   C4B20914  22.911  44.828   7.732
 1333POPC   NC320915  40.629  29.768   9.450
 1333POPC   PO420916  41.047  30.236   9.536
 1333POPC   GL120917  40.783  30.231   9.219
 1333POPC   GL220918  40.942  29.933   9.065
 1333POPC   C1A20919  40.466  30.120   8.908
 1333POPC   D2A20920  40.476  30.226   8.488
 1333POPC   C3A20921  40.674  29.953   8.222
 1333POPC   C4A20922  40.469  29.939   7.831
 1333POPC   C1B20923  40.943  30.258   8.741
 1333POPC   C2B20924  41.157  30.326   8.382
 1333POPC   C3B20925  41.006  30.275   7.961
 1333POPC   C4B20926  40.996  29.825   7.837
 1334POPC   NC320927  20.077   0.757   9.429
 1334POPC   PO420928  19.494   1.093   9.411
 1334POPC   GL120929  19.837   1.100   9.098
 1334POPC   GL220930  20.119   1.311   9.226
 1334POPC   C1A20931  19.926   1.104   8.641
 1334POPC   D2A20932  19.878   0.859   8.251
 1334POPC   C3A20933  19.610   0.992   7.919
 1334POPC   C4A20934  19.683   1.134   7.527
 1334POPC   C1B20935  19.917   1.577   8.898
 1334POPC   C2B20936  19.855   1.600   8.460
 1334POPC   C3B20937  19.874   1.408   8.057
 1334POPC   C4B20938  19.815   1.601   7.654
 1335POPC   NC320939   3.520   6.905   9.527
 1335POPC   PO420940   3.274   6.313   9.275
 1335POPC   GL120941   3.399   6.727   9.049
 1335POPC   GL220942   3.297   7.090   9.087
 1335POPC   C1A20943   3.366   6.839   8.617
 1335POPC   D2A20944   3.285   6.488   8.337
 1335POPC   C3A20945   3.454   6.460   7.915
 1335POPC   C4A20946   3.164   6.514   7.619
 1335POPC   C1B20947   3.728   7.111   8.866
 1335POPC   C2B20948   3.879   6.956   8.455
 1335POPC   C3B20949   3.549   6.913   8.132
 1335POPC   C4B20950   3.523   6.985   7.715
 1336POPC   NC320951  16.092   1.046   9.588
 1336POPC   PO420952  15.481   1.092   9.336
 1336POPC   GL120953  15.848   1.256   9.060
 1336POPC   GL220954  16.212   1.229   9.124
 1336POPC   C1A20955  16.071   1.130   8.633
 1336POPC   D2A20956  16.156   1.051   8.174
 1336POPC   C3A20957  15.929   1.063   7.757
 1336POPC   C4A20958  15.848   0.849   7.317
 1336POPC   C1B20959  16.392   1.491   8.804
 1336POPC   C2B20960  16.263   1.584   8.361
 1336POPC   C3B20961  16.360   1.451   7.935
 1336POPC   C4B20962  16.188   1.424   7.516
 1337POPC   NC320963  31.277  24.161   9.433
 1337POPC   PO420964  31.697  24.691   9.409
 1337POPC   GL120965  31.472  24.503   9.111
 1337POPC   GL220966  31.655  24.193   9.114
 1337POPC   C1A20967  31.236  24.431   8.758
 1337POPC   D2A20968  31.472  24.382   8.405
 1337POPC   C3A20969  31.411  24.621   8.059
 1337POPC   C4A20970  31.129  24.474   7.759
 1337POPC   C1B20971  31.593  24.016   8.743
 1337POPC   C2B20972  31.553  23.881   8.330
 1337POPC   C3B20973  31.442  24.111   7.976
 1337POPC   C4B20974  31.693  24.367   7.709
 1338POPC   NC320975  20.781  22.997   9.634
 1338POPC   PO420976  20.255  22.594   9.502
 1338POPC   GL120977  20.508  22.823   9.204
 1338POPC   GL220978  20.517  23.163   9.212
 1338POPC   C1A20979  20.845  22.857   8.892
 1338POPC   D2A20980  20.852  23.023   8.477
 1338POPC   C3A20981  20.668  22.768   8.161
 1338POPC   C4A20982  20.818  22.766   7.732
 1338POPC   C1B20983  20.462  23.210   8.803
 1338POPC   C2B20984  20.353  23.103   8.405
 1338POPC   C3B20985  20.535  23.235   7.993
 1338POPC   C4B20986  20.297  23.316   7.628
 1339POPC   NC320987  44.033  16.243   9.580
 1339POPC   PO420988  43.749  16.823   9.372
 1339POPC   GL120989  43.799  16.522   9.098
 1339POPC   GL220990  44.137  16.493   9.135
 1339POPC   C1A20991  43.816  16.626   8.674
 1339POPC   D2A20992  43.829  16.938   8.362
 1339POPC   C3A20993  43.859  16.736   7.932
 1339POPC   C4A20994  43.707  16.972   7.566
 1339POPC   C1B20995  44.306  16.714   8.740
 1339POPC   C2B20996  44.264  16.692   8.277
 1339POPC   C3B20997  44.363  16.623   7.848
 1339POPC   C4B20998  44.493  16.381   7.505
 1340POPC   NC320999  20.068  31.132   9.350
 1340POPC   PO421000  19.812  31.759   9.532
 1340POPC   GL121001  19.700  31.707   9.127
 1340POPC   GL221002  19.964  31.507   9.005
 1340POPC   C1A21003  19.722  31.869   8.739
 1340POPC   D2A21004  19.881  31.598   8.460
 1340POPC   C3A21005  19.798  31.695   8.050
 1340POPC   C4A21006  20.023  31.487   7.745
 1340POPC   C1B21007  19.974  31.170   8.708
 1340POPC   C2B21008  20.140  31.167   8.300
 1340POPC   C3B21009  20.094  30.988   7.901
 1340POPC   C4B21010  19.984  31.039   7.479
 1341POPC   NC321011  31.169  20.570   9.485
 1341POPC   PO421012  30.640  21.068   9.464
 1341POPC   GL121013  30.778  20.760   9.147
 1341POPC   GL221014  30.972  20.428   9.061
 1341POPC   C1A21015  30.966  20.797   8.753
 1341POPC   D2A21016  30.934  20.992   8.416
 1341POPC   C3A21017  30.724  20.817   8.078
 1341POPC   C4A21018  30.924  20.688   7.720
 1341POPC   C1B21019  30.612  20.384   8.823
 1341POPC   C2B21020  30.702  20.483   8.439
 1341POPC   C3B21021  30.819  20.315   8.061
 1341POPC   C4B21022  30.777  19.995   7.769
 1342POPC   NC321023  29.580  20.548   9.464
 1342POPC   PO421024  28.893  20.518   9.421
 1342POPC   GL121025  29.115  20.761   9.150
 1342POPC   GL221026  28.814  20.748   8.936
 1342POPC   C1A21027  29.298  20.857   8.755
 1342POPC   D2A21028  29.171  21.018   8.376
 1342POPC   C3A21029  29.410  20.854   8.036
 1342POPC   C4A21030  29.149  20.731   7.692
 1342POPC   C1B21031  29.094  20.414   8.745
 1342POPC   C2B21032  29.302  20.456   8.361
 1342POPC   C3B21033  29.317  20.315   7.943
 1342POPC   C4B21034  29.127  20.235   7.536
 1343POPC   NC321035  29.326  15.948   9.578
 1343POPC   PO421036  28.811  15.571   9.555
 1343POPC   GL121037  28.943  15.953   9.238
 1343POPC   GL221038  29.296  15.999   9.073
 1343POPC   C1A21039  28.873  16.100   8.783
 1343POPC   D2A21040  28.713  16.181   8.340
 1343POPC   C3A21041  28.759  15.892   7.957
 1343POPC   C4A21042  28.649  15.616   7.564
 1343POPC   C1B21043  29.340  16.280   8.729
 1343POPC   C2B21044  29.195  16.351   8.300
 1343POPC   C3B21045  29.193  16.192   7.882
 1343POPC   C4B21046  29.422  16.052   7.504
 1344POPC   NC321047  36.540   9.705   9.415
 1344POPC   PO421048  35.895   9.859   9.605
 1344POPC   GL121049  36.060   9.781   9.184
 1344POPC   GL221050  35.888   9.483   9.106
 1344POPC   C1A21051  36.311   9.918   8.787
 1344POPC   D2A21052  36.437  10.151   8.378
 1344POPC   C3A21053  36.288   9.918   7.991
 1344POPC   C4A21054  35.832   9.901   7.866
 1344POPC   C1B21055  36.056   9.469   8.743
 1344POPC   C2B21056  36.212   9.398   8.372
 1344POPC   C3B21057  35.995   9.425   8.041
 1344POPC   C4B21058  36.154   9.517   7.675
 1345POPC   NC321059  11.695  19.536   9.521
 1345POPC   PO421060  12.229  19.928   9.588
 1345POPC   GL121061  12.227  19.704   9.235
 1345POPC   GL221062  11.880  19.714   9.074
 1345POPC   C1A21063  12.335  19.827   8.841
 1345POPC   D2A21064  12.118  19.766   8.493
 1345POPC   C3A21065  12.227  19.984   8.128
 1345POPC   C4A21066  12.372  19.787   7.756
 1345POPC   C1B21067  11.805  19.439   8.711
 1345POPC   C2B21068  11.714  19.562   8.241
 1345POPC   C3B21069  11.806  19.584   7.761
 1345POPC   C4B21070  11.908  19.380   7.333
 1346POPC   NC321071  14.072  14.361   9.618
 1346POPC   PO421072  14.564  14.746   9.387
 1346POPC   GL121073  14.336  14.445   9.171
 1346POPC   GL221074  14.122  14.662   9.104
 1346POPC   C1A21075  14.311  14.228   8.768
 1346POPC   D2A21076  14.268  13.969   8.379
 1346POPC   C3A21077  14.268  14.206   8.010
 1346POPC   C4A21078  14.074  14.376   7.632
 1346POPC   C1B21079  14.449  14.732   8.760
 1346POPC   C2B21080  14.426  14.571   8.368
 1346POPC   C3B21081  14.204  14.702   8.026
 1346POPC   C4B21082  14.482  14.671   7.707
 1347POPC   NC321083  28.467   3.216   9.537
 1347POPC   PO421084  28.634   3.888   9.477
 1347POPC   GL121085  28.524   3.599   9.117
 1347POPC   GL221086  28.590   3.275   9.064
 1347POPC   C1A21087  28.293   3.644   8.719
 1347POPC   D2A21088  28.463   3.793   8.337
 1347POPC   C3A21089  28.186   3.897   8.027
 1347POPC   C4A21090  28.129   3.731   7.653
 1347POPC   C1B21091  28.348   3.133   8.747
 1347POPC   C2B21092  28.444   3.209   8.364
 1347POPC   C3B21093  28.392   3.400   8.013
 1347POPC   C4B21094  28.241   3.238   7.676
 1348POPC   NC321095  36.090  33.567   9.559
 1348POPC   PO421096  36.511  34.105   9.434
 1348POPC   GL121097  36.276  33.781   9.128
 1348POPC   GL221098  36.093  33.420   9.088
 1348POPC   C1A21099  36.139  33.808   8.705
 1348POPC   D2A21100  35.884  34.013   8.383
 1348POPC   C3A21101  36.152  33.930   8.044
 1348POPC   C4A21102  36.550  34.058   7.907
 1348POPC   C1B21103  35.958  33.314   8.674
 1348POPC   C2B21104  36.057  33.476   8.287
 1348POPC   C3B21105  36.043  33.316   7.885
 1348POPC   C4B21106  35.945  33.329   7.460
 1349POPC   NC321107   4.979  12.029   9.766
 1349POPC   PO421108   5.458  12.443   9.566
 1349POPC   GL121109   5.233  12.109   9.303
 1349POPC   GL221110   5.527  12.082   9.099
 1349POPC   C1A21111   5.101  11.890   8.887
 1349POPC   D2A21112   5.327  11.917   8.478
 1349POPC   C3A21113   5.078  12.055   8.099
 1349POPC   C4A21114   4.760  12.101   7.809
 1349POPC   C1B21115   5.227  12.367   8.847
 1349POPC   C2B21116   5.207  12.429   8.431
 1349POPC   C3B21117   5.513  12.296   8.120
 1349POPC   C4B21118   5.358  12.236   7.695
 1350POPC   NC321119   8.691  19.579   9.473
 1350POPC   PO421120   9.059  20.020   9.757
 1350POPC   GL121121   9.037  19.893   9.262
 1350POPC   GL221122   8.718  19.854   9.062
 1350POPC   C1A21123   9.114  19.969   8.779
 1350POPC   D2A21124   8.856  19.922   8.388
 1350POPC   C3A21125   9.057  19.825   7.976
 1350POPC   C4A21126   8.985  19.604   7.543
 1350POPC   C1B21127   8.526  20.134   8.774
 1350POPC   C2B21128   8.630  20.393   8.459
 1350POPC   C3B21129   8.748  20.288   8.036
 1350POPC   C4B21130   8.700  20.025   7.667
 1351POPC   NC321131  20.505  18.764   9.518
 1351POPC   PO421132  20.810  18.291   9.608
 1351POPC   GL121133  20.622  18.307   9.198
 1351POPC   GL221134  20.381  18.061   9.085
 1351POPC   C1A21135  20.555  18.413   8.736
 1351POPC   D2A21136  20.524  18.567   8.324
 1351POPC   C3A21137  20.507  18.330   7.924
 1351POPC   C4A21138  20.567  18.177   7.498
 1351POPC   C1B21139  20.354  17.946   8.621
 1351POPC   C2B21140  20.318  17.893   8.147
 1351POPC   C3B21141  20.120  18.061   7.726
 1351POPC   C4B21142  20.121  18.326   7.310
 1352POPC   NC321143  21.199  23.540   9.602
 1352POPC   PO421144  21.348  24.242   9.495
 1352POPC   GL121145  21.413  23.857   9.242
 1352POPC   GL221146  21.087  23.773   9.137
 1352POPC   C1A21147  21.469  23.565   8.883
 1352POPC   D2A21148  21.586  23.743   8.461
 1352POPC   C3A21149  21.572  23.455   8.133
 1352POPC   C4A21150  21.500  23.448   7.716
 1352POPC   C1B21151  21.123  23.910   8.677
 1352POPC   C2B21152  21.168  23.878   8.208
 1352POPC   C3B21153  21.126  23.784   7.759
 1352POPC   C4B21154  20.949  23.899   7.350
 1353POPC   NC321155  27.797  21.862   9.491
 1353POPC   PO421156  27.260  22.296   9.573
 1353POPC   GL121157  27.421  22.118   9.175
 1353POPC   GL221158  27.782  22.169   9.082
 1353POPC   C1A21159  27.427  22.186   8.728
 1353POPC   D2A21160  27.271  22.026   8.347
 1353POPC   C3A21161  27.447  22.292   8.080
 1353POPC   C4A21162  27.422  22.200   7.699
 1353POPC   C1B21163  27.839  21.868   8.781
 1353POPC   C2B21164  27.780  22.009   8.384
 1353POPC   C3B21165  27.757  21.866   7.986
 1353POPC   C4B21166  28.127  21.698   7.826
 1354POPC   NC321167   7.156  19.319   9.313
 1354POPC   PO421168   7.486  18.763   9.456
 1354POPC   GL121169   7.350  18.896   9.087
 1354POPC   GL221170   7.586  19.153   9.079
 1354POPC   C1A21171   7.530  18.804   8.693
 1354POPC   D2A21172   7.792  18.942   8.354
 1354POPC   C3A21173   7.628  18.927   7.939
 1354POPC   C4A21174   7.595  18.709   7.508
 1354POPC   C1B21175   7.393  19.295   8.707
 1354POPC   C2B21176   7.258  19.331   8.304
 1354POPC   C3B21177   7.458  19.420   7.941
 1354POPC   C4B21178   7.299  19.470   7.566
 1355POPC   NC321179   9.522  25.090   9.420
 1355POPC   PO421180   9.986  25.582   9.464
 1355POPC   GL121181   9.866  25.333   9.100
 1355POPC   GL221182   9.964  24.980   9.024
 1355POPC   C1A21183   9.597  25.236   8.756
 1355POPC   D2A21184   9.281  25.336   8.483
 1355POPC   C3A21185   9.430  25.332   8.085
 1355POPC   C4A21186   9.741  25.307   7.763
 1355POPC   C1B21187  10.049  24.903   8.575
 1355POPC   C2B21188   9.980  25.036   8.128
 1355POPC   C3B21189  10.064  24.919   7.675
 1355POPC   C4B21190  10.121  25.085   7.223
 1356POPC   NC321191  13.320  20.127   9.438
 1356POPC   PO421192  13.786  19.580   9.357
 1356POPC   GL121193  13.866  19.771   8.986
 1356POPC   GL221194  13.677  20.070   9.042
 1356POPC   C1A21195  13.797  19.936   8.574
 1356POPC   D2A21196  13.832  20.065   8.154
 1356POPC   C3A21197  13.601  19.736   7.996
 1356POPC   C4A21198  13.224  19.606   7.832
 1356POPC   C1B21199  13.322  20.043   8.763
 1356POPC   C2B21200  13.224  20.213   8.342
 1356POPC   C3B21201  13.303  20.138   7.892
 1356POPC   C4B21202  13.629  20.050   7.592
 1357POPC   NC321203   8.689  13.122   9.431
 1357POPC   PO421204   8.865  12.497   9.669
 1357POPC   GL121205   8.913  12.666   9.240
 1357POPC   GL221206   9.174  12.878   9.173
 1357POPC   C1A21207   8.860  12.725   8.776
 1357POPC   D2A21208   8.704  12.716   8.310
 1357POPC   C3A21209   9.000  12.853   7.969
 1357POPC   C4A21210   9.158  12.686   7.578
 1357POPC   C1B21211   9.048  13.204   8.824
 1357POPC   C2B21212   9.105  13.113   8.401
 1357POPC   C3B21213   9.345  13.237   8.022
 1357POPC   C4B21214   9.238  13.183   7.610
 1358POPC   NC321215  13.076  20.874   9.555
 1358POPC   PO421216  12.832  20.186   9.414
 1358POPC   GL121217  13.060  20.382   9.073
 1358POPC   GL221218  13.099  20.747   9.079
 1358POPC   C1A21219  12.897  20.498   8.678
 1358POPC   D2A21220  12.713  20.316   8.317
 1358POPC   C3A21221  12.937  20.479   7.979
 1358POPC   C4A21222  12.640  20.607   7.740
 1358POPC   C1B21223  13.256  20.931   8.714
 1358POPC   C2B21224  13.106  20.806   8.321
 1358POPC   C3B21225  12.906  20.990   7.953
 1358POPC   C4B21226  12.978  20.909   7.497
 1359POPC   NC321227  25.953   9.488   9.455
 1359POPC   PO421228  26.234  10.047   9.641
 1359POPC   GL121229  26.198   9.861   9.162
 1359POPC   GL221230  25.912  10.007   8.928
 1359POPC   C1A21231  26.031   9.539   8.813
 1359POPC   D2A21232  25.744   9.748   8.472
 1359POPC   C3A21233  25.958   9.765   8.074
 1359POPC   C4A21234  25.965   9.430   7.721
 1359POPC   C1B21235  26.221   9.917   8.554
 1359POPC   C2B21236  26.428   9.683   8.240
 1359POPC   C3B21237  26.395   9.672   7.794
 1359POPC   C4B21238  26.484   9.979   7.474
 1360POPC   NC321239  14.077  11.222   9.499
 1360POPC   PO421240  13.380  11.065   9.510
 1360POPC   GL121241  13.523  11.268   9.180
 1360POPC   GL221242  13.712  11.008   9.019
 1360POPC   C1A21243  13.494  11.472   8.817
 1360POPC   D2A21244  13.527  11.291   8.416
 1360POPC   C3A21245  13.321  11.479   8.092
 1360POPC   C4A21246  13.364  11.541   7.682
 1360POPC   C1B21247  13.564  10.686   8.700
 1360POPC   C2B21248  13.389  10.827   8.287
 1360POPC   C3B21249  13.549  11.043   7.921
 1360POPC   C4B21250  13.808  10.922   7.556
 1361POPC   NC321251  37.701  35.737   9.693
 1361POPC   PO421252  37.861  35.132   9.482
 1361POPC   GL121253  37.726  35.289   9.125
 1361POPC   GL221254  37.567  35.609   9.192
 1361POPC   C1A21255  37.604  35.136   8.725
 1361POPC   D2A21256  37.485  35.358   8.362
 1361POPC   C3A21257  37.639  35.280   7.981
 1361POPC   C4A21258  37.562  35.014   7.678
 1361POPC   C1B21259  37.666  35.679   8.761
 1361POPC   C2B21260  37.677  35.857   8.371
 1361POPC   C3B21261  37.452  35.763   7.998
 1361POPC   C4B21262  37.618  35.656   7.608
 1362POPC   NC321263   9.947  29.055   9.556
 1362POPC   PO421264   9.316  29.235   9.581
 1362POPC   GL121265   9.664  29.369   9.263
 1362POPC   GL221266   9.743  29.061   9.076
 1362POPC   C1A21267   9.948  29.465   8.888
 1362POPC   D2A21268  10.092  29.233   8.478
 1362POPC   C3A21269  10.086  29.316   8.014
 1362POPC   C4A21270   9.850  29.179   7.623
 1362POPC   C1B21271   9.967  28.739   8.830
 1362POPC   C2B21272  10.126  28.717   8.404
 1362POPC   C3B21273   9.945  28.808   7.988
 1362POPC   C4B21274   9.942  28.661   7.566
 1363POPC   NC321275  33.504  18.892   9.386
 1363POPC   PO421276  33.145  19.464   9.503
 1363POPC   GL121277  33.146  19.147   9.135
 1363POPC   GL221278  33.058  18.786   9.176
 1363POPC   C1A21279  32.953  19.046   8.731
 1363POPC   D2A21280  33.237  19.074   8.406
 1363POPC   C3A21281  33.121  19.350   8.126
 1363POPC   C4A21282  32.976  19.290   7.726
 1363POPC   C1B21283  33.258  18.656   8.794
 1363POPC   C2B21284  33.073  18.574   8.392
 1363POPC   C3B21285  33.097  18.787   8.002
 1363POPC   C4B21286  33.441  19.039   7.890
 1364POPC   NC321287  38.639  25.008   9.973
 1364POPC   PO421288  39.194  25.312   9.557
 1364POPC   GL121289  39.104  25.109   9.188
 1364POPC   GL221290  38.981  25.393   9.069
 1364POPC   C1A21291  38.906  24.959   8.816
 1364POPC   D2A21292  38.879  24.953   8.364
 1364POPC   C3A21293  39.260  24.917   8.075
 1364POPC   C4A21294  39.188  25.102   7.653
 1364POPC   C1B21295  39.260  25.489   8.800
 1364POPC   C2B21296  39.240  25.302   8.428
 1364POPC   C3B21297  39.261  25.439   8.023
 1364POPC   C4B21298  39.391  25.573   7.603
 1365POPC   NC321299  21.610  42.512   9.598
 1365POPC   PO421300  20.948  42.380   9.555
 1365POPC   GL121301  21.138  42.354   9.095
 1365POPC   GL221302  21.461  42.317   9.100
 1365POPC   C1A21303  21.296  42.451   8.642
 1365POPC   D2A21304  21.558  42.429   8.264
 1365POPC   C3A21305  21.397  42.641   7.893
 1365POPC   C4A21306  20.983  42.640   7.712
 1365POPC   C1B21307  21.616  42.044   8.745
 1365POPC   C2B21308  21.415  41.935   8.373
 1365POPC   C3B21309  21.230  42.109   8.008
 1365POPC   C4B21310  21.509  42.149   7.650
 1366POPC   NC321311  23.255  26.215   9.361
 1366POPC   PO421312  22.565  26.303   9.269
 1366POPC   GL121313  22.891  26.204   9.004
 1366POPC   GL221314  22.918  25.899   9.101
 1366POPC   C1A21315  23.112  26.172   8.619
 1366POPC   D2A21316  22.835  25.996   8.292
 1366POPC   C3A21317  22.854  26.208   7.907
 1366POPC   C4A21318  22.680  26.405   7.530
 1366POPC   C1B21319  22.938  25.697   8.717
 1366POPC   C2B21320  23.135  25.574   8.316
 1366POPC   C3B21321  23.019  25.676   7.911
 1366POPC   C4B21322  23.178  25.669   7.516
 1367POPC   NC321323  41.094  42.496   9.260
 1367POPC   PO421324  40.383  42.648   9.429
 1367POPC   GL121325  40.629  42.639   9.075
 1367POPC   GL221326  40.667  42.271   9.085
 1367POPC   C1A21327  40.623  42.589   8.620
 1367POPC   D2A21328  40.877  42.458   8.263
 1367POPC   C3A21329  40.647  42.518   7.910
 1367POPC   C4A21330  40.807  42.439   7.517
 1367POPC   C1B21331  40.861  42.137   8.695
 1367POPC   C2B21332  40.897  41.951   8.262
 1367POPC   C3B21333  40.868  42.044   7.819
 1367POPC   C4B21334  40.739  41.986   7.341
 1368POPC   NC321335  13.842   2.433   9.714
 1368POPC   PO421336  13.302   1.977   9.666
 1368POPC   GL121337  13.475   2.042   9.244
 1368POPC   GL221338  13.790   2.087   9.248
 1368POPC   C1A21339  13.402   1.906   8.789
 1368POPC   D2A21340  13.523   1.742   8.368
 1368POPC   C3A21341  13.482   1.872   7.929
 1368POPC   C4A21342  13.717   1.937   7.538
 1368POPC   C1B21343  13.799   2.211   8.787
 1368POPC   C2B21344  13.733   2.237   8.368
 1368POPC   C3B21345  14.004   2.213   8.047
 1368POPC   C4B21346  13.999   2.380   7.673
 1369POPC   NC321347   1.568   5.082   9.615
 1369POPC   PO421348   0.903   4.958   9.586
 1369POPC   GL121349   1.035   5.143   9.163
 1369POPC   GL221350   1.396   5.197   9.142
 1369POPC   C1A21351   0.896   5.282   8.744
 1369POPC   D2A21352   0.915   5.109   8.330
 1369POPC   C3A21353   0.975   5.268   7.914
 1369POPC   C4A21354   1.182   4.918   7.736
 1369POPC   C1B21355   1.406   5.448   8.780
 1369POPC   C2B21356   1.234   5.509   8.372
 1369POPC   C3B21357   1.458   5.434   7.986
 1369POPC   C4B21358   1.364   5.528   7.576
 1370POPC   NC321359  29.497  41.119   9.518
 1370POPC   PO421360  30.162  41.198   9.529
 1370POPC   GL121361  29.933  41.055   9.169
 1370POPC   GL221362  29.831  40.724   9.222
 1370POPC   C1A21363  29.912  40.956   8.733
 1370POPC   D2A21364  29.754  41.066   8.317
 1370POPC   C3A21365  29.915  40.911   7.920
 1370POPC   C4A21366  29.928  40.958   7.455
 1370POPC   C1B21367  29.655  40.526   8.848
 1370POPC   C2B21368  29.774  40.532   8.418
 1370POPC   C3B21369  29.613  40.512   8.004
 1370POPC   C4B21370  29.872  40.462   7.651
 1371POPC   NC321371  25.490  12.272   9.556
 1371POPC   PO421372  25.246  11.653   9.565
 1371POPC   GL121373  25.279  11.985   9.203
 1371POPC   GL221374  25.564  12.244   9.067
 1371POPC   C1A21375  25.130  12.140   8.833
 1371POPC   D2A21376  25.305  12.108   8.454
 1371POPC   C3A21377  25.073  11.967   8.174
 1371POPC   C4A21378  25.177  12.037   7.755
 1371POPC   C1B21379  25.629  11.903   8.836
 1371POPC   C2B21380  25.723  11.814   8.444
 1371POPC   C3B21381  25.564  11.885   8.049
 1371POPC   C4B21382  25.700  12.029   7.670
 1372POPC   NC321383  10.735  11.853   9.764
 1372POPC   PO421384  10.156  12.031   9.512
 1372POPC   GL121385  10.357  12.060   9.162
 1372POPC   GL221386  10.676  11.924   9.251
 1372POPC   C1A21387  10.375  12.203   8.754
 1372POPC   D2A21388  10.214  11.986   8.426
 1372POPC   C3A21389  10.444  12.053   8.052
 1372POPC   C4A21390  10.340  12.299   7.713
 1372POPC   C1B21391  10.859  12.054   8.846
 1372POPC   C2B21392  10.795  12.249   8.440
 1372POPC   C3B21393  10.959  12.143   8.046
 1372POPC   C4B21394  10.812  12.084   7.642
 1373POPC   NC321395  33.672  33.098   9.545
 1373POPC   PO421396  33.397  32.487   9.471
 1373POPC   GL121397  33.588  32.777   9.151
 1373POPC   GL221398  33.968  32.913   9.177
 1373POPC   C1A21399  33.667  33.087   8.808
 1373POPC   D2A21400  33.685  33.238   8.367
 1373POPC   C3A21401  33.781  33.017   7.944
 1373POPC   C4A21402  33.774  32.846   7.459
 1373POPC   C1B21403  34.182  32.904   8.778
 1373POPC   C2B21404  34.155  33.048   8.361
 1373POPC   C3B21405  34.235  33.221   7.973
 1373POPC   C4B21406  34.011  33.289   7.580
 1374POPC   NC321407  41.772   1.179   9.426
 1374POPC   PO421408  41.326   1.631   9.520
 1374POPC   GL121409  41.327   1.417   9.081
 1374POPC   GL221410  41.439   1.080   9.040
 1374POPC   C1A21411  41.499   1.401   8.653
 1374POPC   D2A21412  41.498   1.150   8.278
 1374POPC   C3A21413  41.557   1.398   7.924
 1374POPC   C4A21414  41.795   1.552   7.616
 1374POPC   C1B21415  41.763   0.957   8.715
 1374POPC   C2B21416  41.994   0.933   8.310
 1374POPC   C3B21417  41.856   0.892   7.882
 1374POPC   C4B21418  41.474   0.697   7.772
 1375POPC   NC321419  34.174  41.198   9.452
 1375POPC   PO421420  33.495  41.460   9.573
 1375POPC   GL121421  33.650  41.355   9.175
 1375POPC   GL221422  33.877  41.621   9.176
 1375POPC   C1A21423  33.557  41.490   8.742
 1375POPC   D2A21424  33.649  41.264   8.355
 1375POPC   C3A21425  33.474  41.404   7.950
 1375POPC   C4A21426  33.582  41.455   7.499
 1375POPC   C1B21427  34.057  41.384   8.825
 1375POPC   C2B21428  34.125  41.531   8.420
 1375POPC   C3B21429  34.024  41.369   8.022
 1375POPC   C4B21430  34.066  41.489   7.613
 1376POPC   NC321431  35.967  12.798   9.487
 1376POPC   PO421432  36.560  13.241   9.627
 1376POPC   GL121433  36.280  13.100   9.234
 1376POPC   GL221434  36.352  12.716   9.165
 1376POPC   C1A21435  36.053  13.200   8.796
 1376POPC   D2A21436  35.933  13.069   8.348
 1376POPC   C3A21437  35.889  13.324   7.968
 1376POPC   C4A21438  35.879  13.146   7.560
 1376POPC   C1B21439  36.101  12.686   8.778
 1376POPC   C2B21440  36.213  12.631   8.345
 1376POPC   C3B21441  36.166  12.487   7.935
 1376POPC   C4B21442  36.491  12.470   7.617
 1377POPC   NC321443  38.854  43.917   9.500
 1377POPC   PO421444  38.137  43.484   9.426
 1377POPC   GL121445  38.421  43.767   9.184
 1377POPC   GL221446  38.761  43.635   9.106
 1377POPC   C1A21447  38.372  44.056   8.808
 1377POPC   D2A21448  38.528  44.001   8.372
 1377POPC   C3A21449  38.299  44.009   7.990
 1377POPC   C4A21450  38.431  44.272   7.666
 1377POPC   C1B21451  38.546  43.588   8.729
 1377POPC   C2B21452  38.371  43.533   8.347
 1377POPC   C3B21453  38.578  43.589   7.991
 1377POPC   C4B21454  38.802  43.915   7.780
 1378POPC   NC321455  26.713  22.750   9.541
 1378POPC   PO421456  27.031  23.252   9.389
 1378POPC   GL121457  26.801  22.994   9.104
 1378POPC   GL221458  27.040  22.704   9.150
 1378POPC   C1A21459  26.633  22.804   8.712
 1378POPC   D2A21460  26.540  22.643   8.275
 1378POPC   C3A21461  26.722  22.933   7.967
 1378POPC   C4A21462  26.751  23.344   7.769
 1378POPC   C1B21463  27.026  22.495   8.758
 1378POPC   C2B21464  27.042  22.660   8.337
 1378POPC   C3B21465  27.209  22.738   7.926
 1378POPC   C4B21466  27.297  22.638   7.479
 1379POPC   NC321467   7.393   7.572   9.594
 1379POPC   PO421468   7.891   7.108   9.399
 1379POPC   GL121469   7.515   7.242   8.984
 1379POPC   GL221470   7.266   7.487   9.103
 1379POPC   C1A21471   7.457   7.323   8.554
 1379POPC   D2A21472   7.543   7.124   8.166
 1379POPC   C3A21473   7.617   7.427   7.897
 1379POPC   C4A21474   7.488   7.851   7.812
 1379POPC   C1B21475   7.003   7.511   8.755
 1379POPC   C2B21476   6.974   7.384   8.350
 1379POPC   C3B21477   7.118   7.501   7.981
 1379POPC   C4B21478   7.204   7.439   7.575
 1380POPC   NC321479   1.352  21.426   9.817
 1380POPC   PO421480   0.983  21.037   9.376
 1380POPC   GL121481   1.212  21.323   9.126
 1380POPC   GL221482   1.467  21.408   9.321
 1380POPC   C1A21483   1.058  21.407   8.755
 1380POPC   D2A21484   1.068  21.229   8.350
 1380POPC   C3A21485   0.960  21.483   8.017
 1380POPC   C4A21486   0.909  21.258   7.683
 1380POPC   C1B21487   1.541  21.583   8.865
 1380POPC   C2B21488   1.537  21.423   8.432
 1380POPC   C3B21489   1.478  21.295   7.969
 1380POPC   C4B21490   1.718  21.496   7.595
 1381POPC   NC321491  11.725  43.780   9.525
 1381POPC   PO421492  12.247  44.189   9.568
 1381POPC   GL121493  12.319  44.034   9.154
 1381POPC   GL221494  11.976  44.055   9.133
 1381POPC   C1A21495  12.357  44.023   8.689
 1381POPC   D2A21496  12.070  44.079   8.310
 1381POPC   C3A21497  12.211  43.958   7.908
 1381POPC   C4A21498  12.584  44.089   7.684
 1381POPC   C1B21499  11.893  43.905   8.768
 1381POPC   C2B21500  11.930  43.603   8.450
 1381POPC   C3B21501  11.781  43.694   8.032
 1381POPC   C4B21502  11.705  44.144   7.902
 1382POPC   NC321503  41.147  40.603   9.471
 1382POPC   PO421504  40.546  41.023   9.508
 1382POPC   GL121505  40.791  40.909   9.210
 1382POPC   GL221506  40.733  40.566   9.181
 1382POPC   C1A21507  40.966  40.914   8.835
 1382POPC   D2A21508  41.035  40.992   8.426
 1382POPC   C3A21509  40.841  40.841   8.090
 1382POPC   C4A21510  40.793  41.048   7.711
 1382POPC   C1B21511  41.039  40.422   8.870
 1382POPC   C2B21512  40.915  40.503   8.487
 1382POPC   C3B21513  40.855  40.331   8.117
 1382POPC   C4B21514  40.913  40.503   7.721
 1383POPC   NC321515  40.207   9.233   9.790
 1383POPC   PO421516  40.872   9.112   9.575
 1383POPC   GL121517  40.579   8.990   9.251
 1383POPC   GL221518  40.866   8.856   9.058
 1383POPC   C1A21519  40.454   9.078   8.822
 1383POPC   D2A21520  40.511   9.334   8.469
 1383POPC   C3A21521  40.579   9.098   8.119
 1383POPC   C4A21522  40.551   9.137   7.695
 1383POPC   C1B21523  40.880   8.898   8.605
 1383POPC   C2B21524  41.083   8.977   8.240
 1383POPC   C3B21525  41.036   9.157   7.854
 1383POPC   C4B21526  40.937   8.904   7.446
 1384POPC   NC321527  15.796  35.277   9.580
 1384POPC   PO421528  16.482  35.457   9.628
 1384POPC   GL121529  16.266  35.483   9.205
 1384POPC   GL221530  15.893  35.521   9.148
 1384POPC   C1A21531  16.217  35.491   8.737
 1384POPC   D2A21532  16.071  35.627   8.329
 1384POPC   C3A21533  16.068  35.383   7.946
 1384POPC   C4A21534  15.887  35.414   7.553
 1384POPC   C1B21535  15.698  35.310   8.771
 1384POPC   C2B21536  15.627  35.361   8.304
 1384POPC   C3B21537  15.451  35.247   7.881
 1384POPC   C4B21538  15.636  34.983   7.523
 1385POPC   NC321539  36.565  16.533   9.442
 1385POPC   PO421540  37.020  16.961   9.486
 1385POPC   GL121541  36.825  17.064   9.117
 1385POPC   GL221542  36.483  17.006   9.246
 1385POPC   C1A21543  37.018  16.841   8.767
 1385POPC   D2A21544  36.959  16.566   8.425
 1385POPC   C3A21545  36.890  16.732   8.020
 1385POPC   C4A21546  37.044  16.567   7.638
 1385POPC   C1B21547  36.507  16.812   8.812
 1385POPC   C2B21548  36.489  16.793   8.369
 1385POPC   C3B21549  36.417  16.522   8.045
 1385POPC   C4B21550  36.512  16.665   7.646
 1386POPC   NC321551   0.147  42.126   9.474
 1386POPC   PO421552   0.613  42.605   9.620
 1386POPC   GL121553   0.548  42.635   9.147
 1386POPC   GL221554   0.464  42.262   9.101
 1386POPC   C1A21555   0.228  42.676   8.732
 1386POPC   D2A21556   0.056  42.815   8.336
 1386POPC   C3A21557   0.193  42.672   7.926
 1386POPC   C4A21558   0.522  42.401   7.781
 1386POPC   C1B21559   0.611  42.365   8.720
 1386POPC   C2B21560   0.547  42.493   8.318
 1386POPC   C3B21561   0.717  42.134   8.158
 1386POPC   C4B21562   1.001  41.978   7.832
 1387POPC   NC321563   0.502  40.091   9.891
 1387POPC   PO421564   0.234  39.598   9.544
 1387POPC   GL121565   0.326  39.732   9.169
 1387POPC   GL221566   0.527  39.993   9.290
 1387POPC   C1A21567   0.245  39.904   8.789
 1387POPC   D2A21568   0.336  40.098   8.400
 1387POPC   C3A21569   0.210  39.927   8.023
 1387POPC   C4A21570   0.271  39.838   7.603
 1387POPC   C1B21571   0.742  39.880   8.900
 1387POPC   C2B21572   0.837  40.085   8.540
 1387POPC   C3B21573   0.746  39.979   8.104
 1387POPC   C4B21574   0.891  39.737   7.781
 1388POPC   NC321575  33.372  21.585   9.488
 1388POPC   PO421576  32.747  21.427   9.538
 1388POPC   GL121577  32.898  21.361   9.135
 1388POPC   GL221578  33.247  21.266   9.045
 1388POPC   C1A21579  32.836  21.200   8.741
 1388POPC   D2A21580  32.683  21.237   8.362
 1388POPC   C3A21581  33.029  21.200   8.122
 1388POPC   C4A21582  32.869  21.293   7.724
 1388POPC   C1B21583  33.297  21.412   8.622
 1388POPC   C2B21584  33.274  21.739   8.307
 1388POPC   C3B21585  33.275  21.592   7.878
 1388POPC   C4B21586  33.377  21.178   7.745
 1389POPC   NC321587   5.356  44.263   9.691
 1389POPC   PO421588   4.772  44.206   9.603
 1389POPC   GL121589   4.996  44.441   9.247
 1389POPC   GL221590   5.338  44.378   9.174
 1389POPC   C1A21591   5.017  44.578   8.786
 1389POPC   D2A21592   5.213  44.630   8.354
 1389POPC   C3A21593   5.102  44.610   7.889
 1389POPC   C4A21594   5.297  44.836   7.521
 1389POPC   C1B21595   5.519  44.435   8.753
 1389POPC   C2B21596   5.679  44.421   8.347
 1389POPC   C3B21597   5.614  44.615   7.963
 1389POPC   C4B21598   5.681  44.508   7.569
 1390POPC   NC321599  37.396   9.380   9.494
 1390POPC   PO421600  37.896   8.861   9.634
 1390POPC   GL121601  37.825   9.025   9.195
 1390POPC   GL221602  38.061   9.292   9.295
 1390POPC   C1A21603  37.700   9.076   8.677
 1390POPC   D2A21604  37.427   9.166   8.253
 1390POPC   C3A21605  37.472   8.841   7.943
 1390POPC   C4A21606  37.918   8.624   7.956
 1390POPC   C1B21607  38.081   9.371   8.858
 1390POPC   C2B21608  38.176   9.290   8.451
 1390POPC   C3B21609  37.920   9.140   8.116
 1390POPC   C4B21610  37.667   9.281   7.803
 1391POPC   NC321611  31.218   7.660   9.445
 1391POPC   PO421612  31.442   7.101   9.654
 1391POPC   GL121613  31.545   7.329   9.188
 1391POPC   GL221614  31.323   7.559   8.968
 1391POPC   C1A21615  31.501   7.127   8.749
 1391POPC   D2A21616  31.254   6.968   8.394
 1391POPC   C3A21617  31.417   7.107   8.018
 1391POPC   C4A21618  31.269   7.265   7.671
 1391POPC   C1B21619  31.084   7.393   8.623
 1391POPC   C2B21620  31.427   7.472   8.354
 1391POPC   C3B21621  31.419   7.651   7.962
 1391POPC   C4B21622  30.987   7.682   7.812
 1392POPC   NC321623   5.266  34.426   9.866
 1392POPC   PO421624   5.077  34.797   9.388
 1392POPC   GL121625   5.157  34.564   9.039
 1392POPC   GL221626   5.473  34.441   9.167
 1392POPC   C1A21627   4.957  34.474   8.624
 1392POPC   D2A21628   4.846  34.504   8.189
 1392POPC   C3A21629   5.128  34.752   7.996
 1392POPC   C4A21630   5.254  34.821   7.571
 1392POPC   C1B21631   5.433  34.296   8.714
 1392POPC   C2B21632   5.286  34.251   8.274
 1392POPC   C3B21633   5.269  34.302   7.814
 1392POPC   C4B21634   5.353  34.372   7.360
 1393POPC   NC321635  15.585   8.828   9.616
 1393POPC   PO421636  15.141   9.347   9.414
 1393POPC   GL121637  15.244   8.996   9.190
 1393POPC   GL221638  15.277   9.285   8.934
 1393POPC   C1A21639  15.422   8.819   8.824
 1393POPC   D2A21640  15.299   9.001   8.431
 1393POPC   C3A21641  15.440   8.896   8.022
 1393POPC   C4A21642  15.206   8.778   7.675
 1393POPC   C1B21643  15.058   9.419   8.600
 1393POPC   C2B21644  14.802   9.207   8.368
 1393POPC   C3B21645  14.943   9.046   8.016
 1393POPC   C4B21646  14.883   9.187   7.607
 1394POPC   NC321647   8.741  32.013   9.477
 1394POPC   PO421648   9.256  31.740   9.093
 1394POPC   GL121649   9.016  32.059   8.914
 1394POPC   GL221650   8.943  32.337   9.129
 1394POPC   C1A21651   9.057  32.303   8.510
 1394POPC   D2A21652   8.861  32.299   8.101
 1394POPC   C3A21653   9.133  32.268   7.819
 1394POPC   C4A21654   9.424  31.989   7.652
 1394POPC   C1B21655   8.620  32.371   8.793
 1394POPC   C2B21656   8.461  32.421   8.388
 1394POPC   C3B21657   8.476  32.591   7.948
 1394POPC   C4B21658   8.693  32.398   7.563
 1395POPC   NC321659  35.377  22.407   9.488
 1395POPC   PO421660  35.826  21.906   9.450
 1395POPC   GL121661  35.487  22.039   9.147
 1395POPC   GL221662  35.545  22.371   9.016
 1395POPC   C1A21663  35.188  22.075   8.802
 1395POPC   D2A21664  35.262  22.321   8.436
 1395POPC   C3A21665  35.032  22.266   8.070
 1395POPC   C4A21666  35.176  22.183   7.659
 1395POPC   C1B21667  35.806  22.413   8.680
 1395POPC   C2B21668  35.701  22.575   8.305
 1395POPC   C3B21669  35.557  22.347   7.992
 1395POPC   C4B21670  35.793  22.390   7.658
 1396POPC   NC321671  32.748  26.929   9.568
 1396POPC   PO421672  32.215  26.496   9.567
 1396POPC   GL121673  32.306  26.840   9.265
 1396POPC   GL221674  32.592  26.689   9.166
 1396POPC   C1A21675  32.391  26.995   8.820
 1396POPC   D2A21676  32.293  26.794   8.421
 1396POPC   C3A21677  32.287  26.960   8.011
 1396POPC   C4A21678  32.314  26.710   7.649
 1396POPC   C1B21679  32.775  26.503   8.848
 1396POPC   C2B21680  32.706  26.461   8.417
 1396POPC   C3B21681  32.694  26.650   8.024
 1396POPC   C4B21682  32.871  26.594   7.630
 1397POPC   NC321683  44.138   8.939   9.544
 1397POPC   PO421684  43.623   9.305   9.556
 1397POPC   GL121685  43.743   8.956   9.225
 1397POPC   GL221686  43.515   8.666   9.156
 1397POPC   C1A21687  43.982   8.817   8.855
 1397POPC   D2A21688  44.028   8.660   8.414
 1397POPC   C3A21689  44.055   8.953   8.049
 1397POPC   C4A21690  43.798   9.272   7.880
 1397POPC   C1B21691  43.651   8.421   8.780
 1397POPC   C2B21692  43.536   8.461   8.326
 1397POPC   C3B21693  43.639   8.660   7.930
 1397POPC   C4B21694  43.628   8.571   7.483
 1398POPC   NC321695  27.631   0.921   9.724
 1398POPC   PO421696  27.358   1.550   9.519
 1398POPC   GL121697  27.440   1.247   9.225
 1398POPC   GL221698  27.759   1.176   9.303
 1398POPC   C1A21699  27.347   1.226   8.780
 1398POPC   D2A21700  27.059   1.367   8.434
 1398POPC   C3A21701  27.321   1.355   8.031
 1398POPC   C4A21702  27.735   1.459   7.819
 1398POPC   C1B21703  27.832   1.125   8.868
 1398POPC   C2B21704  27.726   1.221   8.431
 1398POPC   C3B21705  27.745   1.008   8.053
 1398POPC   C4B21706  28.076   1.070   7.757
 1399POPC   NC321707   9.616  10.255   9.530
 1399POPC   PO421708   9.846   9.618   9.498
 1399POPC   GL121709   9.571   9.708   9.158
 1399POPC   GL221710   9.651  10.047   9.040
 1399POPC   C1A21711   9.672   9.593   8.735
 1399POPC   D2A21712   9.652   9.785   8.336
 1399POPC   C3A21713   9.655   9.563   7.946
 1399POPC   C4A21714   9.455   9.798   7.649
 1399POPC   C1B21715  10.047   9.927   8.822
 1399POPC   C2B21716  10.145   9.598   8.526
 1399POPC   C3B21717  10.113   9.677   8.105
 1399POPC   C4B21718   9.900  10.022   7.858
 1400POPC   NC321719  25.345  33.594   9.656
 1400POPC   PO421720  24.900  34.020   9.440
 1400POPC   GL121721  25.246  33.836   9.175
 1400POPC   GL221722  25.263  33.472   9.099
 1400POPC   C1A21723  25.457  33.845   8.766
 1400POPC   D2A21724  25.694  33.894   8.356
 1400POPC   C3A21725  25.355  33.943   8.038
 1400POPC   C4A21726  24.929  33.882   7.880
 1400POPC   C1B21727  25.546  33.327   8.795
 1400POPC   C2B21728  25.704  33.264   8.387
 1400POPC   C3B21729  25.623  33.487   8.005
 1400POPC   C4B21730  25.275  33.537   7.732
 1401POPC   NC321731  34.464  40.376   9.551
 1401POPC   PO421732  34.961  40.830   9.437
 1401POPC   GL121733  34.812  40.733   9.044
 1401POPC   GL221734  34.472  40.622   9.104
 1401POPC   C1A21735  34.711  40.586   8.648
 1401POPC   D2A21736  34.664  40.772   8.243
 1401POPC   C3A21737  34.839  40.560   7.893
 1401POPC   C4A21738  34.774  40.696   7.447
 1401POPC   C1B21739  34.189  40.862   8.848
 1401POPC   C2B21740  34.112  41.018   8.453
 1401POPC   C3B21741  34.183  40.828   8.081
 1401POPC   C4B21742  34.335  40.641   7.700
 1402POPC   NC321743  35.438  15.394   9.334
 1402POPC   PO421744  34.883  14.969   9.398
 1402POPC   GL121745  35.169  15.061   9.038
 1402POPC   GL221746  35.546  15.013   9.003
 1402POPC   C1A21747  35.193  15.300   8.690
 1402POPC   D2A21748  35.453  15.273   8.301
 1402POPC   C3A21749  35.283  15.014   8.013
 1402POPC   C4A21750  35.195  15.061   7.616
 1402POPC   C1B21751  35.687  15.396   8.736
 1402POPC   C2B21752  35.745  15.703   8.421
 1402POPC   C3B21753  35.865  15.528   8.023
 1402POPC   C4B21754  35.611  15.320   7.782
 1403POPC   NC321755  28.067   2.675   9.648
 1403POPC   PO421756  28.701   2.763   9.572
 1403POPC   GL121757  28.537   2.769   9.214
 1403POPC   GL221758  28.252   2.879   9.222
 1403POPC   C1A21759  28.585   2.685   8.810
 1403POPC   D2A21760  28.512   2.705   8.408
 1403POPC   C3A21761  28.505   2.835   8.007
 1403POPC   C4A21762  28.607   2.767   7.615
 1403POPC   C1B21763  28.079   2.715   8.895
 1403POPC   C2B21764  28.023   2.837   8.484
 1403POPC   C3B21765  28.026   2.960   8.081
 1403POPC   C4B21766  28.078   2.723   7.751
 1404POPC   NC321767  36.636  34.630   9.548
 1404POPC   PO421768  37.218  34.367   9.521
 1404POPC   GL121769  36.967  34.558   9.173
 1404POPC   GL221770  36.571  34.522   9.068
 1404POPC   C1A21771  36.971  34.494   8.755
 1404POPC   D2A21772  36.721  34.642   8.435
 1404POPC   C3A21773  36.831  34.595   8.066
 1404POPC   C4A21774  36.809  34.400   7.674
 1404POPC   C1B21775  36.691  34.920   8.840
 1404POPC   C2B21776  37.089  34.996   8.567
 1404POPC   C3B21777  37.217  34.998   8.110
 1404POPC   C4B21778  37.150  34.765   7.741
 1405POPC   NC321779   8.365  30.271   9.440
 1405POPC   PO421780   8.356  30.910   9.636
 1405POPC   GL121781   8.330  30.716   9.194
 1405POPC   GL221782   8.402  31.003   9.097
 1405POPC   C1A21783   8.189  30.406   8.807
 1405POPC   D2A21784   8.369  30.214   8.411
 1405POPC   C3A21785   8.251  30.281   7.968
 1405POPC   C4A21786   8.420  30.623   7.697
 1405POPC   C1B21787   8.069  30.910   8.770
 1405POPC   C2B21788   7.959  30.676   8.380
 1405POPC   C3B21789   7.961  30.710   7.923
 1405POPC   C4B21790   8.086  30.996   7.583
 1406POPC   NC321791  39.230   0.153   9.874
 1406POPC   PO421792  39.370   0.772   9.646
 1406POPC   GL121793  39.186   0.596   9.261
 1406POPC   GL221794  39.170   0.238   9.224
 1406POPC   C1A21795  39.087   0.579   8.809
 1406POPC   D2A21796  38.878   0.684   8.421
 1406POPC   C3A21797  39.089   0.765   8.070
 1406POPC   C4A21798  39.032   0.740   7.648
 1406POPC   C1B21799  39.228   0.104   8.788
 1406POPC   C2B21800  39.024   0.183   8.387
 1406POPC   C3B21801  39.102   0.180   7.942
 1406POPC   C4B21802  39.497   0.010   7.806
 1407POPC   NC321803   0.548  15.997   9.489
 1407POPC   PO421804   0.003  15.816   9.753
 1407POPC   GL121805   0.107  15.715   9.316
 1407POPC   GL221806   0.109  16.077   9.262
 1407POPC   C1A21807   0.349  15.762   8.903
 1407POPC   D2A21808   0.631  15.864   8.537
 1407POPC   C3A21809   0.541  15.755   8.108
 1407POPC   C4A21810   0.614  15.948   7.714
 1407POPC   C1B21811   0.273  16.334   8.910
 1407POPC   C2B21812   0.173  16.438   8.491
 1407POPC   C3B21813   0.385  16.246   8.148
 1407POPC   C4B21814   0.200  16.301   7.770
 1408POPC   NC321815  18.643   9.604   9.473
 1408POPC   PO421816  18.248  10.062   9.745
 1408POPC   GL121817  18.220   9.993   9.293
 1408POPC   GL221818  17.894  10.092   9.119
 1408POPC   C1A21819  18.386   9.909   8.872
 1408POPC   D2A21820  18.252   9.859   8.425
 1408POPC   C3A21821  18.418   9.613   8.096
 1408POPC   C4A21822  18.493   9.785   7.708
 1408POPC   C1B21823  17.822   9.854   8.720
 1408POPC   C2B21824  17.763   9.815   8.250
 1408POPC   C3B21825  18.066   9.953   7.917
 1408POPC   C4B21826  18.248  10.215   7.603
 1409POPC   NC321827  20.197  10.606   9.671
 1409POPC   PO421828  19.587  10.568   9.659
 1409POPC   GL121829  19.760  10.450   9.242
 1409POPC   GL221830  20.125  10.377   9.216
 1409POPC   C1A21831  19.639  10.597   8.806
 1409POPC   D2A21832  19.835  10.709   8.414
 1409POPC   C3A21833  19.700  10.527   8.010
 1409POPC   C4A21834  19.647  10.727   7.619
 1409POPC   C1B21835  20.148  10.473   8.782
 1409POPC   C2B21836  20.358  10.628   8.401
 1409POPC   C3B21837  20.150  10.812   8.025
 1409POPC   C4B21838  20.213  10.437   7.816
 1410POPC   NC321839  28.045   8.001   9.531
 1410POPC   PO421840  27.453   8.191   9.384
 1410POPC   GL121841  27.826   8.153   9.097
 1410POPC   GL221842  27.652   8.429   8.919
 1410POPC   C1A21843  27.958   8.153   8.649
 1410POPC   D2A21844  27.656   8.078   8.314
 1410POPC   C3A21845  27.635   8.397   8.036
 1410POPC   C4A21846  27.710   8.380   7.648
 1410POPC   C1B21847  27.493   7.958   8.782
 1410POPC   C2B21848  27.353   7.655   8.466
 1410POPC   C3B21849  27.184   7.859   8.128
 1410POPC   C4B21850  27.354   8.040   7.746
 1411POPC   NC321851  37.789  28.081   9.790
 1411POPC   PO421852  37.746  27.413   9.550
 1411POPC   GL121853  37.780  27.436   9.130
 1411POPC   GL221854  37.975  27.715   9.154
 1411POPC   C1A21855  37.606  27.509   8.713
 1411POPC   D2A21856  37.741  27.749   8.349
 1411POPC   C3A21857  37.585  27.773   7.934
 1411POPC   C4A21858  37.712  27.640   7.524
 1411POPC   C1B21859  37.916  27.923   8.793
 1411POPC   C2B21860  38.058  28.148   8.441
 1411POPC   C3B21861  38.050  28.025   8.050
 1411POPC   C4B21862  38.003  28.119   7.648
 1412POPC   NC321863  21.425  29.041   9.353
 1412POPC   PO421864  21.092  29.540   9.742
 1412POPC   GL121865  21.131  29.423   9.205
 1412POPC   GL221866  21.513  29.335   8.983
 1412POPC   C1A21867  21.093  29.252   8.736
 1412POPC   D2A21868  21.388  29.245   8.365
 1412POPC   C3A21869  21.247  29.074   7.946
 1412POPC   C4A21870  21.200  29.262   7.510
 1412POPC   C1B21871  21.831  29.366   8.675
 1412POPC   C2B21872  21.899  29.204   8.268
 1412POPC   C3B21873  21.737  29.198   7.858
 1412POPC   C4B21874  21.853  29.254   7.384
 1413POPC   NC321875  19.933   2.205   9.571
 1413POPC   PO421876  19.392   1.906   9.439
 1413POPC   GL121877  19.617   2.108   9.098
 1413POPC   GL221878  19.989   2.041   9.094
 1413POPC   C1A21879  19.747   2.086   8.648
 1413POPC   D2A21880  20.143   2.058   8.401
 1413POPC   C3A21881  20.052   1.915   8.011
 1413POPC   C4A21882  19.799   2.127   7.729
 1413POPC   C1B21883  20.017   2.458   8.925
 1413POPC   C2B21884  20.066   2.583   8.500
 1413POPC   C3B21885  19.909   2.463   8.109
 1413POPC   C4B21886  19.927   2.641   7.691
 1414POPC   NC321887  11.474  27.197   9.388
 1414POPC   PO421888  11.614  27.755   9.656
 1414POPC   GL121889  11.315  27.766   9.233
 1414POPC   GL221890  11.211  27.444   9.028
 1414POPC   C1A21891  11.128  27.866   8.781
 1414POPC   D2A21892  11.068  27.593   8.399
 1414POPC   C3A21893  11.082  27.708   7.955
 1414POPC   C4A21894  11.020  28.117   7.754
 1414POPC   C1B21895  11.576  27.504   8.751
 1414POPC   C2B21896  11.756  27.461   8.328
 1414POPC   C3B21897  11.546  27.482   7.931
 1414POPC   C4B21898  11.371  27.275   7.576
 1415POPC   NC321899   9.195  34.489   9.518
 1415POPC   PO421900   9.015  35.105   9.356
 1415POPC   GL121901   8.852  34.697   9.134
 1415POPC   GL221902   9.010  34.366   9.052
 1415POPC   C1A21903   8.647  34.550   8.720
 1415POPC   D2A21904   8.603  34.669   8.274
 1415POPC   C3A21905   8.889  34.655   7.969
 1415POPC   C4A21906   9.090  34.324   7.830
 1415POPC   C1B21907   9.166  34.620   8.723
 1415POPC   C2B21908   9.183  34.847   8.353
 1415POPC   C3B21909   9.395  34.743   7.957
 1415POPC   C4B21910   9.317  34.688   7.519
 1416POPC   NC321911  30.528   5.604   9.329
 1416POPC   PO421912  30.826   6.212   9.477
 1416POPC   GL121913  30.873   5.969   9.129
 1416POPC   GL221914  31.177   6.133   9.078
 1416POPC   C1A21915  30.606   5.880   8.740
 1416POPC   D2A21916  30.538   6.128   8.372
 1416POPC   C3A21917  30.525   5.949   7.952
 1416POPC   C4A21918  30.548   5.817   7.508
 1416POPC   C1B21919  30.979   6.239   8.710
 1416POPC   C2B21920  31.087   6.380   8.349
 1416POPC   C3B21921  30.988   6.332   7.946
 1416POPC   C4B21922  30.955   6.046   7.667
 1417POPC   NC321923  33.077  31.210   9.585
 1417POPC   PO421924  32.635  31.587   9.359
 1417POPC   GL121925  33.065  31.464   9.158
 1417POPC   GL221926  33.179  31.783   9.154
 1417POPC   C1A21927  33.244  31.245   8.786
 1417POPC   D2A21928  32.989  30.990   8.543
 1417POPC   C3A21929  32.966  30.999   8.093
 1417POPC   C4A21930  32.785  31.089   7.684
 1417POPC   C1B21931  32.984  31.693   8.723
 1417POPC   C2B21932  33.083  31.468   8.337
 1417POPC   C3B21933  32.788  31.469   8.026
 1417POPC   C4B21934  32.763  31.679   7.680
 1418POPC   NC321935  33.908  12.649   9.703
 1418POPC   PO421936  33.957  13.243   9.654
 1418POPC   GL121937  33.998  13.012   9.241
 1418POPC   GL221938  34.062  12.660   9.176
 1418POPC   C1A21939  33.996  13.064   8.761
 1418POPC   D2A21940  33.818  13.017   8.326
 1418POPC   C3A21941  34.025  12.991   7.923
 1418POPC   C4A21942  33.997  13.245   7.507
 1418POPC   C1B21943  34.050  12.540   8.728
 1418POPC   C2B21944  33.955  12.520   8.270
 1418POPC   C3B21945  33.738  12.534   7.854
 1418POPC   C4B21946  33.576  12.421   7.424
 1419POPC   NC321947   9.726  20.524   9.471
 1419POPC   PO421948   9.433  20.945   9.818
 1419POPC   GL121949   9.434  20.900   9.305
 1419POPC   GL221950   9.350  20.547   9.121
 1419POPC   C1A21951   9.723  20.804   8.908
 1419POPC   D2A21952   9.604  20.692   8.491
 1419POPC   C3A21953   9.751  20.970   8.173
 1419POPC   C4A21954   9.830  20.830   7.767
 1419POPC   C1B21955   9.623  20.275   8.821
 1419POPC   C2B21956   9.937  20.287   8.460
 1419POPC   C3B21957   9.881  20.396   8.028
 1419POPC   C4B21958  10.054  20.303   7.615
 1420POPC   NC321959  29.066   9.463   9.688
 1420POPC   PO421960  28.845  10.051   9.580
 1420POPC   GL121961  28.935   9.720   9.271
 1420POPC   GL221962  29.296   9.568   9.251
 1420POPC   C1A21963  28.998   9.637   8.856
 1420POPC   D2A21964  29.031   9.841   8.504
 1420POPC   C3A21965  29.017   9.637   8.111
 1420POPC   C4A21966  28.922   9.917   7.783
 1420POPC   C1B21967  29.483   9.444   8.856
 1420POPC   C2B21968  29.403   9.508   8.454
 1420POPC   C3B21969  29.538   9.541   8.057
 1420POPC   C4B21970  29.344   9.625   7.706
 1421POPC   NC321971  33.416  38.176   9.309
 1421POPC   PO421972  33.105  38.690   9.704
 1421POPC   GL121973  33.068  38.777   9.222
 1421POPC   GL221974  33.206  38.518   9.003
 1421POPC   C1A21975  32.771  38.718   8.844
 1421POPC   D2A21976  32.942  38.502   8.505
 1421POPC   C3A21977  32.872  38.624   8.080
 1421POPC   C4A21978  32.667  38.340   7.835
 1421POPC   C1B21979  33.472  38.551   8.645
 1421POPC   C2B21980  33.370  38.534   8.243
 1421POPC   C3B21981  33.221  38.285   7.972
 1421POPC   C4B21982  33.513  38.431   7.717
 1422POPC   NC321983  40.576  26.814   9.453
 1422POPC   PO421984  40.544  27.487   9.444
 1422POPC   GL121985  40.609  27.213   9.078
 1422POPC   GL221986  40.301  26.981   9.064
 1422POPC   C1A21987  40.691  26.936   8.697
 1422POPC   D2A21988  40.684  26.892   8.245
 1422POPC   C3A21989  40.851  26.597   8.021
 1422POPC   C4A21990  41.153  26.802   7.804
 1422POPC   C1B21991  40.320  26.566   8.818
 1422POPC   C2B21992  40.504  26.423   8.405
 1422POPC   C3B21993  40.333  26.531   8.006
 1422POPC   C4B21994  40.524  26.577   7.595
 1423POPC   NC321995  20.965  10.777   9.488
 1423POPC   PO421996  20.492  10.256   9.628
 1423POPC   GL121997  20.662  10.412   9.218
 1423POPC   GL221998  20.511  10.685   9.072
 1423POPC   C1A21999  20.646  10.254   8.778
 1423POPC   D2A22000  20.910  10.229   8.397
 1423POPC   C3A22001  20.671  10.272   8.041
 1423POPC   C4A22002  20.667  10.343   7.603
 1423POPC   C1B22003  20.827  10.743   8.758
 1423POPC   C2B22004  20.893  10.722   8.309
 1423POPC   C3B22005  20.638  10.762   7.942
 1423POPC   C4B22006  20.426  10.983   7.619
 1424POPC   NC322007  26.445  19.295   9.794
 1424POPC   PO422008  27.015  19.294   9.405
 1424POPC   GL122009  26.659  19.095   9.163
 1424POPC   GL222010  26.536  19.335   8.893
 1424POPC   C1A22011  26.706  18.871   8.759
 1424POPC   D2A22012  27.002  18.926   8.407
 1424POPC   C3A22013  26.813  18.990   8.016
 1424POPC   C4A22014  26.816  18.730   7.680
 1424POPC   C1B22015  26.999  19.330   8.735
 1424POPC   C2B22016  27.171  19.526   8.341
 1424POPC   C3B22017  27.035  19.454   7.903
 1424POPC   C4B22018  26.979  19.187   7.517
 1425POPC   NC322019  42.920   5.783   9.258
 1425POPC   PO422020  43.565   5.469   9.458
 1425POPC   GL122021  43.422   5.737   9.153
 1425POPC   GL222022  43.461   6.078   9.118
 1425POPC   C1A22023  43.312   5.719   8.737
 1425POPC   D2A22024  43.168   5.553   8.351
 1425POPC   C3A22025  43.296   5.732   7.979
 1425POPC   C4A22026  42.932   5.589   7.764
 1425POPC   C1B22027  43.423   6.238   8.701
 1425POPC   C2B22028  43.210   6.126   8.319
 1425POPC   C3B22029  43.148   6.203   7.878
 1425POPC   C4B22030  43.445   6.064   7.601
 1426POPC   NC322031  24.036  32.036   9.640
 1426POPC   PO422032  24.127  32.692   9.542
 1426POPC   GL122033  24.390  32.422   9.227
 1426POPC   GL222034  24.749  32.484   9.121
 1426POPC   C1A22035  24.409  32.247   8.799
 1426POPC   D2A22036  24.298  32.057   8.397
 1426POPC   C3A22037  24.377  32.292   8.001
 1426POPC   C4A22038  24.234  32.562   7.655
 1426POPC   C1B22039  24.949  32.425   8.741
 1426POPC   C2B22040  24.768  32.307   8.367
 1426POPC   C3B22041  24.907  32.281   7.954
 1426POPC   C4B22042  24.678  32.288   7.577
 1427POPC   NC322043  19.145  19.912   9.482
 1427POPC   PO422044  18.574  19.603   9.300
 1427POPC   GL122045  18.935  19.823   9.033
 1427POPC   GL222046  19.319  20.030   9.036
 1427POPC   C1A22047  19.018  19.979   8.631
 1427POPC   D2A22048  19.256  20.079   8.271
 1427POPC   C3A22049  19.025  19.865   7.957
 1427POPC   C4A22050  18.916  20.171   7.640
 1427POPC   C1B22051  19.425  19.700   8.819
 1427POPC   C2B22052  19.291  19.568   8.423
 1427POPC   C3B22053  19.417  19.464   8.026
 1427POPC   C4B22054  19.329  19.526   7.647
 1428POPC   NC322055  25.713  32.063   9.366
 1428POPC   PO422056  25.123  32.238   9.513
 1428POPC   GL122057  25.286  32.417   9.147
 1428POPC   GL222058  25.271  32.081   9.056
 1428POPC   C1A22059  25.475  32.408   8.718
 1428POPC   D2A22060  25.291  32.397   8.289
 1428POPC   C3A22061  25.584  32.283   7.916
 1428POPC   C4A22062  25.512  32.002   7.566
 1428POPC   C1B22063  25.291  31.912   8.700
 1428POPC   C2B22064  25.098  31.919   8.352
 1428POPC   C3B22065  25.257  31.909   7.999
 1428POPC   C4B22066  25.016  31.888   7.637
 1429POPC   NC322067  25.839  27.717   9.378
 1429POPC   PO422068  26.221  27.143   9.520
 1429POPC   GL122069  26.204  27.399   9.168
 1429POPC   GL222070  25.875  27.369   9.004
 1429POPC   C1A22071  26.339  27.348   8.763
 1429POPC   D2A22072  26.087  27.314   8.407
 1429POPC   C3A22073  26.243  27.503   8.066
 1429POPC   C4A22074  26.124  27.755   7.711
 1429POPC   C1B22075  25.989  27.730   8.726
 1429POPC   C2B22076  25.959  27.886   8.300
 1429POPC   C3B22077  25.683  27.985   7.933
 1429POPC   C4B22078  25.684  27.829   7.475
 1430POPC   NC322079   2.184  40.040   9.799
 1430POPC   PO422080   1.719  40.013   9.273
 1430POPC   GL122081   1.919  39.885   8.925
 1430POPC   GL222082   1.962  40.216   8.849
 1430POPC   C1A22083   1.876  39.880   8.493
 1430POPC   D2A22084   1.566  40.183   8.329
 1430POPC   C3A22085   1.668  40.220   7.909
 1430POPC   C4A22086   1.915  39.906   7.762
 1430POPC   C1B22087   2.297  40.393   8.715
 1430POPC   C2B22088   2.274  40.547   8.333
 1430POPC   C3B22089   2.398  40.466   7.918
 1430POPC   C4B22090   2.352  40.144   7.687
 1431POPC   NC322091  21.012  41.951   9.378
 1431POPC   PO422092  21.371  41.389   9.494
 1431POPC   GL122093  21.186  41.499   9.135
 1431POPC   GL222094  21.415  41.778   9.124
 1431POPC   C1A22095  21.144  41.633   8.709
 1431POPC   D2A22096  21.047  41.577   8.289
 1431POPC   C3A22097  21.330  41.593   7.966
 1431POPC   C4A22098  21.363  41.291   7.653
 1431POPC   C1B22099  21.610  41.474   8.828
 1431POPC   C2B22100  21.655  41.469   8.380
 1431POPC   C3B22101  21.808  41.768   8.058
 1431POPC   C4B22102  21.746  41.643   7.655
 1432POPC   NC322103  36.461  35.248   9.404
 1432POPC   PO422104  35.859  35.617   9.533
 1432POPC   GL122105  35.970  35.311   9.238
 1432POPC   GL222106  36.195  35.525   9.081
 1432POPC   C1A22107  35.883  35.202   8.794
 1432POPC   D2A22108  35.779  35.427   8.420
 1432POPC   C3A22109  35.808  35.216   8.036
 1432POPC   C4A22110  35.928  35.338   7.599
 1432POPC   C1B22111  36.272  35.518   8.660
 1432POPC   C2B22112  36.235  35.151   8.376
 1432POPC   C3B22113  36.296  35.212   7.930
 1432POPC   C4B22114  36.570  35.537   7.834
 1433POPC   NC322115  38.974   9.226   9.466
 1433POPC   PO422116  39.268   9.878   9.380
 1433POPC   GL122117  39.278   9.509   9.106
 1433POPC   GL222118  38.990   9.537   9.064
 1433POPC   C1A22119  39.566   9.536   8.757
 1433POPC   D2A22120  39.757   9.859   8.486
 1433POPC   C3A22121  39.451   9.957   8.142
 1433POPC   C4A22122  39.313   9.653   7.817
 1433POPC   C1B22123  39.010   9.792   8.709
 1433POPC   C2B22124  39.059   9.647   8.283
 1433POPC   C3B22125  38.814   9.652   7.914
 1433POPC   C4B22126  38.676  10.000   7.676
 1434POPC   NC322127  39.606  40.333   9.499
 1434POPC   PO422128  38.934  40.575   9.645
 1434POPC   GL122129  38.985  40.799   9.245
 1434POPC   GL222130  39.336  40.695   9.214
 1434POPC   C1A22131  39.064  40.956   8.829
 1434POPC   D2A22132  38.958  40.717   8.460
 1434POPC   C3A22133  39.051  40.945   8.079
 1434POPC   C4A22134  38.977  40.769   7.693
 1434POPC   C1B22135  39.325  40.529   8.821
 1434POPC   C2B22136  39.461  40.763   8.443
 1434POPC   C3B22137  39.429  40.605   8.045
 1434POPC   C4B22138  39.472  40.809   7.693
 1435POPC   NC322139  35.101  33.711   9.576
 1435POPC   PO422140  35.640  34.034   9.406
 1435POPC   GL122141  35.270  33.906   9.106
 1435POPC   GL222142  35.076  33.564   9.104
 1435POPC   C1A22143  35.374  33.678   8.700
 1435POPC   D2A22144  35.513  33.398   8.347
 1435POPC   C3A22145  35.656  33.695   8.047
 1435POPC   C4A22146  35.830  33.765   7.686
 1435POPC   C1B22147  34.859  33.605   8.749
 1435POPC   C2B22148  35.024  33.575   8.336
 1435POPC   C3B22149  35.169  33.622   7.905
 1435POPC   C4B22150  35.017  33.406   7.561
 1436POPC   NC322151  36.005  11.223   9.589
 1436POPC   PO422152  36.002  11.762   9.237
 1436POPC   GL122153  36.043  11.352   9.088
 1436POPC   GL222154  36.319  11.133   9.157
 1436POPC   C1A22155  36.098  11.264   8.659
 1436POPC   D2A22156  36.089  11.605   8.358
 1436POPC   C3A22157  35.853  11.501   8.023
 1436POPC   C4A22158  35.844  11.090   7.824
 1436POPC   C1B22159  36.559  11.371   8.856
 1436POPC   C2B22160  36.558  11.293   8.405
 1436POPC   C3B22161  36.319  11.261   8.028
 1436POPC   C4B22162  36.321  11.654   7.814
 1437POPC   NC322163  41.161  25.859   9.571
 1437POPC   PO422164  40.616  26.193   9.817
 1437POPC   GL122165  40.747  26.142   9.316
 1437POPC   GL222166  41.076  26.070   9.133
 1437POPC   C1A22167  40.745  26.281   8.843
 1437POPC   D2A22168  41.036  26.333   8.477
 1437POPC   C3A22169  40.890  26.094   8.128
 1437POPC   C4A22170  40.569  26.130   7.839
 1437POPC   C1B22171  40.985  25.803   8.754
 1437POPC   C2B22172  40.977  25.507   8.414
 1437POPC   C3B22173  41.066  25.602   8.005
 1437POPC   C4B22174  40.933  25.843   7.664
 1438POPC   NC322175  22.244  22.499   9.537
 1438POPC   PO422176  21.710  22.646   9.147
 1438POPC   GL122177  22.143  22.737   9.069
 1438POPC   GL222178  22.295  23.026   9.235
 1438POPC   C1A22179  22.159  22.717   8.612
 1438POPC   D2A22180  21.842  22.982   8.356
 1438POPC   C3A22181  21.983  23.172   7.976
 1438POPC   C4A22182  21.940  23.242   7.567
 1438POPC   C1B22183  22.492  23.065   8.806
 1438POPC   C2B22184  22.368  23.095   8.341
 1438POPC   C3B22185  22.387  22.852   7.919
 1438POPC   C4B22186  22.459  22.643   7.499
 1439POPC   NC322187  15.336   8.036   9.388
 1439POPC   PO422188  14.998   8.661   9.525
 1439POPC   GL122189  15.169   8.476   9.153
 1439POPC   GL222190  14.964   8.185   9.105
 1439POPC   C1A22191  15.203   8.353   8.704
 1439POPC   D2A22192  15.349   8.050   8.400
 1439POPC   C3A22193  15.289   8.269   8.006
 1439POPC   C4A22194  15.482   8.340   7.616
 1439POPC   C1B22195  14.983   7.858   8.788
 1439POPC   C2B22196  15.028   7.628   8.418
 1439POPC   C3B22197  15.092   7.782   8.024
 1439POPC   C4B22198  15.135   7.944   7.628
 1440POPC   NC322199  26.609  37.249   9.508
 1440POPC   PO422200  26.833  37.940   9.463
 1440POPC   GL122201  26.701  37.659   9.174
 1440POPC   GL222202  26.976  37.398   9.208
 1440POPC   C1A22203  26.590  37.741   8.754
 1440POPC   D2A22204  26.831  37.781   8.359
 1440POPC   C3A22205  26.581  37.740   7.994
 1440POPC   C4A22206  26.535  37.535   7.625
 1440POPC   C1B22207  27.042  37.482   8.792
 1440POPC   C2B22208  27.069  37.299   8.394
 1440POPC   C3B22209  26.818  37.287   8.058
 1440POPC   C4B22210  27.014  37.499   7.766
 1441POPC   NC322211  13.808   8.859   9.417
 1441POPC   PO422212  13.502   9.459   9.487
 1441POPC   GL122213  13.733   9.290   9.113
 1441POPC   GL222214  13.463   9.075   9.102
 1441POPC   C1A22215  13.840   8.950   8.743
 1441POPC   D2A22216  13.691   8.725   8.325
 1441POPC   C3A22217  13.626   9.051   8.001
 1441POPC   C4A22218  13.812   9.153   7.603
 1441POPC   C1B22219  13.437   9.263   8.704
 1441POPC   C2B22220  13.288   8.995   8.401
 1441POPC   C3B22221  13.204   8.676   8.123
 1441POPC   C4B22222  13.264   8.721   7.722
 1442POPC   NC322223  44.908  43.630   9.669
 1442POPC   PO422224  44.234  43.901   9.507
 1442POPC   GL122225  44.437  43.826   9.111
 1442POPC   GL222226  44.730  43.610   9.178
 1442POPC   C1A22227  44.522  44.053   8.697
 1442POPC   D2A22228  44.709  44.232   8.297
 1442POPC   C3A22229  44.507  44.078   7.920
 1442POPC   C4A22230  44.385  43.788   7.566
 1442POPC   C1B22231  44.754  43.608   8.716
 1442POPC   C2B22232  44.612  43.725   8.275
 1442POPC   C3B22233  44.837  43.649   7.860
 1442POPC   C4B22234   0.005  43.556   7.383
 1443POPC   NC322235  34.404  20.274   9.570
 1443POPC   PO422236  35.083  20.440   9.620
 1443POPC   GL122237  34.816  20.424   9.177
 1443POPC   GL222238  34.448  20.379   9.092
 1443POPC   C1A22239  34.787  20.369   8.711
 1443POPC   D2A22240  34.617  20.510   8.303
 1443POPC   C3A22241  34.893  20.366   7.996
 1443POPC   C4A22242  34.886  20.394   7.599
 1443POPC   C1B22243  34.306  20.560   8.731
 1443POPC   C2B22244  34.283  20.890   8.450
 1443POPC   C3B22245  34.284  20.909   8.011
 1443POPC   C4B22246  34.402  20.572   7.718
 1444POPC   NC322247   9.802   7.173   9.516
 1444POPC   PO422248  10.166   7.835   9.484
 1444POPC   GL122249   9.916   7.546   9.182
 1444POPC   GL222250  10.066   7.195   9.096
 1444POPC   C1A22251   9.800   7.441   8.735
 1444POPC   D2A22252  10.025   7.534   8.356
 1444POPC   C3A22253   9.769   7.629   7.995
 1444POPC   C4A22254   9.524   7.385   7.728
 1444POPC   C1B22255  10.310   7.210   8.738
 1444POPC   C2B22256  10.236   7.054   8.342
 1444POPC   C3B22257   9.897   7.121   8.091
 1444POPC   C4B22258  10.023   7.283   7.694
 1445POPC   NC322259  26.457  42.422   9.494
 1445POPC   PO422260  27.077  42.113   9.615
 1445POPC   GL122261  26.891  42.236   9.228
 1445POPC   GL222262  26.794  42.582   9.147
 1445POPC   C1A22263  26.831  42.256   8.776
 1445POPC   D2A22264  26.766  42.555   8.512
 1445POPC   C3A22265  26.805  42.424   8.130
 1445POPC   C4A22266  26.820  42.441   7.709
 1445POPC   C1B22267  26.428  42.691   8.856
 1445POPC   C2B22268  26.346  42.811   8.379
 1445POPC   C3B22269  26.440  42.700   7.904
 1445POPC   C4B22270  26.371  42.435   7.470
 1446POPC   NC322271  23.107  40.006   9.580
 1446POPC   PO422272  22.398  40.166   9.466
 1446POPC   GL122273  22.798  40.147   9.187
 1446POPC   GL222274  23.171  40.204   9.129
 1446POPC   C1A22275  22.871  39.962   8.778
 1446POPC   D2A22276  22.648  40.061   8.408
 1446POPC   C3A22277  22.881  40.173   8.069
 1446POPC   C4A22278  22.900  39.960   7.704
 1446POPC   C1B22279  23.076  40.442   8.794
 1446POPC   C2B22280  23.039  40.560   8.401
 1446POPC   C3B22281  23.294  40.494   8.078
 1446POPC   C4B22282  23.207  40.348   7.696
 1447POPC   NC322283  13.172  31.064   9.460
 1447POPC   PO422284  12.718  31.283   9.694
 1447POPC   GL122285  12.691  31.396   9.216
 1447POPC   GL222286  12.479  31.685   9.094
 1447POPC   C1A22287  12.666  31.328   8.734
 1447POPC   D2A22288  12.710  31.067   8.325
 1447POPC   C3A22289  12.645  31.301   7.946
 1447POPC   C4A22290  12.954  31.626   7.821
 1447POPC   C1B22291  12.500  31.816   8.638
 1447POPC   C2B22292  12.586  31.727   8.207
 1447POPC   C3B22293  12.496  31.825   7.772
 1447POPC   C4B22294  12.777  31.912   7.401
 1448POPC   NC322295  15.489  44.207   9.381
 1448POPC   PO422296  16.101  44.109   9.414
 1448POPC   GL122297  15.824  43.838   9.178
 1448POPC   GL222298  15.457  43.696   9.245
 1448POPC   C1A22299  15.928  43.829   8.762
 1448POPC   D2A22300  16.162  43.881   8.400
 1448POPC   C3A22301  15.992  43.747   8.013
 1448POPC   C4A22302  16.017  43.846   7.579
 1448POPC   C1B22303  15.418  43.814   8.787
 1448POPC   C2B22304  15.632  43.995   8.376
 1448POPC   C3B22305  15.659  44.108   7.932
 1448POPC   C4B22306  15.535  43.925   7.527
 1449POPC   NC322307   9.553   1.787   9.823
 1449POPC   PO422308   8.966   1.906   9.483
 1449POPC   GL122309   8.967   2.077   9.103
 1449POPC   GL222310   9.316   2.094   9.136
 1449POPC   C1A22311   8.754   1.965   8.736
 1449POPC   D2A22312   8.655   2.112   8.334
 1449POPC   C3A22313   8.813   1.818   8.044
 1449POPC   C4A22314   9.146   1.765   7.750
 1449POPC   C1B22315   9.341   1.918   8.771
 1449POPC   C2B22316   9.159   1.915   8.400
 1449POPC   C3B22317   9.174   2.191   8.089
 1449POPC   C4B22318   9.276   2.276   7.675
 1450POPC   NC322319  31.993   5.438   9.747
 1450POPC   PO422320  32.415   5.901   9.725
 1450POPC   GL122321  32.212   5.941   9.296
 1450POPC   GL222322  31.992   5.650   9.218
 1450POPC   C1A22323  32.300   5.854   8.855
 1450POPC   D2A22324  32.148   5.941   8.445
 1450POPC   C3A22325  32.468   5.873   8.129
 1450POPC   C4A22326  32.372   5.872   7.690
 1450POPC   C1B22327  31.787   5.748   8.778
 1450POPC   C2B22328  31.720   5.704   8.284
 1450POPC   C3B22329  31.875   5.790   7.840
 1450POPC   C4B22330  32.005   5.550   7.455
 1451POPC   NC322331   2.921  40.982   9.431
 1451POPC   PO422332   2.410  40.591   9.435
 1451POPC   GL122333   2.575  40.754   9.096
 1451POPC   GL222334   2.512  41.089   9.093
 1451POPC   C1A22335   2.709  40.674   8.694
 1451POPC   D2A22336   2.733  40.386   8.359
 1451POPC   C3A22337   2.861  40.633   8.038
 1451POPC   C4A22338   2.731  40.815   7.686
 1451POPC   C1B22339   2.817  41.174   8.789
 1451POPC   C2B22340   2.981  41.000   8.397
 1451POPC   C3B22341   2.999  41.136   7.978
 1451POPC   C4B22342   3.185  41.018   7.563
 1452POPC   NC322343  38.966  11.145   9.836
 1452POPC   PO422344  38.471  11.205   9.555
 1452POPC   GL122345  38.373  11.438   9.148
 1452POPC   GL222346  38.610  11.220   9.021
 1452POPC   C1A22347  38.210  11.294   8.725
 1452POPC   D2A22348  38.225  10.975   8.382
 1452POPC   C3A22349  38.341  11.176   8.006
 1452POPC   C4A22350  38.072  11.551   7.903
 1452POPC   C1B22351  38.666  10.986   8.640
 1452POPC   C2B22352  38.845  11.045   8.223
 1452POPC   C3B22353  38.926  11.241   7.800
 1452POPC   C4B22354  38.762  11.571   7.513
 1453POPC   NC322355  17.563   3.925   9.422
 1453POPC   PO422356  17.322   3.315   9.425
 1453POPC   GL122357  17.582   3.486   9.115
 1453POPC   GL222358  17.289   3.707   9.044
 1453POPC   C1A22359  17.837   3.602   8.740
 1453POPC   D2A22360  17.764   3.773   8.333
 1453POPC   C3A22361  17.852   3.552   7.947
 1453POPC   C4A22362  17.687   3.720   7.560
 1453POPC   C1B22363  17.339   3.498   8.648
 1453POPC   C2B22364  17.450   3.366   8.241
 1453POPC   C3B22365  17.335   3.588   7.892
 1453POPC   C4B22366  17.169   3.819   7.519
 1454POPC   NC322367  26.274  38.804   9.574
 1454POPC   PO422368  25.887  38.260   9.500
 1454POPC   GL122369  25.969  38.350   9.127
 1454POPC   GL222370  26.212  38.502   9.151
 1454POPC   C1A22371  25.813  38.478   8.749
 1454POPC   D2A22372  25.924  38.299   8.378
 1454POPC   C3A22373  25.930  38.570   8.031
 1454POPC   C4A22374  25.738  38.552   7.650
 1454POPC   C1B22375  26.328  38.454   8.731
 1454POPC   C2B22376  26.368  38.560   8.315
 1454POPC   C3B22377  26.449  38.597   7.876
 1454POPC   C4B22378  26.244  38.554   7.470
 1455POPC   NC322379  10.641  30.227   9.526
 1455POPC   PO422380  10.238  29.612   9.671
 1455POPC   GL122381  10.326  29.744   9.226
 1455POPC   GL222382  10.562  30.006   9.082
 1455POPC   C1A22383  10.145  29.950   8.834
 1455POPC   D2A22384  10.404  30.090   8.486
 1455POPC   C3A22385  10.272  29.977   8.078
 1455POPC   C4A22386  10.329  29.861   7.642
 1455POPC   C1B22387  10.782  29.850   8.723
 1455POPC   C2B22388  10.888  29.903   8.322
 1455POPC   C3B22389  10.760  29.833   7.940
 1455POPC   C4B22390  10.851  29.855   7.530
 1456POPC   NC322391  34.435  33.351   9.526
 1456POPC   PO422392  34.777  34.026   9.531
 1456POPC   GL122393  34.733  33.957   9.142
 1456POPC   GL222394  34.474  33.682   9.107
 1456POPC   C1A22395  34.833  34.115   8.767
 1456POPC   D2A22396  34.617  33.950   8.427
 1456POPC   C3A22397  34.819  33.963   8.056
 1456POPC   C4A22398  34.691  33.782   7.708
 1456POPC   C1B22399  34.177  33.430   8.829
 1456POPC   C2B22400  34.067  33.568   8.403
 1456POPC   C3B22401  34.305  33.706   8.044
 1456POPC   C4B22402  34.163  33.758   7.605
 1457POPC   NC322403  22.308  14.994   9.503
 1457POPC   PO422404  22.062  14.315   9.471
 1457POPC   GL122405  22.269  14.332   9.075
 1457POPC   GL222406  22.397  14.651   9.107
 1457POPC   C1A22407  22.269  14.370   8.616
 1457POPC   D2A22408  22.468  14.314   8.194
 1457POPC   C3A22409  22.214  14.292   7.822
 1457POPC   C4A22410  22.205  14.523   7.416
 1457POPC   C1B22411  22.300  14.869   8.735
 1457POPC   C2B22412  22.202  14.765   8.287
 1457POPC   C3B22413  22.340  14.772   7.862
 1457POPC   C4B22414  22.190  15.036   7.506
 1458POPC   NC322415  23.439  34.747   9.489
 1458POPC   PO422416  23.942  34.271   9.579
 1458POPC   GL122417  23.774  34.489   9.214
 1458POPC   GL222418  23.453  34.299   9.147
 1458POPC   C1A22419  23.537  34.712   8.830
 1458POPC   D2A22420  23.692  34.608   8.395
 1458POPC   C3A22421  23.443  34.487   8.048
 1458POPC   C4A22422  23.448  34.369   7.613
 1458POPC   C1B22423  23.739  34.261   8.775
 1458POPC   C2B22424  24.051  34.281   8.499
 1458POPC   C3B22425  23.957  34.296   8.054
 1458POPC   C4B22426  24.310  34.258   7.797
 1459POPC   NC322427  43.805  24.435   9.631
 1459POPC   PO422428  44.372  24.295   9.368
 1459POPC   GL122429  44.040  24.504   9.183
 1459POPC   GL222430  43.889  24.187   9.183
 1459POPC   C1A22431  43.911  24.767   8.837
 1459POPC   D2A22432  43.992  24.632   8.420
 1459POPC   C3A22433  43.788  24.806   8.099
 1459POPC   C4A22434  43.902  24.695   7.714
 1459POPC   C1B22435  43.902  24.256   8.745
 1459POPC   C2B22436  43.705  24.191   8.331
 1459POPC   C3B22437  43.884  24.049   7.945
 1459POPC   C4B22438  43.808  24.046   7.503
 1460POPC   NC322439  31.796  26.652   9.705
 1460POPC   PO422440  31.141  26.768   9.555
 1460POPC   GL122441  31.502  26.706   9.223
 1460POPC   GL222442  31.857  26.575   9.183
 1460POPC   C1A22443  31.447  26.635   8.784
 1460POPC   D2A22444  31.403  26.405   8.398
 1460POPC   C3A22445  31.352  26.654   8.069
 1460POPC   C4A22446  31.396  26.621   7.652
 1460POPC   C1B22447  31.929  26.769   8.783
 1460POPC   C2B22448  31.781  26.805   8.336
 1460POPC   C3B22449  31.858  26.681   7.881
 1460POPC   C4B22450  31.868  26.708   7.395
 1461POPC   NC322451  16.734  25.840   9.530
 1461POPC   PO422452  17.105  26.443   9.542
 1461POPC   GL122453  16.788  26.193   9.158
 1461POPC   GL222454  16.524  25.847   9.087
 1461POPC   C1A22455  16.629  26.124   8.706
 1461POPC   D2A22456  16.448  26.386   8.408
 1461POPC   C3A22457  16.602  26.145   8.121
 1461POPC   C4A22458  16.669  26.047   7.730
 1461POPC   C1B22459  16.972  25.787   8.915
 1461POPC   C2B22460  17.072  25.924   8.521
 1461POPC   C3B22461  17.021  25.842   8.098
 1461POPC   C4B22462  17.132  25.866   7.697
 1462POPC   NC322463  12.699   0.929   9.483
 1462POPC   PO422464  13.130   0.415   9.421
 1462POPC   GL122465  12.708   0.461   9.184
 1462POPC   GL222466  12.624   0.783   9.001
 1462POPC   C1A22467  12.535   0.328   8.764
 1462POPC   D2A22468  12.524   0.531   8.348
 1462POPC   C3A22469  12.778   0.661   7.992
 1462POPC   C4A22470  12.821   0.467   7.588
 1462POPC   C1B22471  12.970   0.605   8.734
 1462POPC   C2B22472  13.153   0.598   8.322
 1462POPC   C3B22473  13.134   0.287   7.972
 1462POPC   C4B22474  13.280   0.233   7.554
 1463POPC   NC322475  23.485   2.232   9.482
 1463POPC   PO422476  22.846   1.994   9.428
 1463POPC   GL122477  23.037   1.861   9.097
 1463POPC   GL222478  23.193   2.187   9.075
 1463POPC   C1A22479  22.815   1.886   8.692
 1463POPC   D2A22480  22.623   1.966   8.261
 1463POPC   C3A22481  22.928   1.939   7.887
 1463POPC   C4A22482  22.776   1.871   7.457
 1463POPC   C1B22483  23.352   2.052   8.725
 1463POPC   C2B22484  23.146   2.047   8.338
 1463POPC   C3B22485  23.148   2.377   8.006
 1463POPC   C4B22486  23.120   2.358   7.555
 1464POPC   NC322487  18.507  19.145   9.413
 1464POPC   PO422488  19.145  19.078   9.615
 1464POPC   GL122489  19.176  19.343   9.205
 1464POPC   GL222490  18.862  19.292   8.982
 1464POPC   C1A22491  19.362  19.199   8.793
 1464POPC   D2A22492  19.410  19.059   8.360
 1464POPC   C3A22493  19.023  19.131   8.125
 1464POPC   C4A22494  18.957  19.174   7.699
 1464POPC   C1B22495  18.926  18.957   8.633
 1464POPC   C2B22496  18.828  18.658   8.252
 1464POPC   C3B22497  18.952  18.663   7.787
 1464POPC   C4B22498  18.881  18.805   7.337
 1465POPC   NC322499  34.067  16.346   9.585
 1465POPC   PO422500  33.596  15.943   9.523
 1465POPC   GL122501  33.728  16.004   9.082
 1465POPC   GL222502  34.057  16.149   9.121
 1465POPC   C1A22503  33.781  16.066   8.598
 1465POPC   D2A22504  33.868  15.822   8.206
 1465POPC   C3A22505  33.644  15.947   7.809
 1465POPC   C4A22506  33.440  16.044   7.397
 1465POPC   C1B22507  34.209  15.839   8.852
 1465POPC   C2B22508  34.304  16.007   8.455
 1465POPC   C3B22509  34.212  16.208   8.077
 1465POPC   C4B22510  34.128  16.022   7.718
 1466POPC   NC322511  38.335  34.432   9.398
 1466POPC   PO422512  38.808  34.811   9.480
 1466POPC   GL122513  38.635  34.745   9.092
 1466POPC   GL222514  38.387  34.530   8.919
 1466POPC   C1A22515  38.608  34.964   8.700
 1466POPC   D2A22516  38.386  35.093   8.324
 1466POPC   C3A22517  38.551  34.796   8.030
 1466POPC   C4A22518  38.492  34.554   7.662
 1466POPC   C1B22519  38.117  34.343   8.621
 1466POPC   C2B22520  38.134  34.480   8.208
 1466POPC   C3B22521  38.021  34.394   7.804
 1466POPC   C4B22522  38.126  34.312   7.365
 1467POPC   NC322523  22.913  25.192   9.736
 1467POPC   PO422524  23.208  25.755   9.491
 1467POPC   GL122525  22.959  25.422   9.275
 1467POPC   GL222526  23.215  25.419   9.042
 1467POPC   C1A22527  22.791  25.230   8.857
 1467POPC   D2A22528  22.664  25.400   8.407
 1467POPC   C3A22529  22.825  25.222   8.092
 1467POPC   C4A22530  22.774  25.071   7.746
 1467POPC   C1B22531  23.276  25.210   8.664
 1467POPC   C2B22532  23.289  25.087   8.234
 1467POPC   C3B22533  23.253  25.214   7.805
 1467POPC   C4B22534  23.169  25.137   7.371
 1468POPC   NC322535  41.212  18.536   9.385
 1468POPC   PO422536  41.759  18.094   9.482
 1468POPC   GL122537  41.546  18.172   9.122
 1468POPC   GL222538  41.823  18.372   9.005
 1468POPC   C1A22539  41.388  18.227   8.704
 1468POPC   D2A22540  41.332  18.595   8.417
 1468POPC   C3A22541  41.567  18.552   8.055
 1468POPC   C4A22542  41.889  18.269   7.880
 1468POPC   C1B22543  41.938  17.969   8.784
 1468POPC   C2B22544  42.155  17.917   8.368
 1468POPC   C3B22545  41.959  17.783   7.994
 1468POPC   C4B22546  41.776  17.823   7.609
 1469POPC   NC322547   5.141   8.528   9.497
 1469POPC   PO422548   5.411   7.866   9.436
 1469POPC   GL122549   5.145   8.082   9.136
 1469POPC   GL222550   4.949   8.383   9.072
 1469POPC   C1A22551   5.086   8.066   8.697
 1469POPC   D2A22552   4.946   7.886   8.337
 1469POPC   C3A22553   5.191   7.948   7.987
 1469POPC   C4A22554   5.083   7.879   7.613
 1469POPC   C1B22555   4.912   8.590   8.719
 1469POPC   C2B22556   4.881   8.420   8.334
 1469POPC   C3B22557   4.996   8.417   7.925
 1469POPC   C4B22558   4.734   8.262   7.611
 1470POPC   NC322559  41.085   4.235   9.526
 1470POPC   PO422560  40.397   4.500   9.539
 1470POPC   GL122561  40.677   4.265   9.209
 1470POPC   GL222562  40.945   4.377   9.068
 1470POPC   C1A22563  40.675   4.067   8.768
 1470POPC   D2A22564  40.505   4.213   8.352
 1470POPC   C3A22565  40.740   4.349   8.002
 1470POPC   C4A22566  40.795   4.204   7.573
 1470POPC   C1B22567  40.863   4.722   8.824
 1470POPC   C2B22568  40.996   4.675   8.421
 1470POPC   C3B22569  40.967   4.809   8.033
 1470POPC   C4B22570  40.855   4.704   7.637
 1471POPC   NC322571  38.596  31.767   9.344
 1471POPC   PO422572  38.594  32.360   9.653
 1471POPC   GL122573  38.510  32.270   9.256
 1471POPC   GL222574  38.208  32.096   9.242
 1471POPC   C1A22575  38.570  32.445   8.883
 1471POPC   D2A22576  38.436  32.340   8.496
 1471POPC   C3A22577  38.709  32.404   8.174
 1471POPC   C4A22578  38.494  32.460   7.812
 1471POPC   C1B22579  38.040  32.356   8.919
 1471POPC   C2B22580  37.894  32.324   8.505
 1471POPC   C3B22581  38.071  32.278   8.089
 1471POPC   C4B22582  38.127  31.999   7.743
 1472POPC   NC322583  28.415  37.353   9.425
 1472POPC   PO422584  28.385  38.061   9.470
 1472POPC   GL122585  28.277  37.767   9.144
 1472POPC   GL222586  28.590  37.599   9.042
 1472POPC   C1A22587  28.037  37.799   8.749
 1472POPC   D2A22588  28.192  38.013   8.386
 1472POPC   C3A22589  28.214  37.809   7.998
 1472POPC   C4A22590  28.355  37.527   7.670
 1472POPC   C1B22591  28.556  37.864   8.726
 1472POPC   C2B22592  28.602  37.695   8.341
 1472POPC   C3B22593  28.748  37.667   7.951
 1472POPC   C4B22594  28.788  37.245   7.784
 1473POPC   NC322595  31.436  42.587   9.550
 1473POPC   PO422596  31.774  43.145   9.582
 1473POPC   GL122597  31.405  43.130   9.247
 1473POPC   GL222598  31.612  42.882   9.101
 1473POPC   C1A22599  31.211  42.922   8.820
 1473POPC   D2A22600  31.440  42.842   8.427
 1473POPC   C3A22601  31.227  42.968   8.070
 1473POPC   C4A22602  31.210  43.313   7.819
 1473POPC   C1B22603  31.609  43.231   8.755
 1473POPC   C2B22604  31.936  43.392   8.458
 1473POPC   C3B22605  31.970  43.185   8.069
 1473POPC   C4B22606  31.734  43.266   7.733
 1474POPC   NC322607  12.324  33.844   9.699
 1474POPC   PO422608  11.905  33.425   9.617
 1474POPC   GL122609  11.845  33.728   9.253
 1474POPC   GL222610  12.129  33.963   9.196
 1474POPC   C1A22611  11.863  33.807   8.775
 1474POPC   D2A22612  12.108  33.759   8.365
 1474POPC   C3A22613  11.880  33.750   7.948
 1474POPC   C4A22614  11.879  33.536   7.556
 1474POPC   C1B22615  12.337  34.053   8.771
 1474POPC   C2B22616  12.194  34.261   8.375
 1474POPC   C3B22617  12.202  34.155   7.944
 1474POPC   C4B22618  12.623  34.128   7.760
 1475POPC   NC322619  32.667  35.035   9.457
 1475POPC   PO422620  32.263  34.566   9.744
 1475POPC   GL122621  32.137  34.530   9.220
 1475POPC   GL222622  32.250  34.810   8.996
 1475POPC   C1A22623  32.202  34.357   8.749
 1475POPC   D2A22624  32.276  34.479   8.289
 1475POPC   C3A22625  32.226  34.331   7.853
 1475POPC   C4A22626  31.933  34.492   7.543
 1475POPC   C1B22627  32.625  34.759   8.686
 1475POPC   C2B22628  32.773  34.662   8.295
 1475POPC   C3B22629  32.567  34.733   7.943
 1475POPC   C4B22630  32.119  34.850   7.873
 1476POPC   NC322631  21.956  25.574   9.520
 1476POPC   PO422632  22.506  25.367   9.653
 1476POPC   GL122633  22.315  25.374   9.204
 1476POPC   GL222634  22.101  25.074   9.053
 1476POPC   C1A22635  22.325  25.389   8.757
 1476POPC   D2A22636  22.145  25.107   8.445
 1476POPC   C3A22637  22.285  25.223   8.042
 1476POPC   C4A22638  22.504  25.556   7.871
 1476POPC   C1B22639  21.835  25.331   8.793
 1476POPC   C2B22640  21.576  25.191   8.489
 1476POPC   C3B22641  21.762  25.211   8.078
 1476POPC   C4B22642  21.911  25.334   7.675
 1477POPC   NC322643  36.937  43.237   9.619
 1477POPC   PO422644  36.792  42.596   9.713
 1477POPC   GL122645  36.905  42.897   9.237
 1477POPC   GL222646  36.705  43.212   9.158
 1477POPC   C1A22647  37.087  43.103   8.852
 1477POPC   D2A22648  36.859  43.264   8.514
 1477POPC   C3A22649  36.789  43.066   8.149
 1477POPC   C4A22650  37.069  43.182   7.815
 1477POPC   C1B22651  36.604  43.536   8.871
 1477POPC   C2B22652  36.666  43.726   8.467
 1477POPC   C3B22653  36.765  43.570   8.037
 1477POPC   C4B22654  36.788  43.516   7.559
 1478POPC   NC322655  36.135  26.319   9.487
 1478POPC   PO422656  35.634  25.841   9.464
 1478POPC   GL122657  35.861  26.052   9.126
 1478POPC   GL222658  35.918  26.408   9.036
 1478POPC   C1A22659  36.210  26.008   8.822
 1478POPC   D2A22660  36.327  26.160   8.404
 1478POPC   C3A22661  36.036  26.071   8.036
 1478POPC   C4A22662  36.240  25.811   7.849
 1478POPC   C1B22663  35.840  26.291   8.617
 1478POPC   C2B22664  36.002  26.512   8.250
 1478POPC   C3B22665  36.177  26.496   7.797
 1478POPC   C4B22666  35.938  26.599   7.405
 1479POPC   NC322667  30.218  25.926   9.630
 1479POPC   PO422668  29.861  26.401   9.833
 1479POPC   GL122669  29.885  26.304   9.301
 1479POPC   GL222670  29.547  26.334   9.117
 1479POPC   C1A22671  29.925  26.144   8.823
 1479POPC   D2A22672  29.805  25.963   8.366
 1479POPC   C3A22673  30.115  25.979   7.999
 1479POPC   C4A22674  30.102  26.214   7.619
 1479POPC   C1B22675  29.602  26.533   8.706
 1479POPC   C2B22676  29.570  26.656   8.259
 1479POPC   C3B22677  29.718  26.338   7.969
 1479POPC   C4B22678  29.646  25.970   7.768
 1480POPC   NC322679   4.050  16.029   9.438
 1480POPC   PO422680   4.665  15.650   9.320
 1480POPC   GL122681   4.371  15.855   9.069
 1480POPC   GL222682   4.437  16.215   9.150
 1480POPC   C1A22683   4.442  16.019   8.672
 1480POPC   D2A22684   4.435  16.250   8.320
 1480POPC   C3A22685   4.439  15.943   7.994
 1480POPC   C4A22686   4.666  15.636   7.763
 1480POPC   C1B22687   4.172  16.421   8.846
 1480POPC   C2B22688   3.963  16.452   8.452
 1480POPC   C3B22689   4.030  16.306   8.032
 1480POPC   C4B22690   4.157  16.139   7.600
 1481POPC   NC322691  40.479   6.413   9.616
 1481POPC   PO422692  39.956   5.929   9.516
 1481POPC   GL122693  39.915   5.857   9.123
 1481POPC   GL222694  39.637   6.119   9.085
 1481POPC   C1A22695  40.080   5.656   8.716
 1481POPC   D2A22696  40.303   5.767   8.347
 1481POPC   C3A22697  40.260   5.679   7.902
 1481POPC   C4A22698  40.023   5.652   7.543
 1481POPC   C1B22699  39.605   5.845   8.742
 1481POPC   C2B22700  39.782   5.914   8.372
 1481POPC   C3B22701  39.797   5.841   7.989
 1481POPC   C4B22702  39.572   5.824   7.649
 1482POPC   NC322703  15.125   1.397   9.412
 1482POPC   PO422704  15.113   2.022   9.362
 1482POPC   GL122705  15.452   2.042   9.054
 1482POPC   GL222706  15.604   1.723   9.183
 1482POPC   C1A22707  15.380   2.065   8.576
 1482POPC   D2A22708  14.987   2.206   8.401
 1482POPC   C3A22709  14.978   2.099   7.967
 1482POPC   C4A22710  15.365   2.111   7.697
 1482POPC   C1B22711  15.401   1.605   8.808
 1482POPC   C2B22712  15.237   1.588   8.397
 1482POPC   C3B22713  15.333   1.690   7.985
 1482POPC   C4B22714  15.280   1.491   7.577
 1483POPC   NC322715  44.702  39.688   9.499
 1483POPC   PO422716   0.172  40.253   9.609
 1483POPC   GL122717  44.935  40.048   9.219
 1483POPC   GL222718  44.648  40.248   9.100
 1483POPC   C1A22719  44.718  39.819   8.821
 1483POPC   D2A22720  44.509  39.675   8.401
 1483POPC   C3A22721  44.636  39.805   7.975
 1483POPC   C4A22722  44.499  39.818   7.532
 1483POPC   C1B22723  44.932  40.295   8.769
 1483POPC   C2B22724  44.836  40.115   8.390
 1483POPC   C3B22725  44.825  40.286   8.009
 1483POPC   C4B22726  44.489  40.290   7.739
 1484POPC   NC322727  19.997  38.999   9.495
 1484POPC   PO422728  19.481  39.493   9.444
 1484POPC   GL122729  19.782  39.342   9.193
 1484POPC   GL222730  19.744  39.570   8.984
 1484POPC   C1A22731  19.933  39.080   8.860
 1484POPC   D2A22732  19.729  38.973   8.497
 1484POPC   C3A22733  19.911  38.951   8.097
 1484POPC   C4A22734  19.937  38.941   7.700
 1484POPC   C1B22735  19.800  39.495   8.578
 1484POPC   C2B22736  19.721  39.416   8.185
 1484POPC   C3B22737  19.928  39.491   7.804
 1484POPC   C4B22738  20.008  39.330   7.389
 1485POPC   NC322739  36.683  37.721   9.526
 1485POPC   PO422740  37.194  38.180   9.638
 1485POPC   GL122741  36.957  37.962   9.198
 1485POPC   GL222742  36.883  37.607   9.066
 1485POPC   C1A22743  36.810  37.990   8.770
 1485POPC   D2A22744  36.743  37.667   8.439
 1485POPC   C3A22745  36.617  37.878   8.041
 1485POPC   C4A22746  36.765  37.897   7.607
 1485POPC   C1B22747  37.205  37.655   8.712
 1485POPC   C2B22748  37.368  37.660   8.303
 1485POPC   C3B22749  37.103  37.701   7.948
 1485POPC   C4B22750  37.165  37.494   7.532
 1486POPC   NC322751  16.863   7.141   9.480
 1486POPC   PO422752  16.431   7.586   9.225
 1486POPC   GL122753  16.549   7.210   9.052
 1486POPC   GL222754  16.898   7.282   8.998
 1486POPC   C1A22755  16.559   7.248   8.613
 1486POPC   D2A22756  16.622   7.664   8.461
 1486POPC   C3A22757  16.659   7.638   8.026
 1486POPC   C4A22758  16.488   7.382   7.717
 1486POPC   C1B22759  17.078   7.203   8.626
 1486POPC   C2B22760  16.982   7.313   8.245
 1486POPC   C3B22761  17.221   7.199   7.901
 1486POPC   C4B22762  17.018   7.179   7.535
 1487POPC   NC322763  15.918   4.432   9.698
 1487POPC   PO422764  15.632   4.055   9.304
 1487POPC   GL122765  15.714   4.421   9.124
 1487POPC   GL222766  16.048   4.387   9.211
 1487POPC   C1A22767  15.682   4.556   8.707
 1487POPC   D2A22768  15.862   4.379   8.324
 1487POPC   C3A22769  15.714   4.583   7.937
 1487POPC   C4A22770  15.863   4.476   7.487
 1487POPC   C1B22771  16.032   4.185   8.800
 1487POPC   C2B22772  16.115   3.949   8.484
 1487POPC   C3B22773  16.309   4.141   8.165
 1487POPC   C4B22774  16.018   4.166   7.846
 1488POPC   NC322775  27.058  30.455   9.572
 1488POPC   PO422776  27.047  31.097   9.427
 1488POPC   GL122777  26.792  30.830   9.128
 1488POPC   GL222778  26.929  30.480   9.092
 1488POPC   C1A22779  26.627  30.612   8.721
 1488POPC   D2A22780  26.803  30.434   8.353
 1488POPC   C3A22781  26.697  30.682   7.999
 1488POPC   C4A22782  26.888  30.989   7.761
 1488POPC   C1B22783  27.165  30.317   8.743
 1488POPC   C2B22784  27.318  30.429   8.319
 1488POPC   C3B22785  27.119  30.424   7.889
 1488POPC   C4B22786  27.100  30.298   7.450
 1489POPC   NC322787  20.718  36.721   9.597
 1489POPC   PO422788  20.876  37.291   9.409
 1489POPC   GL122789  20.694  36.940   9.144
 1489POPC   GL222790  20.826  36.563   9.112
 1489POPC   C1A22791  20.438  36.730   8.828
 1489POPC   D2A22792  20.347  36.875   8.414
 1489POPC   C3A22793  20.477  37.244   8.183
 1489POPC   C4A22794  20.497  37.181   7.747
 1489POPC   C1B22795  20.946  36.783   8.714
 1489POPC   C2B22796  20.883  36.938   8.304
 1489POPC   C3B22797  20.873  36.799   7.859
 1489POPC   C4B22798  20.971  36.694   7.398
 1490POPC   NC322799  15.034   3.208   9.317
 1490POPC   PO422800  15.252   2.720   9.732
 1490POPC   GL122801  15.124   2.689   9.246
 1490POPC   GL222802  15.204   2.925   8.947
 1490POPC   C1A22803  15.224   2.458   8.840
 1490POPC   D2A22804  15.236   2.698   8.453
 1490POPC   C3A22805  15.380   2.451   8.128
 1490POPC   C4A22806  15.271   2.625   7.751
 1490POPC   C1B22807  15.538   3.089   8.682
 1490POPC   C2B22808  15.557   3.259   8.284
 1490POPC   C3B22809  15.547   3.000   7.961
 1490POPC   C4B22810  15.400   3.060   7.533
 1491POPC   NC322811  12.652  10.320   9.451
 1491POPC   PO422812  12.795   9.697   9.599
 1491POPC   GL122813  12.829   9.881   9.204
 1491POPC   GL222814  12.534   9.720   9.140
 1491POPC   C1A22815  12.817   9.966   8.767
 1491POPC   D2A22816  13.018   9.942   8.367
 1491POPC   C3A22817  12.898   9.804   7.979
 1491POPC   C4A22818  12.621   9.879   7.653
 1491POPC   C1B22819  12.503   9.429   8.805
 1491POPC   C2B22820  12.647   9.581   8.421
 1491POPC   C3B22821  12.645   9.351   8.044
 1491POPC   C4B22822  12.792   9.408   7.645
 1492POPC   NC322823  12.306  39.601   9.457
 1492POPC   PO422824  12.027  40.140   9.689
 1492POPC   GL122825  12.241  40.175   9.271
 1492POPC   GL222826  12.381  39.909   9.064
 1492POPC   C1A22827  12.153  40.280   8.803
 1492POPC   D2A22828  12.201  40.176   8.332
 1492POPC   C3A22829  12.061  40.383   7.930
 1492POPC   C4A22830  11.951  40.293   7.483
 1492POPC   C1B22831  12.409  39.809   8.636
 1492POPC   C2B22832  12.255  39.670   8.208
 1492POPC   C3B22833  12.096  39.823   7.817
 1492POPC   C4B22834  12.165  39.825   7.381
 1493POPC   NC322835  22.428  27.469   9.639
 1493POPC   PO422836  22.434  28.159   9.761
 1493POPC   GL122837  22.179  27.867   9.403
 1493POPC   GL222838  22.016  27.491   9.351
 1493POPC   C1A22839  22.013  27.795   8.949
 1493POPC   D2A22840  22.061  27.913   8.513
 1493POPC   C3A22841  22.041  27.634   8.193
 1493POPC   C4A22842  21.757  27.413   7.915
 1493POPC   C1B22843  22.308  27.372   8.999
 1493POPC   C2B22844  22.356  27.378   8.554
 1493POPC   C3B22845  22.471  27.357   8.122
 1493POPC   C4B22846  22.243  27.470   7.764
 1494POPC   NC322847  43.878  37.105   9.492
 1494POPC   PO422848  43.947  36.407   9.550
 1494POPC   GL122849  44.162  36.634   9.196
 1494POPC   GL222850  44.309  36.975   9.239
 1494POPC   C1A22851  43.882  36.840   8.859
 1494POPC   D2A22852  43.534  36.999   8.569
 1494POPC   C3A22853  43.725  36.968   8.141
 1494POPC   C4A22854  43.863  36.766   7.753
 1494POPC   C1B22855  44.335  37.061   8.772
 1494POPC   C2B22856  44.235  36.859   8.350
 1494POPC   C3B22857  44.306  36.996   7.905
 1494POPC   C4B22858  44.123  37.101   7.473
 1495POPC   NC322859   7.710  18.296   9.408
 1495POPC   PO422860   8.339  18.515   9.511
 1495POPC   GL122861   8.115  18.498   9.142
 1495POPC   GL222862   8.165  18.182   9.120
 1495POPC   C1A22863   8.039  18.348   8.675
 1495POPC   D2A22864   8.097  18.285   8.216
 1495POPC   C3A22865   7.890  18.030   7.985
 1495POPC   C4A22866   7.802  18.123   7.544
 1495POPC   C1B22867   8.481  17.978   8.853
 1495POPC   C2B22868   8.397  17.743   8.473
 1495POPC   C3B22869   8.418  17.877   8.093
 1495POPC   C4B22870   8.568  17.977   7.742
 1496POPC   NC322871  24.099  16.817   9.456
 1496POPC   PO422872  24.786  16.684   9.488
 1496POPC   GL122873  24.524  16.740   9.159
 1496POPC   GL222874  24.434  16.391   9.116
 1496POPC   C1A22875  24.288  16.818   8.774
 1496POPC   D2A22876  24.361  16.660   8.354
 1496POPC   C3A22877  24.346  16.837   7.954
 1496POPC   C4A22878  24.764  16.947   7.866
 1496POPC   C1B22879  24.618  16.326   8.691
 1496POPC   C2B22880  24.449  16.181   8.310
 1496POPC   C3B22881  24.511  16.347   7.914
 1496POPC   C4B22882  24.278  16.475   7.576
 1497POPC   NC322883  11.752  24.869   9.476
 1497POPC   PO422884  12.205  24.357   9.561
 1497POPC   GL122885  12.239  24.353   9.135
 1497POPC   GL222886  12.330  24.005   9.166
 1497POPC   C1A22887  11.974  24.470   8.743
 1497POPC   D2A22888  11.958  24.708   8.350
 1497POPC   C3A22889  11.948  24.538   7.935
 1497POPC   C4A22890  12.215  24.689   7.579
 1497POPC   C1B22891  12.226  24.035   8.727
 1497POPC   C2B22892  12.278  24.237   8.344
 1497POPC   C3B22893  12.435  24.399   7.945
 1497POPC   C4B22894  12.265  24.203   7.585
 1498POPC   NC322895  10.512  10.699   9.543
 1498POPC   PO422896  10.695  11.408   9.581
 1498POPC   GL122897  10.528  11.181   9.198
 1498POPC   GL222898  10.211  11.318   9.022
 1498POPC   C1A22899  10.641  11.234   8.769
 1498POPC   D2A22900  10.777  11.285   8.382
 1498POPC   C3A22901  10.452  11.265   8.090
 1498POPC   C4A22902  10.658  11.189   7.729
 1498POPC   C1B22903  10.470  11.694   8.819
 1498POPC   C2B22904  10.669  11.768   8.439
 1498POPC   C3B22905  10.803  11.667   8.031
 1498POPC   C4B22906  10.523  11.672   7.710
 1499POPC   NC322907  28.343  43.221   9.675
 1499POPC   PO422908  28.603  42.597   9.484
 1499POPC   GL122909  28.345  42.843   9.194
 1499POPC   GL222910  28.294  43.219   9.151
 1499POPC   C1A22911  28.294  42.709   8.791
 1499POPC   D2A22912  28.094  42.707   8.412
 1499POPC   C3A22913  28.287  42.884   8.075
 1499POPC   C4A22914  28.369  43.062   7.711
 1499POPC   C1B22915  28.365  43.409   8.701
 1499POPC   C2B22916  28.376  43.361   8.248
 1499POPC   C3B22917  28.162  43.497   7.867
 1499POPC   C4B22918  28.107  43.423   7.405
 1500POPC   NC322919   0.217  28.565   9.750
 1500POPC   PO422920   0.079  29.056   9.340
 1500POPC   GL122921   0.374  28.932   9.015
 1500POPC   GL222922   0.728  28.892   9.083
 1500POPC   C1A22923   0.301  28.970   8.598
 1500POPC   D2A22924   0.147  29.119   8.216
 1500POPC   C3A22925   0.350  28.967   7.844
 1500POPC   C4A22926   0.568  28.870   7.451
 1500POPC   C1B22927   0.835  29.057   8.658
 1500POPC   C2B22928   0.670  29.089   8.243
 1500POPC   C3B22929   0.847  29.066   7.838
 1500POPC   C4B22930   0.783  29.363   7.513
 1501POPC   NC322931  44.019  29.504   9.660
 1501POPC   PO422932  43.828  28.743   9.636
 1501POPC   GL122933  43.995  28.916   9.218
 1501POPC   GL222934  43.897  29.275   9.192
 1501POPC   C1A22935  43.870  28.975   8.759
 1501POPC   D2A22936  43.780  29.121   8.319
 1501POPC   C3A22937  44.009  28.876   7.976
 1501POPC   C4A22938  44.301  29.040   7.610
 1501POPC   C1B22939  43.680  29.451   8.811
 1501POPC   C2B22940  43.567  29.653   8.433
 1501POPC   C3B22941  43.612  29.535   8.033
 1501POPC   C4B22942  43.931  29.367   7.797
 1502POPC   NC322943  14.255   0.905   9.452
 1502POPC   PO422944  13.994   1.606   9.534
 1502POPC   GL122945  14.237   1.395   9.231
 1502POPC   GL222946  14.088   1.150   8.999
 1502POPC   C1A22947  14.394   1.515   8.818
 1502POPC   D2A22948  14.314   1.353   8.410
 1502POPC   C3A22949  14.533   1.254   8.021
 1502POPC   C4A22950  14.419   1.336   7.606
 1502POPC   C1B22951  14.519   1.031   8.750
 1502POPC   C2B22952  14.514   0.856   8.354
 1502POPC   C3B22953  14.117   0.939   8.156
 1502POPC   C4B22954  13.977   0.955   7.737
 1503POPC   NC322955  27.493  31.206   9.523
 1503POPC   PO422956  27.617  30.498   9.600
 1503POPC   GL122957  27.452  30.523   9.184
 1503POPC   GL222958  27.385  30.869   9.120
 1503POPC   C1A22959  27.607  30.559   8.759
 1503POPC   D2A22960  27.699  30.841   8.443
 1503POPC   C3A22961  27.889  30.618   8.146
 1503POPC   C4A22962  27.742  30.622   7.751
 1503POPC   C1B22963  27.138  30.822   8.739
 1503POPC   C2B22964  27.048  30.922   8.322
 1503POPC   C3B22965  27.351  30.861   8.015
 1503POPC   C4B22966  27.306  30.788   7.565
 1504POPC   NC322967   2.440   8.036   9.476
 1504POPC   PO422968   3.084   8.214   9.540
 1504POPC   GL122969   2.781   8.271   9.145
 1504POPC   GL222970   2.404   8.410   9.133
 1504POPC   C1A22971   2.555   8.088   8.769
 1504POPC   D2A22972   2.421   8.178   8.373
 1504POPC   C3A22973   2.777   8.152   8.073
 1504POPC   C4A22974   2.835   8.084   7.631
 1504POPC   C1B22975   2.542   8.581   8.686
 1504POPC   C2B22976   2.636   8.643   8.206
 1504POPC   C3B22977   2.561   8.503   7.730
 1504POPC   C4B22978   2.955   8.520   7.385
 1505POPC   NC322979   0.537  19.259   9.378
 1505POPC   PO422980   0.637  18.666   9.544
 1505POPC   GL122981   0.562  18.676   9.132
 1505POPC   GL222982   0.254  18.835   9.164
 1505POPC   C1A22983   0.604  18.893   8.759
 1505POPC   D2A22984   0.502  19.255   8.508
 1505POPC   C3A22985   0.743  19.245   8.158
 1505POPC   C4A22986   0.804  18.881   7.914
 1505POPC   C1B22987   0.109  19.056   8.789
 1505POPC   C2B22988   0.034  19.108   8.326
 1505POPC   C3B22989   0.111  19.122   7.861
 1505POPC   C4B22990  44.912  18.847   7.521
 1506POPC   NC322991  44.607  34.175   9.753
 1506POPC   PO422992  44.562  34.799   9.686
 1506POPC   GL122993  44.561  34.859   9.208
 1506POPC   GL222994  44.458  34.515   9.088
 1506POPC   C1A22995  44.691  34.802   8.726
 1506POPC   D2A22996  44.471  34.551   8.357
 1506POPC   C3A22997  44.533  34.593   7.876
 1506POPC   C4A22998  44.407  34.454   7.455
 1506POPC   C1B22999  44.202  34.807   8.824
 1506POPC   C2B23000  44.285  35.021   8.435
 1506POPC   C3B23001  44.095  34.799   8.085
 1506POPC   C4B23002  44.122  34.852   7.658
 1507POPC   NC323003  17.109  10.209   9.487
 1507POPC   PO423004  17.454   9.769   9.587
 1507POPC   GL123005  17.415   9.833   9.153
 1507POPC   GL223006  17.643   9.565   9.107
 1507POPC   C1A23007  17.322   9.919   8.703
 1507POPC   D2A23008  17.121   9.992   8.311
 1507POPC   C3A23009  17.291   9.849   7.944
 1507POPC   C4A23010  17.634   9.791   7.727
 1507POPC   C1B23011  17.338   9.426   8.797
 1507POPC   C2B23012  17.244   9.463   8.334
 1507POPC   C3B23013  17.490   9.350   7.955
 1507POPC   C4B23014  17.392   9.335   7.518
 1508POPC   NC323015  35.480  37.312   9.591
 1508POPC   PO423016  35.631  37.919   9.377
 1508POPC   GL123017  35.545  37.546   9.141
 1508POPC   GL223018  35.213  37.524   9.150
 1508POPC   C1A23019  35.521  37.549   8.735
 1508POPC   D2A23020  35.599  37.892   8.490
 1508POPC   C3A23021  35.589  37.806   8.062
 1508POPC   C4A23022  35.504  37.534   7.749
 1508POPC   C1B23023  35.020  37.647   8.759
 1508POPC   C2B23024  35.182  37.531   8.347
 1508POPC   C3B23025  35.060  37.656   7.954
 1508POPC   C4B23026  35.060  37.447   7.558
 1509POPC   NC323027  42.466  30.037   9.610
 1509POPC   PO423028  43.083  30.063   9.692
 1509POPC   GL123029  43.103  29.784   9.315
 1509POPC   GL223030  43.109  30.085   9.154
 1509POPC   C1A23031  43.176  29.641   8.857
 1509POPC   D2A23032  43.056  29.800   8.432
 1509POPC   C3A23033  43.101  29.617   8.009
 1509POPC   C4A23034  43.229  29.879   7.685
 1509POPC   C1B23035  43.004  30.315   8.816
 1509POPC   C2B23036  43.064  30.323   8.376
 1509POPC   C3B23037  42.913  30.127   8.032
 1509POPC   C4B23038  42.703  30.310   7.720
 1510POPC   NC323039   2.071  21.811   9.579
 1510POPC   PO423040   2.324  22.459   9.570
 1510POPC   GL123041   2.025  22.206   9.260
 1510POPC   GL223042   2.185  21.912   9.109
 1510POPC   C1A23043   1.759  22.077   8.869
 1510POPC   D2A23044   1.796  22.371   8.485
 1510POPC   C3A23045   1.919  22.293   8.031
 1510POPC   C4A23046   1.742  22.468   7.648
 1510POPC   C1B23047   2.242  22.163   8.748
 1510POPC   C2B23048   2.083  21.961   8.385
 1510POPC   C3B23049   2.204  21.865   7.970
 1510POPC   C4B23050   1.983  21.968   7.587
 1511POPC   NC323051  18.748  27.841   9.566
 1511POPC   PO423052  19.152  27.341   9.563
 1511POPC   GL123053  19.219  27.586   9.176
 1511POPC   GL223054  18.910  27.727   9.089
 1511POPC   C1A23055  19.265  27.626   8.714
 1511POPC   D2A23056  19.266  27.866   8.292
 1511POPC   C3A23057  19.344  27.589   7.962
 1511POPC   C4A23058  18.998  27.292   7.812
 1511POPC   C1B23059  18.897  27.973   8.706
 1511POPC   C2B23060  18.652  27.936   8.353
 1511POPC   C3B23061  18.706  27.698   8.002
 1511POPC   C4B23062  18.984  27.773   7.670
 1512POPC   NC323063  26.640  23.502   9.392
 1512POPC   PO423064  27.249  23.862   9.584
 1512POPC   GL123065  27.002  23.828   9.204
 1512POPC   GL223066  27.206  23.591   9.067
 1512POPC   C1A23067  26.730  23.920   8.829
 1512POPC   D2A23068  26.581  23.668   8.453
 1512POPC   C3A23069  26.625  23.814   8.025
 1512POPC   C4A23070  26.557  23.779   7.577
 1512POPC   C1B23071  27.053  23.546   8.684
 1512POPC   C2B23072  27.096  23.754   8.292
 1512POPC   C3B23073  27.105  23.755   7.841
 1512POPC   C4B23074  27.197  23.469   7.499
 1513POPC   NC323075  41.838  32.328   9.541
 1513POPC   PO423076  41.234  31.893   9.570
 1513POPC   GL123077  41.484  32.115   9.251
 1513POPC   GL223078  41.390  32.473   9.253
 1513POPC   C1A23079  41.542  32.061   8.816
 1513POPC   D2A23080  41.415  32.095   8.401
 1513POPC   C3A23081  41.625  32.119   8.035
 1513POPC   C4A23082  41.393  32.005   7.679
 1513POPC   C1B23083  41.644  32.562   8.891
 1513POPC   C2B23084  41.519  32.614   8.457
 1513POPC   C3B23085  41.603  32.619   8.021
 1513POPC   C4B23086  41.470  32.529   7.617
 1514POPC   NC323087  40.041  31.952   9.406
 1514POPC   PO423088  40.509  32.475   9.601
 1514POPC   GL123089  40.445  32.325   9.201
 1514POPC   GL223090  40.114  32.502   9.206
 1514POPC   C1A23091  40.232  32.203   8.806
 1514POPC   D2A23092  40.012  32.270   8.413
 1514POPC   C3A23093  40.164  32.050   8.041
 1514POPC   C4A23094  39.866  31.917   7.733
 1514POPC   C1B23095  39.838  32.532   8.829
 1514POPC   C2B23096  39.549  32.707   8.545
 1514POPC   C3B23097  39.634  32.730   8.126
 1514POPC   C4B23098  39.781  32.369   7.944
 1515POPC   NC323099  17.583  38.919   9.339
 1515POPC   PO423100  17.204  39.522   9.445
 1515POPC   GL123101  17.385  39.331   9.117
 1515POPC   GL223102  17.182  39.018   9.047
 1515POPC   C1A23103  17.444  39.464   8.729
 1515POPC   D2A23104  17.308  39.325   8.350
 1515POPC   C3A23105  17.533  39.515   8.047
 1515POPC   C4A23106  17.741  39.371   7.708
 1515POPC   C1B23107  17.460  38.929   8.689
 1515POPC   C2B23108  17.642  38.971   8.251
 1515POPC   C3B23109  17.398  39.042   7.888
 1515POPC   C4B23110  17.268  38.904   7.498
 1516POPC   NC323111  11.614  29.124   9.622
 1516POPC   PO423112  11.726  29.781   9.498
 1516POPC   GL123113  11.454  29.430   9.193
 1516POPC   GL223114  11.108  29.244   9.184
 1516POPC   C1A23115  11.395  29.133   8.777
 1516POPC   D2A23116  11.166  28.926   8.402
 1516POPC   C3A23117  11.308  29.030   7.981
 1516POPC   C4A23118  11.667  28.916   7.746
 1516POPC   C1B23119  10.923  29.318   8.717
 1516POPC   C2B23120  11.056  29.422   8.264
 1516POPC   C3B23121  11.085  29.460   7.786
 1516POPC   C4B23122  11.027  29.434   7.311
 1517POPC   NC323123  29.030  35.876   9.264
 1517POPC   PO423124  29.087  35.266   9.472
 1517POPC   GL123125  29.131  35.338   9.056
 1517POPC   GL223126  29.380  35.585   9.009
 1517POPC   C1A23127  28.934  35.512   8.675
 1517POPC   D2A23128  29.071  35.817   8.383
 1517POPC   C3A23129  29.264  35.605   8.054
 1517POPC   C4A23130  29.131  35.537   7.658
 1517POPC   C1B23131  29.569  35.282   8.709
 1517POPC   C2B23132  29.490  34.930   8.413
 1517POPC   C3B23133  29.283  35.039   7.999
 1517POPC   C4B23134  29.280  35.021   7.542
 1518POPC   NC323135   7.452  43.593   9.468
 1518POPC   PO423136   7.606  44.278   9.376
 1518POPC   GL123137   7.520  43.938   9.097
 1518POPC   GL223138   7.210  43.968   9.092
 1518POPC   C1A23139   7.345  43.704   8.701
 1518POPC   D2A23140   7.120  43.659   8.304
 1518POPC   C3A23141   7.295  43.664   7.859
 1518POPC   C4A23142   7.554  43.674   7.474
 1518POPC   C1B23143   7.211  44.192   8.737
 1518POPC   C2B23144   7.317  44.271   8.349
 1518POPC   C3B23145   7.132  44.116   8.002
 1518POPC   C4B23146   7.311  44.103   7.612
 1519POPC   NC323147  40.531  43.121   9.488
 1519POPC   PO423148  41.207  42.923   9.431
 1519POPC   GL123149  40.917  43.147   9.150
 1519POPC   GL223150  40.586  43.362   9.033
 1519POPC   C1A23151  40.830  43.017   8.767
 1519POPC   D2A23152  41.005  42.925   8.404
 1519POPC   C3A23153  40.812  43.031   8.028
 1519POPC   C4A23154  41.002  42.852   7.723
 1519POPC   C1B23155  40.962  43.501   8.764
 1519POPC   C2B23156  41.007  43.424   8.304
 1519POPC   C3B23157  40.994  43.498   7.829
 1519POPC   C4B23158  41.107  43.634   7.367
 1520POPC   NC323159  11.200  25.722   9.501
 1520POPC   PO423160  11.519  25.181   9.217
 1520POPC   GL123161  11.359  25.533   9.009
 1520POPC   GL223162  11.020  25.582   9.066
 1520POPC   C1A23163  11.506  25.638   8.587
 1520POPC   D2A23164  11.563  25.470   8.163
 1520POPC   C3A23165  11.598  25.003   8.083
 1520POPC   C4A23166  11.310  24.778   7.818
 1520POPC   C1B23167  10.951  25.337   8.735
 1520POPC   C2B23168  10.929  25.090   8.389
 1520POPC   C3B23169  11.121  25.211   8.028
 1520POPC   C4B23170  11.036  25.279   7.626
 1521POPC   NC323171  15.028  42.772   9.411
 1521POPC   PO423172  15.238  43.337   9.671
 1521POPC   GL123173  15.288  43.179   9.193
 1521POPC   GL223174  15.273  42.840   8.983
 1521POPC   C1A23175  15.415  43.274   8.754
 1521POPC   D2A23176  15.178  43.110   8.374
 1521POPC   C3A23177  15.284  43.290   7.965
 1521POPC   C4A23178  15.449  43.425   7.549
 1521POPC   C1B23179  14.940  42.681   8.685
 1521POPC   C2B23180  14.912  42.649   8.246
 1521POPC   C3B23181  15.245  42.771   7.959
 1521POPC   C4B23182  15.194  42.973   7.564
 1522POPC   NC323183  36.277  25.607   9.431
 1522POPC   PO423184  35.827  25.038   9.454
 1522POPC   GL123185  36.070  25.227   9.170
 1522POPC   GL223186  35.868  25.514   9.156
 1522POPC   C1A23187  36.169  25.391   8.759
 1522POPC   D2A23188  35.922  25.222   8.421
 1522POPC   C3A23189  36.142  25.116   8.082
 1522POPC   C4A23190  36.265  25.329   7.746
 1522POPC   C1B23191  35.775  25.711   8.762
 1522POPC   C2B23192  35.987  25.719   8.389
 1522POPC   C3B23193  35.819  25.523   8.005
 1522POPC   C4B23194  35.843  25.603   7.564
 1523POPC   NC323195  35.773   6.566   9.536
 1523POPC   PO423196  35.145   6.626   9.690
 1523POPC   GL123197  35.281   6.767   9.235
 1523POPC   GL223198  35.651   6.717   9.078
 1523POPC   C1A23199  35.264   6.750   8.758
 1523POPC   D2A23200  35.464   6.947   8.367
 1523POPC   C3A23201  35.221   6.816   8.018
 1523POPC   C4A23202  35.253   6.781   7.584
 1523POPC   C1B23203  35.863   6.887   8.708
 1523POPC   C2B23204  35.990   6.797   8.283
 1523POPC   C3B23205  35.723   6.726   7.912
 1523POPC   C4B23206  35.708   6.499   7.514
 1524POPC   NC323207  18.731  30.160   9.564
 1524POPC   PO423208  19.338  29.973   9.571
 1524POPC   GL123209  19.064  29.981   9.200
 1524POPC   GL223210  19.298  29.808   9.075
 1524POPC   C1A23211  18.941  29.819   8.742
 1524POPC   D2A23212  18.805  29.686   8.321
 1524POPC   C3A23213  19.027  29.801   7.971
 1524POPC   C4A23214  18.926  29.817   7.578
 1524POPC   C1B23215  19.393  30.080   8.788
 1524POPC   C2B23216  19.293  29.986   8.381
 1524POPC   C3B23217  19.363  30.201   8.011
 1524POPC   C4B23218  19.404  30.429   7.640
 1525POPC   NC323219  20.479  22.064   9.437
 1525POPC   PO423220  21.114  22.088   9.587
 1525POPC   GL123221  20.907  22.062   9.155
 1525POPC   GL223222  20.649  22.349   9.037
 1525POPC   C1A23223  20.807  22.004   8.705
 1525POPC   D2A23224  20.490  22.159   8.456
 1525POPC   C3A23225  20.362  21.841   8.184
 1525POPC   C4A23226  20.573  21.885   7.834
 1525POPC   C1B23227  20.401  22.631   8.730
 1525POPC   C2B23228  20.204  22.579   8.325
 1525POPC   C3B23229  20.255  22.315   7.997
 1525POPC   C4B23230  20.513  22.360   7.667
 1526POPC   NC323231   3.422  20.757   9.608
 1526POPC   PO423232   3.394  20.093   9.611
 1526POPC   GL123233   3.524  20.429   9.232
 1526POPC   GL223234   3.826  20.741   9.307
 1526POPC   C1A23235   3.394  20.410   8.749
 1526POPC   D2A23236   3.187  20.307   8.345
 1526POPC   C3A23237   3.380  20.537   8.012
 1526POPC   C4A23238   3.814  20.448   7.848
 1526POPC   C1B23239   3.660  20.800   8.910
 1526POPC   C2B23240   3.659  20.819   8.436
 1526POPC   C3B23241   3.677  20.950   7.988
 1526POPC   C4B23242   3.746  20.859   7.538
 1527POPC   NC323243   2.020  22.809   9.608
 1527POPC   PO423244   1.368  22.745   9.641
 1527POPC   GL123245   1.175  22.745   9.250
 1527POPC   GL223246   0.874  22.598   9.220
 1527POPC   C1A23247   1.164  22.852   8.823
 1527POPC   D2A23248   1.375  22.693   8.467
 1527POPC   C3A23249   1.403  22.839   8.036
 1527POPC   C4A23250   1.132  23.068   7.749
 1527POPC   C1B23251   0.900  22.412   8.760
 1527POPC   C2B23252   0.958  22.437   8.298
 1527POPC   C3B23253   1.013  22.563   7.865
 1527POPC   C4B23254   0.897  22.647   7.435
 1528POPC   NC323255  33.506  29.010   9.419
 1528POPC   PO423256  33.972  29.604   9.506
 1528POPC   GL123257  33.679  29.462   9.187
 1528POPC   GL223258  33.949  29.205   9.182
 1528POPC   C1A23259  33.623  29.172   8.805
 1528POPC   D2A23260  33.937  28.975   8.548
 1528POPC   C3A23261  33.823  28.863   8.123
 1528POPC   C4A23262  33.911  28.923   7.693
 1528POPC   C1B23263  34.052  29.441   8.801
 1528POPC   C2B23264  33.861  29.471   8.371
 1528POPC   C3B23265  34.019  29.361   7.955
 1528POPC   C4B23266  34.068  29.577   7.534
 1529POPC   NC323267  31.656  29.437   9.217
 1529POPC   PO423268  32.225  29.057   9.478
 1529POPC   GL123269  32.366  28.888   9.123
 1529POPC   GL223270  32.106  29.025   8.982
 1529POPC   C1A23271  32.643  28.869   8.798
 1529POPC   D2A23272  32.686  29.006   8.409
 1529POPC   C3A23273  32.319  28.969   8.188
 1529POPC   C4A23274  32.263  29.030   7.779
 1529POPC   C1B23275  32.317  29.249   8.697
 1529POPC   C2B23276  32.401  29.461   8.362
 1529POPC   C3B23277  32.215  29.489   8.015
 1529POPC   C4B23278  32.454  29.506   7.711
 1530POPC   NC323279  26.077  36.838   9.561
 1530POPC   PO423280  26.792  36.807   9.592
 1530POPC   GL123281  26.854  36.802   9.152
 1530POPC   GL223282  26.652  36.570   8.940
 1530POPC   C1A23283  26.845  36.988   8.735
 1530POPC   D2A23284  26.885  36.748   8.345
 1530POPC   C3A23285  26.697  36.802   7.949
 1530POPC   C4A23286  26.353  37.112   7.842
 1530POPC   C1B23287  27.097  36.515   8.810
 1530POPC   C2B23288  27.269  36.426   8.400
 1530POPC   C3B23289  27.169  36.506   7.943
 1530POPC   C4B23290  26.963  36.631   7.517
 1531POPC   NC323291  26.792  43.554   9.396
 1531POPC   PO423292  27.069  42.930   9.430
 1531POPC   GL123293  26.748  43.083   9.129
 1531POPC   GL223294  27.016  43.273   9.020
 1531POPC   C1A23295  26.696  43.092   8.660
 1531POPC   D2A23296  26.925  43.362   8.409
 1531POPC   C3A23297  26.814  43.418   7.962
 1531POPC   C4A23298  26.533  43.196   7.719
 1531POPC   C1B23299  27.147  42.881   8.787
 1531POPC   C2B23300  27.200  42.771   8.378
 1531POPC   C3B23301  26.857  42.925   8.141
 1531POPC   C4B23302  26.980  42.938   7.750
 1532POPC   NC323303   6.494  12.520   9.471
 1532POPC   PO423304   6.217  13.106   9.382
 1532POPC   GL123305   6.349  12.848   9.096
 1532POPC   GL223306   6.692  12.848   9.127
 1532POPC   C1A23307   6.413  12.928   8.693
 1532POPC   D2A23308   6.512  12.759   8.345
 1532POPC   C3A23309   6.750  13.000   8.062
 1532POPC   C4A23310   6.581  13.251   7.747
 1532POPC   C1B23311   6.750  12.549   8.776
 1532POPC   C2B23312   6.982  12.587   8.395
 1532POPC   C3B23313   6.783  12.476   8.003
 1532POPC   C4B23314   6.906  12.702   7.657
 1533POPC   NC323315  28.884   0.654   9.671
 1533POPC   PO423316  29.426   0.428   9.780
 1533POPC   GL123317  29.404   0.501   9.284
 1533POPC   GL223318  29.054   0.616   9.181
 1533POPC   C1A23319  29.356   0.409   8.803
 1533POPC   D2A23320  28.990   0.394   8.469
 1533POPC   C3A23321  29.115   0.407   8.020
 1533POPC   C4A23322  28.961   0.308   7.583
 1533POPC   C1B23323  29.058   0.818   8.763
 1533POPC   C2B23324  29.293   0.783   8.389
 1533POPC   C3B23325  29.124   0.940   8.058
 1533POPC   C4B23326  29.017   0.799   7.690
 1534POPC   NC323327  12.651  16.710   9.405
 1534POPC   PO423328  13.151  16.280   9.608
 1534POPC   GL123329  13.150  16.486   9.170
 1534POPC   GL223330  12.830  16.457   9.004
 1534POPC   C1A23331  13.203  16.635   8.700
 1534POPC   D2A23332  12.985  16.915   8.357
 1534POPC   C3A23333  12.993  16.858   7.868
 1534POPC   C4A23334  13.090  17.076   7.451
 1534POPC   C1B23335  12.593  16.789   8.767
 1534POPC   C2B23336  12.499  16.699   8.372
 1534POPC   C3B23337  12.412  16.850   7.978
 1534POPC   C4B23338  12.506  16.660   7.587
 1535POPC   NC323339  43.570  23.656   9.704
 1535POPC   PO423340  44.075  24.067   9.786
 1535POPC   GL123341  44.048  23.755   9.374
 1535POPC   GL223342  43.801  23.579   9.265
 1535POPC   C1A23343  44.063  23.778   8.881
 1535POPC   D2A23344  44.120  23.923   8.430
 1535POPC   C3A23345  44.086  23.608   8.125
 1535POPC   C4A23346  43.888  23.559   7.726
 1535POPC   C1B23347  43.630  23.478   8.849
 1535POPC   C2B23348  43.673  23.668   8.475
 1535POPC   C3B23349  43.542  23.626   8.102
 1535POPC   C4B23350  43.432  23.331   7.792
 1536POPC   NC323351  13.363  35.062   9.341
 1536POPC   PO423352  13.729  35.543   9.676
 1536POPC   GL123353  13.587  35.510   9.195
 1536POPC   GL223354  13.459  35.787   8.963
 1536POPC   C1A23355  13.583  35.301   8.756
 1536POPC   D2A23356  13.662  35.082   8.324
 1536POPC   C3A23357  13.815  35.264   7.905
 1536POPC   C4A23358  13.963  35.101   7.494
 1536POPC   C1B23359  13.892  35.715   8.843
 1536POPC   C2B23360  13.902  35.553   8.448
 1536POPC   C3B23361  13.616  35.665   8.149
 1536POPC   C4B23362  13.823  35.795   7.757
 1537POPC   NC323363   7.534   9.244   9.242
 1537POPC   PO423364   7.404   8.662   9.523
 1537POPC   GL123365   7.194   8.862   9.181
 1537POPC   GL223366   7.474   8.766   9.011
 1537POPC   C1A23367   7.081   8.920   8.731
 1537POPC   D2A23368   7.206   8.943   8.291
 1537POPC   C3A23369   7.309   9.102   7.896
 1537POPC   C4A23370   7.549   8.843   7.652
 1537POPC   C1B23371   7.597   9.002   8.637
 1537POPC   C2B23372   7.719   8.990   8.224
 1537POPC   C3B23373   7.853   9.228   7.893
 1537POPC   C4B23374   7.768   9.283   7.476
 1538POPC   NC323375  28.725   2.310   9.432
 1538POPC   PO423376  29.160   1.883   9.699
 1538POPC   GL123377  29.146   1.833   9.183
 1538POPC   GL223378  28.825   1.926   9.110
 1538POPC   C1A23379  29.175   1.831   8.731
 1538POPC   D2A23380  28.880   1.778   8.386
 1538POPC   C3A23381  29.085   1.931   8.005
 1538POPC   C4A23382  29.450   1.733   7.790
 1538POPC   C1B23383  28.804   2.209   8.762
 1538POPC   C2B23384  28.679   2.240   8.366
 1538POPC   C3B23385  28.816   2.408   8.035
 1538POPC   C4B23386  28.785   2.293   7.615
 1539POPC   NC323387  25.958   8.831   9.561
 1539POPC   PO423388  26.390   9.327   9.414
 1539POPC   GL123389  26.061   9.105   9.139
 1539POPC   GL223390  26.130   8.753   9.060
 1539POPC   C1A23391  25.891   9.060   8.705
 1539POPC   D2A23392  26.126   8.877   8.367
 1539POPC   C3A23393  25.950   8.679   8.077
 1539POPC   C4A23394  25.860   8.940   7.778
 1539POPC   C1B23395  26.385   9.036   8.761
 1539POPC   C2B23396  26.580   9.164   8.390
 1539POPC   C3B23397  26.350   9.160   7.987
 1539POPC   C4B23398  26.358   8.792   7.716
 1540POPC   NC323399  32.663  38.620   9.487
 1540POPC   PO423400  32.074  38.270   9.457
 1540POPC   GL123401  32.298  38.423   9.130
 1540POPC   GL223402  32.011  38.654   9.073
 1540POPC   C1A23403  32.499  38.261   8.754
 1540POPC   D2A23404  32.483  38.359   8.330
 1540POPC   C3A23405  32.267  38.114   8.035
 1540POPC   C4A23406  32.171  38.148   7.608
 1540POPC   C1B23407  32.263  38.738   8.712
 1540POPC   C2B23408  32.547  38.871   8.383
 1540POPC   C3B23409  32.368  38.745   8.005
 1540POPC   C4B23410  31.932  38.705   7.959
 1541POPC   NC323411  23.924  38.987   9.433
 1541POPC   PO423412  23.541  39.506   9.670
 1541POPC   GL123413  23.510  39.333   9.280
 1541POPC   GL223414  23.155  39.458   9.217
 1541POPC   C1A23415  23.769  39.353   8.884
 1541POPC   D2A23416  24.103  39.223   8.563
 1541POPC   C3A23417  23.937  39.217   8.141
 1541POPC   C4A23418  23.707  39.021   7.812
 1541POPC   C1B23419  23.260  39.184   8.863
 1541POPC   C2B23420  23.485  39.188   8.456
 1541POPC   C3B23421  23.333  39.324   8.040
 1541POPC   C4B23422  23.374  39.392   7.593
 1542POPC   NC323423  38.219  39.537   9.530
 1542POPC   PO423424  38.273  40.174   9.627
 1542POPC   GL123425  38.516  40.321   9.247
 1542POPC   GL223426  38.603  39.984   9.166
 1542POPC   C1A23427  38.341  40.325   8.796
 1542POPC   D2A23428  38.505  40.291   8.376
 1542POPC   C3A23429  38.194  40.189   8.048
 1542POPC   C4A23430  38.269  39.955   7.690
 1542POPC   C1B23431  38.807  39.753   8.868
 1542POPC   C2B23432  38.730  39.807   8.460
 1542POPC   C3B23433  38.654  39.897   8.036
 1542POPC   C4B23434  38.709  39.741   7.617
 1543POPC   NC323435  15.088   4.835   9.735
 1543POPC   PO423436  15.430   5.406   9.812
 1543POPC   GL123437  15.394   5.246   9.336
 1543POPC   GL223438  15.125   5.031   9.231
 1543POPC   C1A23439  15.494   5.062   8.891
 1543POPC   D2A23440  15.329   4.893   8.493
 1543POPC   C3A23441  15.441   5.047   8.089
 1543POPC   C4A23442  15.379   5.318   7.745
 1543POPC   C1B23443  14.928   5.023   8.821
 1543POPC   C2B23444  14.814   4.985   8.416
 1543POPC   C3B23445  14.925   5.086   8.022
 1543POPC   C4B23446  14.779   5.320   7.715
 1544POPC   NC323447  44.209  20.779   9.634
 1544POPC   PO423448  44.828  20.477   9.477
 1544POPC   GL123449  44.723  20.686   9.147
 1544POPC   GL223450  44.445  20.926   9.203
 1544POPC   C1A23451  44.721  20.501   8.747
 1544POPC   D2A23452  44.457  20.369   8.438
 1544POPC   C3A23453  44.601  20.449   8.040
 1544POPC   C4A23454  44.375  20.451   7.650
 1544POPC   C1B23455  44.603  21.012   8.793
 1544POPC   C2B23456  44.730  20.851   8.391
 1544POPC   C3B23457  44.482  20.952   8.050
 1544POPC   C4B23458  44.667  20.842   7.690
 1545POPC   NC323459  15.573   5.708   9.488
 1545POPC   PO423460  16.162   5.728   9.837
 1545POPC   GL123461  16.131   6.009   9.327
 1545POPC   GL223462  15.780   6.061   9.148
 1545POPC   C1A23463  16.117   5.909   8.807
 1545POPC   D2A23464  16.105   5.576   8.458
 1545POPC   C3A23465  16.122   5.712   8.022
 1545POPC   C4A23466  15.982   6.061   7.767
 1545POPC   C1B23467  15.626   5.728   8.842
 1545POPC   C2B23468  15.600   5.411   8.513
 1545POPC   C3B23469  15.637   5.543   8.112
 1545POPC   C4B23470  15.481   5.812   7.767
 1546POPC   NC323471  26.663  16.122   9.585
 1546POPC   PO423472  27.102  15.582   9.691
 1546POPC   GL123473  27.000  15.952   9.265
 1546POPC   GL223474  26.629  15.965   9.108
 1546POPC   C1A23475  26.995  16.171   8.862
 1546POPC   D2A23476  26.798  16.252   8.462
 1546POPC   C3A23477  26.873  15.957   8.150
 1546POPC   C4A23478  26.774  16.018   7.754
 1546POPC   C1B23479  26.482  15.886   8.666
 1546POPC   C2B23480  26.405  15.652   8.283
 1546POPC   C3B23481  26.488  15.616   7.876
 1546POPC   C4B23482  26.523  15.735   7.426
 1547POPC   NC323483  26.257  21.921   9.690
 1547POPC   PO423484  25.761  22.214   9.405
 1547POPC   GL123485  26.023  22.046   9.097
 1547POPC   GL223486  26.368  21.968   9.188
 1547POPC   C1A23487  25.997  22.127   8.665
 1547POPC   D2A23488  26.111  22.370   8.306
 1547POPC   C3A23489  25.930  22.200   7.937
 1547POPC   C4A23490  26.138  22.003   7.580
 1547POPC   C1B23491  26.352  21.758   8.783
 1547POPC   C2B23492  26.358  21.887   8.353
 1547POPC   C3B23493  26.454  22.109   7.995
 1547POPC   C4B23494  26.617  22.124   7.572
 1548POPC   NC323495  41.980  19.932   9.592
 1548POPC   PO423496  42.495  19.634   9.330
 1548POPC   GL123497  42.253  19.936   9.116
 1548POPC   GL223498  42.011  19.726   9.125
 1548POPC   C1A23499  42.429  20.041   8.721
 1548POPC   D2A23500  42.628  19.991   8.288
 1548POPC   C3A23501  42.313  19.981   7.928
 1548POPC   C4A23502  42.462  20.001   7.520
 1548POPC   C1B23503  42.076  19.567   8.732
 1548POPC   C2B23504  42.246  19.649   8.346
 1548POPC   C3B23505  42.184  19.478   7.962
 1548POPC   C4B23506  41.877  19.462   7.724
 1549POPC   NC323507  44.851  27.166   9.465
 1549POPC   PO423508  44.308  26.703   9.489
 1549POPC   GL123509  44.420  26.696   9.059
 1549POPC   GL223510  44.731  26.828   9.077
 1549POPC   C1A23511  44.519  26.696   8.612
 1549POPC   D2A23512  44.691  26.598   8.233
 1549POPC   C3A23513  44.698  26.862   7.886
 1549POPC   C4A23514  44.286  26.753   7.819
 1549POPC   C1B23515  44.955  26.573   8.796
 1549POPC   C2B23516   0.038  26.879   8.490
 1549POPC   C3B23517   0.203  26.667   8.162
 1549POPC   C4B23518  44.985  26.399   7.870
 1550POPC   NC323519  43.430   4.973   9.480
 1550POPC   PO423520  42.904   5.390   9.517
 1550POPC   GL123521  43.145   5.310   9.158
 1550POPC   GL223522  43.483   5.213   9.029
 1550POPC   C1A23523  42.991   5.280   8.762
 1550POPC   D2A23524  42.975   4.979   8.435
 1550POPC   C3A23525  42.809   5.141   8.052
 1550POPC   C4A23526  42.921   4.948   7.692
 1550POPC   C1B23527  43.485   5.236   8.605
 1550POPC   C2B23528  43.619   5.357   8.194
 1550POPC   C3B23529  43.313   5.240   7.914
 1550POPC   C4B23530  43.371   5.094   7.558
 1551POPC   NC323531  12.510   2.596   9.510
 1551POPC   PO423532  13.095   2.943   9.511
 1551POPC   GL123533  13.014   2.789   9.117
 1551POPC   GL223534  12.660   2.802   9.048
 1551POPC   C1A23535  13.024   2.864   8.693
 1551POPC   D2A23536  12.847   2.658   8.370
 1551POPC   C3A23537  12.946   2.862   8.003
 1551POPC   C4A23538  13.212   2.750   7.680
 1551POPC   C1B23539  12.513   2.513   8.748
 1551POPC   C2B23540  12.528   2.267   8.355
 1551POPC   C3B23541  12.489   2.503   7.976
 1551POPC   C4B23542  12.719   2.575   7.636
 1552POPC   NC323543  18.042  43.507   9.379
 1552POPC   PO423544  18.306  44.126   9.490
 1552POPC   GL123545  18.283  43.928   9.135
 1552POPC   GL223546  18.472  43.618   9.149
 1552POPC   C1A23547  18.079  43.903   8.736
 1552POPC   D2A23548  17.978  43.753   8.326
 1552POPC   C3A23549  18.188  43.922   7.954
 1552POPC   C4A23550  18.539  44.134   7.738
 1552POPC   C1B23551  18.560  43.708   8.773
 1552POPC   C2B23552  18.471  43.617   8.387
 1552POPC   C3B23553  18.670  43.700   8.024
 1552POPC   C4B23554  18.662  43.573   7.635
 1553POPC   NC323555  24.254  31.303   9.666
 1553POPC   PO423556  23.853  30.756   9.490
 1553POPC   GL123557  23.885  30.593   9.088
 1553POPC   GL223558  24.201  30.386   9.141
 1553POPC   C1A23559  23.613  30.623   8.696
 1553POPC   D2A23560  23.231  30.781   8.467
 1553POPC   C3A23561  23.324  30.884   8.020
 1553POPC   C4A23562  23.436  30.557   7.692
 1553POPC   C1B23563  24.042  30.349   8.672
 1553POPC   C2B23564  24.108  30.664   8.349
 1553POPC   C3B23565  24.131  30.635   7.905
 1553POPC   C4B23566  23.870  30.314   7.735
 1554POPC   NC323567  42.953  36.761   9.457
 1554POPC   PO423568  43.419  37.239   9.380
 1554POPC   GL123569  43.162  37.048   9.043
 1554POPC   GL223570  42.798  37.060   9.038
 1554POPC   C1A23571  43.011  36.692   8.755
 1554POPC   D2A23572  43.138  36.516   8.360
 1554POPC   C3A23573  43.224  36.863   8.138
 1554POPC   C4A23574  43.361  36.885   7.749
 1554POPC   C1B23575  42.895  37.267   8.655
 1554POPC   C2B23576  43.001  37.333   8.233
 1554POPC   C3B23577  42.884  37.123   7.845
 1554POPC   C4B23578  43.085  37.146   7.420
 1555POPC   NC323579  10.925  26.683   9.489
 1555POPC   PO423580  10.370  27.108   9.597
 1555POPC   GL123581  10.469  26.832   9.230
 1555POPC   GL223582  10.689  26.565   9.063
 1555POPC   C1A23583  10.503  26.959   8.788
 1555POPC   D2A23584  10.637  26.686   8.488
 1555POPC   C3A23585  10.709  26.915   8.125
 1555POPC   C4A23586  10.648  26.978   7.706
 1555POPC   C1B23587  10.284  26.512   8.857
 1555POPC   C2B23588  10.184  26.443   8.430
 1555POPC   C3B23589  10.368  26.556   8.040
 1555POPC   C4B23590  10.801  26.487   7.845
 1556POPC   NC323591  10.058   5.807   9.385
 1556POPC   PO423592  10.547   6.168   9.674
 1556POPC   GL123593  10.549   5.785   9.236
 1556POPC   GL223594  10.876   5.645   9.126
 1556POPC   C1A23595  10.392   5.703   8.807
 1556POPC   D2A23596  10.495   5.851   8.391
 1556POPC   C3A23597  10.572   6.067   8.011
 1556POPC   C4A23598  10.444   5.924   7.558
 1556POPC   C1B23599  10.822   5.485   8.691
 1556POPC   C2B23600  10.878   5.552   8.277
 1556POPC   C3B23601  10.750   5.608   7.856
 1556POPC   C4B23602  10.974   5.691   7.459
 1557POPC   NC323603   0.779  35.990   9.508
 1557POPC   PO423604   1.340  36.348   9.544
 1557POPC   GL123605   1.245  36.260   9.113
 1557POPC   GL223606   0.868  36.228   9.066
 1557POPC   C1A23607   1.490  36.116   8.726
 1557POPC   D2A23608   1.670  36.046   8.291
 1557POPC   C3A23609   1.405  36.041   7.918
 1557POPC   C4A23610   1.249  35.671   7.659
 1557POPC   C1B23611   1.000  36.306   8.637
 1557POPC   C2B23612   0.974  36.228   8.167
 1557POPC   C3B23613   0.912  36.091   7.724
 1557POPC   C4B23614   0.863  36.345   7.306
 1558POPC   NC323615   9.495   0.029   9.377
 1558POPC   PO423616  10.072  44.674   9.599
 1558POPC   GL123617   9.785  44.619   9.226
 1558POPC   GL223618   9.882  44.889   9.012
 1558POPC   C1A23619   9.732  44.441   8.784
 1558POPC   D2A23620   9.783  44.739   8.411
 1558POPC   C3A23621   9.764  44.592   8.001
 1558POPC   C4A23622  10.095  44.357   7.792
 1558POPC   C1B23623   9.454  44.846   8.798
 1558POPC   C2B23624   9.287  44.826   8.426
 1558POPC   C3B23625   9.368   0.036   8.059
 1558POPC   C4B23626   9.628   0.074   7.713
 1559POPC   NC323627  18.421   7.118   9.451
 1559POPC   PO423628  18.099   6.585   9.554
 1559POPC   GL123629  18.118   6.600   9.134
 1559POPC   GL223630  18.061   6.948   9.119
 1559POPC   C1A23631  18.237   6.478   8.724
 1559POPC   D2A23632  18.204   6.693   8.340
 1559POPC   C3A23633  18.405   6.544   7.968
 1559POPC   C4A23634  18.214   6.506   7.558
 1559POPC   C1B23635  17.925   6.951   8.706
 1559POPC   C2B23636  17.898   7.105   8.249
 1559POPC   C3B23637  18.038   6.891   7.887
 1559POPC   C4B23638  18.394   6.966   7.654
 1560POPC   NC323639   2.633  15.374   9.537
 1560POPC   PO423640   3.277  15.155   9.435
 1560POPC   GL123641   2.943  15.272   9.155
 1560POPC   GL223642   2.669  14.994   9.192
 1560POPC   C1A23643   2.816  15.443   8.775
 1560POPC   D2A23644   3.007  15.624   8.440
 1560POPC   C3A23645   3.141  15.339   8.139
 1560POPC   C4A23646   2.818  15.385   7.838
 1560POPC   C1B23647   2.872  14.927   8.798
 1560POPC   C2B23648   2.753  15.113   8.384
 1560POPC   C3B23649   2.804  14.913   8.003
 1560POPC   C4B23650   2.903  14.627   7.691
 1561POPC   NC323651  20.742  11.507   9.543
 1561POPC   PO423652  20.528  10.885   9.542
 1561POPC   GL123653  20.700  11.143   9.201
 1561POPC   GL223654  20.440  11.423   9.144
 1561POPC   C1A23655  20.784  11.257   8.780
 1561POPC   D2A23656  20.564  11.095   8.433
 1561POPC   C3A23657  20.800  11.204   8.111
 1561POPC   C4A23658  20.897  11.196   7.701
 1561POPC   C1B23659  20.292  11.452   8.733
 1561POPC   C2B23660  20.421  11.568   8.327
 1561POPC   C3B23661  20.333  11.360   7.955
 1561POPC   C4B23662  20.350  11.479   7.549
 1562POPC   NC323663  40.484  39.855   9.493
 1562POPC   PO423664  41.020  40.175   9.552
 1562POPC   GL123665  40.809  40.050   9.139
 1562POPC   GL223666  40.452  40.154   9.098
 1562POPC   C1A23667  40.727  40.065   8.662
 1562POPC   D2A23668  40.460  39.805   8.426
 1562POPC   C3A23669  40.593  39.878   8.057
 1562POPC   C4A23670  40.848  39.985   7.725
 1562POPC   C1B23671  40.311  40.316   8.739
 1562POPC   C2B23672  40.388  40.323   8.302
 1562POPC   C3B23673  40.409  40.308   7.838
 1562POPC   C4B23674  40.370  39.927   7.587
 1563POPC   NC323675  31.270  28.084   9.701
 1563POPC   PO423676  31.613  28.614   9.600
 1563POPC   GL123677  31.633  28.379   9.189
 1563POPC   GL223678  31.443  28.065   9.143
 1563POPC   C1A23679  31.671  28.351   8.716
 1563POPC   D2A23680  31.350  28.592   8.479
 1563POPC   C3A23681  31.301  28.820   8.105
 1563POPC   C4A23682  31.496  28.596   7.829
 1563POPC   C1B23683  31.176  28.191   8.768
 1563POPC   C2B23684  31.111  28.179   8.297
 1563POPC   C3B23685  31.412  28.123   7.929
 1563POPC   C4B23686  31.497  27.920   7.518
 1564POPC   NC323687   2.514   4.782   9.496
 1564POPC   PO423688   2.024   5.182   9.589
 1564POPC   GL123689   2.296   5.346   9.216
 1564POPC   GL223690   2.639   5.172   9.168
 1564POPC   C1A23691   2.442   5.356   8.748
 1564POPC   D2A23692   2.710   5.344   8.356
 1564POPC   C3A23693   2.592   5.215   7.943
 1564POPC   C4A23694   2.647   4.880   7.623
 1564POPC   C1B23695   2.897   5.086   8.768
 1564POPC   C2B23696   2.968   4.909   8.335
 1564POPC   C3B23697   3.088   5.057   7.909
 1564POPC   C4B23698   3.162   4.895   7.469
 1565POPC   NC323699  38.571  43.456   9.569
 1565POPC   PO423700  38.451  42.815   9.591
 1565POPC   GL123701  38.563  42.897   9.197
 1565POPC   GL223702  38.770  43.137   9.230
 1565POPC   C1A23703  38.410  43.106   8.840
 1565POPC   D2A23704  38.144  43.107   8.486
 1565POPC   C3A23705  38.337  43.106   8.057
 1565POPC   C4A23706  38.642  42.861   7.820
 1565POPC   C1B23707  38.916  43.253   8.819
 1565POPC   C2B23708  38.745  43.209   8.452
 1565POPC   C3B23709  38.890  43.188   8.097
 1565POPC   C4B23710  38.874  43.300   7.702
 1566POPC   NC323711  21.119  37.638   9.614
 1566POPC   PO423712  21.792  37.386   9.569
 1566POPC   GL123713  21.574  37.646   9.196
 1566POPC   GL223714  21.224  37.666   9.134
 1566POPC   C1A23715  21.451  37.718   8.706
 1566POPC   D2A23716  21.664  37.999   8.410
 1566POPC   C3A23717  21.758  37.776   8.011
 1566POPC   C4A23718  21.409  37.612   7.747
 1566POPC   C1B23719  21.156  37.297   8.833
 1566POPC   C2B23720  21.336  37.223   8.459
 1566POPC   C3B23721  21.157  37.322   8.085
 1566POPC   C4B23722  21.161  37.158   7.676
 1567POPC   NC323723  24.372  34.128   9.446
 1567POPC   PO423724  24.655  34.696   9.320
 1567POPC   GL123725  24.487  34.478   9.017
 1567POPC   GL223726  24.211  34.271   8.985
 1567POPC   C1A23727  24.509  34.623   8.620
 1567POPC   D2A23728  24.435  34.488   8.241
 1567POPC   C3A23729  24.622  34.664   7.893
 1567POPC   C4A23730  24.801  34.319   7.629
 1567POPC   C1B23731  24.049  34.696   8.823
 1567POPC   C2B23732  24.086  34.953   8.440
 1567POPC   C3B23733  24.105  34.788   8.014
 1567POPC   C4B23734  24.205  34.720   7.580
 1568POPC   NC323735  44.336  28.714   9.645
 1568POPC   PO423736  44.306  29.271   9.938
 1568POPC   GL123737  44.380  29.188   9.411
 1568POPC   GL223738  44.533  28.871   9.208
 1568POPC   C1A23739  44.310  29.201   8.897
 1568POPC   D2A23740  44.265  28.996   8.445
 1568POPC   C3A23741  44.340  29.262   8.092
 1568POPC   C4A23742  44.492  29.519   7.755
 1568POPC   C1B23743  44.637  28.808   8.732
 1568POPC   C2B23744  44.936  28.637   8.416
 1568POPC   C3B23745  44.929  28.728   7.978
 1568POPC   C4B23746  44.846  29.135   7.787
 1569POPC   NC323747  38.182   4.540   9.800
 1569POPC   PO423748  38.321   3.936   9.661
 1569POPC   GL123749  38.322   4.350   9.322
 1569POPC   GL223750  38.687   4.453   9.176
 1569POPC   C1A23751  38.333   4.446   8.850
 1569POPC   D2A23752  38.583   4.272   8.502
 1569POPC   C3A23753  38.432   4.349   8.095
 1569POPC   C4A23754  38.406   4.008   7.769
 1569POPC   C1B23755  38.853   4.599   8.783
 1569POPC   C2B23756  39.019   4.668   8.376
 1569POPC   C3B23757  38.923   4.450   7.997
 1569POPC   C4B23758  38.608   4.431   7.613
 1570POPC   NC323759  18.450   7.827   9.309
 1570POPC   PO423760  18.196   8.362   9.683
 1570POPC   GL123761  18.169   8.204   9.189
 1570POPC   GL223762  17.891   7.968   9.102
 1570POPC   C1A23763  18.305   7.965   8.728
 1570POPC   D2A23764  18.571   8.059   8.362
 1570POPC   C3A23765  18.449   8.159   7.925
 1570POPC   C4A23766  18.409   7.939   7.534
 1570POPC   C1B23767  17.934   8.296   8.757
 1570POPC   C2B23768  18.077   8.244   8.343
 1570POPC   C3B23769  17.964   8.084   7.966
 1570POPC   C4B23770  18.029   8.311   7.604
 1571POPC   NC323771  19.690  43.204   9.485
 1571POPC   PO423772  20.188  42.722   9.509
 1571POPC   GL123773  19.978  42.907   9.164
 1571POPC   GL223774  19.645  42.846   9.059
 1571POPC   C1A23775  19.938  43.234   8.861
 1571POPC   D2A23776  20.080  43.347   8.465
 1571POPC   C3A23777  19.769  43.485   8.177
 1571POPC   C4A23778  19.693  43.278   7.804
 1571POPC   C1B23779  19.820  42.658   8.706
 1571POPC   C2B23780  19.828  42.570   8.254
 1571POPC   C3B23781  19.663  42.718   7.843
 1571POPC   C4B23782  19.753  42.626   7.354
 1572POPC   NC323783   4.620  37.824   9.852
 1572POPC   PO423784   4.147  37.425   9.689
 1572POPC   GL123785   4.264  37.690   9.319
 1572POPC   GL223786   4.451  37.448   9.208
 1572POPC   C1A23787   4.373  37.828   8.860
 1572POPC   D2A23788   4.407  37.980   8.411
 1572POPC   C3A23789   4.078  37.921   8.089
 1572POPC   C4A23790   4.014  38.191   7.739
 1572POPC   C1B23791   4.103  37.397   8.886
 1572POPC   C2B23792   4.116  37.541   8.452
 1572POPC   C3B23793   4.429  37.531   8.121
 1572POPC   C4B23794   4.499  37.870   7.816
 1573POPC   NC323795  34.560  16.974   9.593
 1573POPC   PO423796  35.086  16.498   9.450
 1573POPC   GL123797  34.759  16.615   9.148
 1573POPC   GL223798  34.399  16.610   9.212
 1573POPC   C1A23799  34.604  16.747   8.749
 1573POPC   D2A23800  34.394  16.516   8.442
 1573POPC   C3A23801  34.633  16.538   8.097
 1573POPC   C4A23802  34.580  16.699   7.718
 1573POPC   C1B23803  34.181  16.935   8.959
 1573POPC   C2B23804  34.143  16.931   8.543
 1573POPC   C3B23805  34.372  16.994   8.177
 1573POPC   C4B23806  34.202  17.027   7.763
 1574POPC   NC323807   3.135   9.516   9.578
 1574POPC   PO423808   3.485  10.052   9.465
 1574POPC   GL123809   3.482   9.691   9.175
 1574POPC   GL223810   3.818   9.537   9.209
 1574POPC   C1A23811   3.342   9.524   8.758
 1574POPC   D2A23812   3.330   9.478   8.299
 1574POPC   C3A23813   3.428   9.873   8.089
 1574POPC   C4A23814   3.203   9.798   7.751
 1574POPC   C1B23815   3.964   9.499   8.813
 1574POPC   C2B23816   3.757   9.689   8.475
 1574POPC   C3B23817   3.810   9.544   8.071
 1574POPC   C4B23818   3.716   9.735   7.671
 1575POPC   NC323819  40.894  28.659   9.477
 1575POPC   PO423820  40.831  29.347   9.468
 1575POPC   GL123821  40.580  29.035   9.241
 1575POPC   GL223822  40.819  28.851   9.013
 1575POPC   C1A23823  40.366  28.999   8.846
 1575POPC   D2A23824  40.618  28.849   8.500
 1575POPC   C3A23825  40.552  29.018   8.116
 1575POPC   C4A23826  40.493  29.070   7.658
 1575POPC   C1B23827  40.811  29.237   8.777
 1575POPC   C2B23828  40.959  29.258   8.355
 1575POPC   C3B23829  40.935  29.253   7.894
 1575POPC   C4B23830  40.960  29.151   7.448
 1576POPC   NC323831   9.227  16.088   9.709
 1576POPC   PO423832   9.819  15.846   9.435
 1576POPC   GL123833   9.634  15.886   9.077
 1576POPC   GL223834   9.923  16.100   8.992
 1576POPC   C1A23835   9.734  15.806   8.642
 1576POPC   D2A23836   9.932  16.161   8.425
 1576POPC   C3A23837   9.769  16.132   8.045
 1576POPC   C4A23838   9.898  15.930   7.717
 1576POPC   C1B23839   9.531  16.276   8.722
 1576POPC   C2B23840   9.506  16.514   8.320
 1576POPC   C3B23841   9.496  16.526   7.853
 1576POPC   C4B23842   9.528  16.217   7.542
 1577POPC   NC323843   9.799  18.924   9.424
 1577POPC   PO423844   9.785  19.458   9.791
 1577POPC   GL123845   9.622  19.378   9.279
 1577POPC   GL223846   9.388  19.061   9.151
 1577POPC   C1A23847   9.755  19.193   8.828
 1577POPC   D2A23848   9.747  19.309   8.432
 1577POPC   C3A23849   9.859  19.044   8.100
 1577POPC   C4A23850   9.934  19.252   7.732
 1577POPC   C1B23851   9.259  19.158   8.724
 1577POPC   C2B23852   9.324  19.023   8.302
 1577POPC   C3B23853   9.415  19.025   7.858
 1577POPC   C4B23854   9.688  18.753   7.632
 1578POPC   NC323855  30.055  44.371   9.586
 1578POPC   PO423856  30.321   0.017   9.606
 1578POPC   GL123857  30.096  44.734   9.200
 1578POPC   GL223858  30.032  44.363   9.107
 1578POPC   C1A23859  29.866  44.675   8.767
 1578POPC   D2A23860  29.906  44.464   8.373
 1578POPC   C3A23861  29.697  44.627   8.040
 1578POPC   C4A23862  29.585  44.729   7.634
 1578POPC   C1B23863  30.009  44.151   8.769
 1578POPC   C2B23864  30.160  44.005   8.345
 1578POPC   C3B23865  30.214  44.311   7.975
 1578POPC   C4B23866  30.119  44.667   7.671
 1579POPC   NC323867  14.586  24.895   9.665
 1579POPC   PO423868  14.299  25.477   9.569
 1579POPC   GL123869  14.446  25.311   9.195
 1579POPC   GL223870  14.688  25.019   9.183
 1579POPC   C1A23871  14.408  25.481   8.779
 1579POPC   D2A23872  14.266  25.585   8.371
 1579POPC   C3A23873  14.591  25.458   8.065
 1579POPC   C4A23874  14.547  25.319   7.651
 1579POPC   C1B23875  14.461  24.977   8.784
 1579POPC   C2B23876  14.361  25.071   8.339
 1579POPC   C3B23877  14.437  24.909   7.912
 1579POPC   C4B23878  14.633  24.863   7.445
 1580POPC   NC323879   3.885  17.718   9.513
 1580POPC   PO423880   3.163  17.754   9.466
 1580POPC   GL123881   3.480  17.711   9.143
 1580POPC   GL223882   3.504  17.388   9.116
 1580POPC   C1A23883   3.608  17.638   8.694
 1580POPC   D2A23884   3.464  17.771   8.325
 1580POPC   C3A23885   3.630  17.637   7.953
 1580POPC   C4A23886   3.302  17.636   7.668
 1580POPC   C1B23887   3.518  17.143   8.766
 1580POPC   C2B23888   3.623  17.234   8.335
 1580POPC   C3B23889   3.383  17.179   7.959
 1580POPC   C4B23890   3.469  17.169   7.541
 1581POPC   NC323891  10.929   9.991   9.406
 1581POPC   PO423892  11.579  10.128   9.616
 1581POPC   GL123893  11.391   9.770   9.303
 1581POPC   GL223894  11.555   9.422   9.202
 1581POPC   C1A23895  11.288   9.844   8.850
 1581POPC   D2A23896  11.395  10.146   8.531
 1581POPC   C3A23897  11.434  10.013   8.113
 1581POPC   C4A23898  11.201   9.962   7.749
 1581POPC   C1B23899  11.425   9.353   8.744
 1581POPC   C2B23900  11.212   9.579   8.365
 1581POPC   C3B23901  11.295   9.472   7.917
 1581POPC   C4B23902  11.365   9.458   7.453
 1582POPC   NC323903  15.156  39.528   9.391
 1582POPC   PO423904  15.175  38.832   9.481
 1582POPC   GL123905  15.287  39.057   9.162
 1582POPC   GL223906  14.935  39.167   9.105
 1582POPC   C1A23907  15.331  39.261   8.770
 1582POPC   D2A23908  15.271  39.121   8.383
 1582POPC   C3A23909  15.268  39.390   8.041
 1582POPC   C4A23910  15.432  39.162   7.711
 1582POPC   C1B23911  14.987  38.843   8.807
 1582POPC   C2B23912  14.840  38.834   8.432
 1582POPC   C3B23913  14.980  38.878   8.036
 1582POPC   C4B23914  14.897  39.179   7.750
 1583POPC   NC323915  12.739   3.914   9.403
 1583POPC   PO423916  13.131   4.451   9.532
 1583POPC   GL123917  12.839   4.393   9.188
 1583POPC   GL223918  12.870   4.718   9.059
 1583POPC   C1A23919  12.599   4.311   8.806
 1583POPC   D2A23920  12.457   4.469   8.387
 1583POPC   C3A23921  12.662   4.319   8.010
 1583POPC   C4A23922  13.043   4.113   7.845
 1583POPC   C1B23923  12.907   4.664   8.609
 1583POPC   C2B23924  13.000   4.676   8.197
 1583POPC   C3B23925  13.060   4.616   7.787
 1583POPC   C4B23926  12.914   4.829   7.486
 1584POPC   NC323927  29.885   4.162   9.658
 1584POPC   PO423928  30.127   3.604   9.702
 1584POPC   GL123929  30.002   3.834   9.272
 1584POPC   GL223930  29.652   3.960   9.235
 1584POPC   C1A23931  29.994   3.785   8.797
 1584POPC   D2A23932  29.898   3.737   8.335
 1584POPC   C3A23933  30.259   3.722   8.029
 1584POPC   C4A23934  30.426   3.404   7.739
 1584POPC   C1B23935  29.474   3.880   8.833
 1584POPC   C2B23936  29.522   4.080   8.410
 1584POPC   C3B23937  29.535   3.905   8.006
 1584POPC   C4B23938  29.793   3.574   7.850
 1585POPC   NC323939  33.985  39.498   9.554
 1585POPC   PO423940  33.726  38.845   9.577
 1585POPC   GL123941  33.949  39.079   9.244
 1585POPC   GL223942  33.663  39.273   9.202
 1585POPC   C1A23943  34.018  39.251   8.820
 1585POPC   D2A23944  33.820  39.490   8.485
 1585POPC   C3A23945  33.867  39.338   8.049
 1585POPC   C4A23946  33.631  39.308   7.674
 1585POPC   C1B23947  33.524  39.056   8.800
 1585POPC   C2B23948  33.476  39.021   8.328
 1585POPC   C3B23949  33.307  38.877   7.869
 1585POPC   C4B23950  33.254  38.947   7.397
 1586POPC   NC323951  29.934  28.804   9.437
 1586POPC   PO423952  29.624  28.225   9.544
 1586POPC   GL123953  29.863  28.237   9.160
 1586POPC   GL223954  29.738  28.540   9.038
 1586POPC   C1A23955  29.768  28.123   8.707
 1586POPC   D2A23956  29.669  28.237   8.249
 1586POPC   C3A23957  29.909  28.164   7.837
 1586POPC   C4A23958  30.172  28.116   7.432
 1586POPC   C1B23959  29.827  28.619   8.607
 1586POPC   C2B23960  29.572  28.757   8.287
 1586POPC   C3B23961  29.741  28.647   7.927
 1586POPC   C4B23962  30.126  28.819   7.770
 1587POPC   NC323963  24.718  20.498   9.551
 1587POPC   PO423964  24.017  20.728   9.575
 1587POPC   GL123965  24.305  20.733   9.210
 1587POPC   GL223966  24.477  20.458   9.097
 1587POPC   C1A23967  24.219  20.735   8.742
 1587POPC   D2A23968  24.132  20.622   8.298
 1587POPC   C3A23969  24.444  20.677   7.957
 1587POPC   C4A23970  24.359  20.808   7.537
 1587POPC   C1B23971  24.747  20.442   8.727
 1587POPC   C2B23972  24.844  20.560   8.307
 1587POPC   C3B23973  24.805  20.313   7.939
 1587POPC   C4B23974  24.538  20.305   7.587
 1588POPC   NC323975   8.226  17.295   9.454
 1588POPC   PO423976   7.973  17.906   9.516
 1588POPC   GL123977   8.160  17.683   9.151
 1588POPC   GL223978   7.979  17.358   9.019
 1588POPC   C1A23979   7.992  17.810   8.770
 1588POPC   D2A23980   7.751  17.547   8.527
 1588POPC   C3A23981   7.931  17.495   8.130
 1588POPC   C4A23982   8.091  17.656   7.743
 1588POPC   C1B23983   8.315  17.322   8.762
 1588POPC   C2B23984   8.311  17.180   8.349
 1588POPC   C3B23985   8.411  17.349   7.975
 1588POPC   C4B23986   8.545  17.500   7.564
 1589POPC   NC323987  21.703  29.992   9.489
 1589POPC   PO423988  22.428  29.885   9.476
 1589POPC   GL123989  22.121  29.976   9.163
 1589POPC   GL223990  22.055  29.650   9.040
 1589POPC   C1A23991  22.030  30.161   8.749
 1589POPC   D2A23992  21.755  30.237   8.385
 1589POPC   C3A23993  21.918  30.278   7.981
 1589POPC   C4A23994  22.331  30.258   7.814
 1589POPC   C1B23995  22.467  29.797   8.780
 1589POPC   C2B23996  22.624  29.918   8.334
 1589POPC   C3B23997  22.474  29.740   7.933
 1589POPC   C4B23998  22.117  29.510   7.765
 1590POPC   NC323999  43.172  34.351   9.591
 1590POPC   PO424000  43.149  35.005   9.371
 1590POPC   GL124001  43.205  34.604   9.117
 1590POPC   GL224002  42.938  34.325   9.120
 1590POPC   C1A24003  43.260  34.695   8.679
 1590POPC   D2A24004  42.930  34.849   8.403
 1590POPC   C3A24005  43.017  34.700   8.011
 1590POPC   C4A24006  43.310  34.675   7.713
 1590POPC   C1B24007  43.121  34.199   8.713
 1590POPC   C2B24008  43.178  34.343   8.319
 1590POPC   C3B24009  43.087  34.185   7.909
 1590POPC   C4B24010  43.011  33.991   7.539
 1591POPC   NC324011   6.443  21.043   9.523
 1591POPC   PO424012   6.674  21.615   9.764
 1591POPC   GL124013   6.513  21.582   9.295
 1591POPC   GL224014   6.541  21.278   9.103
 1591POPC   C1A24015   6.649  21.650   8.803
 1591POPC   D2A24016   6.646  21.464   8.367
 1591POPC   C3A24017   6.419  21.625   8.001
 1591POPC   C4A24018   6.724  21.665   7.686
 1591POPC   C1B24019   6.582  21.098   8.705
 1591POPC   C2B24020   6.542  20.953   8.256
 1591POPC   C3B24021   6.623  21.142   7.864
 1591POPC   C4B24022   6.507  21.257   7.441
 1592POPC   NC324023   8.051  24.067   9.496
 1592POPC   PO424024   8.368  23.564   9.551
 1592POPC   GL124025   8.363  23.598   9.120
 1592POPC   GL224026   8.072  23.810   9.056
 1592POPC   C1A24027   8.248  23.508   8.689
 1592POPC   D2A24028   8.478  23.612   8.359
 1592POPC   C3A24029   8.357  23.408   8.043
 1592POPC   C4A24030   8.084  23.414   7.730
 1592POPC   C1B24031   8.333  24.011   8.747
 1592POPC   C2B24032   8.387  24.138   8.292
 1592POPC   C3B24033   8.266  24.023   7.859
 1592POPC   C4B24034   8.118  24.252   7.490
 1593POPC   NC324035  36.549  44.009   9.813
 1593POPC   PO424036  35.938  43.877   9.556
 1593POPC   GL124037  36.052  43.984   9.176
 1593POPC   GL224038  35.852  43.812   8.995
 1593POPC   C1A24039  36.296  43.945   8.797
 1593POPC   D2A24040  36.147  43.882   8.378
 1593POPC   C3A24041  36.037  44.184   8.069
 1593POPC   C4A24042  36.217  44.169   7.644
 1593POPC   C1B24043  35.676  43.879   8.604
 1593POPC   C2B24044  35.652  43.855   8.175
 1593POPC   C3B24045  35.738  43.643   7.808
 1593POPC   C4B24046  35.959  43.775   7.449
 1594POPC   NC324047  16.828  41.361   9.399
 1594POPC   PO424048  17.070  41.942   9.546
 1594POPC   GL124049  16.893  41.814   9.162
 1594POPC   GL224050  16.529  41.716   9.177
 1594POPC   C1A24051  16.939  41.536   8.781
 1594POPC   D2A24052  17.064  41.233   8.453
 1594POPC   C3A24053  16.846  41.342   8.076
 1594POPC   C4A24054  16.835  41.470   7.678
 1594POPC   C1B24055  16.400  41.529   8.790
 1594POPC   C2B24056  16.582  41.640   8.400
 1594POPC   C3B24057  16.518  41.767   7.987
 1594POPC   C4B24058  16.450  41.795   7.546
 1595POPC   NC324059  17.664  24.501   9.557
 1595POPC   PO424060  17.356  23.915   9.513
 1595POPC   GL124061  17.391  24.275   9.189
 1595POPC   GL224062  17.725  24.425   9.062
 1595POPC   C1A24063  17.308  24.397   8.759
 1595POPC   D2A24064  17.435  24.529   8.325
 1595POPC   C3A24065  17.402  24.261   7.960
 1595POPC   C4A24066  17.137  24.153   7.605
 1595POPC   C1B24067  17.710  24.730   8.723
 1595POPC   C2B24068  17.865  24.809   8.283
 1595POPC   C3B24069  17.573  24.867   7.909
 1595POPC   C4B24070  17.408  24.601   7.540
 1596POPC   NC324071  15.995   2.756   9.495
 1596POPC   PO424072  15.475   3.069   9.352
 1596POPC   GL124073  15.632   2.686   9.115
 1596POPC   GL224074  15.949   2.813   9.000
 1596POPC   C1A24075  15.684   2.587   8.655
 1596POPC   D2A24076  15.904   2.813   8.344
 1596POPC   C3A24077  15.849   2.593   7.955
 1596POPC   C4A24078  15.765   2.727   7.560
 1596POPC   C1B24079  16.197   2.528   8.736
 1596POPC   C2B24080  16.402   2.622   8.357
 1596POPC   C3B24081  16.301   2.787   7.971
 1596POPC   C4B24082  16.257   2.641   7.566
 1597POPC   NC324083  25.068  30.761   9.872
 1597POPC   PO424084  24.795  31.230   9.485
 1597POPC   GL124085  24.551  30.899   9.234
 1597POPC   GL224086  24.721  30.571   9.117
 1597POPC   C1A24087  24.351  30.762   8.826
 1597POPC   D2A24088  24.538  30.450   8.529
 1597POPC   C3A24089  24.610  30.468   8.070
 1597POPC   C4A24090  24.557  30.582   7.608
 1597POPC   C1B24091  24.870  30.805   8.758
 1597POPC   C2B24092  24.939  30.768   8.329
 1597POPC   C3B24093  24.756  30.940   7.941
 1597POPC   C4B24094  24.802  30.982   7.482
 1598POPC   NC324095  13.643  41.030   9.329
 1598POPC   PO424096  13.363  40.455   9.664
 1598POPC   GL124097  13.543  40.541   9.223
 1598POPC   GL224098  13.909  40.575   9.181
 1598POPC   C1A24099  13.460  40.772   8.799
 1598POPC   D2A24100  13.491  40.639   8.407
 1598POPC   C3A24101  13.460  40.922   8.063
 1598POPC   C4A24102  13.646  40.817   7.679
 1598POPC   C1B24103  13.980  40.768   8.749
 1598POPC   C2B24104  13.879  41.030   8.372
 1598POPC   C3B24105  13.927  41.133   7.927
 1598POPC   C4B24106  13.985  41.119   7.442
 1599POPC   NC324107  42.194  36.472   9.357
 1599POPC   PO424108  42.364  35.844   9.506
 1599POPC   GL124109  42.446  36.015   9.088
 1599POPC   GL224110  42.130  36.162   8.956
 1599POPC   C1A24111  42.554  35.955   8.640
 1599POPC   D2A24112  42.672  36.287   8.321
 1599POPC   C3A24113  42.639  36.133   7.923
 1599POPC   C4A24114  42.260  36.064   7.697
 1599POPC   C1B24115  42.409  36.450   8.731
 1599POPC   C2B24116  42.279  36.617   8.332
 1599POPC   C3B24117  42.123  36.569   7.936
 1599POPC   C4B24118  42.267  36.530   7.510
 1600POPC   NC324119  25.482   2.100   9.423
 1600POPC   PO424120  25.023   1.712   9.323
 1600POPC   GL124121  25.146   1.962   9.040
 1600POPC   GL224122  25.080   2.293   9.173
 1600POPC   C1A24123  25.306   1.825   8.649
 1600POPC   D2A24124  25.182   1.781   8.244
 1600POPC   C3A24125  25.365   1.756   7.844
 1600POPC   C4A24126  25.007   1.776   7.501
 1600POPC   C1B24127  25.388   2.309   8.771
 1600POPC   C2B24128  25.249   2.289   8.338
 1600POPC   C3B24129  25.077   2.168   7.932
 1600POPC   C4B24130  25.322   2.186   7.554
 1601POPC   NC324131  20.910   1.439   9.453
 1601POPC   PO424132  20.484   1.002   9.518
 1601POPC   GL124133  20.596   1.123   9.137
 1601POPC   GL224134  20.334   0.934   8.945
 1601POPC   C1A24135  20.828   1.021   8.794
 1601POPC   D2A24136  20.620   0.832   8.453
 1601POPC   C3A24137  20.508   1.078   8.095
 1601POPC   C4A24138  20.617   1.087   7.671
 1601POPC   C1B24139  20.387   1.349   8.712
 1601POPC   C2B24140  20.336   1.534   8.287
 1601POPC   C3B24141  20.336   1.522   7.834
 1601POPC   C4B24142  20.224   1.341   7.453
 1602POPC   NC324143  15.689  26.290   9.683
 1602POPC   PO424144  16.352  26.173   9.451
 1602POPC   GL124145  16.046  26.047   9.092
 1602POPC   GL224146  16.165  26.335   8.856
 1602POPC   C1A24147  15.684  26.101   8.767
 1602POPC   D2A24148  15.576  26.247   8.329
 1602POPC   C3A24149  15.796  26.091   7.955
 1602POPC   C4A24150  16.186  26.297   7.898
 1602POPC   C1B24151  16.155  25.990   8.590
 1602POPC   C2B24152  16.071  25.751   8.262
 1602POPC   C3B24153  16.297  25.766   7.921
 1602POPC   C4B24154  16.192  25.912   7.556
 1603POPC   NC324155  16.751   2.428   9.468
 1603POPC   PO424156  16.360   3.061   9.506
 1603POPC   GL124157  16.640   2.888   9.244
 1603POPC   GL224158  16.422   2.666   9.153
 1603POPC   C1A24159  16.837   2.778   8.823
 1603POPC   D2A24160  16.913   2.548   8.414
 1603POPC   C3A24161  16.809   2.723   7.996
 1603POPC   C4A24162  16.772   2.542   7.564
 1603POPC   C1B24163  16.383   3.031   8.843
 1603POPC   C2B24164  16.389   3.127   8.435
 1603POPC   C3B24165  16.582   3.189   8.056
 1603POPC   C4B24166  16.602   3.019   7.619
 1604POPC   NC324167  27.006  21.921   9.690
 1604POPC   PO424168  26.482  22.323   9.560
 1604POPC   GL124169  26.597  22.433   9.138
 1604POPC   GL224170  26.882  22.208   9.207
 1604POPC   C1A24171  26.509  22.296   8.709
 1604POPC   D2A24172  26.794  22.188   8.386
 1604POPC   C3A24173  26.925  22.313   7.969
 1604POPC   C4A24174  26.816  22.575   7.619
 1604POPC   C1B24175  26.953  21.979   8.832
 1604POPC   C2B24176  26.877  21.679   8.503
 1604POPC   C3B24177  26.870  21.781   8.085
 1604POPC   C4B24178  27.029  21.877   7.704
 1605POPC   NC324179   7.474  30.134   9.484
 1605POPC   PO424180   6.826  29.932   9.563
 1605POPC   GL124181   7.095  29.977   9.177
 1605POPC   GL224182   7.452  29.768   9.125
 1605POPC   C1A24183   7.252  30.101   8.784
 1605POPC   D2A24184   7.416  29.916   8.437
 1605POPC   C3A24185   7.267  29.983   8.065
 1605POPC   C4A24186   7.553  29.723   7.859
 1605POPC   C1B24187   7.764  29.958   8.811
 1605POPC   C2B24188   7.859  30.169   8.403
 1605POPC   C3B24189   7.717  30.237   7.979
 1605POPC   C4B24190   7.879  30.078   7.585
 1606POPC   NC324191  38.724   5.959   9.574
 1606POPC   PO424192  38.148   5.613   9.473
 1606POPC   GL124193  38.366   5.887   9.142
 1606POPC   GL224194  38.700   6.066   9.101
 1606POPC   C1A24195  38.392   5.985   8.693
 1606POPC   D2A24196  38.243   5.783   8.318
 1606POPC   C3A24197  38.248   6.083   7.999
 1606POPC   C4A24198  38.594   6.249   7.870
 1606POPC   C1B24199  38.779   5.674   8.902
 1606POPC   C2B24200  38.733   5.638   8.468
 1606POPC   C3B24201  38.687   5.762   8.048
 1606POPC   C4B24202  38.442   5.717   7.697
 1607POPC   NC324203  25.065  27.134   9.338
 1607POPC   PO424204  25.390  26.652   9.755
 1607POPC   GL124205  25.373  26.737   9.256
 1607POPC   GL224206  25.634  26.963   9.226
 1607POPC   C1A24207  25.144  26.700   8.823
 1607POPC   D2A24208  25.173  26.920   8.430
 1607POPC   C3A24209  25.279  26.633   8.136
 1607POPC   C4A24210  25.236  26.488   7.719
 1607POPC   C1B24211  25.604  26.936   8.778
 1607POPC   C2B24212  25.675  27.035   8.344
 1607POPC   C3B24213  25.516  27.045   7.957
 1607POPC   C4B24214  25.558  26.872   7.559
 1608POPC   NC324215  31.629   6.921  10.023
 1608POPC   PO424216  31.589   6.446   9.579
 1608POPC   GL124217  31.438   6.539   9.206
 1608POPC   GL224218  31.545   6.825   9.160
 1608POPC   C1A24219  31.325   6.617   8.768
 1608POPC   D2A24220  31.587   6.589   8.416
 1608POPC   C3A24221  31.411   6.611   8.033
 1608POPC   C4A24222  31.506   6.775   7.628
 1608POPC   C1B24223  31.861   6.773   8.805
 1608POPC   C2B24224  31.959   6.929   8.352
 1608POPC   C3B24225  31.912   6.707   7.931
 1608POPC   C4B24226  31.975   6.725   7.457
 1609POPC   NC324227  16.560  35.823   9.923
 1609POPC   PO424228  16.814  36.326   9.526
 1609POPC   GL124229  16.800  36.238   9.095
 1609POPC   GL224230  16.444  36.339   9.133
 1609POPC   C1A24231  16.984  35.978   8.739
 1609POPC   D2A24232  17.234  35.979   8.321
 1609POPC   C3A24233  16.953  36.094   7.991
 1609POPC   C4A24234  16.624  35.836   7.910
 1609POPC   C1B24235  16.465  36.229   8.697
 1609POPC   C2B24236  16.575  36.449   8.308
 1609POPC   C3B24237  16.473  36.311   7.882
 1609POPC   C4B24238  16.398  36.295   7.439
 1610POPC   NC324239   0.816  18.288   9.391
 1610POPC   PO424240   1.296  17.879   9.438
 1610POPC   GL124241   1.361  18.085   9.093
 1610POPC   GL224242   1.018  18.091   8.970
 1610POPC   C1A24243   1.430  18.181   8.685
 1610POPC   D2A24244   1.167  18.253   8.337
 1610POPC   C3A24245   1.485  18.160   8.023
 1610POPC   C4A24246   1.644  18.436   7.708
 1610POPC   C1B24247   0.960  18.499   8.778
 1610POPC   C2B24248   0.873  18.671   8.378
 1610POPC   C3B24249   0.749  18.386   8.044
 1610POPC   C4B24250   1.029  18.162   7.751
 1611POPC   NC324251  13.195  44.959   9.403
 1611POPC   PO424252  12.556  44.720   9.492
 1611POPC   GL124253  12.823  44.675   9.178
 1611POPC   GL224254  13.091  44.448   9.263
 1611POPC   C1A24255  12.811  44.887   8.783
 1611POPC   D2A24256  12.899   0.141   8.417
 1611POPC   C3A24257  12.732  44.945   8.044
 1611POPC   C4A24258  12.871  44.926   7.624
 1611POPC   C1B24259  13.037  44.425   8.792
 1611POPC   C2B24260  12.877  44.532   8.372
 1611POPC   C3B24261  12.947  44.480   7.910
 1611POPC   C4B24262  12.898  44.406   7.463
 1612POPC   NC324263  13.368   6.063   9.545
 1612POPC   PO424264  13.928   5.665   9.489
 1612POPC   GL124265  13.768   5.974   9.181
 1612POPC   GL224266  13.465   6.184   9.086
 1612POPC   C1A24267  13.771   5.813   8.785
 1612POPC   D2A24268  13.774   5.981   8.371
 1612POPC   C3A24269  13.570   5.693   8.101
 1612POPC   C4A24270  13.441   5.685   7.693
 1612POPC   C1B24271  13.659   6.319   8.764
 1612POPC   C2B24272  13.450   6.384   8.408
 1612POPC   C3B24273  13.371   6.157   8.030
 1612POPC   C4B24274  13.529   6.313   7.655
 1613POPC   NC324275  28.699  40.741   9.294
 1613POPC   PO424276  28.170  40.962   9.697
 1613POPC   GL124277  28.171  40.787   9.206
 1613POPC   GL224278  28.415  40.915   8.928
 1613POPC   C1A24279  28.114  40.588   8.723
 1613POPC   D2A24280  28.316  40.807   8.361
 1613POPC   C3A24281  28.451  40.629   7.964
 1613POPC   C4A24282  28.263  40.832   7.585
 1613POPC   C1B24283  28.772  41.167   8.754
 1613POPC   C2B24284  29.000  41.140   8.405
 1613POPC   C3B24285  28.828  40.921   8.112
 1613POPC   C4B24286  28.773  40.898   7.673
 1614POPC   NC324287  31.099   6.820   9.464
 1614POPC   PO424288  30.365   6.863   9.515
 1614POPC   GL124289  30.580   6.672   9.154
 1614POPC   GL224290  30.902   6.564   9.081
 1614POPC   C1A24291  30.458   6.425   8.797
 1614POPC   D2A24292  30.402   6.638   8.406
 1614POPC   C3A24293  30.428   6.464   8.001
 1614POPC   C4A24294  30.644   6.560   7.648
 1614POPC   C1B24295  30.842   6.758   8.654
 1614POPC   C2B24296  30.834   6.774   8.164
 1614POPC   C3B24297  31.035   6.828   7.780
 1614POPC   C4B24298  31.112   6.542   7.402
 1615POPC   NC324299   8.891   7.831   9.441
 1615POPC   PO424300   9.396   7.411   9.492
 1615POPC   GL124301   9.097   7.459   9.120
 1615POPC   GL224302   8.785   7.259   9.083
 1615POPC   C1A24303   9.178   7.344   8.686
 1615POPC   D2A24304   9.401   7.381   8.284
 1615POPC   C3A24305   9.104   7.258   7.964
 1615POPC   C4A24306   9.052   7.411   7.548
 1615POPC   C1B24307   8.648   7.400   8.684
 1615POPC   C2B24308   8.721   7.190   8.287
 1615POPC   C3B24309   8.591   7.337   7.880
 1615POPC   C4B24310   8.556   7.472   7.449
 1616POPC   NC324311  35.812  30.791   9.401
 1616POPC   PO424312  36.344  30.420   9.374
 1616POPC   GL124313  36.202  30.661   9.058
 1616POPC   GL224314  35.902  30.444   9.062
 1616POPC   C1A24315  36.141  30.889   8.654
 1616POPC   D2A24316  36.204  31.166   8.300
 1616POPC   C3A24317  36.187  30.932   7.905
 1616POPC   C4A24318  36.358  30.518   7.795
 1616POPC   C1B24319  36.017  30.396   8.657
 1616POPC   C2B24320  35.957  30.610   8.267
 1616POPC   C3B24321  35.830  30.498   7.866
 1616POPC   C4B24322  35.963  30.391   7.444
 1617POPC   NC324323  38.350  19.594   9.444
 1617POPC   PO424324  38.985  19.858   9.511
 1617POPC   GL124325  38.855  19.710   9.102
 1617POPC   GL224326  38.543  19.815   9.025
 1617POPC   C1A24327  38.774  19.533   8.668
 1617POPC   D2A24328  38.431  19.559   8.369
 1617POPC   C3A24329  38.567  19.720   7.961
 1617POPC   C4A24330  38.603  20.173   7.935
 1617POPC   C1B24331  38.132  19.759   8.825
 1617POPC   C2B24332  37.934  19.986   8.499
 1617POPC   C3B24333  38.115  19.922   8.094
 1617POPC   C4B24334  37.988  19.746   7.701
 1618POPC   NC324335  29.378  38.916   9.399
 1618POPC   PO424336  29.331  38.219   9.462
 1618POPC   GL124337  29.103  38.503   9.208
 1618POPC   GL224338  29.398  38.569   9.047
 1618POPC   C1A24339  28.935  38.656   8.821
 1618POPC   D2A24340  29.130  38.566   8.414
 1618POPC   C3A24341  28.888  38.543   8.056
 1618POPC   C4A24342  29.098  38.561   7.671
 1618POPC   C1B24343  29.457  38.342   8.735
 1618POPC   C2B24344  29.573  38.203   8.381
 1618POPC   C3B24345  29.580  38.359   7.989
 1618POPC   C4B24346  29.449  38.176   7.638
 1619POPC   NC324347  41.295  35.980   9.381
 1619POPC   PO424348  41.712  36.569   9.427
 1619POPC   GL124349  41.604  36.320   9.072
 1619POPC   GL224350  41.657  35.942   9.025
 1619POPC   C1A24351  41.566  36.303   8.636
 1619POPC   D2A24352  41.880  36.213   8.320
 1619POPC   C3A24353  41.611  35.995   8.027
 1619POPC   C4A24354  41.208  36.189   7.859
 1619POPC   C1B24355  41.318  35.826   8.715
 1619POPC   C2B24356  41.126  35.872   8.323
 1619POPC   C3B24357  41.210  35.680   7.953
 1619POPC   C4B24358  41.279  35.786   7.547
 1620POPC   NC324359  19.459  41.463   9.659
 1620POPC   PO424360  18.761  41.665   9.671
 1620POPC   GL124361  18.812  41.417   9.310
 1620POPC   GL224362  19.139  41.561   9.173
 1620POPC   C1A24363  18.752  41.403   8.833
 1620POPC   D2A24364  19.107  41.330   8.565
 1620POPC   C3A24365  19.190  41.369   8.139
 1620POPC   C4A24366  19.491  41.210   7.822
 1620POPC   C1B24367  19.065  41.805   8.798
 1620POPC   C2B24368  18.919  41.796   8.385
 1620POPC   C3B24369  19.136  41.861   8.027
 1620POPC   C4B24370  19.037  41.596   7.689
 1621POPC   NC324371  38.759  40.088   9.631
 1621POPC   PO424372  39.424  39.865   9.536
 1621POPC   GL124373  39.126  39.920   9.242
 1621POPC   GL224374  39.042  40.268   9.222
 1621POPC   C1A24375  39.262  39.974   8.816
 1621POPC   D2A24376  39.384  39.800   8.439
 1621POPC   C3A24377  39.115  39.668   8.158
 1621POPC   C4A24378  39.159  39.873   7.781
 1621POPC   C1B24379  38.858  40.281   8.798
 1621POPC   C2B24380  39.040  40.204   8.384
 1621POPC   C3B24381  38.978  40.331   7.974
 1621POPC   C4B24382  38.590  40.344   7.742
 1622POPC   NC324383  23.248  22.746   9.460
 1622POPC   PO424384  22.616  22.780   9.548
 1622POPC   GL124385  22.770  22.817   9.162
 1622POPC   GL224386  23.036  23.016   9.073
 1622POPC   C1A24387  22.830  22.661   8.758
 1622POPC   D2A24388  22.640  22.655   8.357
 1622POPC   C3A24389  22.896  22.864   8.055
 1622POPC   C4A24390  22.818  22.961   7.653
 1622POPC   C1B24391  23.339  23.225   8.788
 1622POPC   C2B24392  23.426  23.242   8.361
 1622POPC   C3B24393  23.177  23.360   8.041
 1622POPC   C4B24394  23.249  23.171   7.685
 1623POPC   NC324395  35.789  39.045   9.562
 1623POPC   PO424396  35.208  39.381   9.727
 1623POPC   GL124397  35.393  39.283   9.328
 1623POPC   GL224398  35.494  39.593   9.210
 1623POPC   C1A24399  35.439  39.114   8.909
 1623POPC   D2A24400  35.333  39.016   8.459
 1623POPC   C3A24401  35.315  39.163   8.014
 1623POPC   C4A24402  35.244  39.015   7.608
 1623POPC   C1B24403  35.311  39.578   8.759
 1623POPC   C2B24404  35.250  39.557   8.326
 1623POPC   C3B24405  35.265  39.678   7.902
 1623POPC   C4B24406  35.334  39.544   7.474
 1624POPC   NC324407  44.951   5.040   9.500
 1624POPC   PO424408  44.496   5.528   9.727
 1624POPC   GL124409  44.502   5.253   9.299
 1624POPC   GL224410  44.807   5.296   9.080
 1624POPC   C1A24411  44.407   5.249   8.786
 1624POPC   D2A24412  44.569   5.278   8.315
 1624POPC   C3A24413  44.666   4.996   7.930
 1624POPC   C4A24414  44.782   4.908   7.469
 1624POPC   C1B24415  44.861   5.527   8.690
 1624POPC   C2B24416   0.073   5.465   8.286
 1624POPC   C3B24417  44.972   5.398   7.841
 1624POPC   C4B24418  44.618   5.394   7.495
 1625POPC   NC324419   6.976  44.950   9.997
 1625POPC   PO424420   6.681  44.442   9.687
 1625POPC   GL124421   6.642  44.486   9.241
 1625POPC   GL224422   6.861  44.334   9.070
 1625POPC   C1A24423   6.544  44.727   8.853
 1625POPC   D2A24424   6.681  44.891   8.427
 1625POPC   C3A24425   6.536  44.770   7.993
 1625POPC   C4A24426   6.580  44.743   7.536
 1625POPC   C1B24427   6.699  44.289   8.656
 1625POPC   C2B24428   6.785  44.400   8.263
 1625POPC   C3B24429   6.670  44.299   7.840
 1625POPC   C4B24430   6.928  44.385   7.476
 1626POPC   NC324431  31.760  32.506   9.518
 1626POPC   PO424432  31.693  33.203   9.612
 1626POPC   GL124433  31.618  33.231   9.196
 1626POPC   GL224434  31.507  32.916   9.104
 1626POPC   C1A24435  31.720  33.402   8.804
 1626POPC   D2A24436  31.494  33.307   8.417
 1626POPC   C3A24437  31.583  33.485   8.029
 1626POPC   C4A24438  31.543  33.191   7.724
 1626POPC   C1B24439  31.650  32.907   8.699
 1626POPC   C2B24440  31.714  32.625   8.358
 1626POPC   C3B24441  31.548  32.724   7.935
 1626POPC   C4B24442  31.205  32.797   7.664
 1627POPC   NC324443  25.537  21.822   9.281
 1627POPC   PO424444  25.011  22.141   9.527
 1627POPC   GL124445  25.160  22.115   9.098
 1627POPC   GL224446  25.023  21.786   9.079
 1627POPC   C1A24447  25.468  22.233   8.733
 1627POPC   D2A24448  25.597  22.437   8.316
 1627POPC   C3A24449  25.396  22.277   7.933
 1627POPC   C4A24450  25.079  21.995   7.704
 1627POPC   C1B24451  25.279  21.740   8.700
 1627POPC   C2B24452  25.325  21.909   8.305
 1627POPC   C3B24453  25.465  21.758   7.932
 1627POPC   C4B24454  25.625  22.004   7.566
 1628POPC   NC324455  11.458  31.067   9.420
 1628POPC   PO424456  11.080  30.482   9.448
 1628POPC   GL124457  11.051  30.687   9.056
 1628POPC   GL224458  10.814  30.929   9.004
 1628POPC   C1A24459  11.266  30.768   8.660
 1628POPC   D2A24460  11.579  30.832   8.308
 1628POPC   C3A24461  11.469  30.701   7.881
 1628POPC   C4A24462  11.034  30.669   7.766
 1628POPC   C1B24463  10.803  30.974   8.582
 1628POPC   C2B24464  11.035  30.928   8.222
 1628POPC   C3B24465  11.324  31.183   8.044
 1628POPC   C4B24466  11.358  31.154   7.634
 1629POPC   NC324467  27.572  16.539   9.578
 1629POPC   PO424468  27.957  16.955   9.411
 1629POPC   GL124469  27.745  16.691   9.104
 1629POPC   GL224470  27.352  16.659   9.127
 1629POPC   C1A24471  27.630  16.748   8.667
 1629POPC   D2A24472  27.411  16.609   8.298
 1629POPC   C3A24473  27.660  16.418   7.985
 1629POPC   C4A24474  27.932  16.416   7.645
 1629POPC   C1B24475  27.108  16.650   8.731
 1629POPC   C2B24476  26.977  16.879   8.384
 1629POPC   C3B24477  27.132  16.909   7.969
 1629POPC   C4B24478  27.576  16.903   7.894
 1630POPC   NC324479  28.557  21.697   9.482
 1630POPC   PO424480  28.082  22.243   9.480
 1630POPC   GL124481  28.309  22.309   9.114
 1630POPC   GL224482  28.619  22.116   9.187
 1630POPC   C1A24483  28.145  22.280   8.711
 1630POPC   D2A24484  28.013  22.467   8.358
 1630POPC   C3A24485  28.140  22.216   8.032
 1630POPC   C4A24486  28.351  22.248   7.664
 1630POPC   C1B24487  28.708  22.307   8.789
 1630POPC   C2B24488  28.578  22.342   8.368
 1630POPC   C3B24489  28.782  22.315   7.981
 1630POPC   C4B24490  28.795  22.027   7.621
 1631POPC   NC324491  42.139  21.853   9.722
 1631POPC   PO424492  42.665  21.425   9.599
 1631POPC   GL124493  42.394  21.384   9.257
 1631POPC   GL224494  42.311  21.044   9.123
 1631POPC   C1A24495  42.166  21.557   8.917
 1631POPC   D2A24496  42.078  21.573   8.465
 1631POPC   C3A24497  42.338  21.588   8.127
 1631POPC   C4A24498  42.178  21.384   7.771
 1631POPC   C1B24499  42.102  21.056   8.721
 1631POPC   C2B24500  42.099  20.867   8.319
 1631POPC   C3B24501  42.320  20.933   7.943
 1631POPC   C4B24502  42.459  21.037   7.518
 1632POPC   NC324503  41.669  19.419   9.313
 1632POPC   PO424504  41.534  20.057   9.470
 1632POPC   GL124505  41.590  19.997   9.100
 1632POPC   GL224506  41.254  19.859   9.084
 1632POPC   C1A24507  41.856  20.067   8.759
 1632POPC   D2A24508  41.780  19.891   8.375
 1632POPC   C3A24509  41.760  20.126   8.026
 1632POPC   C4A24510  41.682  19.929   7.696
 1632POPC   C1B24511  41.409  19.737   8.693
 1632POPC   C2B24512  41.263  19.672   8.287
 1632POPC   C3B24513  41.366  19.576   7.861
 1632POPC   C4B24514  41.213  19.854   7.513
 1633POPC   NC324515  10.484   8.517   9.530
 1633POPC   PO424516  10.674   8.024   9.770
 1633POPC   GL124517  10.568   8.064   9.305
 1633POPC   GL224518  10.771   8.277   9.149
 1633POPC   C1A24519  10.342   8.240   8.903
 1633POPC   D2A24520  10.596   8.288   8.538
 1633POPC   C3A24521  10.491   8.412   8.118
 1633POPC   C4A24522  10.449   8.254   7.703
 1633POPC   C1B24523  10.842   7.927   8.892
 1633POPC   C2B24524  10.946   7.890   8.480
 1633POPC   C3B24525  10.706   7.942   8.106
 1633POPC   C4B24526  10.797   7.852   7.695
 1634POPC   NC324527  33.878  18.010   9.356
 1634POPC   PO424528  33.857  18.614   9.521
 1634POPC   GL124529  33.955  18.441   9.106
 1634POPC   GL224530  33.627  18.291   9.015
 1634POPC   C1A24531  34.084  18.185   8.747
 1634POPC   D2A24532  33.924  18.246   8.327
 1634POPC   C3A24533  34.020  18.013   7.940
 1634POPC   C4A24534  33.896  18.293   7.658
 1634POPC   C1B24535  33.727  18.570   8.675
 1634POPC   C2B24536  33.579  18.700   8.274
 1634POPC   C3B24537  33.492  18.493   7.875
 1634POPC   C4B24538  33.448  18.456   7.393
 1635POPC   NC324539  35.411  21.722   9.538
 1635POPC   PO424540  35.453  21.086   9.603
 1635POPC   GL124541  35.188  21.278   9.247
 1635POPC   GL224542  35.069  21.604   9.200
 1635POPC   C1A24543  35.045  21.266   8.817
 1635POPC   D2A24544  35.158  21.180   8.434
 1635POPC   C3A24545  35.072  21.411   8.060
 1635POPC   C4A24546  35.462  21.455   7.799
 1635POPC   C1B24547  35.413  21.609   8.871
 1635POPC   C2B24548  35.270  21.688   8.456
 1635POPC   C3B24549  35.338  21.871   8.054
 1635POPC   C4B24550  35.619  21.925   7.701
 1636POPC   NC324551  41.048  24.044   9.350
 1636POPC   PO424552  40.390  24.030   9.433
 1636POPC   GL124553  40.609  23.758   9.124
 1636POPC   GL224554  40.932  23.619   9.061
 1636POPC   C1A24555  40.707  23.863   8.689
 1636POPC   D2A24556  40.820  23.641   8.310
 1636POPC   C3A24557  40.740  23.822   7.928
 1636POPC   C4A24558  40.546  24.070   7.643
 1636POPC   C1B24559  41.128  23.459   8.695
 1636POPC   C2B24560  41.273  23.392   8.257
 1636POPC   C3B24561  40.998  23.379   7.881
 1636POPC   C4B24562  40.853  23.564   7.476
 1637POPC   NC324563  23.706  40.574   9.591
 1637POPC   PO424564  23.958  41.165   9.717
 1637POPC   GL124565  23.835  40.944   9.271
 1637POPC   GL224566  23.555  40.743   9.144
 1637POPC   C1A24567  23.980  40.611   8.904
 1637POPC   D2A24568  24.037  40.708   8.453
 1637POPC   C3A24569  23.808  40.470   8.156
 1637POPC   C4A24570  23.679  40.517   7.729
 1637POPC   C1B24571  23.711  41.015   8.777
 1637POPC   C2B24572  23.528  40.830   8.409
 1637POPC   C3B24573  23.680  40.946   8.022
 1637POPC   C4B24574  23.742  41.074   7.605
 1638POPC   NC324575   5.170  14.889   9.456
 1638POPC   PO424576   4.897  15.427   9.777
 1638POPC   GL124577   5.020  15.320   9.303
 1638POPC   GL224578   4.762  15.085   9.176
 1638POPC   C1A24579   5.072  15.294   8.840
 1638POPC   D2A24580   4.998  15.467   8.428
 1638POPC   C3A24581   5.342  15.487   8.135
 1638POPC   C4A24582   5.176  15.428   7.760
 1638POPC   C1B24583   4.816  14.820   8.807
 1638POPC   C2B24584   5.037  14.929   8.425
 1638POPC   C3B24585   4.994  15.026   7.994
 1638POPC   C4B24586   5.173  14.961   7.570
 1639POPC   NC324587  25.284  21.003   9.490
 1639POPC   PO424588  25.185  20.379   9.535
 1639POPC   GL124589  25.037  20.466   9.137
 1639POPC   GL224590  24.888  20.777   9.159
 1639POPC   C1A24591  25.253  20.566   8.738
 1639POPC   D2A24592  25.349  20.627   8.293
 1639POPC   C3A24593  25.315  20.246   8.022
 1639POPC   C4A24594  25.538  20.353   7.644
 1639POPC   C1B24595  24.879  20.928   8.770
 1639POPC   C2B24596  25.036  21.049   8.385
 1639POPC   C3B24597  24.910  20.977   7.988
 1639POPC   C4B24598  25.160  20.687   7.821
 1640POPC   NC324599   4.132  40.265   9.530
 1640POPC   PO424600   4.534  39.834   9.287
 1640POPC   GL124601   4.159  40.024   9.084
 1640POPC   GL224602   4.333  40.329   9.082
 1640POPC   C1A24603   4.022  40.085   8.674
 1640POPC   D2A24604   4.243  39.929   8.315
 1640POPC   C3A24605   4.055  40.022   7.924
 1640POPC   C4A24606   3.992  40.448   7.818
 1640POPC   C1B24607   4.522  40.199   8.727
 1640POPC   C2B24608   4.432  40.429   8.427
 1640POPC   C3B24609   4.425  40.341   8.054
 1640POPC   C4B24610   4.557  39.956   7.879
 1641POPC   NC324611  26.623   7.560  10.033
 1641POPC   PO424612  27.042   7.357   9.464
 1641POPC   GL124613  26.893   7.509   9.098
 1641POPC   GL224614  26.977   7.162   8.945
 1641POPC   C1A24615  26.875   7.624   8.668
 1641POPC   D2A24616  26.944   7.261   8.410
 1641POPC   C3A24617  26.996   7.275   7.969
 1641POPC   C4A24618  26.905   7.587   7.640
 1641POPC   C1B24619  26.658   6.916   8.694
 1641POPC   C2B24620  26.486   7.040   8.307
 1641POPC   C3B24621  26.512   7.403   8.035
 1641POPC   C4B24622  26.411   7.434   7.614
 1642POPC   NC324623  15.347  18.246   9.505
 1642POPC   PO424624  16.049  18.222   9.647
 1642POPC   GL124625  16.023  18.360   9.223
 1642POPC   GL224626  15.685  18.443   9.174
 1642POPC   C1A24627  15.889  18.236   8.776
 1642POPC   D2A24628  15.876  18.010   8.390
 1642POPC   C3A24629  15.987  18.287   8.098
 1642POPC   C4A24630  15.951  18.218   7.709
 1642POPC   C1B24631  15.597  18.652   8.764
 1642POPC   C2B24632  15.547  18.491   8.331
 1642POPC   C3B24633  15.647  18.596   7.883
 1642POPC   C4B24634  15.550  18.445   7.455
 1643POPC   NC324635  24.675   1.922   9.538
 1643POPC   PO424636  24.068   1.781   9.355
 1643POPC   GL124637  24.313   1.915   9.039
 1643POPC   GL224638  24.632   2.073   9.075
 1643POPC   C1A24639  24.584   1.782   8.687
 1643POPC   D2A24640  24.713   1.954   8.312
 1643POPC   C3A24641  24.684   1.758   7.933
 1643POPC   C4A24642  24.285   1.850   7.822
 1643POPC   C1B24643  24.871   2.248   8.710
 1643POPC   C2B24644  24.765   2.451   8.311
 1643POPC   C3B24645  24.597   2.301   7.933
 1643POPC   C4B24646  24.639   2.124   7.556
 1644POPC   NC324647  28.094  27.590   9.466
 1644POPC   PO424648  28.645  28.070   9.414
 1644POPC   GL124649  28.432  27.802   9.059
 1644POPC   GL224650  28.056  27.717   8.985
 1644POPC   C1A24651  28.572  27.527   8.691
 1644POPC   D2A24652  28.275  27.308   8.405
 1644POPC   C3A24653  28.277  27.465   8.007
 1644POPC   C4A24654  28.630  27.694   7.839
 1644POPC   C1B24655  28.152  27.774   8.584
 1644POPC   C2B24656  28.380  27.944   8.252
 1644POPC   C3B24657  28.197  27.960   7.847
 1644POPC   C4B24658  28.026  27.615   7.577
 1645POPC   NC324659  28.850  38.149   9.474
 1645POPC   PO424660  28.925  37.428   9.433
 1645POPC   GL124661  29.039  37.779   9.170
 1645POPC   GL224662  29.353  37.915   9.039
 1645POPC   C1A24663  29.024  37.658   8.743
 1645POPC   D2A24664  29.280  37.801   8.457
 1645POPC   C3A24665  29.218  37.531   8.146
 1645POPC   C4A24666  29.197  37.590   7.736
 1645POPC   C1B24667  28.993  38.153   8.818
 1645POPC   C2B24668  28.868  38.127   8.391
 1645POPC   C3B24669  29.112  38.058   8.025
 1645POPC   C4B24670  28.971  38.032   7.608
 1646POPC   NC324671   9.187   8.605   9.450
 1646POPC   PO424672   8.667   8.209   9.626
 1646POPC   GL124673   8.701   8.151   9.125
 1646POPC   GL224674   8.763   8.466   9.046
 1646POPC   C1A24675   8.956   7.842   8.785
 1646POPC   D2A24676   8.937   7.643   8.332
 1646POPC   C3A24677   9.169   7.772   7.958
 1646POPC   C4A24678   9.148   8.174   7.781
 1646POPC   C1B24679   9.066   8.372   8.714
 1646POPC   C2B24680   9.079   8.132   8.340
 1646POPC   C3B24681   8.731   8.173   8.065
 1646POPC   C4B24682   8.777   8.557   7.808
 1647POPC   NC324683  26.593  31.824   9.391
 1647POPC   PO424684  26.785  32.410   9.703
 1647POPC   GL124685  26.780  32.359   9.268
 1647POPC   GL224686  26.989  32.078   9.174
 1647POPC   C1A24687  26.892  32.490   8.842
 1647POPC   D2A24688  27.009  32.238   8.469
 1647POPC   C3A24689  26.893  32.396   8.039
 1647POPC   C4A24690  26.611  32.142   7.822
 1647POPC   C1B24691  27.213  31.877   8.831
 1647POPC   C2B24692  27.127  31.663   8.427
 1647POPC   C3B24693  27.069  31.872   8.025
 1647POPC   C4B24694  27.310  32.173   7.794
 1648POPC   NC324695  29.494   8.660   9.832
 1648POPC   PO424696  29.974   8.643   9.317
 1648POPC   GL124697  29.902   8.891   9.025
 1648POPC   GL224698  29.588   9.055   9.165
 1648POPC   C1A24699  29.979   8.726   8.625
 1648POPC   D2A24700  30.119   8.862   8.275
 1648POPC   C3A24701  30.008   8.606   7.977
 1648POPC   C4A24702  29.948   8.805   7.611
 1648POPC   C1B24703  29.486   8.883   8.748
 1648POPC   C2B24704  29.655   9.076   8.410
 1648POPC   C3B24705  29.730   9.058   8.002
 1648POPC   C4B24706  29.788   9.329   7.664
 1649POPC   NC324707   9.004   9.586   9.395
 1649POPC   PO424708   9.149  10.236   9.479
 1649POPC   GL124709   9.121  10.024   9.099
 1649POPC   GL224710   8.780   9.898   9.004
 1649POPC   C1A24711   9.205   9.768   8.751
 1649POPC   D2A24712   9.122   9.793   8.347
 1649POPC   C3A24713   9.160   9.603   8.012
 1649POPC   C4A24714   8.949   9.864   7.724
 1649POPC   C1B24715   8.705   9.625   8.595
 1649POPC   C2B24716   8.666   9.581   8.097
 1649POPC   C3B24717   8.496   9.604   7.639
 1649POPC   C4B24718   8.631   9.482   7.210
 1650POPC   NC324719   3.994  13.942   9.661
 1650POPC   PO424720   4.578  13.640   9.486
 1650POPC   GL124721   4.436  13.662   9.090
 1650POPC   GL224722   4.606  13.987   9.061
 1650POPC   C1A24723   4.121  13.458   8.831
 1650POPC   D2A24724   4.002  13.148   8.499
 1650POPC   C3A24725   4.196  13.247   8.106
 1650POPC   C4A24726   4.323  13.382   7.706
 1650POPC   C1B24727   4.658  13.809   8.655
 1650POPC   C2B24728   4.328  13.631   8.397
 1650POPC   C3B24729   4.214  13.787   8.023
 1650POPC   C4B24730   4.438  13.879   7.659
 1651POPC   NC324731   9.842  22.604   9.397
 1651POPC   PO424732  10.015  23.259   9.399
 1651POPC   GL124733   9.875  22.991   9.087
 1651POPC   GL224734  10.123  22.960   8.829
 1651POPC   C1A24735   9.619  22.792   8.774
 1651POPC   D2A24736   9.558  22.951   8.374
 1651POPC   C3A24737   9.776  22.767   8.038
 1651POPC   C4A24738   9.461  22.792   7.711
 1651POPC   C1B24739   9.846  23.308   8.701
 1651POPC   C2B24740   9.638  23.453   8.358
 1651POPC   C3B24741   9.675  23.257   7.934
 1651POPC   C4B24742   9.930  23.001   7.625
 1652POPC   NC324743  31.638  23.220   9.324
 1652POPC   PO424744  31.200  23.717   9.521
 1652POPC   GL124745  31.471  23.699   9.153
 1652POPC   GL224746  31.852  23.724   9.227
 1652POPC   C1A24747  31.410  23.547   8.724
 1652POPC   D2A24748  31.319  23.432   8.304
 1652POPC   C3A24749  31.158  23.688   7.948
 1652POPC   C4A24750  31.155  23.552   7.500
 1652POPC   C1B24751  31.921  23.564   8.821
 1652POPC   C2B24752  32.023  23.658   8.406
 1652POPC   C3B24753  31.798  23.535   8.057
 1652POPC   C4B24754  31.626  23.730   7.701
 1653POPC   NC324755  25.163   0.629   9.469
 1653POPC   PO424756  25.272  44.976   9.437
 1653POPC   GL124757  25.435   0.267   9.136
 1653POPC   GL224758  25.582   0.600   9.152
 1653POPC   C1A24759  25.529   0.255   8.714
 1653POPC   D2A24760  25.310   0.119   8.368
 1653POPC   C3A24761  25.217   0.392   8.071
 1653POPC   C4A24762  25.382   0.326   7.684
 1653POPC   C1B24763  25.244   0.666   8.825
 1653POPC   C2B24764  25.243   0.783   8.413
 1653POPC   C3B24765  25.174   0.883   7.962
 1653POPC   C4B24766  25.417   0.848   7.574
 1654POPC   NC324767  32.418  30.256   9.416
 1654POPC   PO424768  32.818  30.846   9.482
 1654POPC   GL124769  32.956  30.875   9.071
 1654POPC   GL224770  33.310  30.959   9.184
 1654POPC   C1A24771  32.882  30.523   8.725
 1654POPC   D2A24772  32.789  30.331   8.302
 1654POPC   C3A24773  32.673  30.594   7.945
 1654POPC   C4A24774  32.782  30.581   7.501
 1654POPC   C1B24775  33.351  30.702   8.800
 1654POPC   C2B24776  33.246  30.607   8.344
 1654POPC   C3B24777  33.204  30.593   7.894
 1654POPC   C4B24778  33.232  30.879   7.530
 1655POPC   NC324779  43.005   9.875   9.981
 1655POPC   PO424780  43.136   9.594   9.402
 1655POPC   GL124781  42.955   9.524   9.033
 1655POPC   GL224782  42.640   9.665   9.056
 1655POPC   C1A24783  43.195   9.558   8.652
 1655POPC   D2A24784  43.248   9.851   8.304
 1655POPC   C3A24785  43.231   9.598   7.919
 1655POPC   C4A24786  42.956   9.298   7.680
 1655POPC   C1B24787  42.809   9.892   8.724
 1655POPC   C2B24788  42.786  10.133   8.379
 1655POPC   C3B24789  42.861  10.010   7.981
 1655POPC   C4B24790  42.750  10.178   7.618
 1656POPC   NC324791  25.862  23.326   9.508
 1656POPC   PO424792  26.273  23.904   9.387
 1656POPC   GL124793  25.987  23.720   9.096
 1656POPC   GL224794  26.174  23.427   9.103
 1656POPC   C1A24795  26.076  23.713   8.642
 1656POPC   D2A24796  26.161  23.869   8.218
 1656POPC   C3A24797  25.940  23.700   7.875
 1656POPC   C4A24798  26.056  23.824   7.515
 1656POPC   C1B24799  26.459  23.289   8.784
 1656POPC   C2B24800  26.437  23.155   8.364
 1656POPC   C3B24801  26.311  23.385   8.034
 1656POPC   C4B24802  26.237  23.354   7.608
 1657POPC   NC324803  43.237   5.700   9.682
 1657POPC   PO424804  43.905   5.869   9.732
 1657POPC   GL124805  43.909   5.818   9.257
 1657POPC   GL224806  43.932   5.472   9.109
 1657POPC   C1A24807  43.823   5.917   8.815
 1657POPC   D2A24808  43.653   5.827   8.383
 1657POPC   C3A24809  43.693   6.100   8.031
 1657POPC   C4A24810  43.962   6.110   7.633
 1657POPC   C1B24811  43.932   5.461   8.672
 1657POPC   C2B24812  44.138   5.551   8.335
 1657POPC   C3B24813  44.067   5.761   7.999
 1657POPC   C4B24814  43.753   5.625   7.734
 1658POPC   NC324815   7.156  35.161   9.428
 1658POPC   PO424816   7.371  35.847   9.560
 1658POPC   GL124817   7.477  35.576   9.201
 1658POPC   GL224818   7.610  35.243   9.188
 1658POPC   C1A24819   7.423  35.474   8.761
 1658POPC   D2A24820   7.254  35.431   8.354
 1658POPC   C3A24821   7.460  35.609   8.013
 1658POPC   C4A24822   7.539  35.447   7.654
 1658POPC   C1B24823   7.456  34.961   8.834
 1658POPC   C2B24824   7.618  34.868   8.433
 1658POPC   C3B24825   7.468  35.052   8.057
 1658POPC   C4B24826   7.748  34.989   7.760
 1659POPC   NC324827  25.125  27.928   9.217
 1659POPC   PO424828  25.643  28.140   9.478
 1659POPC   GL124829  25.486  28.258   9.065
 1659POPC   GL224830  25.566  27.884   8.976
 1659POPC   C1A24831  25.196  28.482   8.724
 1659POPC   D2A24832  24.940  28.527   8.310
 1659POPC   C3A24833  25.043  28.738   7.882
 1659POPC   C4A24834  25.058  28.552   7.445
 1659POPC   C1B24835  25.611  28.071   8.619
 1659POPC   C2B24836  25.383  28.187   8.340
 1659POPC   C3B24837  25.361  28.389   8.011
 1659POPC   C4B24838  25.548  28.547   7.654
 1660POPC   NC324839  17.414  34.578   9.562
 1660POPC   PO424840  18.027  34.281   9.618
 1660POPC   GL124841  17.755  34.451   9.211
 1660POPC   GL224842  17.734  34.824   9.170
 1660POPC   C1A24843  17.513  34.460   8.784
 1660POPC   D2A24844  17.423  34.632   8.323
 1660POPC   C3A24845  17.514  34.418   7.894
 1660POPC   C4A24846  17.710  34.275   7.464
 1660POPC   C1B24847  17.569  34.958   8.758
 1660POPC   C2B24848  17.780  35.022   8.372
 1660POPC   C3B24849  17.705  34.889   7.957
 1660POPC   C4B24850  17.300  34.911   7.860
 1661POPC   NC324851  20.938  21.366   9.986
 1661POPC   PO424852  20.719  21.644   9.414
 1661POPC   GL124853  20.708  21.352   9.071
 1661POPC   GL224854  20.900  21.578   8.943
 1661POPC   C1A24855  20.635  21.334   8.595
 1661POPC   D2A24856  20.822  21.158   8.228
 1661POPC   C3A24857  20.614  21.338   7.877
 1661POPC   C4A24858  20.344  21.159   7.547
 1661POPC   C1B24859  21.125  21.394   8.618
 1661POPC   C2B24860  20.944  21.664   8.328
 1661POPC   C3B24861  21.084  21.923   8.030
 1661POPC   C4B24862  20.995  21.778   7.600
 1662POPC   NC324863  36.065   8.601   9.423
 1662POPC   PO424864  36.219   9.306   9.433
 1662POPC   GL124865  36.217   9.034   9.127
 1662POPC   GL224866  35.883   8.968   9.132
 1662POPC   C1A24867  36.221   8.991   8.695
 1662POPC   D2A24868  36.238   8.764   8.316
 1662POPC   C3A24869  36.308   9.003   7.919
 1662POPC   C4A24870  36.331   8.992   7.448
 1662POPC   C1B24871  35.768   8.790   8.766
 1662POPC   C2B24872  35.816   9.032   8.387
 1662POPC   C3B24873  35.782   8.885   8.010
 1662POPC   C4B24874  35.876   9.096   7.647
 1663POPC   NC324875  21.248  20.974   9.558
 1663POPC   PO424876  21.181  20.378   9.438
 1663POPC   GL124877  21.311  20.629   9.143
 1663POPC   GL224878  20.993  20.792   9.172
 1663POPC   C1A24879  21.683  20.596   8.856
 1663POPC   D2A24880  21.679  20.453   8.433
 1663POPC   C3A24881  21.518  20.610   8.051
 1663POPC   C4A24882  21.506  20.507   7.622
 1663POPC   C1B24883  20.893  20.946   8.797
 1663POPC   C2B24884  21.104  20.780   8.442
 1663POPC   C3B24885  20.993  20.663   8.027
 1663POPC   C4B24886  21.160  20.866   7.681
 1664POPC   NC324887  43.509  28.411   9.744
 1664POPC   PO424888  43.093  28.818   9.411
 1664POPC   GL124889  43.109  28.435   9.201
 1664POPC   GL224890  43.387  28.218   9.207
 1664POPC   C1A24891  43.117  28.397   8.772
 1664POPC   D2A24892  43.216  28.259   8.379
 1664POPC   C3A24893  43.132  28.426   7.956
 1664POPC   C4A24894  42.925  28.538   7.538
 1664POPC   C1B24895  43.550  28.101   8.783
 1664POPC   C2B24896  43.701  28.119   8.361
 1664POPC   C3B24897  43.460  28.005   8.015
 1664POPC   C4B24898  43.334  28.091   7.629
 1665POPC   NC324899  43.959  39.604   9.591
 1665POPC   PO424900  43.704  38.983   9.593
 1665POPC   GL124901  43.875  39.237   9.227
 1665POPC   GL224902  44.225  39.230   9.147
 1665POPC   C1A24903  43.918  39.317   8.766
 1665POPC   D2A24904  44.167  39.235   8.413
 1665POPC   C3A24905  43.990  39.350   8.010
 1665POPC   C4A24906  43.699  39.267   7.681
 1665POPC   C1B24907  44.247  38.879   8.846
 1665POPC   C2B24908  44.464  38.802   8.435
 1665POPC   C3B24909  44.227  38.817   8.073
 1665POPC   C4B24910  44.192  38.994   7.688
 1666POPC   NC324911  24.159  21.227   9.529
 1666POPC   PO424912  24.834  21.104   9.545
 1666POPC   GL124913  24.545  21.190   9.196
 1666POPC   GL224914  24.567  21.519   9.113
 1666POPC   C1A24915  24.430  21.185   8.759
 1666POPC   D2A24916  24.530  20.978   8.376
 1666POPC   C3A24917  24.414  21.180   7.982
 1666POPC   C4A24918  24.627  21.218   7.626
 1666POPC   C1B24919  24.434  21.705   8.767
 1666POPC   C2B24920  24.436  21.541   8.369
 1666POPC   C3B24921  24.557  21.677   7.978
 1666POPC   C4B24922  24.319  21.612   7.663
 1667POPC   NC324923  34.083   7.111   9.385
 1667POPC   PO424924  33.946   7.778   9.377
 1667POPC   GL124925  33.858   7.463   9.084
 1667POPC   GL224926  33.594   7.228   9.142
 1667POPC   C1A24927  33.780   7.387   8.676
 1667POPC   D2A24928  33.572   7.619   8.415
 1667POPC   C3A24929  33.848   7.737   8.140
 1667POPC   C4A24930  34.086   7.593   7.779
 1667POPC   C1B24931  33.503   6.977   8.766
 1667POPC   C2B24932  33.497   7.131   8.321
 1667POPC   C3B24933  33.471   7.398   7.951
 1667POPC   C4B24934  33.340   6.981   7.793
 1668POPC   NC324935  36.216  14.630   9.463
 1668POPC   PO424936  36.049  14.000   9.492
 1668POPC   GL124937  35.875  14.169   9.108
 1668POPC   GL224938  35.706  14.511   9.174
 1668POPC   C1A24939  36.166  14.205   8.746
 1668POPC   D2A24940  36.394  13.997   8.404
 1668POPC   C3A24941  36.332  14.185   7.987
 1668POPC   C4A24942  36.056  14.413   7.700
 1668POPC   C1B24943  35.736  14.488   8.711
 1668POPC   C2B24944  36.037  14.473   8.322
 1668POPC   C3B24945  36.325  14.708   8.034
 1668POPC   C4B24946  36.169  14.926   7.669
 1669POPC   NC324947  18.656  40.937   9.350
 1669POPC   PO424948  19.227  41.139   9.440
 1669POPC   GL124949  19.164  40.887   9.090
 1669POPC   GL224950  19.290  40.536   9.067
 1669POPC   C1A24951  19.367  40.903   8.689
 1669POPC   D2A24952  19.166  40.790   8.266
 1669POPC   C3A24953  19.019  40.976   7.881
 1669POPC   C4A24954  19.032  41.094   7.457
 1669POPC   C1B24955  19.078  40.480   8.668
 1669POPC   C2B24956  19.012  40.307   8.232
 1669POPC   C3B24957  18.983  40.472   7.804
 1669POPC   C4B24958  18.971  40.551   7.370
 1670POPC   NC324959   4.439  31.576   9.609
 1670POPC   PO424960   3.932  31.721   9.412
 1670POPC   GL124961   4.316  31.675   9.120
 1670POPC   GL224962   4.467  31.349   9.132
 1670POPC   C1A24963   4.576  31.681   8.718
 1670POPC   D2A24964   4.450  31.770   8.267
 1670POPC   C3A24965   4.539  31.495   7.923
 1670POPC   C4A24966   4.487  31.216   7.570
 1670POPC   C1B24967   4.227  31.308   8.723
 1670POPC   C2B24968   4.183  31.308   8.250
 1670POPC   C3B24969   4.030  31.464   7.840
 1670POPC   C4B24970   3.973  31.306   7.414
 1671POPC   NC324971  42.825  35.776   9.574
 1671POPC   PO424972  43.148  36.344   9.529
 1671POPC   GL124973  43.000  36.144   9.166
 1671POPC   GL224974  43.296  35.975   9.075
 1671POPC   C1A24975  43.007  36.166   8.701
 1671POPC   D2A24976  43.014  35.923   8.276
 1671POPC   C3A24977  43.163  36.141   7.953
 1671POPC   C4A24978  43.053  36.485   7.768
 1671POPC   C1B24979  43.452  36.401   8.869
 1671POPC   C2B24980  43.679  36.540   8.469
 1671POPC   C3B24981  43.551  36.479   8.042
 1671POPC   C4B24982  43.517  36.425   7.598
 1672POPC   NC324983  28.984   5.365   9.598
 1672POPC   PO424984  28.975   4.710   9.501
 1672POPC   GL124985  29.189   4.866   9.151
 1672POPC   GL224986  28.961   5.124   9.144
 1672POPC   C1A24987  29.260   5.095   8.742
 1672POPC   D2A24988  29.066   5.048   8.340
 1672POPC   C3A24989  29.246   5.048   7.898
 1672POPC   C4A24990  29.400   4.849   7.487
 1672POPC   C1B24991  28.763   5.217   8.750
 1672POPC   C2B24992  28.703   5.422   8.380
 1672POPC   C3B24993  28.791   5.276   7.990
 1672POPC   C4B24994  28.729   5.405   7.631
 1673POPC   NC324995  36.588  33.063   9.708
 1673POPC   PO424996  35.963  33.101   9.560
 1673POPC   GL124997  36.139  32.885   9.213
 1673POPC   GL224998  35.863  32.934   9.019
 1673POPC   C1A24999  36.286  32.903   8.753
 1673POPC   D2A25000  36.086  32.905   8.326
 1673POPC   C3A25001  36.355  32.881   7.937
 1673POPC   C4A25002  36.226  32.914   7.494
 1673POPC   C1B25003  35.608  32.925   8.651
 1673POPC   C2B25004  35.551  32.862   8.207
 1673POPC   C3B25005  35.831  32.832   7.841
 1673POPC   C4B25006  35.777  32.600   7.446
 1674POPC   NC325007  15.381  21.614   9.497
 1674POPC   PO425008  14.737  21.202   9.445
 1674POPC   GL125009  15.010  21.438   9.129
 1674POPC   GL225010  15.343  21.291   9.075
 1674POPC   C1A25011  15.156  21.612   8.718
 1674POPC   D2A25012  15.182  21.392   8.300
 1674POPC   C3A25013  15.389  21.463   7.890
 1674POPC   C4A25014  15.245  21.588   7.465
 1674POPC   C1B25015  15.528  21.257   8.674
 1674POPC   C2B25016  15.610  21.097   8.230
 1674POPC   C3B25017  15.574  21.005   7.761
 1674POPC   C4B25018  15.621  21.243   7.348
 1675POPC   NC325019   6.076  20.476   9.464
 1675POPC   PO425020   5.489  20.399   9.680
 1675POPC   GL125021   5.598  20.424   9.233
 1675POPC   GL225022   5.725  20.747   9.133
 1675POPC   C1A25023   5.659  20.379   8.785
 1675POPC   D2A25024   5.615  20.681   8.459
 1675POPC   C3A25025   5.674  20.482   8.079
 1675POPC   C4A25026   5.816  20.539   7.683
 1675POPC   C1B25027   6.064  20.766   8.815
 1675POPC   C2B25028   6.133  20.650   8.379
 1675POPC   C3B25029   6.050  20.857   8.023
 1675POPC   C4B25030   6.210  20.884   7.635
 1676POPC   NC325031  20.256  36.129   9.412
 1676POPC   PO425032  19.615  36.234   9.440
 1676POPC   GL125033  19.711  35.908   9.107
 1676POPC   GL225034  20.076  35.775   9.026
 1676POPC   C1A25035  19.568  35.991   8.681
 1676POPC   D2A25036  19.677  36.253   8.310
 1676POPC   C3A25037  19.638  36.125   7.866
 1676POPC   C4A25038  19.300  36.214   7.557
 1676POPC   C1B25039  20.070  36.177   8.805
 1676POPC   C2B25040  20.201  36.388   8.461
 1676POPC   C3B25041  20.131  36.305   8.029
 1676POPC   C4B25042  20.125  35.913   7.772
 1677POPC   NC325043  27.406   6.271   9.459
 1677POPC   PO425044  27.798   6.849   9.639
 1677POPC   GL125045  27.755   6.636   9.263
 1677POPC   GL225046  27.387   6.759   9.262
 1677POPC   C1A25047  27.969   6.690   8.849
 1677POPC   D2A25048  27.933   6.942   8.468
 1677POPC   C3A25049  27.949   6.769   8.043
 1677POPC   C4A25050  28.075   6.966   7.640
 1677POPC   C1B25051  27.472   6.622   8.845
 1677POPC   C2B25052  27.587   6.582   8.415
 1677POPC   C3B25053  27.415   6.666   8.032
 1677POPC   C4B25054  27.125   6.696   7.678
 1678POPC   NC325055  26.120  41.594   9.495
 1678POPC   PO425056  26.371  41.053   9.148
 1678POPC   GL125057  26.064  41.409   9.035
 1678POPC   GL225058  26.062  41.798   9.045
 1678POPC   C1A25059  25.871  41.543   8.656
 1678POPC   D2A25060  26.066  41.380   8.321
 1678POPC   C3A25061  25.960  41.550   7.930
 1678POPC   C4A25062  25.601  41.445   7.785
 1678POPC   C1B25063  26.340  41.772   8.694
 1678POPC   C2B25064  26.315  41.813   8.247
 1678POPC   C3B25065  26.461  41.625   7.868
 1678POPC   C4B25066  26.306  41.578   7.417
 1679POPC   NC325067  35.472  25.406   9.520
 1679POPC   PO425068  35.016  24.919   9.438
 1679POPC   GL125069  35.243  25.181   9.128
 1679POPC   GL225070  35.373  25.566   9.054
 1679POPC   C1A25071  35.165  25.310   8.695
 1679POPC   D2A25072  35.437  25.493   8.407
 1679POPC   C3A25073  35.213  25.312   8.086
 1679POPC   C4A25074  35.359  25.253   7.691
 1679POPC   C1B25075  35.639  25.203   8.835
 1679POPC   C2B25076  35.490  24.939   8.480
 1679POPC   C3B25077  35.626  24.986   8.052
 1679POPC   C4B25078  35.828  25.078   7.663
 1680POPC   NC325079  44.176  38.841   9.570
 1680POPC   PO425080  44.641  38.310   9.554
 1680POPC   GL125081  44.530  38.487   9.188
 1680POPC   GL225082  44.843  38.331   9.068
 1680POPC   C1A25083  44.471  38.408   8.758
 1680POPC   D2A25084  44.676  38.289   8.391
 1680POPC   C3A25085  44.403  38.308   8.055
 1680POPC   C4A25086  44.466  38.552   7.699
 1680POPC   C1B25087  44.993  38.542   8.757
 1680POPC   C2B25088  44.970  38.737   8.376
 1680POPC   C3B25089  44.905  38.540   7.995
 1680POPC   C4B25090  44.956  38.568   7.557
 1681POPC   NC325091  19.137  25.156   9.332
 1681POPC   PO425092  18.540  25.544   9.355
 1681POPC   GL125093  18.842  25.404   9.022
 1681POPC   GL225094  19.245  25.499   8.986
 1681POPC   C1A25095  19.037  25.171   8.699
 1681POPC   D2A25096  19.258  25.115   8.340
 1681POPC   C3A25097  19.100  25.005   7.947
 1681POPC   C4A25098  19.066  25.242   7.571
 1681POPC   C1B25099  19.276  25.589   8.560
 1681POPC   C2B25100  19.065  25.676   8.242
 1681POPC   C3B25101  19.252  25.511   7.956
 1681POPC   C4B25102  19.357  25.667   7.598
 1682POPC   NC325103  42.833   4.175   9.398
 1682POPC   PO425104  43.371   4.510   9.439
 1682POPC   GL125105  43.180   4.505   9.043
 1682POPC   GL225106  43.158   4.167   9.010
 1682POPC   C1A25107  42.975   4.450   8.616
 1682POPC   D2A25108  42.922   4.135   8.272
 1682POPC   C3A25109  42.928   4.405   7.930
 1682POPC   C4A25110  43.311   4.620   7.798
 1682POPC   C1B25111  43.413   4.196   8.665
 1682POPC   C2B25112  43.382   4.344   8.275
 1682POPC   C3B25113  43.366   4.102   7.955
 1682POPC   C4B25114  43.625   3.908   7.684
 1683POPC   NC325115  21.066  29.951   9.497
 1683POPC   PO425116  21.560  29.512   9.462
 1683POPC   GL125117  21.444  29.809   9.114
 1683POPC   GL225118  21.139  29.938   9.014
 1683POPC   C1A25119  21.410  29.700   8.670
 1683POPC   D2A25120  21.655  29.721   8.326
 1683POPC   C3A25121  21.443  29.609   7.986
 1683POPC   C4A25122  21.585  29.618   7.598
 1683POPC   C1B25123  21.479  30.188   8.800
 1683POPC   C2B25124  21.250  30.112   8.402
 1683POPC   C3B25125  21.108  30.003   8.012
 1683POPC   C4B25126  21.429  30.099   7.754
 1684POPC   NC325127  20.485  28.671   9.347
 1684POPC   PO425128  20.791  28.059   9.529
 1684POPC   GL125129  20.740  28.265   9.136
 1684POPC   GL225130  20.394  28.274   9.057
 1684POPC   C1A25131  20.739  28.517   8.737
 1684POPC   D2A25132  20.531  28.591   8.337
 1684POPC   C3A25133  20.827  28.540   8.013
 1684POPC   C4A25134  21.117  28.642   7.674
 1684POPC   C1B25135  20.575  28.037   8.692
 1684POPC   C2B25136  20.620  28.067   8.273
 1684POPC   C3B25137  20.393  28.239   7.978
 1684POPC   C4B25138  20.618  28.284   7.621
 1685POPC   NC325139  16.191  24.209   9.248
 1685POPC   PO425140  15.657  24.267   9.649
 1685POPC   GL125141  15.760  24.486   9.227
 1685POPC   GL225142  16.069  24.701   9.115
 1685POPC   C1A25143  15.708  24.343   8.787
 1685POPC   D2A25144  15.651  24.531   8.386
 1685POPC   C3A25145  15.470  24.326   8.049
 1685POPC   C4A25146  15.587  24.227   7.638
 1685POPC   C1B25147  16.315  24.559   8.730
 1685POPC   C2B25148  16.465  24.321   8.395
 1685POPC   C3B25149  16.120  24.303   8.144
 1685POPC   C4B25150  16.013  24.551   7.824
 1686POPC   NC325151  37.188  23.304   9.218
 1686POPC   PO425152  37.006  23.853   9.473
 1686POPC   GL125153  36.799  23.657   9.119
 1686POPC   GL225154  36.679  23.346   9.200
 1686POPC   C1A25155  36.613  23.636   8.711
 1686POPC   D2A25156  36.722  23.858   8.309
 1686POPC   C3A25157  36.593  23.874   7.867
 1686POPC   C4A25158  36.973  23.804   7.562
 1686POPC   C1B25159  36.806  23.175   8.742
 1686POPC   C2B25160  36.852  23.354   8.352
 1686POPC   C3B25161  36.944  23.483   7.961
 1686POPC   C4B25162  36.890  23.300   7.529
 1687POPC   NC325163  23.091  42.836   9.511
 1687POPC   PO425164  22.582  43.240   9.635
 1687POPC   GL125165  22.856  43.201   9.225
 1687POPC   GL225166  22.867  42.895   9.070
 1687POPC   C1A25167  22.955  43.321   8.785
 1687POPC   D2A25168  23.265  43.344   8.461
 1687POPC   C3A25169  23.141  43.349   7.996
 1687POPC   C4A25170  23.294  42.936   7.815
 1687POPC   C1B25171  22.648  42.901   8.704
 1687POPC   C2B25172  22.831  43.086   8.321
 1687POPC   C3B25173  22.770  43.001   7.864
 1687POPC   C4B25174  22.893  42.638   7.603
 1688POPC   NC325175  12.839  36.379   9.455
 1688POPC   PO425176  13.279  35.876   9.418
 1688POPC   GL125177  12.967  36.001   9.167
 1688POPC   GL225178  12.709  35.792   9.121
 1688POPC   C1A25179  12.647  36.212   8.860
 1688POPC   D2A25180  12.545  36.344   8.437
 1688POPC   C3A25181  12.879  36.221   8.187
 1688POPC   C4A25182  13.088  36.422   7.861
 1688POPC   C1B25183  12.973  35.762   8.750
 1688POPC   C2B25184  13.249  35.876   8.465
 1688POPC   C3B25185  13.102  35.758   8.075
 1688POPC   C4B25186  12.873  35.946   7.760
 1689POPC   NC325187   5.875  42.701   9.657
 1689POPC   PO425188   6.184  43.312   9.755
 1689POPC   GL125189   6.121  43.233   9.257
 1689POPC   GL225190   5.957  42.962   9.196
 1689POPC   C1A25191   5.971  43.298   8.802
 1689POPC   D2A25192   5.766  43.410   8.402
 1689POPC   C3A25193   5.835  43.239   8.029
 1689POPC   C4A25194   5.682  43.104   7.655
 1689POPC   C1B25195   6.198  42.848   8.793
 1689POPC   C2B25196   6.156  43.018   8.369
 1689POPC   C3B25197   6.091  42.802   7.964
 1689POPC   C4B25198   6.251  42.557   7.622
 1690POPC   NC325199  30.389  28.435   9.384
 1690POPC   PO425200  30.823  28.037   9.808
 1690POPC   GL125201  30.860  28.181   9.308
 1690POPC   GL225202  31.098  28.464   9.215
 1690POPC   C1A25203  30.664  28.300   8.844
 1690POPC   D2A25204  30.373  28.607   8.610
 1690POPC   C3A25205  30.176  28.460   8.207
 1690POPC   C4A25206  30.409  28.375   7.813
 1690POPC   C1B25207  30.977  28.693   8.821
 1690POPC   C2B25208  30.858  28.701   8.351
 1690POPC   C3B25209  30.937  28.474   7.924
 1690POPC   C4B25210  30.939  28.010   7.798
 1691POPC   NC325211   3.220  43.263   9.591
 1691POPC   PO425212   3.746  42.799   9.802
 1691POPC   GL125213   3.702  42.951   9.329
 1691POPC   GL225214   3.354  42.918   9.202
 1691POPC   C1A25215   3.812  42.871   8.863
 1691POPC   D2A25216   3.648  42.767   8.431
 1691POPC   C3A25217   3.725  42.988   8.037
 1691POPC   C4A25218   3.649  43.404   7.874
 1691POPC   C1B25219   3.343  43.034   8.759
 1691POPC   C2B25220   3.368  43.261   8.379
 1691POPC   C3B25221   3.193  43.244   7.975
 1691POPC   C4B25222   3.329  43.024   7.686
 1692POPC   NC325223  24.841  21.571   9.540
 1692POPC   PO425224  25.579  21.364   9.456
 1692POPC   GL125225  25.360  21.379   9.100
 1692POPC   GL225226  25.041  21.278   9.114
 1692POPC   C1A25227  25.378  21.224   8.718
 1692POPC   D2A25228  25.453  21.393   8.330
 1692POPC   C3A25229  25.427  21.096   8.024
 1692POPC   C4A25230  25.618  21.255   7.696
 1692POPC   C1B25231  24.878  21.430   8.714
 1692POPC   C2B25232  24.951  21.546   8.290
 1692POPC   C3B25233  25.031  21.469   7.863
 1692POPC   C4B25234  25.107  21.177   7.520
 1693POPC   NC325235  38.697  22.114   9.490
 1693POPC   PO425236  38.111  22.457   9.405
 1693POPC   GL125237  38.304  22.153   9.126
 1693POPC   GL225238  38.570  22.357   9.049
 1693POPC   C1A25239  38.407  21.940   8.723
 1693POPC   D2A25240  38.376  22.103   8.283
 1693POPC   C3A25241  38.420  21.879   7.846
 1693POPC   C4A25242  38.209  22.026   7.437
 1693POPC   C1B25243  38.679  22.364   8.627
 1693POPC   C2B25244  38.707  22.575   8.254
 1693POPC   C3B25245  38.446  22.504   7.954
 1693POPC   C4B25246  38.537  22.329   7.649
 1694POPC   NC325247  31.635  31.563   9.828
 1694POPC   PO425248  31.266  31.280   9.419
 1694POPC   GL125249  31.617  31.420   9.165
 1694POPC   GL225250  31.784  31.753   9.264
 1694POPC   C1A25251  31.504  31.359   8.735
 1694POPC   D2A25252  31.460  31.156   8.359
 1694POPC   C3A25253  31.617  31.261   7.948
 1694POPC   C4A25254  31.342  31.448   7.568
 1694POPC   C1B25255  31.842  31.717   8.782
 1694POPC   C2B25256  31.572  31.717   8.356
 1694POPC   C3B25257  31.579  31.760   7.907
 1694POPC   C4B25258  31.925  31.948   7.687
 1695POPC   NC325259  28.148  26.721   9.645
 1695POPC   PO425260  28.563  27.247   9.608
 1695POPC   GL125261  28.564  26.982   9.245
 1695POPC   GL225262  28.380  26.670   9.166
 1695POPC   C1A25263  28.383  27.044   8.835
 1695POPC   D2A25264  28.272  26.804   8.461
 1695POPC   C3A25265  28.415  26.944   8.068
 1695POPC   C4A25266  28.211  27.091   7.667
 1695POPC   C1B25267  28.256  26.421   8.787
 1695POPC   C2B25268  28.237  26.239   8.403
 1695POPC   C3B25269  28.136  26.475   8.058
 1695POPC   C4B25270  28.357  26.583   7.716
 1696POPC   NC325271  10.180   4.984   9.404
 1696POPC   PO425272  10.710   5.363   9.552
 1696POPC   GL125273  10.555   5.239   9.121
 1696POPC   GL225274  10.708   4.932   9.224
 1696POPC   C1A25275  10.359   5.206   8.666
 1696POPC   D2A25276  10.414   5.358   8.209
 1696POPC   C3A25277  10.301   5.265   7.774
 1696POPC   C4A25278  10.120   5.470   7.397
 1696POPC   C1B25279  10.886   4.970   8.804
 1696POPC   C2B25280  10.760   5.026   8.381
 1696POPC   C3B25281  10.927   5.104   7.967
 1696POPC   C4B25282  10.813   5.227   7.527
 1697POPC   NC325283  23.601  28.643   9.464
 1697POPC   PO425284  24.044  28.171   9.499
 1697POPC   GL125285  23.883  28.316   9.148
 1697POPC   GL225286  23.549  28.240   9.130
 1697POPC   C1A25287  23.828  28.401   8.724
 1697POPC   D2A25288  23.900  28.259   8.321
 1697POPC   C3A25289  23.673  28.389   7.965
 1697POPC   C4A25290  23.937  28.286   7.633
 1697POPC   C1B25291  23.437  28.066   8.762
 1697POPC   C2B25292  23.372  28.243   8.387
 1697POPC   C3B25293  23.293  28.039   8.005
 1697POPC   C4B25294  23.501  28.014   7.610
 1698POPC   NC325295  41.580   9.365   9.478
 1698POPC   PO425296  41.944   8.792   9.411
 1698POPC   GL125297  41.711   8.991   9.080
 1698POPC   GL225298  41.344   9.094   9.102
 1698POPC   C1A25299  41.696   9.350   8.792
 1698POPC   D2A25300  41.502   9.393   8.404
 1698POPC   C3A25301  41.582   9.103   8.054
 1698POPC   C4A25302  41.870   9.190   7.692
 1698POPC   C1B25303  41.403   8.935   8.650
 1698POPC   C2B25304  41.454   8.640   8.269
 1698POPC   C3B25305  41.224   8.648   7.883
 1698POPC   C4B25306  41.411   8.950   7.582
 1699POPC   NC325307  23.067  41.872   9.461
 1699POPC   PO425308  22.751  42.483   9.486
 1699POPC   GL125309  22.689  42.428   9.094
 1699POPC   GL225310  22.478  42.149   9.122
 1699POPC   C1A25311  22.971  42.495   8.729
 1699POPC   D2A25312  23.108  42.193   8.394
 1699POPC   C3A25313  22.947  42.231   7.942
 1699POPC   C4A25314  23.033  42.177   7.435
 1699POPC   C1B25315  22.784  42.031   8.803
 1699POPC   C2B25316  22.617  41.975   8.408
 1699POPC   C3B25317  22.652  41.830   8.022
 1699POPC   C4B25318  22.564  42.102   7.642
 1700POPC   NC325319  16.559   0.475   9.395
 1700POPC   PO425320  17.196   0.755   9.491
 1700POPC   GL125321  16.978   0.537   9.127
 1700POPC   GL225322  16.918   0.163   9.186
 1700POPC   C1A25323  16.770   0.500   8.710
 1700POPC   D2A25324  16.435   0.705   8.468
 1700POPC   C3A25325  16.516   0.703   8.034
 1700POPC   C4A25326  16.884   0.637   7.776
 1700POPC   C1B25327  16.639   0.028   8.834
 1700POPC   C2B25328  16.738   0.057   8.386
 1700POPC   C3B25329  16.658   0.212   7.970
 1700POPC   C4B25330  16.594   0.303   7.521
 1701POPC   NC325331  26.384   8.272   9.374
 1701POPC   PO425332  25.747   8.492   9.338
 1701POPC   GL125333  25.888   8.298   8.997
 1701POPC   GL225334  26.077   7.994   9.078
 1701POPC   C1A25335  25.974   8.445   8.597
 1701POPC   D2A25336  26.196   8.269   8.248
 1701POPC   C3A25337  25.910   8.130   7.974
 1701POPC   C4A25338  25.691   8.408   7.743
 1701POPC   C1B25339  26.286   8.004   8.677
 1701POPC   C2B25340  26.554   7.897   8.288
 1701POPC   C3B25341  26.367   7.896   7.872
 1701POPC   C4B25342  26.223   8.216   7.587
 1702POPC   NC325343  20.510  27.704   9.599
 1702POPC   PO425344  21.000  27.247   9.561
 1702POPC   GL125345  20.778  27.534   9.203
 1702POPC   GL225346  20.450  27.756   9.112
 1702POPC   C1A25347  20.823  27.610   8.780
 1702POPC   D2A25348  21.031  27.764   8.456
 1702POPC   C3A25349  20.875  27.669   8.067
 1702POPC   C4A25350  20.777  27.803   7.664
 1702POPC   C1B25351  20.291  27.571   8.742
 1702POPC   C2B25352  20.461  27.579   8.339
 1702POPC   C3B25353  20.326  27.723   7.908
 1702POPC   C4B25354  20.305  27.690   7.418
 1703POPC   NC325355  19.238   1.477   9.477
 1703POPC   PO425356  18.794   0.951   9.553
 1703POPC   GL125357  18.974   1.135   9.164
 1703POPC   GL225358  18.941   1.505   9.089
 1703POPC   C1A25359  19.200   1.200   8.769
 1703POPC   D2A25360  19.445   1.258   8.383
 1703POPC   C3A25361  19.149   1.186   8.062
 1703POPC   C4A25362  19.097   0.864   7.775
 1703POPC   C1B25363  18.750   1.679   8.778
 1703POPC   C2B25364  18.937   1.509   8.441
 1703POPC   C3B25365  18.891   1.652   8.072
 1703POPC   C4B25366  18.932   1.548   7.692
 1704POPC   NC325367   7.695  20.053   9.726
 1704POPC   PO425368   8.273  20.116   9.373
 1704POPC   GL125369   8.227  19.744   9.107
 1704POPC   GL225370   7.984  19.502   9.241
 1704POPC   C1A25371   8.315  19.683   8.660
 1704POPC   D2A25372   8.218  20.045   8.370
 1704POPC   C3A25373   8.303  19.941   7.969
 1704POPC   C4A25374   8.581  19.577   7.900
 1704POPC   C1B25375   7.941  19.372   8.810
 1704POPC   C2B25376   7.854  19.444   8.371
 1704POPC   C3B25377   8.005  19.298   7.980
 1704POPC   C4B25378   8.115  19.568   7.649
 1705POPC   NC325379  13.199  41.745   9.493
 1705POPC   PO425380  13.619  41.251   9.742
 1705POPC   GL125381  13.636  41.529   9.324
 1705POPC   GL225382  13.750  41.858   9.203
 1705POPC   C1A25383  13.507  41.555   8.865
 1705POPC   D2A25384  13.371  41.701   8.440
 1705POPC   C3A25385  13.597  41.509   8.083
 1705POPC   C4A25386  13.497  41.309   7.688
 1705POPC   C1B25387  13.726  42.001   8.730
 1705POPC   C2B25388  13.772  41.974   8.262
 1705POPC   C3B25389  13.698  41.985   7.808
 1705POPC   C4B25390  13.892  41.942   7.347
 1706POPC   NC325391  43.519  35.273   9.421
 1706POPC   PO425392  44.087  35.031   9.404
 1706POPC   GL125393  43.970  35.402   9.148
 1706POPC   GL225394  43.729  35.687   9.219
 1706POPC   C1A25395  43.996  35.379   8.703
 1706POPC   D2A25396  43.827  35.186   8.323
 1706POPC   C3A25397  44.061  35.315   7.956
 1706POPC   C4A25398  44.180  35.321   7.484
 1706POPC   C1B25399  43.519  35.509   8.824
 1706POPC   C2B25400  43.594  35.620   8.411
 1706POPC   C3B25401  43.537  35.483   8.002
 1706POPC   C4B25402  43.730  35.478   7.621
 1707POPC   NC325403  10.035  30.941   9.589
 1707POPC   PO425404   9.352  30.862   9.564
 1707POPC   GL125405   9.650  30.740   9.257
 1707POPC   GL225406   9.930  30.532   9.286
 1707POPC   C1A25407   9.706  30.754   8.836
 1707POPC   D2A25408   9.699  30.907   8.434
 1707POPC   C3A25409   9.773  30.707   8.085
 1707POPC   C4A25410   9.941  30.847   7.701
 1707POPC   C1B25411  10.137  30.465   8.887
 1707POPC   C2B25412  10.066  30.464   8.450
 1707POPC   C3B25413  10.228  30.491   7.992
 1707POPC   C4B25414  10.233  30.447   7.516
 1708POPC   NC325415  32.808   6.136   9.761
 1708POPC   PO425416  33.366   5.907   9.882
 1708POPC   GL125417  33.123   5.914   9.414
 1708POPC   GL225418  32.740   5.903   9.314
 1708POPC   C1A25419  33.060   6.030   8.925
 1708POPC   D2A25420  33.029   6.172   8.463
 1708POPC   C3A25421  33.010   5.950   8.050
 1708POPC   C4A25422  33.242   6.013   7.658
 1708POPC   C1B25423  32.597   6.246   9.023
 1708POPC   C2B25424  32.540   6.269   8.558
 1708POPC   C3B25425  32.685   6.344   8.111
 1708POPC   C4B25426  32.751   6.207   7.674
 1709POPC   NC325427  40.326   1.362   9.415
 1709POPC   PO425428  39.736   1.583   9.213
 1709POPC   GL125429  39.865   1.187   9.028
 1709POPC   GL225430  40.229   1.097   8.970
 1709POPC   C1A25431  39.811   1.082   8.611
 1709POPC   D2A25432  39.635   1.421   8.318
 1709POPC   C3A25433  39.792   1.367   7.901
 1709POPC   C4A25434  40.033   0.970   7.871
 1709POPC   C1B25435  40.168   1.452   8.717
 1709POPC   C2B25436  40.154   1.294   8.289
 1709POPC   C3B25437  40.305   1.404   7.906
 1709POPC   C4B25438  40.309   1.243   7.508
 1710POPC   NC325439  18.762  43.817   9.526
 1710POPC   PO425440  19.410  43.577   9.479
 1710POPC   GL125441  19.310  43.671   9.067
 1710POPC   GL225442  18.978  43.651   9.098
 1710POPC   C1A25443  19.193  43.979   8.730
 1710POPC   D2A25444  18.830  44.012   8.451
 1710POPC   C3A25445  18.967  44.116   8.057
 1710POPC   C4A25446  19.006  43.941   7.657
 1710POPC   C1B25447  19.015  43.512   8.683
 1710POPC   C2B25448  19.299  43.556   8.378
 1710POPC   C3B25449  19.199  43.581   7.969
 1710POPC   C4B25450  19.246  43.489   7.561
 1711POPC   NC325451  40.390  43.757   9.312
 1711POPC   PO425452  40.028  44.224   9.618
 1711POPC   GL125453  39.987  44.053   9.176
 1711POPC   GL225454  39.861  43.687   9.152
 1711POPC   C1A25455  40.113  43.942   8.734
 1711POPC   D2A25456  40.055  43.643   8.370
 1711POPC   C3A25457  40.119  43.842   7.966
 1711POPC   C4A25458  40.106  43.814   7.499
 1711POPC   C1B25459  39.668  43.702   8.720
 1711POPC   C2B25460  39.566  43.812   8.277
 1711POPC   C3B25461  39.689  43.553   7.904
 1711POPC   C4B25462  39.772  43.435   7.443
 1712POPC   NC325463  44.952  25.498   9.588
 1712POPC   PO425464   0.555  25.133   9.545
 1712POPC   GL125465   0.412  25.323   9.174
 1712POPC   GL225466   0.133  25.511   9.123
 1712POPC   C1A25467   0.271  25.147   8.782
 1712POPC   D2A25468   0.496  25.166   8.387
 1712POPC   C3A25469   0.352  25.035   7.974
 1712POPC   C4A25470   0.557  25.291   7.679
 1712POPC   C1B25471   0.304  25.655   8.762
 1712POPC   C2B25472   0.124  25.637   8.410
 1712POPC   C3B25473   0.285  25.533   8.043
 1712POPC   C4B25474   0.105  25.563   7.655
 1713POPC   NC325475  40.965  32.309   9.538
 1713POPC   PO425476  40.484  31.846   9.510
 1713POPC   GL125477  40.739  31.875   9.134
 1713POPC   GL225478  41.005  32.094   9.102
 1713POPC   C1A25479  40.705  32.068   8.710
 1713POPC   D2A25480  40.512  32.264   8.380
 1713POPC   C3A25481  40.661  32.194   7.995
 1713POPC   C4A25482  40.531  31.924   7.677
 1713POPC   C1B25483  41.146  32.356   8.780
 1713POPC   C2B25484  41.003  32.389   8.374
 1713POPC   C3B25485  41.154  32.343   7.992
 1713POPC   C4B25486  40.969  32.387   7.608
 1714POPC   NC325487  21.924  33.554   9.691
 1714POPC   PO425488  21.934  32.845   9.722
 1714POPC   GL125489  22.059  32.962   9.290
 1714POPC   GL225490  22.321  32.769   9.225
 1714POPC   C1A25491  22.184  33.090   8.835
 1714POPC   D2A25492  22.067  33.030   8.385
 1714POPC   C3A25493  22.245  33.247   8.034
 1714POPC   C4A25494  22.022  33.451   7.730
 1714POPC   C1B25495  22.317  32.561   8.822
 1714POPC   C2B25496  22.435  32.693   8.401
 1714POPC   C3B25497  22.388  32.762   7.963
 1714POPC   C4B25498  22.418  33.023   7.585
 1715POPC   NC325499   9.127   7.049   9.432
 1715POPC   PO425500   8.776   6.500   9.437
 1715POPC   GL125501   8.817   6.738   9.101
 1715POPC   GL225502   9.167   6.652   9.083
 1715POPC   C1A25503   8.921   6.887   8.688
 1715POPC   D2A25504   9.038   6.640   8.346
 1715POPC   C3A25505   8.765   6.589   7.996
 1715POPC   C4A25506   8.802   6.914   7.701
 1715POPC   C1B25507   9.411   6.700   8.732
 1715POPC   C2B25508   9.489   6.864   8.313
 1715POPC   C3B25509   9.264   6.773   7.904
 1715POPC   C4B25510   9.267   6.936   7.476
 1716POPC   NC325511  27.125  41.647   9.734
 1716POPC   PO425512  26.517  41.284   9.637
 1716POPC   GL125513  26.567  41.531   9.211
 1716POPC   GL225514  26.881  41.730   9.165
 1716POPC   C1A25515  26.715  41.431   8.763
 1716POPC   D2A25516  26.585  41.381   8.339
 1716POPC   C3A25517  26.914  41.459   8.052
 1716POPC   C4A25518  26.914  41.558   7.590
 1716POPC   C1B25519  27.048  41.809   8.731
 1716POPC   C2B25520  26.795  41.907   8.373
 1716POPC   C3B25521  26.870  41.958   7.945
 1716POPC   C4B25522  26.653  41.980   7.555
 1717POPC   NC325523  10.806  30.903   9.508
 1717POPC   PO425524  10.275  30.488   9.649
 1717POPC   GL125525  10.465  30.618   9.250
 1717POPC   GL225526  10.292  30.901   9.146
 1717POPC   C1A25527  10.628  30.485   8.840
 1717POPC   D2A25528  10.571  30.574   8.404
 1717POPC   C3A25529  10.706  30.326   8.103
 1717POPC   C4A25530  10.669  30.292   7.700
 1717POPC   C1B25531  10.149  30.958   8.727
 1717POPC   C2B25532  10.201  30.922   8.309
 1717POPC   C3B25533  10.541  30.995   8.088
 1717POPC   C4B25534  10.554  30.807   7.713
 1718POPC   NC325535  35.915  21.126   9.497
 1718POPC   PO425536  36.314  21.588   9.689
 1718POPC   GL125537  36.166  21.549   9.290
 1718POPC   GL225538  36.352  21.258   9.253
 1718POPC   C1A25539  35.977  21.407   8.904
 1718POPC   D2A25540  35.992  21.551   8.514
 1718POPC   C3A25541  35.946  21.270   8.175
 1718POPC   C4A25542  35.956  21.365   7.725
 1718POPC   C1B25543  36.403  21.024   8.913
 1718POPC   C2B25544  36.334  21.164   8.506
 1718POPC   C3B25545  36.434  21.022   8.108
 1718POPC   C4B25546  36.407  21.069   7.705
 1719POPC   NC325547  25.101  34.525   9.387
 1719POPC   PO425548  25.814  34.426   9.422
 1719POPC   GL125549  25.556  34.614   9.112
 1719POPC   GL225550  25.372  34.319   9.000
 1719POPC   C1A25551  25.261  34.825   8.814
 1719POPC   D2A25552  25.027  34.743   8.432
 1719POPC   C3A25553  25.256  34.615   8.044
 1719POPC   C4A25554  25.062  34.745   7.661
 1719POPC   C1B25555  25.747  34.321   8.733
 1719POPC   C2B25556  25.838  34.426   8.318
 1719POPC   C3B25557  25.722  34.269   7.919
 1719POPC   C4B25558  25.334  34.304   7.628
 1720POPC   NC325559  43.561  44.560   9.459
 1720POPC   PO425560  44.232  44.808   9.463
 1720POPC   GL125561  43.995  44.654   9.108
 1720POPC   GL225562  43.650  44.770   9.001
 1720POPC   C1A25563  44.058  44.532   8.680
 1720POPC   D2A25564  44.000  44.622   8.232
 1720POPC   C3A25565  44.048  44.317   7.955
 1720POPC   C4A25566  43.976  44.131   7.590
 1720POPC   C1B25567  43.875   0.011   8.703
 1720POPC   C2B25568  43.956   0.136   8.303
 1720POPC   C3B25569  43.809  44.988   7.946
 1720POPC   C4B25570  43.715  44.697   7.643
 1721POPC   NC325571  12.098  25.527   9.669
 1721POPC   PO425572  11.930  26.170   9.522
 1721POPC   GL125573  12.125  26.265   9.169
 1721POPC   GL225574  12.142  25.921   9.038
 1721POPC   C1A25575  11.972  26.357   8.785
 1721POPC   D2A25576  12.099  26.301   8.364
 1721POPC   C3A25577  11.968  26.483   8.006
 1721POPC   C4A25578  11.913  26.196   7.700
 1721POPC   C1B25579  11.972  25.882   8.615
 1721POPC   C2B25580  11.765  25.938   8.188
 1721POPC   C3B25581  11.682  25.757   7.732
 1721POPC   C4B25582  11.805  25.844   7.242
 1722POPC   NC325583  42.945  33.466   9.314
 1722POPC   PO425584  43.306  34.017   9.302
 1722POPC   GL125585  43.181  33.791   9.025
 1722POPC   GL225586  43.378  33.503   8.995
 1722POPC   C1A25587  43.003  33.688   8.664
 1722POPC   D2A25588  42.854  33.912   8.325
 1722POPC   C3A25589  42.949  33.577   8.061
 1722POPC   C4A25590  42.984  33.507   7.645
 1722POPC   C1B25591  43.498  33.822   8.651
 1722POPC   C2B25592  43.346  33.874   8.243
 1722POPC   C3B25593  43.404  33.749   7.843
 1722POPC   C4B25594  43.728  33.457   7.733
 1723POPC   NC325595  19.233  26.101   9.542
 1723POPC   PO425596  19.899  26.006   9.555
 1723POPC   GL125597  19.931  25.905   9.167
 1723POPC   GL225598  19.580  25.824   9.162
 1723POPC   C1A25599  19.780  26.181   8.827
 1723POPC   D2A25600  19.917  26.440   8.486
 1723POPC   C3A25601  19.865  26.238   8.070
 1723POPC   C4A25602  20.091  26.387   7.696
 1723POPC   C1B25603  19.737  25.680   8.754
 1723POPC   C2B25604  19.719  25.794   8.333
 1723POPC   C3B25605  19.767  25.679   7.908
 1723POPC   C4B25606  19.732  26.015   7.612
 1724POPC   NC325607  36.271   8.056   9.583
 1724POPC   PO425608  36.416   8.536   9.128
 1724POPC   GL125609  36.108   8.250   9.043
 1724POPC   GL225610  36.150   7.896   9.124
 1724POPC   C1A25611  36.065   8.362   8.627
 1724POPC   D2A25612  36.044   8.153   8.277
 1724POPC   C3A25613  36.197   8.394   7.978
 1724POPC   C4A25614  36.037   8.618   7.661
 1724POPC   C1B25615  36.199   7.854   8.688
 1724POPC   C2B25616  36.497   7.917   8.327
 1724POPC   C3B25617  36.308   7.890   7.922
 1724POPC   C4B25618  36.278   8.162   7.541
 1725POPC   NC325619  28.808  17.620   9.517
 1725POPC   PO425620  29.355  17.145   9.512
 1725POPC   GL125621  29.163  17.372   9.195
 1725POPC   GL225622  28.867  17.221   9.102
 1725POPC   C1A25623  29.301  17.601   8.843
 1725POPC   D2A25624  29.243  17.573   8.412
 1725POPC   C3A25625  29.420  17.764   8.031
 1725POPC   C4A25626  29.288  17.834   7.618
 1725POPC   C1B25627  28.826  17.417   8.678
 1725POPC   C2B25628  28.723  17.601   8.321
 1725POPC   C3B25629  28.953  17.545   8.009
 1725POPC   C4B25630  28.938  17.441   7.671
 1726POPC   NC325631  32.426  31.095   9.433
 1726POPC   PO425632  32.025  30.630   9.458
 1726POPC   GL125633  32.273  30.662   9.143
 1726POPC   GL225634  32.096  30.931   9.018
 1726POPC   C1A25635  32.384  30.426   8.778
 1726POPC   D2A25636  32.380  30.631   8.381
 1726POPC   C3A25637  32.174  30.439   8.026
 1726POPC   C4A25638  32.328  30.355   7.610
 1726POPC   C1B25639  32.510  30.947   8.779
 1726POPC   C2B25640  32.537  31.160   8.377
 1726POPC   C3B25641  32.344  31.012   8.026
 1726POPC   C4B25642  32.343  30.857   7.624
 1727POPC   NC325643  13.113   6.681   9.477
 1727POPC   PO425644  12.453   6.695   9.265
 1727POPC   GL125645  12.807   6.597   9.061
 1727POPC   GL225646  12.740   6.257   9.026
 1727POPC   C1A25647  12.989   6.767   8.687
 1727POPC   D2A25648  12.948   6.955   8.295
 1727POPC   C3A25649  12.727   6.781   7.995
 1727POPC   C4A25650  12.820   6.895   7.610
 1727POPC   C1B25651  13.063   6.279   8.737
 1727POPC   C2B25652  12.966   6.403   8.305
 1727POPC   C3B25653  12.892   6.301   7.909
 1727POPC   C4B25654  12.677   6.399   7.541
 1728POPC   NC325655  38.407   3.475   9.731
 1728POPC   PO425656  39.006   3.760   9.507
 1728POPC   GL125657  38.778   3.698   9.119
 1728POPC   GL225658  38.530   3.948   9.086
 1728POPC   C1A25659  38.674   3.713   8.638
 1728POPC   D2A25660  38.695   3.878   8.193
 1728POPC   C3A25661  38.634   3.564   7.853
 1728POPC   C4A25662  38.345   3.233   7.741
 1728POPC   C1B25663  38.227   3.968   8.709
 1728POPC   C2B25664  38.167   3.932   8.231
 1728POPC   C3B25665  38.047   3.655   7.834
 1728POPC   C4B25666  37.919   3.444   7.419
 1729POPC   NC325667  27.870  36.924   9.628
 1729POPC   PO425668  28.598  36.923   9.588
 1729POPC   GL125669  28.624  36.971   9.121
 1729POPC   GL225670  28.259  36.970   9.046
 1729POPC   C1A25671  28.572  36.907   8.648
 1729POPC   D2A25672  28.425  37.077   8.249
 1729POPC   C3A25673  28.405  36.798   7.918
 1729POPC   C4A25674  28.552  36.880   7.512
 1729POPC   C1B25675  28.284  37.327   8.747
 1729POPC   C2B25676  28.129  37.469   8.369
 1729POPC   C3B25677  27.962  37.370   7.955
 1729POPC   C4B25678  28.072  37.079   7.634
 1730POPC   NC325679  14.839   0.102   9.334
 1730POPC   PO425680  14.702   0.783   9.343
 1730POPC   GL125681  14.463   0.457   9.172
 1730POPC   GL225682  14.304   0.686   9.013
 1730POPC   C1A25683  14.180   0.255   8.841
 1730POPC   D2A25684  14.478   0.376   8.527
 1730POPC   C3A25685  14.487   0.181   8.129
 1730POPC   C4A25686  14.570   0.321   7.672
 1730POPC   C1B25687  14.091   0.714   8.643
 1730POPC   C2B25688  14.008   0.381   8.313
 1730POPC   C3B25689  14.138   0.492   7.916
 1730POPC   C4B25690  14.503   0.792   7.831
 1731POPC   NC325691  12.125  36.397   9.547
 1731POPC   PO425692  12.481  35.858   9.560
 1731POPC   GL125693  12.215  35.915   9.152
 1731POPC   GL225694  12.024  36.225   9.074
 1731POPC   C1A25695  12.238  35.944   8.687
 1731POPC   D2A25696  12.036  36.282   8.426
 1731POPC   C3A25697  12.189  36.319   7.993
 1731POPC   C4A25698  12.325  35.953   7.737
 1731POPC   C1B25699  11.743  36.013   8.779
 1731POPC   C2B25700  11.649  35.919   8.294
 1731POPC   C3B25701  11.565  35.975   7.825
 1731POPC   C4B25702  11.756  35.981   7.407
 1732POPC   NC325703  40.049   4.722   9.757
 1732POPC   PO425704  39.877   4.182   9.393
 1732POPC   GL125705  39.888   4.336   9.003
 1732POPC   GL225706  40.228   4.253   8.982
 1732POPC   C1A25707  39.938   4.257   8.582
 1732POPC   D2A25708  40.085   3.916   8.339
 1732POPC   C3A25709  39.876   4.075   8.012
 1732POPC   C4A25710  39.956   4.349   7.695
 1732POPC   C1B25711  40.382   4.560   8.703
 1732POPC   C2B25712  40.264   4.715   8.287
 1732POPC   C3B25713  40.377   4.717   7.849
 1732POPC   C4B25714  40.391   4.470   7.464
 1733POPC   NC325715  42.631  40.716   9.533
 1733POPC   PO425716  42.151  40.590   9.085
 1733POPC   GL125717  42.509  40.844   9.049
 1733POPC   GL225718  42.280  41.037   8.874
 1733POPC   C1A25719  42.749  40.950   8.665
 1733POPC   D2A25720  42.514  41.078   8.288
 1733POPC   C3A25721  42.323  40.724   8.119
 1733POPC   C4A25722  42.473  40.554   7.770
 1733POPC   C1B25723  41.887  41.153   8.693
 1733POPC   C2B25724  41.911  40.946   8.356
 1733POPC   C3B25725  42.045  41.165   8.022
 1733POPC   C4B25726  42.206  40.997   7.682
 1734POPC   NC325727  23.888  26.303   9.566
 1734POPC   PO425728  23.942  25.715   9.253
 1734POPC   GL125729  23.714  26.051   9.102
 1734POPC   GL225730  23.434  25.880   9.046
 1734POPC   C1A25731  23.673  26.230   8.675
 1734POPC   D2A25732  23.990  26.202   8.311
 1734POPC   C3A25733  23.827  26.098   7.882
 1734POPC   C4A25734  23.369  26.074   7.809
 1734POPC   C1B25735  23.438  25.765   8.670
 1734POPC   C2B25736  23.546  25.886   8.283
 1734POPC   C3B25737  23.547  25.615   7.956
 1734POPC   C4B25738  23.682  25.676   7.586
 1735POPC   NC325739   6.200  31.490   9.713
 1735POPC   PO425740   6.812  31.228   9.457
 1735POPC   GL125741   6.608  31.491   9.139
 1735POPC   GL225742   6.273  31.565   9.200
 1735POPC   C1A25743   6.678  31.478   8.685
 1735POPC   D2A25744   6.756  31.131   8.334
 1735POPC   C3A25745   6.672  31.366   7.960
 1735POPC   C4A25746   6.751  31.797   8.120
 1735POPC   C1B25747   6.181  31.448   8.767
 1735POPC   C2B25748   6.319  31.370   8.330
 1735POPC   C3B25749   6.140  31.358   7.937
 1735POPC   C4B25750   6.304  31.168   7.552
 1736POPC   NC325751  30.760  32.504   9.494
 1736POPC   PO425752  30.949  31.815   9.642
 1736POPC   GL125753  30.765  32.015   9.259
 1736POPC   GL225754  31.009  32.242   9.111
 1736POPC   C1A25755  30.524  32.159   8.857
 1736POPC   D2A25756  30.289  32.454   8.564
 1736POPC   C3A25757  30.474  32.452   8.141
 1736POPC   C4A25758  30.655  32.122   7.843
 1736POPC   C1B25759  30.967  31.929   8.777
 1736POPC   C2B25760  30.831  31.995   8.354
 1736POPC   C3B25761  31.097  31.934   8.003
 1736POPC   C4B25762  31.195  32.247   7.707
 1737POPC   NC325763   3.093  39.998   9.385
 1737POPC   PO425764   3.672  40.233   9.572
 1737POPC   GL125765   3.563  40.062   9.109
 1737POPC   GL225766   3.276  39.800   8.968
 1737POPC   C1A25767   3.509  40.123   8.633
 1737POPC   D2A25768   3.741  40.236   8.260
 1737POPC   C3A25769   3.561  40.079   7.872
 1737POPC   C4A25770   3.208  39.835   7.804
 1737POPC   C1B25771   3.649  39.661   8.791
 1737POPC   C2B25772   3.771  39.729   8.347
 1737POPC   C3B25773   3.652  39.581   7.936
 1737POPC   C4B25774   3.848  39.551   7.546
 1738POPC   NC325775  37.217  22.619   9.426
 1738POPC   PO425776  36.790  22.046   9.677
 1738POPC   GL125777  36.852  22.281   9.284
 1738POPC   GL225778  37.187  22.173   9.181
 1738POPC   C1A25779  36.859  22.394   8.837
 1738POPC   D2A25780  36.723  22.133   8.476
 1738POPC   C3A25781  36.559  22.056   8.068
 1738POPC   C4A25782  36.772  22.192   7.706
 1738POPC   C1B25783  36.944  21.884   8.890
 1738POPC   C2B25784  36.998  21.695   8.463
 1738POPC   C3B25785  37.059  21.869   8.036
 1738POPC   C4B25786  37.201  21.955   7.597
 1739POPC   NC325787  37.013  19.331   9.299
 1739POPC   PO425788  37.213  19.895   9.558
 1739POPC   GL125789  37.073  19.823   9.121
 1739POPC   GL225790  36.701  19.715   9.135
 1739POPC   C1A25791  36.953  20.014   8.712
 1739POPC   D2A25792  36.694  19.924   8.312
 1739POPC   C3A25793  36.831  20.187   7.940
 1739POPC   C4A25794  37.241  20.019   7.901
 1739POPC   C1B25795  36.754  19.529   8.724
 1739POPC   C2B25796  37.110  19.580   8.473
 1739POPC   C3B25797  37.126  19.551   8.047
 1739POPC   C4B25798  36.809  19.702   7.778
 1740POPC   NC325799  22.738  18.615   9.424
 1740POPC   PO425800  23.200  18.113   9.428
 1740POPC   GL125801  23.104  18.426   9.147
 1740POPC   GL225802  22.839  18.200   9.069
 1740POPC   C1A25803  22.918  18.566   8.742
 1740POPC   D2A25804  22.973  18.239   8.453
 1740POPC   C3A25805  22.847  18.354   8.075
 1740POPC   C4A25806  22.921  18.405   7.685
 1740POPC   C1B25807  22.564  18.123   8.741
 1740POPC   C2B25808  22.442  18.180   8.329
 1740POPC   C3B25809  22.457  18.060   7.890
 1740POPC   C4B25810  22.680  17.996   7.518
 1741POPC   NC325811  41.211   6.402   9.363
 1741POPC   PO425812  40.746   6.879   9.613
 1741POPC   GL125813  40.521   6.727   9.230
 1741POPC   GL225814  40.841   6.628   9.064
 1741POPC   C1A25815  40.425   6.569   8.809
 1741POPC   D2A25816  40.762   6.597   8.507
 1741POPC   C3A25817  40.507   6.610   8.149
 1741POPC   C4A25818  40.587   6.593   7.720
 1741POPC   C1B25819  40.960   6.985   8.758
 1741POPC   C2B25820  41.113   6.993   8.359
 1741POPC   C3B25821  41.011   6.699   8.035
 1741POPC   C4B25822  41.009   6.852   7.608
 1742POPC   NC325823  21.667  38.624   9.463
 1742POPC   PO425824  21.376  38.038   9.611
 1742POPC   GL125825  21.328  38.280   9.241
 1742POPC   GL225826  21.551  38.125   9.015
 1742POPC   C1A25827  21.368  38.583   8.873
 1742POPC   D2A25828  21.285  38.824   8.526
 1742POPC   C3A25829  21.204  38.573   8.181
 1742POPC   C4A25830  21.482  38.611   7.859
 1742POPC   C1B25831  21.108  38.118   8.802
 1742POPC   C2B25832  20.927  38.141   8.360
 1742POPC   C3B25833  21.101  38.029   7.923
 1742POPC   C4B25834  21.526  38.118   7.710
 1743POPC   NC325835  42.588  38.124   9.591
 1743POPC   PO425836  43.010  38.680   9.530
 1743POPC   GL125837  43.145  38.509   9.138
 1743POPC   GL225838  43.050  38.123   9.208
 1743POPC   C1A25839  43.221  38.747   8.745
 1743POPC   D2A25840  43.065  38.974   8.371
 1743POPC   C3A25841  43.172  38.747   7.973
 1743POPC   C4A25842  43.426  38.388   7.848
 1743POPC   C1B25843  42.870  38.230   8.789
 1743POPC   C2B25844  42.957  38.452   8.420
 1743POPC   C3B25845  42.824  38.372   8.040
 1743POPC   C4B25846  42.894  38.138   7.712
 1744POPC   NC325847  38.608  28.156   9.448
 1744POPC   PO425848  38.160  28.586   9.734
 1744POPC   GL125849  38.269  28.546   9.274
 1744POPC   GL225850  38.289  28.217   9.062
 1744POPC   C1A25851  38.565  28.633   8.909
 1744POPC   D2A25852  38.627  28.726   8.465
 1744POPC   C3A25853  38.419  28.420   8.192
 1744POPC   C4A25854  38.459  28.488   7.752
 1744POPC   C1B25855  38.420  27.957   8.731
 1744POPC   C2B25856  38.519  27.896   8.291
 1744POPC   C3B25857  38.506  28.002   7.845
 1744POPC   C4B25858  38.461  28.055   7.394
 1745POPC   NC325859  11.869   4.619   9.420
 1745POPC   PO425860  12.288   4.021   9.383
 1745POPC   GL125861  12.137   4.289   9.083
 1745POPC   GL225862  12.296   4.638   9.093
 1745POPC   C1A25863  12.154   4.132   8.663
 1745POPC   D2A25864  11.980   3.913   8.334
 1745POPC   C3A25865  12.152   4.136   8.000
 1745POPC   C4A25866  12.375   4.033   7.665
 1745POPC   C1B25867  11.956   4.611   8.738
 1745POPC   C2B25868  11.950   4.501   8.303
 1745POPC   C3B25869  11.797   4.574   7.884
 1745POPC   C4B25870  11.608   4.638   7.460
 1746POPC   NC325871  23.153  22.083   9.551
 1746POPC   PO425872  22.696  21.787   9.455
 1746POPC   GL125873  22.712  22.208   9.237
 1746POPC   GL225874  23.048  22.390   9.159
 1746POPC   C1A25875  22.773  22.145   8.798
 1746POPC   D2A25876  22.973  22.277   8.441
 1746POPC   C3A25877  22.733  22.169   8.133
 1746POPC   C4A25878  22.736  21.891   7.808
 1746POPC   C1B25879  23.296  22.198   8.843
 1746POPC   C2B25880  23.478  22.278   8.444
 1746POPC   C3B25881  23.309  22.248   8.021
 1746POPC   C4B25882  23.607  22.027   7.742
 1747POPC   NC325883  42.127  32.909   9.490
 1747POPC   PO425884  42.630  32.471   9.604
 1747POPC   GL125885  42.470  32.829   9.109
 1747POPC   GL225886  42.204  33.119   9.059
 1747POPC   C1A25887  42.203  32.795   8.694
 1747POPC   D2A25888  42.007  32.778   8.300
 1747POPC   C3A25889  42.327  32.723   7.987
 1747POPC   C4A25890  42.419  32.823   7.563
 1747POPC   C1B25891  42.108  33.361   8.723
 1747POPC   C2B25892  41.966  33.430   8.285
 1747POPC   C3B25893  42.051  33.163   7.922
 1747POPC   C4B25894  42.059  33.200   7.486
 1748POPC   NC325895  33.870  43.949   9.620
 1748POPC   PO425896  33.254  43.935   9.580
 1748POPC   GL125897  33.588  43.939   9.207
 1748POPC   GL225898  33.921  43.920   9.120
 1748POPC   C1A25899  33.535  43.854   8.792
 1748POPC   D2A25900  33.705  43.814   8.399
 1748POPC   C3A25901  33.521  44.075   8.098
 1748POPC   C4A25902  33.609  44.025   7.666
 1748POPC   C1B25903  34.154  43.901   8.729
 1748POPC   C2B25904  34.196  43.658   8.377
 1748POPC   C3B25905  34.045  43.729   7.969
 1748POPC   C4B25906  34.126  44.081   7.750
 1749POPC   NC325907   5.384   9.271   9.386
 1749POPC   PO425908   4.826   8.881   9.438
 1749POPC   GL125909   5.103   8.921   9.118
 1749POPC   GL225910   4.860   9.118   8.971
 1749POPC   C1A25911   5.329   9.058   8.735
 1749POPC   D2A25912   5.284   8.772   8.389
 1749POPC   C3A25913   5.351   8.855   7.953
 1749POPC   C4A25914   5.069   8.817   7.595
 1749POPC   C1B25915   4.863   9.061   8.533
 1749POPC   C2B25916   5.107   9.255   8.263
 1749POPC   C3B25917   5.001   9.242   7.867
 1749POPC   C4B25918   5.358   9.315   7.703
 1750POPC   NC325919  35.220  36.765   9.489
 1750POPC   PO425920  35.857  37.086   9.479
 1750POPC   GL125921  35.690  36.937   9.107
 1750POPC   GL225922  35.398  37.053   9.127
 1750POPC   C1A25923  35.693  37.066   8.680
 1750POPC   D2A25924  35.662  36.998   8.236
 1750POPC   C3A25925  35.452  36.666   7.992
 1750POPC   C4A25926  35.525  36.629   7.539
 1750POPC   C1B25927  35.186  37.163   8.784
 1750POPC   C2B25928  35.179  37.031   8.380
 1750POPC   C3B25929  35.246  37.153   7.975
 1750POPC   C4B25930  35.095  36.925   7.667
 1751POPC   NC325931  33.844   4.386   9.966
 1751POPC   PO425932  33.746   4.654   9.596
 1751POPC   GL125933  33.723   4.435   9.177
 1751POPC   GL225934  33.899   4.123   9.147
 1751POPC   C1A25935  33.762   4.387   8.713
 1751POPC   D2A25936  33.803   4.528   8.283
 1751POPC   C3A25937  33.501   4.634   7.927
 1751POPC   C4A25938  33.484   4.519   7.461
 1751POPC   C1B25939  33.932   3.898   8.742
 1751POPC   C2B25940  33.849   3.977   8.313
 1751POPC   C3B25941  33.717   4.170   7.932
 1751POPC   C4B25942  33.942   4.508   7.711
 1752POPC   NC325943  41.956  44.141   9.259
 1752POPC   PO425944  42.413  43.703   9.511
 1752POPC   GL125945  42.439  43.954   9.134
 1752POPC   GL225946  42.154  43.794   8.942
 1752POPC   C1A25947  42.553  43.994   8.690
 1752POPC   D2A25948  42.319  43.928   8.292
 1752POPC   C3A25949  42.610  43.746   7.968
 1752POPC   C4A25950  42.591  43.671   7.494
 1752POPC   C1B25951  41.934  44.073   8.629
 1752POPC   C2B25952  41.734  44.032   8.256
 1752POPC   C3B25953  41.951  43.842   7.907
 1752POPC   C4B25954  42.289  44.053   7.710
 1753POPC   NC325955  14.781   9.078   9.453
 1753POPC   PO425956  14.154   9.189   9.428
 1753POPC   GL125957  14.461   9.116   9.058
 1753POPC   GL225958  14.764   9.356   9.030
 1753POPC   C1A25959  14.426   8.968   8.625
 1753POPC   D2A25960  14.144   8.934   8.297
 1753POPC   C3A25961  14.106   8.564   8.066
 1753POPC   C4A25962  14.223   8.856   7.755
 1753POPC   C1B25963  14.910   8.955   8.812
 1753POPC   C2B25964  14.851   8.684   8.467
 1753POPC   C3B25965  14.597   8.682   8.101
 1753POPC   C4B25966  14.694   8.717   7.658
 1754POPC   NC325967  16.653  39.796   9.406
 1754POPC   PO425968  17.145  40.246   9.469
 1754POPC   GL125969  17.053  39.980   9.128
 1754POPC   GL225970  16.751  40.210   9.116
 1754POPC   C1A25971  16.853  39.855   8.723
 1754POPC   D2A25972  16.797  40.061   8.322
 1754POPC   C3A25973  16.729  39.828   7.968
 1754POPC   C4A25974  16.369  39.945   7.734
 1754POPC   C1B25975  16.666  40.384   8.734
 1754POPC   C2B25976  16.424  40.428   8.380
 1754POPC   C3B25977  16.519  40.448   7.968
 1754POPC   C4B25978  16.828  40.296   7.825
 1755POPC   NC325979  27.274  39.301   9.476
 1755POPC   PO425980  27.685  38.764   9.597
 1755POPC   GL125981  27.564  38.991   9.186
 1755POPC   GL225982  27.600  39.360   9.078
 1755POPC   C1A25983  27.428  39.011   8.754
 1755POPC   D2A25984  27.558  39.348   8.524
 1755POPC   C3A25985  27.512  39.283   8.106
 1755POPC   C4A25986  27.711  39.179   7.713
 1755POPC   C1B25987  27.920  39.583   8.829
 1755POPC   C2B25988  28.066  39.666   8.396
 1755POPC   C3B25989  27.903  39.586   7.973
 1755POPC   C4B25990  27.720  39.662   7.545
 1756POPC   NC325991  26.608  44.411   9.298
 1756POPC   PO425992  26.978   0.009   9.408
 1756POPC   GL125993  26.985  44.801   9.008
 1756POPC   GL225994  27.132  44.488   9.097
 1756POPC   C1A25995  26.813  44.504   8.675
 1756POPC   D2A25996  26.663  44.360   8.268
 1756POPC   C3A25997  26.446  44.703   8.146
 1756POPC   C4A25998  26.447  44.780   7.741
 1756POPC   C1B25999  27.323  44.575   8.682
 1756POPC   C2B26000  27.124  44.856   8.357
 1756POPC   C3B26001  26.971  44.684   7.955
 1756POPC   C4B26002  27.053  44.239   7.894
 1757POPC   NC326003  41.219  33.491   9.200
 1757POPC   PO426004  41.771  33.777   9.502
 1757POPC   GL126005  41.716  33.598   9.113
 1757POPC   GL226006  41.504  33.905   9.020
 1757POPC   C1A26007  41.685  33.615   8.671
 1757POPC   D2A26008  41.498  33.783   8.353
 1757POPC   C3A26009  41.368  33.544   8.032
 1757POPC   C4A26010  41.709  33.535   7.814
 1757POPC   C1B26011  41.178  33.999   8.710
 1757POPC   C2B26012  41.100  34.067   8.278
 1757POPC   C3B26013  41.413  34.034   7.909
 1757POPC   C4B26014  41.433  33.935   7.423
 1758POPC   NC326015  29.068  30.874   9.425
 1758POPC   PO426016  29.161  30.263   9.318
 1758POPC   GL126017  29.174  30.555   9.015
 1758POPC   GL226018  28.840  30.703   9.001
 1758POPC   C1A26019  29.094  30.486   8.581
 1758POPC   D2A26020  28.792  30.317   8.290
 1758POPC   C3A26021  28.932  30.528   7.932
 1758POPC   C4A26022  29.332  30.744   7.823
 1758POPC   C1B26023  29.117  30.988   8.732
 1758POPC   C2B26024  29.120  30.914   8.279
 1758POPC   C3B26025  29.088  31.206   7.978
 1758POPC   C4B26026  28.888  31.018   7.708
 1759POPC   NC326027  22.832  28.050   9.529
 1759POPC   PO426028  22.898  27.376   9.569
 1759POPC   GL126029  22.796  27.410   9.174
 1759POPC   GL226030  22.628  27.716   9.204
 1759POPC   C1A26031  22.951  27.601   8.805
 1759POPC   D2A26032  23.116  27.800   8.447
 1759POPC   C3A26033  22.937  27.673   8.071
 1759POPC   C4A26034  22.736  27.524   7.700
 1759POPC   C1B26035  22.496  27.816   8.796
 1759POPC   C2B26036  22.598  27.810   8.418
 1759POPC   C3B26037  22.466  27.868   8.043
 1759POPC   C4B26038  22.449  27.946   7.645
 1760POPC   NC326039  33.578  25.636   9.438
 1760POPC   PO426040  33.821  26.270   9.513
 1760POPC   GL126041  33.681  26.164   9.111
 1760POPC   GL226042  33.867  25.857   9.075
 1760POPC   C1A26043  33.689  26.270   8.657
 1760POPC   D2A26044  34.088  26.216   8.401
 1760POPC   C3A26045  34.020  26.156   7.958
 1760POPC   C4A26046  33.552  26.167   7.804
 1760POPC   C1B26047  33.829  25.772   8.653
 1760POPC   C2B26048  33.693  25.904   8.238
 1760POPC   C3B26049  33.782  25.705   7.813
 1760POPC   C4B26050  33.865  25.751   7.338
 1761POPC   NC326051  24.402  28.531   9.518
 1761POPC   PO426052  24.704  27.924   9.415
 1761POPC   GL126053  24.506  28.208   9.098
 1761POPC   GL226054  24.651  28.577   9.069
 1761POPC   C1A26055  24.579  28.296   8.642
 1761POPC   D2A26056  24.490  28.325   8.186
 1761POPC   C3A26057  24.856  28.245   7.870
 1761POPC   C4A26058  24.791  28.083   7.442
 1761POPC   C1B26059  24.243  28.705   8.851
 1761POPC   C2B26060  24.082  28.842   8.421
 1761POPC   C3B26061  24.125  28.659   7.979
 1761POPC   C4B26062  24.427  28.409   7.682
 1762POPC   NC326063  29.989  34.362   9.480
 1762POPC   PO426064  29.548  34.861   9.284
 1762POPC   GL126065  29.823  34.593   9.024
 1762POPC   GL226066  30.139  34.421   9.013
 1762POPC   C1A26067  29.902  34.618   8.583
 1762POPC   D2A26068  30.092  34.665   8.192
 1762POPC   C3A26069  29.765  34.841   7.979
 1762POPC   C4A26070  29.544  34.626   7.726
 1762POPC   C1B26071  30.387  34.433   8.663
 1762POPC   C2B26072  30.540  34.333   8.267
 1762POPC   C3B26073  30.387  34.423   7.844
 1762POPC   C4B26074  30.040  34.552   7.583
 1763POPC   NC326075   0.888  43.446   9.590
 1763POPC   PO426076   1.281  43.981   9.479
 1763POPC   GL126077   1.279  43.879   9.084
 1763POPC   GL226078   1.149  43.570   9.161
 1763POPC   C1A26079   1.244  43.734   8.662
 1763POPC   D2A26080   1.442  43.724   8.264
 1763POPC   C3A26081   1.239  43.938   7.945
 1763POPC   C4A26082   1.173  43.800   7.543
 1763POPC   C1B26083   0.933  43.369   8.844
 1763POPC   C2B26084   0.711  43.483   8.504
 1763POPC   C3B26085   0.889  43.708   8.226
 1763POPC   C4B26086   0.761  43.735   7.842
 1764POPC   NC326087  29.525  21.450   9.527
 1764POPC   PO426088  28.847  21.341   9.584
 1764POPC   GL126089  29.037  21.271   9.214
 1764POPC   GL226090  28.715  21.332   9.063
 1764POPC   C1A26091  29.126  21.337   8.783
 1764POPC   D2A26092  29.281  21.571   8.444
 1764POPC   C3A26093  29.316  21.373   8.052
 1764POPC   C4A26094  29.326  21.201   7.666
 1764POPC   C1B26095  28.631  21.445   8.616
 1764POPC   C2B26096  28.833  21.445   8.220
 1764POPC   C3B26097  28.873  21.153   7.882
 1764POPC   C4B26098  28.889  21.174   7.417
 1765POPC   NC326099  44.993  28.641   9.206
 1765POPC   PO426100   0.376  28.169   9.547
 1765POPC   GL126101   0.221  28.167   9.126
 1765POPC   GL226102   0.476  28.422   9.080
 1765POPC   C1A26103   0.239  28.270   8.660
 1765POPC   D2A26104   0.380  28.083   8.267
 1765POPC   C3A26105   0.213  28.277   7.932
 1765POPC   C4A26106   0.181  28.565   7.556
 1765POPC   C1B26107   0.625  28.586   8.667
 1765POPC   C2B26108   0.433  28.622   8.246
 1765POPC   C3B26109   0.636  28.549   7.854
 1765POPC   C4B26110   1.013  28.625   7.619
 1766POPC   NC326111   6.757  33.944   9.618
 1766POPC   PO426112   6.302  33.503   9.697
 1766POPC   GL126113   6.394  33.779   9.282
 1766POPC   GL226114   6.774  33.940   9.103
 1766POPC   C1A26115   6.323  33.999   8.903
 1766POPC   D2A26116   6.623  33.909   8.551
 1766POPC   C3A26117   6.617  33.969   8.085
 1766POPC   C4A26118   6.463  33.866   7.653
 1766POPC   C1B26119   7.053  34.114   8.718
 1766POPC   C2B26120   7.216  34.164   8.244
 1766POPC   C3B26121   7.121  33.960   7.794
 1766POPC   C4B26122   7.061  34.009   7.302
 1767POPC   NC326123  34.396  22.220   9.428
 1767POPC   PO426124  35.032  21.992   9.631
 1767POPC   GL126125  34.841  22.057   9.209
 1767POPC   GL226126  34.569  21.782   9.182
 1767POPC   C1A26127  34.656  22.237   8.808
 1767POPC   D2A26128  34.352  22.214   8.445
 1767POPC   C3A26129  34.514  22.330   8.033
 1767POPC   C4A26130  34.793  22.543   7.724
 1767POPC   C1B26131  34.796  21.726   8.789
 1767POPC   C2B26132  34.810  21.936   8.400
 1767POPC   C3B26133  34.689  21.835   7.988
 1767POPC   C4B26134  34.962  21.729   7.676
 1768POPC   NC326135  37.016  33.310   9.282
 1768POPC   PO426136  36.797  32.682   9.514
 1768POPC   GL126137  36.660  32.881   9.149
 1768POPC   GL226138  36.540  33.191   9.123
 1768POPC   C1A26139  36.823  33.014   8.744
 1768POPC   D2A26140  37.102  32.866   8.462
 1768POPC   C3A26141  36.956  33.117   8.141
 1768POPC   C4A26142  36.878  33.022   7.746
 1768POPC   C1B26143  36.469  33.396   8.738
 1768POPC   C2B26144  36.493  33.222   8.331
 1768POPC   C3B26145  36.544  33.367   7.900
 1768POPC   C4B26146  36.569  33.294   7.440
 1769POPC   NC326147  37.383  39.372   9.298
 1769POPC   PO426148  36.966  38.980   9.624
 1769POPC   GL126149  36.872  39.144   9.149
 1769POPC   GL226150  36.613  38.906   9.089
 1769POPC   C1A26151  37.074  39.215   8.722
 1769POPC   D2A26152  37.358  39.061   8.391
 1769POPC   C3A26153  37.279  39.075   7.980
 1769POPC   C4A26154  36.968  39.331   7.842
 1769POPC   C1B26155  36.691  38.871   8.626
 1769POPC   C2B26156  36.791  39.140   8.305
 1769POPC   C3B26157  36.534  39.433   8.127
 1769POPC   C4B26158  36.505  39.152   7.782
 1770POPC   NC326159  39.057   3.076   9.546
 1770POPC   PO426160  38.800   2.403   9.522
 1770POPC   GL126161  39.023   2.670   9.210
 1770POPC   GL226162  39.363   2.824   9.209
 1770POPC   C1A26163  38.970   2.854   8.826
 1770POPC   D2A26164  38.890   2.676   8.437
 1770POPC   C3A26165  39.117   2.716   8.093
 1770POPC   C4A26166  39.313   2.707   7.723
 1770POPC   C1B26167  39.465   2.989   8.809
 1770POPC   C2B26168  39.251   3.092   8.427
 1770POPC   C3B26169  39.401   3.135   8.009
 1770POPC   C4B26170  39.611   3.327   7.702
 1771POPC   NC326171  42.520  38.842   9.429
 1771POPC   PO426172  42.063  38.370   9.614
 1771POPC   GL126173  42.323  38.413   9.234
 1771POPC   GL226174  42.646  38.429   9.185
 1771POPC   C1A26175  42.304  38.430   8.777
 1771POPC   D2A26176  42.112  38.480   8.361
 1771POPC   C3A26177  42.330  38.473   8.002
 1771POPC   C4A26178  42.246  38.613   7.626
 1771POPC   C1B26179  42.724  38.724   8.831
 1771POPC   C2B26180  42.545  38.759   8.421
 1771POPC   C3B26181  42.662  38.885   8.036
 1771POPC   C4B26182  42.758  38.706   7.657
 1772POPC   NC326183  42.075  43.296   9.455
 1772POPC   PO426184  42.515  42.840   9.642
 1772POPC   GL126185  42.419  42.977   9.226
 1772POPC   GL226186  42.369  42.692   9.076
 1772POPC   C1A26187  42.449  43.252   8.853
 1772POPC   D2A26188  42.530  43.488   8.468
 1772POPC   C3A26189  42.234  43.445   8.121
 1772POPC   C4A26190  42.419  43.269   7.767
 1772POPC   C1B26191  42.395  42.779   8.634
 1772POPC   C2B26192  42.397  42.963   8.243
 1772POPC   C3B26193  42.261  42.806   7.859
 1772POPC   C4B26194  42.465  42.697   7.487
 1773POPC   NC326195  19.261   0.705   9.504
 1773POPC   PO426196  18.884   0.109   9.457
 1773POPC   GL126197  19.117   0.337   9.174
 1773POPC   GL226198  18.894   0.612   9.136
 1773POPC   C1A26199  19.268   0.369   8.765
 1773POPC   D2A26200  19.117   0.215   8.392
 1773POPC   C3A26201  19.013   0.387   8.029
 1773POPC   C4A26202  19.038   0.386   7.591
 1773POPC   C1B26203  18.910   0.736   8.700
 1773POPC   C2B26204  18.836   0.794   8.259
 1773POPC   C3B26205  18.626   0.653   7.861
 1773POPC   C4B26206  18.706   0.751   7.438
 1774POPC   NC326207  44.697  15.499   9.659
 1774POPC   PO426208  44.924  14.901   9.584
 1774POPC   GL126209  44.990  15.146   9.187
 1774POPC   GL226210  44.709  15.401   9.161
 1774POPC   C1A26211  44.937  15.014   8.713
 1774POPC   D2A26212  44.631  14.980   8.370
 1774POPC   C3A26213  44.690  15.182   7.950
 1774POPC   C4A26214  44.822  15.029   7.569
 1774POPC   C1B26215  44.902  15.510   8.784
 1774POPC   C2B26216  44.821  15.505   8.339
 1774POPC   C3B26217   0.070  15.567   7.960
 1774POPC   C4B26218   0.011  15.500   7.521
 1775POPC   NC326219  12.323  37.981   9.513
 1775POPC   PO426220  12.900  37.564   9.542
 1775POPC   GL126221  12.903  37.748   9.160
 1775POPC   GL226222  12.570  37.658   9.152
 1775POPC   C1A26223  13.171  37.791   8.801
 1775POPC   D2A26224  13.060  37.654   8.392
 1775POPC   C3A26225  13.233  37.708   7.980
 1775POPC   C4A26226  12.972  37.749   7.638
 1775POPC   C1B26227  12.502  37.855   8.793
 1775POPC   C2B26228  12.574  37.973   8.400
 1775POPC   C3B26229  12.666  37.764   8.044
 1775POPC   C4B26230  12.536  38.011   7.714
 1776POPC   NC326231  30.064  30.936   9.488
 1776POPC   PO426232  29.798  30.376   9.579
 1776POPC   GL126233  29.679  30.466   9.147
 1776POPC   GL226234  29.962  30.677   9.025
 1776POPC   C1A26235  29.591  30.612   8.716
 1776POPC   D2A26236  29.952  30.727   8.438
 1776POPC   C3A26237  29.818  30.650   8.043
 1776POPC   C4A26238  29.842  30.775   7.647
 1776POPC   C1B26239  30.182  31.007   8.803
 1776POPC   C2B26240  30.315  31.196   8.430
 1776POPC   C3B26241  30.124  31.079   8.034
 1776POPC   C4B26242  30.252  31.156   7.611
 1777POPC   NC326243  39.663   9.583   9.403
 1777POPC   PO426244  40.265   9.708   9.748
 1777POPC   GL126245  40.309   9.838   9.238
 1777POPC   GL226246  40.399   9.545   8.997
 1777POPC   C1A26247  40.232   9.954   8.754
 1777POPC   D2A26248  40.269   9.776   8.308
 1777POPC   C3A26249  39.919   9.847   7.998
 1777POPC   C4A26250  39.675   9.977   7.650
 1777POPC   C1B26251  40.069   9.466   8.686
 1777POPC   C2B26252  39.990   9.353   8.239
 1777POPC   C3B26253  40.192   9.472   7.831
 1777POPC   C4B26254  40.044   9.689   7.443
 1778POPC   NC326255  13.042  28.040   9.540
 1778POPC   PO426256  12.755  28.611   9.378
 1778POPC   GL126257  12.747  28.244   9.128
 1778POPC   GL226258  13.070  28.245   9.062
 1778POPC   C1A26259  12.741  28.090   8.684
 1778POPC   D2A26260  12.809  28.325   8.288
 1778POPC   C3A26261  12.974  28.139   7.903
 1778POPC   C4A26262  12.961  28.199   7.455
 1778POPC   C1B26263  13.000  28.533   8.743
 1778POPC   C2B26264  13.153  28.715   8.370
 1778POPC   C3B26265  13.193  28.601   7.931
 1778POPC   C4B26266  13.396  28.471   7.554
 1779POPC   NC326267  44.204  41.098   9.822
 1779POPC   PO426268  43.660  40.705   9.595
 1779POPC   GL126269  43.637  40.717   9.166
 1779POPC   GL226270  44.008  40.823   9.111
 1779POPC   C1A26271  43.639  40.572   8.749
 1779POPC   D2A26272  43.999  40.654   8.485
 1779POPC   C3A26273  43.970  40.563   8.049
 1779POPC   C4A26274  43.656  40.620   7.703
 1779POPC   C1B26275  44.250  41.058   8.745
 1779POPC   C2B26276  44.248  41.069   8.275
 1779POPC   C3B26277  43.996  41.034   7.864
 1779POPC   C4B26278  43.991  41.133   7.397
 1780POPC   NC326279  34.303  32.359   9.512
 1780POPC   PO426280  34.875  32.001   9.543
 1780POPC   GL126281  34.757  32.199   9.173
 1780POPC   GL226282  35.078  32.255   8.992
 1780POPC   C1A26283  34.371  32.182   8.883
 1780POPC   D2A26284  34.159  32.317   8.504
 1780POPC   C3A26285  34.161  32.120   8.085
 1780POPC   C4A26286  34.332  32.326   7.735
 1780POPC   C1B26287  34.841  32.058   8.694
 1780POPC   C2B26288  34.618  32.169   8.354
 1780POPC   C3B26289  34.765  32.181   7.953
 1780POPC   C4B26290  34.953  32.147   7.545
 1781POPC   NC326291   5.454  31.468   9.566
 1781POPC   PO426292   4.875  31.501   9.656
 1781POPC   GL126293   4.966  31.492   9.167
 1781POPC   GL226294   5.318  31.472   9.069
 1781POPC   C1A26295   5.019  31.399   8.682
 1781POPC   D2A26296   5.126  31.640   8.318
 1781POPC   C3A26297   5.074  31.491   7.916
 1781POPC   C4A26298   5.279  31.597   7.565
 1781POPC   C1B26299   5.319  31.858   8.782
 1781POPC   C2B26300   5.517  31.976   8.358
 1781POPC   C3B26301   5.312  31.966   7.939
 1781POPC   C4B26302   4.828  31.923   7.939
 1782POPC   NC326303  10.991   3.264   9.236
 1782POPC   PO426304  11.559   3.441   9.544
 1782POPC   GL126305  11.468   3.523   9.157
 1782POPC   GL226306  11.426   3.876   9.202
 1782POPC   C1A26307  11.389   3.320   8.753
 1782POPC   D2A26308  11.119   3.419   8.388
 1782POPC   C3A26309  11.279   3.278   7.989
 1782POPC   C4A26310  11.502   3.385   7.625
 1782POPC   C1B26311  11.258   3.813   8.782
 1782POPC   C2B26312  11.363   3.863   8.363
 1782POPC   C3B26313  11.315   3.774   7.903
 1782POPC   C4B26314  11.061   3.917   7.552
 1783POPC   NC326315  33.246  44.291   9.249
 1783POPC   PO426316  32.773  44.686   9.580
 1783POPC   GL126317  32.903  44.642   9.124
 1783POPC   GL226318  33.283  44.701   8.952
 1783POPC   C1A26319  32.873  44.520   8.690
 1783POPC   D2A26320  32.606  44.584   8.316
 1783POPC   C3A26321  32.799  44.549   7.904
 1783POPC   C4A26322  33.065  44.634   7.541
 1783POPC   C1B26323  33.391  44.519   8.512
 1783POPC   C2B26324  33.371  44.564   8.023
 1783POPC   C3B26325  33.360  44.956   7.798
 1783POPC   C4B26326  33.510   0.107   7.410
 1784POPC   NC326327  36.571  39.237   9.536
 1784POPC   PO426328  35.916  39.501   9.556
 1784POPC   GL126329  35.896  39.289   9.137
 1784POPC   GL226330  36.216  39.219   9.133
 1784POPC   C1A26331  35.905  39.200   8.687
 1784POPC   D2A26332  36.038  39.507   8.368
 1784POPC   C3A26333  35.711  39.490   8.071
 1784POPC   C4A26334  35.701  39.268   7.655
 1784POPC   C1B26335  36.406  39.278   8.711
 1784POPC   C2B26336  36.277  39.009   8.345
 1784POPC   C3B26337  36.056  39.132   8.003
 1784POPC   C4B26338  36.139  39.514   7.783
 1785POPC   NC326339   4.166  37.034   9.439
 1785POPC   PO426340   4.665  36.570   9.472
 1785POPC   GL126341   4.388  36.714   9.115
 1785POPC   GL226342   4.519  36.996   9.011
 1785POPC   C1A26343   4.082  36.885   8.781
 1785POPC   D2A26344   3.957  37.072   8.385
 1785POPC   C3A26345   4.032  36.880   7.971
 1785POPC   C4A26346   4.170  36.763   7.551
 1785POPC   C1B26347   4.474  37.164   8.597
 1785POPC   C2B26348   4.449  36.997   8.206
 1785POPC   C3B26349   4.433  37.139   7.785
 1785POPC   C4B26350   4.567  37.024   7.396
 1786POPC   NC326351  30.107  43.420   9.498
 1786POPC   PO426352  29.388  43.390   9.459
 1786POPC   GL126353  29.563  43.025   9.184
 1786POPC   GL226354  29.904  43.071   9.118
 1786POPC   C1A26355  29.614  42.966   8.692
 1786POPC   D2A26356  29.882  43.055   8.312
 1786POPC   C3A26357  29.836  43.052   7.876
 1786POPC   C4A26358  29.687  43.421   7.716
 1786POPC   C1B26359  30.126  43.176   8.743
 1786POPC   C2B26360  30.260  43.431   8.358
 1786POPC   C3B26361  30.197  43.427   7.904
 1786POPC   C4B26362  30.126  43.294   7.484
 1787POPC   NC326363  31.185  34.343   9.519
 1787POPC   PO426364  30.452  34.486   9.490
 1787POPC   GL126365  30.590  34.657   9.112
 1787POPC   GL226366  30.898  34.552   9.151
 1787POPC   C1A26367  30.737  34.815   8.723
 1787POPC   D2A26368  30.502  34.892   8.405
 1787POPC   C3A26369  30.695  34.763   8.047
 1787POPC   C4A26370  30.650  34.812   7.634
 1787POPC   C1B26371  30.888  34.317   8.775
 1787POPC   C2B26372  31.080  34.377   8.382
 1787POPC   C3B26373  31.051  34.234   7.975
 1787POPC   C4B26374  30.885  34.362   7.601
 1788POPC   NC326375  24.159  15.819   9.478
 1788POPC   PO426376  24.838  15.974   9.473
 1788POPC   GL126377  24.673  15.921   9.045
 1788POPC   GL226378  24.446  15.663   9.102
 1788POPC   C1A26379  24.280  15.949   8.739
 1788POPC   D2A26380  24.191  15.719   8.340
 1788POPC   C3A26381  24.181  15.925   7.953
 1788POPC   C4A26382  24.107  15.993   7.519
 1788POPC   C1B26383  24.527  15.495   8.699
 1788POPC   C2B26384  24.722  15.789   8.449
 1788POPC   C3B26385  24.713  15.876   8.014
 1788POPC   C4B26386  24.490  15.590   7.736
 1789POPC   NC326387  17.207   4.853   9.532
 1789POPC   PO426388  17.852   4.992   9.670
 1789POPC   GL126389  17.644   5.060   9.273
 1789POPC   GL226390  17.575   5.400   9.239
 1789POPC   C1A26391  17.542   5.094   8.817
 1789POPC   D2A26392  17.504   4.900   8.425
 1789POPC   C3A26393  17.450   5.158   8.076
 1789POPC   C4A26394  17.318   4.979   7.709
 1789POPC   C1B26395  17.339   5.551   8.892
 1789POPC   C2B26396  17.265   5.474   8.467
 1789POPC   C3B26397  17.125   5.537   8.034
 1789POPC   C4B26398  17.285   5.457   7.598
 1790POPC   NC326399  16.514  38.275   9.926
 1790POPC   PO426400  16.053  38.601   9.592
 1790POPC   GL126401  15.869  38.593   9.190
 1790POPC   GL226402  15.898  38.231   9.174
 1790POPC   C1A26403  15.976  38.553   8.777
 1790POPC   D2A26404  16.227  38.637   8.415
 1790POPC   C3A26405  16.017  38.561   8.014
 1790POPC   C4A26406  16.193  38.613   7.604
 1790POPC   C1B26407  15.640  38.154   8.789
 1790POPC   C2B26408  15.715  38.353   8.378
 1790POPC   C3B26409  15.650  38.199   7.959
 1790POPC   C4B26410  15.840  38.211   7.534
 1791POPC   NC326411  18.277   5.192   9.652
 1791POPC   PO426412  18.954   5.110   9.677
 1791POPC   GL126413  18.609   4.954   9.321
 1791POPC   GL226414  18.194   4.897   9.270
 1791POPC   C1A26415  18.492   4.992   8.867
 1791POPC   D2A26416  18.241   5.176   8.522
 1791POPC   C3A26417  18.380   4.998   8.126
 1791POPC   C4A26418  18.247   4.816   7.721
 1791POPC   C1B26419  17.988   4.885   8.880
 1791POPC   C2B26420  18.013   4.726   8.439
 1791POPC   C3B26421  17.883   4.912   8.054
 1791POPC   C4B26422  17.791   5.206   7.683
 1792POPC   NC326423  15.322  37.043   9.538
 1792POPC   PO426424  14.637  36.873   9.426
 1792POPC   GL126425  15.035  36.848   9.139
 1792POPC   GL226426  15.374  36.663   9.180
 1792POPC   C1A26427  15.345  37.059   8.832
 1792POPC   D2A26428  15.515  36.955   8.404
 1792POPC   C3A26429  15.192  36.928   8.112
 1792POPC   C4A26430  14.934  37.046   7.753
 1792POPC   C1B26431  15.596  36.592   8.798
 1792POPC   C2B26432  15.545  36.426   8.362
 1792POPC   C3B26433  15.599  36.588   7.956
 1792POPC   C4B26434  15.330  36.736   7.658
 1793POPC   NC326435   2.684  35.971   9.437
 1793POPC   PO426436   3.151  36.415   9.488
 1793POPC   GL126437   2.977  36.280   9.107
 1793POPC   GL226438   3.080  35.927   9.105
 1793POPC   C1A26439   2.671  36.235   8.749
 1793POPC   D2A26440   2.362  36.296   8.403
 1793POPC   C3A26441   2.544  36.350   7.995
 1793POPC   C4A26442   2.557  36.013   7.702
 1793POPC   C1B26443   2.992  35.849   8.667
 1793POPC   C2B26444   2.939  35.994   8.242
 1793POPC   C3B26445   2.981  35.770   7.852
 1793POPC   C4B26446   2.872  35.638   7.428
 1794POPC   NC326447  28.448  39.888   9.354
 1794POPC   PO426448  28.010  40.376   9.544
 1794POPC   GL126449  28.176  40.269   9.132
 1794POPC   GL226450  28.496  40.395   8.991
 1794POPC   C1A26451  28.201  40.070   8.721
 1794POPC   D2A26452  28.350  40.283   8.354
 1794POPC   C3A26453  28.211  40.009   8.031
 1794POPC   C4A26454  28.202  39.800   7.602
 1794POPC   C1B26455  28.720  40.102   8.729
 1794POPC   C2B26456  28.615  39.862   8.378
 1794POPC   C3B26457  28.703  40.016   7.979
 1794POPC   C4B26458  28.702  39.908   7.554
 1795POPC   NC326459  34.183  44.521   9.465
 1795POPC   PO426460  34.671  44.966   9.476
 1795POPC   GL126461  34.627  44.708   9.126
 1795POPC   GL226462  34.560  44.379   9.171
 1795POPC   C1A26463  34.548  44.712   8.696
 1795POPC   D2A26464  34.659  44.718   8.255
 1795POPC   C3A26465  34.345  44.510   7.976
 1795POPC   C4A26466  34.225  44.536   7.543
 1795POPC   C1B26467  34.687  44.197   8.818
 1795POPC   C2B26468  34.798  44.267   8.430
 1795POPC   C3B26469  34.942  44.357   8.036
 1795POPC   C4B26470  34.784  44.668   7.741
 1796POPC   NC326471  35.766  23.814   9.463
 1796POPC   PO426472  35.147  23.462   9.426
 1796POPC   GL126473  35.376  23.706   9.134
 1796POPC   GL226474  35.716  23.590   9.018
 1796POPC   C1A26475  35.305  23.785   8.722
 1796POPC   D2A26476  35.261  23.969   8.347
 1796POPC   C3A26477  35.075  23.690   8.070
 1796POPC   C4A26478  35.052  23.534   7.648
 1796POPC   C1B26479  35.766  23.980   8.755
 1796POPC   C2B26480  35.818  23.872   8.331
 1796POPC   C3B26481  35.564  23.810   7.958
 1796POPC   C4B26482  35.568  23.560   7.578
 1797POPC   NC326483  11.951  23.955   9.588
 1797POPC   PO426484  12.430  23.505   9.622
 1797POPC   GL126485  12.165  23.511   9.259
 1797POPC   GL226486  11.902  23.694   9.129
 1797POPC   C1A26487  12.299  23.534   8.804
 1797POPC   D2A26488  12.116  23.663   8.391
 1797POPC   C3A26489  12.321  23.537   8.012
 1797POPC   C4A26490  12.383  23.717   7.638
 1797POPC   C1B26491  11.739  23.815   8.732
 1797POPC   C2B26492  11.793  24.087   8.371
 1797POPC   C3B26493  11.995  24.009   7.976
 1797POPC   C4B26494  11.866  23.867   7.571
 1798POPC   NC326495  20.635  32.684   9.358
 1798POPC   PO426496  20.665  32.031   9.540
 1798POPC   GL126497  20.590  32.232   9.106
 1798POPC   GL226498  20.305  32.467   9.034
 1798POPC   C1A26499  20.723  32.126   8.678
 1798POPC   D2A26500  20.571  32.103   8.272
 1798POPC   C3A26501  20.660  32.281   7.877
 1798POPC   C4A26502  20.528  32.093   7.489
 1798POPC   C1B26503  20.361  32.457   8.578
 1798POPC   C2B26504  20.196  32.485   8.154
 1798POPC   C3B26505  20.214  32.475   7.713
 1798POPC   C4B26506  20.568  32.587   7.441
 1799POPC   NC326507  43.929  26.418   9.546
 1799POPC   PO426508  43.666  27.025   9.479
 1799POPC   GL126509  43.913  26.826   9.166
 1799POPC   GL226510  43.898  27.136   9.015
 1799POPC   C1A26511  44.014  26.721   8.719
 1799POPC   D2A26512  44.161  26.907   8.318
 1799POPC   C3A26513  43.955  27.108   8.003
 1799POPC   C4A26514  43.775  26.736   7.803
 1799POPC   C1B26515  43.553  26.954   8.766
 1799POPC   C2B26516  43.609  26.835   8.331
 1799POPC   C3B26517  43.448  27.070   7.985
 1799POPC   C4B26518  43.635  27.160   7.581
 1800POPC   NC326519   3.509  13.089   9.473
 1800POPC   PO426520   3.569  12.441   9.541
 1800POPC   GL126521   3.503  12.660   9.146
 1800POPC   GL226522   3.178  12.883   9.146
 1800POPC   C1A26523   3.581  12.465   8.742
 1800POPC   D2A26524   3.782  12.665   8.403
 1800POPC   C3A26525   3.593  12.655   7.974
 1800POPC   C4A26526   3.695  12.635   7.510
 1800POPC   C1B26527   3.318  12.949   8.725
 1800POPC   C2B26528   3.506  13.083   8.313
 1800POPC   C3B26529   3.512  13.144   7.854
 1800POPC   C4B26530   3.147  13.314   7.677
 1801POPC   NC326531   0.310   1.443   9.583
 1801POPC   PO426532   0.417   0.863   9.480
 1801POPC   GL126533   0.300   0.909   9.083
 1801POPC   GL226534   0.096   1.176   9.131
 1801POPC   C1A26535   0.498   0.950   8.665
 1801POPC   D2A26536   0.781   1.100   8.324
 1801POPC   C3A26537   0.676   0.984   7.908
 1801POPC   C4A26538   0.337   1.106   7.703
 1801POPC   C1B26539   0.008   1.457   8.760
 1801POPC   C2B26540   0.127   1.507   8.308
 1801POPC   C3B26541   0.096   1.529   7.852
 1801POPC   C4B26542  44.989   1.693   7.435
 1802POPC   NC326543  31.639  44.620   9.447
 1802POPC   PO426544  30.978  44.656   9.460
 1802POPC   GL126545  31.293  44.498   9.101
 1802POPC   GL226546  31.549  44.224   9.124
 1802POPC   C1A26547  31.335  44.695   8.682
 1802POPC   D2A26548  31.173  44.732   8.222
 1802POPC   C3A26549  31.437  44.833   7.897
 1802POPC   C4A26550  31.833   0.022   7.725
 1802POPC   C1B26551  31.609  44.266   8.694
 1802POPC   C2B26552  31.632  44.506   8.319
 1802POPC   C3B26553  31.794  44.461   7.964
 1802POPC   C4B26554  31.814  44.132   7.664
 1803POPC   NC326555   1.908   8.721   9.528
 1803POPC   PO426556   2.488   8.880   9.582
 1803POPC   GL126557   2.207   8.943   9.177
 1803POPC   GL226558   1.804   9.031   9.139
 1803POPC   C1A26559   2.121   8.898   8.741
 1803POPC   D2A26560   2.145   8.658   8.359
 1803POPC   C3A26561   2.219   8.828   7.964
 1803POPC   C4A26562   2.112   8.821   7.528
 1803POPC   C1B26563   1.676   9.228   8.738
 1803POPC   C2B26564   1.772   9.026   8.346
 1803POPC   C3B26565   1.746   8.999   7.924
 1803POPC   C4B26566   1.848   9.256   7.552
 1804POPC   NC326567   9.273  14.012   9.488
 1804POPC   PO426568   9.204  13.299   9.436
 1804POPC   GL126569   9.103  13.614   9.203
 1804POPC   GL226570   8.769  13.627   9.255
 1804POPC   C1A26571   9.180  13.735   8.818
 1804POPC   D2A26572   9.311  13.585   8.431
 1804POPC   C3A26573   9.231  13.846   8.097
 1804POPC   C4A26574   9.225  13.672   7.710
 1804POPC   C1B26575   8.681  13.660   8.817
 1804POPC   C2B26576   8.773  13.698   8.389
 1804POPC   C3B26577   8.889  13.448   8.068
 1804POPC   C4B26578   8.742  13.476   7.686
 1805POPC   NC326579   6.807   6.337   9.638
 1805POPC   PO426580   6.501   5.718   9.683
 1805POPC   GL126581   6.320   5.987   9.360
 1805POPC   GL226582   6.341   5.718   9.124
 1805POPC   C1A26583   6.400   6.196   8.986
 1805POPC   D2A26584   6.346   5.955   8.606
 1805POPC   C3A26585   6.614   6.060   8.266
 1805POPC   C4A26586   6.471   6.100   7.860
 1805POPC   C1B26587   6.762   5.821   8.931
 1805POPC   C2B26588   7.031   5.645   8.562
 1805POPC   C3B26589   7.096   5.615   8.093
 1805POPC   C4B26590   6.955   5.400   7.719
 1806POPC   NC326591   7.067   8.978   9.656
 1806POPC   PO426592   6.401   9.218   9.687
 1806POPC   GL126593   6.691   9.054   9.277
 1806POPC   GL226594   6.890   9.283   9.068
 1806POPC   C1A26595   6.580   8.967   8.800
 1806POPC   D2A26596   6.710   8.850   8.354
 1806POPC   C3A26597   6.450   8.731   7.983
 1806POPC   C4A26598   6.530   8.825   7.530
 1806POPC   C1B26599   6.707   9.472   8.689
 1806POPC   C2B26600   6.878   9.352   8.285
 1806POPC   C3B26601   6.785   9.118   7.914
 1806POPC   C4B26602   6.732   9.275   7.510
 1807POPC   NC326603   6.278  33.097   9.391
 1807POPC   PO426604   6.814  32.719   9.345
 1807POPC   GL126605   6.822  32.854   8.953
 1807POPC   GL226606   6.468  32.847   8.887
 1807POPC   C1A26607   6.933  33.110   8.605
 1807POPC   D2A26608   6.594  32.988   8.377
 1807POPC   C3A26609   6.705  32.856   7.993
 1807POPC   C4A26610   6.713  32.604   7.641
 1807POPC   C1B26611   6.499  33.309   8.790
 1807POPC   C2B26612   6.423  33.464   8.371
 1807POPC   C3B26613   6.283  33.184   8.021
 1807POPC   C4B26614   6.424  33.032   7.594
 1808POPC   NC326615  39.159  39.445   9.514
 1808POPC   PO426616  38.697  38.904   9.399
 1808POPC   GL126617  38.939  39.264   9.084
 1808POPC   GL226618  39.302  39.460   9.043
 1808POPC   C1A26619  39.037  39.348   8.622
 1808POPC   D2A26620  39.124  38.966   8.379
 1808POPC   C3A26621  39.215  39.016   7.959
 1808POPC   C4A26622  38.977  39.342   7.785
 1808POPC   C1B26623  39.604  39.454   8.707
 1808POPC   C2B26624  39.525  39.329   8.269
 1808POPC   C3B26625  39.477  39.481   7.824
 1808POPC   C4B26626  39.595  39.659   7.400
 1809POPC   NC326627   6.753  29.445   9.558
 1809POPC   PO426628   7.386  29.236   9.453
 1809POPC   GL126629   7.298  29.198   9.067
 1809POPC   GL226630   7.040  29.473   9.128
 1809POPC   C1A26631   7.580  29.222   8.707
 1809POPC   D2A26632   7.509  29.431   8.323
 1809POPC   C3A26633   7.452  29.195   8.013
 1809POPC   C4A26634   7.606  29.269   7.658
 1809POPC   C1B26635   7.198  29.559   8.727
 1809POPC   C2B26636   6.989  29.488   8.350
 1809POPC   C3B26637   7.079  29.519   7.927
 1809POPC   C4B26638   7.178  29.575   7.497
 1810POPC   NC326639   7.996  24.995   9.636
 1810POPC   PO426640   8.354  24.463   9.508
 1810POPC   GL126641   8.212  24.435   9.114
 1810POPC   GL226642   8.089  24.807   9.139
 1810POPC   C1A26643   8.170  24.499   8.690
 1810POPC   D2A26644   8.003  24.724   8.370
 1810POPC   C3A26645   8.125  24.540   7.979
 1810POPC   C4A26646   7.950  24.714   7.629
 1810POPC   C1B26647   8.234  25.025   8.756
 1810POPC   C2B26648   8.491  24.840   8.466
 1810POPC   C3B26649   8.516  24.876   8.038
 1810POPC   C4B26650   8.657  24.616   7.708
 1811POPC   NC326651  38.974  10.225   9.430
 1811POPC   PO426652  38.330  10.222   9.439
 1811POPC   GL126653  38.303  10.481   9.079
 1811POPC   GL226654  38.594  10.696   9.087
 1811POPC   C1A26655  38.365  10.557   8.657
 1811POPC   D2A26656  38.567  10.600   8.286
 1811POPC   C3A26657  38.371  10.438   7.912
 1811POPC   C4A26658  38.242  10.682   7.562
 1811POPC   C1B26659  38.769  10.312   8.817
 1811POPC   C2B26660  38.787  10.134   8.372
 1811POPC   C3B26661  38.889  10.363   7.969
 1811POPC   C4B26662  38.724  10.775   7.818
 1812POPC   NC326663  43.051  29.294   9.526
 1812POPC   PO426664  43.589  29.616   9.454
 1812POPC   GL126665  43.379  29.241   9.154
 1812POPC   GL226666  42.985  29.195   9.047
 1812POPC   C1A26667  43.362  29.059   8.717
 1812POPC   D2A26668  43.271  29.232   8.319
 1812POPC   C3A26669  43.426  29.057   7.928
 1812POPC   C4A26670  43.417  29.354   7.597
 1812POPC   C1B26671  42.890  28.854   8.760
 1812POPC   C2B26672  43.062  28.764   8.348
 1812POPC   C3B26673  42.924  28.894   7.917
 1812POPC   C4B26674  43.071  29.012   7.480
 1813POPC   NC326675  10.766   0.673   9.652
 1813POPC   PO426676  10.116   0.338   9.695
 1813POPC   GL126677  10.338   0.438   9.286
 1813POPC   GL226678  10.660   0.556   9.175
 1813POPC   C1A26679  10.369   0.331   8.842
 1813POPC   D2A26680  10.252   0.433   8.454
 1813POPC   C3A26681  10.464   0.199   8.152
 1813POPC   C4A26682  10.441   0.309   7.720
 1813POPC   C1B26683  10.894   0.297   8.848
 1813POPC   C2B26684  10.935   0.177   8.406
 1813POPC   C3B26685  10.918   0.312   7.950
 1813POPC   C4B26686  10.846   0.053   7.560
 1814POPC   NC326687  14.943  19.905   9.526
 1814POPC   PO426688  15.556  19.739   9.405
 1814POPC   GL126689  15.225  19.765   9.146
 1814POPC   GL226690  15.280  20.130   9.120
 1814POPC   C1A26691  15.079  19.810   8.764
 1814POPC   D2A26692  15.271  19.652   8.398
 1814POPC   C3A26693  15.444  19.837   8.042
 1814POPC   C4A26694  15.297  19.787   7.627
 1814POPC   C1B26695  15.158  20.310   8.712
 1814POPC   C2B26696  15.073  20.129   8.302
 1814POPC   C3B26697  15.093  20.187   7.856
 1814POPC   C4B26698  15.061  20.179   7.391
 1815POPC   NC326699  13.936   9.614   9.468
 1815POPC   PO426700  14.541   9.885   9.389
 1815POPC   GL126701  14.260   9.867   9.063
 1815POPC   GL226702  14.191   9.544   9.049
 1815POPC   C1A26703  14.326   9.977   8.650
 1815POPC   D2A26704  14.168   9.944   8.273
 1815POPC   C3A26705  14.392   9.775   7.937
 1815POPC   C4A26706  14.236   9.854   7.553
 1815POPC   C1B26707  14.396   9.478   8.694
 1815POPC   C2B26708  14.317   9.412   8.311
 1815POPC   C3B26709  14.472   9.241   7.977
 1815POPC   C4B26710  14.271   9.355   7.660
 1816POPC   NC326711   8.657  31.252   9.536
 1816POPC   PO426712   9.135  31.780   9.596
 1816POPC   GL126713   8.810  31.605   9.222
 1816POPC   GL226714   8.872  31.309   9.070
 1816POPC   C1A26715   8.719  31.660   8.753
 1816POPC   D2A26716   8.755  31.922   8.424
 1816POPC   C3A26717   9.015  31.784   8.071
 1816POPC   C4A26718   8.656  31.595   7.903
 1816POPC   C1B26719   8.980  31.182   8.631
 1816POPC   C2B26720   9.128  31.218   8.193
 1816POPC   C3B26721   8.989  31.242   7.753
 1816POPC   C4B26722   9.088  31.275   7.315
 1817POPC   NC326723   9.634  16.538   9.663
 1817POPC   PO426724  10.061  16.968   9.572
 1817POPC   GL126725   9.738  16.866   9.256
 1817POPC   GL226726   9.655  16.522   9.151
 1817POPC   C1A26727   9.633  16.958   8.835
 1817POPC   D2A26728   9.833  16.897   8.464
 1817POPC   C3A26729   9.657  16.958   8.090
 1817POPC   C4A26730   9.812  16.922   7.695
 1817POPC   C1B26731   9.959  16.544   8.792
 1817POPC   C2B26732  10.222  16.595   8.435
 1817POPC   C3B26733  10.015  16.582   8.062
 1817POPC   C4B26734   9.984  16.437   7.663
 1818POPC   NC326735  27.231   4.369   9.578
 1818POPC   PO426736  26.621   4.156   9.501
 1818POPC   GL126737  26.820   4.197   9.118
 1818POPC   GL226738  27.170   4.153   9.116
 1818POPC   C1A26739  26.621   4.255   8.737
 1818POPC   D2A26740  26.486   3.999   8.434
 1818POPC   C3A26741  26.461   4.174   8.021
 1818POPC   C4A26742  26.457   4.578   7.770
 1818POPC   C1B26743  27.117   4.356   8.698
 1818POPC   C2B26744  26.937   4.289   8.270
 1818POPC   C3B26745  26.906   4.307   7.801
 1818POPC   C4B26746  26.938   4.374   7.348
 1819POPC   NC326747  11.384  39.253   9.618
 1819POPC   PO426748  10.877  39.258   9.396
 1819POPC   GL126749  11.223  39.044   9.131
 1819POPC   GL226750  11.585  38.993   9.191
 1819POPC   C1A26751  11.348  38.999   8.664
 1819POPC   D2A26752  11.407  39.274   8.278
 1819POPC   C3A26753  11.265  39.171   7.858
 1819POPC   C4A26754  11.152  39.000   7.433
 1819POPC   C1B26755  11.798  39.172   8.807
 1819POPC   C2B26756  11.900  39.348   8.371
 1819POPC   C3B26757  11.744  39.428   7.904
 1819POPC   C4B26758  11.627  39.198   7.501
 1820POPC   NC326759  27.282  20.460   9.441
 1820POPC   PO426760  27.932  20.704   9.628
 1820POPC   GL126761  27.820  20.515   9.217
 1820POPC   GL226762  27.544  20.338   9.030
 1820POPC   C1A26763  27.919  20.678   8.797
 1820POPC   D2A26764  28.167  20.714   8.407
 1820POPC   C3A26765  27.857  20.646   8.111
 1820POPC   C4A26766  27.682  20.748   7.745
 1820POPC   C1B26767  27.458  20.414   8.597
 1820POPC   C2B26768  27.308  20.591   8.214
 1820POPC   C3B26769  27.231  20.342   7.875
 1820POPC   C4B26770  27.264  19.914   7.849
 1821POPC   NC326771   7.850  27.205   9.556
 1821POPC   PO426772   8.250  27.752   9.524
 1821POPC   GL126773   8.123  27.493   9.185
 1821POPC   GL226774   8.383  27.287   9.160
 1821POPC   C1A26775   7.980  27.513   8.761
 1821POPC   D2A26776   8.101  27.604   8.364
 1821POPC   C3A26777   7.855  27.695   8.004
 1821POPC   C4A26778   7.944  27.551   7.602
 1821POPC   C1B26779   8.499  27.497   8.760
 1821POPC   C2B26780   8.549  27.271   8.393
 1821POPC   C3B26781   8.295  27.272   8.042
 1821POPC   C4B26782   8.348  27.650   7.896
 1822POPC   NC326783  12.360  23.047   9.502
 1822POPC   PO426784  11.695  22.783   9.575
 1822POPC   GL126785  12.009  22.786   9.188
 1822POPC   GL226786  12.136  23.075   9.019
 1822POPC   C1A26787  12.161  22.634   8.792
 1822POPC   D2A26788  12.108  22.948   8.445
 1822POPC   C3A26789  12.135  23.036   8.007
 1822POPC   C4A26790  12.001  22.796   7.641
 1822POPC   C1B26791  11.866  23.312   8.745
 1822POPC   C2B26792  11.744  23.326   8.336
 1822POPC   C3B26793  11.831  23.515   7.961
 1822POPC   C4B26794  12.022  23.351   7.584
 1823POPC   NC326795  42.010  37.985   9.346
 1823POPC   PO426796  41.405  38.110   9.530
 1823POPC   GL126797  41.539  37.838   9.124
 1823POPC   GL226798  41.760  37.978   8.910
 1823POPC   C1A26799  41.562  37.550   8.737
 1823POPC   D2A26800  41.607  37.246   8.409
 1823POPC   C3A26801  41.715  37.466   8.094
 1823POPC   C4A26802  41.570  37.504   7.679
 1823POPC   C1B26803  42.021  38.034   8.603
 1823POPC   C2B26804  41.789  38.090   8.240
 1823POPC   C3B26805  41.907  38.133   7.831
 1823POPC   C4B26806  41.703  37.969   7.521
 1824POPC   NC326807  11.646   8.821   9.529
 1824POPC   PO426808  10.946   8.646   9.452
 1824POPC   GL126809  11.231   8.920   9.139
 1824POPC   GL226810  11.563   8.922   9.026
 1824POPC   C1A26811  11.182   8.895   8.681
 1824POPC   D2A26812  11.246   9.083   8.300
 1824POPC   C3A26813  11.356   8.923   7.907
 1824POPC   C4A26814  11.136   8.918   7.521
 1824POPC   C1B26815  11.555   8.555   8.770
 1824POPC   C2B26816  11.441   8.570   8.360
 1824POPC   C3B26817  11.453   8.403   7.968
 1824POPC   C4B26818  11.487   8.574   7.552
 1825POPC   NC326819  20.817   2.403   9.429
 1825POPC   PO426820  20.312   2.733   9.485
 1825POPC   GL126821  20.444   2.758   9.070
 1825POPC   GL226822  20.541   2.426   8.992
 1825POPC   C1A26823  20.528   2.780   8.634
 1825POPC   D2A26824  20.543   2.517   8.265
 1825POPC   C3A26825  20.654   2.792   7.928
 1825POPC   C4A26826  20.443   2.777   7.543
 1825POPC   C1B26827  20.873   2.273   8.713
 1825POPC   C2B26828  20.984   2.235   8.286
 1825POPC   C3B26829  20.879   2.365   7.821
 1825POPC   C4B26830  20.992   2.405   7.364
 1826POPC   NC326831  31.948  18.663   9.547
 1826POPC   PO426832  32.396  18.123   9.400
 1826POPC   GL126833  32.029  18.326   9.163
 1826POPC   GL226834  32.182  18.621   9.048
 1826POPC   C1A26835  31.848  18.397   8.735
 1826POPC   D2A26836  32.064  18.590   8.433
 1826POPC   C3A26837  31.900  18.522   8.037
 1826POPC   C4A26838  31.995  18.398   7.632
 1826POPC   C1B26839  32.339  18.256   8.756
 1826POPC   C2B26840  32.353  18.139   8.330
 1826POPC   C3B26841  32.640  18.363   8.071
 1826POPC   C4B26842  32.517  18.482   7.675
 1827POPC   NC326843  25.218  28.929   9.532
 1827POPC   PO426844  25.531  29.509   9.434
 1827POPC   GL126845  25.299  29.230   9.143
 1827POPC   GL226846  25.428  28.846   9.068
 1827POPC   C1A26847  25.046  29.052   8.781
 1827POPC   D2A26848  25.226  28.931   8.375
 1827POPC   C3A26849  25.187  29.213   8.007
 1827POPC   C4A26850  24.795  29.363   7.805
 1827POPC   C1B26851  25.550  29.127   8.736
 1827POPC   C2B26852  25.718  29.078   8.370
 1827POPC   C3B26853  25.603  28.882   8.033
 1827POPC   C4B26854  25.536  29.047   7.664
 1828POPC   NC326855  39.284  20.910   9.536
 1828POPC   PO426856  39.292  21.513   9.598
 1828POPC   GL126857  39.321  21.316   9.194
 1828POPC   GL226858  39.076  21.134   9.107
 1828POPC   C1A26859  39.414  21.276   8.732
 1828POPC   D2A26860  39.392  21.562   8.369
 1828POPC   C3A26861  39.397  21.445   7.921
 1828POPC   C4A26862  39.371  21.684   7.533
 1828POPC   C1B26863  38.952  21.498   8.875
 1828POPC   C2B26864  38.892  21.425   8.455
 1828POPC   C3B26865  38.950  21.628   8.078
 1828POPC   C4B26866  38.907  21.533   7.696
 1829POPC   NC326867  34.466  26.710   9.495
 1829POPC   PO426868  34.922  27.238   9.374
 1829POPC   GL126869  34.686  26.928   9.111
 1829POPC   GL226870  34.339  27.011   8.987
 1829POPC   C1A26871  34.639  26.579   8.787
 1829POPC   D2A26872  34.617  26.299   8.385
 1829POPC   C3A26873  34.455  26.477   7.972
 1829POPC   C4A26874  34.696  26.637   7.601
 1829POPC   C1B26875  34.671  27.088   8.635
 1829POPC   C2B26876  34.804  27.201   8.233
 1829POPC   C3B26877  34.551  26.990   7.946
 1829POPC   C4B26878  34.119  26.990   7.831
 1830POPC   NC326879  41.231  44.241   9.553
 1830POPC   PO426880  41.764  43.754   9.458
 1830POPC   GL126881  41.545  43.851   9.100
 1830POPC   GL226882  41.473  44.211   9.091
 1830POPC   C1A26883  41.566  43.611   8.717
 1830POPC   D2A26884  41.681  43.518   8.273
 1830POPC   C3A26885  41.465  43.682   7.892
 1830POPC   C4A26886  41.603  43.587   7.456
 1830POPC   C1B26887  41.450  44.329   8.670
 1830POPC   C2B26888  41.166  44.327   8.341
 1830POPC   C3B26889  41.334  44.186   7.983
 1830POPC   C4B26890  41.751  44.306   7.802
 1831POPC   NC326891  21.017  44.492   9.347
 1831POPC   PO426892  21.508  44.704   9.777
 1831POPC   GL126893  21.524  44.619   9.236
 1831POPC   GL226894  21.402  44.262   9.083
 1831POPC   C1A26895  21.498  44.573   8.711
 1831POPC   D2A26896  21.690  44.487   8.289
 1831POPC   C3A26897  21.453  44.650   7.958
 1831POPC   C4A26898  21.365  44.918   7.578
 1831POPC   C1B26899  21.098  44.258   8.743
 1831POPC   C2B26900  21.163  44.410   8.325
 1831POPC   C3B26901  21.026  44.330   7.903
 1831POPC   C4B26902  21.264  44.421   7.550
 1832POPC   NC326903   2.397  12.080   9.527
 1832POPC   PO426904   2.907  11.695   9.467
 1832POPC   GL126905   2.653  11.873   9.148
 1832POPC   GL226906   2.721  12.230   9.128
 1832POPC   C1A26907   2.526  11.960   8.742
 1832POPC   D2A26908   2.766  12.147   8.433
 1832POPC   C3A26909   2.573  12.012   8.065
 1832POPC   C4A26910   2.714  11.735   7.721
 1832POPC   C1B26911   3.093  12.411   8.885
 1832POPC   C2B26912   3.214  12.549   8.421
 1832POPC   C3B26913   3.137  12.386   8.022
 1832POPC   C4B26914   2.739  12.403   7.799
 1833POPC   NC326915  25.743  40.454   9.628
 1833POPC   PO426916  25.031  40.583   9.536
 1833POPC   GL126917  25.303  40.754   9.258
 1833POPC   GL226918  25.515  40.506   9.178
 1833POPC   C1A26919  25.373  40.870   8.857
 1833POPC   D2A26920  25.467  40.847   8.426
 1833POPC   C3A26921  25.281  41.053   8.091
 1833POPC   C4A26922  25.059  40.817   7.781
 1833POPC   C1B26923  25.443  40.330   8.777
 1833POPC   C2B26924  25.613  40.357   8.359
 1833POPC   C3B26925  25.608  40.597   7.948
 1833POPC   C4B26926  25.545  40.950   7.654
 1834POPC   NC326927  34.943   7.052   9.711
 1834POPC   PO426928  35.281   7.495   9.354
 1834POPC   GL126929  35.416   7.512   8.980
 1834POPC   GL226930  35.500   7.184   8.941
 1834POPC   C1A26931  35.375   7.671   8.594
 1834POPC   D2A26932  35.349   7.444   8.198
 1834POPC   C3A26933  35.259   7.689   7.806
 1834POPC   C4A26934  35.486   7.983   7.573
 1834POPC   C1B26935  35.144   7.223   8.651
 1834POPC   C2B26936  34.912   7.163   8.269
 1834POPC   C3B26937  35.022   7.242   7.838
 1834POPC   C4B26938  35.183   7.254   7.410
 1835POPC   NC326939   6.002  33.950   9.612
 1835POPC   PO426940   5.871  33.313   9.437
 1835POPC   GL126941   5.860  33.687   9.211
 1835POPC   GL226942   5.689  33.504   8.947
 1835POPC   C1A26943   5.809  34.009   8.881
 1835POPC   D2A26944   5.623  33.872   8.469
 1835POPC   C3A26945   5.689  34.039   8.048
 1835POPC   C4A26946   5.888  33.965   7.675
 1835POPC   C1B26947   6.074  33.602   8.751
 1835POPC   C2B26948   6.129  33.895   8.424
 1835POPC   C3B26949   6.155  33.733   8.026
 1835POPC   C4B26950   6.127  33.477   7.644
 1836POPC   NC326951   6.559  43.394   9.494
 1836POPC   PO426952   6.305  42.729   9.480
 1836POPC   GL126953   6.548  42.992   9.179
 1836POPC   GL226954   6.897  43.120   9.216
 1836POPC   C1A26955   6.502  43.264   8.813
 1836POPC   D2A26956   6.659  43.410   8.411
 1836POPC   C3A26957   6.491  43.267   8.020
 1836POPC   C4A26958   6.208  43.200   7.691
 1836POPC   C1B26959   7.016  43.327   8.844
 1836POPC   C2B26960   7.112  43.160   8.458
 1836POPC   C3B26961   7.048  43.010   8.042
 1836POPC   C4B26962   6.892  43.161   7.681
 1837POPC   NC326963  36.301  22.029   9.535
 1837POPC   PO426964  36.602  22.632   9.570
 1837POPC   GL126965  36.351  22.436   9.202
 1837POPC   GL226966  36.018  22.282   9.172
 1837POPC   C1A26967  36.328  22.270   8.776
 1837POPC   D2A26968  36.193  22.037   8.433
 1837POPC   C3A26969  36.062  22.236   8.076
 1837POPC   C4A26970  36.299  22.349   7.711
 1837POPC   C1B26971  35.889  21.948   8.833
 1837POPC   C2B26972  35.690  21.981   8.418
 1837POPC   C3B26973  35.887  21.764   8.073
 1837POPC   C4B26974  36.159  21.863   7.723
 1838POPC   NC326975  28.709   8.118   9.532
 1838POPC   PO426976  28.183   8.449   9.651
 1838POPC   GL126977  28.354   8.186   9.181
 1838POPC   GL226978  28.599   7.939   9.068
 1838POPC   C1A26979  28.503   8.294   8.725
 1838POPC   D2A26980  28.552   8.085   8.333
 1838POPC   C3A26981  28.514   8.357   7.996
 1838POPC   C4A26982  28.130   8.613   7.907
 1838POPC   C1B26983  28.309   7.795   8.730
 1838POPC   C2B26984  28.107   7.814   8.309
 1838POPC   C3B26985  28.053   8.059   7.939
 1838POPC   C4B26986  28.323   7.937   7.619
 1839POPC   NC326987  44.064  10.441   9.607
 1839POPC   PO426988  43.393  10.217   9.515
 1839POPC   GL126989  43.719  10.361   9.164
 1839POPC   GL226990  44.089  10.480   9.122
 1839POPC   C1A26991  43.932  10.162   8.768
 1839POPC   D2A26992  44.151  10.323   8.386
 1839POPC   C3A26993  43.798  10.409   8.139
 1839POPC   C4A26994  43.638  10.544   7.753
 1839POPC   C1B26995  44.035  10.673   8.746
 1839POPC   C2B26996  43.992  10.842   8.354
 1839POPC   C3B26997  44.101  10.783   7.946
 1839POPC   C4B26998  44.015  10.766   7.512
 1840POPC   NC326999   8.687  16.482   9.349
 1840POPC   PO427000   8.826  15.872   9.552
 1840POPC   GL127001   9.043  15.767   9.212
 1840POPC   GL227002   8.794  16.034   9.053
 1840POPC   C1A27003   9.201  15.883   8.814
 1840POPC   D2A27004   8.970  15.981   8.459
 1840POPC   C3A27005   9.251  16.087   8.141
 1840POPC   C4A27006   9.387  15.818   7.810
 1840POPC   C1B27007   8.591  16.273   8.701
 1840POPC   C2B27008   8.526  16.161   8.252
 1840POPC   C3B27009   8.739  15.900   7.954
 1840POPC   C4B27010   8.995  16.152   7.702
 1841POPC   NC327011  32.870  36.910   9.622
 1841POPC   PO427012  33.522  36.893   9.475
 1841POPC   GL127013  33.138  37.071   9.196
 1841POPC   GL227014  32.748  36.944   9.150
 1841POPC   C1A27015  33.031  36.960   8.757
 1841POPC   D2A27016  32.905  37.114   8.361
 1841POPC   C3A27017  33.125  36.824   8.063
 1841POPC   C4A27018  33.288  36.958   7.668
 1841POPC   C1B27019  32.528  36.930   8.759
 1841POPC   C2B27020  32.523  36.768   8.349
 1841POPC   C3B27021  32.647  36.869   7.911
 1841POPC   C4B27022  32.818  36.985   7.475
 1842POPC   NC327023  17.581  10.883   9.570
 1842POPC   PO427024  17.619  11.486   9.649
 1842POPC   GL127025  17.344  11.402   9.261
 1842POPC   GL227026  17.431  11.086   9.118
 1842POPC   C1A27027  17.356  11.433   8.773
 1842POPC   D2A27028  17.528  11.181   8.432
 1842POPC   C3A27029  17.436  11.246   7.973
 1842POPC   C4A27030  17.623  11.375   7.579
 1842POPC   C1B27031  17.606  10.807   8.807
 1842POPC   C2B27032  17.869  10.753   8.447
 1842POPC   C3B27033  17.883  11.012   8.088
 1842POPC   C4B27034  17.698  10.878   7.721
 1843POPC   NC327035  43.733  41.905   9.676
 1843POPC   PO427036  43.983  42.510   9.619
 1843POPC   GL127037  44.014  42.364   9.197
 1843POPC   GL227038  44.036  42.001   9.232
 1843POPC   C1A27039  43.955  42.463   8.760
 1843POPC   D2A27040  43.817  42.596   8.355
 1843POPC   C3A27041  43.760  42.334   8.001
 1843POPC   C4A27042  43.791  42.372   7.588
 1843POPC   C1B27043  43.788  41.954   8.846
 1843POPC   C2B27044  43.849  42.084   8.436
 1843POPC   C3B27045  44.117  41.982   8.104
 1843POPC   C4B27046  44.085  41.953   7.724
 1844POPC   NC327047  23.820  30.299   9.512
 1844POPC   PO427048  23.412  29.716   9.535
 1844POPC   GL127049  23.502  29.893   9.062
 1844POPC   GL227050  23.807  30.078   9.052
 1844POPC   C1A27051  23.525  30.108   8.633
 1844POPC   D2A27052  23.674  30.255   8.230
 1844POPC   C3A27053  23.597  29.921   7.901
 1844POPC   C4A27054  23.496  29.893   7.466
 1844POPC   C1B27055  23.946  29.824   8.728
 1844POPC   C2B27056  23.869  29.773   8.314
 1844POPC   C3B27057  24.093  29.736   7.914
 1844POPC   C4B27058  24.008  29.905   7.469
 1845POPC   NC327059  27.552  40.282   9.560
 1845POPC   PO427060  27.169  39.728   9.609
 1845POPC   GL127061  27.130  39.843   9.200
 1845POPC   GL227062  27.302  40.173   9.130
 1845POPC   C1A27063  27.304  39.747   8.823
 1845POPC   D2A27064  27.582  39.848   8.534
 1845POPC   C3A27065  27.479  39.918   8.126
 1845POPC   C4A27066  27.762  40.068   7.831
 1845POPC   C1B27067  27.704  40.246   8.843
 1845POPC   C2B27068  27.846  40.239   8.381
 1845POPC   C3B27069  27.983  40.479   8.041
 1845POPC   C4B27070  27.853  40.547   7.640
 1846POPC   NC327071  15.849   6.369   9.552
 1846POPC   PO427072  15.774   7.051   9.476
 1846POPC   GL127073  15.839   6.699   9.159
 1846POPC   GL227074  16.172   6.540   9.167
 1846POPC   C1A27075  15.857   6.623   8.709
 1846POPC   D2A27076  16.035   6.770   8.324
 1846POPC   C3A27077  15.769   6.732   7.942
 1846POPC   C4A27078  15.869   6.563   7.517
 1846POPC   C1B27079  16.311   6.386   8.764
 1846POPC   C2B27080  16.181   6.241   8.338
 1846POPC   C3B27081  16.214   6.478   7.939
 1846POPC   C4B27082  16.369   6.385   7.528
 1847POPC   NC327083  26.364  11.787   9.505
 1847POPC   PO427084  25.949  12.348   9.412
 1847POPC   GL127085  26.027  11.996   9.166
 1847POPC   GL227086  25.831  11.660   9.220
 1847POPC   C1A27087  26.065  12.127   8.749
 1847POPC   D2A27088  25.758  12.321   8.511
 1847POPC   C3A27089  25.906  12.265   8.106
 1847POPC   C4A27090  26.204  12.172   7.790
 1847POPC   C1B27091  26.143  11.615   8.853
 1847POPC   C2B27092  26.263  11.760   8.442
 1847POPC   C3B27093  26.055  11.755   8.054
 1847POPC   C4B27094  26.069  11.674   7.642
 1848POPC   NC327095  13.734  35.935   9.450
 1848POPC   PO427096  14.120  36.424   9.409
 1848POPC   GL127097  13.805  36.261   9.059
 1848POPC   GL227098  13.454  36.271   9.158
 1848POPC   C1A27099  13.693  36.143   8.616
 1848POPC   D2A27100  13.941  36.047   8.217
 1848POPC   C3A27101  13.865  36.317   7.858
 1848POPC   C4A27102  13.924  36.266   7.425
 1848POPC   C1B27103  13.188  36.282   8.804
 1848POPC   C2B27104  13.306  36.417   8.405
 1848POPC   C3B27105  13.455  36.169   8.101
 1848POPC   C4B27106  13.383  36.022   7.702
 1849POPC   NC327107  13.444  12.475   9.446
 1849POPC   PO427108  13.907  13.041   9.430
 1849POPC   GL127109  13.806  12.924   9.101
 1849POPC   GL227110  13.481  12.912   9.166
 1849POPC   C1A27111  13.839  13.103   8.712
 1849POPC   D2A27112  13.775  12.962   8.328
 1849POPC   C3A27113  13.923  13.194   8.017
 1849POPC   C4A27114  13.719  13.119   7.660
 1849POPC   C1B27115  13.523  12.699   8.757
 1849POPC   C2B27116  13.299  12.789   8.387
 1849POPC   C3B27117  13.409  12.814   7.968
 1849POPC   C4B27118  13.177  12.565   7.708
 1850POPC   NC327119  12.688   4.715   9.557
 1850POPC   PO427120  13.048   5.315   9.655
 1850POPC   GL127121  12.919   5.249   9.220
 1850POPC   GL227122  12.565   5.112   9.218
 1850POPC   C1A27123  13.082   5.361   8.826
 1850POPC   D2A27124  13.068   5.144   8.424
 1850POPC   C3A27125  12.866   5.317   8.058
 1850POPC   C4A27126  13.142   5.273   7.702
 1850POPC   C1B27127  12.666   5.094   8.763
 1850POPC   C2B27128  12.555   4.982   8.331
 1850POPC   C3B27129  12.604   4.895   7.870
 1850POPC   C4B27130  12.443   4.958   7.407
 1851POPC   NC327131  19.998   3.069   9.507
 1851POPC   PO427132  19.527   2.565   9.528
 1851POPC   GL127133  19.437   2.596   9.114
 1851POPC   GL227134  19.655   2.872   9.098
 1851POPC   C1A27135  19.573   2.587   8.672
 1851POPC   D2A27136  19.671   2.947   8.431
 1851POPC   C3A27137  19.633   2.890   8.025
 1851POPC   C4A27138  19.633   3.109   7.666
 1851POPC   C1B27139  20.017   2.983   8.841
 1851POPC   C2B27140  20.160   3.094   8.436
 1851POPC   C3B27141  20.171   2.923   8.034
 1851POPC   C4B27142  20.145   3.169   7.646
 1852POPC   NC327143  38.422  20.508   9.844
 1852POPC   PO427144  38.828  20.841   9.420
 1852POPC   GL127145  38.714  20.672   9.068
 1852POPC   GL227146  38.362  20.733   9.088
 1852POPC   C1A27147  38.793  20.519   8.617
 1852POPC   D2A27148  38.957  20.701   8.231
 1852POPC   C3A27149  38.631  20.689   7.905
 1852POPC   C4A27150  38.529  20.479   7.523
 1852POPC   C1B27151  38.419  20.295   8.898
 1852POPC   C2B27152  38.382  20.236   8.445
 1852POPC   C3B27153  38.183  20.446   8.090
 1852POPC   C4B27154  38.116  20.255   7.700
 1853POPC   NC327155  41.531  11.063   9.601
 1853POPC   PO427156  41.533  11.619   9.553
 1853POPC   GL127157  41.536  11.336   9.163
 1853POPC   GL227158  41.351  11.012   9.132
 1853POPC   C1A27159  41.609  11.229   8.719
 1853POPC   D2A27160  41.454  11.342   8.305
 1853POPC   C3A27161  41.708  11.177   7.964
 1853POPC   C4A27162  42.139  11.270   7.796
 1853POPC   C1B27163  41.324  10.800   8.741
 1853POPC   C2B27164  41.458  10.831   8.324
 1853POPC   C3B27165  41.238  10.978   7.958
 1853POPC   C4B27166  41.280  11.041   7.513
 1854POPC   NC327167  41.009  27.397   9.506
 1854POPC   PO427168  40.580  28.029   9.611
 1854POPC   GL127169  40.585  27.898   9.147
 1854POPC   GL227170  40.884  27.683   9.108
 1854POPC   C1A27171  40.601  27.702   8.706
 1854POPC   D2A27172  40.506  27.882   8.301
 1854POPC   C3A27173  40.746  27.775   7.938
 1854POPC   C4A27174  40.530  27.754   7.558
 1854POPC   C1B27175  41.026  27.400   8.774
 1854POPC   C2B27176  40.998  27.534   8.343
 1854POPC   C3B27177  40.995  27.297   7.964
 1854POPC   C4B27178  40.667  27.061   7.742
 1855POPC   NC327179  12.543  22.064   9.460
 1855POPC   PO427180  13.236  22.162   9.415
 1855POPC   GL127181  12.986  22.010   9.099
 1855POPC   GL227182  12.761  22.287   9.069
 1855POPC   C1A27183  12.913  21.998   8.652
 1855POPC   D2A27184  12.704  22.098   8.267
 1855POPC   C3A27185  12.929  21.943   7.909
 1855POPC   C4A27186  12.817  21.897   7.470
 1855POPC   C1B27187  12.808  22.489   8.687
 1855POPC   C2B27188  12.959  22.564   8.313
 1855POPC   C3B27189  12.794  22.479   7.917
 1855POPC   C4B27190  12.513  22.763   7.694
 1856POPC   NC327191  34.794  23.136   9.385
 1856POPC   PO427192  34.270  22.675   9.466
 1856POPC   GL127193  34.494  22.740   9.121
 1856POPC   GL227194  34.387  23.074   9.031
 1856POPC   C1A27195  34.372  22.688   8.701
 1856POPC   D2A27196  34.324  23.024   8.424
 1856POPC   C3A27197  34.481  22.859   8.050
 1856POPC   C4A27198  34.419  22.904   7.638
 1856POPC   C1B27199  34.760  23.052   8.748
 1856POPC   C2B27200  34.945  23.347   8.456
 1856POPC   C3B27201  34.826  23.251   8.040
 1856POPC   C4B27202  34.910  23.042   7.662
 1857POPC   NC327203  28.155   6.540   9.591
 1857POPC   PO427204  28.476   7.012   9.337
 1857POPC   GL127205  28.472   6.645   9.061
 1857POPC   GL227206  28.238   6.361   9.134
 1857POPC   C1A27207  28.426   6.680   8.610
 1857POPC   D2A27208  28.414   6.916   8.234
 1857POPC   C3A27209  28.465   6.637   7.918
 1857POPC   C4A27210  28.633   6.253   8.079
 1857POPC   C1B27211  28.273   6.202   8.737
 1857POPC   C2B27212  28.093   6.358   8.361
 1857POPC   C3B27213  28.089   6.269   7.944
 1857POPC   C4B27214  28.160   6.456   7.557
 1858POPC   NC327215  10.838   5.814   9.622
 1858POPC   PO427216  11.540   5.877   9.531
 1858POPC   GL127217  11.250   5.997   9.223
 1858POPC   GL227218  10.910   6.164   9.271
 1858POPC   C1A27219  11.308   6.033   8.790
 1858POPC   D2A27220  11.344   5.729   8.477
 1858POPC   C3A27221  11.597   5.858   8.104
 1858POPC   C4A27222  11.458   5.858   7.681
 1858POPC   C1B27223  10.793   6.057   8.823
 1858POPC   C2B27224  10.952   6.087   8.403
 1858POPC   C3B27225  11.092   5.968   8.024
 1858POPC   C4B27226  10.922   6.123   7.659
 1859POPC   NC327227  14.863  11.111   9.346
 1859POPC   PO427228  15.521  11.378   9.421
 1859POPC   GL127229  15.255  11.303   9.060
 1859POPC   GL227230  15.298  10.948   9.032
 1859POPC   C1A27231  15.113  11.252   8.605
 1859POPC   D2A27232  14.865  11.300   8.204
 1859POPC   C3A27233  15.125  11.250   7.823
 1859POPC   C4A27234  15.527  11.029   7.750
 1859POPC   C1B27235  14.938  10.786   8.785
 1859POPC   C2B27236  14.795  10.714   8.364
 1859POPC   C3B27237  14.727  10.868   7.935
 1859POPC   C4B27238  14.691  11.106   7.559
 1860POPC   NC327239  14.047  26.960   9.301
 1860POPC   PO427240  14.706  27.001   9.501
 1860POPC   GL127241  14.487  26.772   9.141
 1860POPC   GL227242  14.522  26.414   9.237
 1860POPC   C1A27243  14.341  26.876   8.707
 1860POPC   D2A27244  14.136  26.998   8.334
 1860POPC   C3A27245  14.380  26.886   8.016
 1860POPC   C4A27246  14.385  27.079   7.574
 1860POPC   C1B27247  14.322  26.374   8.825
 1860POPC   C2B27248  14.440  26.443   8.390
 1860POPC   C3B27249  14.305  26.374   7.968
 1860POPC   C4B27250  14.469  26.584   7.635
 1861POPC   NC327251  10.926  17.801   9.316
 1861POPC   PO427252  10.965  17.162   9.524
 1861POPC   GL127253  11.261  17.269   9.191
 1861POPC   GL227254  11.492  17.530   9.331
 1861POPC   C1A27255  11.491  17.278   8.791
 1861POPC   D2A27256  11.307  17.400   8.387
 1861POPC   C3A27257  11.480  17.321   7.991
 1861POPC   C4A27258  11.310  17.504   7.628
 1861POPC   C1B27259  11.483  17.766   8.949
 1861POPC   C2B27260  11.572  17.807   8.512
 1861POPC   C3B27261  11.368  17.830   8.104
 1861POPC   C4B27262  11.465  17.980   7.721
 1862POPC   NC327263  32.481  21.143   9.775
 1862POPC   PO427264  32.158  21.692   9.497
 1862POPC   GL127265  32.361  21.425   9.172
 1862POPC   GL227266  32.195  21.103   9.103
 1862POPC   C1A27267  32.342  21.433   8.713
 1862POPC   D2A27268  32.107  21.625   8.356
 1862POPC   C3A27269  32.303  21.672   7.946
 1862POPC   C4A27270  32.162  21.711   7.520
 1862POPC   C1B27271  31.911  20.919   8.766
 1862POPC   C2B27272  31.956  20.842   8.327
 1862POPC   C3B27273  32.230  21.144   8.094
 1862POPC   C4B27274  32.360  21.212   7.648
 1863POPC   NC327275   4.184  17.139   9.566
 1863POPC   PO427276   4.069  16.493   9.520
 1863POPC   GL127277   4.075  16.791   9.196
 1863POPC   GL227278   3.967  17.124   9.103
 1863POPC   C1A27279   4.416  16.905   8.928
 1863POPC   D2A27280   4.454  16.707   8.540
 1863POPC   C3A27281   4.555  16.841   8.140
 1863POPC   C4A27282   4.260  16.855   7.801
 1863POPC   C1B27283   4.013  17.062   8.667
 1863POPC   C2B27284   4.049  16.950   8.256
 1863POPC   C3B27285   3.888  17.180   7.874
 1863POPC   C4B27286   3.943  17.024   7.446
 1864POPC   NC327287  44.641  11.907   9.539
 1864POPC   PO427288  44.294  12.495   9.589
 1864POPC   GL127289  44.595  12.308   9.183
 1864POPC   GL227290  44.716  11.943   9.068
 1864POPC   C1A27291  44.699  12.268   8.700
 1864POPC   D2A27292  44.676  12.393   8.278
 1864POPC   C3A27293  44.717  12.260   7.863
 1864POPC   C4A27294  44.665  12.327   7.426
 1864POPC   C1B27295  44.565  11.775   8.727
 1864POPC   C2B27296  44.714  11.856   8.340
 1864POPC   C3B27297  44.601  11.763   7.952
 1864POPC   C4B27298  44.796  11.845   7.576
 1865POPC   NC327299  36.644   8.835   9.392
 1865POPC   PO427300  37.297   8.957   9.342
 1865POPC   GL127301  37.090   9.079   9.022
 1865POPC   GL227302  36.728   9.222   9.054
 1865POPC   C1A27303  37.192   8.923   8.619
 1865POPC   D2A27304  36.926   9.183   8.325
 1865POPC   C3A27305  36.968   9.034   7.901
 1865POPC   C4A27306  36.861   8.950   7.462
 1865POPC   C1B27307  36.710   8.904   8.713
 1865POPC   C2B27308  36.697   8.528   8.466
 1865POPC   C3B27309  36.653   8.623   8.032
 1865POPC   C4B27310  36.549   8.580   7.612
 1866POPC   NC327311   0.575  13.924   9.341
 1866POPC   PO427312   0.455  14.590   9.466
 1866POPC   GL127313   0.385  14.349   9.102
 1866POPC   GL227314   0.521  14.586   8.851
 1866POPC   C1A27315   0.308  14.094   8.742
 1866POPC   D2A27316   0.408  14.259   8.381
 1866POPC   C3A27317   0.215  14.330   8.002
 1866POPC   C4A27318   0.436  14.650   7.815
 1866POPC   C1B27319   0.797  14.219   8.771
 1866POPC   C2B27320   0.898  14.104   8.387
 1866POPC   C3B27321   0.773  14.271   8.032
 1866POPC   C4B27322   0.536  13.963   7.835
 1867POPC   NC327323  36.326  24.798   9.413
 1867POPC   PO427324  36.057  24.165   9.430
 1867POPC   GL127325  36.156  24.411   9.082
 1867POPC   GL227326  35.891  24.662   9.102
 1867POPC   C1A27327  36.028  24.427   8.648
 1867POPC   D2A27328  35.952  24.715   8.340
 1867POPC   C3A27329  35.960  24.534   7.943
 1867POPC   C4A27330  36.359  24.345   7.748
 1867POPC   C1B27331  36.113  24.897   8.798
 1867POPC   C2B27332  36.427  24.915   8.487
 1867POPC   C3B27333  36.433  24.694   8.101
 1867POPC   C4B27334  36.276  24.829   7.673
 1868POPC   NC327335  35.337  31.896   9.438
 1868POPC   PO427336  35.251  32.559   9.357
 1868POPC   GL127337  35.509  32.559   9.027
 1868POPC   GL227338  35.599  32.226   9.097
 1868POPC   C1A27339  35.573  32.403   8.628
 1868POPC   D2A27340  35.288  32.177   8.397
 1868POPC   C3A27341  35.386  32.346   8.016
 1868POPC   C4A27342  35.469  32.228   7.614
 1868POPC   C1B27343  35.454  31.907   8.811
 1868POPC   C2B27344  35.546  31.726   8.413
 1868POPC   C3B27345  35.417  31.822   7.975
 1868POPC   C4B27346  35.310  31.754   7.519
 1869POPC   NC327347   0.011   9.364   9.496
 1869POPC   PO427348   0.660   9.097   9.463
 1869POPC   GL127349   0.371   9.135   9.168
 1869POPC   GL227350   0.405   8.794   9.062
 1869POPC   C1A27351   0.441   9.251   8.756
 1869POPC   D2A27352   0.672   9.079   8.406
 1869POPC   C3A27353   0.363   9.119   8.075
 1869POPC   C4A27354   0.460   9.210   7.656
 1869POPC   C1B27355   0.328   8.753   8.644
 1869POPC   C2B27356   0.414   8.642   8.253
 1869POPC   C3B27357   0.394   8.672   7.809
 1869POPC   C4B27358   0.285   8.585   7.362
 1870POPC   NC327359  25.084  18.084   9.527
 1870POPC   PO427360  25.514  18.547   9.555
 1870POPC   GL127361  25.254  18.469   9.194
 1870POPC   GL227362  25.243  18.117   9.058
 1870POPC   C1A27363  25.258  18.572   8.783
 1870POPC   D2A27364  25.185  18.354   8.424
 1870POPC   C3A27365  25.306  18.540   8.036
 1870POPC   C4A27366  25.343  18.419   7.648
 1870POPC   C1B27367  25.023  17.929   8.708
 1870POPC   C2B27368  24.849  17.994   8.298
 1870POPC   C3B27369  25.113  18.056   7.932
 1870POPC   C4B27370  25.053  18.014   7.469
 1871POPC   NC327371  12.585  27.066   9.522
 1871POPC   PO427372  12.847  27.625   9.515
 1871POPC   GL127373  12.905  27.751   9.116
 1871POPC   GL227374  12.533  27.777   9.034
 1871POPC   C1A27375  12.963  27.619   8.723
 1871POPC   D2A27376  12.699  27.516   8.434
 1871POPC   C3A27377  12.819  27.663   8.037
 1871POPC   C4A27378  12.613  27.854   7.673
 1871POPC   C1B27379  12.594  27.329   8.909
 1871POPC   C2B27380  12.626  27.004   8.587
 1871POPC   C3B27381  12.662  27.117   8.133
 1871POPC   C4B27382  12.544  27.345   7.750
 1872POPC   NC327383  18.579  26.025   9.434
 1872POPC   PO427384  19.187  25.618   9.498
 1872POPC   GL127385  18.979  25.880   9.142
 1872POPC   GL227386  18.953  26.192   9.121
 1872POPC   C1A27387  19.263  26.031   8.780
 1872POPC   D2A27388  19.435  26.242   8.416
 1872POPC   C3A27389  19.368  26.031   8.001
 1872POPC   C4A27390  19.230  26.143   7.571
 1872POPC   C1B27391  18.727  26.199   8.759
 1872POPC   C2B27392  18.915  26.146   8.391
 1872POPC   C3B27393  18.864  26.207   7.982
 1872POPC   C4B27394  18.846  25.846   7.740
 1873POPC   NC327395  44.070  22.974   9.539
 1873POPC   PO427396  43.544  23.223   9.850
 1873POPC   GL127397  43.673  23.089   9.287
 1873POPC   GL227398  44.011  23.168   9.073
 1873POPC   C1A27399  43.520  22.954   8.870
 1873POPC   D2A27400  43.640  22.744   8.462
 1873POPC   C3A27401  43.744  23.035   8.115
 1873POPC   C4A27402  43.636  22.839   7.745
 1873POPC   C1B27403  44.010  22.771   8.854
 1873POPC   C2B27404  44.177  22.565   8.520
 1873POPC   C3B27405  44.086  22.650   8.132
 1873POPC   C4B27406  44.132  22.942   7.772
 1874POPC   NC327407  24.356  23.313   9.518
 1874POPC   PO427408  24.276  22.677   9.552
 1874POPC   GL127409  24.524  22.836   9.207
 1874POPC   GL227410  24.313  23.084   9.076
 1874POPC   C1A27411  24.730  22.925   8.781
 1874POPC   D2A27412  24.563  23.092   8.396
 1874POPC   C3A27413  24.448  22.943   7.975
 1874POPC   C4A27414  24.719  22.696   7.713
 1874POPC   C1B27415  24.207  23.284   8.705
 1874POPC   C2B27416  24.145  23.451   8.296
 1874POPC   C3B27417  24.111  23.330   7.867
 1874POPC   C4B27418  23.970  23.360   7.430
 1875POPC   NC327419  14.224   4.501   9.368
 1875POPC   PO427420  14.698   4.168   9.643
 1875POPC   GL127421  14.604   4.168   9.188
 1875POPC   GL227422  14.665   4.524   9.049
 1875POPC   C1A27423  14.703   4.094   8.742
 1875POPC   D2A27424  14.429   4.193   8.382
 1875POPC   C3A27425  14.559   4.210   7.935
 1875POPC   C4A27426  14.471   4.177   7.502
 1875POPC   C1B27427  14.473   4.678   8.644
 1875POPC   C2B27428  14.507   4.661   8.183
 1875POPC   C3B27429  14.388   4.669   7.760
 1875POPC   C4B27430  14.275   4.672   7.321
 1876POPC   NC327431  29.529  26.172   9.612
 1876POPC   PO427432  29.023  25.757   9.611
 1876POPC   GL127433  29.349  25.804   9.310
 1876POPC   GL227434  29.126  26.047   9.175
 1876POPC   C1A27435  29.447  25.787   8.871
 1876POPC   D2A27436  29.171  25.724   8.537
 1876POPC   C3A27437  29.334  25.796   8.146
 1876POPC   C4A27438  29.127  25.847   7.773
 1876POPC   C1B27439  29.146  26.233   8.761
 1876POPC   C2B27440  28.996  26.167   8.347
 1876POPC   C3B27441  29.206  26.343   8.018
 1876POPC   C4B27442  29.309  26.312   7.612
 1877POPC   NC327443  15.887  17.780   9.675
 1877POPC   PO427444  16.434  17.558   9.617
 1877POPC   GL127445  16.065  17.569   9.237
 1877POPC   GL227446  15.870  17.879   9.158
 1877POPC   C1A27447  15.771  17.504   8.818
 1877POPC   D2A27448  15.601  17.542   8.335
 1877POPC   C3A27449  15.851  17.271   8.007
 1877POPC   C4A27450  16.215  17.356   7.699
 1877POPC   C1B27451  16.181  17.826   8.782
 1877POPC   C2B27452  16.387  17.828   8.377
 1877POPC   C3B27453  16.296  17.879   7.964
 1877POPC   C4B27454  15.919  17.752   7.877
 1878POPC   NC327455  36.004  36.660   9.397
 1878POPC   PO427456  36.335  37.374   9.514
 1878POPC   GL127457  36.189  37.176   9.117
 1878POPC   GL227458  36.286  36.831   9.027
 1878POPC   C1A27459  36.370  37.205   8.709
 1878POPC   D2A27460  36.158  36.992   8.393
 1878POPC   C3A27461  36.333  37.057   8.003
 1878POPC   C4A27462  36.190  37.102   7.614
 1878POPC   C1B27463  35.966  36.635   8.750
 1878POPC   C2B27464  35.865  36.534   8.333
 1878POPC   C3B27465  35.969  36.714   7.940
 1878POPC   C4B27466  36.025  36.621   7.525
 1879POPC   NC327467  26.883  33.495   9.448
 1879POPC   PO427468  26.789  34.207   9.455
 1879POPC   GL127469  26.855  33.967   9.083
 1879POPC   GL227470  26.623  33.645   9.034
 1879POPC   C1A27471  26.694  34.014   8.682
 1879POPC   D2A27472  26.588  33.665   8.466
 1879POPC   C3A27473  26.625  33.636   8.044
 1879POPC   C4A27474  26.764  33.885   7.715
 1879POPC   C1B27475  26.991  33.551   8.770
 1879POPC   C2B27476  27.012  33.369   8.366
 1879POPC   C3B27477  27.141  33.542   7.988
 1879POPC   C4B27478  26.925  33.405   7.659
 1880POPC   NC327479   0.354  44.837   9.571
 1880POPC   PO427480   0.714  44.454   9.218
 1880POPC   GL127481   0.330  44.665   9.085
 1880POPC   GL227482   0.106  44.928   9.134
 1880POPC   C1A27483   0.079  44.564   8.752
 1880POPC   D2A27484   0.189  44.364   8.398
 1880POPC   C3A27485   0.270  44.613   8.071
 1880POPC   C4A27486   0.650  44.703   7.929
 1880POPC   C1B27487   0.316   0.021   8.728
 1880POPC   C2B27488   0.525   0.010   8.329
 1880POPC   C3B27489   0.362   0.116   7.956
 1880POPC   C4B27490   0.326   0.193   7.564
 1881POPC   NC327491   0.089   6.970   9.674
 1881POPC   PO427492  44.507   7.204   9.448
 1881POPC   GL127493  44.684   7.195   9.092
 1881POPC   GL227494  44.990   7.027   9.163
 1881POPC   C1A27495  44.658   7.435   8.762
 1881POPC   D2A27496  44.864   7.503   8.424
 1881POPC   C3A27497  44.586   7.630   8.127
 1881POPC   C4A27498  44.541   7.532   7.710
 1881POPC   C1B27499   0.119   7.187   8.771
 1881POPC   C2B27500   0.067   7.026   8.342
 1881POPC   C3B27501  44.924   7.246   7.985
 1881POPC   C4B27502   0.039   7.462   7.607
 1882POPC   NC327503  22.112  43.274   9.714
 1882POPC   PO427504  21.820  42.792   9.290
 1882POPC   GL127505  22.073  43.067   9.094
 1882POPC   GL227506  22.380  42.998   9.234
 1882POPC   C1A27507  22.150  43.025   8.666
 1882POPC   D2A27508  22.352  42.975   8.281
 1882POPC   C3A27509  22.122  43.076   7.956
 1882POPC   C4A27510  21.929  42.867   7.640
 1882POPC   C1B27511  22.465  43.343   8.926
 1882POPC   C2B27512  22.395  43.456   8.483
 1882POPC   C3B27513  22.531  43.422   8.055
 1882POPC   C4B27514  22.426  43.351   7.646
 1883POPC   NC327515  42.644  20.071   9.410
 1883POPC   PO427516  43.364  20.097   9.502
 1883POPC   GL127517  43.118  19.878   9.202
 1883POPC   GL227518  43.275  19.525   9.237
 1883POPC   C1A27519  42.976  19.990   8.759
 1883POPC   D2A27520  43.326  20.030   8.450
 1883POPC   C3A27521  43.319  19.962   7.993
 1883POPC   C4A27522  42.987  19.971   7.700
 1883POPC   C1B27523  43.330  19.631   8.802
 1883POPC   C2B27524  43.080  19.598   8.423
 1883POPC   C3B27525  43.027  19.523   8.005
 1883POPC   C4B27526  42.656  19.619   7.820
 1884POPC   NC327527  37.714  28.592   9.556
 1884POPC   PO427528  38.150  28.011   9.522
 1884POPC   GL127529  37.823  28.206   9.254
 1884POPC   GL227530  37.555  28.042   9.109
 1884POPC   C1A27531  37.869  28.417   8.838
 1884POPC   D2A27532  37.697  28.500   8.380
 1884POPC   C3A27533  37.949  28.511   7.983
 1884POPC   C4A27534  37.775  28.535   7.520
 1884POPC   C1B27535  37.429  28.228   8.720
 1884POPC   C2B27536  37.352  28.123   8.278
 1884POPC   C3B27537  37.498  28.271   7.858
 1884POPC   C4B27538  37.536  28.096   7.406
 1885POPC   NC327539  13.650  12.180   9.982
 1885POPC   PO427540  13.244  12.055   9.528
 1885POPC   GL127541  13.685  12.046   9.274
 1885POPC   GL227542  13.801  12.389   9.107
 1885POPC   C1A27543  13.839  11.838   8.862
 1885POPC   D2A27544  13.579  11.804   8.453
 1885POPC   C3A27545  13.721  11.830   8.037
 1885POPC   C4A27546  13.633  11.972   7.627
 1885POPC   C1B27547  13.498  12.201   8.827
 1885POPC   C2B27548  13.525  12.310   8.423
 1885POPC   C3B27549  13.519  12.300   8.023
 1885POPC   C4B27550  13.671  12.465   7.692
 1886POPC   NC327551  41.513  30.220   9.574
 1886POPC   PO427552  41.727  29.578   9.403
 1886POPC   GL127553  41.447  29.837   9.192
 1886POPC   GL227554  41.727  30.032   9.102
 1886POPC   C1A27555  41.369  29.982   8.766
 1886POPC   D2A27556  41.629  29.980   8.415
 1886POPC   C3A27557  41.418  30.013   8.060
 1886POPC   C4A27558  41.504  29.853   7.676
 1886POPC   C1B27559  41.743  29.632   8.767
 1886POPC   C2B27560  41.853  29.526   8.320
 1886POPC   C3B27561  41.790  29.461   7.870
 1886POPC   C4B27562  41.816  29.548   7.401
 1887POPC   NC327563   3.269   7.805   9.787
 1887POPC   PO427564   3.683   7.348   9.529
 1887POPC   GL127565   3.575   7.537   9.146
 1887POPC   GL227566   3.721   7.870   9.136
 1887POPC   C1A27567   3.410   7.523   8.738
 1887POPC   D2A27568   3.565   7.342   8.402
 1887POPC   C3A27569   3.564   7.530   8.008
 1887POPC   C4A27570   3.312   7.437   7.670
 1887POPC   C1B27571   3.579   8.018   8.742
 1887POPC   C2B27572   3.652   7.863   8.381
 1887POPC   C3B27573   3.880   7.950   8.052
 1887POPC   C4B27574   3.729   7.906   7.660
 1888POPC   NC327575   1.160  15.692   9.516
 1888POPC   PO427576   1.318  15.037   9.659
 1888POPC   GL127577   1.195  15.085   9.223
 1888POPC   GL227578   0.999  15.377   9.148
 1888POPC   C1A27579   1.329  15.143   8.796
 1888POPC   D2A27580   1.118  15.069   8.411
 1888POPC   C3A27581   1.215  15.177   8.002
 1888POPC   C4A27582   1.310  14.933   7.669
 1888POPC   C1B27583   0.950  15.498   8.708
 1888POPC   C2B27584   1.026  15.565   8.271
 1888POPC   C3B27585   0.990  15.624   7.812
 1888POPC   C4B27586   1.001  15.582   7.354
 1889POPC   NC327587   1.650   7.198   9.358
 1889POPC   PO427588   2.326   7.567   9.452
 1889POPC   GL127589   2.096   7.384   9.140
 1889POPC   GL227590   1.798   7.576   9.062
 1889POPC   C1A27591   2.083   7.211   8.727
 1889POPC   D2A27592   1.986   7.148   8.272
 1889POPC   C3A27593   2.205   7.440   7.987
 1889POPC   C4A27594   2.144   7.526   7.526
 1889POPC   C1B27595   1.628   7.451   8.651
 1889POPC   C2B27596   1.525   7.381   8.198
 1889POPC   C3B27597   1.752   7.315   7.804
 1889POPC   C4B27598   1.640   7.384   7.376
 1890POPC   NC327599   4.511   6.489   9.449
 1890POPC   PO427600   3.961   6.773   9.603
 1890POPC   GL127601   4.107   6.863   9.124
 1890POPC   GL227602   4.397   6.655   8.970
 1890POPC   C1A27603   4.304   7.098   8.743
 1890POPC   D2A27604   4.599   6.900   8.414
 1890POPC   C3A27605   4.390   6.794   8.021
 1890POPC   C4A27606   3.955   6.702   7.839
 1890POPC   C1B27607   4.648   6.405   8.679
 1890POPC   C2B27608   4.543   6.328   8.238
 1890POPC   C3B27609   4.472   6.300   7.786
 1890POPC   C4B27610   4.620   6.072   7.406
 1891POPC   NC327611  43.581  36.116   9.522
 1891POPC   PO427612  44.190  35.746   9.515
 1891POPC   GL127613  44.094  36.060   9.180
 1891POPC   GL227614  44.143  35.845   8.906
 1891POPC   C1A27615  44.057  36.338   8.793
 1891POPC   D2A27616  43.971  36.137   8.387
 1891POPC   C3A27617  44.059  36.360   8.025
 1891POPC   C4A27618  43.976  36.228   7.618
 1891POPC   C1B27619  43.714  35.969   8.795
 1891POPC   C2B27620  43.457  36.096   8.437
 1891POPC   C3B27621  43.640  35.984   8.034
 1891POPC   C4B27622  43.547  35.932   7.635
 1892POPC   NC327623  29.332  43.808   9.636
 1892POPC   PO427624  29.997  43.908   9.557
 1892POPC   GL127625  29.943  43.822   9.149
 1892POPC   GL227626  29.611  43.914   9.208
 1892POPC   C1A27627  29.965  43.658   8.708
 1892POPC   D2A27628  29.762  43.570   8.277
 1892POPC   C3A27629  29.909  43.833   7.936
 1892POPC   C4A27630  29.956  43.792   7.483
 1892POPC   C1B27631  29.490  43.803   8.807
 1892POPC   C2B27632  29.643  44.027   8.455
 1892POPC   C3B27633  29.544  44.152   8.080
 1892POPC   C4B27634  29.775  44.253   7.693
 1893POPC   NC327635  27.156  15.123   9.618
 1893POPC   PO427636  26.844  15.502   9.153
 1893POPC   GL127637  26.686  15.069   9.096
 1893POPC   GL227638  27.013  14.955   9.147
 1893POPC   C1A27639  26.591  14.938   8.687
 1893POPC   D2A27640  26.765  15.270   8.417
 1893POPC   C3A27641  26.766  15.202   7.980
 1893POPC   C4A27642  26.819  15.357   7.571
 1893POPC   C1B27643  27.092  14.939   8.695
 1893POPC   C2B27644  26.925  14.795   8.275
 1893POPC   C3B27645  27.086  14.841   7.815
 1893POPC   C4B27646  27.267  14.839   7.376
 1894POPC   NC327647  37.636  43.541   9.396
 1894POPC   PO427648  37.577  44.210   9.450
 1894POPC   GL127649  37.598  43.976   9.080
 1894POPC   GL227650  37.928  43.871   9.110
 1894POPC   C1A27651  37.665  43.966   8.628
 1894POPC   D2A27652  37.533  43.921   8.187
 1894POPC   C3A27653  37.809  43.974   7.823
 1894POPC   C4A27654  38.004  44.102   7.401
 1894POPC   C1B27655  38.035  43.621   8.760
 1894POPC   C2B27656  37.861  43.556   8.367
 1894POPC   C3B27657  38.016  43.518   7.963
 1894POPC   C4B27658  37.894  43.176   7.735
 1895POPC   NC327659  36.936  31.749   9.564
 1895POPC   PO427660  36.488  31.297   9.459
 1895POPC   GL127661  36.761  31.495   9.138
 1895POPC   GL227662  37.080  31.366   9.218
 1895POPC   C1A27663  36.999  31.682   8.786
 1895POPC   D2A27664  37.164  31.869   8.345
 1895POPC   C3A27665  36.993  31.623   8.010
 1895POPC   C4A27666  36.914  31.755   7.595
 1895POPC   C1B27667  37.175  30.972   8.964
 1895POPC   C2B27668  37.140  30.909   8.518
 1895POPC   C3B27669  37.270  31.007   8.089
 1895POPC   C4B27670  37.061  31.180   7.724
 1896POPC   NC327671  18.413  35.906   9.401
 1896POPC   PO427672  18.365  35.222   9.622
 1896POPC   GL127673  18.184  35.084   9.251
 1896POPC   GL227674  18.490  35.090   9.072
 1896POPC   C1A27675  18.056  35.096   8.813
 1896POPC   D2A27676  18.304  35.160   8.428
 1896POPC   C3A27677  18.089  35.237   8.029
 1896POPC   C4A27678  18.062  35.105   7.665
 1896POPC   C1B27679  18.408  35.468   8.851
 1896POPC   C2B27680  18.505  35.750   8.515
 1896POPC   C3B27681  18.451  35.588   8.113
 1896POPC   C4B27682  18.390  35.511   7.669
 1897POPC   NC327683  30.858  23.395   9.478
 1897POPC   PO427684  30.814  22.807   9.909
 1897POPC   GL127685  30.827  22.727   9.394
 1897POPC   GL227686  30.581  22.995   9.210
 1897POPC   C1A27687  30.837  22.672   8.900
 1897POPC   D2A27688  30.687  22.934   8.522
 1897POPC   C3A27689  30.952  23.083   8.182
 1897POPC   C4A27690  31.021  22.986   7.757
 1897POPC   C1B27691  30.394  23.247   8.817
 1897POPC   C2B27692  30.375  23.395   8.365
 1897POPC   C3B27693  30.487  23.217   7.950
 1897POPC   C4B27694  30.245  23.364   7.590
 1898POPC   NC327695  11.902   3.754   9.444
 1898POPC   PO427696  12.248   3.115   9.451
 1898POPC   GL127697  12.319   3.490   9.210
 1898POPC   GL227698  11.986   3.423   9.069
 1898POPC   C1A27699  12.318   3.655   8.784
 1898POPC   D2A27700  12.172   3.438   8.436
 1898POPC   C3A27701  12.282   3.520   8.012
 1898POPC   C4A27702  12.409   3.521   7.568
 1898POPC   C1B27703  11.785   3.652   8.750
 1898POPC   C2B27704  11.658   3.467   8.366
 1898POPC   C3B27705  11.772   3.519   8.020
 1898POPC   C4B27706  11.929   3.760   7.721
 1899POPC   NC327707  43.302   1.054   9.604
 1899POPC   PO427708  43.126   1.688   9.422
 1899POPC   GL127709  43.039   1.271   9.165
 1899POPC   GL227710  43.294   0.973   9.119
 1899POPC   C1A27711  43.122   1.211   8.706
 1899POPC   D2A27712  43.258   1.482   8.371
 1899POPC   C3A27713  43.082   1.374   7.984
 1899POPC   C4A27714  43.103   1.550   7.594
 1899POPC   C1B27715  43.547   0.875   8.793
 1899POPC   C2B27716  43.608   1.113   8.443
 1899POPC   C3B27717  43.471   1.031   8.025
 1899POPC   C4B27718  43.477   1.219   7.647
 1900POPC   NC327719  18.986  41.997   9.441
 1900POPC   PO427720  19.581  41.989   9.200
 1900POPC   GL127721  19.237  42.311   9.118
 1900POPC   GL227722  18.990  42.580   9.234
 1900POPC   C1A27723  18.937  42.294   8.802
 1900POPC   D2A27724  19.096  42.286   8.404
 1900POPC   C3A27725  18.775  42.258   8.137
 1900POPC   C4A27726  18.940  42.203   7.725
 1900POPC   C1B27727  19.167  42.764   8.844
 1900POPC   C2B27728  19.034  42.807   8.409
 1900POPC   C3B27729  19.081  42.657   7.966
 1900POPC   C4B27730  18.887  42.717   7.537
 1901POPC   NC327731  27.260  42.550   9.595
 1901POPC   PO427732  27.719  42.171   9.403
 1901POPC   GL127733  27.654  42.475   9.137
 1901POPC   GL227734  27.307  42.502   9.099
 1901POPC   C1A27735  27.627  42.677   8.739
 1901POPC   D2A27736  27.636  42.468   8.346
 1901POPC   C3A27737  27.850  42.558   7.982
 1901POPC   C4A27738  27.714  42.487   7.583
 1901POPC   C1B27739  27.350  42.248   8.747
 1901POPC   C2B27740  27.204  42.214   8.342
 1901POPC   C3B27741  27.288  42.385   7.918
 1901POPC   C4B27742  27.169  42.093   7.557
 1902POPC   NC327743  32.467  17.697   9.597
 1902POPC   PO427744  33.133  17.456   9.508
 1902POPC   GL127745  32.909  17.514   9.147
 1902POPC   GL227746  33.251  17.628   9.024
 1902POPC   C1A27747  32.629  17.317   8.824
 1902POPC   D2A27748  32.488  17.264   8.375
 1902POPC   C3A27749  32.792  17.339   8.070
 1902POPC   C4A27750  32.773  17.195   7.655
 1902POPC   C1B27751  33.064  17.531   8.646
 1902POPC   C2B27752  33.165  17.632   8.253
 1902POPC   C3B27753  33.434  17.450   7.953
 1902POPC   C4B27754  33.262  17.213   7.689
 1903POPC   NC327755  23.830  22.817   9.598
 1903POPC   PO427756  23.237  23.199   9.516
 1903POPC   GL127757  23.563  23.011   9.173
 1903POPC   GL227758  23.854  22.839   9.109
 1903POPC   C1A27759  23.772  23.009   8.672
 1903POPC   D2A27760  24.074  22.913   8.359
 1903POPC   C3A27761  23.921  22.874   7.976
 1903POPC   C4A27762  23.696  22.983   7.615
 1903POPC   C1B27763  23.389  22.707   8.831
 1903POPC   C2B27764  23.234  22.748   8.422
 1903POPC   C3B27765  23.403  22.765   7.994
 1903POPC   C4B27766  23.342  22.573   7.581
 1904POPC   NC327767   3.057  10.284   9.514
 1904POPC   PO427768   2.393  10.368   9.432
 1904POPC   GL127769   2.636  10.678   9.200
 1904POPC   GL227770   3.001  10.609   9.084
 1904POPC   C1A27771   2.636  10.639   8.753
 1904POPC   D2A27772   2.926  10.387   8.544
 1904POPC   C3A27773   2.881  10.538   8.157
 1904POPC   C4A27774   2.600  10.524   7.831
 1904POPC   C1B27775   3.134  10.851   8.669
 1904POPC   C2B27776   3.135  10.983   8.206
 1904POPC   C3B27777   2.974  10.862   7.765
 1904POPC   C4B27778   3.017  10.609   7.363
 1905POPC   NC327779  19.925  39.794   9.419
 1905POPC   PO427780  19.554  40.291   9.440
 1905POPC   GL127781  19.601  40.055   9.082
 1905POPC   GL227782  19.971  40.032   8.958
 1905POPC   C1A27783  19.552  39.937   8.676
 1905POPC   D2A27784  19.884  39.993   8.391
 1905POPC   C3A27785  19.684  39.904   8.028
 1905POPC   C4A27786  19.607  39.846   7.601
 1905POPC   C1B27787  20.159  40.363   8.693
 1905POPC   C2B27788  20.035  40.484   8.275
 1905POPC   C3B27789  19.939  40.316   7.895
 1905POPC   C4B27790  19.867  40.443   7.518
 1906POPC   NC327791  14.479  36.541   9.729
 1906POPC   PO427792  14.456  35.868   9.482
 1906POPC   GL127793  14.243  35.978   9.128
 1906POPC   GL227794  14.578  36.040   8.992
 1906POPC   C1A27795  14.204  36.106   8.684
 1906POPC   D2A27796  14.597  36.181   8.450
 1906POPC   C3A27797  14.434  36.304   8.032
 1906POPC   C4A27798  14.265  36.039   7.719
 1906POPC   C1B27799  14.893  35.857   8.809
 1906POPC   C2B27800  14.826  35.710   8.407
 1906POPC   C3B27801  14.819  35.965   8.028
 1906POPC   C4B27802  14.704  35.845   7.608
 1907POPC   NC327803   8.473  22.300   9.559
 1907POPC   PO427804   8.055  21.834   9.583
 1907POPC   GL127805   8.126  22.055   9.167
 1907POPC   GL227806   8.448  22.242   9.074
 1907POPC   C1A27807   8.106  22.189   8.723
 1907POPC   D2A27808   8.267  22.104   8.344
 1907POPC   C3A27809   8.054  22.139   8.012
 1907POPC   C4A27810   8.287  22.019   7.709
 1907POPC   C1B27811   8.601  22.285   8.678
 1907POPC   C2B27812   8.629  22.538   8.320
 1907POPC   C3B27813   8.456  22.524   7.909
 1907POPC   C4B27814   8.097  22.492   7.658
 1908POPC   NC327815  17.077  24.258   9.607
 1908POPC   PO427816  16.449  24.446   9.569
 1908POPC   GL127817  16.614  24.479   9.156
 1908POPC   GL227818  16.937  24.515   9.191
 1908POPC   C1A27819  16.779  24.217   8.799
 1908POPC   D2A27820  17.024  24.151   8.434
 1908POPC   C3A27821  16.905  24.406   8.112
 1908POPC   C4A27822  16.539  24.326   7.844
 1908POPC   C1B27823  16.877  24.706   8.768
 1908POPC   C2B27824  17.072  24.878   8.420
 1908POPC   C3B27825  16.954  24.932   8.005
 1908POPC   C4B27826  16.910  24.641   7.664
 1909POPC   NC327827   0.764   0.557   9.481
 1909POPC   PO427828   0.130   0.239   9.543
 1909POPC   GL127829   0.357   0.397   9.186
 1909POPC   GL227830   0.629   0.173   9.111
 1909POPC   C1A27831   0.240   0.522   8.769
 1909POPC   D2A27832   0.192   0.408   8.339
 1909POPC   C3A27833   0.242   0.626   7.901
 1909POPC   C4A27834   0.256   0.669   7.410
 1909POPC   C1B27835   0.707   0.342   8.664
 1909POPC   C2B27836   0.632   0.611   8.276
 1909POPC   C3B27837   0.729   0.453   7.865
 1909POPC   C4B27838   0.983   0.091   7.890
 1910POPC   NC327839  16.739  33.387   9.360
 1910POPC   PO427840  16.330  33.791   9.679
 1910POPC   GL127841  16.521  33.877   9.248
 1910POPC   GL227842  16.881  33.879   9.133
 1910POPC   C1A27843  16.526  33.745   8.791
 1910POPC   D2A27844  16.689  33.645   8.367
 1910POPC   C3A27845  16.544  33.868   8.003
 1910POPC   C4A27846  16.777  34.093   7.685
 1910POPC   C1B27847  16.986  33.961   8.667
 1910POPC   C2B27848  16.994  34.042   8.203
 1910POPC   C3B27849  17.028  33.706   7.879
 1910POPC   C4B27850  16.839  33.627   7.450
 1911POPC   NC327851  17.643   6.529   9.611
 1911POPC   PO427852  17.174   6.907   9.756
 1911POPC   GL127853  17.321   6.523   9.248
 1911POPC   GL227854  17.616   6.683   9.118
 1911POPC   C1A27855  17.250   6.549   8.786
 1911POPC   D2A27856  17.518   6.770   8.455
 1911POPC   C3A27857  17.507   6.793   7.991
 1911POPC   C4A27858  17.190   6.707   7.647
 1911POPC   C1B27859  17.738   6.395   8.824
 1911POPC   C2B27860  17.818   6.344   8.427
 1911POPC   C3B27861  17.865   6.423   8.026
 1911POPC   C4B27862  17.703   6.126   7.781
 1912POPC   NC327863  35.401  35.825   9.590
 1912POPC   PO427864  35.588  36.491   9.468
 1912POPC   GL127865  35.362  36.304   9.183
 1912POPC   GL227866  35.219  36.569   9.031
 1912POPC   C1A27867  35.287  36.069   8.802
 1912POPC   D2A27868  35.510  36.175   8.430
 1912POPC   C3A27869  35.295  36.146   8.051
 1912POPC   C4A27870  35.078  35.895   7.773
 1912POPC   C1B27871  35.397  36.641   8.664
 1912POPC   C2B27872  35.118  36.520   8.365
 1912POPC   C3B27873  34.909  36.540   7.988
 1912POPC   C4B27874  35.085  36.407   7.638
 1913POPC   NC327875  17.941  35.427   9.597
 1913POPC   PO427876  17.394  35.041   9.509
 1913POPC   GL127877  17.631  35.343   9.183
 1913POPC   GL227878  17.977  35.547   9.119
 1913POPC   C1A27879  17.660  35.447   8.750
 1913POPC   D2A27880  17.466  35.410   8.400
 1913POPC   C3A27881  17.555  35.586   8.088
 1913POPC   C4A27882  17.568  35.342   7.754
 1913POPC   C1B27883  18.029  35.786   8.746
 1913POPC   C2B27884  18.001  35.590   8.366
 1913POPC   C3B27885  18.003  35.747   7.915
 1913POPC   C4B27886  17.915  35.582   7.496
 1914POPC   NC327887  33.507  38.497   9.804
 1914POPC   PO427888  33.909  38.218   9.343
 1914POPC   GL127889  33.781  38.325   8.993
 1914POPC   GL227890  33.694  38.651   9.100
 1914POPC   C1A27891  33.886  38.198   8.604
 1914POPC   D2A27892  33.870  38.470   8.287
 1914POPC   C3A27893  34.057  38.397   7.860
 1914POPC   C4A27894  33.960  38.414   7.416
 1914POPC   C1B27895  33.985  38.733   8.746
 1914POPC   C2B27896  34.040  38.952   8.348
 1914POPC   C3B27897  33.789  38.840   7.972
 1914POPC   C4B27898  33.723  38.839   7.536
 1915POPC   NC327899  36.188  17.873   9.590
 1915POPC   PO427900  36.180  18.545   9.591
 1915POPC   GL127901  36.298  18.284   9.247
 1915POPC   GL227902  35.977  18.216   9.185
 1915POPC   C1A27903  36.333  18.414   8.811
 1915POPC   D2A27904  36.447  18.374   8.364
 1915POPC   C3A27905  36.244  18.525   7.999
 1915POPC   C4A27906  36.052  18.563   7.601
 1915POPC   C1B27907  35.942  18.098   8.757
 1915POPC   C2B27908  35.932  18.346   8.377
 1915POPC   C3B27909  35.780  18.290   7.960
 1915POPC   C4B27910  35.581  18.003   7.663
 1916POPC   NC327911  11.068   8.131   9.548
 1916POPC   PO427912  11.787   8.367   9.572
 1916POPC   GL127913  11.507   8.213   9.250
 1916POPC   GL227914  11.260   8.417   9.138
 1916POPC   C1A27915  11.371   8.026   8.850
 1916POPC   D2A27916  11.408   8.066   8.401
 1916POPC   C3A27917  11.229   7.933   8.003
 1916POPC   C4A27918  11.375   8.070   7.573
 1916POPC   C1B27919  11.060   8.395   8.704
 1916POPC   C2B27920  11.001   8.354   8.239
 1916POPC   C3B27921  10.957   8.342   7.794
 1916POPC   C4B27922  10.996   8.466   7.362
 1917POPC   NC327923  42.405   8.800   9.457
 1917POPC   PO427924  42.767   9.338   9.710
 1917POPC   GL127925  42.633   9.216   9.285
 1917POPC   GL227926  42.257   9.194   9.183
 1917POPC   C1A27927  42.640   9.098   8.833
 1917POPC   D2A27928  42.466   8.805   8.486
 1917POPC   C3A27929  42.305   9.063   8.135
 1917POPC   C4A27930  42.441   9.184   7.706
 1917POPC   C1B27931  42.122   9.058   8.780
 1917POPC   C2B27932  41.875   8.943   8.460
 1917POPC   C3B27933  41.955   8.676   8.140
 1917POPC   C4B27934  42.131   8.778   7.748
 1918POPC   NC327935  34.893  39.486   9.395
 1918POPC   PO427936  34.580  38.903   9.393
 1918POPC   GL127937  34.587  39.175   9.075
 1918POPC   GL227938  34.366  39.466   9.173
 1918POPC   C1A27939  34.898  39.106   8.752
 1918POPC   D2A27940  34.844  38.935   8.339
 1918POPC   C3A27941  34.822  39.323   8.120
 1918POPC   C4A27942  34.875  39.383   7.714
 1918POPC   C1B27943  34.463  39.522   8.711
 1918POPC   C2B27944  34.336  39.485   8.262
 1918POPC   C3B27945  34.368  39.278   7.860
 1918POPC   C4B27946  34.192  38.929   7.709
 1919POPC   NC327947   9.390  22.003   9.292
 1919POPC   PO427948   9.748  22.369   9.768
 1919POPC   GL127949   9.905  22.105   9.349
 1919POPC   GL227950   9.751  22.266   9.040
 1919POPC   C1A27951  10.055  21.887   8.924
 1919POPC   D2A27952   9.854  21.822   8.500
 1919POPC   C3A27953   9.924  22.020   8.080
 1919POPC   C4A27954  10.109  21.779   7.732
 1919POPC   C1B27955   9.619  22.273   8.627
 1919POPC   C2B27956   9.466  22.450   8.259
 1919POPC   C3B27957   9.489  22.299   7.849
 1919POPC   C4B27958   9.355  22.378   7.407
 1920POPC   NC327959   7.617  11.949   9.759
 1920POPC   PO427960   7.727  12.620   9.631
 1920POPC   GL127961   7.722  12.363   9.168
 1920POPC   GL227962   7.424  12.310   9.118
 1920POPC   C1A27963   7.680  12.066   8.755
 1920POPC   D2A27964   7.630  11.858   8.388
 1920POPC   C3A27965   7.619  12.038   7.983
 1920POPC   C4A27966   7.511  11.846   7.607
 1920POPC   C1B27967   7.193  12.245   8.731
 1920POPC   C2B27968   7.201  12.142   8.303
 1920POPC   C3B27969   7.279  12.425   7.965
 1920POPC   C4B27970   7.146  12.253   7.613
 1921POPC   NC327971   0.608  11.065   9.500
 1921POPC   PO427972   0.040  11.389   9.691
 1921POPC   GL127973   0.222  11.291   9.229
 1921POPC   GL227974   0.383  11.538   9.114
 1921POPC   C1A27975   0.278  11.136   8.767
 1921POPC   D2A27976   0.594  11.173   8.435
 1921POPC   C3A27977   0.508  11.055   8.020
 1921POPC   C4A27978   0.326  11.286   7.691
 1921POPC   C1B27979   0.559  11.596   8.715
 1921POPC   C2B27980   0.800  11.643   8.335
 1921POPC   C3B27981   0.767  11.513   7.915
 1921POPC   C4B27982   0.835  11.710   7.520
 1922POPC   NC327983   7.510  17.680   9.611
 1922POPC   PO427984   7.784  17.066   9.534
 1922POPC   GL127985   7.523  17.341   9.229
 1922POPC   GL227986   7.634  17.726   9.133
 1922POPC   C1A27987   7.454  17.220   8.809
 1922POPC   D2A27988   7.259  17.086   8.429
 1922POPC   C3A27989   7.449  17.255   8.079
 1922POPC   C4A27990   7.318  17.479   7.718
 1922POPC   C1B27991   7.263  17.679   8.908
 1922POPC   C2B27992   7.243  17.613   8.480
 1922POPC   C3B27993   7.478  17.768   8.134
 1922POPC   C4B27994   7.368  17.986   7.765
 1923POPC   NC327995  37.578   8.605   9.420
 1923POPC   PO427996  37.325   8.037   9.343
 1923POPC   GL127997  37.721   8.131   9.095
 1923POPC   GL227998  37.982   8.424   9.172
 1923POPC   C1A27999  37.934   7.981   8.730
 1923POPC   D2A28000  37.961   8.258   8.405
 1923POPC   C3A28001  37.925   8.065   8.077
 1923POPC   C4A28002  37.969   8.130   7.699
 1923POPC   C1B28003  37.736   8.545   8.790
 1923POPC   C2B28004  37.606   8.648   8.391
 1923POPC   C3B28005  37.504   8.350   8.076
 1923POPC   C4B28006  37.542   8.410   7.658
 1924POPC   NC328007  33.981  34.848   9.827
 1924POPC   PO428008  33.834  34.346   9.443
 1924POPC   GL128009  33.933  34.410   9.070
 1924POPC   GL228010  33.693  34.658   9.051
 1924POPC   C1A28011  33.874  34.408   8.645
 1924POPC   D2A28012  33.720  34.386   8.250
 1924POPC   C3A28013  34.040  34.515   7.979
 1924POPC   C4A28014  34.097  34.850   7.733
 1924POPC   C1B28015  33.678  34.889   8.698
 1924POPC   C2B28016  33.912  34.860   8.338
 1924POPC   C3B28017  33.642  34.845   7.991
 1924POPC   C4B28018  33.584  34.967   7.592
 1925POPC   NC328019  44.579   1.765   9.304
 1925POPC   PO428020  44.513   2.395   9.524
 1925POPC   GL128021  44.404   2.317   9.117
 1925POPC   GL228022  44.764   2.356   9.074
 1925POPC   C1A28023  44.429   2.158   8.700
 1925POPC   D2A28024  44.778   1.893   8.543
 1925POPC   C3A28025  44.705   1.775   8.120
 1925POPC   C4A28026  44.583   1.436   7.871
 1925POPC   C1B28027  44.866   2.425   8.664
 1925POPC   C2B28028  44.746   2.325   8.244
 1925POPC   C3B28029  44.878   2.408   7.807
 1925POPC   C4B28030  44.674   2.264   7.433
 1926POPC   NC328031  27.777   4.550   9.570
 1926POPC   PO428032  27.514   3.998   9.554
 1926POPC   GL128033  27.694   4.127   9.175
 1926POPC   GL228034  27.951   4.364   9.126
 1926POPC   C1A28035  27.525   4.068   8.765
 1926POPC   D2A28036  27.359   3.987   8.348
 1926POPC   C3A28037  27.390   4.270   7.975
 1926POPC   C4A28038  27.386   4.238   7.539
 1926POPC   C1B28039  28.038   4.094   8.784
 1926POPC   C2B28040  27.861   4.080   8.381
 1926POPC   C3B28041  27.898   4.330   8.041
 1926POPC   C4B28042  27.871   4.161   7.651
 1927POPC   NC328043   8.650  27.974   9.518
 1927POPC   PO428044   9.188  27.555   9.492
 1927POPC   GL128045   9.221  27.472   9.070
 1927POPC   GL228046   8.852  27.475   9.118
 1927POPC   C1A28047   9.031  27.596   8.666
 1927POPC   D2A28048   8.758  27.747   8.345
 1927POPC   C3A28049   8.983  27.760   7.960
 1927POPC   C4A28050   9.304  27.503   7.794
 1927POPC   C1B28051   8.864  27.126   8.812
 1927POPC   C2B28052   9.078  27.066   8.424
 1927POPC   C3B28053   8.936  27.250   8.050
 1927POPC   C4B28054   8.658  27.275   7.704
 1928POPC   NC328055  11.261  35.910   9.415
 1928POPC   PO428056  11.029  36.520   9.467
 1928POPC   GL128057  11.169  36.314   9.119
 1928POPC   GL228058  11.522  36.359   9.233
 1928POPC   C1A28059  11.237  36.038   8.770
 1928POPC   D2A28060  11.144  35.807   8.407
 1928POPC   C3A28061  11.180  36.147   8.135
 1928POPC   C4A28062  11.088  36.123   7.715
 1928POPC   C1B28063  11.645  36.530   8.848
 1928POPC   C2B28064  11.539  36.372   8.476
 1928POPC   C3B28065  11.653  36.401   8.071
 1928POPC   C4B28066  11.718  36.448   7.645
 1929POPC   NC328067   0.610  27.010   9.473
 1929POPC   PO428068   0.049  26.661   9.428
 1929POPC   GL128069   0.281  26.828   9.100
 1929POPC   GL228070   0.161  27.139   9.064
 1929POPC   C1A28071   0.448  26.680   8.705
 1929POPC   D2A28072   0.682  26.481   8.405
 1929POPC   C3A28073   0.733  26.740   8.047
 1929POPC   C4A28074   0.432  26.739   7.720
 1929POPC   C1B28075   0.413  27.193   8.704
 1929POPC   C2B28076   0.435  27.129   8.251
 1929POPC   C3B28077   0.154  27.145   7.896
 1929POPC   C4B28078   0.227  27.117   7.430
 1930POPC   NC328079  27.264  32.578   9.566
 1930POPC   PO428080  27.751  32.164   9.784
 1930POPC   GL128081  27.646  32.129   9.268
 1930POPC   GL228082  27.396  32.375   9.108
 1930POPC   C1A28083  27.777  32.220   8.810
 1930POPC   D2A28084  28.021  32.181   8.416
 1930POPC   C3A28085  27.780  32.287   8.040
 1930POPC   C4A28086  27.824  32.128   7.630
 1930POPC   C1B28087  27.397  32.577   8.696
 1930POPC   C2B28088  27.367  32.508   8.244
 1930POPC   C3B28089  27.385  32.673   7.844
 1930POPC   C4B28090  27.351  32.511   7.397
 1931POPC   NC328091   8.504  28.884   9.573
 1931POPC   PO428092   7.846  28.842   9.266
 1931POPC   GL128093   8.277  28.577   9.214
 1931POPC   GL228094   8.301  28.222   9.258
 1931POPC   C1A28095   8.463  28.442   8.823
 1931POPC   D2A28096   8.251  28.554   8.451
 1931POPC   C3A28097   8.393  28.537   8.044
 1931POPC   C4A28098   8.106  28.599   7.746
 1931POPC   C1B28099   8.281  27.947   8.894
 1931POPC   C2B28100   8.328  28.036   8.474
 1931POPC   C3B28101   8.060  28.148   8.138
 1931POPC   C4B28102   8.087  28.058   7.722
 1932POPC   NC328103  31.315  22.606   9.648
 1932POPC   PO428104  31.178  23.147   9.245
 1932POPC   GL128105  31.326  22.804   9.104
 1932POPC   GL228106  31.675  22.877   8.952
 1932POPC   C1A28107  31.330  22.599   8.736
 1932POPC   D2A28108  31.089  22.486   8.436
 1932POPC   C3A28109  31.265  22.665   8.067
 1932POPC   C4A28110  31.527  22.799   7.709
 1932POPC   C1B28111  31.692  23.128   8.588
 1932POPC   C2B28112  31.620  23.045   8.165
 1932POPC   C3B28113  31.437  23.266   7.831
 1932POPC   C4B28114  31.622  23.282   7.443
 1933POPC   NC328115  29.214  42.978   9.578
 1933POPC   PO428116  28.741  43.498   9.749
 1933POPC   GL128117  28.893  43.336   9.308
 1933POPC   GL228118  28.795  43.036   9.303
 1933POPC   C1A28119  29.164  43.151   8.908
 1933POPC   D2A28120  29.142  43.011   8.463
 1933POPC   C3A28121  29.377  42.912   8.080
 1933POPC   C4A28122  29.362  43.045   7.658
 1933POPC   C1B28123  28.684  43.046   8.874
 1933POPC   C2B28124  28.620  42.968   8.465
 1933POPC   C3B28125  28.821  42.850   8.088
 1933POPC   C4B28126  28.875  42.993   7.687
 1934POPC   NC328127   9.331   5.509   9.462
 1934POPC   PO428128   9.685   6.095   9.520
 1934POPC   GL128129   9.636   5.900   9.121
 1934POPC   GL228130   9.331   5.786   9.046
 1934POPC   C1A28131   9.728   5.842   8.676
 1934POPC   D2A28132  10.048   5.624   8.436
 1934POPC   C3A28133  10.144   5.754   7.982
 1934POPC   C4A28134   9.919   5.924   7.600
 1934POPC   C1B28135   9.370   6.190   8.802
 1934POPC   C2B28136   9.504   6.318   8.389
 1934POPC   C3B28137   9.653   6.055   8.064
 1934POPC   C4B28138   9.423   5.858   7.785
 1935POPC   NC328139   9.908  42.650   9.594
 1935POPC   PO428140  10.039  42.013   9.507
 1935POPC   GL128141   9.849  42.291   9.198
 1935POPC   GL228142   9.516  42.402   9.230
 1935POPC   C1A28143   9.823  42.446   8.755
 1935POPC   D2A28144  10.076  42.690   8.474
 1935POPC   C3A28145   9.889  42.650   8.093
 1935POPC   C4A28146   9.885  42.510   7.686
 1935POPC   C1B28147   9.332  42.599   8.810
 1935POPC   C2B28148   9.296  42.611   8.302
 1935POPC   C3B28149   9.395  42.651   7.818
 1935POPC   C4B28150   9.433  42.819   7.361
 1936POPC   NC328151   7.023  21.564   9.460
 1936POPC   PO428152   7.625  21.315   9.589
 1936POPC   GL128153   7.374  21.239   9.218
 1936POPC   GL228154   7.609  21.398   9.056
 1936POPC   C1A28155   7.178  21.223   8.783
 1936POPC   D2A28156   7.010  21.108   8.355
 1936POPC   C3A28157   7.129  21.314   7.931
 1936POPC   C4A28158   7.378  21.581   7.638
 1936POPC   C1B28159   7.656  21.440   8.669
 1936POPC   C2B28160   7.501  21.375   8.298
 1936POPC   C3B28161   7.701  21.324   7.946
 1936POPC   C4B28162   7.560  21.078   7.656
 1937POPC   NC328163  38.971   6.597   9.411
 1937POPC   PO428164  38.406   6.312   9.463
 1937POPC   GL128165  38.540   6.578   9.111
 1937POPC   GL228166  38.824   6.774   8.977
 1937POPC   C1A28167  38.389   6.640   8.715
 1937POPC   D2A28168  38.367   6.407   8.361
 1937POPC   C3A28169  38.240   6.626   7.986
 1937POPC   C4A28170  38.419   6.603   7.556
 1937POPC   C1B28171  38.742   7.028   8.648
 1937POPC   C2B28172  38.557   6.903   8.286
 1937POPC   C3B28173  38.686   6.879   7.883
 1937POPC   C4B28174  38.992   7.011   7.623
 1938POPC   NC328175  40.690  41.480   9.492
 1938POPC   PO428176  41.064  42.051   9.386
 1938POPC   GL128177  40.837  41.763   9.093
 1938POPC   GL228178  40.964  41.400   9.059
 1938POPC   C1A28179  40.526  41.765   8.778
 1938POPC   D2A28180  40.384  41.676   8.362
 1938POPC   C3A28181  40.642  41.618   7.972
 1938POPC   C4A28182  40.816  41.546   7.565
 1938POPC   C1B28183  40.733  41.324   8.655
 1938POPC   C2B28184  40.543  41.215   8.240
 1938POPC   C3B28185  40.328  41.254   7.810
 1938POPC   C4B28186  40.478  41.223   7.345
 1939POPC   NC328187  29.687   7.132   9.568
 1939POPC   PO428188  30.106   7.657   9.418
 1939POPC   GL128189  30.119   7.473   9.032
 1939POPC   GL228190  29.924   7.186   9.111
 1939POPC   C1A28191  30.122   7.494   8.609
 1939POPC   D2A28192  29.803   7.542   8.337
 1939POPC   C3A28193  29.940   7.691   7.977
 1939POPC   C4A28194  30.078   7.483   7.634
 1939POPC   C1B28195  29.671   7.202   8.726
 1939POPC   C2B28196  29.628   7.049   8.290
 1939POPC   C3B28197  29.730   7.149   7.868
 1939POPC   C4B28198  29.515   7.401   7.534
 1940POPC   NC328199  24.227  25.499   9.555
 1940POPC   PO428200  24.893  25.464   9.434
 1940POPC   GL128201  24.712  25.244   9.106
 1940POPC   GL228202  24.354  25.246   9.148
 1940POPC   C1A28203  24.685  25.263   8.663
 1940POPC   D2A28204  24.502  25.546   8.388
 1940POPC   C3A28205  24.614  25.401   8.014
 1940POPC   C4A28206  24.978  25.190   7.858
 1940POPC   C1B28207  24.190  25.323   8.741
 1940POPC   C2B28208  24.133  25.214   8.305
 1940POPC   C3B28209  24.231  24.999   7.953
 1940POPC   C4B28210  24.419  25.187   7.601
 1941POPC   NC328211  42.316   0.725   9.521
 1941POPC   PO428212  41.619   0.750   9.360
 1941POPC   GL128213  41.969   0.652   9.103
 1941POPC   GL228214  42.189   0.336   9.118
 1941POPC   C1A28215  42.157   0.615   8.675
 1941POPC   D2A28216  42.265   0.360   8.311
 1941POPC   C3A28217  42.282   0.566   7.897
 1941POPC   C4A28218  42.342   0.724   7.462
 1941POPC   C1B28219  42.277   0.040   8.748
 1941POPC   C2B28220  42.566  44.939   8.402
 1941POPC   C3B28221  42.588   0.132   7.958
 1941POPC   C4B28222  42.542   0.262   7.496
 1942POPC   NC328223  28.422  31.300   9.626
 1942POPC   PO428224  27.864  31.632   9.415
 1942POPC   GL128225  28.221  31.516   9.209
 1942POPC   GL228226  28.276  31.175   9.177
 1942POPC   C1A28227  28.338  31.559   8.792
 1942POPC   D2A28228  28.105  31.669   8.451
 1942POPC   C3A28229  28.256  31.536   8.062
 1942POPC   C4A28230  28.017  31.475   7.688
 1942POPC   C1B28231  28.568  31.103   8.840
 1942POPC   C2B28232  28.675  31.072   8.431
 1942POPC   C3B28233  28.496  31.075   8.014
 1942POPC   C4B28234  28.485  31.296   7.636
 1943POPC   NC328235  30.537  27.448   9.459
 1943POPC   PO428236  30.215  27.997   9.473
 1943POPC   GL128237  30.519  27.833   9.136
 1943POPC   GL228238  30.453  27.483   8.975
 1943POPC   C1A28239  30.801  27.829   8.781
 1943POPC   D2A28240  30.633  28.030   8.396
 1943POPC   C3A28241  30.612  27.741   8.072
 1943POPC   C4A28242  30.816  27.431   7.827
 1943POPC   C1B28243  30.484  27.518   8.550
 1943POPC   C2B28244  30.588  27.268   8.262
 1943POPC   C3B28245  30.292  27.265   7.955
 1943POPC   C4B28246  30.406  27.265   7.533
 1944POPC   NC328247   7.014  10.791   9.514
 1944POPC   PO428248   7.525  10.294   9.647
 1944POPC   GL128249   7.577  10.485   9.205
 1944POPC   GL228250   7.273  10.627   9.110
 1944POPC   C1A28251   7.744  10.639   8.790
 1944POPC   D2A28252   7.649  10.385   8.412
 1944POPC   C3A28253   7.768  10.591   8.066
 1944POPC   C4A28254   7.666  10.670   7.647
 1944POPC   C1B28255   7.284  10.377   8.764
 1944POPC   C2B28256   7.123  10.354   8.361
 1944POPC   C3B28257   7.247  10.526   7.973
 1944POPC   C4B28258   7.229  10.429   7.543
 1945POPC   NC328259  34.945  10.586   9.535
 1945POPC   PO428260  34.435  10.128   9.530
 1945POPC   GL128261  34.681  10.226   9.171
 1945POPC   GL228262  34.616  10.569   9.141
 1945POPC   C1A28263  34.578  10.255   8.722
 1945POPC   D2A28264  34.615  10.496   8.347
 1945POPC   C3A28265  34.572  10.351   7.934
 1945POPC   C4A28266  34.385  10.596   7.603
 1945POPC   C1B28267  34.460  10.768   8.780
 1945POPC   C2B28268  34.472  10.988   8.374
 1945POPC   C3B28269  34.505  10.968   7.920
 1945POPC   C4B28270  34.330  11.098   7.464
 1946POPC   NC328271   7.942  34.847   9.625
 1946POPC   PO428272   8.085  34.247   9.711
 1946POPC   GL128273   7.959  34.455   9.269
 1946POPC   GL228274   7.862  34.789   9.126
 1946POPC   C1A28275   7.928  34.398   8.802
 1946POPC   D2A28276   8.178  34.476   8.452
 1946POPC   C3A28277   8.101  34.658   8.052
 1946POPC   C4A28278   8.434  34.547   7.739
 1946POPC   C1B28279   8.222  34.822   8.854
 1946POPC   C2B28280   8.248  35.007   8.434
 1946POPC   C3B28281   8.466  35.099   8.046
 1946POPC   C4B28282   8.258  35.029   7.709
 1947POPC   NC328283  28.545  27.707   9.684
 1947POPC   PO428284  29.254  27.649   9.548
 1947POPC   GL128285  29.003  27.752   9.209
 1947POPC   GL228286  28.776  27.484   9.195
 1947POPC   C1A28287  29.068  27.649   8.798
 1947POPC   D2A28288  29.171  27.346   8.512
 1947POPC   C3A28289  29.205  27.503   8.107
 1947POPC   C4A28290  29.336  27.348   7.707
 1947POPC   C1B28291  28.875  27.163   8.895
 1947POPC   C2B28292  28.749  27.052   8.485
 1947POPC   C3B28293  28.745  27.317   8.179
 1947POPC   C4B28294  28.730  27.201   7.768
 1948POPC   NC328295  34.531  25.139   9.435
 1948POPC   PO428296  35.028  25.579   9.436
 1948POPC   GL128297  34.790  25.408   9.059
 1948POPC   GL228298  34.782  25.042   8.970
 1948POPC   C1A28299  34.669  25.379   8.626
 1948POPC   D2A28300  34.819  24.999   8.438
 1948POPC   C3A28301  34.684  25.049   8.059
 1948POPC   C4A28302  34.725  25.374   7.787
 1948POPC   C1B28303  34.367  24.971   8.699
 1948POPC   C2B28304  34.214  25.020   8.238
 1948POPC   C3B28305  34.279  24.971   7.725
 1948POPC   C4B28306  34.142  24.963   7.218
 1949POPC   NC328307  24.139   2.202   9.524
 1949POPC   PO428308  23.536   1.814   9.647
 1949POPC   GL128309  23.621   1.883   9.146
 1949POPC   GL228310  23.836   2.176   9.095
 1949POPC   C1A28311  23.855   1.726   8.756
 1949POPC   D2A28312  24.123   1.737   8.364
 1949POPC   C3A28313  23.857   1.648   7.971
 1949POPC   C4A28314  23.834   1.933   7.578
 1949POPC   C1B28315  23.859   2.220   8.647
 1949POPC   C2B28316  23.653   1.939   8.340
 1949POPC   C3B28317  23.465   1.979   7.956
 1949POPC   C4B28318  23.329   1.895   7.568
 1950POPC   NC328319  31.745  30.304   9.609
 1950POPC   PO428320  31.549  29.612   9.629
 1950POPC   GL128321  31.535  29.932   9.173
 1950POPC   GL228322  31.162  29.938   9.027
 1950POPC   C1A28323  31.507  30.183   8.750
 1950POPC   D2A28324  31.299  30.186   8.344
 1950POPC   C3A28325  31.634  30.335   8.059
 1950POPC   C4A28326  31.830  30.230   7.666
 1950POPC   C1B28327  31.369  29.698   8.661
 1950POPC   C2B28328  31.447  29.731   8.211
 1950POPC   C3B28329  31.403  29.938   7.811
 1950POPC   C4B28330  31.182  29.732   7.467
 1951POPC   NC328331  10.234   9.899   9.433
 1951POPC   PO428332  10.824   9.552   9.302
 1951POPC   GL128333  10.542   9.689   8.972
 1951POPC   GL228334  10.556  10.034   8.983
 1951POPC   C1A28335  10.603   9.829   8.524
 1951POPC   D2A28336  10.891   9.950   8.200
 1951POPC   C3A28337  10.819   9.658   7.894
 1951POPC   C4A28338  10.446   9.389   7.863
 1951POPC   C1B28339  10.357  10.306   8.653
 1951POPC   C2B28340  10.263  10.136   8.257
 1951POPC   C3B28341  10.445   9.999   7.888
 1951POPC   C4B28342  10.750  10.154   7.598
 1952POPC   NC328343   4.402  20.882   9.465
 1952POPC   PO428344   3.966  20.259   9.424
 1952POPC   GL128345   4.006  20.368   9.015
 1952POPC   GL228346   4.267  20.585   9.028
 1952POPC   C1A28347   3.896  20.402   8.600
 1952POPC   D2A28348   4.189  20.549   8.294
 1952POPC   C3A28349   4.319  20.337   7.915
 1952POPC   C4A28350   4.428  20.486   7.524
 1952POPC   C1B28351   4.098  20.870   8.694
 1952POPC   C2B28352   4.124  21.052   8.245
 1952POPC   C3B28353   4.177  20.830   7.822
 1952POPC   C4B28354   4.236  20.900   7.301
 1953POPC   NC328355   8.042  32.055   9.630
 1953POPC   PO428356   8.504  32.540   9.442
 1953POPC   GL128357   8.339  32.152   9.188
 1953POPC   GL228358   7.983  32.100   9.122
 1953POPC   C1A28359   8.302  31.953   8.769
 1953POPC   D2A28360   8.071  32.004   8.380
 1953POPC   C3A28361   8.401  32.031   8.063
 1953POPC   C4A28362   8.427  31.989   7.643
 1953POPC   C1B28363   8.014  32.389   8.805
 1953POPC   C2B28364   7.978  32.485   8.391
 1953POPC   C3B28365   8.014  32.332   7.945
 1953POPC   C4B28366   7.750  32.369   7.579
 1954POPC   NC328367  24.903  36.995   9.445
 1954POPC   PO428368  25.614  36.789   9.520
 1954POPC   GL128369  25.337  36.860   9.205
 1954POPC   GL228370  25.160  36.541   9.179
 1954POPC   C1A28371  25.282  37.028   8.796
 1954POPC   D2A28372  25.223  36.830   8.398
 1954POPC   C3A28373  25.320  37.047   8.036
 1954POPC   C4A28374  25.143  37.341   7.732
 1954POPC   C1B28375  25.421  36.527   8.786
 1954POPC   C2B28376  25.608  36.499   8.342
 1954POPC   C3B28377  25.362  36.536   7.947
 1954POPC   C4B28378  25.259  36.802   7.593
 1955POPC   NC328379  36.498  24.006   9.393
 1955POPC   PO428380  36.088  23.461   9.528
 1955POPC   GL128381  36.232  23.611   9.130
 1955POPC   GL228382  36.167  23.895   9.030
 1955POPC   C1A28383  36.096  23.578   8.659
 1955POPC   D2A28384  36.278  23.618   8.254
 1955POPC   C3A28385  35.980  23.510   7.940
 1955POPC   C4A28386  36.058  23.552   7.479
 1955POPC   C1B28387  36.335  24.041   8.652
 1955POPC   C2B28388  36.288  24.164   8.233
 1955POPC   C3B28389  36.049  23.998   7.895
 1955POPC   C4B28390  35.748  24.180   7.639
 1956POPC   NC328391  19.682  28.968   9.361
 1956POPC   PO428392  20.262  29.286   9.426
 1956POPC   GL128393  20.055  29.151   9.023
 1956POPC   GL228394  19.668  29.176   8.911
 1956POPC   C1A28395  19.983  29.013   8.595
 1956POPC   D2A28396  19.679  29.164   8.347
 1956POPC   C3A28397  19.911  29.188   8.002
 1956POPC   C4A28398  20.214  29.138   7.696
 1956POPC   C1B28399  19.381  29.487   8.696
 1956POPC   C2B28400  19.262  29.458   8.279
 1956POPC   C3B28401  19.404  29.270   7.875
 1956POPC   C4B28402  19.343  29.254   7.394
 1957POPC   NC328403  10.102  19.675   9.529
 1957POPC   PO428404  10.702  20.054   9.462
 1957POPC   GL128405  10.369  20.006   9.171
 1957POPC   GL228406  10.366  19.654   9.062
 1957POPC   C1A28407  10.417  20.056   8.727
 1957POPC   D2A28408  10.366  19.800   8.382
 1957POPC   C3A28409  10.290  20.090   8.093
 1957POPC   C4A28410  10.534  20.202   7.763
 1957POPC   C1B28411  10.225  19.404   8.689
 1957POPC   C2B28412  10.279  19.277   8.264
 1957POPC   C3B28413  10.447  19.509   7.929
 1957POPC   C4B28414  10.229  19.800   7.686
 1958POPC   NC328415  28.978  37.123   9.769
 1958POPC   PO428416  29.584  37.027   9.465
 1958POPC   GL128417  29.285  36.924   9.106
 1958POPC   GL228418  29.451  36.714   8.853
 1958POPC   C1A28419  29.049  37.131   8.731
 1958POPC   D2A28420  28.938  37.043   8.258
 1958POPC   C3A28421  29.265  37.064   7.900
 1958POPC   C4A28422  29.733  37.018   7.852
 1958POPC   C1B28423  29.001  36.627   8.706
 1958POPC   C2B28424  28.760  36.535   8.328
 1958POPC   C3B28425  28.887  36.612   7.901
 1958POPC   C4B28426  29.292  36.581   7.688
 1959POPC   NC328427  39.657  44.400   9.850
 1959POPC   PO428428  39.202  44.787   9.598
 1959POPC   GL128429  39.267  44.737   9.159
 1959POPC   GL228430  39.575  44.929   9.174
 1959POPC   C1A28431  39.134  44.599   8.731
 1959POPC   D2A28432  38.760  44.412   8.538
 1959POPC   C3A28433  38.803  44.349   8.074
 1959POPC   C4A28434  39.126  44.660   7.916
 1959POPC   C1B28435  39.623  44.781   8.755
 1959POPC   C2B28436  39.442  44.834   8.350
 1959POPC   C3B28437  39.614  44.554   8.076
 1959POPC   C4B28438  39.587  44.507   7.679
 1960POPC   NC328439  22.450  17.012   9.508
 1960POPC   PO428440  22.170  17.558   9.699
 1960POPC   GL128441  22.285  17.733   9.284
 1960POPC   GL228442  22.299  17.411   9.139
 1960POPC   C1A28443  22.205  17.781   8.805
 1960POPC   D2A28444  22.314  17.701   8.349
 1960POPC   C3A28445  22.134  17.616   7.961
 1960POPC   C4A28446  22.295  17.684   7.573
 1960POPC   C1B28447  22.366  17.308   8.687
 1960POPC   C2B28448  22.421  17.219   8.231
 1960POPC   C3B28449  22.393  17.181   7.782
 1960POPC   C4B28450  22.359  17.250   7.352
 1961POPC   NC328451  39.689  17.680   9.733
 1961POPC   PO428452  39.983  18.288   9.540
 1961POPC   GL128453  39.869  18.488   9.080
 1961POPC   GL228454  39.606  18.248   8.874
 1961POPC   C1A28455  39.827  18.610   8.607
 1961POPC   D2A28456  39.763  18.378   8.220
 1961POPC   C3A28457  40.045  18.433   7.875
 1961POPC   C4A28458  40.034  18.270   7.429
 1961POPC   C1B28459  40.036  18.158   8.700
 1961POPC   C2B28460  40.222  18.145   8.268
 1961POPC   C3B28461  40.031  17.933   7.867
 1961POPC   C4B28462  40.077  17.760   7.424
 1962POPC   NC328463  15.710  42.040   9.408
 1962POPC   PO428464  15.469  42.655   9.440
 1962POPC   GL128465  15.646  42.448   9.100
 1962POPC   GL228466  16.016  42.334   9.107
 1962POPC   C1A28467  15.688  42.223   8.723
 1962POPC   D2A28468  16.007  42.315   8.440
 1962POPC   C3A28469  15.873  42.512   8.098
 1962POPC   C4A28470  15.704  42.451   7.702
 1962POPC   C1B28471  16.152  41.982   8.814
 1962POPC   C2B28472  16.085  41.808   8.394
 1962POPC   C3B28473  16.073  42.033   7.987
 1962POPC   C4B28474  16.223  42.419   7.745
 1963POPC   NC328475  42.726  25.736   9.444
 1963POPC   PO428476  43.168  26.173   9.634
 1963POPC   GL128477  42.998  26.152   9.200
 1963POPC   GL228478  42.824  26.464   9.139
 1963POPC   C1A28479  43.177  25.995   8.783
 1963POPC   D2A28480  43.076  25.924   8.346
 1963POPC   C3A28481  43.243  25.841   7.931
 1963POPC   C4A28482  43.159  25.771   7.479
 1963POPC   C1B28483  42.784  26.368   8.743
 1963POPC   C2B28484  42.782  26.518   8.358
 1963POPC   C3B28485  42.964  26.335   8.035
 1963POPC   C4B28486  42.859  26.359   7.642
 1964POPC   NC328487   5.997  33.193   9.859
 1964POPC   PO428488   6.169  32.594   9.632
 1964POPC   GL128489   6.155  32.585   9.214
 1964POPC   GL228490   5.936  32.854   9.097
 1964POPC   C1A28491   6.105  32.485   8.779
 1964POPC   D2A28492   6.150  32.726   8.374
 1964POPC   C3A28493   5.995  32.695   7.947
 1964POPC   C4A28494   6.179  32.591   7.553
 1964POPC   C1B28495   6.024  33.101   8.697
 1964POPC   C2B28496   5.896  33.397   8.320
 1964POPC   C3B28497   5.682  33.533   7.904
 1964POPC   C4B28498   5.673  33.459   7.438
 1965POPC   NC328499  34.182  38.635   9.371
 1965POPC   PO428500  34.663  38.131   9.454
 1965POPC   GL128501  34.572  38.428   9.124
 1965POPC   GL228502  34.307  38.277   8.945
 1965POPC   C1A28503  34.543  38.707   8.762
 1965POPC   D2A28504  34.350  38.514   8.425
 1965POPC   C3A28505  34.464  38.690   8.045
 1965POPC   C4A28506  34.785  38.879   7.797
 1965POPC   C1B28507  34.726  38.236   8.682
 1965POPC   C2B28508  34.832  38.409   8.258
 1965POPC   C3B28509  34.716  38.272   7.809
 1965POPC   C4B28510  34.806  38.238   7.317
 1966POPC   NC328511  35.725   7.603   9.414
 1966POPC   PO428512  36.435   7.607   9.500
 1966POPC   GL128513  36.214   7.363   9.149
 1966POPC   GL228514  35.925   7.473   8.965
 1966POPC   C1A28515  36.270   7.234   8.701
 1966POPC   D2A28516  36.225   7.465   8.315
 1966POPC   C3A28517  36.043   7.219   7.977
 1966POPC   C4A28518  36.026   7.325   7.527
 1966POPC   C1B28519  35.782   7.385   8.554
 1966POPC   C2B28520  35.774   7.730   8.262
 1966POPC   C3B28521  35.765   7.635   7.848
 1966POPC   C4B28522  35.549   7.215   7.791
 1967POPC   NC328523  38.277  39.006   9.556
 1967POPC   PO428524  38.693  39.610   9.549
 1967POPC   GL128525  38.477  39.463   9.115
 1967POPC   GL228526  38.366  39.122   9.065
 1967POPC   C1A28527  38.478  39.398   8.637
 1967POPC   D2A28528  38.698  39.308   8.222
 1967POPC   C3A28529  38.463  39.336   7.801
 1967POPC   C4A28530  38.282  39.534   7.380
 1967POPC   C1B28531  38.680  38.945   8.743
 1967POPC   C2B28532  38.677  38.709   8.349
 1967POPC   C3B28533  38.678  38.849   7.925
 1967POPC   C4B28534  38.437  38.884   7.548
 1968POPC   NC328535  20.899  35.604   9.382
 1968POPC   PO428536  20.684  36.260   9.504
 1968POPC   GL128537  20.628  36.051   9.083
 1968POPC   GL228538  20.924  35.927   8.932
 1968POPC   C1A28539  20.479  35.836   8.702
 1968POPC   D2A28540  20.800  35.809   8.384
 1968POPC   C3A28541  20.667  36.018   8.036
 1968POPC   C4A28542  20.621  35.938   7.637
 1968POPC   C1B28543  20.729  36.289   8.631
 1968POPC   C2B28544  20.638  36.492   8.209
 1968POPC   C3B28545  20.527  36.452   7.741
 1968POPC   C4B28546  20.651  36.309   7.308
 1969POPC   NC328547   7.110   8.288   9.492
 1969POPC   PO428548   7.717   7.933   9.478
 1969POPC   GL128549   7.545   8.238   9.178
 1969POPC   GL228550   7.314   7.994   9.121
 1969POPC   C1A28551   7.450   8.341   8.747
 1969POPC   D2A28552   7.590   8.224   8.336
 1969POPC   C3A28553   7.477   8.534   8.055
 1969POPC   C4A28554   7.326   8.371   7.652
 1969POPC   C1B28555   7.436   7.805   8.746
 1969POPC   C2B28556   7.285   7.809   8.356
 1969POPC   C3B28557   7.105   8.071   8.053
 1969POPC   C4B28558   7.018   7.950   7.652
 1970POPC   NC328559  25.973  43.356   9.630
 1970POPC   PO428560  26.096  42.704   9.483
 1970POPC   GL128561  26.207  43.024   9.185
 1970POPC   GL228562  25.913  43.182   9.158
 1970POPC   C1A28563  26.196  43.153   8.734
 1970POPC   D2A28564  26.346  43.320   8.312
 1970POPC   C3A28565  26.120  43.072   7.983
 1970POPC   C4A28566  26.162  42.896   7.527
 1970POPC   C1B28567  25.695  43.152   8.799
 1970POPC   C2B28568  25.811  43.276   8.379
 1970POPC   C3B28569  25.708  43.351   7.951
 1970POPC   C4B28570  25.684  42.946   7.710
 1971POPC   NC328571  26.738   7.025   9.528
 1971POPC   PO428572  26.946   6.374   9.443
 1971POPC   GL128573  26.798   6.319   9.035
 1971POPC   GL228574  26.983   6.612   8.948
 1971POPC   C1A28575  26.738   6.352   8.569
 1971POPC   D2A28576  26.388   6.474   8.292
 1971POPC   C3A28577  26.421   6.739   7.905
 1971POPC   C4A28578  26.697   6.992   7.646
 1971POPC   C1B28579  27.111   6.770   8.529
 1971POPC   C2B28580  26.919   6.787   8.155
 1971POPC   C3B28581  26.799   6.418   7.987
 1971POPC   C4B28582  26.450   6.179   7.854
 1972POPC   NC328583  42.968  43.566   9.473
 1972POPC   PO428584  43.281  44.198   9.556
 1972POPC   GL128585  43.132  44.020   9.209
 1972POPC   GL228586  43.313  43.718   9.128
 1972POPC   C1A28587  43.113  44.120   8.791
 1972POPC   D2A28588  43.310  44.200   8.406
 1972POPC   C3A28589  43.080  44.177   8.030
 1972POPC   C4A28590  42.960  43.954   7.672
 1972POPC   C1B28591  42.939  43.646   8.817
 1972POPC   C2B28592  42.937  43.821   8.383
 1972POPC   C3B28593  43.178  43.665   8.016
 1972POPC   C4B28594  42.956  43.414   7.706
 1973POPC   NC328595   1.486  16.216   9.746
 1973POPC   PO428596   0.957  16.036   9.265
 1973POPC   GL128597   1.262  15.790   8.992
 1973POPC   GL228598   1.500  15.513   9.145
 1973POPC   C1A28599   1.295  15.917   8.541
 1973POPC   D2A28600   1.001  16.066   8.198
 1973POPC   C3A28601   1.247  16.109   7.841
 1973POPC   C4A28602   1.365  15.885   7.497
 1973POPC   C1B28603   1.640  15.585   8.731
 1973POPC   C2B28604   1.744  15.729   8.295
 1973POPC   C3B28605   1.469  15.642   7.972
 1973POPC   C4B28606   1.477  15.397   7.590
 1974POPC   NC328607  29.113  19.212   9.577
 1974POPC   PO428608  29.550  18.730   9.466
 1974POPC   GL128609  29.281  18.890   9.134
 1974POPC   GL228610  29.053  19.170   9.089
 1974POPC   C1A28611  29.241  18.875   8.690
 1974POPC   D2A28612  29.136  19.026   8.275
 1974POPC   C3A28613  29.186  18.816   7.884
 1974POPC   C4A28614  28.969  18.791   7.481
 1974POPC   C1B28615  29.210  19.412   8.801
 1974POPC   C2B28616  29.332  19.497   8.395
 1974POPC   C3B28617  29.065  19.488   8.055
 1974POPC   C4B28618  29.115  19.281   7.687
 1975POPC   NC328619   6.176  16.599   9.549
 1975POPC   PO428620   6.828  16.775   9.489
 1975POPC   GL128621   6.755  16.612   9.108
 1975POPC   GL228622   6.423  16.683   9.102
 1975POPC   C1A28623   6.667  16.660   8.662
 1975POPC   D2A28624   6.685  16.566   8.250
 1975POPC   C3A28625   6.997  16.718   8.022
 1975POPC   C4A28626   7.057  16.568   7.640
 1975POPC   C1B28627   6.268  16.979   8.725
 1975POPC   C2B28628   6.250  17.169   8.319
 1975POPC   C3B28629   6.279  16.962   7.914
 1975POPC   C4B28630   6.570  16.647   7.736
 1976POPC   NC328631  27.798  30.078   9.687
 1976POPC   PO428632  27.480  29.517   9.763
 1976POPC   GL128633  27.543  29.708   9.341
 1976POPC   GL228634  27.803  29.510   9.186
 1976POPC   C1A28635  27.595  30.016   8.967
 1976POPC   D2A28636  27.514  29.946   8.497
 1976POPC   C3A28637  27.698  30.136   8.106
 1976POPC   C4A28638  27.536  30.174   7.696
 1976POPC   C1B28639  27.556  29.509   8.798
 1976POPC   C2B28640  27.655  29.434   8.379
 1976POPC   C3B28641  27.575  29.645   8.014
 1976POPC   C4B28642  27.660  29.696   7.606
 1977POPC   NC328643   6.880  19.659   9.669
 1977POPC   PO428644   6.426  20.151   9.463
 1977POPC   GL128645   6.487  19.836   9.150
 1977POPC   GL228646   6.824  19.683   9.146
 1977POPC   C1A28647   6.513  19.876   8.698
 1977POPC   D2A28648   6.512  20.177   8.331
 1977POPC   C3A28649   6.558  19.950   7.956
 1977POPC   C4A28650   6.476  19.498   7.848
 1977POPC   C1B28651   6.984  19.637   8.708
 1977POPC   C2B28652   6.820  19.635   8.289
 1977POPC   C3B28653   7.015  19.741   7.898
 1977POPC   C4B28654   6.808  19.671   7.482
 1978POPC   NC328655  37.036   5.510   9.465
 1978POPC   PO428656  36.384   5.261   9.415
 1978POPC   GL128657  36.771   5.324   9.068
 1978POPC   GL228658  37.033   5.038   9.007
 1978POPC   C1A28659  36.967   5.358   8.612
 1978POPC   D2A28660  36.998   5.001   8.275
 1978POPC   C3A28661  36.714   5.062   7.930
 1978POPC   C4A28662  36.343   5.321   7.758
 1978POPC   C1B28663  37.400   5.105   8.734
 1978POPC   C2B28664  37.417   5.249   8.330
 1978POPC   C3B28665  37.481   4.904   8.040
 1978POPC   C4B28666  37.151   4.704   7.810
 1979POPC   NC328667  11.768   5.464   9.504
 1979POPC   PO428668  12.275   5.833   9.444
 1979POPC   GL128669  11.900   5.951   9.181
 1979POPC   GL228670  11.652   5.688   9.046
 1979POPC   C1A28671  11.831   6.069   8.751
 1979POPC   D2A28672  12.137   5.942   8.455
 1979POPC   C3A28673  12.062   6.071   8.075
 1979POPC   C4A28674  11.968   5.947   7.696
 1979POPC   C1B28675  12.082   5.587   8.860
 1979POPC   C2B28676  12.344   5.466   8.506
 1979POPC   C3B28677  12.238   5.555   8.085
 1979POPC   C4B28678  12.282   5.341   7.720
 1980POPC   NC328679  13.489   1.540   9.548
 1980POPC   PO428680  13.796   0.961   9.417
 1980POPC   GL128681  13.568   1.248   9.140
 1980POPC   GL228682  13.751   1.589   9.099
 1980POPC   C1A28683  13.498   1.392   8.730
 1980POPC   D2A28684  13.789   1.283   8.407
 1980POPC   C3A28685  13.578   1.343   8.026
 1980POPC   C4A28686  13.493   1.145   7.672
 1980POPC   C1B28687  13.931   1.722   8.704
 1980POPC   C2B28688  14.018   1.734   8.250
 1980POPC   C3B28689  14.063   1.429   7.960
 1980POPC   C4B28690  13.892   1.418   7.560
 1981POPC   NC328691  16.151   3.485   9.500
 1981POPC   PO428692  15.544   3.574   9.771
 1981POPC   GL128693  15.705   3.544   9.273
 1981POPC   GL228694  16.017   3.777   9.110
 1981POPC   C1A28695  15.945   3.318   8.898
 1981POPC   D2A28696  15.997   3.451   8.462
 1981POPC   C3A28697  16.055   3.239   8.065
 1981POPC   C4A28698  15.882   3.236   7.671
 1981POPC   C1B28699  15.693   3.745   8.769
 1981POPC   C2B28700  15.584   3.779   8.378
 1981POPC   C3B28701  15.844   3.706   8.036
 1981POPC   C4B28702  15.886   3.749   7.599
 1982POPC   NC328703   0.429  35.052   9.524
 1982POPC   PO428704   0.689  35.617   9.746
 1982POPC   GL128705   0.550  35.541   9.281
 1982POPC   GL228706   0.256  35.772   9.215
 1982POPC   C1A28707   0.665  35.239   8.876
 1982POPC   D2A28708   0.803  35.048   8.417
 1982POPC   C3A28709   0.578  35.159   7.980
 1982POPC   C4A28710   0.447  35.026   7.518
 1982POPC   C1B28711   0.313  35.602   8.790
 1982POPC   C2B28712   0.607  35.518   8.434
 1982POPC   C3B28713   0.623  35.699   8.024
 1982POPC   C4B28714   0.241  35.557   7.886
 1983POPC   NC328715  12.067  27.824   9.597
 1983POPC   PO428716  11.876  27.157   9.672
 1983POPC   GL128717  11.980  27.374   9.306
 1983POPC   GL228718  11.809  27.657   9.180
 1983POPC   C1A28719  12.086  27.277   8.897
 1983POPC   D2A28720  12.223  27.271   8.483
 1983POPC   C3A28721  12.270  27.517   8.149
 1983POPC   C4A28722  12.053  27.376   7.809
 1983POPC   C1B28723  12.041  27.763   8.799
 1983POPC   C2B28724  12.019  27.908   8.380
 1983POPC   C3B28725  11.913  27.834   7.958
 1983POPC   C4B28726  12.108  27.993   7.613
 1984POPC   NC328727  10.437  31.702   9.470
 1984POPC   PO428728  10.446  31.102   9.697
 1984POPC   GL128729  10.578  31.307   9.226
 1984POPC   GL228730  10.816  31.637   9.148
 1984POPC   C1A28731  10.498  31.321   8.771
 1984POPC   D2A28732  10.280  31.408   8.371
 1984POPC   C3A28733  10.145  31.294   7.966
 1984POPC   C4A28734  10.362  31.265   7.633
 1984POPC   C1B28735  10.922  31.610   8.722
 1984POPC   C2B28736  10.793  31.418   8.325
 1984POPC   C3B28737  10.559  31.606   7.984
 1984POPC   C4B28738  10.735  31.741   7.586
 1985POPC   NC328739  42.824  21.931   9.528
 1985POPC   PO428740  43.242  22.499   9.451
 1985POPC   GL128741  43.001  22.273   9.158
 1985POPC   GL228742  43.171  21.977   9.071
 1985POPC   C1A28743  42.880  22.205   8.725
 1985POPC   D2A28744  42.912  21.899   8.386
 1985POPC   C3A28745  42.909  22.023   7.943
 1985POPC   C4A28746  43.188  22.043   7.598
 1985POPC   C1B28747  43.481  21.810   8.779
 1985POPC   C2B28748  43.374  21.678   8.376
 1985POPC   C3B28749  43.445  21.899   8.022
 1985POPC   C4B28750  43.679  21.963   7.704
 1986POPC   NC328751   7.757   6.644   9.573
 1986POPC   PO428752   7.348   7.119   9.439
 1986POPC   GL128753   7.632   6.782   9.096
 1986POPC   GL228754   7.791   6.441   9.108
 1986POPC   C1A28755   7.513   6.822   8.646
 1986POPC   D2A28756   7.124   6.894   8.380
 1986POPC   C3A28757   7.166   6.840   7.923
 1986POPC   C4A28758   7.276   6.536   7.590
 1986POPC   C1B28759   7.941   6.553   8.688
 1986POPC   C2B28760   7.924   6.801   8.309
 1986POPC   C3B28761   7.647   6.637   7.969
 1986POPC   C4B28762   7.791   6.493   7.555
 1987POPC   NC328763  23.050  37.651   9.809
 1987POPC   PO428764  22.607  37.519   9.282
 1987POPC   GL128765  23.036  37.536   9.164
 1987POPC   GL228766  23.201  37.859   9.109
 1987POPC   C1A28767  23.248  37.476   8.766
 1987POPC   D2A28768  23.116  37.636   8.378
 1987POPC   C3A28769  23.128  37.350   8.061
 1987POPC   C4A28770  22.946  37.577   7.749
 1987POPC   C1B28771  22.863  37.851   8.762
 1987POPC   C2B28772  22.709  38.032   8.363
 1987POPC   C3B28773  22.811  38.047   7.923
 1987POPC   C4B28774  22.725  38.094   7.487
 1988POPC   NC328775  14.382  18.104   9.561
 1988POPC   PO428776  14.362  18.772   9.477
 1988POPC   GL128777  14.545  18.434   9.182
 1988POPC   GL228778  14.262  18.201   9.078
 1988POPC   C1A28779  14.663  18.270   8.762
 1988POPC   D2A28780  14.436  18.335   8.363
 1988POPC   C3A28781  14.593  18.399   7.954
 1988POPC   C4A28782  14.281  18.662   7.803
 1988POPC   C1B28783  14.224  17.986   8.681
 1988POPC   C2B28784  14.221  17.798   8.278
 1988POPC   C3B28785  14.357  17.936   7.883
 1988POPC   C4B28786  14.170  18.205   7.580
 1989POPC   NC328787   2.171   6.353   9.232
 1989POPC   PO428788   2.123   6.996   9.518
 1989POPC   GL128789   1.992   6.840   9.108
 1989POPC   GL228790   1.643   6.713   9.119
 1989POPC   C1A28791   2.140   6.679   8.678
 1989POPC   D2A28792   2.242   6.432   8.297
 1989POPC   C3A28793   2.041   6.684   7.967
 1989POPC   C4A28794   2.203   7.031   7.737
 1989POPC   C1B28795   1.685   6.424   8.744
 1989POPC   C2B28796   1.706   6.399   8.279
 1989POPC   C3B28797   1.643   6.403   7.826
 1989POPC   C4B28798   1.857   6.289   7.429
 1990POPC   NC328799   0.011  14.450   9.454
 1990POPC   PO428800  44.343  14.283   9.642
 1990POPC   GL128801  44.524  14.461   9.251
 1990POPC   GL228802  44.663  14.165   9.185
 1990POPC   C1A28803  44.638  14.589   8.798
 1990POPC   D2A28804  44.960  14.572   8.423
 1990POPC   C3A28805  44.807  14.670   7.986
 1990POPC   C4A28806  44.390  14.525   7.837
 1990POPC   C1B28807  44.816  14.112   8.778
 1990POPC   C2B28808  44.906  14.064   8.367
 1990POPC   C3B28809  44.732  14.161   8.006
 1990POPC   C4B28810  44.828  14.280   7.629
 1991POPC   NC328811  32.015  26.113   9.406
 1991POPC   PO428812  32.577  25.757   9.500
 1991POPC   GL128813  32.406  25.875   9.122
 1991POPC   GL228814  32.447  26.209   9.136
 1991POPC   C1A28815  32.402  25.891   8.668
 1991POPC   D2A28816  32.336  25.618   8.294
 1991POPC   C3A28817  32.103  25.824   8.004
 1991POPC   C4A28818  32.311  25.839   7.675
 1991POPC   C1B28819  32.279  26.407   8.789
 1991POPC   C2B28820  32.198  26.294   8.362
 1991POPC   C3B28821  32.310  26.292   7.931
 1991POPC   C4B28822  32.091  26.272   7.506
 1992POPC   NC328823  30.321   8.100   9.486
 1992POPC   PO428824  29.717   8.301   9.636
 1992POPC   GL128825  29.885   8.105   9.196
 1992POPC   GL228826  29.808   8.366   8.944
 1992POPC   C1A28827  29.820   7.908   8.737
 1992POPC   D2A28828  29.836   8.262   8.384
 1992POPC   C3A28829  29.687   8.178   7.966
 1992POPC   C4A28830  29.818   8.335   7.567
 1992POPC   C1B28831  30.182   8.220   8.758
 1992POPC   C2B28832  30.222   7.952   8.375
 1992POPC   C3B28833  30.201   8.127   7.963
 1992POPC   C4B28834  30.196   7.986   7.573
 1993POPC   NC328835   8.326   1.290   9.588
 1993POPC   PO428836   7.917   0.776   9.600
 1993POPC   GL128837   8.126   0.996   9.216
 1993POPC   GL228838   8.103   1.391   9.143
 1993POPC   C1A28839   8.331   1.079   8.796
 1993POPC   D2A28840   8.444   0.916   8.373
 1993POPC   C3A28841   8.244   1.171   8.035
 1993POPC   C4A28842   7.822   1.278   7.743
 1993POPC   C1B28843   8.354   1.596   8.790
 1993POPC   C2B28844   8.272   1.693   8.332
 1993POPC   C3B28845   8.129   1.641   7.894
 1993POPC   C4B28846   8.535   1.509   7.775
 1994POPC   NC328847   7.415  20.806   9.510
 1994POPC   PO428848   7.281  20.064   9.496
 1994POPC   GL128849   7.323  20.438   9.145
 1994POPC   GL228850   7.555  20.756   9.045
 1994POPC   C1A28851   7.124  20.669   8.782
 1994POPC   D2A28852   7.419  20.848   8.505
 1994POPC   C3A28853   7.347  20.852   8.075
 1994POPC   C4A28854   7.499  20.587   7.769
 1994POPC   C1B28855   7.773  20.567   8.760
 1994POPC   C2B28856   7.956  20.495   8.421
 1994POPC   C3B28857   7.923  20.325   8.055
 1994POPC   C4B28858   7.871  20.261   7.700
 1995POPC   NC328859   0.779  16.830   9.604
 1995POPC   PO428860   0.130  16.536   9.520
 1995POPC   GL128861   0.392  16.838   9.231
 1995POPC   GL228862   0.750  17.025   9.133
 1995POPC   C1A28863   0.397  16.872   8.791
 1995POPC   D2A28864   0.239  16.975   8.410
 1995POPC   C3A28865   0.343  16.750   8.088
 1995POPC   C4A28866   0.368  16.775   7.691
 1995POPC   C1B28867   0.918  17.128   8.728
 1995POPC   C2B28868   0.746  17.026   8.329
 1995POPC   C3B28869   0.817  16.888   7.910
 1995POPC   C4B28870   0.799  16.797   7.425
 1996POPC   NC328871  26.797  41.060   9.316
 1996POPC   PO428872  27.149  40.513   9.550
 1996POPC   GL128873  26.918  40.555   9.166
 1996POPC   GL228874  26.556  40.572   9.223
 1996POPC   C1A28875  26.856  40.733   8.733
 1996POPC   D2A28876  26.980  41.051   8.450
 1996POPC   C3A28877  27.220  40.955   8.087
 1996POPC   C4A28878  26.994  41.073   7.737
 1996POPC   C1B28879  26.407  40.533   8.787
 1996POPC   C2B28880  26.475  40.737   8.356
 1996POPC   C3B28881  26.546  40.705   7.890
 1996POPC   C4B28882  26.601  40.312   7.668
 1997POPC   NC328883  14.393  24.129   9.494
 1997POPC   PO428884  14.169  24.717   9.721
 1997POPC   GL128885  14.424  24.573   9.250
 1997POPC   GL228886  14.617  24.222   9.060
 1997POPC   C1A28887  14.327  24.499   8.775
 1997POPC   D2A28888  14.556  24.578   8.429
 1997POPC   C3A28889  14.400  24.439   8.084
 1997POPC   C4A28890  14.569  24.440   7.708
 1997POPC   C1B28891  14.255  24.006   8.847
 1997POPC   C2B28892  14.054  23.903   8.455
 1997POPC   C3B28893  13.982  24.141   8.090
 1997POPC   C4B28894  14.095  24.241   7.649
 1998POPC   NC328895  34.384  36.894   9.568
 1998POPC   PO428896  35.029  37.203   9.517
 1998POPC   GL128897  34.884  36.940   9.145
 1998POPC   GL228898  34.682  36.651   9.144
 1998POPC   C1A28899  34.832  36.821   8.701
 1998POPC   D2A28900  34.695  36.888   8.304
 1998POPC   C3A28901  34.757  37.240   8.073
 1998POPC   C4A28902  34.638  37.212   7.655
 1998POPC   C1B28903  34.343  36.579   8.785
 1998POPC   C2B28904  34.231  36.695   8.298
 1998POPC   C3B28905  34.442  36.783   7.866
 1998POPC   C4B28906  34.687  36.733   7.462
 1999POPC   NC328907  30.947  38.663   9.575
 1999POPC   PO428908  30.292  38.404   9.514
 1999POPC   GL128909  30.617  38.361   9.157
 1999POPC   GL228910  30.317  38.259   9.019
 1999POPC   C1A28911  30.838  38.460   8.685
 1999POPC   D2A28912  30.954  38.629   8.240
 1999POPC   C3A28913  30.946  38.378   7.807
 1999POPC   C4A28914  30.773  38.223   7.374
 1999POPC   C1B28915  30.395  38.665   8.798
 1999POPC   C2B28916  30.375  38.574   8.380
 1999POPC   C3B28917  30.518  38.630   7.975
 1999POPC   C4B28918  30.399  38.507   7.580
 2000POPC   NC328919  13.090  38.600   9.573
 2000POPC   PO428920  12.470  38.464   9.610
 2000POPC   GL128921  12.702  38.491   9.234
 2000POPC   GL228922  12.667  38.186   9.158
 2000POPC   C1A28923  12.737  38.699   8.820
 2000POPC   D2A28924  12.733  38.539   8.387
 2000POPC   C3A28925  12.865  38.713   8.002
 2000POPC   C4A28926  12.571  38.837   7.685
 2000POPC   C1B28927  12.880  38.206   8.739
 2000POPC   C2B28928  13.096  38.177   8.291
 2000POPC   C3B28929  13.143  38.192   7.815
 2000POPC   C4B28930  13.134  38.095   7.315
 2001POPC   NC328931  14.541  42.780   9.835
 2001POPC   PO428932  14.565  43.404   9.834
 2001POPC   GL128933  14.519  43.264   9.349
 2001POPC   GL228934  14.562  42.934   9.307
 2001POPC   C1A28935  14.244  43.166   8.935
 2001POPC   D2A28936  14.075  43.352   8.516
 2001POPC   C3A28937  14.275  43.240   8.095
 2001POPC   C4A28938  14.372  43.193   7.631
 2001POPC   C1B28939  14.758  43.106   8.910
 2001POPC   C2B28940  14.664  43.132   8.454
 2001POPC   C3B28941  14.774  43.081   7.993
 2001POPC   C4B28942  14.871  43.380   7.650
 2002POPC   NC328943   7.887  35.838   9.514
 2002POPC   PO428944   8.186  35.238   9.621
 2002POPC   GL128945   8.136  35.242   9.174
 2002POPC   GL228946   8.012  35.561   9.102
 2002POPC   C1A28947   7.902  35.205   8.761
 2002POPC   D2A28948   7.774  35.370   8.358
 2002POPC   C3A28949   7.971  35.401   7.938
 2002POPC   C4A28950   7.997  35.369   7.455
 2002POPC   C1B28951   8.140  35.663   8.683
 2002POPC   C2B28952   8.318  35.507   8.308
 2002POPC   C3B28953   8.429  35.613   7.866
 2002POPC   C4B28954   8.269  35.809   7.472
 2003POPC   NC328955  16.101  24.107   9.761
 2003POPC   PO428956  15.689  23.619   9.484
 2003POPC   GL128957  15.979  23.735   9.138
 2003POPC   GL228958  16.266  23.497   9.015
 2003POPC   C1A28959  15.925  23.838   8.716
 2003POPC   D2A28960  15.625  23.929   8.392
 2003POPC   C3A28961  15.806  23.932   7.995
 2003POPC   C4A28962  16.085  24.067   7.670
 2003POPC   C1B28963  15.887  23.334   8.830
 2003POPC   C2B28964  15.740  23.407   8.446
 2003POPC   C3B28965  15.916  23.444   8.079
 2003POPC   C4B28966  15.773  23.544   7.665
 2004POPC   NC328967  31.527  29.050   9.722
 2004POPC   PO428968  31.189  29.456   9.266
 2004POPC   GL128969  31.302  29.052   9.081
 2004POPC   GL228970  31.646  28.908   9.179
 2004POPC   C1A28971  31.261  29.078   8.629
 2004POPC   D2A28972  31.513  29.241   8.290
 2004POPC   C3A28973  31.298  29.321   7.874
 2004POPC   C4A28974  31.496  29.332   7.462
 2004POPC   C1B28975  31.715  28.866   8.715
 2004POPC   C2B28976  31.807  28.809   8.243
 2004POPC   C3B28977  31.737  29.055   7.837
 2004POPC   C4B28978  31.759  28.903   7.377
 2005POPC   NC328979  36.027  20.143   9.355
 2005POPC   PO428980  36.274  19.538   9.521
 2005POPC   GL128981  36.212  19.576   9.067
 2005POPC   GL228982  35.858  19.667   8.967
 2005POPC   C1A28983  36.295  19.806   8.683
 2005POPC   D2A28984  36.128  19.950   8.284
 2005POPC   C3A28985  36.293  19.754   7.906
 2005POPC   C4A28986  36.414  19.468   7.544
 2005POPC   C1B28987  35.645  20.071   8.784
 2005POPC   C2B28988  35.670  20.415   8.487
 2005POPC   C3B28989  35.873  20.352   8.088
 2005POPC   C4B28990  35.865  20.031   7.817
 2006POPC   NC328991  31.664  38.648   9.450
 2006POPC   PO428992  31.131  38.221   9.668
 2006POPC   GL128993  31.321  38.297   9.240
 2006POPC   GL228994  31.655  38.127   9.175
 2006POPC   C1A28995  31.436  38.411   8.785
 2006POPC   D2A28996  31.395  38.328   8.319
 2006POPC   C3A28997  31.383  38.643   7.947
 2006POPC   C4A28998  31.239  38.690   7.483
 2006POPC   C1B28999  31.935  38.225   8.803
 2006POPC   C2B29000  31.965  38.379   8.388
 2006POPC   C3B29001  31.782  38.223   8.003
 2006POPC   C4B29002  31.680  38.390   7.622
 2007POPC   NC329003  40.377  35.997   9.257
 2007POPC   PO429004  39.790  36.420   9.365
 2007POPC   GL129005  39.925  36.172   9.051
 2007POPC   GL229006  39.869  35.854   9.079
 2007POPC   C1A29007  40.094  36.085   8.640
 2007POPC   D2A29008  40.184  36.372   8.319
 2007POPC   C3A29009  39.994  36.245   7.974
 2007POPC   C4A29010  40.312  36.065   7.753
 2007POPC   C1B29011  39.586  35.956   8.732
 2007POPC   C2B29012  39.664  35.967   8.312
 2007POPC   C3B29013  39.687  35.825   7.933
 2007POPC   C4B29014  39.834  35.844   7.506
 2008POPC   NC329015  16.219  22.587   9.446
 2008POPC   PO429016  15.736  21.960   9.521
 2008POPC   GL129017  15.874  22.221   9.249
 2008POPC   GL229018  16.198  22.107   9.269
 2008POPC   C1A29019  15.995  22.332   8.837
 2008POPC   D2A29020  16.086  22.464   8.443
 2008POPC   C3A29021  15.896  22.261   8.146
 2008POPC   C4A29022  15.872  22.286   7.741
 2008POPC   C1B29023  16.154  21.859   8.900
 2008POPC   C2B29024  16.095  21.932   8.481
 2008POPC   C3B29025  16.252  21.859   8.062
 2008POPC   C4B29026  16.142  21.749   7.665
 2009POPC   NC329027  22.757  40.942   9.604
 2009POPC   PO429028  23.254  40.468   9.581
 2009POPC   GL129029  23.028  40.684   9.239
 2009POPC   GL229030  23.129  40.999   9.261
 2009POPC   C1A29031  22.745  40.893   8.898
 2009POPC   D2A29032  22.569  40.794   8.512
 2009POPC   C3A29033  22.700  40.855   8.121
 2009POPC   C4A29034  22.817  40.676   7.746
 2009POPC   C1B29035  23.227  40.940   8.820
 2009POPC   C2B29036  23.053  41.070   8.449
 2009POPC   C3B29037  23.172  41.009   8.035
 2009POPC   C4B29038  23.299  40.841   7.674
 2010POPC   NC329039  10.312  35.618   9.532
 2010POPC   PO429040  10.603  35.003   9.584
 2010POPC   GL129041  10.623  35.276   9.245
 2010POPC   GL229042  10.307  35.274   9.125
 2010POPC   C1A29043  10.740  35.370   8.817
 2010POPC   D2A29044  10.669  35.538   8.406
 2010POPC   C3A29045  10.889  35.318   8.100
 2010POPC   C4A29046  10.755  35.183   7.714
 2010POPC   C1B29047  10.300  35.628   8.840
 2010POPC   C2B29048  10.203  35.839   8.452
 2010POPC   C3B29049  10.278  35.719   8.058
 2010POPC   C4B29050  10.377  35.520   7.700
 2011POPC   NC329051  23.955  23.792   9.411
 2011POPC   PO429052  24.704  23.609   9.545
 2011POPC   GL129053  24.556  23.822   9.217
 2011POPC   GL229054  24.326  23.610   9.102
 2011POPC   C1A29055  24.575  23.956   8.802
 2011POPC   D2A29056  24.289  23.978   8.469
 2011POPC   C3A29057  24.420  23.897   8.073
 2011POPC   C4A29058  24.279  23.791   7.686
 2011POPC   C1B29059  24.664  23.440   8.857
 2011POPC   C2B29060  24.637  23.580   8.425
 2011POPC   C3B29061  24.581  23.425   8.002
 2011POPC   C4B29062  24.476  23.348   7.522
 2012POPC   NC329063   5.010  43.476   9.781
 2012POPC   PO429064   5.460  42.966   9.579
 2012POPC   GL129065   5.368  43.097   9.181
 2012POPC   GL229066   5.181  42.836   8.960
 2012POPC   C1A29067   5.443  43.232   8.781
 2012POPC   D2A29068   5.143  43.116   8.464
 2012POPC   C3A29069   5.317  43.202   8.075
 2012POPC   C4A29070   5.221  42.944   7.750
 2012POPC   C1B29071   4.806  43.091   8.855
 2012POPC   C2B29072   4.568  43.199   8.477
 2012POPC   C3B29073   4.790  43.195   8.059
 2012POPC   C4B29074   4.934  43.369   7.665
 2013POPC   NC329075  35.628  13.823   9.422
 2013POPC   PO429076  35.071  13.524   9.669
 2013POPC   GL129077  35.170  13.599   9.178
 2013POPC   GL229078  34.992  13.850   8.983
 2013POPC   C1A29079  35.455  13.683   8.805
 2013POPC   D2A29080  35.499  13.910   8.407
 2013POPC   C3A29081  35.542  13.689   8.016
 2013POPC   C4A29082  35.556  13.623   7.584
 2013POPC   C1B29083  35.019  13.817   8.565
 2013POPC   C2B29084  35.041  13.613   8.193
 2013POPC   C3B29085  35.047  13.585   7.748
 2013POPC   C4B29086  35.119  13.515   7.305
 2014POPC   NC329087  26.746  17.994   9.883
 2014POPC   PO429088  26.808  17.427   9.477
 2014POPC   GL129089  26.760  17.436   9.036
 2014POPC   GL229090  26.823  17.776   9.030
 2014POPC   C1A29091  26.784  17.502   8.567
 2014POPC   D2A29092  26.944  17.344   8.180
 2014POPC   C3A29093  26.727  17.445   7.814
 2014POPC   C4A29094  26.818  17.219   7.427
 2014POPC   C1B29095  27.212  17.668   8.785
 2014POPC   C2B29096  27.262  17.708   8.354
 2014POPC   C3B29097  27.124  17.770   7.947
 2014POPC   C4B29098  27.198  17.496   7.607
 2015POPC   NC329099  13.573  34.544   9.545
 2015POPC   PO429100  13.857  35.088   9.299
 2015POPC   GL129101  13.631  34.809   8.993
 2015POPC   GL229102  13.667  34.450   9.050
 2015POPC   C1A29103  13.339  34.828   8.645
 2015POPC   D2A29104  13.331  34.671   8.213
 2015POPC   C3A29105  13.628  34.781   7.878
 2015POPC   C4A29106  13.698  34.657   7.445
 2015POPC   C1B29107  13.605  34.375   8.611
 2015POPC   C2B29108  13.800  34.392   8.190
 2015POPC   C3B29109  13.828  34.264   7.746
 2015POPC   C4B29110  13.674  34.167   7.308
 2016POPC   NC329111   1.722   0.063   9.360
 2016POPC   PO429112   1.124   0.278   9.441
 2016POPC   GL129113   1.082   0.430   9.021
 2016POPC   GL229114   0.784   0.693   9.008
 2016POPC   C1A29115   1.440   0.494   8.681
 2016POPC   D2A29116   1.628   0.414   8.243
 2016POPC   C3A29117   1.442   0.382   7.800
 2016POPC   C4A29118   1.517   0.542   7.340
 2016POPC   C1B29119   1.004   0.746   8.630
 2016POPC   C2B29120   1.114   0.472   8.282
 2016POPC   C3B29121   1.135   0.752   7.946
 2016POPC   C4B29122   1.065   0.652   7.527
 2017POPC   NC329123   7.784  16.058   9.275
 2017POPC   PO429124   7.208  15.850   9.509
 2017POPC   GL129125   7.367  15.782   9.121
 2017POPC   GL229126   7.264  16.123   9.064
 2017POPC   C1A29127   7.251  15.786   8.691
 2017POPC   D2A29128   7.206  15.528   8.374
 2017POPC   C3A29129   7.223  15.767   8.046
 2017POPC   C4A29130   7.030  15.815   7.693
 2017POPC   C1B29131   7.499  16.251   8.721
 2017POPC   C2B29132   7.522  16.160   8.302
 2017POPC   C3B29133   7.331  16.255   7.923
 2017POPC   C4B29134   7.514  16.337   7.527
 2018POPC   NC329135  41.145   5.769   9.490
 2018POPC   PO429136  41.787   5.801   9.465
 2018POPC   GL129137  41.527   5.899   9.094
 2018POPC   GL229138  41.233   5.687   8.999
 2018POPC   C1A29139  41.565   5.995   8.637
 2018POPC   D2A29140  41.768   5.861   8.255
 2018POPC   C3A29141  41.789   6.074   7.938
 2018POPC   C4A29142  41.721   5.790   7.696
 2018POPC   C1B29143  41.080   6.088   8.795
 2018POPC   C2B29144  41.145   6.236   8.370
 2018POPC   C3B29145  41.273   5.956   8.045
 2018POPC   C4B29146  41.264   5.973   7.606
 2019POPC   NC329147  30.157   5.117   9.551
 2019POPC   PO429148  29.501   5.259   9.628
 2019POPC   GL129149  29.676   5.058   9.222
 2019POPC   GL229150  29.984   4.880   9.157
 2019POPC   C1A29151  29.777   5.122   8.765
 2019POPC   D2A29152  29.784   5.359   8.373
 2019POPC   C3A29153  29.966   5.213   7.979
 2019POPC   C4A29154  29.656   5.289   7.677
 2019POPC   C1B29155  30.164   4.784   8.774
 2019POPC   C2B29156  30.076   4.904   8.370
 2019POPC   C3B29157  30.163   4.707   7.969
 2019POPC   C4B29158  30.335   4.974   7.700
 2020POPC   NC329159  27.565  33.346   9.409
 2020POPC   PO429160  27.722  32.622   9.426
 2020POPC   GL129161  27.541  32.890   9.145
 2020POPC   GL229162  27.865  33.040   9.151
 2020POPC   C1A29163  27.562  33.107   8.732
 2020POPC   D2A29164  27.399  33.010   8.314
 2020POPC   C3A29165  27.517  33.187   7.924
 2020POPC   C4A29166  27.901  33.197   7.679
 2020POPC   C1B29167  27.906  32.725   8.814
 2020POPC   C2B29168  27.826  32.671   8.410
 2020POPC   C3B29169  27.876  32.806   8.014
 2020POPC   C4B29170  27.844  32.626   7.625
 2021POPC   NC329171  18.913   8.665   9.323
 2021POPC   PO429172  18.747   9.196   9.718
 2021POPC   GL129173  19.106   9.109   9.211
 2021POPC   GL229174  19.349   9.357   9.121
 2021POPC   C1A29175  19.032   9.140   8.723
 2021POPC   D2A29176  18.923   8.862   8.368
 2021POPC   C3A29177  18.765   9.008   7.992
 2021POPC   C4A29178  19.124   9.022   7.731
 2021POPC   C1B29179  19.522   9.247   8.714
 2021POPC   C2B29180  19.382   9.169   8.297
 2021POPC   C3B29181  19.587   9.066   7.927
 2021POPC   C4B29182  19.569   8.935   7.477
 2022POPC   NC329183  20.736  38.981   9.399
 2022POPC   PO429184  20.265  39.459   9.458
 2022POPC   GL129185  20.495  39.373   9.108
 2022POPC   GL229186  20.846  39.376   9.086
 2022POPC   C1A29187  20.468  39.047   8.815
 2022POPC   D2A29188  20.251  39.017   8.454
 2022POPC   C3A29189  20.454  39.008   8.075
 2022POPC   C4A29190  20.365  39.242   7.734
 2022POPC   C1B29191  20.955  39.156   8.711
 2022POPC   C2B29192  20.947  39.122   8.252
 2022POPC   C3B29193  20.834  39.377   7.886
 2022POPC   C4B29194  20.873  39.346   7.443
 2023POPC   NC329195  24.886  24.157   9.432
 2023POPC   PO429196  24.214  24.182   9.378
 2023POPC   GL129197  24.529  24.384   9.092
 2023POPC   GL229198  24.618  24.717   9.239
 2023POPC   C1A29199  24.663  24.436   8.633
 2023POPC   D2A29200  24.489  24.399   8.188
 2023POPC   C3A29201  24.704  24.231   7.800
 2023POPC   C4A29202  24.585  24.056   7.376
 2023POPC   C1B29203  24.417  24.849   8.860
 2023POPC   C2B29204  24.438  24.855   8.445
 2023POPC   C3B29205  24.692  24.872   8.122
 2023POPC   C4B29206  24.606  24.729   7.711
 2024POPC   NC329207  27.584  20.988   9.432
 2024POPC   PO429208  27.363  21.697   9.487
 2024POPC   GL129209  27.444  21.599   9.109
 2024POPC   GL229210  27.747  21.461   9.149
 2024POPC   C1A29211  27.369  21.677   8.707
 2024POPC   D2A29212  27.505  21.506   8.341
 2024POPC   C3A29213  27.344  21.578   7.964
 2024POPC   C4A29214  27.472  21.720   7.527
 2024POPC   C1B29215  27.640  21.234   8.770
 2024POPC   C2B29216  27.817  21.087   8.388
 2024POPC   C3B29217  27.847  21.240   7.959
 2024POPC   C4B29218  27.568  21.233   7.635
 2025POPC   NC329219  16.369   5.119   9.341
 2025POPC   PO429220  17.012   5.301   9.529
 2025POPC   GL129221  17.115   5.154   9.128
 2025POPC   GL229222  16.812   4.957   9.115
 2025POPC   C1A29223  17.063   5.022   8.693
 2025POPC   D2A29224  16.801   4.848   8.423
 2025POPC   C3A29225  16.968   4.982   8.068
 2025POPC   C4A29226  16.856   5.224   7.710
 2025POPC   C1B29227  16.511   5.076   8.749
 2025POPC   C2B29228  16.334   5.108   8.364
 2025POPC   C3B29229  16.473   5.057   7.993
 2025POPC   C4B29230  16.368   5.342   7.670
 2026POPC   NC329231  36.547   7.132   9.471
 2026POPC   PO429232  37.213   7.414   9.447
 2026POPC   GL129233  37.069   7.574   9.078
 2026POPC   GL229234  36.728   7.509   9.101
 2026POPC   C1A29235  37.099   7.400   8.687
 2026POPC   D2A29236  37.400   7.382   8.368
 2026POPC   C3A29237  37.177   7.418   7.987
 2026POPC   C4A29238  36.949   7.291   7.642
 2026POPC   C1B29239  36.634   7.585   8.689
 2026POPC   C2B29240  36.732   7.406   8.282
 2026POPC   C3B29241  36.511   7.407   7.884
 2026POPC   C4B29242  36.476   7.681   7.503
 2027POPC   NC329243  18.934   4.654   9.689
 2027POPC   PO429244  19.264   4.136   9.576
 2027POPC   GL129245  18.996   4.293   9.191
 2027POPC   GL229246  18.665   4.168   9.037
 2027POPC   C1A29247  18.966   4.406   8.719
 2027POPC   D2A29248  18.990   4.177   8.314
 2027POPC   C3A29249  19.159   4.427   7.954
 2027POPC   C4A29250  19.020   4.527   7.533
 2027POPC   C1B29251  18.542   4.116   8.595
 2027POPC   C2B29252  18.539   4.022   8.141
 2027POPC   C3B29253  18.807   4.098   7.777
 2027POPC   C4B29254  18.718   4.141   7.326
 2028POPC   NC329255  42.717  23.646   9.347
 2028POPC   PO429256  43.327  23.418   9.395
 2028POPC   GL129257  43.206  23.716   9.139
 2028POPC   GL229258  43.456  23.933   9.254
 2028POPC   C1A29259  42.968  23.769   8.752
 2028POPC   D2A29260  43.099  23.626   8.361
 2028POPC   C3A29261  42.951  23.405   8.016
 2028POPC   C4A29262  42.973  23.603   7.621
 2028POPC   C1B29263  43.459  23.999   8.796
 2028POPC   C2B29264  43.203  24.123   8.445
 2028POPC   C3B29265  43.170  24.022   8.016
 2028POPC   C4B29266  43.398  23.853   7.684
 2029POPC   NC329267  11.715  32.366  10.286
 2029POPC   PO429268  11.400  32.205   9.702
 2029POPC   GL129269  11.134  32.084   9.238
 2029POPC   GL229270  11.271  31.829   9.031
 2029POPC   C1A29271  10.968  32.134   8.769
 2029POPC   D2A29272  11.203  32.313   8.368
 2029POPC   C3A29273  11.136  32.401   7.954
 2029POPC   C4A29274  11.178  32.032   7.687
 2029POPC   C1B29275  11.478  32.016   8.669
 2029POPC   C2B29276  11.610  32.014   8.213
 2029POPC   C3B29277  11.612  32.246   7.811
 2029POPC   C4B29278  11.495  32.319   7.378
 2030POPC   NC329279   4.881   7.777   9.478
 2030POPC   PO429280   5.109   7.220   9.742
 2030POPC   GL129281   4.996   7.298   9.277
 2030POPC   GL229282   4.645   7.388   9.149
 2030POPC   C1A29283   5.042   7.568   8.864
 2030POPC   D2A29284   5.340   7.626   8.525
 2030POPC   C3A29285   5.249   7.459   8.112
 2030POPC   C4A29286   5.351   7.444   7.668
 2030POPC   C1B29287   4.837   7.111   8.816
 2030POPC   C2B29288   5.097   7.124   8.470
 2030POPC   C3B29289   4.916   7.081   8.049
 2030POPC   C4B29290   4.856   7.409   7.765
 2031POPC   NC329291  30.014  18.793   9.468
 2031POPC   PO429292  30.216  19.380   9.664
 2031POPC   GL129293  29.785  19.168   9.251
 2031POPC   GL229294  29.793  18.802   9.025
 2031POPC   C1A29295  29.667  19.207   8.771
 2031POPC   D2A29296  29.636  18.927   8.373
 2031POPC   C3A29297  29.592  19.165   7.987
 2031POPC   C4A29298  30.005  19.281   7.800
 2031POPC   C1B29299  30.193  18.620   8.856
 2031POPC   C2B29300  30.277  18.595   8.430
 2031POPC   C3B29301  30.187  18.788   8.046
 2031POPC   C4B29302  29.846  18.754   7.791
 2032POPC   NC329303  18.515   7.997   9.781
 2032POPC   PO429304  18.133   7.484   9.437
 2032POPC   GL129305  18.014   7.455   9.064
 2032POPC   GL229306  18.338   7.380   8.969
 2032POPC   C1A29307  17.973   7.559   8.659
 2032POPC   D2A29308  18.122   7.726   8.292
 2032POPC   C3A29309  18.209   7.454   7.970
 2032POPC   C4A29310  18.580   7.454   7.777
 2032POPC   C1B29311  18.336   7.220   8.528
 2032POPC   C2B29312  18.521   7.061   8.141
 2032POPC   C3B29313  18.857   7.012   7.817
 2032POPC   C4B29314  18.788   7.187   7.379
 2033POPC   NC329315   1.778  18.024   9.452
 2033POPC   PO429316   1.793  18.715   9.338
 2033POPC   GL129317   2.077  18.519   9.043
 2033POPC   GL229318   1.851  18.263   9.013
 2033POPC   C1A29319   2.262  18.272   8.712
 2033POPC   D2A29320   1.925  18.271   8.438
 2033POPC   C3A29321   2.041  18.435   8.034
 2033POPC   C4A29322   2.132  18.210   7.660
 2033POPC   C1B29323   1.868  17.861   8.823
 2033POPC   C2B29324   1.829  17.728   8.429
 2033POPC   C3B29325   1.967  17.928   8.071
 2033POPC   C4B29326   1.766  17.882   7.692
 2034POPC   NC329327  24.565  30.362   9.567
 2034POPC   PO429328  24.225  29.830   9.546
 2034POPC   GL129329  24.293  29.835   9.148
 2034POPC   GL229330  24.621  29.651   9.068
 2034POPC   C1A29331  24.405  30.044   8.820
 2034POPC   D2A29332  24.363  29.899   8.425
 2034POPC   C3A29333  24.193  30.178   8.162
 2034POPC   C4A29334  24.344  30.164   7.750
 2034POPC   C1B29335  24.889  29.945   8.771
 2034POPC   C2B29336  24.838  30.076   8.361
 2034POPC   C3B29337  24.699  29.905   8.003
 2034POPC   C4B29338  24.867  30.184   7.723
 2035POPC   NC329339  27.754  40.972   9.524
 2035POPC   PO429340  27.236  41.417   9.349
 2035POPC   GL129341  27.413  41.046   9.118
 2035POPC   GL229342  27.480  40.678   9.205
 2035POPC   C1A29343  27.727  40.899   8.817
 2035POPC   D2A29344  27.708  40.730   8.393
 2035POPC   C3A29345  27.721  40.929   7.962
 2035POPC   C4A29346  27.453  40.881   7.586
 2035POPC   C1B29347  27.319  40.572   8.802
 2035POPC   C2B29348  27.323  40.314   8.440
 2035POPC   C3B29349  27.457  40.438   8.013
 2035POPC   C4B29350  27.424  40.309   7.557
 2036POPC   NC329351  27.111  38.311   9.366
 2036POPC   PO429352  26.709  38.784   9.722
 2036POPC   GL129353  26.693  38.594   9.230
 2036POPC   GL229354  26.651  38.214   9.077
 2036POPC   C1A29355  26.814  38.571   8.768
 2036POPC   D2A29356  26.813  38.319   8.402
 2036POPC   C3A29357  27.111  38.483   8.125
 2036POPC   C4A29358  26.978  38.653   7.787
 2036POPC   C1B29359  27.023  38.050   8.781
 2036POPC   C2B29360  27.260  38.067   8.364
 2036POPC   C3B29361  27.135  37.980   7.958
 2036POPC   C4B29362  26.744  38.197   7.896
 2037POPC   NC329363   1.474  19.041   9.352
 2037POPC   PO429364   0.934  19.438   9.225
 2037POPC   GL129365   1.032  18.949   9.083
 2037POPC   GL229366   1.329  18.627   9.093
 2037POPC   C1A29367   1.240  18.918   8.677
 2037POPC   D2A29368   1.261  19.017   8.251
 2037POPC   C3A29369   1.498  19.309   8.021
 2037POPC   C4A29370   1.114  19.273   7.801
 2037POPC   C1B29371   1.650  18.627   8.723
 2037POPC   C2B29372   1.550  18.592   8.299
 2037POPC   C3B29373   1.235  18.602   7.968
 2037POPC   C4B29374   1.351  18.866   7.674
 2038POPC   NC329375   3.011  21.478   9.503
 2038POPC   PO429376   3.624  21.176   9.627
 2038POPC   GL129377   3.668  21.228   9.198
 2038POPC   GL229378   3.325  21.134   9.181
 2038POPC   C1A29379   3.780  21.276   8.750
 2038POPC   D2A29380   3.576  21.323   8.355
 2038POPC   C3A29381   3.694  21.449   7.925
 2038POPC   C4A29382   3.654  21.857   7.710
 2038POPC   C1B29383   3.272  21.074   8.731
 2038POPC   C2B29384   3.201  20.983   8.288
 2038POPC   C3B29385   3.196  21.324   8.026
 2038POPC   C4B29386   3.245  21.565   7.703
 2039POPC   NC329387  44.725  40.356   9.582
 2039POPC   PO429388  44.593  41.066   9.562
 2039POPC   GL129389  44.626  40.764   9.241
 2039POPC   GL229390  44.909  40.938   9.131
 2039POPC   C1A29391  44.585  40.671   8.797
 2039POPC   D2A29392  44.691  40.832   8.399
 2039POPC   C3A29393  44.511  40.731   8.001
 2039POPC   C4A29394  44.427  40.892   7.590
 2039POPC   C1B29395   0.106  40.790   8.752
 2039POPC   C2B29396   0.127  40.569   8.374
 2039POPC   C3B29397   0.059  40.751   8.002
 2039POPC   C4B29398  44.863  40.628   7.622
 2040POPC   NC329399   0.393   7.894   9.441
 2040POPC   PO429400   0.506   7.212   9.602
 2040POPC   GL129401   0.359   7.424   9.212
 2040POPC   GL229402   0.015   7.559   9.238
 2040POPC   C1A29403   0.537   7.513   8.801
 2040POPC   D2A29404   0.534   7.237   8.440
 2040POPC   C3A29405   0.414   7.405   8.059
 2040POPC   C4A29406   0.548   7.598   7.692
 2040POPC   C1B29407   0.087   7.765   8.829
 2040POPC   C2B29408   0.286   7.760   8.419
 2040POPC   C3B29409   0.067   7.776   8.019
 2040POPC   C4B29410  44.836   7.946   7.700
 2041POPC   NC329411  10.813  34.318   9.959
 2041POPC   PO429412  10.372  34.407   9.393
 2041POPC   GL129413  10.580  34.429   9.075
 2041POPC   GL229414  10.798  34.710   9.196
 2041POPC   C1A29415  10.419  34.390   8.718
 2041POPC   D2A29416  10.488  34.538   8.349
 2041POPC   C3A29417  10.624  34.305   8.038
 2041POPC   C4A29418  10.489  34.531   7.685
 2041POPC   C1B29419  10.532  34.891   8.861
 2041POPC   C2B29420  10.591  35.024   8.437
 2041POPC   C3B29421  10.417  34.932   8.020
 2041POPC   C4B29422  10.274  35.012   7.582
 2042POPC   NC329423   2.706  22.168   9.560
 2042POPC   PO429424   3.325  21.817   9.493
 2042POPC   GL129425   3.014  21.863   9.144
 2042POPC   GL229426   2.678  21.976   9.105
 2042POPC   C1A29427   2.970  22.028   8.700
 2042POPC   D2A29428   3.046  22.197   8.279
 2042POPC   C3A29429   3.126  22.020   7.883
 2042POPC   C4A29430   3.347  22.225   7.522
 2042POPC   C1B29431   2.518  21.745   8.741
 2042POPC   C2B29432   2.586  21.941   8.352
 2042POPC   C3B29433   2.628  22.118   7.946
 2042POPC   C4B29434   2.504  21.938   7.532
 2043POPC   NC329435  10.615   2.856   9.759
 2043POPC   PO429436  10.644   2.175   9.630
 2043POPC   GL129437  10.519   2.520   9.284
 2043POPC   GL229438  10.699   2.792   9.162
 2043POPC   C1A29439  10.469   2.485   8.802
 2043POPC   D2A29440  10.505   2.694   8.382
 2043POPC   C3A29441  10.183   2.650   8.079
 2043POPC   C4A29442  10.237   2.535   7.646
 2043POPC   C1B29443  10.486   3.010   8.811
 2043POPC   C2B29444  10.640   3.235   8.457
 2043POPC   C3B29445  10.852   3.036   8.139
 2043POPC   C4B29446  10.618   2.802   7.839
 2044POPC   NC329447  17.128  43.898   9.491
 2044POPC   PO429448  17.598  43.421   9.520
 2044POPC   GL129449  17.634  43.672   9.115
 2044POPC   GL229450  17.401  43.938   9.057
 2044POPC   C1A29451  17.678  43.529   8.687
 2044POPC   D2A29452  17.683  43.335   8.267
 2044POPC   C3A29453  17.694  43.662   7.905
 2044POPC   C4A29454  17.383  43.736   7.580
 2044POPC   C1B29455  17.595  44.063   8.670
 2044POPC   C2B29456  17.577  44.074   8.230
 2044POPC   C3B29457  17.395  44.182   7.858
 2044POPC   C4B29458  17.521  44.347   7.500
 2045POPC   NC329459  29.552  18.288   9.534
 2045POPC   PO429460  30.196  18.416   9.648
 2045POPC   GL129461  30.003  18.325   9.252
 2045POPC   GL229462  29.891  17.973   9.272
 2045POPC   C1A29463  29.784  18.267   8.849
 2045POPC   D2A29464  29.635  18.048   8.469
 2045POPC   C3A29465  29.721  18.325   8.132
 2045POPC   C4A29466  29.821  18.246   7.719
 2045POPC   C1B29467  30.217  17.992   8.938
 2045POPC   C2B29468  30.186  18.094   8.514
 2045POPC   C3B29469  30.208  18.216   8.092
 2045POPC   C4B29470  30.301  17.970   7.757
 2046POPC   NC329471  25.736  37.201   9.339
 2046POPC   PO429472  26.388  36.944   9.239
 2046POPC   GL129473  26.134  36.638   9.047
 2046POPC   GL229474  25.813  36.716   9.058
 2046POPC   C1A29475  26.126  36.611   8.615
 2046POPC   D2A29476  26.281  36.805   8.270
 2046POPC   C3A29477  25.953  36.792   7.972
 2046POPC   C4A29478  26.013  36.885   7.549
 2046POPC   C1B29479  25.792  37.011   8.676
 2046POPC   C2B29480  25.786  37.219   8.234
 2046POPC   C3B29481  25.708  37.230   7.747
 2046POPC   C4B29482  25.760  37.291   7.268
 2047POPC   NC329483  35.301  14.768   9.426
 2047POPC   PO429484  35.254  14.085   9.347
 2047POPC   GL129485  35.337  14.232   8.946
 2047POPC   GL229486  35.207  14.559   8.967
 2047POPC   C1A29487  35.255  14.336   8.514
 2047POPC   D2A29488  34.956  14.203   8.235
 2047POPC   C3A29489  35.198  14.034   7.963
 2047POPC   C4A29490  35.607  14.148   7.776
 2047POPC   C1B29491  35.354  14.826   8.598
 2047POPC   C2B29492  35.557  14.685   8.274
 2047POPC   C3B29493  35.335  14.506   8.017
 2047POPC   C4B29494  35.192  14.534   7.645
 2048POPC   NC329495  15.128   0.797   9.493
 2048POPC   PO429496  14.692   1.376   9.578
 2048POPC   GL129497  14.726   1.256   9.147
 2048POPC   GL229498  15.034   1.038   9.052
 2048POPC   C1A29499  14.902   1.436   8.785
 2048POPC   D2A29500  14.839   1.267   8.413
 2048POPC   C3A29501  14.974   0.974   8.108
 2048POPC   C4A29502  14.944   1.125   7.704
 2048POPC   C1B29503  15.330   1.130   8.702
 2048POPC   C2B29504  15.627   1.229   8.385
 2048POPC   C3B29505  15.466   1.189   7.983
 2048POPC   C4B29506  15.439   0.958   7.628
 2049POPC   NC329507  18.367  39.481   9.602
 2049POPC   PO429508  18.033  38.963   9.397
 2049POPC   GL129509  17.995  39.258   9.115
 2049POPC   GL229510  18.351  39.370   9.103
 2049POPC   C1A29511  17.914  39.133   8.695
 2049POPC   D2A29512  18.134  39.030   8.366
 2049POPC   C3A29513  18.134  39.203   7.990
 2049POPC   C4A29514  18.485  38.950   7.892
 2049POPC   C1B29515  18.436  39.237   8.712
 2049POPC   C2B29516  18.486  39.421   8.307
 2049POPC   C3B29517  18.579  39.473   7.888
 2049POPC   C4B29518  18.579  39.699   7.515
 2050POPC   NC329519   3.193  17.259   9.506
 2050POPC   PO429520   2.501  17.373   9.539
 2050POPC   GL129521   2.774  17.483   9.229
 2050POPC   GL229522   2.803  17.146   9.163
 2050POPC   C1A29523   2.760  17.737   8.846
 2050POPC   D2A29524   2.837  17.580   8.444
 2050POPC   C3A29525   2.985  17.802   8.088
 2050POPC   C4A29526   2.758  17.686   7.736
 2050POPC   C1B29527   3.045  17.307   8.829
 2050POPC   C2B29528   3.126  17.163   8.412
 2050POPC   C3B29529   2.896  17.286   8.016
 2050POPC   C4B29530   2.944  17.261   7.549
 2051POPC   NC329531  39.644   1.227   9.498
 2051POPC   PO429532  39.135   1.744   9.629
 2051POPC   GL129533  39.233   1.490   9.260
 2051POPC   GL229534  39.185   1.126   9.282
 2051POPC   C1A29535  39.182   1.379   8.820
 2051POPC   D2A29536  38.935   1.270   8.478
 2051POPC   C3A29537  39.164   1.286   8.111
 2051POPC   C4A29538  38.952   1.401   7.750
 2051POPC   C1B29539  39.421   0.933   8.946
 2051POPC   C2B29540  39.326   0.949   8.508
 2051POPC   C3B29541  39.588   0.923   8.160
 2051POPC   C4B29542  39.454   1.008   7.766
 2052POPC   NC329543  31.726  43.625   9.488
 2052POPC   PO429544  31.065  43.665   9.428
 2052POPC   GL129545  31.205  43.857   9.081
 2052POPC   GL229546  31.483  43.648   9.056
 2052POPC   C1A29547  31.187  43.952   8.646
 2052POPC   D2A29548  31.189  44.237   8.317
 2052POPC   C3A29549  31.348  44.224   7.919
 2052POPC   C4A29550  31.160  44.149   7.547
 2052POPC   C1B29551  31.651  43.761   8.690
 2052POPC   C2B29552  31.603  43.940   8.299
 2052POPC   C3B29553  31.670  43.713   7.971
 2052POPC   C4B29554  31.434  43.736   7.641
 2053POPC   NC329555  33.664  26.672   9.803
 2053POPC   PO429556  33.047  26.574   9.521
 2053POPC   GL129557  33.092  26.814   9.145
 2053POPC   GL229558  32.893  27.122   9.138
 2053POPC   C1A29559  33.254  26.618   8.740
 2053POPC   D2A29560  33.140  26.759   8.355
 2053POPC   C3A29561  33.226  26.655   7.990
 2053POPC   C4A29562  33.165  27.004   7.721
 2053POPC   C1B29563  32.891  26.993   8.728
 2053POPC   C2B29564  32.718  27.053   8.367
 2053POPC   C3B29565  32.761  27.158   7.973
 2053POPC   C4B29566  32.662  27.048   7.555
 2054POPC   NC329567  33.605  41.992   9.554
 2054POPC   PO429568  34.135  42.445   9.479
 2054POPC   GL129569  33.760  42.468   9.183
 2054POPC   GL229570  33.740  42.120   9.086
 2054POPC   C1A29571  33.576  42.442   8.739
 2054POPC   D2A29572  33.628  42.267   8.326
 2054POPC   C3A29573  33.477  42.520   8.007
 2054POPC   C4A29574  33.734  42.675   7.706
 2054POPC   C1B29575  33.836  41.931   8.687
 2054POPC   C2B29576  33.676  41.760   8.288
 2054POPC   C3B29577  33.742  41.828   7.854
 2054POPC   C4B29578  33.593  42.185   7.654
 2055POPC   NC329579  39.571  43.450   9.549
 2055POPC   PO429580  39.421  44.095   9.573
 2055POPC   GL129581  39.330  43.805   9.227
 2055POPC   GL229582  39.484  44.044   9.029
 2055POPC   C1A29583  39.159  43.705   8.790
 2055POPC   D2A29584  38.927  43.690   8.379
 2055POPC   C3A29585  39.168  43.617   7.997
 2055POPC   C4A29586  39.277  43.737   7.574
 2055POPC   C1B29587  39.555  44.254   8.640
 2055POPC   C2B29588  39.247  44.293   8.315
 2055POPC   C3B29589  39.274  44.150   7.892
 2055POPC   C4B29590  39.681  44.017   7.713
 2056POPC   NC329591  23.825  29.679   9.360
 2056POPC   PO429592  23.740  29.074   9.569
 2056POPC   GL129593  23.673  29.190   9.168
 2056POPC   GL229594  23.376  29.390   9.135
 2056POPC   C1A29595  23.733  28.917   8.818
 2056POPC   D2A29596  23.552  28.729   8.457
 2056POPC   C3A29597  23.669  28.885   8.096
 2056POPC   C4A29598  23.787  29.000   7.725
 2056POPC   C1B29599  23.558  29.481   8.756
 2056POPC   C2B29600  23.706  29.274   8.422
 2056POPC   C3B29601  23.664  29.405   8.018
 2056POPC   C4B29602  23.789  29.480   7.598
 2057POPC   NC329603  21.724   0.861   9.500
 2057POPC   PO429604  21.450   1.505   9.524
 2057POPC   GL129605  21.411   1.284   9.153
 2057POPC   GL229606  21.697   1.066   9.013
 2057POPC   C1A29607  21.361   1.382   8.733
 2057POPC   D2A29608  21.617   1.169   8.440
 2057POPC   C3A29609  21.445   1.350   8.099
 2057POPC   C4A29610  21.274   1.521   7.724
 2057POPC   C1B29611  21.330   0.866   8.783
 2057POPC   C2B29612  21.126   0.915   8.365
 2057POPC   C3B29613  21.121   1.033   7.914
 2057POPC   C4B29614  21.515   1.087   7.676
 2058POPC   NC329615  24.246  27.758   9.376
 2058POPC   PO429616  24.741  27.324   9.602
 2058POPC   GL129617  24.654  27.455   9.173
 2058POPC   GL229618  24.320  27.359   9.060
 2058POPC   C1A29619  24.629  27.738   8.794
 2058POPC   D2A29620  24.405  27.853   8.424
 2058POPC   C3A29621  24.619  27.617   8.110
 2058POPC   C4A29622  24.819  27.663   7.723
 2058POPC   C1B29623  24.299  27.374   8.612
 2058POPC   C2B29624  24.101  27.477   8.227
 2058POPC   C3B29625  24.231  27.501   7.798
 2058POPC   C4B29626  24.135  27.279   7.411
 2059POPC   NC329627  24.391   9.370   9.503
 2059POPC   PO429628  24.840   8.907   9.398
 2059POPC   GL129629  24.722   9.194   9.068
 2059POPC   GL229630  24.397   9.314   9.002
 2059POPC   C1A29631  24.591   8.957   8.693
 2059POPC   D2A29632  24.685   9.023   8.268
 2059POPC   C3A29633  24.492   8.849   7.876
 2059POPC   C4A29634  24.638   8.861   7.418
 2059POPC   C1B29635  24.601   9.451   8.613
 2059POPC   C2B29636  24.206   9.324   8.384
 2059POPC   C3B29637  24.114   9.178   7.955
 2059POPC   C4B29638  24.377   9.270   7.598
 2060POPC   NC329639  32.769  19.276   9.948
 2060POPC   PO429640  32.235  19.050   9.526
 2060POPC   GL129641  32.272  19.126   9.089
 2060POPC   GL229642  32.581  18.974   9.071
 2060POPC   C1A29643  32.309  19.220   8.662
 2060POPC   D2A29644  32.200  19.052   8.287
 2060POPC   C3A29645  32.170  19.245   7.917
 2060POPC   C4A29646  32.152  18.870   7.707
 2060POPC   C1B29647  32.524  18.754   8.668
 2060POPC   C2B29648  32.688  18.901   8.281
 2060POPC   C3B29649  32.629  18.952   7.840
 2060POPC   C4B29650  32.649  19.051   7.388
 2061POPC   NC329651   5.362  28.708   9.490
 2061POPC   PO429652   5.625  29.268   9.406
 2061POPC   GL129653   5.642  29.057   9.024
 2061POPC   GL229654   5.769  28.720   8.984
 2061POPC   C1A29655   5.649  29.058   8.567
 2061POPC   D2A29656   5.639  28.980   8.147
 2061POPC   C3A29657   5.535  29.201   7.810
 2061POPC   C4A29658   5.779  28.951   7.575
 2061POPC   C1B29659   6.111  28.960   8.776
 2061POPC   C2B29660   6.176  29.094   8.343
 2061POPC   C3B29661   6.111  29.167   7.899
 2061POPC   C4B29662   5.921  29.482   7.638
 2062POPC   NC329663  38.962  37.760   9.650
 2062POPC   PO429664  38.233  37.705   9.607
 2062POPC   GL129665  38.552  37.793   9.317
 2062POPC   GL229666  38.446  37.521   9.132
 2062POPC   C1A29667  38.618  37.935   8.898
 2062POPC   D2A29668  38.541  37.650   8.555
 2062POPC   C3A29669  38.739  37.835   8.185
 2062POPC   C4A29670  38.562  37.877   7.776
 2062POPC   C1B29671  38.195  37.267   8.850
 2062POPC   C2B29672  38.187  37.284   8.411
 2062POPC   C3B29673  38.372  37.489   8.078
 2062POPC   C4B29674  38.482  37.392   7.665
 2063POPC   NC329675  42.562  32.058   9.782
 2063POPC   PO429676  42.190  32.491   9.309
 2063POPC   GL129677  42.184  32.374   8.961
 2063POPC   GL229678  41.979  32.116   9.023
 2063POPC   C1A29679  42.428  32.278   8.613
 2063POPC   D2A29680  42.597  31.956   8.381
 2063POPC   C3A29681  42.709  32.055   8.005
 2063POPC   C4A29682  42.449  32.195   7.706
 2063POPC   C1B29683  41.920  32.276   8.557
 2063POPC   C2B29684  42.144  32.244   8.177
 2063POPC   C3B29685  41.992  32.370   7.793
 2063POPC   C4B29686  41.920  32.738   7.595
 2064POPC   NC329687   7.099  12.023   9.346
 2064POPC   PO429688   6.407  12.093   9.615
 2064POPC   GL129689   6.618  12.105   9.186
 2064POPC   GL229690   6.767  11.784   9.062
 2064POPC   C1A29691   6.491  12.081   8.755
 2064POPC   D2A29692   6.502  12.257   8.374
 2064POPC   C3A29693   6.351  12.067   8.012
 2064POPC   C4A29694   6.664  12.054   7.730
 2064POPC   C1B29695   6.920  11.801   8.648
 2064POPC   C2B29696   6.801  11.838   8.219
 2064POPC   C3B29697   7.092  11.830   7.886
 2064POPC   C4B29698   7.045  11.779   7.400
 2065POPC   NC329699  21.886  35.657   9.232
 2065POPC   PO429700  21.979  35.023   9.491
 2065POPC   GL129701  22.145  35.232   9.151
 2065POPC   GL229702  22.419  35.464   9.219
 2065POPC   C1A29703  22.102  35.262   8.717
 2065POPC   D2A29704  21.764  35.428   8.490
 2065POPC   C3A29705  21.944  35.487   8.107
 2065POPC   C4A29706  22.132  35.189   7.801
 2065POPC   C1B29707  22.495  35.642   8.832
 2065POPC   C2B29708  22.536  35.422   8.440
 2065POPC   C3B29709  22.469  35.514   8.016
 2065POPC   C4B29710  22.446  35.862   7.733
 2066POPC   NC329711  37.260  38.345   9.221
 2066POPC   PO429712  37.842  38.408   9.549
 2066POPC   GL129713  37.743  38.441   9.141
 2066POPC   GL229714  37.730  38.066   9.173
 2066POPC   C1A29715  37.610  38.521   8.704
 2066POPC   D2A29716  37.379  38.552   8.322
 2066POPC   C3A29717  37.608  38.626   7.971
 2066POPC   C4A29718  37.393  38.484   7.656
 2066POPC   C1B29719  37.625  37.965   8.767
 2066POPC   C2B29720  37.634  38.105   8.387
 2066POPC   C3B29721  37.493  38.116   8.018
 2066POPC   C4B29722  37.768  38.143   7.689
 2067POPC   NC329723   8.572   3.876   9.444
 2067POPC   PO429724   8.427   3.276   9.645
 2067POPC   GL129725   8.385   3.379   9.215
 2067POPC   GL229726   8.039   3.395   9.186
 2067POPC   C1A29727   8.316   3.441   8.753
 2067POPC   D2A29728   8.352   3.699   8.374
 2067POPC   C3A29729   8.320   3.513   7.957
 2067POPC   C4A29730   8.176   3.169   7.719
 2067POPC   C1B29731   7.810   3.548   8.828
 2067POPC   C2B29732   7.835   3.866   8.522
 2067POPC   C3B29733   7.889   3.790   8.085
 2067POPC   C4B29734   7.805   3.550   7.695
 2068POPC   NC329735  43.078  17.413   9.534
 2068POPC   PO429736  43.092  18.039   9.580
 2068POPC   GL129737  43.220  17.818   9.192
 2068POPC   GL229738  42.956  17.612   9.077
 2068POPC   C1A29739  43.352  17.708   8.770
 2068POPC   D2A29740  43.118  17.752   8.392
 2068POPC   C3A29741  43.221  17.614   7.980
 2068POPC   C4A29742  42.851  17.466   7.771
 2068POPC   C1B29743  43.008  17.331   8.722
 2068POPC   C2B29744  42.954  17.261   8.284
 2068POPC   C3B29745  42.988  17.026   7.942
 2068POPC   C4B29746  43.259  17.201   7.645
 2069POPC   NC329747  17.810  11.867   9.525
 2069POPC   PO429748  17.291  12.136   9.386
 2069POPC   GL129749  17.392  11.874   9.058
 2069POPC   GL229750  17.052  11.783   9.023
 2069POPC   C1A29751  17.616  11.855   8.643
 2069POPC   D2A29752  17.480  12.081   8.279
 2069POPC   C3A29753  17.730  12.191   7.912
 2069POPC   C4A29754  17.617  12.364   7.490
 2069POPC   C1B29755  17.110  11.853   8.594
 2069POPC   C2B29756  17.260  11.611   8.266
 2069POPC   C3B29757  17.394  11.773   7.868
 2069POPC   C4B29758  17.214  12.211   7.844
 2070POPC   NC329759  22.649  20.408   9.486
 2070POPC   PO429760  23.263  20.590   9.716
 2070POPC   GL129761  23.080  20.368   9.208
 2070POPC   GL229762  22.811  20.519   8.990
 2070POPC   C1A29763  23.233  20.455   8.732
 2070POPC   D2A29764  23.027  20.380   8.322
 2070POPC   C3A29765  22.887  20.739   8.057
 2070POPC   C4A29766  22.842  20.978   7.685
 2070POPC   C1B29767  22.642  20.323   8.657
 2070POPC   C2B29768  22.504  20.514   8.305
 2070POPC   C3B29769  22.483  20.337   7.902
 2070POPC   C4B29770  22.555  20.563   7.545
 2071POPC   NC329771  30.584  31.534   9.659
 2071POPC   PO429772  30.580  30.912   9.896
 2071POPC   GL129773  30.536  31.114   9.367
 2071POPC   GL229774  30.802  31.287   9.248
 2071POPC   C1A29775  30.439  31.414   8.943
 2071POPC   D2A29776  30.428  31.701   8.554
 2071POPC   C3A29777  30.612  31.566   8.138
 2071POPC   C4A29778  30.494  31.627   7.700
 2071POPC   C1B29779  30.955  31.386   8.826
 2071POPC   C2B29780  31.095  31.556   8.436
 2071POPC   C3B29781  31.131  31.423   8.028
 2071POPC   C4B29782  30.865  31.279   7.691
 2072POPC   NC329783  15.269   3.188   9.775
 2072POPC   PO429784  14.892   3.639   9.389
 2072POPC   GL129785  15.110   3.729   9.030
 2072POPC   GL229786  15.309   3.451   8.959
 2072POPC   C1A29787  15.072   3.757   8.570
 2072POPC   D2A29788  14.805   3.848   8.224
 2072POPC   C3A29789  15.040   3.681   7.865
 2072POPC   C4A29790  15.442   3.485   7.800
 2072POPC   C1B29791  14.970   3.277   8.684
 2072POPC   C2B29792  14.850   3.313   8.276
 2072POPC   C3B29793  15.055   3.140   7.939
 2072POPC   C4B29794  14.947   3.262   7.544
 2073POPC   NC329795  12.366  39.109  10.040
 2073POPC   PO429796  11.838  39.161   9.605
 2073POPC   GL129797  12.118  39.142   9.202
 2073POPC   GL229798  12.368  38.866   9.147
 2073POPC   C1A29799  12.287  39.316   8.786
 2073POPC   D2A29800  12.387  39.095   8.371
 2073POPC   C3A29801  12.179  39.180   7.969
 2073POPC   C4A29802  12.110  39.349   7.548
 2073POPC   C1B29803  12.182  38.826   8.754
 2073POPC   C2B29804  11.881  38.844   8.406
 2073POPC   C3B29805  11.734  38.920   7.994
 2073POPC   C4B29806  11.978  38.859   7.620
 2074POPC   NC329807  33.571  17.144   9.496
 2074POPC   PO429808  34.147  16.802   9.601
 2074POPC   GL129809  33.865  16.662   9.241
 2074POPC   GL229810  33.681  16.937   9.057
 2074POPC   C1A29811  33.858  16.534   8.806
 2074POPC   D2A29812  33.698  16.739   8.439
 2074POPC   C3A29813  33.967  16.684   8.099
 2074POPC   C4A29814  33.855  16.469   7.747
 2074POPC   C1B29815  33.478  17.203   8.735
 2074POPC   C2B29816  33.369  17.118   8.321
 2074POPC   C3B29817  33.488  16.841   7.972
 2074POPC   C4B29818  33.720  16.998   7.661
 2075POPC   NC329819   5.253  11.085   9.578
 2075POPC   PO429820   4.947  11.666   9.491
 2075POPC   GL129821   5.158  11.388   9.174
 2075POPC   GL229822   5.172  11.001   9.084
 2075POPC   C1A29823   5.289  11.436   8.778
 2075POPC   D2A29824   5.059  11.452   8.428
 2075POPC   C3A29825   5.276  11.584   8.092
 2075POPC   C4A29826   4.944  11.627   7.835
 2075POPC   C1B29827   5.152  10.955   8.639
 2075POPC   C2B29828   5.340  11.055   8.240
 2075POPC   C3B29829   5.131  11.147   7.875
 2075POPC   C4B29830   4.692  11.156   7.780
 2076POPC   NC329831  38.212  38.145   9.453
 2076POPC   PO429832  38.848  38.193   9.505
 2076POPC   GL129833  38.574  38.432   9.220
 2076POPC   GL229834  38.239  38.575   9.187
 2076POPC   C1A29835  38.545  38.451   8.782
 2076POPC   D2A29836  38.465  38.165   8.452
 2076POPC   C3A29837  38.529  38.323   8.031
 2076POPC   C4A29838  38.264  38.275   7.669
 2076POPC   C1B29839  38.068  38.298   8.784
 2076POPC   C2B29840  38.045  38.410   8.318
 2076POPC   C3B29841  38.121  38.688   7.940
 2076POPC   C4B29842  37.924  38.622   7.513
 2077POPC   NC329843  14.720  38.790   9.413
 2077POPC   PO429844  14.605  39.500   9.449
 2077POPC   GL129845  14.429  39.191   9.180
 2077POPC   GL229846  14.464  39.445   8.931
 2077POPC   C1A29847  14.472  38.941   8.807
 2077POPC   D2A29848  14.336  38.756   8.420
 2077POPC   C3A29849  14.492  39.072   8.143
 2077POPC   C4A29850  14.377  39.140   7.755
 2077POPC   C1B29851  14.090  39.408   8.686
 2077POPC   C2B29852  14.055  39.293   8.265
 2077POPC   C3B29853  13.994  39.492   7.883
 2077POPC   C4B29854  14.103  39.452   7.448
 2078POPC   NC329855  26.597  26.097   9.507
 2078POPC   PO429856  27.273  26.219   9.344
 2078POPC   GL129857  26.937  25.930   9.134
 2078POPC   GL229858  26.538  25.866   9.089
 2078POPC   C1A29859  26.816  26.043   8.717
 2078POPC   D2A29860  26.935  26.196   8.338
 2078POPC   C3A29861  26.885  25.987   7.946
 2078POPC   C4A29862  26.607  26.162   7.651
 2078POPC   C1B29863  26.353  25.790   8.713
 2078POPC   C2B29864  26.525  25.822   8.358
 2078POPC   C3B29865  26.400  25.848   7.996
 2078POPC   C4B29866  26.561  25.669   7.630
 2079POPC   NC329867  10.082  26.736   9.599
 2079POPC   PO429868   9.538  27.034   9.398
 2079POPC   GL129869   9.615  26.795   9.074
 2079POPC   GL229870   9.965  26.828   9.116
 2079POPC   C1A29871   9.450  26.757   8.668
 2079POPC   D2A29872   9.734  26.648   8.363
 2079POPC   C3A29873   9.824  26.800   7.980
 2079POPC   C4A29874   9.566  26.879   7.633
 2079POPC   C1B29875   9.977  26.906   8.711
 2079POPC   C2B29876  10.212  26.962   8.355
 2079POPC   C3B29877  10.232  27.104   7.966
 2079POPC   C4B29878  10.078  26.979   7.557
 2080POPC   NC329879  19.855   5.992   9.655
 2080POPC   PO429880  20.360   5.933   9.406
 2080POPC   GL129881  19.952   5.804   9.179
 2080POPC   GL229882  19.678   6.052   9.174
 2080POPC   C1A29883  19.719   5.725   8.765
 2080POPC   D2A29884  19.595   5.568   8.334
 2080POPC   C3A29885  19.680   5.794   7.948
 2080POPC   C4A29886  19.924   6.123   7.758
 2080POPC   C1B29887  19.517   6.200   8.758
 2080POPC   C2B29888  19.498   6.142   8.296
 2080POPC   C3B29889  19.422   6.235   7.855
 2080POPC   C4B29890  19.503   5.966   7.481
 2081POPC   NC329891  18.065  25.538   9.261
 2081POPC   PO429892  18.066  26.149   9.478
 2081POPC   GL129893  18.234  26.108   9.047
 2081POPC   GL229894  18.447  25.838   8.966
 2081POPC   C1A29895  18.150  26.192   8.597
 2081POPC   D2A29896  17.872  26.037   8.246
 2081POPC   C3A29897  18.077  25.723   8.000
 2081POPC   C4A29898  18.328  25.876   7.649
 2081POPC   C1B29899  18.716  25.699   8.630
 2081POPC   C2B29900  18.561  25.793   8.215
 2081POPC   C3B29901  18.343  26.153   8.081
 2081POPC   C4B29902  18.423  26.379   7.736
 2082POPC   NC329903   7.116  10.051   9.658
 2082POPC   PO429904   7.178   9.404   9.472
 2082POPC   GL129905   7.251   9.658   9.111
 2082POPC   GL229906   7.306  10.042   9.162
 2082POPC   C1A29907   7.224   9.474   8.665
 2082POPC   D2A29908   7.447   9.419   8.266
 2082POPC   C3A29909   7.501   9.592   7.823
 2082POPC   C4A29910   7.261   9.390   7.438
 2082POPC   C1B29911   7.481   9.908   8.730
 2082POPC   C2B29912   7.466   9.928   8.274
 2082POPC   C3B29913   7.535  10.124   7.868
 2082POPC   C4B29914   7.660  10.192   7.436
 2083POPC   NC329915  23.113  32.458   9.449
 2083POPC   PO429916  22.550  32.573   9.652
 2083POPC   GL129917  22.616  32.347   9.253
 2083POPC   GL229918  22.667  31.991   9.322
 2083POPC   C1A29919  22.824  32.435   8.852
 2083POPC   D2A29920  22.930  32.619   8.454
 2083POPC   C3A29921  22.752  32.407   8.098
 2083POPC   C4A29922  23.031  32.308   7.776
 2083POPC   C1B29923  22.931  31.945   8.949
 2083POPC   C2B29924  22.865  32.058   8.501
 2083POPC   C3B29925  22.889  31.914   8.070
 2083POPC   C4B29926  22.707  31.963   7.620
 2084POPC   NC329927  42.149  30.842   9.812
 2084POPC   PO429928  42.497  30.444   9.387
 2084POPC   GL129929  42.505  30.688   9.022
 2084POPC   GL229930  42.297  30.970   9.032
 2084POPC   C1A29931  42.454  30.755   8.572
 2084POPC   D2A29932  42.582  30.534   8.186
 2084POPC   C3A29933  42.561  30.804   7.811
 2084POPC   C4A29934  42.737  31.195   7.715
 2084POPC   C1B29935  41.848  30.901   8.794
 2084POPC   C2B29936  41.946  30.784   8.407
 2084POPC   C3B29937  42.091  30.672   8.008
 2084POPC   C4B29938  42.198  30.502   7.632
 2085POPC   NC329939  27.432  23.443   9.492
 2085POPC   PO429940  27.923  23.881   9.500
 2085POPC   GL129941  27.693  23.773   9.150
 2085POPC   GL229942  27.825  23.445   9.140
 2085POPC   C1A29943  27.817  23.837   8.703
 2085POPC   D2A29944  27.639  23.731   8.283
 2085POPC   C3A29945  27.704  24.066   7.926
 2085POPC   C4A29946  27.793  24.282   7.489
 2085POPC   C1B29947  27.561  23.389   8.762
 2085POPC   C2B29948  27.507  23.161   8.385
 2085POPC   C3B29949  27.735  23.276   8.033
 2085POPC   C4B29950  27.595  23.594   7.793
 2086POPC   NC329951  28.556  24.470   9.499
 2086POPC   PO429952  27.987  24.659   9.593
 2086POPC   GL129953  28.060  24.749   9.151
 2086POPC   GL229954  28.406  24.772   9.138
 2086POPC   C1A29955  28.063  24.612   8.738
 2086POPC   D2A29956  27.998  24.379   8.371
 2086POPC   C3A29957  28.133  24.664   8.036
 2086POPC   C4A29958  28.173  24.286   7.843
 2086POPC   C1B29959  28.574  24.529   8.810
 2086POPC   C2B29960  28.491  24.487   8.393
 2086POPC   C3B29961  28.659  24.495   8.004
 2086POPC   C4B29962  28.607  24.745   7.652
 2087POPC   NC329963   1.584  37.190   9.482
 2087POPC   PO429964   1.922  37.781   9.441
 2087POPC   GL129965   1.810  37.627   9.116
 2087POPC   GL229966   1.700  37.885   8.956
 2087POPC   C1A29967   1.993  37.543   8.728
 2087POPC   D2A29968   1.752  37.515   8.355
 2087POPC   C3A29969   2.013  37.510   8.030
 2087POPC   C4A29970   2.325  37.791   7.852
 2087POPC   C1B29971   1.423  38.024   8.627
 2087POPC   C2B29972   1.509  38.074   8.205
 2087POPC   C3B29973   1.779  37.973   7.850
 2087POPC   C4B29974   1.760  38.057   7.416
 2088POPC   NC329975   4.636  19.283   9.506
 2088POPC   PO429976   4.340  18.691   9.486
 2088POPC   GL129977   4.442  18.962   9.155
 2088POPC   GL229978   4.144  19.118   9.138
 2088POPC   C1A29979   4.558  19.030   8.727
 2088POPC   D2A29980   4.366  19.080   8.317
 2088POPC   C3A29981   4.387  18.841   7.934
 2088POPC   C4A29982   4.615  18.899   7.527
 2088POPC   C1B29983   3.994  19.132   8.702
 2088POPC   C2B29984   3.976  19.396   8.287
 2088POPC   C3B29985   4.015  19.285   7.853
 2088POPC   C4B29986   3.727  19.157   7.520
 2089POPC   NC329987  40.479  44.900   9.580
 2089POPC   PO429988  40.755  44.251   9.619
 2089POPC   GL129989  40.923  44.503   9.232
 2089POPC   GL229990  40.729  44.807   9.140
 2089POPC   C1A29991  40.872  44.427   8.770
 2089POPC   D2A29992  40.627  44.313   8.380
 2089POPC   C3A29993  40.810  44.416   7.984
 2089POPC   C4A29994  40.818  44.698   7.649
 2089POPC   C1B29995  40.588  44.872   8.721
 2089POPC   C2B29996  40.307  44.733   8.395
 2089POPC   C3B29997  40.393  44.737   7.968
 2089POPC   C4B29998  40.467   0.095   7.719
 2090POPC   NC329999  41.256  21.739   9.712
 2090POPC   PO430000  41.399  22.377   9.393
 2090POPC   GL130001  41.301  22.004   9.156
 2090POPC   GL230002  41.055  22.065   8.949
 2090POPC   C1A30003  41.469  21.867   8.754
 2090POPC   D2A30004  41.674  22.033   8.407
 2090POPC   C3A30005  41.438  21.886   8.099
 2090POPC   C4A30006  41.515  21.747   7.725
 2090POPC   C1B30007  41.004  21.988   8.528
 2090POPC   C2B30008  41.206  22.285   8.334
 2090POPC   C3B30009  41.485  22.441   8.070
 2090POPC   C4B30010  41.373  22.242   7.716
 2091POPC   NC330011  34.976  20.842   9.427
 2091POPC   PO430012  35.590  20.332   9.365
 2091POPC   GL130013  35.317  20.540   9.153
 2091POPC   GL230014  35.449  20.840   9.171
 2091POPC   C1A30015  35.233  20.651   8.737
 2091POPC   D2A30016  35.111  20.680   8.329
 2091POPC   C3A30017  35.397  20.509   8.048
 2091POPC   C4A30018  35.426  20.472   7.627
 2091POPC   C1B30019  35.534  21.075   8.800
 2091POPC   C2B30020  35.581  20.921   8.361
 2091POPC   C3B30021  35.354  20.994   7.977
 2091POPC   C4B30022  35.512  20.986   7.585
 2092POPC   NC330023  28.703   4.347   9.560
 2092POPC   PO430024  29.412   4.251   9.587
 2092POPC   GL130025  29.236   4.284   9.158
 2092POPC   GL230026  28.929   4.380   9.115
 2092POPC   C1A30027  29.189   4.282   8.713
 2092POPC   D2A30028  29.186   4.539   8.368
 2092POPC   C3A30029  29.318   4.384   7.960
 2092POPC   C4A30030  29.128   4.041   7.728
 2092POPC   C1B30031  28.860   4.694   8.794
 2092POPC   C2B30032  28.691   4.709   8.380
 2092POPC   C3B30033  28.877   4.682   7.968
 2092POPC   C4B30034  28.883   4.454   7.571
 2093POPC   NC330035  44.450  18.409   9.324
 2093POPC   PO430036  44.941  18.091   9.630
 2093POPC   GL130037  44.799  18.001   9.210
 2093POPC   GL230038  44.478  17.893   9.228
 2093POPC   C1A30039  44.818  18.189   8.785
 2093POPC   D2A30040   0.044  18.215   8.380
 2093POPC   C3A30041  44.906  18.536   8.134
 2093POPC   C4A30042  44.672  18.457   7.782
 2093POPC   C1B30043  44.334  18.000   8.795
 2093POPC   C2B30044  44.179  18.082   8.336
 2093POPC   C3B30045  44.441  18.016   7.943
 2093POPC   C4B30046  44.363  18.084   7.498
 2094POPC   NC330047  23.305  23.668   9.576
 2094POPC   PO430048  23.896  23.289   9.507
 2094POPC   GL130049  23.871  23.387   9.081
 2094POPC   GL230050  23.562  23.527   9.160
 2094POPC   C1A30051  23.760  23.543   8.663
 2094POPC   D2A30052  23.766  23.949   8.443
 2094POPC   C3A30053  23.889  23.821   8.018
 2094POPC   C4A30054  23.641  23.460   7.842
 2094POPC   C1B30055  23.344  23.747   8.867
 2094POPC   C2B30056  23.257  23.716   8.456
 2094POPC   C3B30057  23.396  23.869   8.087
 2094POPC   C4B30058  23.307  23.791   7.662
 2095POPC   NC330059  26.051   3.084   9.518
 2095POPC   PO430060  26.214   3.752   9.502
 2095POPC   GL130061  26.192   3.449   9.184
 2095POPC   GL230062  26.510   3.269   9.187
 2095POPC   C1A30063  26.170   3.160   8.819
 2095POPC   D2A30064  26.020   2.992   8.418
 2095POPC   C3A30065  25.939   3.301   8.097
 2095POPC   C4A30066  26.160   3.377   7.721
 2095POPC   C1B30067  26.500   3.601   8.826
 2095POPC   C2B30068  26.273   3.517   8.459
 2095POPC   C3B30069  26.353   3.658   8.084
 2095POPC   C4B30070  26.636   3.760   7.802
 2096POPC   NC330071  25.983  28.471   9.523
 2096POPC   PO430072  26.275  27.865   9.410
 2096POPC   GL130073  26.011  28.166   9.095
 2096POPC   GL230074  25.891  28.571   9.048
 2096POPC   C1A30075  26.081  28.286   8.666
 2096POPC   D2A30076  26.340  28.362   8.322
 2096POPC   C3A30077  26.187  28.190   7.975
 2096POPC   C4A30078  25.968  28.257   7.620
 2096POPC   C1B30079  25.686  28.613   8.633
 2096POPC   C2B30080  25.826  28.458   8.229
 2096POPC   C3B30081  26.045  28.684   7.883
 2096POPC   C4B30082  25.954  28.765   7.439
 2097POPC   NC330083  16.195   7.264   9.464
 2097POPC   PO430084  15.624   7.664   9.358
 2097POPC   GL130085  15.916   7.489   9.051
 2097POPC   GL230086  16.041   7.140   9.010
 2097POPC   C1A30087  16.111   7.523   8.643
 2097POPC   D2A30088  16.234   7.414   8.226
 2097POPC   C3A30089  16.135   7.705   7.929
 2097POPC   C4A30090  15.918   7.599   7.575
 2097POPC   C1B30091  15.674   7.114   8.791
 2097POPC   C2B30092  15.780   7.223   8.379
 2097POPC   C3B30093  15.727   7.314   7.967
 2097POPC   C4B30094  15.714   7.095   7.571
 2098POPC   NC330095   9.601   4.900   9.847
 2098POPC   PO430096   9.831   5.381   9.436
 2098POPC   GL130097   9.673   4.993   9.302
 2098POPC   GL230098   9.433   5.129   9.121
 2098POPC   C1A30099   9.763   4.793   8.889
 2098POPC   D2A30100   9.888   4.957   8.468
 2098POPC   C3A30101   9.598   4.915   8.097
 2098POPC   C4A30102   9.852   4.966   7.714
 2098POPC   C1B30103   9.678   5.332   8.815
 2098POPC   C2B30104   9.609   5.395   8.410
 2098POPC   C3B30105   9.849   5.351   8.059
 2098POPC   C4B30106   9.721   5.457   7.679
 2099POPC   NC330107  32.736  28.960   9.458
 2099POPC   PO430108  33.180  29.352   9.444
 2099POPC   GL130109  32.987  29.172   9.076
 2099POPC   GL230110  32.629  29.338   9.100
 2099POPC   C1A30111  33.140  29.024   8.665
 2099POPC   D2A30112  33.447  29.144   8.332
 2099POPC   C3A30113  33.337  29.091   7.896
 2099POPC   C4A30114  33.098  28.981   7.484
 2099POPC   C1B30115  32.815  29.439   8.678
 2099POPC   C2B30116  32.989  29.361   8.241
 2099POPC   C3B30117  32.868  29.274   7.828
 2099POPC   C4B30118  32.842  29.497   7.409
 2100POPC   NC330119   9.238   1.509   9.371
 2100POPC   PO430120   8.703   0.941   9.487
 2100POPC   GL130121   8.947   0.874   9.100
 2100POPC   GL230122   9.205   1.152   9.012
 2100POPC   C1A30123   8.828   1.052   8.696
 2100POPC   D2A30124   8.691   1.366   8.397
 2100POPC   C3A30125   8.777   1.127   8.039
 2100POPC   C4A30126   8.994   1.257   7.711
 2100POPC   C1B30127   9.155   1.452   8.647
 2100POPC   C2B30128   9.194   1.448   8.180
 2100POPC   C3B30129   9.475   1.406   7.807
 2100POPC   C4B30130   9.292   1.444   7.335
 2101POPC   NC330131   1.967  35.536   9.981
 2101POPC   PO430132   1.667  35.172   9.531
 2101POPC   GL130133   1.814  35.371   9.126
 2101POPC   GL230134   2.176  35.414   9.067
 2101POPC   C1A30135   1.831  35.486   8.658
 2101POPC   D2A30136   1.831  35.182   8.295
 2101POPC   C3A30137   1.645  35.318   7.873
 2101POPC   C4A30138   1.377  35.151   7.515
 2101POPC   C1B30139   2.267  35.228   8.647
 2101POPC   C2B30140   2.297  35.362   8.210
 2101POPC   C3B30141   2.179  35.259   7.792
 2101POPC   C4B30142   2.259  35.156   7.325
 2102POPC   NC330143  11.625  41.404   9.507
 2102POPC   PO430144  11.139  41.886   9.554
 2102POPC   GL130145  11.499  41.792   9.213
 2102POPC   GL230146  11.762  42.060   9.141
 2102POPC   C1A30147  11.463  41.505   8.848
 2102POPC   D2A30148  11.170  41.481   8.481
 2102POPC   C3A30149  11.332  41.420   8.058
 2102POPC   C4A30150  11.139  41.548   7.642
 2102POPC   C1B30151  11.836  41.839   8.769
 2102POPC   C2B30152  11.610  41.725   8.407
 2102POPC   C3B30153  11.608  41.912   8.038
 2102POPC   C4B30154  11.611  41.689   7.717
 2103POPC   NC330155  17.717   8.407   9.685
 2103POPC   PO430156  17.343   7.865   9.527
 2103POPC   GL130157  17.421   8.241   9.249
 2103POPC   GL230158  17.733   8.465   9.194
 2103POPC   C1A30159  17.445   8.117   8.822
 2103POPC   D2A30160  17.672   7.934   8.505
 2103POPC   C3A30161  17.492   8.032   8.135
 2103POPC   C4A30162  17.532   7.988   7.730
 2103POPC   C1B30163  17.545   8.605   8.830
 2103POPC   C2B30164  17.600   8.466   8.391
 2103POPC   C3B30165  17.643   8.495   7.949
 2103POPC   C4B30166  17.493   8.440   7.550
 2104POPC   NC330167  25.680  42.492   9.480
 2104POPC   PO430168  26.147  42.067   9.488
 2104POPC   GL130169  26.077  42.324   9.135
 2104POPC   GL230170  26.403  42.193   9.035
 2104POPC   C1A30171  25.902  42.667   8.857
 2104POPC   D2A30172  25.602  42.684   8.522
 2104POPC   C3A30173  25.783  42.462   8.175
 2104POPC   C4A30174  25.976  42.486   7.790
 2104POPC   C1B30175  26.199  42.267   8.651
 2104POPC   C2B30176  26.312  42.328   8.271
 2104POPC   C3B30177  26.397  42.190   7.923
 2104POPC   C4B30178  26.150  41.982   7.689
 2105POPC   NC330179  12.882  18.625   9.471
 2105POPC   PO430180  13.157  17.976   9.498
 2105POPC   GL130181  12.896  18.221   9.165
 2105POPC   GL230182  12.571  18.098   9.084
 2105POPC   C1A30183  12.778  18.402   8.732
 2105POPC   D2A30184  12.931  18.237   8.322
 2105POPC   C3A30185  12.715  18.414   7.989
 2105POPC   C4A30186  12.813  18.580   7.588
 2105POPC   C1B30187  12.360  17.925   8.765
 2105POPC   C2B30188  12.449  18.118   8.395
 2105POPC   C3B30189  12.441  18.003   7.984
 2105POPC   C4B30190  12.395  18.258   7.590
 2106POPC   NC330191  28.586  25.806   9.482
 2106POPC   PO430192  28.258  26.302   9.495
 2106POPC   GL130193  28.305  26.084   9.145
 2106POPC   GL230194  28.638  26.216   9.096
 2106POPC   C1A30195  28.238  25.861   8.760
 2106POPC   D2A30196  28.157  25.709   8.338
 2106POPC   C3A30197  28.057  25.956   7.972
 2106POPC   C4A30198  28.342  26.022   7.623
 2106POPC   C1B30199  28.760  25.888   8.823
 2106POPC   C2B30200  28.670  25.734   8.414
 2106POPC   C3B30201  28.566  25.976   8.087
 2106POPC   C4B30202  28.764  26.219   7.801
 2107POPC   NC330203   1.650  41.868   9.756
 2107POPC   PO430204   2.230  42.204   9.470
 2107POPC   GL130205   2.124  42.405   9.104
 2107POPC   GL230206   1.811  42.580   9.139
 2107POPC   C1A30207   1.964  42.265   8.700
 2107POPC   D2A30208   2.144  42.166   8.307
 2107POPC   C3A30209   1.921  42.280   7.963
 2107POPC   C4A30210   1.930  42.193   7.531
 2107POPC   C1B30211   1.570  42.587   8.762
 2107POPC   C2B30212   1.565  42.394   8.353
 2107POPC   C3B30213   1.558  42.646   7.979
 2107POPC   C4B30214   1.760  42.699   7.585
 2108POPC   NC330215  39.369   7.271   9.380
 2108POPC   PO430216  38.925   7.786   9.448
 2108POPC   GL130217  38.844   7.459   9.116
 2108POPC   GL230218  39.096   7.206   8.959
 2108POPC   C1A30219  38.848   7.543   8.664
 2108POPC   D2A30220  38.795   7.371   8.248
 2108POPC   C3A30221  39.107   7.401   7.921
 2108POPC   C4A30222  39.061   7.498   7.462
 2108POPC   C1B30223  39.297   7.308   8.526
 2108POPC   C2B30224  39.491   7.619   8.199
 2108POPC   C3B30225  39.558   7.521   7.742
 2108POPC   C4B30226  39.461   7.164   7.497
 2109POPC   NC330227  26.019  14.480   9.526
 2109POPC   PO430228  26.480  14.000   9.354
 2109POPC   GL130229  26.292  14.367   9.103
 2109POPC   GL230230  25.921  14.518   9.042
 2109POPC   C1A30231  26.302  14.518   8.685
 2109POPC   D2A30232  26.490  14.371   8.316
 2109POPC   C3A30233  26.244  14.324   7.952
 2109POPC   C4A30234  25.993  14.660   7.761
 2109POPC   C1B30235  25.595  14.419   8.746
 2109POPC   C2B30236  25.548  14.120   8.446
 2109POPC   C3B30237  25.562  14.076   8.042
 2109POPC   C4B30238  25.838  14.095   7.764
 2110POPC   NC330239  21.603   9.901   9.449
 2110POPC   PO430240  21.355   9.289   9.502
 2110POPC   GL130241  21.178   9.457   9.106
 2110POPC   GL230242  21.183   9.818   9.171
 2110POPC   C1A30243  21.450   9.624   8.750
 2110POPC   D2A30244  21.733   9.567   8.396
 2110POPC   C3A30245  21.498   9.664   8.039
 2110POPC   C4A30246  21.616   9.699   7.638
 2110POPC   C1B30247  21.044   9.924   8.783
 2110POPC   C2B30248  21.114   9.763   8.365
 2110POPC   C3B30249  21.077   9.945   7.932
 2110POPC   C4B30250  21.157   9.850   7.498
 2111POPC   NC330251  11.982  13.959   9.468
 2111POPC   PO430252  12.272  13.341   9.515
 2111POPC   GL130253  12.228  13.540   9.139
 2111POPC   GL230254  11.906  13.630   9.094
 2111POPC   C1A30255  12.274  13.396   8.711
 2111POPC   D2A30256  12.301  13.583   8.320
 2111POPC   C3A30257  12.094  13.369   7.981
 2111POPC   C4A30258  12.267  13.333   7.565
 2111POPC   C1B30259  12.016  13.856   8.732
 2111POPC   C2B30260  11.821  13.776   8.353
 2111POPC   C3B30261  11.973  13.850   7.983
 2111POPC   C4B30262  11.941  13.712   7.597
 2112POPC   NC330263  11.863  25.475   9.111
 2112POPC   PO430264  12.192  25.095   9.536
 2112POPC   GL130265  12.265  25.100   9.124
 2112POPC   GL230266  12.398  25.446   9.124
 2112POPC   C1A30267  12.197  25.079   8.680
 2112POPC   D2A30268  12.454  25.172   8.343
 2112POPC   C3A30269  12.225  25.021   7.988
 2112POPC   C4A30270  11.942  25.315   7.857
 2112POPC   C1B30271  12.387  25.570   8.680
 2112POPC   C2B30272  12.122  25.540   8.289
 2112POPC   C3B30273  12.176  25.779   7.929
 2112POPC   C4B30274  12.172  25.659   7.522
 2113POPC   NC330275  41.242  37.624   9.468
 2113POPC   PO430276  40.595  37.850   9.480
 2113POPC   GL130277  40.589  37.741   9.078
 2113POPC   GL230278  40.779  37.457   9.087
 2113POPC   C1A30279  40.596  37.640   8.637
 2113POPC   D2A30280  40.672  37.291   8.372
 2113POPC   C3A30281  40.650  37.463   7.969
 2113POPC   C4A30282  40.347  37.775   7.845
 2113POPC   C1B30283  41.073  37.678   8.848
 2113POPC   C2B30284  41.160  37.756   8.424
 2113POPC   C3B30285  41.328  37.796   8.027
 2113POPC   C4B30286  41.062  37.606   7.699
 2114POPC   NC330287  39.215   8.567   9.537
 2114POPC   PO430288  39.451   9.176   9.514
 2114POPC   GL130289  39.347   8.976   9.169
 2114POPC   GL230290  39.028   9.033   8.977
 2114POPC   C1A30291  39.489   8.900   8.771
 2114POPC   D2A30292  39.211   8.850   8.437
 2114POPC   C3A30293  39.287   8.662   8.040
 2114POPC   C4A30294  39.454   8.785   7.648
 2114POPC   C1B30295  39.136   9.291   8.657
 2114POPC   C2B30296  39.446   9.294   8.323
 2114POPC   C3B30297  39.259   9.165   7.964
 2114POPC   C4B30298  39.179   9.207   7.530
 2115POPC   NC330299  18.604  44.391   9.261
 2115POPC   PO430300  18.335  44.828   9.639
 2115POPC   GL130301  18.171  44.793   9.241
 2115POPC   GL230302  18.093  44.453   9.148
 2115POPC   C1A30303  18.302  44.839   8.832
 2115POPC   D2A30304  18.486  44.797   8.454
 2115POPC   C3A30305  18.502  44.456   8.157
 2115POPC   C4A30306  18.375  44.624   7.759
 2115POPC   C1B30307  17.954  44.451   8.737
 2115POPC   C2B30308  18.027  44.298   8.338
 2115POPC   C3B30309  17.896  44.367   7.917
 2115POPC   C4B30310  18.082  44.278   7.521
 2116POPC   NC330311  34.877  28.372   9.616
 2116POPC   PO430312  35.446  28.601   9.725
 2116POPC   GL130313  35.264  28.560   9.249
 2116POPC   GL230314  34.999  28.719   9.021
 2116POPC   C1A30315  35.449  28.607   8.795
 2116POPC   D2A30316  35.569  28.291   8.491
 2116POPC   C3A30317  35.471  28.451   8.098
 2116POPC   C4A30318  35.581  28.503   7.666
 2116POPC   C1B30319  35.027  28.336   8.710
 2116POPC   C2B30320  35.098  28.165   8.298
 2116POPC   C3B30321  35.044  28.257   7.852
 2116POPC   C4B30322  34.977  28.507   7.465
 2117POPC   NC330323   7.901  11.453   9.450
 2117POPC   PO430324   7.244  11.685   9.623
 2117POPC   GL130325   7.225  11.538   9.198
 2117POPC   GL230326   7.246  11.173   9.230
 2117POPC   C1A30327   7.404  11.571   8.775
 2117POPC   D2A30328   7.585  11.336   8.414
 2117POPC   C3A30329   7.495  11.527   8.022
 2117POPC   C4A30330   7.258  11.391   7.668
 2117POPC   C1B30331   7.416  11.041   8.834
 2117POPC   C2B30332   7.381  10.822   8.450
 2117POPC   C3B30333   7.424  10.992   8.055
 2117POPC   C4B30334   7.736  11.131   7.835
 2118POPC   NC330335  27.284   0.330   9.296
 2118POPC   PO430336  27.831   0.495   9.601
 2118POPC   GL130337  27.673   0.676   9.243
 2118POPC   GL230338  28.010   0.754   9.156
 2118POPC   C1A30339  27.537   0.710   8.817
 2118POPC   D2A30340  27.747   0.714   8.467
 2118POPC   C3A30341  27.592   0.466   8.138
 2118POPC   C4A30342  27.688   0.329   7.730
 2118POPC   C1B30343  28.188   0.772   8.728
 2118POPC   C2B30344  28.205   0.862   8.268
 2118POPC   C3B30345  28.078   0.601   7.908
 2118POPC   C4B30346  28.044   0.590   7.401
 2119POPC   NC330347  14.163  39.615   9.315
 2119POPC   PO430348  14.310  40.136   9.697
 2119POPC   GL130349  14.482  40.048   9.280
 2119POPC   GL230350  14.170  40.093   9.116
 2119POPC   C1A30351  14.585  39.970   8.820
 2119POPC   D2A30352  14.402  39.991   8.365
 2119POPC   C3A30353  14.416  39.809   7.942
 2119POPC   C4A30354  14.334  40.216   7.750
 2119POPC   C1B30355  14.034  39.924   8.734
 2119POPC   C2B30356  13.944  39.789   8.345
 2119POPC   C3B30357  13.954  40.008   8.000
 2119POPC   C4B30358  13.969  39.905   7.578
 2120POPC   NC330359  34.085   9.475   9.618
 2120POPC   PO430360  33.695   9.928   9.474
 2120POPC   GL130361  33.845   9.586   9.178
 2120POPC   GL230362  34.100   9.274   9.167
 2120POPC   C1A30363  33.758   9.532   8.779
 2120POPC   D2A30364  33.681   9.724   8.395
 2120POPC   C3A30365  33.607   9.450   8.079
 2120POPC   C4A30366  33.729   9.702   7.744
 2120POPC   C1B30367  34.212   9.299   8.769
 2120POPC   C2B30368  34.014   9.336   8.382
 2120POPC   C3B30369  34.121   9.482   7.984
 2120POPC   C4B30370  34.001   9.298   7.578
 2121POPC   NC330371   5.118  42.685   9.441
 2121POPC   PO430372   4.980  42.067   9.568
 2121POPC   GL130373   5.262  42.212   9.239
 2121POPC   GL230374   4.985  42.347   9.099
 2121POPC   C1A30375   5.378  42.379   8.793
 2121POPC   D2A30376   5.230  42.594   8.408
 2121POPC   C3A30377   5.249  42.371   7.997
 2121POPC   C4A30378   5.166  42.454   7.578
 2121POPC   C1B30379   4.897  42.114   8.711
 2121POPC   C2B30380   4.835  42.240   8.269
 2121POPC   C3B30381   4.794  42.112   7.824
 2121POPC   C4B30382   4.658  41.967   7.380
 2122POPC   NC330383  37.308  11.138   9.524
 2122POPC   PO430384  36.634  11.285   9.521
 2122POPC   GL130385  36.857  11.032   9.137
 2122POPC   GL230386  37.235  10.957   9.061
 2122POPC   C1A30387  36.973  11.116   8.673
 2122POPC   D2A30388  37.314  11.174   8.403
 2122POPC   C3A30389  37.122  11.103   8.037
 2122POPC   C4A30390  36.792  11.354   7.849
 2122POPC   C1B30391  37.305  11.426   8.918
 2122POPC   C2B30392  37.428  11.650   8.498
 2122POPC   C3B30393  37.209  11.618   8.079
 2122POPC   C4B30394  37.031  11.763   7.665
 2123POPC   NC330395   0.101  39.194   9.705
 2123POPC   PO430396  44.422  39.301   9.598
 2123POPC   GL130397  44.739  39.142   9.290
 2123POPC   GL230398  44.890  39.418   9.139
 2123POPC   C1A30399  44.753  39.004   8.835
 2123POPC   D2A30400  44.749  39.223   8.424
 2123POPC   C3A30401  44.523  39.258   8.042
 2123POPC   C4A30402  44.701  38.999   7.762
 2123POPC   C1B30403   0.057  39.434   8.771
 2123POPC   C2B30404   0.038  39.640   8.397
 2123POPC   C3B30405   0.006  39.449   8.006
 2123POPC   C4B30406  44.899  39.491   7.604
 2124POPC   NC330407  26.269  25.601   9.569
 2124POPC   PO430408  26.012  26.184   9.712
 2124POPC   GL130409  26.041  25.966   9.270
 2124POPC   GL230410  25.761  25.817   9.130
 2124POPC   C1A30411  25.979  26.127   8.812
 2124POPC   D2A30412  26.168  26.210   8.421
 2124POPC   C3A30413  25.984  26.142   8.023
 2124POPC   C4A30414  26.117  25.997   7.609
 2124POPC   C1B30415  25.838  25.636   8.720
 2124POPC   C2B30416  25.996  25.681   8.280
 2124POPC   C3B30417  25.847  25.633   7.832
 2124POPC   C4B30418  25.696  25.717   7.371
 2125POPC   NC330419   6.970  16.265   9.472
 2125POPC   PO430420   6.261  16.148   9.497
 2125POPC   GL130421   6.579  16.135   9.167
 2125POPC   GL230422   6.630  15.819   9.306
 2125POPC   C1A30423   6.843  16.184   8.765
 2125POPC   D2A30424   6.992  16.125   8.320
 2125POPC   C3A30425   6.784  16.202   7.904
 2125POPC   C4A30426   6.600  16.036   7.510
 2125POPC   C1B30427   6.566  15.642   8.912
 2125POPC   C2B30428   6.747  15.722   8.517
 2125POPC   C3B30429   6.707  15.708   8.084
 2125POPC   C4B30430   6.553  15.565   7.682
 2126POPC   NC330431  27.221  38.669   9.732
 2126POPC   PO430432  27.543  38.164   9.494
 2126POPC   GL130433  27.579  38.478   9.179
 2126POPC   GL230434  27.268  38.613   9.020
 2126POPC   C1A30435  27.776  38.534   8.799
 2126POPC   D2A30436  27.728  38.218   8.460
 2126POPC   C3A30437  27.623  38.300   8.005
 2126POPC   C4A30438  27.828  38.566   7.655
 2126POPC   C1B30439  27.310  38.518   8.607
 2126POPC   C2B30440  27.611  38.727   8.335
 2126POPC   C3B30441  27.479  38.794   7.937
 2126POPC   C4B30442  27.387  38.787   7.498
 2127POPC   NC330443  30.585  34.998   9.499
 2127POPC   PO430444  30.880  35.602   9.280
 2127POPC   GL130445  30.646  35.321   9.114
 2127POPC   GL230446  30.909  35.081   9.104
 2127POPC   C1A30447  30.458  35.302   8.729
 2127POPC   D2A30448  30.584  35.471   8.358
 2127POPC   C3A30449  30.492  35.231   8.030
 2127POPC   C4A30450  30.199  35.003   7.807
 2127POPC   C1B30451  30.962  35.281   8.697
 2127POPC   C2B30452  30.962  35.133   8.275
 2127POPC   C3B30453  30.967  35.192   7.829
 2127POPC   C4B30454  31.005  35.407   7.429
 2128POPC   NC330455  10.895   1.899   9.914
 2128POPC   PO430456  10.595   1.709   9.345
 2128POPC   GL130457  10.714   1.862   8.994
 2128POPC   GL230458  10.805   2.173   9.078
 2128POPC   C1A30459  10.432   1.938   8.667
 2128POPC   D2A30460  10.150   1.735   8.376
 2128POPC   C3A30461  10.437   1.746   8.055
 2128POPC   C4A30462  10.417   1.921   7.682
 2128POPC   C1B30463  10.937   2.237   8.679
 2128POPC   C2B30464  10.807   2.050   8.311
 2128POPC   C3B30465  10.576   2.281   8.033
 2128POPC   C4B30466  10.730   2.356   7.649
 2129POPC   NC330467  17.601  19.560   9.495
 2129POPC   PO430468  17.308  18.908   9.454
 2129POPC   GL130469  17.528  18.987   9.061
 2129POPC   GL230470  17.644  19.337   9.023
 2129POPC   C1A30471  17.368  19.050   8.673
 2129POPC   D2A30472  17.382  19.296   8.318
 2129POPC   C3A30473  17.194  19.096   7.989
 2129POPC   C4A30474  17.151  18.865   7.672
 2129POPC   C1B30475  17.862  19.185   8.628
 2129POPC   C2B30476  17.690  18.893   8.320
 2129POPC   C3B30477  17.641  18.871   7.910
 2129POPC   C4B30478  17.589  19.076   7.530
 2130POPC   NC330479  32.095  37.800   9.457
 2130POPC   PO430480  32.635  37.312   9.552
 2130POPC   GL130481  32.641  37.526   9.150
 2130POPC   GL230482  32.458  37.875   9.100
 2130POPC   C1A30483  32.655  37.600   8.707
 2130POPC   D2A30484  32.421  37.836   8.427
 2130POPC   C3A30485  32.255  37.607   8.059
 2130POPC   C4A30486  32.475  37.595   7.668
 2130POPC   C1B30487  32.109  37.735   8.807
 2130POPC   C2B30488  31.900  37.863   8.406
 2130POPC   C3B30489  31.754  37.706   8.016
 2130POPC   C4B30490  31.957  37.645   7.632
 2131POPC   NC330491  24.063  13.040   9.835
 2131POPC   PO430492  24.617  12.954   9.498
 2131POPC   GL130493  24.452  12.830   9.084
 2131POPC   GL230494  24.246  13.093   9.080
 2131POPC   C1A30495  24.534  12.909   8.651
 2131POPC   D2A30496  24.779  12.800   8.321
 2131POPC   C3A30497  24.558  12.750   7.956
 2131POPC   C4A30498  24.656  13.123   7.826
 2131POPC   C1B30499  24.059  13.049   8.689
 2131POPC   C2B30500  24.002  12.915   8.251
 2131POPC   C3B30501  24.056  13.139   7.865
 2131POPC   C4B30502  24.266  12.914   7.572
 2132POPC   NC330503  16.604  42.074   9.566
 2132POPC   PO430504  16.925  42.685   9.447
 2132POPC   GL130505  16.862  42.351   9.158
 2132POPC   GL230506  16.525  42.230   9.103
 2132POPC   C1A30507  16.749  42.517   8.735
 2132POPC   D2A30508  16.898  42.733   8.361
 2132POPC   C3A30509  17.000  42.546   7.974
 2132POPC   C4A30510  16.693  42.612   7.634
 2132POPC   C1B30511  16.673  42.006   8.762
 2132POPC   C2B30512  16.490  42.142   8.421
 2132POPC   C3B30513  16.574  42.301   8.075
 2132POPC   C4B30514  16.785  42.130   7.732
 2133POPC   NC330515  43.369  16.565   9.403
 2133POPC   PO430516  42.871  16.992   9.546
 2133POPC   GL130517  43.097  17.033   9.187
 2133POPC   GL230518  43.348  17.274   9.116
 2133POPC   C1A30519  42.962  16.830   8.845
 2133POPC   D2A30520  42.788  16.814   8.449
 2133POPC   C3A30521  42.943  16.554   8.121
 2133POPC   C4A30522  42.799  16.604   7.686
 2133POPC   C1B30523  43.459  16.983   8.817
 2133POPC   C2B30524  43.316  16.801   8.478
 2133POPC   C3B30525  43.396  16.782   8.091
 2133POPC   C4B30526  43.307  16.683   7.692
 2134POPC   NC330527  41.302  29.365   9.449
 2134POPC   PO430528  41.350  28.663   9.547
 2134POPC   GL130529  41.313  28.917   9.156
 2134POPC   GL230530  41.561  29.193   9.028
 2134POPC   C1A30531  41.245  28.935   8.708
 2134POPC   D2A30532  41.487  29.188   8.441
 2134POPC   C3A30533  41.494  29.067   8.011
 2134POPC   C4A30534  41.699  29.030   7.578
 2134POPC   C1B30535  41.251  29.486   8.804
 2134POPC   C2B30536  41.144  29.723   8.408
 2134POPC   C3B30537  41.328  29.529   8.073
 2134POPC   C4B30538  41.347  29.389   7.635
 2135POPC   NC330539  12.229   0.048   9.430
 2135POPC   PO430540  12.269   0.742   9.446
 2135POPC   GL130541  12.180   0.507   9.089
 2135POPC   GL230542  11.877   0.353   9.088
 2135POPC   C1A30543  12.116   0.616   8.646
 2135POPC   D2A30544  12.214   0.971   8.357
 2135POPC   C3A30545  12.272   0.751   7.946
 2135POPC   C4A30546  12.404   0.322   7.874
 2135POPC   C1B30547  12.016   0.099   8.752
 2135POPC   C2B30548  12.137   0.162   8.316
 2135POPC   C3B30549  11.897   0.361   7.986
 2135POPC   C4B30550  11.562   0.551   7.794
 2136POPC   NC330551  25.086   9.298   9.413
 2136POPC   PO430552  25.530   8.924   9.726
 2136POPC   GL130553  25.549   8.955   9.211
 2136POPC   GL230554  25.208   8.980   9.053
 2136POPC   C1A30555  25.531   8.732   8.772
 2136POPC   D2A30556  25.531   8.864   8.335
 2136POPC   C3A30557  25.178   9.106   8.190
 2136POPC   C4A30558  24.972   8.966   7.821
 2136POPC   C1B30559  25.083   9.212   8.695
 2136POPC   C2B30560  25.480   9.326   8.537
 2136POPC   C3B30561  25.669   9.319   8.134
 2136POPC   C4B30562  25.427   9.203   7.764
 2137POPC   NC330563  17.627   7.452   9.464
 2137POPC   PO430564  17.240   6.996   9.248
 2137POPC   GL130565  17.550   7.210   9.005
 2137POPC   GL230566  17.517   7.603   8.981
 2137POPC   C1A30567  17.562   7.287   8.582
 2137POPC   D2A30568  17.430   7.537   8.290
 2137POPC   C3A30569  17.698   7.572   7.985
 2137POPC   C4A30570  17.814   7.279   7.688
 2137POPC   C1B30571  17.146   7.708   8.706
 2137POPC   C2B30572  17.043   7.878   8.288
 2137POPC   C3B30573  17.148   7.693   7.879
 2137POPC   C4B30574  17.403   7.538   7.521
 2138POPC   NC330575   0.456  23.979   9.449
 2138POPC   PO430576   0.971  23.545   9.639
 2138POPC   GL130577   0.694  23.632   9.174
 2138POPC   GL230578   0.288  23.646   9.094
 2138POPC   C1A30579   0.569  23.786   8.714
 2138POPC   D2A30580   0.315  23.598   8.375
 2138POPC   C3A30581   0.383  23.606   7.935
 2138POPC   C4A30582   0.544  23.915   7.698
 2138POPC   C1B30583   0.033  23.859   8.750
 2138POPC   C2B30584   0.059  24.064   8.311
 2138POPC   C3B30585   0.028  23.976   7.872
 2138POPC   C4B30586   0.077  23.734   7.523
 2139POPC   NC330587  26.434  26.826   9.260
 2139POPC   PO430588  27.072  27.032   9.371
 2139POPC   GL130589  26.963  26.733   9.059
 2139POPC   GL230590  26.781  26.421   9.108
 2139POPC   C1A30591  27.122  26.474   8.735
 2139POPC   D2A30592  27.313  26.544   8.354
 2139POPC   C3A30593  26.994  26.731   8.127
 2139POPC   C4A30594  26.836  26.599   7.746
 2139POPC   C1B30595  26.595  26.513   8.666
 2139POPC   C2B30596  26.544  26.469   8.200
 2139POPC   C3B30597  26.320  26.545   7.844
 2139POPC   C4B30598  26.439  26.823   7.525
 2140POPC   NC330599   3.332  11.909   9.562
 2140POPC   PO430600   3.999  11.794   9.467
 2140POPC   GL130601   3.693  11.819   9.142
 2140POPC   GL230602   3.529  12.127   9.119
 2140POPC   C1A30603   3.646  11.777   8.691
 2140POPC   D2A30604   3.463  12.093   8.394
 2140POPC   C3A30605   3.554  11.933   8.012
 2140POPC   C4A30606   3.609  12.201   7.716
 2140POPC   C1B30607   3.194  11.916   8.872
 2140POPC   C2B30608   3.162  11.713   8.478
 2140POPC   C3B30609   3.054  11.866   8.080
 2140POPC   C4B30610   3.146  12.023   7.666
 2141POPC   NC330611  42.515  32.159   9.275
 2141POPC   PO430612  43.180  32.409   9.419
 2141POPC   GL130613  42.993  32.190   9.102
 2141POPC   GL230614  42.830  32.494   9.054
 2141POPC   C1A30615  42.961  32.192   8.656
 2141POPC   D2A30616  43.321  32.263   8.420
 2141POPC   C3A30617  43.368  32.299   7.982
 2141POPC   C4A30618  43.090  32.145   7.686
 2141POPC   C1B30619  42.714  32.682   8.681
 2141POPC   C2B30620  42.758  32.518   8.256
 2141POPC   C3B30621  42.791  32.549   7.799
 2141POPC   C4B30622  42.688  32.471   7.340
 2142POPC   NC330623  18.651  36.800   9.401
 2142POPC   PO430624  19.281  37.072   9.530
 2142POPC   GL130625  19.089  36.992   9.149
 2142POPC   GL230626  19.029  36.631   9.118
 2142POPC   C1A30627  19.142  36.929   8.711
 2142POPC   D2A30628  19.205  37.187   8.395
 2142POPC   C3A30629  18.997  37.120   8.063
 2142POPC   C4A30630  19.171  37.252   7.722
 2142POPC   C1B30631  18.711  36.659   8.768
 2142POPC   C2B30632  18.825  36.690   8.340
 2142POPC   C3B30633  18.649  36.772   7.951
 2142POPC   C4B30634  18.808  36.925   7.549
 2143POPC   NC330635   1.686  15.300   9.781
 2143POPC   PO430636   2.300  15.001   9.584
 2143POPC   GL130637   2.146  15.226   9.186
 2143POPC   GL230638   2.422  15.446   9.087
 2143POPC   C1A30639   1.881  15.133   8.763
 2143POPC   D2A30640   1.612  15.233   8.364
 2143POPC   C3A30641   1.709  15.046   7.975
 2143POPC   C4A30642   1.995  14.979   7.670
 2143POPC   C1B30643   2.397  15.111   8.762
 2143POPC   C2B30644   2.240  14.955   8.371
 2143POPC   C3B30645   2.354  15.146   7.981
 2143POPC   C4B30646   2.376  15.323   7.558
 2144POPC   NC330647  41.510   5.195   9.635
 2144POPC   PO430648  41.127   4.696   9.430
 2144POPC   GL130649  41.500   4.882   9.186
 2144POPC   GL230650  41.589   5.268   9.146
 2144POPC   C1A30651  41.620   4.939   8.749
 2144POPC   D2A30652  41.370   5.055   8.388
 2144POPC   C3A30653  41.469   4.930   7.984
 2144POPC   C4A30654  41.216   5.066   7.634
 2144POPC   C1B30655  41.607   5.461   8.749
 2144POPC   C2B30656  41.376   5.562   8.396
 2144POPC   C3B30657  41.419   5.466   7.967
 2144POPC   C4B30658  41.746   5.291   7.738
 2145POPC   NC330659  21.047  29.945   9.990
 2145POPC   PO430660  20.530  29.871   9.487
 2145POPC   GL130661  20.488  29.856   9.090
 2145POPC   GL230662  20.254  29.630   9.022
 2145POPC   C1A30663  20.399  29.956   8.671
 2145POPC   D2A30664  20.724  30.097   8.424
 2145POPC   C3A30665  20.558  30.100   8.047
 2145POPC   C4A30666  20.660  29.842   7.738
 2145POPC   C1B30667  20.374  29.458   8.623
 2145POPC   C2B30668  20.504  29.609   8.229
 2145POPC   C3B30669  20.224  29.622   7.880
 2145POPC   C4B30670  20.287  29.613   7.421
 2146POPC   NC330671  23.477  16.401   9.671
 2146POPC   PO430672  23.641  16.959   9.496
 2146POPC   GL130673  23.552  16.713   9.153
 2146POPC   GL230674  23.479  16.351   9.158
 2146POPC   C1A30675  23.588  16.845   8.739
 2146POPC   D2A30676  23.696  16.653   8.338
 2146POPC   C3A30677  23.815  16.868   7.978
 2146POPC   C4A30678  23.563  17.106   7.707
 2146POPC   C1B30679  23.741  16.344   8.755
 2146POPC   C2B30680  23.934  16.199   8.342
 2146POPC   C3B30681  23.859  16.312   7.899
 2146POPC   C4B30682  23.599  16.517   7.617
 2147POPC   NC330683  13.565  16.567   9.509
 2147POPC   PO430684  13.394  17.124   9.196
 2147POPC   GL130685  13.598  16.726   9.015
 2147POPC   GL230686  13.924  16.652   9.157
 2147POPC   C1A30687  13.764  16.781   8.599
 2147POPC   D2A30688  13.584  16.982   8.212
 2147POPC   C3A30689  13.484  16.672   7.917
 2147POPC   C4A30690  13.198  16.331   7.798
 2147POPC   C1B30691  14.159  16.506   8.833
 2147POPC   C2B30692  14.093  16.448   8.403
 2147POPC   C3B30693  13.994  16.676   8.070
 2147POPC   C4B30694  13.907  16.993   7.796
 2148POPC   NC330695   1.202  41.264   9.370
 2148POPC   PO430696   1.030  40.616   9.488
 2148POPC   GL130697   1.006  40.857   9.097
 2148POPC   GL230698   0.811  41.184   9.078
 2148POPC   C1A30699   1.319  41.011   8.780
 2148POPC   D2A30700   1.433  41.024   8.360
 2148POPC   C3A30701   1.487  40.663   8.156
 2148POPC   C4A30702   1.424  40.617   7.718
 2148POPC   C1B30703   0.897  41.309   8.695
 2148POPC   C2B30704   0.912  41.144   8.305
 2148POPC   C3B30705   1.063  40.896   7.997
 2148POPC   C4B30706   0.883  40.632   7.702
 2149POPC   NC330707  35.039  16.994   9.338
 2149POPC   PO430708  35.736  16.918   9.427
 2149POPC   GL130709  35.570  16.810   9.042
 2149POPC   GL230710  35.281  16.682   9.030
 2149POPC   C1A30711  35.616  16.740   8.624
 2149POPC   D2A30712  35.382  16.840   8.272
 2149POPC   C3A30713  35.479  16.668   7.891
 2149POPC   C4A30714  35.513  16.246   7.800
 2149POPC   C1B30715  35.101  16.887   8.699
 2149POPC   C2B30716  34.866  16.928   8.331
 2149POPC   C3B30717  35.001  16.922   7.915
 2149POPC   C4B30718  34.971  16.885   7.447
 2150POPC   NC330719  21.904   1.482   9.424
 2150POPC   PO430720  22.367   1.116   9.444
 2150POPC   GL130721  22.178   1.264   9.066
 2150POPC   GL230722  22.348   1.565   9.068
 2150POPC   C1A30723  22.161   1.121   8.651
 2150POPC   D2A30724  22.528   1.179   8.307
 2150POPC   C3A30725  22.351   1.135   7.892
 2150POPC   C4A30726  21.998   0.946   7.683
 2150POPC   C1B30727  22.376   1.580   8.609
 2150POPC   C2B30728  22.088   1.455   8.280
 2150POPC   C3B30729  21.904   1.402   7.900
 2150POPC   C4B30730  22.137   1.469   7.556
 2151POPC   NC330731  38.334  30.127   9.617
 2151POPC   PO430732  38.271  29.520   9.395
 2151POPC   GL130733  38.292  29.806   9.058
 2151POPC   GL230734  38.153  30.115   9.123
 2151POPC   C1A30735  38.491  30.067   8.720
 2151POPC   D2A30736  38.646  30.102   8.268
 2151POPC   C3A30737  38.661  29.741   7.962
 2151POPC   C4A30738  38.734  29.812   7.517
 2151POPC   C1B30739  37.988  30.259   8.743
 2151POPC   C2B30740  38.164  30.270   8.363
 2151POPC   C3B30741  38.115  30.308   7.949
 2151POPC   C4B30742  38.305  30.018   7.705
 2152POPC   NC330743  41.974  25.094   9.590
 2152POPC   PO430744  41.358  25.435   9.565
 2152POPC   GL130745  41.587  25.211   9.238
 2152POPC   GL230746  41.941  25.326   9.131
 2152POPC   C1A30747  41.474  25.250   8.805
 2152POPC   D2A30748  41.580  24.991   8.457
 2152POPC   C3A30749  41.475  25.168   8.032
 2152POPC   C4A30750  41.583  24.873   7.719
 2152POPC   C1B30751  41.984  25.223   8.729
 2152POPC   C2B30752  41.856  25.410   8.373
 2152POPC   C3B30753  41.969  25.282   7.988
 2152POPC   C4B30754  41.844  25.341   7.578
 2153POPC   NC330755   1.128  13.668   9.748
 2153POPC   PO430756   1.433  13.311   9.337
 2153POPC   GL130757   1.166  13.541   9.089
 2153POPC   GL230758   1.460  13.588   8.855
 2153POPC   C1A30759   1.028  13.751   8.720
 2153POPC   D2A30760   1.319  13.807   8.366
 2153POPC   C3A30761   1.139  13.738   7.970
 2153POPC   C4A30762   0.937  13.523   7.640
 2153POPC   C1B30763   1.757  13.858   8.645
 2153POPC   C2B30764   1.781  14.094   8.271
 2153POPC   C3B30765   1.492  14.099   7.929
 2153POPC   C4B30766   1.469  13.926   7.506
 2154POPC   NC330767  20.491  42.341   9.508
 2154POPC   PO430768  20.915  42.796   9.170
 2154POPC   GL130769  20.638  42.564   9.047
 2154POPC   GL230770  20.646  42.224   9.051
 2154POPC   C1A30771  20.779  42.427   8.614
 2154POPC   D2A30772  20.900  42.560   8.214
 2154POPC   C3A30773  20.542  42.718   7.965
 2154POPC   C4A30774  20.532  42.761   7.480
 2154POPC   C1B30775  20.491  42.009   8.718
 2154POPC   C2B30776  20.698  41.956   8.317
 2154POPC   C3B30777  20.607  41.922   7.894
 2154POPC   C4B30778  20.561  42.294   7.662
 2155POPC   NC330779  16.363  40.590   9.514
 2155POPC   PO430780  15.719  40.895   9.643
 2155POPC   GL130781  15.709  40.931   9.219
 2155POPC   GL230782  16.052  40.819   9.194
 2155POPC   C1A30783  15.739  40.761   8.778
 2155POPC   D2A30784  15.852  40.411   8.481
 2155POPC   C3A30785  15.629  40.445   8.064
 2155POPC   C4A30786  15.572  40.453   7.593
 2155POPC   C1B30787  16.204  40.584   8.845
 2155POPC   C2B30788  16.147  40.834   8.470
 2155POPC   C3B30789  16.242  40.867   8.050
 2155POPC   C4B30790  15.922  41.004   7.785
 2156POPC   NC330791  27.381  27.317   9.574
 2156POPC   PO430792  27.720  27.831   9.366
 2156POPC   GL130793  27.523  27.715   9.053
 2156POPC   GL230794  27.234  27.548   9.164
 2156POPC   C1A30795  27.633  27.709   8.636
 2156POPC   D2A30796  27.759  27.355   8.411
 2156POPC   C3A30797  27.720  27.444   7.978
 2156POPC   C4A30798  27.688  27.216   7.604
 2156POPC   C1B30799  27.242  27.396   8.777
 2156POPC   C2B30800  27.153  27.561   8.402
 2156POPC   C3B30801  27.069  27.375   8.030
 2156POPC   C4B30802  27.287  27.512   7.688
 2157POPC   NC330803   8.610  43.649   9.449
 2157POPC   PO430804   8.467  42.982   9.585
 2157POPC   GL130805   8.305  43.219   9.194
 2157POPC   GL230806   8.243  42.874   9.112
 2157POPC   C1A30807   8.110  43.191   8.760
 2157POPC   D2A30808   8.268  43.014   8.377
 2157POPC   C3A30809   8.179  43.261   8.016
 2157POPC   C4A30810   7.830  43.527   7.892
 2157POPC   C1B30811   8.353  42.642   8.733
 2157POPC   C2B30812   8.224  42.524   8.297
 2157POPC   C3B30813   8.305  42.748   7.912
 2157POPC   C4B30814   8.406  42.673   7.458
 2158POPC   NC330815  37.430  30.369   9.491
 2158POPC   PO430816  37.815  30.920   9.483
 2158POPC   GL130817  37.622  30.705   9.158
 2158POPC   GL230818  37.941  30.593   9.097
 2158POPC   C1A30819  37.562  30.641   8.720
 2158POPC   D2A30820  37.851  30.675   8.395
 2158POPC   C3A30821  37.638  30.627   8.006
 2158POPC   C4A30822  37.760  30.484   7.619
 2158POPC   C1B30823  37.891  31.017   8.833
 2158POPC   C2B30824  37.657  31.130   8.490
 2158POPC   C3B30825  37.781  31.104   8.094
 2158POPC   C4B30826  37.845  31.140   7.668
 2159POPC   NC330827  37.845  32.138   9.635
 2159POPC   PO430828  37.548  32.646   9.515
 2159POPC   GL130829  37.560  32.487   9.115
 2159POPC   GL230830  37.584  32.164   9.162
 2159POPC   C1A30831  37.417  32.466   8.691
 2159POPC   D2A30832  37.223  32.395   8.296
 2159POPC   C3A30833  37.553  32.364   8.101
 2159POPC   C4A30834  37.719  32.422   7.743
 2159POPC   C1B30835  37.507  31.937   8.774
 2159POPC   C2B30836  37.721  31.854   8.376
 2159POPC   C3B30837  37.673  31.914   7.933
 2159POPC   C4B30838  37.333  32.050   7.726
 2160POPC   NC330839  21.767   0.086   9.614
 2160POPC   PO430840  21.326   0.636   9.465
 2160POPC   GL130841  21.597   0.417   9.234
 2160POPC   GL230842  21.348   0.137   9.210
 2160POPC   C1A30843  21.732   0.539   8.818
 2160POPC   D2A30844  21.502   0.492   8.442
 2160POPC   C3A30845  21.536   0.750   8.088
 2160POPC   C4A30846  21.406   0.589   7.698
 2160POPC   C1B30847  21.557   0.060   8.808
 2160POPC   C2B30848  21.657  44.999   8.351
 2160POPC   C3B30849  21.404   0.189   8.023
 2160POPC   C4B30850  21.025   0.254   7.772
 2161POPC   NC330851   2.342  43.514   9.325
 2161POPC   PO430852   2.831  43.004   9.455
 2161POPC   GL130853   2.840  42.995   9.046
 2161POPC   GL230854   2.689  43.312   9.004
 2161POPC   C1A30855   2.919  42.768   8.661
 2161POPC   D2A30856   3.155  42.819   8.262
 2161POPC   C3A30857   2.912  42.778   7.882
 2161POPC   C4A30858   2.515  42.995   7.850
 2161POPC   C1B30859   2.898  43.276   8.621
 2161POPC   C2B30860   2.778  43.198   8.237
 2161POPC   C3B30861   2.738  43.476   7.885
 2161POPC   C4B30862   2.830  43.678   7.480
 2162POPC   NC330863  43.547   2.857   9.781
 2162POPC   PO430864  42.902   2.693   9.567
 2162POPC   GL130865  43.252   2.720   9.242
 2162POPC   GL230866  43.277   3.023   9.135
 2162POPC   C1A30867  43.426   2.600   8.855
 2162POPC   D2A30868  43.249   2.662   8.438
 2162POPC   C3A30869  43.425   2.533   8.055
 2162POPC   C4A30870  43.191   2.642   7.698
 2162POPC   C1B30871  42.953   2.815   8.837
 2162POPC   C2B30872  42.781   2.897   8.419
 2162POPC   C3B30873  42.788   2.849   7.969
 2162POPC   C4B30874  42.802   2.937   7.492
 2163POPC   NC330875  22.237  19.926   9.605
 2163POPC   PO430876  21.718  19.552   9.364
 2163POPC   GL130877  22.112  19.719   9.140
 2163POPC   GL230878  22.131  20.105   9.124
 2163POPC   C1A30879  22.324  19.811   8.739
 2163POPC   D2A30880  22.287  20.061   8.368
 2163POPC   C3A30881  22.207  19.790   8.023
 2163POPC   C4A30882  22.475  19.687   7.688
 2163POPC   C1B30883  21.866  20.087   8.745
 2163POPC   C2B30884  21.791  19.983   8.293
 2163POPC   C3B30885  21.784  20.143   7.873
 2163POPC   C4B30886  22.135  20.067   7.603
 2164POPC   NC330887  19.973  24.644   9.489
 2164POPC   PO430888  19.577  24.046   9.478
 2164POPC   GL130889  19.714  24.318   9.163
 2164POPC   GL230890  20.063  24.221   9.145
 2164POPC   C1A30891  19.853  24.534   8.768
 2164POPC   D2A30892  19.666  24.789   8.424
 2164POPC   C3A30893  19.616  24.651   7.990
 2164POPC   C4A30894  19.853  24.803   7.636
 2164POPC   C1B30895  20.259  24.129   8.758
 2164POPC   C2B30896  20.144  24.352   8.371
 2164POPC   C3B30897  20.104  24.480   7.927
 2164POPC   C4B30898  20.161  24.421   7.475
 2165POPC   NC330899  37.241  10.161   9.521
 2165POPC   PO430900  36.949   9.511   9.552
 2165POPC   GL130901  37.052   9.611   9.136
 2165POPC   GL230902  37.268   9.855   9.116
 2165POPC   C1A30903  36.860   9.771   8.743
 2165POPC   D2A30904  36.662   9.684   8.332
 2165POPC   C3A30905  36.893   9.563   7.942
 2165POPC   C4A30906  36.629   9.359   7.644
 2165POPC   C1B30907  37.319  10.056   8.722
 2165POPC   C2B30908  37.016  10.189   8.415
 2165POPC   C3B30909  36.822  10.067   8.021
 2165POPC   C4B30910  36.671   9.940   7.620
 2166POPC   NC330911  20.117  33.883   9.458
 2166POPC   PO430912  19.657  33.498   9.705
 2166POPC   GL130913  19.664  33.698   9.279
 2166POPC   GL230914  19.399  33.915   9.212
 2166POPC   C1A30915  19.817  33.757   8.851
 2166POPC   D2A30916  19.930  33.932   8.450
 2166POPC   C3A30917  19.953  33.781   8.077
 2166POPC   C4A30918  20.043  33.992   7.739
 2166POPC   C1B30919  19.330  33.851   8.772
 2166POPC   C2B30920  19.508  33.671   8.426
 2166POPC   C3B30921  19.431  33.818   8.053
 2166POPC   C4B30922  19.593  33.753   7.685
 2167POPC   NC330923  43.539  28.717   9.274
 2167POPC   PO430924  44.175  28.435   9.321
 2167POPC   GL130925  43.903  28.194   9.147
 2167POPC   GL230926  43.829  28.486   8.943
 2167POPC   C1A30927  44.047  28.087   8.745
 2167POPC   D2A30928  44.092  28.450   8.440
 2167POPC   C3A30929  44.071  28.279   8.025
 2167POPC   C4A30930  43.847  28.078   7.698
 2167POPC   C1B30931  43.564  28.586   8.616
 2167POPC   C2B30932  43.569  28.648   8.223
 2167POPC   C3B30933  43.623  28.521   7.840
 2167POPC   C4B30934  43.410  28.581   7.457
 2168POPC   NC330935  35.968  44.356   9.570
 2168POPC   PO430936  36.642  44.458   9.704
 2168POPC   GL130937  36.370  44.396   9.200
 2168POPC   GL230938  35.973  44.482   9.085
 2168POPC   C1A30939  36.261  44.424   8.675
 2168POPC   D2A30940  36.389  44.523   8.233
 2168POPC   C3A30941  36.155  44.644   7.839
 2168POPC   C4A30942  36.243  44.596   7.367
 2168POPC   C1B30943  36.153  44.865   8.881
 2168POPC   C2B30944  36.394  44.960   8.480
 2168POPC   C3B30945  36.598  44.942   8.032
 2168POPC   C4B30946  36.439   0.016   7.601
 2169POPC   NC330947  15.952  19.496   9.513
 2169POPC   PO430948  16.054  20.114   9.692
 2169POPC   GL130949  16.049  20.015   9.252
 2169POPC   GL230950  16.296  19.799   9.180
 2169POPC   C1A30951  16.023  20.058   8.800
 2169POPC   D2A30952  15.968  19.795   8.432
 2169POPC   C3A30953  15.951  19.993   8.053
 2169POPC   C4A30954  16.242  19.998   7.726
 2169POPC   C1B30955  16.083  19.536   8.864
 2169POPC   C2B30956  16.193  19.308   8.476
 2169POPC   C3B30957  16.118  19.446   8.031
 2169POPC   C4B30958  16.284  19.490   7.619
 2170POPC   NC330959  29.153  24.280   9.688
 2170POPC   PO430960  29.315  24.876   9.697
 2170POPC   GL130961  29.021  24.656   9.340
 2170POPC   GL230962  28.884  24.970   9.202
 2170POPC   C1A30963  29.073  24.416   8.895
 2170POPC   D2A30964  29.337  24.325   8.490
 2170POPC   C3A30965  29.178  24.349   8.049
 2170POPC   C4A30966  29.186  24.172   7.633
 2170POPC   C1B30967  28.935  24.897   8.776
 2170POPC   C2B30968  28.967  24.686   8.408
 2170POPC   C3B30969  29.050  24.832   8.005
 2170POPC   C4B30970  29.086  24.658   7.548
 2171POPC   NC330971  40.619   3.180   9.371
 2171POPC   PO430972  40.810   3.836   9.496
 2171POPC   GL130973  40.668   3.664   9.145
 2171POPC   GL230974  40.996   3.731   9.031
 2171POPC   C1A30975  40.666   3.480   8.731
 2171POPC   D2A30976  40.611   3.709   8.347
 2171POPC   C3A30977  40.655   3.596   7.911
 2171POPC   C4A30978  40.809   3.272   7.608
 2171POPC   C1B30979  41.223   4.012   8.831
 2171POPC   C2B30980  41.088   4.172   8.455
 2171POPC   C3B30981  41.022   3.935   8.083
 2171POPC   C4B30982  41.145   3.621   7.779
 2172POPC   NC330983  40.196  19.618   9.611
 2172POPC   PO430984  39.782  20.114   9.697
 2172POPC   GL130985  40.047  19.961   9.274
 2172POPC   GL230986  39.892  19.616   9.172
 2172POPC   C1A30987  40.220  19.799   8.825
 2172POPC   D2A30988  40.088  19.845   8.357
 2172POPC   C3A30989  40.375  19.785   7.966
 2172POPC   C4A30990  40.212  19.878   7.529
 2172POPC   C1B30991  39.867  19.451   8.712
 2172POPC   C2B30992  39.789  19.445   8.250
 2172POPC   C3B30993  39.894  19.658   7.877
 2172POPC   C4B30994  39.761  19.666   7.445
 2173POPC   NC330995  22.272  37.450   9.602
 2173POPC   PO430996  22.131  36.811   9.559
 2173POPC   GL130997  22.050  37.121   9.224
 2173POPC   GL230998  21.890  36.869   9.081
 2173POPC   C1A30999  22.177  37.239   8.788
 2173POPC   D2A31000  22.362  36.951   8.489
 2173POPC   C3A31001  22.228  36.843   8.072
 2173POPC   C4A31002  22.402  36.804   7.609
 2173POPC   C1B31003  21.980  36.600   8.745
 2173POPC   C2B31004  21.910  36.402   8.373
 2173POPC   C3B31005  21.783  36.604   8.034
 2173POPC   C4B31006  21.896  36.787   7.696
 2174POPC   NC331007  24.350  10.255   9.929
 2174POPC   PO431008  24.490  10.798   9.790
 2174POPC   GL131009  24.377  10.638   9.352
 2174POPC   GL231010  24.051  10.553   9.223
 2174POPC   C1A31011  24.395  10.726   8.888
 2174POPC   D2A31012  24.584  10.542   8.500
 2174POPC   C3A31013  24.449  10.630   8.065
 2174POPC   C4A31014  24.639  10.427   7.686
 2174POPC   C1B31015  24.171  10.292   8.812
 2174POPC   C2B31016  24.195  10.221   8.370
 2174POPC   C3B31017  24.163  10.187   7.925
 2174POPC   C4B31018  24.161  10.503   7.573
 2175POPC   NC331019  23.424  43.989   9.476
 2175POPC   PO431020  24.032  43.679   9.392
 2175POPC   GL131021  23.783  43.990   9.124
 2175POPC   GL231022  23.599  43.743   9.052
 2175POPC   C1A31023  23.640  44.106   8.710
 2175POPC   D2A31024  23.701  43.891   8.317
 2175POPC   C3A31025  23.581  44.232   8.006
 2175POPC   C4A31026  23.799  44.332   7.646
 2175POPC   C1B31027  24.004  43.747   8.743
 2175POPC   C2B31028  24.171  43.604   8.361
 2175POPC   C3B31029  24.014  43.617   7.985
 2175POPC   C4B31030  23.698  43.783   7.797
 2176POPC   NC331031  29.819  19.610   9.471
 2176POPC   PO431032  29.981  20.318   9.410
 2176POPC   GL131033  29.742  20.032   9.139
 2176POPC   GL231034  30.070  19.866   9.111
 2176POPC   C1A31035  29.757  19.772   8.735
 2176POPC   D2A31036  30.152  19.703   8.492
 2176POPC   C3A31037  30.153  19.859   8.073
 2176POPC   C4A31038  29.920  19.790   7.684
 2176POPC   C1B31039  30.138  20.142   8.801
 2176POPC   C2B31040  30.281  20.217   8.423
 2176POPC   C3B31041  30.328  20.360   8.019
 2176POPC   C4B31042  30.283  20.157   7.627
 2177POPC   NC331043  43.647  42.833   9.518
 2177POPC   PO431044  44.238  42.921   9.308
 2177POPC   GL131045  43.918  42.891   9.053
 2177POPC   GL231046  43.617  42.667   9.067
 2177POPC   C1A31047  44.017  42.980   8.638
 2177POPC   D2A31048  44.139  42.978   8.222
 2177POPC   C3A31049  43.938  43.279   7.999
 2177POPC   C4A31050  44.118  43.338   7.622
 2177POPC   C1B31051  43.513  42.866   8.735
 2177POPC   C2B31052  43.325  42.765   8.402
 2177POPC   C3B31053  43.473  42.766   7.999
 2177POPC   C4B31054  43.847  42.826   7.793
 2178POPC   NC331055  42.059   6.945   9.563
 2178POPC   PO431056  41.684   6.374   9.387
 2178POPC   GL131057  41.654   6.718   9.100
 2178POPC   GL231058  41.304   6.850   9.117
 2178POPC   C1A31059  41.858   6.685   8.683
 2178POPC   D2A31060  41.962   6.385   8.329
 2178POPC   C3A31061  41.829   6.572   7.928
 2178POPC   C4A31062  41.382   6.423   7.841
 2178POPC   C1B31063  41.301   6.595   8.722
 2178POPC   C2B31064  41.478   6.633   8.307
 2178POPC   C3B31065  41.458   6.930   7.951
 2178POPC   C4B31066  41.717   7.055   7.639
 2179POPC   NC331067  11.071  20.294   9.328
 2179POPC   PO431068  11.328  19.764   9.365
 2179POPC   GL131069  11.215  19.901   8.989
 2179POPC   GL231070  10.862  20.003   8.967
 2179POPC   C1A31071  11.559  19.904   8.702
 2179POPC   D2A31072  11.751  20.086   8.369
 2179POPC   C3A31073  11.449  20.030   8.081
 2179POPC   C4A31074  11.352  19.903   7.681
 2179POPC   C1B31075  10.827  19.701   8.633
 2179POPC   C2B31076  10.973  19.693   8.194
 2179POPC   C3B31077  10.861  19.776   7.778
 2179POPC   C4B31078  10.626  19.747   7.401
 2180POPC   NC331079   0.053  23.132   9.458
 2180POPC   PO431080  44.372  23.317   9.470
 2180POPC   GL131081  44.589  23.111   9.125
 2180POPC   GL231082  44.938  23.175   8.960
 2180POPC   C1A31083  44.500  22.931   8.729
 2180POPC   D2A31084  44.649  22.957   8.311
 2180POPC   C3A31085  44.582  22.697   7.961
 2180POPC   C4A31086  44.633  23.052   7.723
 2180POPC   C1B31087  44.976  22.728   8.782
 2180POPC   C2B31088  44.983  22.586   8.332
 2180POPC   C3B31089   0.094  22.734   7.861
 2180POPC   C4B31090  44.934  22.842   7.398
 2181POPC   NC331091  12.657  19.773   9.561
 2181POPC   PO431092  13.286  19.651   9.446
 2181POPC   GL131093  13.030  19.806   9.123
 2181POPC   GL231094  12.738  19.594   9.103
 2181POPC   C1A31095  12.813  19.976   8.753
 2181POPC   D2A31096  12.623  19.764   8.398
 2181POPC   C3A31097  12.870  19.878   8.079
 2181POPC   C4A31098  12.787  20.078   7.731
 2181POPC   C1B31099  12.875  19.442   8.717
 2181POPC   C2B31100  12.837  19.278   8.312
 2181POPC   C3B31101  12.691  19.421   7.948
 2181POPC   C4B31102  12.793  19.588   7.566
 2182POPC   NC331103  32.755  26.194   9.540
 2182POPC   PO431104  33.103  25.584   9.393
 2182POPC   GL131105  32.924  25.921   9.120
 2182POPC   GL231106  33.144  26.234   9.114
 2182POPC   C1A31107  32.910  26.046   8.670
 2182POPC   D2A31108  33.219  26.243   8.367
 2182POPC   C3A31109  32.977  26.218   7.999
 2182POPC   C4A31110  32.749  25.855   7.897
 2182POPC   C1B31111  33.357  25.895   8.825
 2182POPC   C2B31112  33.255  25.719   8.395
 2182POPC   C3B31113  33.253  25.789   7.945
 2182POPC   C4B31114  33.361  25.684   7.513
 2183POPC   NC331115  39.362  19.939   9.763
 2183POPC   PO431116  39.523  19.324   9.470
 2183POPC   GL131117  39.377  19.716   9.172
 2183POPC   GL231118  39.463  20.086   9.266
 2183POPC   C1A31119  39.167  19.876   8.757
 2183POPC   D2A31120  38.851  19.975   8.411
 2183POPC   C3A31121  39.060  19.952   8.009
 2183POPC   C4A31122  39.158  19.923   7.585
 2183POPC   C1B31123  39.729  20.014   8.900
 2183POPC   C2B31124  39.618  19.868   8.531
 2183POPC   C3B31125  39.595  19.967   8.128
 2183POPC   C4B31126  39.634  20.102   7.726
 2184POPC   NC331127  33.867  24.785   9.877
 2184POPC   PO431128  34.113  24.504   9.334
 2184POPC   GL131129  33.841  24.524   9.061
 2184POPC   GL231130  33.931  24.838   8.976
 2184POPC   C1A31131  33.923  24.398   8.669
 2184POPC   D2A31132  33.769  24.379   8.278
 2184POPC   C3A31133  34.052  24.531   7.992
 2184POPC   C4A31134  33.941  24.188   7.732
 2184POPC   C1B31135  33.586  24.858   8.719
 2184POPC   C2B31136  33.716  24.891   8.336
 2184POPC   C3B31137  33.561  24.796   7.982
 2184POPC   C4B31138  33.800  24.789   7.634
 2185POPC   NC331139  34.399  29.363   9.497
 2185POPC   PO431140  34.753  28.831   9.464
 2185POPC   GL131141  34.662  29.114   9.129
 2185POPC   GL231142  34.359  28.976   8.991
 2185POPC   C1A31143  34.560  29.434   8.805
 2185POPC   D2A31144  34.378  29.484   8.394
 2185POPC   C3A31145  34.542  29.233   8.063
 2185POPC   C4A31146  34.412  29.179   7.651
 2185POPC   C1B31147  34.501  29.002   8.567
 2185POPC   C2B31148  34.865  28.797   8.440
 2185POPC   C3B31149  35.027  28.718   8.072
 2185POPC   C4B31150  34.764  28.832   7.778
 2186POPC   NC331151  29.822  23.643   9.518
 2186POPC   PO431152  29.866  24.197   9.205
 2186POPC   GL131153  29.871  23.804   9.008
 2186POPC   GL231154  29.890  23.450   9.071
 2186POPC   C1A31155  30.103  23.741   8.654
 2186POPC   D2A31156  30.298  23.957   8.299
 2186POPC   C3A31157  30.102  23.704   8.007
 2186POPC   C4A31158  29.887  23.706   7.639
 2186POPC   C1B31159  29.884  23.279   8.717
 2186POPC   C2B31160  29.840  23.384   8.332
 2186POPC   C3B31161  29.982  23.210   8.004
 2186POPC   C4B31162  29.781  23.135   7.677
 2187POPC   NC331163   8.848   3.100   9.534
 2187POPC   PO431164   9.098   3.775   9.489
 2187POPC   GL131165   9.045   3.473   9.192
 2187POPC   GL231166   9.313   3.615   9.034
 2187POPC   C1A31167   8.848   3.349   8.826
 2187POPC   D2A31168   8.703   3.295   8.402
 2187POPC   C3A31169   8.829   3.369   8.014
 2187POPC   C4A31170   8.754   3.728   7.780
 2187POPC   C1B31171   9.173   3.726   8.652
 2187POPC   C2B31172   9.063   3.769   8.246
 2187POPC   C3B31173   9.248   3.608   7.901
 2187POPC   C4B31174   9.572   3.619   7.696
 2188POPC   NC331175  19.639  36.732   9.543
 2188POPC   PO431176  20.275  36.957   9.522
 2188POPC   GL131177  20.095  37.075   9.126
 2188POPC   GL231178  19.733  37.086   9.185
 2188POPC   C1A31179  19.937  36.865   8.743
 2188POPC   D2A31180  19.848  36.744   8.318
 2188POPC   C3A31181  20.040  37.019   8.026
 2188POPC   C4A31182  20.081  36.890   7.648
 2188POPC   C1B31183  19.560  37.212   8.802
 2188POPC   C2B31184  19.710  37.234   8.384
 2188POPC   C3B31185  19.537  37.053   8.009
 2188POPC   C4B31186  19.641  37.148   7.595
 2189POPC   NC331187  12.307  31.394   9.836
 2189POPC   PO431188  11.735  31.407   9.560
 2189POPC   GL131189  11.968  31.576   9.195
 2189POPC   GL231190  11.774  31.858   9.110
 2189POPC   C1A31191  12.148  31.465   8.772
 2189POPC   D2A31192  12.293  31.353   8.361
 2189POPC   C3A31193  12.141  31.443   7.951
 2189POPC   C4A31194  11.815  31.135   7.843
 2189POPC   C1B31195  11.998  31.955   8.723
 2189POPC   C2B31196  12.084  31.826   8.310
 2189POPC   C3B31197  12.008  31.936   7.879
 2189POPC   C4B31198  12.000  32.176   7.476
 2190POPC   NC331199  41.916  10.150   9.465
 2190POPC   PO431200  41.469  10.625   9.469
 2190POPC   GL131201  41.600  10.528   9.062
 2190POPC   GL231202  41.910  10.353   8.973
 2190POPC   C1A31203  41.531  10.337   8.626
 2190POPC   D2A31204  41.694  10.395   8.220
 2190POPC   C3A31205  41.532  10.565   7.862
 2190POPC   C4A31206  41.814  10.339   7.625
 2190POPC   C1B31207  41.849  10.732   8.667
 2190POPC   C2B31208  41.986  10.857   8.249
 2190POPC   C3B31209  42.001  10.776   7.801
 2190POPC   C4B31210  42.148  10.929   7.379
 2191POPC   NC331211  31.744  25.150   9.378
 2191POPC   PO431212  31.159  25.530   9.492
 2191POPC   GL131213  31.379  25.367   9.093
 2191POPC   GL231214  31.298  25.000   9.144
 2191POPC   C1A31215  31.574  25.297   8.650
 2191POPC   D2A31216  31.792  25.563   8.326
 2191POPC   C3A31217  31.603  25.694   7.950
 2191POPC   C4A31218  31.252  25.514   7.861
 2191POPC   C1B31219  31.058  24.932   8.770
 2191POPC   C2B31220  31.253  24.997   8.388
 2191POPC   C3B31221  31.541  25.139   8.087
 2191POPC   C4B31222  31.309  25.003   7.743
 2192POPC   NC331223  29.011  23.624   9.378
 2192POPC   PO431224  29.467  23.961   9.605
 2192POPC   GL131225  29.365  23.949   9.154
 2192POPC   GL231226  29.384  23.605   9.038
 2192POPC   C1A31227  29.048  23.913   8.777
 2192POPC   D2A31228  28.862  24.113   8.397
 2192POPC   C3A31229  29.045  23.864   8.043
 2192POPC   C4A31230  28.975  23.717   7.644
 2192POPC   C1B31231  29.446  23.574   8.626
 2192POPC   C2B31232  29.287  23.433   8.225
 2192POPC   C3B31233  29.447  23.516   7.812
 2192POPC   C4B31234  29.416  23.749   7.406
 2193POPC   NC331235  32.097  35.604   9.577
 2193POPC   PO431236  32.762  35.587   9.314
 2193POPC   GL131237  32.534  35.354   9.059
 2193POPC   GL231238  32.248  35.273   9.212
 2193POPC   C1A31239  32.365  35.206   8.684
 2193POPC   D2A31240  32.299  34.983   8.338
 2193POPC   C3A31241  32.337  35.289   8.021
 2193POPC   C4A31242  32.347  35.640   7.765
 2193POPC   C1B31243  32.076  35.551   8.906
 2193POPC   C2B31244  31.881  35.627   8.538
 2193POPC   C3B31245  31.933  35.614   8.109
 2193POPC   C4B31246  31.890  35.357   7.733
 2194POPC   NC331247  29.110   3.910   9.483
 2194POPC   PO431248  28.926   3.315   9.503
 2194POPC   GL131249  29.048   3.519   9.134
 2194POPC   GL231250  28.955   3.863   9.012
 2194POPC   C1A31251  29.256   3.401   8.765
 2194POPC   D2A31252  29.372   3.596   8.385
 2194POPC   C3A31253  29.301   3.402   7.983
 2194POPC   C4A31254  29.196   3.562   7.589
 2194POPC   C1B31255  28.796   3.604   8.694
 2194POPC   C2B31256  28.876   3.475   8.313
 2194POPC   C3B31257  28.853   3.678   7.972
 2194POPC   C4B31258  28.655   3.595   7.605
 2195POPC   NC331259  11.304  18.716   9.457
 2195POPC   PO431260  11.345  18.049   9.590
 2195POPC   GL131261  11.215  18.185   9.165
 2195POPC   GL231262  11.015  18.484   9.071
 2195POPC   C1A31263  11.161  18.097   8.715
 2195POPC   D2A31264  11.387  18.281   8.368
 2195POPC   C3A31265  11.109  18.462   8.065
 2195POPC   C4A31266  11.052  18.270   7.701
 2195POPC   C1B31267  11.457  18.505   8.860
 2195POPC   C2B31268  11.770  18.584   8.557
 2195POPC   C3B31269  11.719  18.639   8.138
 2195POPC   C4B31270  11.519  18.482   7.765
 2196POPC   NC331271  38.033  23.771   9.477
 2196POPC   PO431272  38.726  23.988   9.529
 2196POPC   GL131273  38.495  23.804   9.176
 2196POPC   GL231274  38.205  23.951   9.033
 2196POPC   C1A31275  38.571  23.683   8.751
 2196POPC   D2A31276  38.620  23.822   8.342
 2196POPC   C3A31277  38.714  23.531   8.044
 2196POPC   C4A31278  38.603  23.485   7.618
 2196POPC   C1B31279  38.078  23.602   8.724
 2196POPC   C2B31280  38.180  23.496   8.274
 2196POPC   C3B31281  38.249  23.745   7.906
 2196POPC   C4B31282  38.242  23.785   7.415
 2197POPC   NC331283   9.915  14.664   9.450
 2197POPC   PO431284   9.295  14.473   9.361
 2197POPC   GL131285   9.585  14.267   9.086
 2197POPC   GL231286   9.931  14.220   9.193
 2197POPC   C1A31287   9.850  14.438   8.737
 2197POPC   D2A31288  10.042  14.572   8.334
 2197POPC   C3A31289   9.797  14.394   8.029
 2197POPC   C4A31290   9.652  14.559   7.702
 2197POPC   C1B31291  10.118  14.004   8.885
 2197POPC   C2B31292  10.096  14.049   8.455
 2197POPC   C3B31293  10.092  13.986   8.055
 2197POPC   C4B31294  10.111  14.191   7.652
 2198POPC   NC331295   2.788  19.628   9.505
 2198POPC   PO431296   2.704  19.005   9.468
 2198POPC   GL131297   2.706  19.261   9.112
 2198POPC   GL231298   2.388  19.478   9.147
 2198POPC   C1A31299   2.880  19.078   8.719
 2198POPC   D2A31300   3.066  19.187   8.309
 2198POPC   C3A31301   2.888  18.860   8.065
 2198POPC   C4A31302   2.800  18.862   7.672
 2198POPC   C1B31303   2.417  19.336   8.699
 2198POPC   C2B31304   2.538  19.138   8.321
 2198POPC   C3B31305   2.689  19.316   7.921
 2198POPC   C4B31306   2.399  19.273   7.596
 2199POPC   NC331307  43.460  38.598   9.541
 2199POPC   PO431308  43.988  38.401   9.579
 2199POPC   GL131309  43.863  38.653   9.203
 2199POPC   GL231310  43.543  38.868   9.124
 2199POPC   C1A31311  43.964  38.406   8.857
 2199POPC   D2A31312  44.058  38.518   8.461
 2199POPC   C3A31313  43.881  38.350   8.128
 2199POPC   C4A31314  43.970  38.488   7.757
 2199POPC   C1B31315  43.729  38.844   8.724
 2199POPC   C2B31316  43.560  38.696   8.343
 2199POPC   C3B31317  43.687  38.848   7.960
 2199POPC   C4B31318  43.581  38.793   7.521
 2200POPC   NC331319  20.607  43.586   9.450
 2200POPC   PO431320  20.621  44.295   9.577
 2200POPC   GL131321  20.691  44.041   9.210
 2200POPC   GL231322  21.044  43.899   9.238
 2200POPC   C1A31323  20.619  44.045   8.751
 2200POPC   D2A31324  20.819  44.042   8.353
 2200POPC   C3A31325  20.593  44.056   7.984
 2200POPC   C4A31326  20.715  44.008   7.558
 2200POPC   C1B31327  20.999  43.738   8.817
 2200POPC   C2B31328  20.952  43.547   8.384
 2200POPC   C3B31329  20.831  43.608   7.971
 2200POPC   C4B31330  20.462  43.580   7.733
 2201POPC   NC331331  11.816  44.355   9.522
 2201POPC   PO431332  11.716   0.029   9.454
 2201POPC   GL131333  11.938  44.742   9.135
 2201POPC   GL231334  12.191  44.538   9.205
 2201POPC   C1A31335  11.925  44.450   8.758
 2201POPC   D2A31336  11.707  44.440   8.333
 2201POPC   C3A31337  11.972  44.583   7.976
 2201POPC   C4A31338  12.073  44.950   7.702
 2201POPC   C1B31339  12.470  44.479   8.871
 2201POPC   C2B31340  12.355  44.498   8.451
 2201POPC   C3B31341  12.455  44.413   8.047
 2201POPC   C4B31342  12.459  44.612   7.638
 2202POPC   NC331343  19.724  32.982   9.643
 2202POPC   PO431344  20.402  33.018   9.557
 2202POPC   GL131345  20.075  33.061   9.222
 2202POPC   GL231346  19.863  32.776   9.106
 2202POPC   C1A31347  19.942  33.275   8.841
 2202POPC   D2A31348  20.024  33.383   8.391
 2202POPC   C3A31349  19.766  33.313   7.999
 2202POPC   C4A31350  19.556  32.931   7.802
 2202POPC   C1B31351  20.042  32.818   8.693
 2202POPC   C2B31352  19.867  32.866   8.269
 2202POPC   C3B31353  20.079  32.942   7.864
 2202POPC   C4B31354  19.954  32.873   7.430
 2203POPC   NC331355   0.146  20.839   9.572
 2203POPC   PO431356   0.601  20.344   9.485
 2203POPC   GL131357   0.575  20.578   9.126
 2203POPC   GL231358   0.225  20.574   9.133
 2203POPC   C1A31359   0.768  20.614   8.715
 2203POPC   D2A31360   0.776  20.395   8.310
 2203POPC   C3A31361   0.580  20.522   7.935
 2203POPC   C4A31362   0.563  20.891   7.739
 2203POPC   C1B31363   0.235  20.614   8.692
 2203POPC   C2B31364   0.252  20.764   8.271
 2203POPC   C3B31365   0.076  20.605   7.898
 2203POPC   C4B31366   0.245  20.557   7.494
 2204POPC   NC331367  43.791  31.804  10.083
 2204POPC   PO431368  43.496  31.408   9.606
 2204POPC   GL131369  43.591  31.642   9.194
 2204POPC   GL231370  43.744  31.393   9.018
 2204POPC   C1A31371  43.869  31.838   8.800
 2204POPC   D2A31372  44.120  31.738   8.391
 2204POPC   C3A31373  44.090  31.868   7.945
 2204POPC   C4A31374  44.023  31.703   7.554
 2204POPC   C1B31375  43.982  31.332   8.674
 2204POPC   C2B31376  43.849  31.286   8.270
 2204POPC   C3B31377  43.722  31.524   7.951
 2204POPC   C4B31378  43.576  31.437   7.540
 2205POPC   NC331379  14.449   3.780   9.524
 2205POPC   PO431380  14.659   3.166   9.602
 2205POPC   GL131381  14.527   3.322   9.180
 2205POPC   GL231382  14.171   3.479   9.206
 2205POPC   C1A31383  14.555   3.579   8.782
 2205POPC   D2A31384  14.191   3.742   8.526
 2205POPC   C3A31385  14.228   3.807   8.075
 2205POPC   C4A31386  14.540   3.716   7.796
 2205POPC   C1B31387  14.121   3.291   8.816
 2205POPC   C2B31388  14.344   3.240   8.414
 2205POPC   C3B31389  14.300   3.268   7.971
 2205POPC   C4B31390  14.271   3.358   7.532
 2206POPC   NC331391  34.799  24.559   9.630
 2206POPC   PO431392  34.295  24.872   9.736
 2206POPC   GL131393  34.554  24.682   9.225
 2206POPC   GL231394  34.646  24.315   9.188
 2206POPC   C1A31395  34.692  24.592   8.747
 2206POPC   D2A31396  34.479  24.574   8.316
 2206POPC   C3A31397  34.621  24.576   7.855
 2206POPC   C4A31398  34.615  24.745   7.390
 2206POPC   C1B31399  34.422  24.168   8.811
 2206POPC   C2B31400  34.246  24.099   8.396
 2206POPC   C3B31401  34.380  24.131   8.005
 2206POPC   C4B31402  34.444  24.155   7.609
 2207POPC   NC331403   9.020  21.137   9.606
 2207POPC   PO431404   9.055  21.842   9.591
 2207POPC   GL131405   8.938  21.545   9.192
 2207POPC   GL231406   8.983  21.167   9.117
 2207POPC   C1A31407   8.929  21.429   8.706
 2207POPC   D2A31408   9.055  21.526   8.303
 2207POPC   C3A31409   8.984  21.234   7.976
 2207POPC   C4A31410   9.055  21.465   7.666
 2207POPC   C1B31411   9.254  20.993   8.817
 2207POPC   C2B31412   9.255  21.047   8.383
 2207POPC   C3B31413   9.306  20.833   7.976
 2207POPC   C4B31414   9.345  20.858   7.534
 2208POPC   NC331415  15.358   7.257   9.430
 2208POPC   PO431416  14.894   7.787   9.465
 2208POPC   GL131417  14.972   7.472   9.150
 2208POPC   GL231418  15.300   7.526   8.999
 2208POPC   C1A31419  14.971   7.225   8.771
 2208POPC   D2A31420  15.288   7.190   8.451
 2208POPC   C3A31421  15.136   7.253   8.029
 2208POPC   C4A31422  14.926   7.088   7.667
 2208POPC   C1B31423  15.566   7.620   8.661
 2208POPC   C2B31424  15.770   7.750   8.291
 2208POPC   C3B31425  15.584   7.822   7.893
 2208POPC   C4B31426  15.376   7.490   7.629
 2209POPC   NC331427  13.561   7.528   9.764
 2209POPC   PO431428  13.971   7.515   9.192
 2209POPC   GL131429  13.631   7.583   8.942
 2209POPC   GL231430  13.280   7.536   9.062
 2209POPC   C1A31431  13.707   7.417   8.558
 2209POPC   D2A31432  14.050   7.636   8.372
 2209POPC   C3A31433  13.855   7.616   7.995
 2209POPC   C4A31434  13.853   7.257   7.682
 2209POPC   C1B31435  13.251   7.643   8.620
 2209POPC   C2B31436  13.238   7.390   8.260
 2209POPC   C3B31437  13.388   7.400   7.833
 2209POPC   C4B31438  13.488   7.523   7.376
 2210POPC   NC331439  37.368  23.585   9.635
 2210POPC   PO431440  37.953  23.320   9.444
 2210POPC   GL131441  37.687  23.606   9.129
 2210POPC   GL231442  37.352  23.753   9.091
 2210POPC   C1A31443  37.553  23.471   8.688
 2210POPC   D2A31444  37.395  23.543   8.268
 2210POPC   C3A31445  37.750  23.737   8.088
 2210POPC   C4A31446  37.816  23.845   7.664
 2210POPC   C1B31447  37.132  23.791   8.674
 2210POPC   C2B31448  37.204  24.039   8.280
 2210POPC   C3B31449  37.359  23.959   7.866
 2210POPC   C4B31450  37.383  23.526   7.714
 2211POPC   NC331451  39.501   1.925   9.393
 2211POPC   PO431452  39.742   2.514   9.430
 2211POPC   GL131453  39.437   2.337   9.110
 2211POPC   GL231454  39.112   2.167   9.190
 2211POPC   C1A31455  39.245   2.419   8.732
 2211POPC   D2A31456  39.373   2.322   8.341
 2211POPC   C3A31457  39.142   2.213   8.012
 2211POPC   C4A31458  39.127   2.249   7.584
 2211POPC   C1B31459  39.165   1.911   8.809
 2211POPC   C2B31460  39.265   1.801   8.362
 2211POPC   C3B31461  39.289   1.754   7.881
 2211POPC   C4B31462  39.098   1.784   7.418
 2212POPC   NC331463  26.858  10.927   9.373
 2212POPC   PO431464  26.474  10.533   9.613
 2212POPC   GL131465  26.617  10.502   9.151
 2212POPC   GL231466  26.448  10.782   9.022
 2212POPC   C1A31467  26.853  10.575   8.739
 2212POPC   D2A31468  27.143  10.552   8.372
 2212POPC   C3A31469  26.927  10.512   7.978
 2212POPC   C4A31470  26.640  10.416   7.668
 2212POPC   C1B31471  26.422  10.755   8.558
 2212POPC   C2B31472  26.450  10.687   8.118
 2212POPC   C3B31473  26.546  10.904   7.756
 2212POPC   C4B31474  26.935  10.840   7.562
 2213POPC   NC331475   6.118   9.828   9.700
 2213POPC   PO431476   6.216   9.347   9.203
 2213POPC   GL131477   6.070   9.731   9.137
 2213POPC   GL231478   5.771   9.636   9.270
 2213POPC   C1A31479   6.013   9.834   8.711
 2213POPC   D2A31480   6.300   9.756   8.384
 2213POPC   C3A31481   6.061   9.830   8.010
 2213POPC   C4A31482   5.956   9.578   7.667
 2213POPC   C1B31483   5.621   9.561   8.842
 2213POPC   C2B31484   5.571   9.422   8.435
 2213POPC   C3B31485   5.598   9.600   8.052
 2213POPC   C4B31486   5.518   9.798   7.666
 2214POPC   NC331487  17.962  40.928   9.459
 2214POPC   PO431488  17.285  41.218   9.382
 2214POPC   GL131489  17.564  40.946   9.127
 2214POPC   GL231490  17.478  40.599   9.048
 2214POPC   C1A31491  17.730  40.872   8.701
 2214POPC   D2A31492  17.440  40.871   8.339
 2214POPC   C3A31493  17.643  40.882   7.945
 2214POPC   C4A31494  17.712  41.258   7.749
 2214POPC   C1B31495  17.451  40.431   8.642
 2214POPC   C2B31496  17.604  40.400   8.203
 2214POPC   C3B31497  17.583  40.398   7.750
 2214POPC   C4B31498  17.410  40.521   7.281
 2215POPC   NC331499  16.556  42.977   9.400
 2215POPC   PO431500  16.897  43.504   9.417
 2215POPC   GL131501  16.818  43.289   9.064
 2215POPC   GL231502  16.444  43.313   9.032
 2215POPC   C1A31503  16.735  43.122   8.672
 2215POPC   D2A31504  16.428  43.210   8.418
 2215POPC   C3A31505  16.694  43.283   8.080
 2215POPC   C4A31506  16.929  43.020   7.846
 2215POPC   C1B31507  16.301  42.891   8.813
 2215POPC   C2B31508  16.381  42.672   8.421
 2215POPC   C3B31509  16.434  42.819   8.025
 2215POPC   C4B31510  16.444  43.097   7.681
 2216POPC   NC331511  11.830  18.079   9.640
 2216POPC   PO431512  12.451  18.403   9.471
 2216POPC   GL131513  12.143  18.384   9.187
 2216POPC   GL231514  12.082  18.038   9.201
 2216POPC   C1A31515  12.243  18.445   8.764
 2216POPC   D2A31516  12.362  18.672   8.407
 2216POPC   C3A31517  12.212  18.458   8.075
 2216POPC   C4A31518  12.016  18.565   7.726
 2216POPC   C1B31519  11.842  18.121   8.846
 2216POPC   C2B31520  11.950  18.135   8.434
 2216POPC   C3B31521  11.796  18.149   8.067
 2216POPC   C4B31522  11.983  18.009   7.734
 2217POPC   NC331523  27.085  13.359  10.058
 2217POPC   PO431524  26.718  12.981   9.573
 2217POPC   GL131525  26.694  12.778   9.194
 2217POPC   GL231526  27.014  12.820   9.123
 2217POPC   C1A31527  26.565  12.665   8.809
 2217POPC   D2A31528  26.710  12.821   8.432
 2217POPC   C3A31529  26.582  12.610   8.082
 2217POPC   C4A31530  26.819  12.636   7.747
 2217POPC   C1B31531  26.950  13.099   8.801
 2217POPC   C2B31532  27.147  13.101   8.397
 2217POPC   C3B31533  26.974  13.031   8.018
 2217POPC   C4B31534  26.948  13.119   7.586
 2218POPC   NC331535   3.358  38.734   9.469
 2218POPC   PO431536   3.534  38.157   9.390
 2218POPC   GL131537   3.576  38.419   9.057
 2218POPC   GL231538   3.286  38.617   8.982
 2218POPC   C1A31539   3.585  38.409   8.621
 2218POPC   D2A31540   3.771  38.753   8.423
 2218POPC   C3A31541   3.868  38.637   7.987
 2218POPC   C4A31542   3.592  38.464   7.681
 2218POPC   C1B31543   3.280  38.822   8.578
 2218POPC   C2B31544   3.355  38.578   8.187
 2218POPC   C3B31545   3.145  38.327   7.887
 2218POPC   C4B31546   3.163  38.726   7.683
 2219POPC   NC331547  34.914  38.572   9.466
 2219POPC   PO431548  35.558  38.636   9.507
 2219POPC   GL131549  35.353  38.662   9.144
 2219POPC   GL231550  35.538  38.366   9.038
 2219POPC   C1A31551  35.134  38.619   8.753
 2219POPC   D2A31552  35.348  38.474   8.399
 2219POPC   C3A31553  35.227  38.667   8.035
 2219POPC   C4A31554  35.132  38.505   7.642
 2219POPC   C1B31555  35.243  38.107   8.827
 2219POPC   C2B31556  35.111  38.019   8.413
 2219POPC   C3B31557  35.205  38.145   8.018
 2219POPC   C4B31558  35.596  38.298   7.889
 2220POPC   NC331559  12.742  14.006   9.503
 2220POPC   PO431560  12.979  14.594   9.587
 2220POPC   GL131561  12.909  14.444   9.182
 2220POPC   GL231562  12.964  14.097   9.070
 2220POPC   C1A31563  12.817  14.677   8.823
 2220POPC   D2A31564  12.905  14.515   8.455
 2220POPC   C3A31565  12.599  14.591   8.179
 2220POPC   C4A31566  12.623  14.648   7.765
 2220POPC   C1B31567  12.676  14.187   8.772
 2220POPC   C2B31568  12.501  14.109   8.370
 2220POPC   C3B31569  12.796  14.123   8.041
 2220POPC   C4B31570  12.911  13.867   7.697
 2221POPC   NC331571  34.377  28.590   9.349
 2221POPC   PO431572  34.551  28.081   9.755
 2221POPC   GL131573  34.488  28.106   9.305
 2221POPC   GL231574  34.710  28.296   9.103
 2221POPC   C1A31575  34.277  28.111   8.865
 2221POPC   D2A31576  34.445  28.073   8.439
 2221POPC   C3A31577  34.640  28.377   8.170
 2221POPC   C4A31578  34.561  28.381   7.742
 2221POPC   C1B31579  34.543  28.514   8.722
 2221POPC   C2B31580  34.245  28.602   8.382
 2221POPC   C3B31581  34.305  28.765   7.964
 2221POPC   C4B31582  34.330  28.712   7.461
 2222POPC   NC331583  23.616  20.889   9.759
 2222POPC   PO431584  23.573  20.395   9.296
 2222POPC   GL131585  23.850  20.551   9.053
 2222POPC   GL231586  23.672  20.769   8.936
 2222POPC   C1A31587  23.813  20.371   8.645
 2222POPC   D2A31588  23.545  20.230   8.368
 2222POPC   C3A31589  23.740  20.216   7.984
 2222POPC   C4A31590  23.949  20.565   7.781
 2222POPC   C1B31591  23.740  20.859   8.556
 2222POPC   C2B31592  23.394  20.778   8.360
 2222POPC   C3B31593  23.387  20.593   8.018
 2222POPC   C4B31594  23.274  20.741   7.653
 2223POPC   NC331595  29.058  10.448   9.515
 2223POPC   PO431596  29.162  10.938   9.254
 2223POPC   GL131597  29.137  10.527   9.002
 2223POPC   GL231598  28.910  10.218   9.073
 2223POPC   C1A31599  29.106  10.349   8.577
 2223POPC   D2A31600  28.875  10.218   8.201
 2223POPC   C3A31601  29.051  10.417   7.829
 2223POPC   C4A31602  29.251  10.578   7.435
 2223POPC   C1B31603  29.311  10.026   8.930
 2223POPC   C2B31604  29.502  10.019   8.502
 2223POPC   C3B31605  29.358  10.033   8.056
 2223POPC   C4B31606  29.381  10.108   7.576
 2224POPC   NC331607  37.434   3.011   9.852
 2224POPC   PO431608  37.930   2.865   9.694
 2224POPC   GL131609  38.038   2.796   9.254
 2224POPC   GL231610  37.992   2.442   9.198
 2224POPC   C1A31611  37.915   2.923   8.831
 2224POPC   D2A31612  37.973   2.809   8.389
 2224POPC   C3A31613  37.729   2.960   8.058
 2224POPC   C4A31614  37.913   2.994   7.678
 2224POPC   C1B31615  37.998   2.430   8.740
 2224POPC   C2B31616  37.992   2.306   8.272
 2224POPC   C3B31617  37.911   2.508   7.853
 2224POPC   C4B31618  37.839   2.575   7.393
 2225POPC   NC331619   0.624  37.469   9.448
 2225POPC   PO431620   0.260  37.976   9.610
 2225POPC   GL131621   0.305  37.750   9.184
 2225POPC   GL231622   0.655  37.850   9.092
 2225POPC   C1A31623   0.383  37.521   8.773
 2225POPC   D2A31624   0.451  37.732   8.370
 2225POPC   C3A31625   0.306  37.599   7.957
 2225POPC   C4A31626   0.593  37.812   7.681
 2225POPC   C1B31627   0.906  37.587   8.802
 2225POPC   C2B31628   0.841  37.332   8.443
 2225POPC   C3B31629   0.761  37.411   8.027
 2225POPC   C4B31630   1.014  37.528   7.699
 2226POPC   NC331631  27.384  43.254   9.517
 2226POPC   PO431632  27.960  42.960   9.611
 2226POPC   GL131633  27.848  42.947   9.177
 2226POPC   GL231634  27.511  42.972   9.133
 2226POPC   C1A31635  27.937  43.078   8.751
 2226POPC   D2A31636  27.677  42.996   8.356
 2226POPC   C3A31637  27.817  43.075   7.944
 2226POPC   C4A31638  27.494  42.931   7.674
 2226POPC   C1B31639  27.484  43.297   8.851
 2226POPC   C2B31640  27.413  43.428   8.458
 2226POPC   C3B31641  27.297  43.222   8.070
 2226POPC   C4B31642  27.236  43.372   7.655
 2227POPC   NC331643  37.232   6.277   9.541
 2227POPC   PO431644  36.683   5.895   9.555
 2227POPC   GL131645  36.824   5.857   9.140
 2227POPC   GL231646  37.186   5.927   9.148
 2227POPC   C1A31647  36.932   5.889   8.708
 2227POPC   D2A31648  36.799   5.929   8.300
 2227POPC   C3A31649  36.889   5.533   8.084
 2227POPC   C4A31650  36.803   5.479   7.641
 2227POPC   C1B31651  37.239   6.290   8.849
 2227POPC   C2B31652  37.341   6.333   8.397
 2227POPC   C3B31653  37.292   6.170   7.974
 2227POPC   C4B31654  36.950   5.950   7.801
 2228POPC   NC331655  42.758  35.223   9.331
 2228POPC   PO431656  43.277  35.665   9.498
 2228POPC   GL131657  43.132  35.487   9.144
 2228POPC   GL231658  42.828  35.668   9.077
 2228POPC   C1A31659  43.105  35.184   8.765
 2228POPC   D2A31660  43.313  35.188   8.383
 2228POPC   C3A31661  43.095  35.199   7.990
 2228POPC   C4A31662  43.307  35.194   7.611
 2228POPC   C1B31663  43.017  35.663   8.697
 2228POPC   C2B31664  42.828  35.437   8.371
 2228POPC   C3B31665  42.746  35.613   7.975
 2228POPC   C4B31666  43.124  35.669   7.750
 2229POPC   NC331667  39.622  29.960   9.503
 2229POPC   PO431668  40.197  29.666   9.386
 2229POPC   GL131669  39.991  29.921   9.072
 2229POPC   GL231670  39.734  30.145   9.051
 2229POPC   C1A31671  40.004  29.969   8.639
 2229POPC   D2A31672  40.149  29.900   8.256
 2229POPC   C3A31673  39.888  29.685   8.023
 2229POPC   C4A31674  40.041  29.725   7.607
 2229POPC   C1B31675  39.570  30.281   8.696
 2229POPC   C2B31676  39.566  30.050   8.327
 2229POPC   C3B31677  39.550  30.250   7.988
 2229POPC   C4B31678  39.890  30.155   7.796
 2230POPC   NC331679  29.633  35.295   9.414
 2230POPC   PO431680  30.323  35.404   9.537
 2230POPC   GL131681  30.124  35.343   9.159
 2230POPC   GL231682  30.234  35.662   9.035
 2230POPC   C1A31683  30.030  35.053   8.818
 2230POPC   D2A31684  30.052  35.139   8.368
 2230POPC   C3A31685  29.703  35.335   8.183
 2230POPC   C4A31686  29.626  35.335   7.756
 2230POPC   C1B31687  30.010  35.562   8.683
 2230POPC   C2B31688  30.109  35.645   8.290
 2230POPC   C3B31689  30.088  35.511   7.897
 2230POPC   C4B31690  30.087  35.841   7.647
 2231POPC   NC331691  15.264   3.896   9.539
 2231POPC   PO431692  15.487   4.571   9.819
 2231POPC   GL131693  15.287   4.521   9.376
 2231POPC   GL231694  15.108   4.235   9.210
 2231POPC   C1A31695  15.224   4.631   8.935
 2231POPC   D2A31696  14.954   4.526   8.585
 2231POPC   C3A31697  15.049   4.603   8.145
 2231POPC   C4A31698  15.063   4.237   7.924
 2231POPC   C1B31699  15.282   4.158   8.786
 2231POPC   C2B31700  15.363   4.266   8.376
 2231POPC   C3B31701  15.539   4.114   8.001
 2231POPC   C4B31702  15.414   3.962   7.642
 2232POPC   NC331703  39.795  39.580   9.523
 2232POPC   PO431704  40.114  40.161   9.514
 2232POPC   GL131705  39.999  39.932   9.195
 2232POPC   GL231706  39.679  39.817   9.088
 2232POPC   C1A31707  40.111  39.844   8.793
 2232POPC   D2A31708  39.967  40.015   8.431
 2232POPC   C3A31709  40.088  39.986   8.045
 2232POPC   C4A31710  39.874  39.987   7.665
 2232POPC   C1B31711  39.728  40.205   8.842
 2232POPC   C2B31712  39.541  40.273   8.443
 2232POPC   C3B31713  39.539  40.103   8.037
 2232POPC   C4B31714  39.451  40.287   7.620
 2233POPC   NC331715  35.188   8.297   9.502
 2233POPC   PO431716  35.822   8.065   9.479
 2233POPC   GL131717  35.578   7.989   9.103
 2233POPC   GL231718  35.187   7.946   9.133
 2233POPC   C1A31719  35.638   8.105   8.676
 2233POPC   D2A31720  35.652   8.467   8.359
 2233POPC   C3A31721  35.674   8.335   7.945
 2233POPC   C4A31722  35.474   8.518   7.617
 2233POPC   C1B31723  35.101   8.084   8.717
 2233POPC   C2B31724  35.295   8.096   8.293
 2233POPC   C3B31725  35.150   8.221   7.908
 2233POPC   C4B31726  34.958   8.098   7.529
 2234POPC   NC331727  43.248  24.756   9.327
 2234POPC   PO431728  43.013  25.392   9.596
 2234POPC   GL131729  43.220  25.255   9.226
 2234POPC   GL231730  42.923  25.105   9.073
 2234POPC   C1A31731  43.364  25.083   8.797
 2234POPC   D2A31732  43.085  24.944   8.469
 2234POPC   C3A31733  43.086  25.265   8.147
 2234POPC   C4A31734  43.233  25.343   7.725
 2234POPC   C1B31735  42.974  25.454   8.782
 2234POPC   C2B31736  42.733  25.548   8.412
 2234POPC   C3B31737  42.751  25.621   7.976
 2234POPC   C4B31738  42.713  25.383   7.587
 2235POPC   NC331739  30.275  33.029   9.424
 2235POPC   PO431740  29.547  32.994   9.484
 2235POPC   GL131741  29.849  33.153   9.189
 2235POPC   GL231742  29.917  32.817   9.078
 2235POPC   C1A31743  30.069  33.205   8.778
 2235POPC   D2A31744  29.893  33.236   8.368
 2235POPC   C3A31745  29.989  33.053   7.977
 2235POPC   C4A31746  29.950  32.724   7.691
 2235POPC   C1B31747  29.572  32.997   8.810
 2235POPC   C2B31748  29.400  32.868   8.472
 2235POPC   C3B31749  29.555  32.836   8.103
 2235POPC   C4B31750  29.488  32.946   7.723
 2236POPC   NC331751   7.680   3.698   9.448
 2236POPC   PO431752   7.603   4.384   9.513
 2236POPC   GL131753   7.757   4.417   9.110
 2236POPC   GL231754   7.777   4.049   9.033
 2236POPC   C1A31755   7.689   4.537   8.684
 2236POPC   D2A31756   7.668   4.309   8.297
 2236POPC   C3A31757   7.594   4.521   7.906
 2236POPC   C4A31758   7.325   4.446   7.526
 2236POPC   C1B31759   7.432   4.111   8.767
 2236POPC   C2B31760   7.275   3.987   8.369
 2236POPC   C3B31761   7.279   4.107   7.944
 2236POPC   C4B31762   7.628   4.042   7.718
 2237POPC   NC331763  18.356  40.361   9.276
 2237POPC   PO431764  18.112  39.864   9.687
 2237POPC   GL131765  18.259  39.856   9.193
 2237POPC   GL231766  18.152  40.101   8.911
 2237POPC   C1A31767  18.411  39.751   8.706
 2237POPC   D2A31768  18.244  40.046   8.384
 2237POPC   C3A31769  18.335  39.905   8.003
 2237POPC   C4A31770  18.118  39.703   7.740
 2237POPC   C1B31771  18.588  40.231   8.701
 2237POPC   C2B31772  18.605  40.555   8.403
 2237POPC   C3B31773  18.530  40.382   8.009
 2237POPC   C4B31774  18.572  40.241   7.588
 2238POPC   NC331775   3.331  13.828   9.422
 2238POPC   PO431776   3.866  13.394   9.482
 2238POPC   GL131777   3.562  13.459   9.143
 2238POPC   GL231778   3.712  13.757   9.037
 2238POPC   C1A31779   3.451  13.450   8.717
 2238POPC   D2A31780   3.788  13.624   8.493
 2238POPC   C3A31781   3.757  13.539   8.078
 2238POPC   C4A31782   3.894  13.655   7.663
 2238POPC   C1B31783   3.422  13.965   8.746
 2238POPC   C2B31784   3.367  13.852   8.331
 2238POPC   C3B31785   3.162  13.719   7.974
 2238POPC   C4B31786   3.294  13.799   7.526
 2239POPC   NC331787  42.555  25.204   9.466
 2239POPC   PO431788  42.085  24.830   9.241
 2239POPC   GL131789  42.395  25.069   9.014
 2239POPC   GL231790  42.467  25.444   9.016
 2239POPC   C1A31791  42.608  25.108   8.654
 2239POPC   D2A31792  42.344  25.204   8.349
 2239POPC   C3A31793  42.483  25.152   7.970
 2239POPC   C4A31794  42.237  25.020   7.639
 2239POPC   C1B31795  42.267  25.635   8.635
 2239POPC   C2B31796  42.262  25.684   8.176
 2239POPC   C3B31797  42.260  25.615   7.723
 2239POPC   C4B31798  42.282  25.450   7.271
 2240POPC   NC331799  28.111  41.517   9.632
 2240POPC   PO431800  28.581  41.173   9.355
 2240POPC   GL131801  28.246  41.345   9.142
 2240POPC   GL231802  28.194  41.698   9.156
 2240POPC   C1A31803  28.307  41.349   8.699
 2240POPC   D2A31804  28.517  41.304   8.328
 2240POPC   C3A31805  28.367  41.166   7.948
 2240POPC   C4A31806  28.495  41.325   7.534
 2240POPC   C1B31807  28.191  41.842   8.737
 2240POPC   C2B31808  28.147  41.687   8.319
 2240POPC   C3B31809  28.392  41.684   7.946
 2240POPC   C4B31810  28.470  42.019   7.676
 2241POPC   NC331811  19.897  41.622   9.290
 2241POPC   PO431812  19.772  41.096   9.668
 2241POPC   GL131813  19.619  41.233   9.148
 2241POPC   GL231814  19.902  41.290   8.873
 2241POPC   C1A31815  19.516  41.543   8.739
 2241POPC   D2A31816  19.666  41.516   8.294
 2241POPC   C3A31817  19.619  41.703   7.870
 2241POPC   C4A31818  19.888  41.474   7.549
 2241POPC   C1B31819  20.138  41.614   8.682
 2241POPC   C2B31820  20.173  41.841   8.334
 2241POPC   C3B31821  20.123  41.720   7.950
 2241POPC   C4B31822  20.179  41.932   7.578
 2242POPC   NC331823  42.823  32.843   9.454
 2242POPC   PO431824  43.315  33.190   9.421
 2242POPC   GL131825  43.195  32.890   9.112
 2242POPC   GL231826  42.987  33.094   8.947
 2242POPC   C1A31827  43.222  32.660   8.748
 2242POPC   D2A31828  43.064  32.936   8.415
 2242POPC   C3A31829  43.211  32.758   8.087
 2242POPC   C4A31830  43.250  32.699   7.672
 2242POPC   C1B31831  42.607  33.182   8.745
 2242POPC   C2B31832  42.394  33.147   8.358
 2242POPC   C3B31833  42.553  33.225   7.988
 2242POPC   C4B31834  42.900  33.049   7.822
 2243POPC   NC331835   1.106   9.246   9.521
 2243POPC   PO431836   1.451   8.649   9.456
 2243POPC   GL131837   1.074   8.819   9.235
 2243POPC   GL231838   1.258   9.112   9.058
 2243POPC   C1A31839   0.873   8.881   8.844
 2243POPC   D2A31840   1.209   8.989   8.533
 2243POPC   C3A31841   1.170   8.859   8.099
 2243POPC   C4A31842   0.842   8.935   7.829
 2243POPC   C1B31843   0.957   9.373   8.802
 2243POPC   C2B31844   1.094   9.495   8.427
 2243POPC   C3B31845   1.374   9.322   8.166
 2243POPC   C4B31846   1.336   9.195   7.734
 2244POPC   NC331847   0.707  25.557   9.560
 2244POPC   PO431848   1.307  25.793   9.548
 2244POPC   GL131849   1.016  25.599   9.169
 2244POPC   GL231850   0.944  25.233   9.226
 2244POPC   C1A31851   0.760  25.401   8.794
 2244POPC   D2A31852   1.017  25.270   8.449
 2244POPC   C3A31853   0.919  25.288   8.027
 2244POPC   C4A31854   1.067  25.131   7.655
 2244POPC   C1B31855   1.067  24.965   8.865
 2244POPC   C2B31856   1.338  24.867   8.493
 2244POPC   C3B31857   1.364  24.988   8.050
 2244POPC   C4B31858   1.579  25.203   7.684
 2245POPC   NC331859  24.895  14.496   9.508
 2245POPC   PO431860  25.564  14.395   9.424
 2245POPC   GL131861  25.269  14.522   9.158
 2245POPC   GL231862  25.090  14.236   9.110
 2245POPC   C1A31863  25.148  14.643   8.782
 2245POPC   D2A31864  25.080  14.576   8.378
 2245POPC   C3A31865  25.417  14.556   8.095
 2245POPC   C4A31866  25.531  14.485   7.644
 2245POPC   C1B31867  25.016  14.149   8.681
 2245POPC   C2B31868  25.070  14.095   8.237
 2245POPC   C3B31869  25.034  14.250   7.818
 2245POPC   C4B31870  24.876  14.047   7.412
 2246POPC   NC331871   8.622  44.652   9.577
 2246POPC   PO431872   9.283  44.790   9.699
 2246POPC   GL131873   9.150  44.691   9.227
 2246POPC   GL231874   9.332  44.353   9.168
 2246POPC   C1A31875   8.941  44.903   8.823
 2246POPC   D2A31876   8.866   0.094   8.390
 2246POPC   C3A31877   8.898  44.857   7.989
 2246POPC   C4A31878   8.814  44.401   7.859
 2246POPC   C1B31879   9.098  44.403   8.782
 2246POPC   C2B31880   8.934  44.473   8.364
 2246POPC   C3B31881   9.268  44.494   8.047
 2246POPC   C4B31882   9.322  44.663   7.665
 2247POPC   NC331883  44.261  32.301   9.549
 2247POPC   PO431884  44.818  31.992   9.487
 2247POPC   GL131885  44.470  32.053   9.142
 2247POPC   GL231886  44.245  32.344   9.029
 2247POPC   C1A31887  44.456  32.018   8.685
 2247POPC   D2A31888  44.767  32.210   8.399
 2247POPC   C3A31889  44.786  32.084   7.973
 2247POPC   C4A31890  44.836  32.303   7.562
 2247POPC   C1B31891  44.247  32.477   8.600
 2247POPC   C2B31892  44.284  32.231   8.232
 2247POPC   C3B31893  44.387  32.345   7.821
 2247POPC   C4B31894  44.601  32.732   7.713
 2248POPC   NC331895   0.595  40.474   9.459
 2248POPC   PO431896   0.588  41.151   9.518
 2248POPC   GL131897   0.426  40.856   9.168
 2248POPC   GL231898   0.186  40.513   9.166
 2248POPC   C1A31899   0.626  40.850   8.758
 2248POPC   D2A31900   0.438  40.984   8.405
 2248POPC   C3A31901   0.558  40.907   7.989
 2248POPC   C4A31902   0.373  40.818   7.602
 2248POPC   C1B31903   0.465  40.374   8.814
 2248POPC   C2B31904   0.627  40.513   8.388
 2248POPC   C3B31905   0.521  40.411   8.001
 2248POPC   C4B31906   0.250  40.334   7.731
 2249POPC   NC331907  16.571  35.877   9.382
 2249POPC   PO431908  16.030  36.264   9.466
 2249POPC   GL131909  15.918  36.219   9.054
 2249POPC   GL231910  16.144  35.945   9.001
 2249POPC   C1A31911  15.947  36.239   8.619
 2249POPC   D2A31912  16.164  36.118   8.282
 2249POPC   C3A31913  15.894  36.164   7.967
 2249POPC   C4A31914  15.885  36.311   7.586
 2249POPC   C1B31915  15.781  35.800   8.752
 2249POPC   C2B31916  15.645  35.905   8.343
 2249POPC   C3B31917  15.679  35.720   7.916
 2249POPC   C4B31918  15.691  35.867   7.505
 2250POPC   NC331919  43.247   0.404   9.349
 2250POPC   PO431920  42.845   0.823   9.532
 2250POPC   GL131921  42.886   0.679   9.135
 2250POPC   GL231922  42.707   0.390   9.165
 2250POPC   C1A31923  43.079   0.653   8.742
 2250POPC   D2A31924  43.283   0.704   8.363
 2250POPC   C3A31925  43.005   0.837   8.038
 2250POPC   C4A31926  42.767   0.644   7.749
 2250POPC   C1B31927  42.621   0.418   8.733
 2250POPC   C2B31928  42.805   0.436   8.330
 2250POPC   C3B31929  43.076   0.308   8.006
 2250POPC   C4B31930  43.312  44.949   7.885
 2251POPC   NC331931  17.115  26.885   9.657
 2251POPC   PO431932  17.807  26.886   9.583
 2251POPC   GL131933  17.701  26.886   9.172
 2251POPC   GL231934  17.376  27.041   9.234
 2251POPC   C1A31935  17.588  26.759   8.760
 2251POPC   D2A31936  17.233  26.818   8.479
 2251POPC   C3A31937  17.365  26.731   8.087
 2251POPC   C4A31938  17.702  26.856   7.834
 2251POPC   C1B31939  17.340  27.193   8.805
 2251POPC   C2B31940  17.253  27.331   8.329
 2251POPC   C3B31941  17.321  27.237   7.863
 2251POPC   C4B31942  17.163  27.332   7.404
 2252POPC   NC331943  37.443   6.983   9.443
 2252POPC   PO431944  36.890   6.602   9.547
 2252POPC   GL131945  37.100   6.701   9.181
 2252POPC   GL231946  37.024   7.059   9.125
 2252POPC   C1A31947  36.898   6.695   8.783
 2252POPC   D2A31948  36.801   6.388   8.519
 2252POPC   C3A31949  36.877   6.484   8.097
 2252POPC   C4A31950  36.642   6.357   7.752
 2252POPC   C1B31951  37.322   6.959   8.783
 2252POPC   C2B31952  37.349   6.856   8.354
 2252POPC   C3B31953  37.188   6.906   7.945
 2252POPC   C4B31954  36.971   6.717   7.602
 2253POPC   NC331955  41.837  37.012   9.528
 2253POPC   PO431956  42.497  36.853   9.406
 2253POPC   GL131957  42.299  36.877   9.045
 2253POPC   GL231958  42.164  37.166   9.158
 2253POPC   C1A31959  42.461  36.975   8.653
 2253POPC   D2A31960  42.744  36.875   8.325
 2253POPC   C3A31961  42.631  36.665   7.945
 2253POPC   C4A31962  42.745  36.777   7.488
 2253POPC   C1B31963  41.992  37.151   8.732
 2253POPC   C2B31964  42.081  37.090   8.313
 2253POPC   C3B31965  42.017  37.095   7.917
 2253POPC   C4B31966  42.348  36.991   7.700
 2254POPC   NC331967  27.915  25.108   9.468
 2254POPC   PO431968  28.588  25.346   9.430
 2254POPC   GL131969  28.290  25.260   9.104
 2254POPC   GL231970  27.976  25.474   9.097
 2254POPC   C1A31971  28.396  25.035   8.718
 2254POPC   D2A31972  28.466  25.259   8.365
 2254POPC   C3A31973  28.466  25.125   7.969
 2254POPC   C4A31974  28.396  25.545   7.838
 2254POPC   C1B31975  27.873  25.121   8.804
 2254POPC   C2B31976  27.996  25.039   8.393
 2254POPC   C3B31977  28.002  25.316   8.069
 2254POPC   C4B31978  27.999  25.138   7.677
 2255POPC   NC331979  16.360  43.720   9.443
 2255POPC   PO431980  16.795  44.232   9.533
 2255POPC   GL131981  16.603  44.086   9.152
 2255POPC   GL231982  16.887  43.858   9.040
 2255POPC   C1A31983  16.462  43.772   8.806
 2255POPC   D2A31984  16.733  43.627   8.473
 2255POPC   C3A31985  16.540  43.766   8.092
 2255POPC   C4A31986  16.412  43.594   7.745
 2255POPC   C1B31987  17.162  43.560   8.780
 2255POPC   C2B31988  17.279  43.670   8.350
 2255POPC   C3B31989  17.036  43.841   7.978
 2255POPC   C4B31990  16.711  44.184   7.836
 2256POPC   NC331991  36.688  10.735   9.537
 2256POPC   PO431992  36.832  10.076   9.335
 2256POPC   GL131993  36.846  10.470   9.142
 2256POPC   GL231994  36.497  10.614   9.091
 2256POPC   C1A31995  36.972  10.608   8.765
 2256POPC   D2A31996  37.160  10.705   8.386
 2256POPC   C3A31997  36.984  10.546   8.033
 2256POPC   C4A31998  36.892  10.412   7.633
 2256POPC   C1B31999  36.529  10.877   8.751
 2256POPC   C2B32000  36.657  10.805   8.323
 2256POPC   C3B32001  36.635  10.870   7.875
 2256POPC   C4B32002  36.582  11.033   7.478
 2257POPC   NC332003  22.873  30.037   9.549
 2257POPC   PO432004  23.421  30.364   9.283
 2257POPC   GL132005  23.049  30.092   9.069
 2257POPC   GL232006  22.972  29.699   9.190
 2257POPC   C1A32007  23.133  29.790   8.717
 2257POPC   D2A32008  23.342  29.682   8.327
 2257POPC   C3A32009  23.094  29.863   8.009
 2257POPC   C4A32010  22.819  30.126   7.793
 2257POPC   C1B32011  22.854  29.397   8.855
 2257POPC   C2B32012  22.861  29.464   8.413
 2257POPC   C3B32013  22.875  29.404   7.985
 2257POPC   C4B32014  22.835  29.651   7.573
 2258POPC   NC332015  40.172  21.422   9.409
 2258POPC   PO432016  39.992  21.940   9.730
 2258POPC   GL132017  39.738  21.633   9.248
 2258POPC   GL232018  39.810  21.272   9.114
 2258POPC   C1A32019  39.790  21.648   8.761
 2258POPC   D2A32020  40.092  21.724   8.419
 2258POPC   C3A32021  39.857  21.614   8.082
 2258POPC   C4A32022  39.854  21.527   7.672
 2258POPC   C1B32023  39.936  21.139   8.726
 2258POPC   C2B32024  39.769  21.181   8.348
 2258POPC   C3B32025  39.919  21.091   7.982
 2258POPC   C4B32026  40.047  21.034   7.607
 2259POPC   NC332027  14.682  16.829   9.585
 2259POPC   PO432028  15.113  16.390   9.498
 2259POPC   GL132029  14.981  16.725   9.158
 2259POPC   GL232030  14.898  17.115   9.209
 2259POPC   C1A32031  15.162  16.856   8.738
 2259POPC   D2A32032  15.372  17.059   8.359
 2259POPC   C3A32033  15.389  16.778   7.988
 2259POPC   C4A32034  15.554  16.378   7.764
 2259POPC   C1B32035  14.788  17.189   8.780
 2259POPC   C2B32036  14.865  17.020   8.343
 2259POPC   C3B32037  14.885  16.894   7.899
 2259POPC   C4B32038  14.986  17.163   7.527
 2260POPC   NC332039  13.759   7.889   9.360
 2260POPC   PO432040  13.497   8.529   9.263
 2260POPC   GL132041  13.707   8.257   9.001
 2260POPC   GL232042  13.415   8.044   9.004
 2260POPC   C1A32043  13.881   8.340   8.594
 2260POPC   D2A32044  13.823   8.105   8.223
 2260POPC   C3A32045  13.591   8.348   7.950
 2260POPC   C4A32046  13.759   8.655   7.718
 2260POPC   C1B32047  13.411   8.120   8.557
 2260POPC   C2B32048  13.375   7.882   8.159
 2260POPC   C3B32049  13.529   7.895   7.721
 2260POPC   C4B32050  13.949   7.731   7.516
 2261POPC   NC332051  19.904  35.523   9.429
 2261POPC   PO432052  20.266  34.930   9.559
 2261POPC   GL132053  20.146  35.128   9.172
 2261POPC   GL232054  19.809  35.154   9.073
 2261POPC   C1A32055  20.156  35.314   8.741
 2261POPC   D2A32056  19.899  35.286   8.362
 2261POPC   C3A32057  20.063  35.371   7.951
 2261POPC   C4A32058  20.079  35.117   7.557
 2261POPC   C1B32059  19.618  35.455   8.775
 2261POPC   C2B32060  19.437  35.603   8.378
 2261POPC   C3B32061  19.539  35.433   7.987
 2261POPC   C4B32062  19.724  35.614   7.648
 2262POPC   NC332063  44.362  44.341   9.417
 2262POPC   PO432064   0.022  44.517   9.492
 2262POPC   GL132065  44.743  44.553   9.131
 2262POPC   GL232066  44.555  44.845   9.073
 2262POPC   C1A32067  44.571  44.555   8.687
 2262POPC   D2A32068  44.402  44.844   8.410
 2262POPC   C3A32069  44.498  44.640   8.004
 2262POPC   C4A32070  44.867  44.438   7.823
 2262POPC   C1B32071  44.805   0.010   8.727
 2262POPC   C2B32072  44.810   0.105   8.280
 2262POPC   C3B32073  44.877   0.004   7.852
 2262POPC   C4B32074  44.723  44.807   7.512
 2263POPC   NC332075  12.104  35.568   9.517
 2263POPC   PO432076  12.151  34.901   9.443
 2263POPC   GL132077  12.125  35.241   9.128
 2263POPC   GL232078  11.876  35.514   9.051
 2263POPC   C1A32079  12.106  35.219   8.703
 2263POPC   D2A32080  12.349  35.189   8.357
 2263POPC   C3A32081  12.239  35.071   7.993
 2263POPC   C4A32082  12.183  35.239   7.631
 2263POPC   C1B32083  11.714  35.531   8.619
 2263POPC   C2B32084  11.953  35.493   8.232
 2263POPC   C3B32085  11.864  35.579   7.805
 2263POPC   C4B32086  11.658  35.450   7.415
 2264POPC   NC332087   0.681  39.492   9.448
 2264POPC   PO432088   0.447  38.900   9.690
 2264POPC   GL132089   0.255  38.875   9.253
 2264POPC   GL232090   0.340  39.208   9.198
 2264POPC   C1A32091   0.274  38.964   8.766
 2264POPC   D2A32092   0.260  39.174   8.353
 2264POPC   C3A32093   0.187  38.962   7.936
 2264POPC   C4A32094   0.089  39.025   7.444
 2264POPC   C1B32095   0.550  39.403   8.829
 2264POPC   C2B32096   0.555  39.637   8.462
 2264POPC   C3B32097   0.527  39.509   8.055
 2264POPC   C4B32098   0.399  39.350   7.684
 2265POPC   NC332099  44.436  13.834   9.519
 2265POPC   PO432100   0.098  13.939   9.375
 2265POPC   GL132101  44.773  13.669   9.154
 2265POPC   GL232102  44.698  13.351   9.280
 2265POPC   C1A32103  44.530  13.693   8.789
 2265POPC   D2A32104  44.436  13.847   8.411
 2265POPC   C3A32105  44.594  13.684   8.025
 2265POPC   C4A32106  44.606  13.822   7.622
 2265POPC   C1B32107  44.755  13.249   8.831
 2265POPC   C2B32108  44.683  13.374   8.400
 2265POPC   C3B32109  44.512  13.181   8.001
 2265POPC   C4B32110  44.613  13.315   7.590
 2266POPC   NC332111  25.084  10.000   9.462
 2266POPC   PO432112  25.510   9.463   9.327
 2266POPC   GL132113  25.314   9.572   8.967
 2266POPC   GL232114  24.998   9.696   9.023
 2266POPC   C1A32115  25.192   9.740   8.557
 2266POPC   D2A32116  24.921   9.704   8.250
 2266POPC   C3A32117  25.225   9.588   8.012
 2266POPC   C4A32118  25.558   9.712   7.789
 2266POPC   C1B32119  25.192  10.134   8.863
 2266POPC   C2B32120  25.490  10.218   8.532
 2266POPC   C3B32121  25.411  10.085   8.104
 2266POPC   C4B32122  25.064  10.017   7.799
 2267POPC   NC332123  13.991  22.477   9.531
 2267POPC   PO432124  13.543  22.899   9.623
 2267POPC   GL132125  13.763  22.954   9.253
 2267POPC   GL232126  13.428  22.970   9.100
 2267POPC   C1A32127  13.835  22.743   8.869
 2267POPC   D2A32128  13.570  22.906   8.571
 2267POPC   C3A32129  13.497  22.760   8.209
 2267POPC   C4A32130  13.597  22.719   7.806
 2267POPC   C1B32131  13.361  23.343   8.873
 2267POPC   C2B32132  13.470  23.391   8.432
 2267POPC   C3B32133  13.405  23.282   7.986
 2267POPC   C4B32134  13.384  23.125   7.561
 2268POPC   NC332135  44.788  11.099   9.399
 2268POPC   PO432136  44.693  10.522   9.756
 2268POPC   GL132137  44.571  10.502   9.308
 2268POPC   GL232138  44.887  10.524   9.137
 2268POPC   C1A32139  44.507  10.475   8.816
 2268POPC   D2A32140  44.810  10.460   8.451
 2268POPC   C3A32141  44.565  10.410   8.063
 2268POPC   C4A32142  44.448  10.554   7.656
 2268POPC   C1B32143  44.842  10.857   8.779
 2268POPC   C2B32144   0.048  10.918   8.345
 2268POPC   C3B32145   0.070  10.834   7.879
 2268POPC   C4B32146  44.848  10.851   7.475
 2269POPC   NC332147  18.351  38.629   9.434
 2269POPC   PO432148  17.850  38.318   9.781
 2269POPC   GL132149  17.902  38.476   9.271
 2269POPC   GL232150  18.183  38.241   9.122
 2269POPC   C1A32151  18.050  38.626   8.805
 2269POPC   D2A32152  18.276  38.545   8.384
 2269POPC   C3A32153  18.061  38.683   7.993
 2269POPC   C4A32154  18.043  38.451   7.644
 2269POPC   C1B32155  18.494  38.244   8.766
 2269POPC   C2B32156  18.729  38.307   8.331
 2269POPC   C3B32157  18.517  38.402   7.897
 2269POPC   C4B32158  18.485  38.303   7.411
 2270POPC   NC332159  18.398  34.746   9.616
 2270POPC   PO432160  18.812  34.218   9.778
 2270POPC   GL132161  18.525  34.352   9.331
 2270POPC   GL232162  18.667  34.407   9.016
 2270POPC   C1A32163  18.193  34.601   9.034
 2270POPC   D2A32164  17.996  34.621   8.609
 2270POPC   C3A32165  18.148  34.730   8.159
 2270POPC   C4A32166  18.040  34.449   7.825
 2270POPC   C1B32167  18.522  34.741   8.703
 2270POPC   C2B32168  18.468  34.457   8.416
 2270POPC   C3B32169  18.531  34.382   8.008
 2270POPC   C4B32170  18.765  34.120   7.784
 2271POPC   NC332171  33.807  27.346   9.474
 2271POPC   PO432172  33.385  27.858   9.637
 2271POPC   GL132173  33.578  27.829   9.207
 2271POPC   GL232174  33.740  27.519   9.013
 2271POPC   C1A32175  33.731  27.965   8.808
 2271POPC   D2A32176  33.694  27.676   8.434
 2271POPC   C3A32177  33.681  27.899   8.032
 2271POPC   C4A32178  33.962  27.894   7.716
 2271POPC   C1B32179  33.898  27.241   8.705
 2271POPC   C2B32180  33.965  27.232   8.278
 2271POPC   C3B32181  33.822  27.427   7.898
 2271POPC   C4B32182  34.031  27.396   7.508
 2272POPC   NC332183   0.918   3.000   9.938
 2272POPC   PO432184   0.380   2.650   9.676
 2272POPC   GL132185   0.357   2.753   9.220
 2272POPC   GL232186   0.676   2.919   9.125
 2272POPC   C1A32187   0.304   2.699   8.747
 2272POPC   D2A32188   0.103   2.696   8.307
 2272POPC   C3A32189   0.332   2.652   7.911
 2272POPC   C4A32190   0.511   2.702   7.499
 2272POPC   C1B32191   0.604   3.114   8.696
 2272POPC   C2B32192   0.492   3.014   8.268
 2272POPC   C3B32193   0.474   3.143   7.814
 2272POPC   C4B32194   0.809   3.105   7.475
 2273POPC   NC332195  37.512  34.735   9.468
 2273POPC   PO432196  37.932  34.223   9.420
 2273POPC   GL132197  37.840  34.445   9.062
 2273POPC   GL232198  37.920  34.767   9.120
 2273POPC   C1A32199  37.518  34.580   8.761
 2273POPC   D2A32200  37.286  34.566   8.363
 2273POPC   C3A32201  37.573  34.614   8.026
 2273POPC   C4A32202  37.553  34.501   7.615
 2273POPC   C1B32203  38.039  34.844   8.698
 2273POPC   C2B32204  37.867  34.941   8.310
 2273POPC   C3B32205  38.033  34.913   7.907
 2273POPC   C4B32206  37.948  34.777   7.488
 2274POPC   NC332207  10.318  10.453  10.048
 2274POPC   PO432208  10.540  10.244   9.434
 2274POPC   GL132209  10.282  10.446   9.152
 2274POPC   GL232210  10.592  10.540   9.047
 2274POPC   C1A32211  10.243  10.825   8.851
 2274POPC   D2A32212  10.178  10.899   8.407
 2274POPC   C3A32213  10.408  10.613   8.127
 2274POPC   C4A32214  10.302  10.460   7.726
 2274POPC   C1B32215  10.810  10.806   8.942
 2274POPC   C2B32216  10.697  10.799   8.519
 2274POPC   C3B32217  10.852  10.865   8.106
 2274POPC   C4B32218  10.749  10.678   7.715
 2275POPC   NC332219   8.028   9.644   9.606
 2275POPC   PO432220   8.354  10.183   9.493
 2275POPC   GL132221   8.166   9.933   9.195
 2275POPC   GL232222   7.814  10.013   9.277
 2275POPC   C1A32223   7.974   9.635   8.882
 2275POPC   D2A32224   7.927   9.431   8.454
 2275POPC   C3A32225   8.147   9.601   8.094
 2275POPC   C4A32226   7.988   9.732   7.691
 2275POPC   C1B32227   7.886  10.167   8.860
 2275POPC   C2B32228   7.941   9.960   8.492
 2275POPC   C3B32229   7.972  10.082   8.114
 2275POPC   C4B32230   8.028  10.269   7.768
 2276POPC   NC332231  28.458  28.519   9.397
 2276POPC   PO432232  28.160  27.995   9.709
 2276POPC   GL132233  28.126  28.162   9.233
 2276POPC   GL232234  27.989  28.498   9.197
 2276POPC   C1A32235  28.374  28.217   8.779
 2276POPC   D2A32236  28.653  28.406   8.424
 2276POPC   C3A32237  28.580  28.336   7.961
 2276POPC   C4A32238  28.435  28.469   7.543
 2276POPC   C1B32239  28.136  28.683   8.819
 2276POPC   C2B32240  28.151  28.525   8.410
 2276POPC   C3B32241  28.153  28.625   7.984
 2276POPC   C4B32242  28.001  28.762   7.608
 2277POPC   NC332243   9.730  11.876   9.649
 2277POPC   PO432244   9.778  12.518   9.681
 2277POPC   GL132245   9.705  12.211   9.263
 2277POPC   GL232246   9.420  12.266   9.027
 2277POPC   C1A32247   9.876  12.146   8.837
 2277POPC   D2A32248   9.695  12.137   8.425
 2277POPC   C3A32249   9.943  12.220   8.074
 2277POPC   C4A32250   9.820  12.335   7.703
 2277POPC   C1B32251   9.488  11.825   8.805
 2277POPC   C2B32252   9.443  11.698   8.341
 2277POPC   C3B32253   9.575  11.894   7.917
 2277POPC   C4B32254   9.333  12.212   7.674
 2278POPC   NC332255   2.124  40.233   9.322
 2278POPC   PO432256   2.674  39.904   9.547
 2278POPC   GL132257   2.630  40.123   9.164
 2278POPC   GL232258   2.406  39.924   9.044
 2278POPC   C1A32259   2.883  40.145   8.778
 2278POPC   D2A32260   3.071  39.989   8.366
 2278POPC   C3A32261   2.793  40.060   7.984
 2278POPC   C4A32262   2.820  40.297   7.628
 2278POPC   C1B32263   2.429  39.916   8.624
 2278POPC   C2B32264   2.325  39.999   8.213
 2278POPC   C3B32265   2.339  39.681   7.902
 2278POPC   C4B32266   2.413  39.715   7.428
 2279POPC   NC332267  41.174  10.271   9.355
 2279POPC   PO432268  41.307   9.658   9.274
 2279POPC   GL132269  41.683   9.771   9.109
 2279POPC   GL232270  41.511  10.038   9.026
 2279POPC   C1A32271  41.857   9.863   8.712
 2279POPC   D2A32272  41.713   9.889   8.328
 2279POPC   C3A32273  41.718   9.604   7.991
 2279POPC   C4A32274  41.445   9.456   7.683
 2279POPC   C1B32275  41.297   9.846   8.644
 2279POPC   C2B32276  41.252  10.089   8.270
 2279POPC   C3B32277  41.465  10.048   7.901
 2279POPC   C4B32278  41.347  10.189   7.521
 2280POPC   NC332279  21.250  28.083   9.580
 2280POPC   PO432280  21.549  28.606   9.885
 2280POPC   GL132281  21.541  28.537   9.393
 2280POPC   GL232282  21.252  28.407   9.187
 2280POPC   C1A32283  21.626  28.616   8.905
 2280POPC   D2A32284  21.652  28.768   8.446
 2280POPC   C3A32285  21.424  28.566   8.100
 2280POPC   C4A32286  21.522  28.339   7.730
 2280POPC   C1B32287  21.115  28.147   8.815
 2280POPC   C2B32288  21.072  28.271   8.381
 2280POPC   C3B32289  21.092  28.123   7.950
 2280POPC   C4B32290  21.106  28.162   7.482
 2281POPC   NC332291  32.924  28.073   9.521
 2281POPC   PO432292  33.136  28.717   9.431
 2281POPC   GL132293  32.889  28.551   9.101
 2281POPC   GL232294  32.906  28.190   9.042
 2281POPC   C1A32295  32.977  28.506   8.651
 2281POPC   D2A32296  33.058  28.409   8.236
 2281POPC   C3A32297  32.909  28.768   7.993
 2281POPC   C4A32298  32.666  28.736   7.616
 2281POPC   C1B32299  32.870  27.971   8.677
 2281POPC   C2B32300  32.665  28.018   8.294
 2281POPC   C3B32301  32.755  28.162   7.873
 2281POPC   C4B32302  33.086  28.383   7.718
 2282POPC   NC332303   3.630  15.430   9.587
 2282POPC   PO432304   3.521  16.115   9.571
 2282POPC   GL132305   3.596  15.942   9.176
 2282POPC   GL232306   3.769  16.234   9.081
 2282POPC   C1A32307   3.415  15.796   8.769
 2282POPC   D2A32308   3.541  15.614   8.368
 2282POPC   C3A32309   3.297  15.819   8.048
 2282POPC   C4A32310   3.205  15.891   7.631
 2282POPC   C1B32311   3.922  15.962   8.754
 2282POPC   C2B32312   4.045  15.859   8.345
 2282POPC   C3B32313   3.815  15.842   7.978
 2282POPC   C4B32314   3.712  15.925   7.526
 2283POPC   NC332315  21.543  39.371   9.486
 2283POPC   PO432316  21.149  38.773   9.470
 2283POPC   GL132317  21.260  39.055   9.142
 2283POPC   GL232318  21.591  38.985   9.130
 2283POPC   C1A32319  21.433  39.324   8.792
 2283POPC   D2A32320  21.349  39.458   8.374
 2283POPC   C3A32321  21.445  39.264   7.988
 2283POPC   C4A32322  21.170  39.013   7.776
 2283POPC   C1B32323  21.791  38.959   8.773
 2283POPC   C2B32324  21.713  39.059   8.389
 2283POPC   C3B32325  21.866  38.948   8.017
 2283POPC   C4B32326  21.955  39.328   7.792
 2284POPC   NC332327  36.951  22.463   9.823
 2284POPC   PO432328  36.997  23.040   9.534
 2284POPC   GL132329  36.923  22.863   9.120
 2284POPC   GL232330  36.608  22.858   9.127
 2284POPC   C1A32331  37.164  22.814   8.733
 2284POPC   D2A32332  37.253  23.036   8.356
 2284POPC   C3A32333  36.999  22.959   7.996
 2284POPC   C4A32334  37.065  22.601   7.747
 2284POPC   C1B32335  36.513  22.746   8.771
 2284POPC   C2B32336  36.747  22.735   8.419
 2284POPC   C3B32337  36.633  22.576   8.043
 2284POPC   C4B32338  36.563  22.802   7.674
 2285POPC   NC332339  33.092  27.489   9.728
 2285POPC   PO432340  33.451  27.009   9.542
 2285POPC   GL132341  33.305  27.398   9.253
 2285POPC   GL232342  32.985  27.628   9.230
 2285POPC   C1A32343  33.290  27.659   8.805
 2285POPC   D2A32344  33.333  28.042   8.478
 2285POPC   C3A32345  33.180  27.919   8.064
 2285POPC   C4A32346  33.293  27.482   7.919
 2285POPC   C1B32347  32.790  27.487   8.806
 2285POPC   C2B32348  32.904  27.543   8.363
 2285POPC   C3B32349  32.759  27.654   7.946
 2285POPC   C4B32350  32.916  27.469   7.579
 2286POPC   NC332351  13.526   0.614   9.540
 2286POPC   PO432352  14.123   0.361   9.528
 2286POPC   GL132353  13.835   0.527   9.133
 2286POPC   GL232354  13.453   0.696   9.064
 2286POPC   C1A32355  13.685   0.375   8.725
 2286POPC   D2A32356  13.498   0.231   8.345
 2286POPC   C3A32357  13.651   0.245   7.925
 2286POPC   C4A32358  13.717   0.514   7.589
 2286POPC   C1B32359  13.620   0.901   8.748
 2286POPC   C2B32360  13.673   0.761   8.363
 2286POPC   C3B32361  13.554   0.762   8.001
 2286POPC   C4B32362  13.230   0.723   7.725
 2287POPC   NC332363  34.786  21.707   9.891
 2287POPC   PO432364  34.678  21.333   9.426
 2287POPC   GL132365  34.613  21.217   9.044
 2287POPC   GL232366  34.593  20.883   9.059
 2287POPC   C1A32367  34.491  21.325   8.648
 2287POPC   D2A32368  34.343  21.677   8.418
 2287POPC   C3A32369  34.265  21.495   8.032
 2287POPC   C4A32370  34.596  21.321   7.802
 2287POPC   C1B32371  34.757  20.877   8.657
 2287POPC   C2B32372  34.733  21.024   8.227
 2287POPC   C3B32373  34.836  20.867   7.819
 2287POPC   C4B32374  34.631  20.982   7.403
 2288POPC   NC332375  42.597   9.776   9.557
 2288POPC   PO432376  41.863   9.718   9.591
 2288POPC   GL132377  42.165   9.683   9.262
 2288POPC   GL232378  42.206   9.950   9.108
 2288POPC   C1A32379  42.235   9.547   8.793
 2288POPC   D2A32380  42.024   9.441   8.384
 2288POPC   C3A32381  42.221   9.561   7.959
 2288POPC   C4A32382  42.169   9.571   7.492
 2288POPC   C1B32383  42.340  10.060   8.744
 2288POPC   C2B32384  42.252   9.906   8.345
 2288POPC   C3B32385  42.033  10.039   7.970
 2288POPC   C4B32386  42.249  10.072   7.583
 2289POPC   NC332387  42.084  40.169   9.251
 2289POPC   PO432388  42.781  40.241   9.516
 2289POPC   GL132389  42.584  40.232   9.124
 2289POPC   GL232390  42.581  39.867   9.120
 2289POPC   C1A32391  42.462  40.198   8.679
 2289POPC   D2A32392  42.661  40.339   8.297
 2289POPC   C3A32393  42.579  40.091   7.973
 2289POPC   C4A32394  42.171  40.058   7.933
 2289POPC   C1B32395  42.531  39.659   8.730
 2289POPC   C2B32396  42.419  39.783   8.338
 2289POPC   C3B32397  42.382  39.601   7.924
 2289POPC   C4B32398  42.344  39.723   7.500
 2290POPC   NC332399   8.333   7.001   9.465
 2290POPC   PO432400   8.119   6.352   9.519
 2290POPC   GL132401   8.318   6.556   9.188
 2290POPC   GL232402   8.136   6.822   9.055
 2290POPC   C1A32403   8.422   6.453   8.783
 2290POPC   D2A32404   8.258   6.264   8.389
 2290POPC   C3A32405   8.134   6.436   8.008
 2290POPC   C4A32406   8.325   6.517   7.623
 2290POPC   C1B32407   8.433   6.952   8.795
 2290POPC   C2B32408   8.484   6.756   8.388
 2290POPC   C3B32409   8.360   6.896   7.986
 2290POPC   C4B32410   8.002   6.913   7.745
 2291POPC   NC332411  44.797  16.223   9.646
 2291POPC   PO432412  44.300  15.729   9.535
 2291POPC   GL132413  44.612  15.916   9.259
 2291POPC   GL232414  44.368  15.854   9.020
 2291POPC   C1A32415  44.880  16.001   8.841
 2291POPC   D2A32416   0.117  15.916   8.469
 2291POPC   C3A32417  44.911  16.042   8.116
 2291POPC   C4A32418  44.829  15.970   7.691
 2291POPC   C1B32419  44.467  16.254   8.848
 2291POPC   C2B32420  44.557  16.295   8.402
 2291POPC   C3B32421  44.417  16.127   7.957
 2291POPC   C4B32422  44.356  15.900   7.529
 2292POPC   NC332423  39.258  16.929  10.094
 2292POPC   PO432424  38.857  17.077   9.543
 2292POPC   GL132425  39.176  16.938   9.201
 2292POPC   GL232426  39.204  16.583   9.125
 2292POPC   C1A32427  39.461  16.901   8.811
 2292POPC   D2A32428  39.545  16.587   8.458
 2292POPC   C3A32429  39.416  16.707   8.020
 2292POPC   C4A32430  38.998  16.708   7.828
 2292POPC   C1B32431  39.088  16.568   8.669
 2292POPC   C2B32432  39.122  16.344   8.273
 2292POPC   C3B32433  39.235  16.257   7.829
 2292POPC   C4B32434  39.085  16.398   7.404
 2293POPC   NC332435  33.489  19.679   9.745
 2293POPC   PO432436  34.020  20.010   9.662
 2293POPC   GL132437  34.100  19.998   9.237
 2293POPC   GL232438  33.854  19.753   9.194
 2293POPC   C1A32439  34.046  20.040   8.780
 2293POPC   D2A32440  33.720  20.054   8.433
 2293POPC   C3A32441  33.916  19.977   8.003
 2293POPC   C4A32442  33.822  19.817   7.596
 2293POPC   C1B32443  33.623  19.642   8.819
 2293POPC   C2B32444  33.506  19.563   8.423
 2293POPC   C3B32445  33.448  19.776   8.075
 2293POPC   C4B32446  33.383  19.572   7.732
 2294POPC   NC332447  28.566   8.856   9.513
 2294POPC   PO432448  28.106   8.601   9.127
 2294POPC   GL132449  28.244   9.027   9.125
 2294POPC   GL232450  28.599   9.043   9.040
 2294POPC   C1A32451  28.179   9.185   8.731
 2294POPC   D2A32452  28.134   8.909   8.372
 2294POPC   C3A32453  28.298   9.121   8.027
 2294POPC   C4A32454  28.379   8.973   7.603
 2294POPC   C1B32455  28.575   8.829   8.651
 2294POPC   C2B32456  28.638   8.811   8.209
 2294POPC   C3B32457  28.795   9.094   7.878
 2294POPC   C4B32458  28.881   9.440   7.608
 2295POPC   NC332459  12.154  40.569   9.660
 2295POPC   PO432460  12.066  41.224   9.538
 2295POPC   GL132461  12.250  40.884   9.218
 2295POPC   GL232462  12.022  40.630   9.166
 2295POPC   C1A32463  12.295  40.776   8.754
 2295POPC   D2A32464  12.065  40.936   8.368
 2295POPC   C3A32465  12.173  40.918   7.907
 2295POPC   C4A32466  12.339  40.630   7.567
 2295POPC   C1B32467  11.794  40.874   8.839
 2295POPC   C2B32468  11.566  40.902   8.427
 2295POPC   C3B32469  11.662  40.847   7.983
 2295POPC   C4B32470  11.519  41.123   7.687
 2296POPC   NC332471  15.725   0.770   9.096
 2296POPC   PO432472  15.351   0.353   9.476
 2296POPC   GL132473  15.320   0.412   9.040
 2296POPC   GL232474  14.961   0.513   9.006
 2296POPC   C1A32475  15.206   0.331   8.597
 2296POPC   D2A32476  14.920   0.448   8.243
 2296POPC   C3A32477  15.008   0.170   7.911
 2296POPC   C4A32478  15.263   0.202   7.523
 2296POPC   C1B32479  14.975   0.783   8.625
 2296POPC   C2B32480  15.369   0.758   8.351
 2296POPC   C3B32481  15.325   0.591   7.957
 2296POPC   C4B32482  14.994   0.627   7.654
 2297POPC   NC332483  12.593   1.904   9.293
 2297POPC   PO432484  13.015   1.397   9.568
 2297POPC   GL132485  12.930   1.245   9.161
 2297POPC   GL232486  12.582   1.326   9.157
 2297POPC   C1A32487  13.084   1.095   8.777
 2297POPC   D2A32488  13.283   1.095   8.366
 2297POPC   C3A32489  13.074   1.156   7.970
 2297POPC   C4A32490  12.810   1.005   7.604
 2297POPC   C1B32491  12.561   1.206   8.730
 2297POPC   C2B32492  12.749   1.001   8.391
 2297POPC   C3B32493  12.580   1.152   8.030
 2297POPC   C4B32494  12.612   1.508   7.771
 2298POPC   NC332495  33.436  40.988   9.490
 2298POPC   PO432496  34.097  40.666   9.492
 2298POPC   GL132497  33.847  40.869   9.206
 2298POPC   GL232498  33.631  40.629   9.148
 2298POPC   C1A32499  33.690  40.981   8.779
 2298POPC   D2A32500  33.693  40.760   8.354
 2298POPC   C3A32501  33.679  40.943   7.952
 2298POPC   C4A32502  33.966  40.996   7.659
 2298POPC   C1B32503  33.709  40.455   8.750
 2298POPC   C2B32504  33.861  40.294   8.318
 2298POPC   C3B32505  33.858  40.474   7.884
 2298POPC   C4B32506  33.812  40.562   7.444
 2299POPC   NC332507  25.528  37.955   9.513
 2299POPC   PO432508  25.231  37.391   9.373
 2299POPC   GL132509  25.429  37.638   9.097
 2299POPC   GL232510  25.161  37.879   9.079
 2299POPC   C1A32511  25.562  37.515   8.678
 2299POPC   D2A32512  25.347  37.501   8.280
 2299POPC   C3A32513  25.565  37.676   7.934
 2299POPC   C4A32514  25.473  37.649   7.490
 2299POPC   C1B32515  25.113  37.831   8.627
 2299POPC   C2B32516  25.075  38.072   8.214
 2299POPC   C3B32517  25.090  37.867   7.799
 2299POPC   C4B32518  24.948  37.837   7.364
 2300POPC   NC332519   6.043  29.066   9.421
 2300POPC   PO432520   6.683  28.947   9.657
 2300POPC   GL132521   6.808  29.038   9.249
 2300POPC   GL232522   6.487  29.089   9.136
 2300POPC   C1A32523   6.867  29.147   8.800
 2300POPC   D2A32524   6.688  29.066   8.430
 2300POPC   C3A32525   6.976  28.994   8.124
 2300POPC   C4A32526   6.919  29.102   7.709
 2300POPC   C1B32527   6.418  29.371   8.788
 2300POPC   C2B32528   6.428  29.549   8.395
 2300POPC   C3B32529   6.576  29.359   8.020
 2300POPC   C4B32530   6.503  29.406   7.590
 2301POPC   NC332531  27.015  11.680   9.925
 2301POPC   PO432532  27.047  11.335   9.440
 2301POPC   GL132533  26.719  11.548   9.206
 2301POPC   GL232534  26.481  11.293   9.090
 2301POPC   C1A32535  26.674  11.630   8.750
 2301POPC   D2A32536  26.811  11.490   8.310
 2301POPC   C3A32537  27.046  11.767   7.965
 2301POPC   C4A32538  26.911  11.772   7.505
 2301POPC   C1B32539  26.787  11.112   8.775
 2301POPC   C2B32540  26.833  10.958   8.364
 2301POPC   C3B32541  26.985  11.071   8.006
 2301POPC   C4B32542  26.774  11.372   7.794
 2302POPC   NC332543  37.977  25.919   9.307
 2302POPC   PO432544  37.368  25.750   9.439
 2302POPC   GL132545  37.517  25.796   9.057
 2302POPC   GL232546  37.582  26.145   9.056
 2302POPC   C1A32547  37.636  25.805   8.647
 2302POPC   D2A32548  37.674  26.117   8.328
 2302POPC   C3A32549  37.858  26.070   7.951
 2302POPC   C4A32550  37.571  25.881   7.731
 2302POPC   C1B32551  37.958  26.192   8.734
 2302POPC   C2B32552  38.175  26.248   8.314
 2302POPC   C3B32553  38.174  26.545   8.006
 2302POPC   C4B32554  37.932  26.581   7.614
 2303POPC   NC332555  38.808  31.313   9.766
 2303POPC   PO432556  38.252  31.445   9.434
 2303POPC   GL132557  38.583  31.261   9.147
 2303POPC   GL232558  38.450  31.501   8.927
 2303POPC   C1A32559  38.659  31.098   8.687
 2303POPC   D2A32560  38.567  31.375   8.297
 2303POPC   C3A32561  38.595  31.172   7.862
 2303POPC   C4A32562  38.656  31.177   7.368
 2303POPC   C1B32563  38.331  31.887   8.726
 2303POPC   C2B32564  38.319  31.884   8.279
 2303POPC   C3B32565  38.513  31.718   7.919
 2303POPC   C4B32566  38.340  31.519   7.582
 2304POPC   NC332567  13.789  27.766   9.528
 2304POPC   PO432568  13.711  27.128   9.595
 2304POPC   GL132569  13.613  27.401   9.184
 2304POPC   GL232570  13.826  27.665   9.018
 2304POPC   C1A32571  13.449  27.450   8.726
 2304POPC   D2A32572  13.203  27.402   8.301
 2304POPC   C3A32573  13.481  27.491   7.922
 2304POPC   C4A32574  13.841  27.782   7.830
 2304POPC   C1B32575  13.944  27.384   8.666
 2304POPC   C2B32576  13.902  27.429   8.207
 2304POPC   C3B32577  13.964  27.296   7.762
 2304POPC   C4B32578  14.171  27.481   7.350
 2305POPC   NC332579  21.573  32.782   9.413
 2305POPC   PO432580  21.196  33.254   9.759
 2305POPC   GL132581  21.352  33.199   9.259
 2305POPC   GL232582  21.695  33.304   9.143
 2305POPC   C1A32583  21.338  32.936   8.844
 2305POPC   D2A32584  21.066  32.975   8.514
 2305POPC   C3A32585  21.163  33.069   8.098
 2305POPC   C4A32586  21.281  33.160   7.701
 2305POPC   C1B32587  21.694  33.236   8.680
 2305POPC   C2B32588  21.575  32.875   8.376
 2305POPC   C3B32589  21.697  33.003   7.966
 2305POPC   C4B32590  21.579  33.463   7.972
 2306POPC   NC332591  17.541   1.873   9.467
 2306POPC   PO432592  16.913   1.712   9.558
 2306POPC   GL132593  17.191   1.701   9.100
 2306POPC   GL232594  17.575   1.716   8.993
 2306POPC   C1A32595  17.296   1.641   8.607
 2306POPC   D2A32596  17.704   1.739   8.429
 2306POPC   C3A32597  17.631   1.822   7.995
 2306POPC   C4A32598  17.219   1.847   7.847
 2306POPC   C1B32599  17.479   2.114   8.783
 2306POPC   C2B32600  17.411   2.436   8.471
 2306POPC   C3B32601  17.481   2.337   8.037
 2306POPC   C4B32602  17.923   2.231   7.949
 2307POPC   NC332603  39.906  42.731   9.470
 2307POPC   PO432604  40.142  43.406   9.496
 2307POPC   GL132605  40.104  43.119   9.178
 2307POPC   GL232606  39.758  43.132   9.179
 2307POPC   C1A32607  40.122  43.110   8.737
 2307POPC   D2A32608  40.454  43.058   8.417
 2307POPC   C3A32609  40.302  42.957   8.004
 2307POPC   C4A32610  40.289  43.265   7.688
 2307POPC   C1B32611  39.684  42.821   8.874
 2307POPC   C2B32612  39.603  42.845   8.457
 2307POPC   C3B32613  39.729  42.741   8.042
 2307POPC   C4B32614  39.832  43.071   7.785
 2308POPC   NC332615  41.762   2.169   9.570
 2308POPC   PO432616  41.184   2.122   9.282
 2308POPC   GL132617  41.479   1.912   9.081
 2308POPC   GL232618  41.837   1.946   9.118
 2308POPC   C1A32619  41.487   1.911   8.655
 2308POPC   D2A32620  41.264   2.144   8.366
 2308POPC   C3A32621  41.527   2.069   8.036
 2308POPC   C4A32622  41.418   2.041   7.632
 2308POPC   C1B32623  41.982   1.755   8.738
 2308POPC   C2B32624  41.841   1.640   8.339
 2308POPC   C3B32625  42.004   1.835   7.996
 2308POPC   C4B32626  41.924   2.037   7.666
 2309POPC   NC332627  39.606   0.383   9.519
 2309POPC   PO432628  40.052   0.943   9.428
 2309POPC   GL132629  39.923   0.660   9.080
 2309POPC   GL232630  39.630   0.431   9.018
 2309POPC   C1A32631  40.151   0.531   8.709
 2309POPC   D2A32632  40.167   0.757   8.350
 2309POPC   C3A32633  39.921   0.521   8.097
 2309POPC   C4A32634  39.979   0.327   7.718
 2309POPC   C1B32635  39.642   0.577   8.612
 2309POPC   C2B32636  39.448   0.425   8.251
 2309POPC   C3B32637  39.490   0.514   7.814
 2309POPC   C4B32638  39.682   0.609   7.415
 2310POPC   NC332639  37.905  22.746   9.724
 2310POPC   PO432640  37.497  22.993   9.310
 2310POPC   GL132641  37.643  22.977   8.938
 2310POPC   GL232642  37.898  23.189   8.943
 2310POPC   C1A32643  37.733  22.705   8.616
 2310POPC   D2A32644  37.732  22.532   8.215
 2310POPC   C3A32645  37.527  22.794   7.915
 2310POPC   C4A32646  37.320  23.031   7.585
 2310POPC   C1B32647  38.027  23.105   8.568
 2310POPC   C2B32648  37.741  23.140   8.268
 2310POPC   C3B32649  37.778  23.265   7.871
 2310POPC   C4B32650  38.148  23.293   7.668
 2311POPC   NC332651  37.858  24.651   9.460
 2311POPC   PO432652  37.573  23.968   9.519
 2311POPC   GL132653  37.565  24.205   9.128
 2311POPC   GL232654  37.805  24.398   8.998
 2311POPC   C1A32655  37.374  24.265   8.719
 2311POPC   D2A32656  37.636  24.318   8.341
 2311POPC   C3A32657  37.537  24.467   7.934
 2311POPC   C4A32658  37.901  24.662   7.741
 2311POPC   C1B32659  37.826  24.034   8.723
 2311POPC   C2B32660  38.104  24.016   8.367
 2311POPC   C3B32661  37.994  24.209   7.974
 2311POPC   C4B32662  38.176  24.266   7.567
 2312POPC   NC332663  32.392  43.963   9.441
 2312POPC   PO432664  32.014  43.501   9.157
 2312POPC   GL132665  32.311  43.690   8.937
 2312POPC   GL232666  32.606  43.792   9.012
 2312POPC   C1A32667  32.379  43.672   8.530
 2312POPC   D2A32668  32.083  43.922   8.469
 2312POPC   C3A32669  32.064  44.019   8.088
 2312POPC   C4A32670  32.158  43.799   7.775
 2312POPC   C1B32671  32.558  44.118   8.688
 2312POPC   C2B32672  32.543  44.090   8.246
 2312POPC   C3B32673  32.594  44.050   7.819
 2312POPC   C4B32674  32.297  44.195   7.460
 2313POPC   NC332675  25.604  25.990   9.572
 2313POPC   PO432676  25.071  26.393   9.446
 2313POPC   GL132677  25.288  26.133   9.183
 2313POPC   GL232678  25.028  25.897   9.204
 2313POPC   C1A32679  25.409  25.936   8.796
 2313POPC   D2A32680  25.640  26.025   8.434
 2313POPC   C3A32681  25.440  26.136   8.064
 2313POPC   C4A32682  25.611  26.119   7.667
 2313POPC   C1B32683  24.917  26.090   8.824
 2313POPC   C2B32684  25.136  26.278   8.496
 2313POPC   C3B32685  24.933  26.256   8.108
 2313POPC   C4B32686  24.867  26.137   7.702
 2314POPC   NC332687  35.515  20.632   9.695
 2314POPC   PO432688  36.254  20.537   9.509
 2314POPC   GL132689  36.170  20.549   9.060
 2314POPC   GL232690  35.825  20.541   8.977
 2314POPC   C1A32691  36.178  20.355   8.623
 2314POPC   D2A32692  36.425  20.350   8.217
 2314POPC   C3A32693  36.312  20.564   7.867
 2314POPC   C4A32694  35.966  20.476   7.580
 2314POPC   C1B32695  35.975  20.839   8.695
 2314POPC   C2B32696  36.065  20.760   8.299
 2314POPC   C3B32697  35.898  20.862   7.888
 2314POPC   C4B32698  36.016  20.957   7.427
 2315POPC   NC332699  20.786  19.576  10.030
 2315POPC   PO432700  20.383  19.900   9.604
 2315POPC   GL132701  20.628  19.836   9.225
 2315POPC   GL232702  20.508  20.117   9.114
 2315POPC   C1A32703  20.784  19.584   8.847
 2315POPC   D2A32704  20.809  19.830   8.472
 2315POPC   C3A32705  20.997  19.735   8.078
 2315POPC   C4A32706  20.718  19.799   7.732
 2315POPC   C1B32707  20.305  20.304   8.774
 2315POPC   C2B32708  20.341  20.283   8.368
 2315POPC   C3B32709  20.215  20.163   7.983
 2315POPC   C4B32710  20.254  20.092   7.550
 2316POPC   NC332711  43.550  43.798   9.631
 2316POPC   PO432712  43.693  43.365   9.188
 2316POPC   GL132713  43.847  43.795   9.173
 2316POPC   GL232714  43.674  44.108   9.228
 2316POPC   C1A32715  44.033  43.925   8.799
 2316POPC   D2A32716  44.154  43.615   8.451
 2316POPC   C3A32717  44.107  43.760   8.006
 2316POPC   C4A32718  43.771  43.674   7.676
 2316POPC   C1B32719  43.630  44.279   8.819
 2316POPC   C2B32720  43.811  44.178   8.406
 2316POPC   C3B32721  43.634  43.978   8.063
 2316POPC   C4B32722  43.456  44.072   7.684
 2317POPC   NC332723   5.020  13.542   9.593
 2317POPC   PO432724   5.122  14.163   9.493
 2317POPC   GL132725   5.106  13.914   9.088
 2317POPC   GL232726   4.942  13.570   9.100
 2317POPC   C1A32727   5.163  13.689   8.659
 2317POPC   D2A32728   5.258  13.461   8.269
 2317POPC   C3A32729   5.498  13.670   7.979
 2317POPC   C4A32730   5.497  13.722   7.523
 2317POPC   C1B32731   4.740  13.329   8.788
 2317POPC   C2B32732   4.768  13.393   8.366
 2317POPC   C3B32733   4.701  13.563   7.993
 2317POPC   C4B32734   5.045  13.630   7.751
 2318POPC   NC332735  39.655   6.328   9.554
 2318POPC   PO432736  39.335   6.830   9.262
 2318POPC   GL132737  39.324   6.581   8.925
 2318POPC   GL232738  39.137   6.336   9.028
 2318POPC   C1A32739  39.124   6.695   8.538
 2318POPC   D2A32740  39.119   6.945   8.154
 2318POPC   C3A32741  39.427   6.738   7.853
 2318POPC   C4A32742  39.686   6.342   7.929
 2318POPC   C1B32743  38.799   6.341   8.711
 2318POPC   C2B32744  38.826   6.162   8.337
 2318POPC   C3B32745  39.012   6.448   8.082
 2318POPC   C4B32746  38.990   6.507   7.682
 2319POPC   NC332747  16.976   6.536   9.575
 2319POPC   PO432748  16.455   6.857   9.477
 2319POPC   GL132749  16.775   6.755   9.136
 2319POPC   GL232750  16.840   6.412   9.065
 2319POPC   C1A32751  16.801   6.794   8.676
 2319POPC   D2A32752  17.033   6.797   8.246
 2319POPC   C3A32753  16.742   6.951   7.906
 2319POPC   C4A32754  16.325   6.898   7.667
 2319POPC   C1B32755  16.782   6.305   8.613
 2319POPC   C2B32756  16.642   6.467   8.241
 2319POPC   C3B32757  16.794   6.449   7.831
 2319POPC   C4B32758  16.845   6.218   7.451
 2320POPC   NC332759  12.314  18.849   9.387
 2320POPC   PO432760  11.668  19.024   9.509
 2320POPC   GL132761  11.839  18.922   9.136
 2320POPC   GL232762  12.019  19.231   9.171
 2320POPC   C1A32763  12.058  18.947   8.747
 2320POPC   D2A32764  11.894  19.071   8.372
 2320POPC   C3A32765  12.094  18.963   8.032
 2320POPC   C4A32766  11.768  19.051   7.745
 2320POPC   C1B32767  12.363  19.322   8.892
 2320POPC   C2B32768  12.357  19.294   8.464
 2320POPC   C3B32769  12.198  19.448   8.090
 2320POPC   C4B32770  12.268  19.279   7.669
 2321POPC   NC332771  36.911  12.979   9.765
 2321POPC   PO432772  37.233  12.515   9.746
 2321POPC   GL132773  36.959  12.647   9.332
 2321POPC   GL232774  36.790  12.979   9.232
 2321POPC   C1A32775  36.831  12.613   8.864
 2321POPC   D2A32776  36.890  12.832   8.435
 2321POPC   C3A32777  36.724  12.731   7.997
 2321POPC   C4A32778  36.859  12.791   7.540
 2321POPC   C1B32779  36.544  13.035   8.800
 2321POPC   C2B32780  36.451  13.077   8.340
 2321POPC   C3B32781  36.274  12.992   7.932
 2321POPC   C4B32782  36.398  13.014   7.514
 2322POPC   NC332783  12.672   5.586   9.524
 2322POPC   PO432784  12.945   6.239   9.499
 2322POPC   GL132785  13.006   5.860   9.217
 2322POPC   GL232786  13.315   5.677   9.184
 2322POPC   C1A32787  12.762   5.764   8.849
 2322POPC   D2A32788  12.648   6.053   8.533
 2322POPC   C3A32789  12.594   5.899   8.159
 2322POPC   C4A32790  12.478   5.971   7.747
 2322POPC   C1B32791  13.270   5.829   8.736
 2322POPC   C2B32792  13.082   5.750   8.311
 2322POPC   C3B32793  12.974   5.784   7.844
 2322POPC   C4B32794  13.120   6.073   7.540
 2323POPC   NC332795  19.987  20.126   9.555
 2323POPC   PO432796  19.550  19.680   9.503
 2323POPC   GL132797  19.795  19.851   9.180
 2323POPC   GL232798  20.122  19.742   9.176
 2323POPC   C1A32799  19.880  20.026   8.803
 2323POPC   D2A32800  19.702  19.925   8.448
 2323POPC   C3A32801  19.781  19.830   8.035
 2323POPC   C4A32802  19.465  20.003   7.778
 2323POPC   C1B32803  20.331  19.780   8.762
 2323POPC   C2B32804  20.212  19.775   8.335
 2323POPC   C3B32805  20.255  19.663   7.887
 2323POPC   C4B32806  19.946  19.658   7.583
 2324POPC   NC332807  44.292  12.970   9.576
 2324POPC   PO432808  44.915  13.030   9.608
 2324POPC   GL132809  44.679  12.813   9.268
 2324POPC   GL232810  44.411  12.952   9.075
 2324POPC   C1A32811  44.812  12.744   8.835
 2324POPC   D2A32812  44.648  12.881   8.446
 2324POPC   C3A32813  44.851  12.813   8.060
 2324POPC   C4A32814  44.932  12.716   7.683
 2324POPC   C1B32815  44.317  12.618   8.753
 2324POPC   C2B32816  44.221  12.622   8.298
 2324POPC   C3B32817  44.396  12.658   7.865
 2324POPC   C4B32818  44.221  12.549   7.451
 2325POPC   NC332819  37.676  42.059   9.415
 2325POPC   PO432820  37.291  41.513   9.526
 2325POPC   GL132821  37.513  41.659   9.138
 2325POPC   GL232822  37.826  41.617   9.174
 2325POPC   C1A32823  37.522  41.764   8.667
 2325POPC   D2A32824  37.602  41.520   8.295
 2325POPC   C3A32825  37.300  41.627   7.991
 2325POPC   C4A32826  37.256  41.843   7.612
 2325POPC   C1B32827  37.972  41.869   8.850
 2325POPC   C2B32828  38.018  41.858   8.443
 2325POPC   C3B32829  38.084  41.605   8.106
 2325POPC   C4B32830  37.776  41.602   7.784
 2326POPC   NC332831   0.500   4.757   9.684
 2326POPC   PO432832   0.004   4.644   9.280
 2326POPC   GL132833   0.378   4.459   9.256
 2326POPC   GL232834   0.229   4.130   9.243
 2326POPC   C1A32835   0.466   4.359   8.830
 2326POPC   D2A32836   0.190   4.554   8.524
 2326POPC   C3A32837   0.295   4.424   8.115
 2326POPC   C4A32838   0.402   4.478   7.693
 2326POPC   C1B32839   0.066   4.003   8.819
 2326POPC   C2B32840   0.098   3.633   8.501
 2326POPC   C3B32841   0.143   3.661   8.042
 2326POPC   C4B32842   0.010   4.053   7.860
 2327POPC   NC332843   5.859   7.959   9.370
 2327POPC   PO432844   6.278   8.348   9.208
 2327POPC   GL132845   5.875   8.336   8.996
 2327POPC   GL232846   5.564   8.360   9.215
 2327POPC   C1A32847   5.848   8.320   8.541
 2327POPC   D2A32848   5.892   8.131   8.147
 2327POPC   C3A32849   6.001   8.233   7.728
 2327POPC   C4A32850   6.004   8.016   7.303
 2327POPC   C1B32851   5.405   8.451   8.786
 2327POPC   C2B32852   5.390   8.282   8.317
 2327POPC   C3B32853   5.509   8.371   7.854
 2327POPC   C4B32854   5.687   8.446   7.393
 2328POPC   NC332855  42.082  43.945   9.743
 2328POPC   PO432856  42.363  44.554   9.482
 2328POPC   GL132857  42.417  44.645   9.091
 2328POPC   GL232858  42.240  44.400   8.943
 2328POPC   C1A32859  42.737  44.485   8.834
 2328POPC   D2A32860  42.847  44.391   8.433
 2328POPC   C3A32861  42.590  44.296   8.084
 2328POPC   C4A32862  42.475  44.555   7.761
 2328POPC   C1B32863  42.331  44.413   8.526
 2328POPC   C2B32864  42.100  44.415   8.186
 2328POPC   C3B32865  42.177  44.829   8.088
 2328POPC   C4B32866  42.178  44.960   7.664
 2329POPC   NC332867  21.461  20.009   9.402
 2329POPC   PO432868  20.918  19.565   9.572
 2329POPC   GL132869  21.134  19.711   9.166
 2329POPC   GL232870  21.051  20.064   9.064
 2329POPC   C1A32871  21.270  19.766   8.708
 2329POPC   D2A32872  21.497  19.566   8.349
 2329POPC   C3A32873  21.499  19.730   7.927
 2329POPC   C4A32874  21.752  19.730   7.526
 2329POPC   C1B32875  21.290  20.273   8.731
 2329POPC   C2B32876  21.302  20.104   8.306
 2329POPC   C3B32877  21.228  20.179   7.893
 2329POPC   C4B32878  21.347  20.021   7.496
 2330POPC   NC332879   5.485  35.494   9.794
 2330POPC   PO432880   5.982  35.139   9.500
 2330POPC   GL132881   6.083  35.215   9.062
 2330POPC   GL232882   5.731  35.254   9.062
 2330POPC   C1A32883   6.008  35.450   8.661
 2330POPC   D2A32884   5.761  35.582   8.270
 2330POPC   C3A32885   6.010  35.628   7.873
 2330POPC   C4A32886   6.008  35.681   7.405
 2330POPC   C1B32887   5.549  35.247   8.655
 2330POPC   C2B32888   5.799  35.063   8.361
 2330POPC   C3B32889   5.857  35.160   7.965
 2330POPC   C4B32890   5.724  34.970   7.624
 2331POPC   NC332891  15.308  23.953   9.554
 2331POPC   PO432892  14.994  23.391   9.447
 2331POPC   GL132893  15.235  23.623   9.171
 2331POPC   GL232894  15.090  23.945   9.091
 2331POPC   C1A32895  15.415  23.621   8.784
 2331POPC   D2A32896  15.218  23.455   8.416
 2331POPC   C3A32897  15.415  23.558   8.066
 2331POPC   C4A32898  15.360  23.814   7.761
 2331POPC   C1B32899  15.216  24.099   8.690
 2331POPC   C2B32900  15.125  24.003   8.253
 2331POPC   C3B32901  14.924  23.689   8.015
 2331POPC   C4B32902  14.604  23.471   7.836
 2332POPC   NC332903   4.267  36.300   9.376
 2332POPC   PO432904   4.760  35.722   9.445
 2332POPC   GL132905   4.494  35.912   9.159
 2332POPC   GL232906   4.597  36.256   9.002
 2332POPC   C1A32907   4.235  35.920   8.800
 2332POPC   D2A32908   4.483  36.052   8.463
 2332POPC   C3A32909   4.349  35.935   8.040
 2332POPC   C4A32910   4.447  35.781   7.634
 2332POPC   C1B32911   4.233  36.414   8.741
 2332POPC   C2B32912   4.093  36.532   8.346
 2332POPC   C3B32913   4.343  36.467   7.958
 2332POPC   C4B32914   4.190  36.251   7.567
 2333POPC   NC332915  38.793  23.502   9.470
 2333POPC   PO432916  39.454  23.709   9.577
 2333POPC   GL132917  39.415  23.825   9.148
 2333POPC   GL232918  39.032  23.831   9.137
 2333POPC   C1A32919  39.586  23.572   8.796
 2333POPC   D2A32920  39.621  23.395   8.379
 2333POPC   C3A32921  39.345  23.569   8.040
 2333POPC   C4A32922  39.435  23.452   7.584
 2333POPC   C1B32923  39.100  23.769   8.714
 2333POPC   C2B32924  39.177  24.008   8.372
 2333POPC   C3B32925  38.995  24.022   8.009
 2333POPC   C4B32926  39.026  23.749   7.678
 2334POPC   NC332927  38.201  27.486   9.554
 2334POPC   PO432928  38.808  27.735   9.493
 2334POPC   GL132929  38.600  27.720   9.126
 2334POPC   GL232930  38.431  27.432   9.115
 2334POPC   C1A32931  38.683  27.532   8.689
 2334POPC   D2A32932  38.685  27.242   8.330
 2334POPC   C3A32933  38.589  27.503   7.976
 2334POPC   C4A32934  38.932  27.761   7.781
 2334POPC   C1B32935  38.148  27.471   8.755
 2334POPC   C2B32936  38.213  27.486   8.344
 2334POPC   C3B32937  38.053  27.535   7.947
 2334POPC   C4B32938  38.205  27.671   7.594
 2335POPC   NC332939   9.431  22.020   9.834
 2335POPC   PO432940   9.376  22.493   9.334
 2335POPC   GL132941   9.230  22.372   8.960
 2335POPC   GL232942   8.965  22.106   9.020
 2335POPC   C1A32943   9.094  22.332   8.567
 2335POPC   D2A32944   8.909  22.011   8.390
 2335POPC   C3A32945   8.721  22.117   8.039
 2335POPC   C4A32946   9.000  22.218   7.732
 2335POPC   C1B32947   8.634  21.815   8.869
 2335POPC   C2B32948   8.538  21.696   8.461
 2335POPC   C3B32949   8.633  21.628   8.005
 2335POPC   C4B32950   8.729  21.833   7.581
 2336POPC   NC332951  30.670  26.652   9.584
 2336POPC   PO432952  30.852  27.195   9.251
 2336POPC   GL132953  30.713  26.822   9.102
 2336POPC   GL232954  31.022  26.687   9.047
 2336POPC   C1A32955  30.655  26.686   8.681
 2336POPC   D2A32956  30.451  26.783   8.310
 2336POPC   C3A32957  30.657  26.918   7.893
 2336POPC   C4A32958  31.027  26.990   7.632
 2336POPC   C1B32959  31.020  26.325   8.715
 2336POPC   C2B32960  30.879  26.395   8.279
 2336POPC   C3B32961  30.922  26.507   7.850
 2336POPC   C4B32962  30.978  26.534   7.371
 2337POPC   NC332963   1.038  23.093   9.630
 2337POPC   PO432964   0.383  22.765   9.470
 2337POPC   GL132965   0.490  23.151   9.216
 2337POPC   GL232966   0.826  23.127   9.158
 2337POPC   C1A32967   0.409  23.282   8.781
 2337POPC   D2A32968   0.275  23.002   8.464
 2337POPC   C3A32969   0.172  23.169   8.091
 2337POPC   C4A32970   0.110  23.237   7.662
 2337POPC   C1B32971   0.654  22.853   8.836
 2337POPC   C2B32972   0.798  22.892   8.437
 2337POPC   C3B32973   0.613  22.844   8.046
 2337POPC   C4B32974   0.624  23.174   7.785
 2338POPC   NC332975   8.724  18.790   9.495
 2338POPC   PO432976   9.111  19.371   9.432
 2338POPC   GL132977   8.949  19.376   9.075
 2338POPC   GL232978   8.866  19.035   9.078
 2338POPC   C1A32979   8.826  19.504   8.700
 2338POPC   D2A32980   8.867  19.240   8.376
 2338POPC   C3A32981   9.007  19.312   8.001
 2338POPC   C4A32982   8.890  19.130   7.657
 2338POPC   C1B32983   8.929  18.787   8.732
 2338POPC   C2B32984   8.782  18.746   8.365
 2338POPC   C3B32985   8.981  18.769   7.992
 2338POPC   C4B32986   9.155  18.719   7.556
 2339POPC   NC332987  33.901  15.633   9.656
 2339POPC   PO432988  34.147  15.111   9.455
 2339POPC   GL132989  34.041  15.384   9.092
 2339POPC   GL232990  33.737  15.189   9.070
 2339POPC   C1A32991  33.749  15.586   8.754
 2339POPC   D2A32992  33.468  15.424   8.406
 2339POPC   C3A32993  33.650  15.411   7.975
 2339POPC   C4A32994  34.064  15.513   7.799
 2339POPC   C1B32995  33.887  15.117   8.644
 2339POPC   C2B32996  34.067  15.287   8.274
 2339POPC   C3B32997  33.976  15.009   7.918
 2339POPC   C4B32998  33.568  14.824   7.718
 2340POPC   NC332999  27.629  35.014   9.509
 2340POPC   PO433000  27.453  35.715   9.498
 2340POPC   GL133001  27.739  35.462   9.249
 2340POPC   GL233002  27.445  35.307   9.123
 2340POPC   C1A33003  27.859  35.332   8.823
 2340POPC   D2A33004  27.901  35.562   8.454
 2340POPC   C3A33005  27.911  35.451   8.047
 2340POPC   C4A33006  27.741  35.696   7.713
 2340POPC   C1B33007  27.204  35.586   8.829
 2340POPC   C2B33008  27.401  35.547   8.503
 2340POPC   C3B33009  27.426  35.627   8.122
 2340POPC   C4B33010  27.283  35.484   7.767
 2341POPC   NC333011  28.272  19.198   9.474
 2341POPC   PO433012  28.848  18.855   9.460
 2341POPC   GL133013  28.590  18.961   9.111
 2341POPC   GL233014  28.810  18.723   8.945
 2341POPC   C1A33015  28.302  19.197   8.812
 2341POPC   D2A33016  28.030  19.385   8.483
 2341POPC   C3A33017  28.206  19.388   8.081
 2341POPC   C4A33018  28.080  19.384   7.662
 2341POPC   C1B33019  28.783  19.095   8.662
 2341POPC   C2B33020  28.659  19.197   8.251
 2341POPC   C3B33021  28.666  18.997   7.862
 2341POPC   C4B33022  28.281  18.778   7.764
 2342POPC   NC333023   1.234  11.051   9.431
 2342POPC   PO433024   0.804  11.464   9.367
 2342POPC   GL133025   0.907  11.311   9.025
 2342POPC   GL233026   0.693  11.104   9.013
 2342POPC   C1A33027   1.207  11.163   8.751
 2342POPC   D2A33028   1.452  11.376   8.449
 2342POPC   C3A33029   1.430  11.148   8.084
 2342POPC   C4A33030   1.339  11.236   7.668
 2342POPC   C1B33031   0.800  10.836   8.760
 2342POPC   C2B33032   1.014  10.889   8.337
 2342POPC   C3B33033   0.991  10.921   7.898
 2342POPC   C4B33034   0.813  11.142   7.575
 2343POPC   NC333035  32.320  36.971   9.448
 2343POPC   PO433036  31.770  36.621   9.421
 2343POPC   GL133037  31.976  36.825   9.092
 2343POPC   GL233038  32.292  36.617   9.068
 2343POPC   C1A33039  32.103  37.196   8.828
 2343POPC   D2A33040  32.359  37.281   8.437
 2343POPC   C3A33041  32.196  37.075   8.066
 2343POPC   C4A33042  32.287  37.128   7.627
 2343POPC   C1B33043  32.113  36.547   8.690
 2343POPC   C2B33044  31.995  36.629   8.311
 2343POPC   C3B33045  32.224  36.546   8.006
 2343POPC   C4B33046  32.296  36.632   7.635
 2344POPC   NC333047  14.163   6.084   9.505
 2344POPC   PO433048  14.857   6.023   9.581
 2344POPC   GL133049  14.636   5.946   9.181
 2344POPC   GL233050  14.285   5.873   9.068
 2344POPC   C1A33051  14.710   5.705   8.799
 2344POPC   D2A33052  14.848   5.858   8.407
 2344POPC   C3A33053  14.621   5.879   8.069
 2344POPC   C4A33054  14.385   5.650   7.759
 2344POPC   C1B33055  14.144   6.155   8.752
 2344POPC   C2B33056  14.261   6.252   8.349
 2344POPC   C3B33057  14.150   6.040   8.009
 2344POPC   C4B33058  13.867   5.931   7.757
 2345POPC   NC333059  44.731  44.978   9.511
 2345POPC   PO433060  44.406   0.609   9.490
 2345POPC   GL133061  44.510   0.344   9.179
 2345POPC   GL233062  44.843   0.363   9.128
 2345POPC   C1A33063  44.335   0.196   8.793
 2345POPC   D2A33064  44.371   0.382   8.385
 2345POPC   C3A33065  44.378   0.147   7.984
 2345POPC   C4A33066  44.490   0.251   7.538
 2345POPC   C1B33067  44.731   0.510   8.725
 2345POPC   C2B33068  44.771   0.670   8.321
 2345POPC   C3B33069  44.730   0.519   7.927
 2345POPC   C4B33070  44.765   0.682   7.527
 2346POPC   NC333071  39.057   4.802   9.668
 2346POPC   PO433072  39.607   5.113   9.507
 2346POPC   GL133073  39.403   5.007   9.136
 2346POPC   GL233074  39.140   4.760   9.168
 2346POPC   C1A33075  39.406   4.966   8.697
 2346POPC   D2A33076  39.295   5.113   8.310
 2346POPC   C3A33077  39.267   4.897   7.900
 2346POPC   C4A33078  39.248   5.011   7.438
 2346POPC   C1B33079  38.941   5.087   8.903
 2346POPC   C2B33080  38.804   5.139   8.477
 2346POPC   C3B33081  38.903   5.303   8.053
 2346POPC   C4B33082  38.728   5.268   7.645
 2347POPC   NC333083  32.018  42.044   9.474
 2347POPC   PO433084  32.357  42.628   9.467
 2347POPC   GL133085  32.556  42.424   9.125
 2347POPC   GL233086  32.423  42.076   9.140
 2347POPC   C1A33087  32.483  42.362   8.703
 2347POPC   D2A33088  32.231  42.243   8.381
 2347POPC   C3A33089  32.375  42.379   7.994
 2347POPC   C4A33090  31.970  42.408   7.822
 2347POPC   C1B33091  32.177  41.913   8.793
 2347POPC   C2B33092  32.195  41.728   8.391
 2347POPC   C3B33093  32.226  41.886   7.992
 2347POPC   C4B33094  32.229  42.029   7.580
 2348POPC   NC333095  14.201  12.684   9.488
 2348POPC   PO433096  14.723  13.077   9.579
 2348POPC   GL133097  14.711  12.854   9.165
 2348POPC   GL233098  14.515  12.547   9.099
 2348POPC   C1A33099  14.611  12.883   8.699
 2348POPC   D2A33100  14.305  13.007   8.381
 2348POPC   C3A33101  14.482  12.991   7.968
 2348POPC   C4A33102  14.277  13.146   7.646
 2348POPC   C1B33103  14.144  12.676   8.805
 2348POPC   C2B33104  14.017  12.517   8.389
 2348POPC   C3B33105  14.060  12.690   7.946
 2348POPC   C4B33106  14.024  12.740   7.486
 2349POPC   NC333107   7.028  18.678   9.552
 2349POPC   PO433108   7.283  18.060   9.484
 2349POPC   GL133109   7.315  18.166   9.065
 2349POPC   GL233110   7.083  18.457   9.078
 2349POPC   C1A33111   7.539  18.065   8.655
 2349POPC   D2A33112   7.640  18.420   8.368
 2349POPC   C3A33113   7.590  18.422   7.946
 2349POPC   C4A33114   7.211  18.491   7.777
 2349POPC   C1B33115   7.175  18.430   8.623
 2349POPC   C2B33116   7.171  18.168   8.239
 2349POPC   C3B33117   6.891  18.124   7.876
 2349POPC   C4B33118   6.868  18.207   7.430
 2350POPC   NC333119  35.568  35.242   9.588
 2350POPC   PO433120  35.024  35.646   9.378
 2350POPC   GL133121  35.228  35.297   9.178
 2350POPC   GL233122  35.526  35.071   9.131
 2350POPC   C1A33123  35.412  35.457   8.789
 2350POPC   D2A33124  35.335  35.689   8.388
 2350POPC   C3A33125  35.532  35.660   7.972
 2350POPC   C4A33126  35.658  35.773   7.542
 2350POPC   C1B33127  35.403  34.943   8.743
 2350POPC   C2B33128  35.254  35.148   8.408
 2350POPC   C3B33129  35.316  35.066   8.042
 2350POPC   C4B33130  35.448  35.242   7.683
 2351POPC   NC333131  19.398  30.433   9.545
 2351POPC   PO433132  19.953  30.748   9.562
 2351POPC   GL133133  19.706  30.783   9.172
 2351POPC   GL233134  19.666  30.449   9.068
 2351POPC   C1A33135  19.639  30.804   8.711
 2351POPC   D2A33136  19.896  30.725   8.345
 2351POPC   C3A33137  19.666  30.670   8.004
 2351POPC   C4A33138  19.478  30.921   7.681
 2351POPC   C1B33139  20.045  30.514   8.784
 2351POPC   C2B33140  20.236  30.344   8.389
 2351POPC   C3B33141  20.260  30.513   7.965
 2351POPC   C4B33142  19.941  30.518   7.602
 2352POPC   NC333143   8.691  24.791   9.751
 2352POPC   PO433144   9.113  25.329   9.497
 2352POPC   GL133145   8.875  25.165   9.227
 2352POPC   GL233146   9.083  24.845   9.309
 2352POPC   C1A33147   8.728  25.249   8.802
 2352POPC   D2A33148   8.811  25.548   8.485
 2352POPC   C3A33149   8.879  25.372   8.076
 2352POPC   C4A33150   8.790  25.113   7.675
 2352POPC   C1B33151   9.155  24.968   8.857
 2352POPC   C2B33152   8.977  24.946   8.429
 2352POPC   C3B33153   9.107  24.929   8.019
 2352POPC   C4B33154   9.266  25.202   7.629
 2353POPC   NC333155   9.157  29.669   9.542
 2353POPC   PO433156   8.768  29.209   9.386
 2353POPC   GL133157   8.911  29.067   9.059
 2353POPC   GL233158   9.189  29.306   9.088
 2353POPC   C1A33159   8.981  29.126   8.660
 2353POPC   D2A33160   8.970  29.403   8.369
 2353POPC   C3A33161   8.978  29.200   8.013
 2353POPC   C4A33162   8.723  29.296   7.714
 2353POPC   C1B33163   9.459  29.309   8.731
 2353POPC   C2B33164   9.485  29.431   8.295
 2353POPC   C3B33165   9.432  29.394   7.836
 2353POPC   C4B33166   9.403  29.365   7.376
 2354POPC   NC333167  12.377  20.312   9.390
 2354POPC   PO433168  12.472  20.901   9.603
 2354POPC   GL133169  12.224  20.974   9.243
 2354POPC   GL233170  11.863  20.954   9.346
 2354POPC   C1A33171  12.284  20.825   8.813
 2354POPC   D2A33172  12.161  20.484   8.514
 2354POPC   C3A33173  12.260  20.519   8.084
 2354POPC   C4A33174  12.261  20.282   7.702
 2354POPC   C1B33175  11.838  20.649   8.974
 2354POPC   C2B33176  11.642  20.557   8.545
 2354POPC   C3B33177  11.733  20.523   8.100
 2354POPC   C4B33178  11.724  20.920   7.955
 2355POPC   NC333179  24.156  37.609   9.615
 2355POPC   PO433180  23.523  37.765   9.543
 2355POPC   GL133181  23.768  37.686   9.205
 2355POPC   GL233182  23.985  37.922   9.189
 2355POPC   C1A33183  23.680  37.769   8.804
 2355POPC   D2A33184  23.619  37.651   8.418
 2355POPC   C3A33185  23.788  37.704   8.032
 2355POPC   C4A33186  23.472  37.601   7.751
 2355POPC   C1B33187  24.075  38.088   8.808
 2355POPC   C2B33188  24.064  37.955   8.396
 2355POPC   C3B33189  24.138  38.075   7.975
 2355POPC   C4B33190  24.044  38.089   7.548
 2356POPC   NC333191  23.751  10.958   9.546
 2356POPC   PO433192  23.656  10.274   9.604
 2356POPC   GL133193  23.573  10.361   9.188
 2356POPC   GL233194  23.452  10.061   9.147
 2356POPC   C1A33195  23.726  10.579   8.812
 2356POPC   D2A33196  24.059  10.686   8.506
 2356POPC   C3A33197  23.936  10.616   8.083
 2356POPC   C4A33198  23.641  10.857   7.834
 2356POPC   C1B33199  23.722  10.054   8.798
 2356POPC   C2B33200  23.678  10.273   8.399
 2356POPC   C3B33201  23.442  10.462   8.075
 2356POPC   C4B33202  23.689  10.326   7.727
 2357POPC   NC333203  23.925  39.609   9.892
 2357POPC   PO433204  23.938  40.177   9.566
 2357POPC   GL133205  23.687  40.207   9.187
 2357POPC   GL233206  23.535  39.867   9.272
 2357POPC   C1A33207  23.628  40.288   8.712
 2357POPC   D2A33208  23.807  40.011   8.365
 2357POPC   C3A33209  23.829  40.022   7.900
 2357POPC   C4A33210  23.810  39.587   7.790
 2357POPC   C1B33211  23.380  39.825   8.844
 2357POPC   C2B33212  23.255  40.039   8.437
 2357POPC   C3B33213  23.326  39.878   8.026
 2357POPC   C4B33214  23.405  39.900   7.606
 2358POPC   NC333215  37.748  44.963   9.610
 2358POPC   PO433216  37.856   0.601   9.665
 2358POPC   GL133217  37.904   0.347   9.293
 2358POPC   GL233218  38.169   0.499   9.144
 2358POPC   C1A33219  37.725   0.273   8.899
 2358POPC   D2A33220  37.803   0.240   8.465
 2358POPC   C3A33221  37.542   0.280   8.101
 2358POPC   C4A33222  37.669   0.362   7.699
 2358POPC   C1B33223  38.076   0.639   8.757
 2358POPC   C2B33224  38.165   0.605   8.359
 2358POPC   C3B33225  38.059   0.429   8.017
 2358POPC   C4B33226  37.915   0.794   7.819
 2359POPC   NC333227  44.456  35.248   9.560
 2359POPC   PO433228   0.129  35.403   9.549
 2359POPC   GL133229  44.836  35.362   9.196
 2359POPC   GL233230  44.483  35.465   9.087
 2359POPC   C1A33231  44.884  35.302   8.754
 2359POPC   D2A33232   0.074  35.438   8.354
 2359POPC   C3A33233  44.760  35.419   8.021
 2359POPC   C4A33234  44.502  35.106   7.866
 2359POPC   C1B33235  44.479  35.589   8.631
 2359POPC   C2B33236  44.181  35.674   8.318
 2359POPC   C3B33237  44.123  35.834   7.915
 2359POPC   C4B33238  44.348  35.805   7.540
 2360POPC   NC333239   2.569   7.091   9.777
 2360POPC   PO433240   2.969   7.542   9.477
 2360POPC   GL133241   2.969   7.497   9.025
 2360POPC   GL233242   2.688   7.725   9.078
 2360POPC   C1A33243   2.929   7.483   8.583
 2360POPC   D2A33244   3.106   7.399   8.185
 2360POPC   C3A33245   2.917   7.652   7.891
 2360POPC   C4A33246   2.624   7.409   7.715
 2360POPC   C1B33247   2.449   7.594   8.700
 2360POPC   C2B33248   2.552   7.703   8.251
 2360POPC   C3B33249   2.412   7.876   7.811
 2360POPC   C4B33250   2.563   7.760   7.346
 2361POPC   NC333251   2.255  18.785   9.436
 2361POPC   PO433252   1.782  19.349   9.507
 2361POPC   GL133253   1.891  19.235   9.098
 2361POPC   GL233254   2.165  19.030   9.010
 2361POPC   C1A33255   1.783  19.112   8.681
 2361POPC   D2A33256   2.006  18.874   8.351
 2361POPC   C3A33257   1.789  18.888   7.949
 2361POPC   C4A33258   1.756  19.143   7.556
 2361POPC   C1B33259   2.407  18.785   8.709
 2361POPC   C2B33260   2.470  18.619   8.269
 2361POPC   C3B33261   2.324  18.860   7.901
 2361POPC   C4B33262   2.058  18.717   7.550
 2362POPC   NC333263  34.131  29.927   9.817
 2362POPC   PO433264  33.589  30.208   9.462
 2362POPC   GL133265  33.531  29.980   9.079
 2362POPC   GL233266  33.248  30.183   9.042
 2362POPC   C1A33267  33.733  29.832   8.722
 2362POPC   D2A33268  33.712  29.980   8.294
 2362POPC   C3A33269  33.883  29.857   7.940
 2362POPC   C4A33270  33.907  30.199   7.670
 2362POPC   C1B33271  33.397  30.212   8.624
 2362POPC   C2B33272  33.235  30.107   8.208
 2362POPC   C3B33273  33.428  30.082   7.819
 2362POPC   C4B33274  33.353  30.337   7.458
 2363POPC   NC333275  20.415  37.398   9.415
 2363POPC   PO433276  20.762  37.897   9.755
 2363POPC   GL133277  20.821  37.938   9.305
 2363POPC   GL233278  20.510  38.065   9.255
 2363POPC   C1A33279  20.782  37.710   8.897
 2363POPC   D2A33280  20.989  37.646   8.501
 2363POPC   C3A33281  20.749  37.683   8.151
 2363POPC   C4A33282  20.842  37.553   7.757
 2363POPC   C1B33283  20.568  38.159   8.825
 2363POPC   C2B33284  20.404  38.127   8.420
 2363POPC   C3B33285  20.498  38.102   8.014
 2363POPC   C4B33286  20.344  37.739   7.816
 2364POPC   NC333287  31.584  39.434   9.564
 2364POPC   PO433288  31.270  38.864   9.322
 2364POPC   GL133289  31.502  39.139   9.149
 2364POPC   GL233290  31.245  39.411   9.183
 2364POPC   C1A33291  31.777  39.039   8.801
 2364POPC   D2A33292  31.673  38.819   8.395
 2364POPC   C3A33293  31.564  39.123   8.045
 2364POPC   C4A33294  31.278  39.178   7.691
 2364POPC   C1B33295  31.458  39.491   8.786
 2364POPC   C2B33296  31.313  39.490   8.349
 2364POPC   C3B33297  31.163  39.620   7.952
 2364POPC   C4B33298  31.488  39.629   7.645
 2365POPC   NC333299  32.779   8.606   9.416
 2365POPC   PO433300  32.861   9.318   9.528
 2365POPC   GL133301  32.945   9.034   9.172
 2365POPC   GL233302  33.225   8.789   9.215
 2365POPC   C1A33303  33.009   9.173   8.739
 2365POPC   D2A33304  33.312   9.099   8.429
 2365POPC   C3A33305  33.133   9.154   8.032
 2365POPC   C4A33306  32.796   9.114   7.766
 2365POPC   C1B33307  33.083   8.686   8.798
 2365POPC   C2B33308  32.796   8.791   8.444
 2365POPC   C3B33309  32.891   8.667   8.021
 2365POPC   C4B33310  33.146   8.759   7.668
 2366POPC   NC333311   8.640  12.125   9.497
 2366POPC   PO433312   9.317  11.999   9.474
 2366POPC   GL133313   9.079  11.910   9.080
 2366POPC   GL233314   8.878  12.197   9.044
 2366POPC   C1A33315   9.092  12.067   8.610
 2366POPC   D2A33316   9.201  12.122   8.178
 2366POPC   C3A33317   8.980  11.889   7.862
 2366POPC   C4A33318   8.816  12.003   7.444
 2366POPC   C1B33319   8.621  12.283   8.646
 2366POPC   C2B33320   8.689  12.193   8.215
 2366POPC   C3B33321   8.839  12.369   7.825
 2366POPC   C4B33322   8.697  12.509   7.397
 2367POPC   NC333323  21.283  19.303   9.443
 2367POPC   PO433324  21.652  18.775   9.441
 2367POPC   GL133325  21.514  18.983   9.106
 2367POPC   GL233326  21.185  18.896   9.111
 2367POPC   C1A33327  21.380  19.285   8.785
 2367POPC   D2A33328  21.051  19.347   8.453
 2367POPC   C3A33329  21.213  19.274   8.024
 2367POPC   C4A33330  21.585  19.246   7.765
 2367POPC   C1B33331  21.342  18.804   8.684
 2367POPC   C2B33332  21.306  18.828   8.253
 2367POPC   C3B33333  21.314  18.802   7.820
 2367POPC   C4B33334  20.934  18.841   7.590
 2368POPC   NC333335  32.565  15.456   9.615
 2368POPC   PO433336  32.087  15.761   9.673
 2368POPC   GL133337  32.223  15.571   9.227
 2368POPC   GL233338  32.575  15.522   9.112
 2368POPC   C1A33339  32.223  15.416   8.758
 2368POPC   D2A33340  32.304  15.121   8.411
 2368POPC   C3A33341  32.240  15.178   7.971
 2368POPC   C4A33342  32.213  14.988   7.527
 2368POPC   C1B33343  32.723  15.683   8.739
 2368POPC   C2B33344  32.950  15.598   8.364
 2368POPC   C3B33345  33.011  15.253   8.067
 2368POPC   C4B33346  32.711  15.020   7.787
 2369POPC   NC333347   0.105  27.805   9.663
 2369POPC   PO433348  44.536  27.518   9.488
 2369POPC   GL133349  44.660  27.414   9.085
 2369POPC   GL233350  44.392  27.202   9.123
 2369POPC   C1A33351  44.857  27.350   8.712
 2369POPC   D2A33352  44.717  27.625   8.375
 2369POPC   C3A33353  44.910  27.641   7.982
 2369POPC   C4A33354  44.798  27.818   7.567
 2369POPC   C1B33355  44.371  27.150   8.731
 2369POPC   C2B33356  44.603  27.135   8.330
 2369POPC   C3B33357  44.457  27.363   7.987
 2369POPC   C4B33358  44.291  27.207   7.621
 2370POPC   NC333359  24.013  14.031   9.432
 2370POPC   PO433360  24.175  14.653   9.266
 2370POPC   GL133361  23.707  14.581   9.122
 2370POPC   GL233362  23.432  14.843   9.194
 2370POPC   C1A33363  23.613  14.297   8.781
 2370POPC   D2A33364  23.892  14.291   8.421
 2370POPC   C3A33365  23.766  14.351   7.996
 2370POPC   C4A33366  23.909  14.138   7.620
 2370POPC   C1B33367  23.293  14.706   8.794
 2370POPC   C2B33368  23.464  14.625   8.391
 2370POPC   C3B33369  23.398  14.722   7.983
 2370POPC   C4B33370  23.614  14.603   7.576
 2371POPC   NC333371  43.551  20.439   9.232
 2371POPC   PO433372  43.754  20.927   9.663
 2371POPC   GL133373  43.905  20.836   9.216
 2371POPC   GL233374  43.697  20.815   8.889
 2371POPC   C1A33375  44.175  20.671   8.839
 2371POPC   D2A33376  43.972  20.578   8.415
 2371POPC   C3A33377  43.908  20.904   8.100
 2371POPC   C4A33378  44.100  20.927   7.712
 2371POPC   C1B33379  43.502  20.480   8.617
 2371POPC   C2B33380  43.510  20.419   8.194
 2371POPC   C3B33381  43.773  20.462   7.872
 2371POPC   C4B33382  43.650  20.353   7.487
 2372POPC   NC333383  42.069  26.261   9.456
 2372POPC   PO433384  42.251  25.579   9.468
 2372POPC   GL133385  42.174  25.866   9.124
 2372POPC   GL233386  42.469  26.077   9.175
 2372POPC   C1A33387  42.226  26.143   8.735
 2372POPC   D2A33388  42.156  26.346   8.315
 2372POPC   C3A33389  42.019  26.072   7.941
 2372POPC   C4A33390  42.151  26.071   7.489
 2372POPC   C1B33391  42.669  25.887   8.809
 2372POPC   C2B33392  42.582  26.037   8.381
 2372POPC   C3B33393  42.524  26.089   7.945
 2372POPC   C4B33394  42.650  25.899   7.556
 2373POPC   NC333395  28.080  20.163   9.592
 2373POPC   PO433396  28.516  19.610   9.601
 2373POPC   GL133397  28.262  19.731   9.284
 2373POPC   GL233398  28.461  20.011   9.182
 2373POPC   C1A33399  28.253  19.703   8.832
 2373POPC   D2A33400  28.316  19.973   8.510
 2373POPC   C3A33401  28.082  19.875   8.157
 2373POPC   C4A33402  28.215  19.878   7.765
 2373POPC   C1B33403  28.734  19.619   8.993
 2373POPC   C2B33404  28.812  19.595   8.543
 2373POPC   C3B33405  28.590  19.705   8.180
 2373POPC   C4B33406  28.608  19.522   7.789
 2374POPC   NC333407   6.008  27.986   9.540
 2374POPC   PO433408   5.836  28.609   9.490
 2374POPC   GL133409   6.103  28.383   9.211
 2374POPC   GL233410   5.810  28.189   9.103
 2374POPC   C1A33411   6.142  28.411   8.759
 2374POPC   D2A33412   5.904  28.651   8.442
 2374POPC   C3A33413   6.019  28.660   8.000
 2374POPC   C4A33414   5.958  28.313   7.735
 2374POPC   C1B33415   5.643  28.267   8.659
 2374POPC   C2B33416   5.688  28.290   8.180
 2374POPC   C3B33417   5.526  28.565   7.835
 2374POPC   C4B33418   5.611  28.503   7.376
 2375POPC   NC333419  15.433  23.205   9.443
 2375POPC   PO433420  15.081  22.683   9.570
 2375POPC   GL133421  15.248  22.797   9.160
 2375POPC   GL233422  15.115  23.118   9.036
 2375POPC   C1A33423  15.125  22.693   8.715
 2375POPC   D2A33424  14.956  22.750   8.290
 2375POPC   C3A33425  15.050  23.109   8.015
 2375POPC   C4A33426  15.181  22.815   7.702
 2375POPC   C1B33427  15.430  23.101   8.742
 2375POPC   C2B33428  15.458  22.974   8.320
 2375POPC   C3B33429  15.575  23.105   7.928
 2375POPC   C4B33430  15.358  23.263   7.568
 2376POPC   NC333431   6.843   5.376   9.629
 2376POPC   PO433432   6.780   4.759   9.634
 2376POPC   GL133433   6.917   5.017   9.245
 2376POPC   GL233434   6.705   5.332   9.140
 2376POPC   C1A33435   6.952   5.101   8.764
 2376POPC   D2A33436   7.085   5.146   8.324
 2376POPC   C3A33437   6.726   5.065   8.008
 2376POPC   C4A33438   6.433   4.906   7.664
 2376POPC   C1B33439   6.552   5.429   8.697
 2376POPC   C2B33440   6.613   5.530   8.258
 2376POPC   C3B33441   6.482   5.557   7.822
 2376POPC   C4B33442   6.288   5.359   7.430
 2377POPC   NC333443  34.139  31.482   9.567
 2377POPC   PO433444  33.522  31.169   9.624
 2377POPC   GL133445  33.623  31.393   9.240
 2377POPC   GL233446  33.700  31.727   9.267
 2377POPC   C1A33447  33.991  31.479   8.921
 2377POPC   D2A33448  34.143  31.216   8.594
 2377POPC   C3A33449  34.135  31.323   8.145
 2377POPC   C4A33450  34.011  31.642   7.838
 2377POPC   C1B33451  33.526  31.661   8.823
 2377POPC   C2B33452  33.657  31.431   8.469
 2377POPC   C3B33453  33.541  31.547   8.057
 2377POPC   C4B33454  33.220  31.364   7.769
 2378POPC   NC333455   9.328  12.484   9.547
 2378POPC   PO433456   9.996  12.946   9.445
 2378POPC   GL133457   9.780  12.975   9.057
 2378POPC   GL233458   9.657  12.694   9.145
 2378POPC   C1A33459   9.417  12.835   8.736
 2378POPC   D2A33460   9.203  12.578   8.420
 2378POPC   C3A33461   9.434  12.555   8.040
 2378POPC   C4A33462   9.609  12.820   7.764
 2378POPC   C1B33463   9.902  12.635   8.720
 2378POPC   C2B33464   9.863  12.693   8.295
 2378POPC   C3B33465  10.076  12.700   7.926
 2378POPC   C4B33466  10.108  12.753   7.500
 2379POPC   NC333467  27.420  19.477   9.557
 2379POPC   PO433468  27.616  20.108   9.520
 2379POPC   GL133469  27.497  19.863   9.207
 2379POPC   GL233470  27.793  19.737   9.068
 2379POPC   C1A33471  27.415  19.886   8.765
 2379POPC   D2A33472  27.724  19.812   8.503
 2379POPC   C3A33473  27.656  19.553   8.147
 2379POPC   C4A33474  27.730  19.748   7.771
 2379POPC   C1B33475  27.964  20.119   8.881
 2379POPC   C2B33476  27.923  20.277   8.468
 2379POPC   C3B33477  27.650  20.169   8.130
 2379POPC   C4B33478  27.808  20.247   7.734
 2380POPC   NC333479  37.626  38.003   9.704
 2380POPC   PO433480  37.290  37.599   9.342
 2380POPC   GL133481  37.607  37.555   9.069
 2380POPC   GL233482  37.924  37.547   9.226
 2380POPC   C1A33483  37.710  37.402   8.678
 2380POPC   D2A33484  37.704  37.197   8.298
 2380POPC   C3A33485  37.826  37.530   8.088
 2380POPC   C4A33486  37.587  37.662   7.796
 2380POPC   C1B33487  38.095  37.782   8.883
 2380POPC   C2B33488  38.059  37.819   8.459
 2380POPC   C3B33489  38.115  37.961   8.052
 2380POPC   C4B33490  38.079  37.730   7.661
 2381POPC   NC333491   5.515  14.398   9.448
 2381POPC   PO433492   4.786  14.654   9.472
 2381POPC   GL133493   4.873  14.420   9.129
 2381POPC   GL233494   5.214  14.466   9.046
 2381POPC   C1A33495   4.880  14.262   8.724
 2381POPC   D2A33496   4.782  14.487   8.390
 2381POPC   C3A33497   5.053  14.498   8.058
 2381POPC   C4A33498   4.778  14.169   7.926
 2381POPC   C1B33499   5.382  14.162   8.704
 2381POPC   C2B33500   5.238  14.037   8.254
 2381POPC   C3B33501   5.297  14.122   7.778
 2381POPC   C4B33502   5.353  14.159   7.295
 2382POPC   NC333503  31.318  17.608   9.876
 2382POPC   PO433504  31.843  17.462   9.537
 2382POPC   GL133505  31.553  17.587   9.190
 2382POPC   GL233506  31.210  17.710   9.288
 2382POPC   C1A33507  31.631  17.532   8.749
 2382POPC   D2A33508  31.373  17.470   8.390
 2382POPC   C3A33509  31.595  17.632   8.055
 2382POPC   C4A33510  31.894  17.543   7.767
 2382POPC   C1B33511  31.120  17.714   8.814
 2382POPC   C2B33512  31.100  17.894   8.345
 2382POPC   C3B33513  31.121  17.663   7.933
 2382POPC   C4B33514  31.358  17.380   7.651
 2383POPC   NC333515  24.576  40.469   9.476
 2383POPC   PO433516  24.322  41.031   9.232
 2383POPC   GL133517  24.499  40.674   9.009
 2383POPC   GL233518  24.867  40.559   9.041
 2383POPC   C1A33519  24.537  40.682   8.589
 2383POPC   D2A33520  24.811  40.928   8.312
 2383POPC   C3A33521  24.587  40.946   7.954
 2383POPC   C4A33522  24.168  41.001   7.853
 2383POPC   C1B33523  25.028  40.566   8.609
 2383POPC   C2B33524  24.794  40.415   8.230
 2383POPC   C3B33525  24.740  40.407   7.817
 2383POPC   C4B33526  24.499  40.681   7.517
 2384POPC   NC333527  12.976  37.111   9.545
 2384POPC   PO433528  12.468  36.676   9.401
 2384POPC   GL133529  12.800  36.808   9.145
 2384POPC   GL233530  12.780  37.184   9.090
 2384POPC   C1A33531  12.845  36.663   8.714
 2384POPC   D2A33532  12.933  36.727   8.279
 2384POPC   C3A33533  12.639  36.669   7.985
 2384POPC   C4A33534  12.629  37.016   7.707
 2384POPC   C1B33535  13.139  37.043   8.842
 2384POPC   C2B33536  13.185  37.139   8.423
 2384POPC   C3B33537  12.961  37.255   8.058
 2384POPC   C4B33538  13.081  37.241   7.654
 2385POPC   NC333539  13.369  19.230   9.641
 2385POPC   PO433540  12.719  19.068   9.450
 2385POPC   GL133541  12.905  19.084   9.080
 2385POPC   GL233542  13.149  18.824   9.029
 2385POPC   C1A33543  12.708  18.936   8.709
 2385POPC   D2A33544  12.872  18.761   8.325
 2385POPC   C3A33545  12.615  18.913   7.973
 2385POPC   C4A33546  12.723  19.075   7.556
 2385POPC   C1B33547  13.212  19.033   8.613
 2385POPC   C2B33548  13.337  19.242   8.231
 2385POPC   C3B33549  13.117  19.112   7.869
 2385POPC   C4B33550  13.189  19.263   7.430
 2386POPC   NC333551  42.720  10.706   9.676
 2386POPC   PO433552  42.367  10.188   9.528
 2386POPC   GL133553  42.397  10.428   9.176
 2386POPC   GL233554  42.581  10.735   9.188
 2386POPC   C1A33555  42.321  10.560   8.769
 2386POPC   D2A33556  42.158  10.394   8.393
 2386POPC   C3A33557  42.421  10.369   8.017
 2386POPC   C4A33558  42.418  10.555   7.597
 2386POPC   C1B33559  42.703  10.887   8.771
 2386POPC   C2B33560  42.511  10.766   8.351
 2386POPC   C3B33561  42.483  10.924   7.946
 2386POPC   C4B33562  42.648  11.021   7.530
 2387POPC   NC333563  18.516  23.057   9.523
 2387POPC   PO433564  17.916  22.864   9.649
 2387POPC   GL133565  18.170  22.997   9.173
 2387POPC   GL233566  18.370  22.726   9.003
 2387POPC   C1A33567  18.476  23.187   8.829
 2387POPC   D2A33568  18.407  23.239   8.373
 2387POPC   C3A33569  18.518  22.880   8.110
 2387POPC   C4A33570  18.392  22.806   7.684
 2387POPC   C1B33571  18.064  22.703   8.709
 2387POPC   C2B33572  18.017  22.845   8.285
 2387POPC   C3B33573  18.012  22.602   7.935
 2387POPC   C4B33574  18.133  22.341   7.619
 2388POPC   NC333575  38.037  42.990   9.451
 2388POPC   PO433576  37.375  43.160   9.462
 2388POPC   GL133577  37.617  42.963   9.148
 2388POPC   GL233578  37.888  43.219   9.029
 2388POPC   C1A33579  37.698  42.856   8.727
 2388POPC   D2A33580  37.666  43.075   8.360
 2388POPC   C3A33581  37.848  42.821   8.082
 2388POPC   C4A33582  37.487  42.874   7.831
 2388POPC   C1B33583  37.543  43.377   8.775
 2388POPC   C2B33584  37.319  43.495   8.413
 2388POPC   C3B33585  37.494  43.420   8.011
 2388POPC   C4B33586  37.465  43.435   7.590
 2389POPC   NC333587  11.128  24.089   9.504
 2389POPC   PO433588  11.626  23.613   9.569
 2389POPC   GL133589  11.378  23.639   9.205
 2389POPC   GL233590  11.118  23.415   9.117
 2389POPC   C1A33591  11.225  23.883   8.877
 2389POPC   D2A33592  11.314  23.919   8.456
 2389POPC   C3A33593  11.402  23.791   8.059
 2389POPC   C4A33594  11.120  23.915   7.730
 2389POPC   C1B33595  11.360  23.416   8.712
 2389POPC   C2B33596  11.254  23.223   8.311
 2389POPC   C3B33597  11.051  23.406   7.995
 2389POPC   C4B33598  10.965  23.453   7.622
 2390POPC   NC333599   0.141  20.124   9.513
 2390POPC   PO433600   0.510  19.627   9.653
 2390POPC   GL133601   0.406  19.752   9.227
 2390POPC   GL233602   0.418  20.076   9.094
 2390POPC   C1A33603   0.312  19.651   8.789
 2390POPC   D2A33604   0.153  19.620   8.355
 2390POPC   C3A33605   0.443  19.675   7.997
 2390POPC   C4A33606   0.762  20.015   7.898
 2390POPC   C1B33607   0.734  20.084   8.811
 2390POPC   C2B33608   0.604  19.925   8.427
 2390POPC   C3B33609   0.325  20.147   8.174
 2390POPC   C4B33610   0.290  20.131   7.751
 2391POPC   NC333611   7.688  44.820   9.396
 2391POPC   PO433612   8.207  44.529   9.740
 2391POPC   GL133613   8.183  44.716   9.281
 2391POPC   GL233614   7.964  44.493   9.096
 2391POPC   C1A33615   8.096  44.875   8.812
 2391POPC   D2A33616   8.311  44.810   8.411
 2391POPC   C3A33617   8.106  44.802   8.006
 2391POPC   C4A33618   8.470  44.751   7.743
 2391POPC   C1B33619   8.108  44.388   8.679
 2391POPC   C2B33620   8.015  44.328   8.244
 2391POPC   C3B33621   8.237  44.311   7.843
 2391POPC   C4B33622   8.074  44.417   7.419
 2392POPC   NC333623  30.236  16.333   9.634
 2392POPC   PO433624  29.746  15.967   9.752
 2392POPC   GL133625  29.794  16.060   9.281
 2392POPC   GL233626  30.120  16.197   9.150
 2392POPC   C1A33627  29.781  16.068   8.789
 2392POPC   D2A33628  29.553  15.998   8.369
 2392POPC   C3A33629  29.706  16.043   7.939
 2392POPC   C4A33630  29.687  15.647   7.656
 2392POPC   C1B33631  30.279  16.080   8.722
 2392POPC   C2B33632  30.065  15.960   8.330
 2392POPC   C3B33633  30.219  16.015   7.902
 2392POPC   C4B33634  30.477  15.992   7.506
 2393POPC   NC333635   5.079  10.034   9.699
 2393POPC   PO433636   5.061  10.672   9.479
 2393POPC   GL133637   4.867  10.528   9.087
 2393POPC   GL233638   4.862  10.151   9.041
 2393POPC   C1A33639   4.975  10.472   8.631
 2393POPC   D2A33640   5.386  10.529   8.373
 2393POPC   C3A33641   5.272  10.637   7.924
 2393POPC   C4A33642   4.831  10.623   7.754
 2393POPC   C1B33643   5.289  10.111   8.814
 2393POPC   C2B33644   5.536   9.958   8.452
 2393POPC   C3B33645   5.469  10.128   8.044
 2393POPC   C4B33646   5.153  10.172   7.719
 2394POPC   NC333647  22.619  13.088   9.490
 2394POPC   PO433648  23.360  13.033   9.395
 2394POPC   GL133649  23.031  12.965   9.147
 2394POPC   GL233650  22.903  13.315   9.135
 2394POPC   C1A33651  22.870  12.645   8.846
 2394POPC   D2A33652  22.966  12.590   8.398
 2394POPC   C3A33653  22.872  12.858   8.037
 2394POPC   C4A33654  22.875  12.727   7.600
 2394POPC   C1B33655  22.724  13.121   8.764
 2394POPC   C2B33656  22.526  12.854   8.432
 2394POPC   C3B33657  22.366  12.880   7.984
 2394POPC   C4B33658  22.437  13.260   7.744
 2395POPC   NC333659  26.400  17.658   9.372
 2395POPC   PO433660  25.882  17.282   9.504
 2395POPC   GL133661  25.956  17.141   9.100
 2395POPC   GL233662  26.321  17.156   9.122
 2395POPC   C1A33663  25.797  17.282   8.726
 2395POPC   D2A33664  25.863  17.574   8.416
 2395POPC   C3A33665  25.896  17.302   8.073
 2395POPC   C4A33666  25.768  17.321   7.644
 2395POPC   C1B33667  26.288  17.455   8.732
 2395POPC   C2B33668  26.353  17.697   8.310
 2395POPC   C3B33669  26.236  17.653   7.855
 2395POPC   C4B33670  26.292  17.341   7.521
 2396POPC   NC333671  36.901   7.870   9.446
 2396POPC   PO433672  36.483   8.464   9.651
 2396POPC   GL133673  36.830   8.346   9.311
 2396POPC   GL233674  36.646   8.082   9.062
 2396POPC   C1A33675  37.025   8.484   8.899
 2396POPC   D2A33676  37.218   8.345   8.515
 2396POPC   C3A33677  37.009   8.266   8.118
 2396POPC   C4A33678  37.059   8.534   7.735
 2396POPC   C1B33679  36.977   7.961   8.757
 2396POPC   C2B33680  37.054   7.797   8.344
 2396POPC   C3B33681  36.839   7.793   7.944
 2396POPC   C4B33682  36.752   8.116   7.692
 2397POPC   NC333683  14.308  25.872   9.834
 2397POPC   PO433684  14.919  26.025   9.540
 2397POPC   GL133685  14.632  25.847   9.266
 2397POPC   GL233686  14.275  25.949   9.293
 2397POPC   C1A33687  14.618  25.945   8.849
 2397POPC   D2A33688  14.740  25.782   8.476
 2397POPC   C3A33689  14.550  25.974   8.168
 2397POPC   C4A33690  14.680  26.061   7.770
 2397POPC   C1B33691  14.099  25.895   8.867
 2397POPC   C2B33692  14.078  26.059   8.450
 2397POPC   C3B33693  14.008  25.926   8.042
 2397POPC   C4B33694  14.272  25.761   7.781
 2398POPC   NC333695  12.144  11.048   9.525
 2398POPC   PO433696  11.775  11.630   9.404
 2398POPC   GL133697  11.921  11.298   9.107
 2398POPC   GL233698  11.820  10.947   9.108
 2398POPC   C1A33699  12.099  11.383   8.708
 2398POPC   D2A33700  12.149  11.222   8.312
 2398POPC   C3A33701  12.107  11.564   8.043
 2398POPC   C4A33702  12.300  11.543   7.695
 2398POPC   C1B33703  11.692  11.059   8.672
 2398POPC   C2B33704  11.693  11.048   8.213
 2398POPC   C3B33705  11.938  11.113   7.824
 2398POPC   C4B33706  11.815  11.135   7.320
 2399POPC   NC333707  36.057  41.694   9.800
 2399POPC   PO433708  35.380  41.514   9.452
 2399POPC   GL133709  35.462  41.283   9.070
 2399POPC   GL233710  35.730  41.440   8.904
 2399POPC   C1A33711  35.290  41.296   8.658
 2399POPC   D2A33712  34.988  41.213   8.362
 2399POPC   C3A33713  34.935  41.472   8.007
 2399POPC   C4A33714  35.188  41.421   7.654
 2399POPC   C1B33715  35.420  41.784   8.783
 2399POPC   C2B33716  35.233  41.729   8.371
 2399POPC   C3B33717  35.443  41.416   8.099
 2399POPC   C4B33718  35.712  41.609   7.765
 2400POPC   NC333719  16.522  37.497   9.690
 2400POPC   PO433720  16.892  38.061   9.652
 2400POPC   GL133721  16.725  37.781   9.262
 2400POPC   GL233722  16.576  37.432   9.200
 2400POPC   C1A33723  16.649  37.782   8.784
 2400POPC   D2A33724  16.896  37.803   8.370
 2400POPC   C3A33725  16.658  37.828   8.005
 2400POPC   C4A33726  16.775  38.029   7.613
 2400POPC   C1B33727  16.720  37.210   8.859
 2400POPC   C2B33728  16.680  37.355   8.469
 2400POPC   C3B33729  16.805  37.338   8.076
 2400POPC   C4B33730  16.704  37.205   7.667
 2401POPC   NC333731  13.964  20.011   9.452
 2401POPC   PO433732  14.567  19.651   9.605
 2401POPC   GL133733  14.638  19.781   9.145
 2401POPC   GL233734  14.767  20.147   9.112
 2401POPC   C1A33735  14.370  19.713   8.791
 2401POPC   D2A33736  14.273  19.976   8.415
 2401POPC   C3A33737  14.278  19.758   8.024
 2401POPC   C4A33738  13.998  19.653   7.692
 2401POPC   C1B33739  14.674  20.115   8.685
 2401POPC   C2B33740  14.726  19.726   8.408
 2401POPC   C3B33741  14.874  19.718   8.001
 2401POPC   C4B33742  14.669  19.964   7.707
 2402POPC   NC333743   1.584  43.618   9.490
 2402POPC   PO433744   2.262  43.956   9.433
 2402POPC   GL133745   1.849  43.925   9.147
 2402POPC   GL233746   1.710  43.595   8.993
 2402POPC   C1A33747   1.696  44.011   8.703
 2402POPC   D2A33748   1.918  43.868   8.310
 2402POPC   C3A33749   1.835  44.008   7.906
 2402POPC   C4A33750   1.622  43.655   7.747
 2402POPC   C1B33751   2.095  43.638   8.730
 2402POPC   C2B33752   2.387  43.667   8.351
 2402POPC   C3B33753   2.294  43.728   7.906
 2402POPC   C4B33754   2.381  43.436   7.516
 2403POPC   NC333755  42.984  39.784   9.456
 2403POPC   PO433756  43.450  40.151   9.200
 2403POPC   GL133757  43.060  40.045   9.019
 2403POPC   GL233758  43.155  39.747   8.903
 2403POPC   C1A33759  42.887  39.971   8.558
 2403POPC   D2A33760  43.101  40.054   8.155
 2403POPC   C3A33761  42.957  39.806   7.802
 2403POPC   C4A33762  42.866  39.765   7.354
 2403POPC   C1B33763  43.350  40.131   8.598
 2403POPC   C2B33764  43.557  40.356   8.305
 2403POPC   C3B33765  43.617  40.179   7.968
 2403POPC   C4B33766  43.336  40.119   7.665
 2404POPC   NC333767  24.310  29.403   9.692
 2404POPC   PO433768  24.724  28.903   9.539
 2404POPC   GL133769  24.477  29.081   9.175
 2404POPC   GL233770  24.189  29.321   9.212
 2404POPC   C1A33771  24.526  29.127   8.720
 2404POPC   D2A33772  24.746  29.168   8.318
 2404POPC   C3A33773  24.574  28.909   7.991
 2404POPC   C4A33774  24.634  28.851   7.559
 2404POPC   C1B33775  24.057  29.325   8.805
 2404POPC   C2B33776  24.209  29.392   8.396
 2404POPC   C3B33777  24.145  29.208   8.016
 2404POPC   C4B33778  24.290  29.240   7.599
 2405POPC   NC333779  34.216  25.925   9.469
 2405POPC   PO433780  34.770  26.345   9.485
 2405POPC   GL133781  34.607  26.174   9.118
 2405POPC   GL233782  34.658  25.864   9.213
 2405POPC   C1A33783  34.843  25.981   8.755
 2405POPC   D2A33784  34.959  25.732   8.387
 2405POPC   C3A33785  34.661  25.849   8.068
 2405POPC   C4A33786  34.780  26.141   7.763
 2405POPC   C1B33787  34.368  25.743   8.847
 2405POPC   C2B33788  34.261  25.608   8.406
 2405POPC   C3B33789  34.258  25.522   7.962
 2405POPC   C4B33790  34.298  25.837   7.642
 2406POPC   NC333791  32.387  39.459   9.462
 2406POPC   PO433792  31.881  39.050   9.543
 2406POPC   GL133793  31.960  39.344   9.220
 2406POPC   GL233794  32.224  39.120   9.105
 2406POPC   C1A33795  32.016  39.499   8.823
 2406POPC   D2A33796  31.816  39.573   8.416
 2406POPC   C3A33797  32.042  39.621   8.028
 2406POPC   C4A33798  31.974  39.289   7.756
 2406POPC   C1B33799  32.471  39.232   8.748
 2406POPC   C2B33800  32.593  39.401   8.334
 2406POPC   C3B33801  32.521  39.252   7.902
 2406POPC   C4B33802  32.699  38.894   7.652
 2407POPC   NC333803  11.359  30.072   9.435
 2407POPC   PO433804  10.792  29.798   9.490
 2407POPC   GL133805  11.047  29.770   9.136
 2407POPC   GL233806  11.057  30.140   9.033
 2407POPC   C1A33807  11.273  29.697   8.724
 2407POPC   D2A33808  11.394  29.939   8.332
 2407POPC   C3A33809  11.471  29.775   7.903
 2407POPC   C4A33810  11.348  29.824   7.450
 2407POPC   C1B33811  11.035  30.305   8.608
 2407POPC   C2B33812  11.194  30.411   8.210
 2407POPC   C3B33813  11.171  30.183   7.806
 2407POPC   C4B33814  11.071  30.293   7.364
 2408POPC   NC333815  33.548  30.696   9.557
 2408POPC   PO433816  34.168  30.353   9.607
 2408POPC   GL133817  33.984  30.586   9.264
 2408POPC   GL233818  33.898  30.950   9.277
 2408POPC   C1A33819  33.834  30.534   8.848
 2408POPC   D2A33820  33.964  30.431   8.436
 2408POPC   C3A33821  33.677  30.461   8.089
 2408POPC   C4A33822  33.673  30.666   7.680
 2408POPC   C1B33823  33.728  31.047   8.873
 2408POPC   C2B33824  33.683  30.894   8.457
 2408POPC   C3B33825  33.487  31.000   8.078
 2408POPC   C4B33826  33.699  31.177   7.747
 2409POPC   NC333827  11.064  35.191   9.541
 2409POPC   PO433828  11.645  35.678   9.488
 2409POPC   GL133829  11.409  35.421   9.242
 2409POPC   GL233830  11.608  35.104   9.288
 2409POPC   C1A33831  11.234  35.506   8.849
 2409POPC   D2A33832  11.259  35.272   8.477
 2409POPC   C3A33833  11.440  35.465   8.136
 2409POPC   C4A33834  11.211  35.612   7.810
 2409POPC   C1B33835  11.595  35.097   8.843
 2409POPC   C2B33836  11.742  35.042   8.396
 2409POPC   C3B33837  11.739  35.086   7.949
 2409POPC   C4B33838  11.383  35.124   7.712
 2410POPC   NC333839  16.482   1.817   9.476
 2410POPC   PO433840  17.102   2.162   9.327
 2410POPC   GL133841  16.777   1.989   9.089
 2410POPC   GL233842  16.478   2.163   9.095
 2410POPC   C1A33843  16.893   2.104   8.691
 2410POPC   D2A33844  17.132   2.038   8.325
 2410POPC   C3A33845  16.941   2.239   7.994
 2410POPC   C4A33846  16.737   2.050   7.662
 2410POPC   C1B33847  16.369   2.000   8.700
 2410POPC   C2B33848  16.534   2.135   8.309
 2410POPC   C3B33849  16.353   2.266   7.928
 2410POPC   C4B33850  16.224   1.900   7.717
 2411POPC   NC333851  12.187  42.897   9.442
 2411POPC   PO433852  11.777  43.307   9.545
 2411POPC   GL133853  11.852  43.209   9.160
 2411POPC   GL233854  11.842  43.530   9.084
 2411POPC   C1A33855  11.806  43.162   8.709
 2411POPC   D2A33856  12.140  43.011   8.434
 2411POPC   C3A33857  12.127  42.884   7.975
 2411POPC   C4A33858  12.063  43.012   7.499
 2411POPC   C1B33859  12.236  43.486   8.855
 2411POPC   C2B33860  12.425  43.441   8.432
 2411POPC   C3B33861  12.208  43.380   8.078
 2411POPC   C4B33862  12.161  43.483   7.695
 2412POPC   NC333863  23.772  17.481   9.523
 2412POPC   PO433864  23.111  17.421   9.649
 2412POPC   GL133865  23.334  17.557   9.277
 2412POPC   GL233866  23.457  17.251   9.120
 2412POPC   C1A33867  23.547  17.703   8.876
 2412POPC   D2A33868  23.779  17.719   8.458
 2412POPC   C3A33869  23.596  17.753   8.029
 2412POPC   C4A33870  23.764  17.593   7.617
 2412POPC   C1B33871  23.848  17.265   8.896
 2412POPC   C2B33872  23.837  17.202   8.471
 2412POPC   C3B33873  23.923  17.367   8.077
 2412POPC   C4B33874  24.127  17.251   7.726
 2413POPC   NC333875   0.213  13.352   9.496
 2413POPC   PO433876   0.794  13.530   9.482
 2413POPC   GL133877   0.606  13.458   9.073
 2413POPC   GL233878   0.262  13.571   9.051
 2413POPC   C1A33879   0.544  13.638   8.645
 2413POPC   D2A33880   0.710  13.661   8.253
 2413POPC   C3A33881   0.552  13.382   7.991
 2413POPC   C4A33882   0.412  13.496   7.625
 2413POPC   C1B33883   0.036  13.649   8.666
 2413POPC   C2B33884   0.169  13.660   8.227
 2413POPC   C3B33885   0.058  13.792   7.817
 2413POPC   C4B33886  44.981  13.582   7.372
 2414POPC   NC333887  44.182  34.584   9.514
 2414POPC   PO433888  43.620  34.220   9.756
 2414POPC   GL133889  43.657  34.433   9.328
 2414POPC   GL233890  43.950  34.381   9.117
 2414POPC   C1A33891  43.675  34.774   8.970
 2414POPC   D2A33892  43.797  34.707   8.532
 2414POPC   C3A33893  43.522  34.755   8.200
 2414POPC   C4A33894  43.672  34.997   7.869
 2414POPC   C1B33895  43.639  34.290   8.809
 2414POPC   C2B33896  43.690  34.223   8.380
 2414POPC   C3B33897  43.571  34.290   8.000
 2414POPC   C4B33898  43.782  34.511   7.734
 2415POPC   NC333899  42.106  41.765   9.427
 2415POPC   PO433900  42.359  41.116   9.509
 2415POPC   GL133901  42.442  41.422   9.152
 2415POPC   GL233902  42.157  41.516   8.992
 2415POPC   C1A33903  42.518  41.430   8.676
 2415POPC   D2A33904  42.621  41.579   8.291
 2415POPC   C3A33905  42.452  41.485   7.915
 2415POPC   C4A33906  42.483  41.859   7.666
 2415POPC   C1B33907  42.202  41.845   8.727
 2415POPC   C2B33908  42.112  41.797   8.302
 2415POPC   C3B33909  42.006  41.855   7.891
 2415POPC   C4B33910  42.036  41.526   7.611
 2416POPC   NC333911  16.521  38.235   9.397
 2416POPC   PO433912  17.082  38.684   9.533
 2416POPC   GL133913  16.747  38.761   9.179
 2416POPC   GL233914  16.377  38.654   9.119
 2416POPC   C1A33915  16.708  38.694   8.727
 2416POPC   D2A33916  16.828  38.305   8.488
 2416POPC   C3A33917  16.794  38.360   8.051
 2416POPC   C4A33918  16.707  38.702   7.770
 2416POPC   C1B33919  16.407  38.292   8.770
 2416POPC   C2B33920  16.351  38.137   8.322
 2416POPC   C3B33921  16.333  38.188   7.853
 2416POPC   C4B33922  16.326  38.111   7.401
 2417POPC   NC333923  14.355   2.795   9.687
 2417POPC   PO433924  13.916   2.573   9.291
 2417POPC   GL133925  14.247   2.856   9.176
 2417POPC   GL233926  14.610   2.794   9.243
 2417POPC   C1A33927  14.349   2.845   8.760
 2417POPC   D2A33928  14.200   2.586   8.425
 2417POPC   C3A33929  14.360   2.746   8.054
 2417POPC   C4A33930  14.223   2.856   7.636
 2417POPC   C1B33931  14.742   2.552   8.907
 2417POPC   C2B33932  14.721   2.643   8.470
 2417POPC   C3B33933  14.868   2.610   8.062
 2417POPC   C4B33934  14.736   2.815   7.708
 2418POPC   NC333935  43.093  21.237   9.623
 2418POPC   PO433936  43.263  21.789   9.535
 2418POPC   GL133937  43.074  21.488   9.181
 2418POPC   GL233938  42.858  21.169   9.161
 2418POPC   C1A33939  43.072  21.466   8.724
 2418POPC   D2A33940  43.085  21.245   8.291
 2418POPC   C3A33941  43.115  21.541   7.928
 2418POPC   C4A33942  43.316  21.563   7.522
 2418POPC   C1B33943  42.600  21.292   8.785
 2418POPC   C2B33944  42.556  21.159   8.345
 2418POPC   C3B33945  42.693  21.275   7.908
 2418POPC   C4B33946  42.828  21.387   7.472
 2419POPC   NC333947  29.791  27.800   9.538
 2419POPC   PO433948  30.153  27.211   9.571
 2419POPC   GL133949  29.932  27.367   9.169
 2419POPC   GL233950  30.013  27.724   9.079
 2419POPC   C1A33951  29.583  27.560   8.861
 2419POPC   D2A33952  29.449  27.795   8.460
 2419POPC   C3A33953  29.685  27.690   8.060
 2419POPC   C4A33954  29.730  27.665   7.611
 2419POPC   C1B33955  30.233  27.926   8.720
 2419POPC   C2B33956  30.134  27.904   8.251
 2419POPC   C3B33957  30.196  27.744   7.800
 2419POPC   C4B33958  30.556  27.758   7.506
 2420POPC   NC333959  26.790  43.851   9.889
 2420POPC   PO433960  26.614  43.959   9.278
 2420POPC   GL133961  26.845  44.072   8.994
 2420POPC   GL233962  27.125  43.981   9.190
 2420POPC   C1A33963  26.702  44.005   8.619
 2420POPC   D2A33964  26.652  43.759   8.304
 2420POPC   C3A33965  26.621  43.921   7.944
 2420POPC   C4A33966  26.516  43.695   7.578
 2420POPC   C1B33967  27.147  43.715   8.812
 2420POPC   C2B33968  27.153  43.876   8.403
 2420POPC   C3B33969  27.217  43.753   8.006
 2420POPC   C4B33970  27.014  43.815   7.627
 2421POPC   NC333971  30.171   1.404   9.440
 2421POPC   PO433972  29.575   1.583   9.332
 2421POPC   GL133973  29.697   1.363   8.994
 2421POPC   GL233974  29.931   1.116   9.106
 2421POPC   C1A33975  29.876   1.541   8.638
 2421POPC   D2A33976  30.014   1.380   8.287
 2421POPC   C3A33977  29.907   1.573   7.932
 2421POPC   C4A33978  29.865   1.307   7.611
 2421POPC   C1B33979  30.061   0.999   8.707
 2421POPC   C2B33980  30.270   0.957   8.330
 2421POPC   C3B33981  30.054   0.884   7.951
 2421POPC   C4B33982  30.271   0.856   7.581
 2422POPC   NC333983   6.998  27.854   9.484
 2422POPC   PO433984   7.404  27.356   9.540
 2422POPC   GL133985   7.600  27.551   9.202
 2422POPC   GL233986   7.675  27.247   9.073
 2422POPC   C1A33987   7.483  27.625   8.759
 2422POPC   D2A33988   7.550  27.461   8.324
 2422POPC   C3A33989   7.364  27.619   7.900
 2422POPC   C4A33990   7.191  27.713   7.462
 2422POPC   C1B33991   7.697  27.080   8.681
 2422POPC   C2B33992   7.909  27.098   8.314
 2422POPC   C3B33993   7.790  27.166   7.901
 2422POPC   C4B33994   7.445  27.210   7.597
 2423POPC   NC333995   1.399  40.290   9.496
 2423POPC   PO433996   0.848  39.829   9.729
 2423POPC   GL133997   1.072  39.915   9.290
 2423POPC   GL233998   0.989  40.238   9.152
 2423POPC   C1A33999   1.259  39.885   8.803
 2423POPC   D2A34000   1.195  39.822   8.307
 2423POPC   C3A34001   1.401  39.770   7.895
 2423POPC   C4A34002   1.270  39.496   7.555
 2423POPC   C1B34003   1.253  40.457   8.852
 2423POPC   C2B34004   1.102  40.644   8.488
 2423POPC   C3B34005   1.056  40.386   8.127
 2423POPC   C4B34006   1.160  40.185   7.758
 2424POPC   NC334007  22.713  34.060   9.457
 2424POPC   PO434008  22.705  33.478   9.796
 2424POPC   GL134009  22.727  33.602   9.285
 2424POPC   GL234010  22.874  33.832   9.036
 2424POPC   C1A34011  22.600  33.451   8.846
 2424POPC   D2A34012  22.496  33.498   8.410
 2424POPC   C3A34013  22.857  33.626   8.163
 2424POPC   C4A34014  22.932  33.717   7.720
 2424POPC   C1B34015  22.989  33.889   8.619
 2424POPC   C2B34016  22.893  34.142   8.261
 2424POPC   C3B34017  23.047  34.191   7.845
 2424POPC   C4B34018  23.114  34.084   7.375
 2425POPC   NC334019   9.469  18.233   9.749
 2425POPC   PO434020  10.043  18.537   9.499
 2425POPC   GL134021   9.811  18.248   9.267
 2425POPC   GL234022   9.507  18.397   9.224
 2425POPC   C1A34023   9.813  18.047   8.863
 2425POPC   D2A34024   9.568  18.068   8.462
 2425POPC   C3A34025   9.799  18.182   8.062
 2425POPC   C4A34026   9.929  18.026   7.653
 2425POPC   C1B34027   9.393  18.565   8.804
 2425POPC   C2B34028   9.233  18.482   8.362
 2425POPC   C3B34029   9.347  18.401   7.914
 2425POPC   C4B34030   9.494  18.286   7.486
 2426POPC   NC334031  19.334   8.081   9.473
 2426POPC   PO434032  18.683   8.247   9.409
 2426POPC   GL134033  18.718   8.168   9.016
 2426POPC   GL234034  19.074   8.245   9.067
 2426POPC   C1A34035  18.961   7.962   8.682
 2426POPC   D2A34036  19.136   7.819   8.310
 2426POPC   C3A34037  18.909   7.975   7.945
 2426POPC   C4A34038  18.865   8.472   7.851
 2426POPC   C1B34039  18.938   8.486   8.703
 2426POPC   C2B34040  19.004   8.328   8.311
 2426POPC   C3B34041  19.335   8.221   8.011
 2426POPC   C4B34042  19.418   8.588   7.826
 2427POPC   NC334043  33.638  33.989   9.643
 2427POPC   PO434044  33.982  33.451   9.577
 2427POPC   GL134045  33.733  33.546   9.223
 2427POPC   GL234046  33.826  33.896   9.157
 2427POPC   C1A34047  33.651  33.600   8.764
 2427POPC   D2A34048  33.606  33.786   8.345
 2427POPC   C3A34049  33.721  33.553   7.952
 2427POPC   C4A34050  33.654  33.766   7.527
 2427POPC   C1B34051  34.097  33.945   8.784
 2427POPC   C2B34052  34.128  34.080   8.345
 2427POPC   C3B34053  33.904  34.015   7.970
 2427POPC   C4B34054  33.894  34.224   7.597
 2428POPC   NC334055  37.416  12.121   9.669
 2428POPC   PO434056  37.603  11.529   9.563
 2428POPC   GL134057  37.803  11.657   9.181
 2428POPC   GL234058  37.702  11.999   9.149
 2428POPC   C1A34059  37.868  11.692   8.753
 2428POPC   D2A34060  38.018  11.830   8.365
 2428POPC   C3A34061  37.677  11.847   8.057
 2428POPC   C4A34062  37.412  12.079   7.745
 2428POPC   C1B34063  37.877  12.209   8.761
 2428POPC   C2B34064  37.822  12.300   8.313
 2428POPC   C3B34065  37.874  12.311   7.855
 2428POPC   C4B34066  38.102  12.333   7.435
 2429POPC   NC334067   8.097  12.353   9.476
 2429POPC   PO434068   8.198  11.753   9.698
 2429POPC   GL134069   8.252  11.962   9.190
 2429POPC   GL234070   8.380  12.276   9.078
 2429POPC   C1A34071   8.274  11.867   8.734
 2429POPC   D2A34072   8.071  11.588   8.408
 2429POPC   C3A34073   8.073  11.787   7.978
 2429POPC   C4A34074   8.403  11.779   7.627
 2429POPC   C1B34075   8.088  12.350   8.771
 2429POPC   C2B34076   8.071  12.159   8.356
 2429POPC   C3B34077   8.243  12.298   7.967
 2429POPC   C4B34078   8.168  12.472   7.580
 2430POPC   NC334079  38.891  17.572   9.518
 2430POPC   PO434080  39.533  17.777   9.313
 2430POPC   GL134081  39.191  17.583   9.083
 2430POPC   GL234082  38.899  17.346   9.073
 2430POPC   C1A34083  39.255  17.463   8.669
 2430POPC   D2A34084  39.072  17.564   8.289
 2430POPC   C3A34085  39.307  17.655   7.924
 2430POPC   C4A34086  39.603  17.733   7.619
 2430POPC   C1B34087  38.960  17.056   8.744
 2430POPC   C2B34088  39.230  17.024   8.375
 2430POPC   C3B34089  39.164  17.167   7.969
 2430POPC   C4B34090  38.790  17.342   7.830
 2431POPC   NC334091  19.118  29.556   9.463
 2431POPC   PO434092  19.217  28.917   9.470
 2431POPC   GL134093  19.202  29.113   9.087
 2431POPC   GL234094  18.899  28.988   9.018
 2431POPC   C1A34095  19.272  28.989   8.643
 2431POPC   D2A34096  19.075  28.957   8.246
 2431POPC   C3A34097  18.906  29.272   7.946
 2431POPC   C4A34098  19.044  28.954   7.677
 2431POPC   C1B34099  18.868  29.302   8.680
 2431POPC   C2B34100  18.605  29.175   8.342
 2431POPC   C3B34101  18.619  28.834   8.010
 2431POPC   C4B34102  18.508  29.034   7.651
 2432POPC   NC334103  42.214  17.988   9.471
 2432POPC   PO434104  42.469  18.660   9.555
 2432POPC   GL134105  42.485  18.355   9.217
 2432POPC   GL234106  42.707  18.060   9.237
 2432POPC   C1A34107  42.352  18.267   8.795
 2432POPC   D2A34108  42.351  18.544   8.419
 2432POPC   C3A34109  42.365  18.305   8.034
 2432POPC   C4A34110  42.296  17.995   7.689
 2432POPC   C1B34111  42.818  18.015   8.802
 2432POPC   C2B34112  42.662  18.110   8.391
 2432POPC   C3B34113  42.777  17.929   7.973
 2432POPC   C4B34114  42.824  17.870   7.483
 2433POPC   NC334115  18.901  28.580   9.490
 2433POPC   PO434116  19.230  27.978   9.509
 2433POPC   GL134117  19.235  28.129   9.109
 2433POPC   GL234118  18.895  28.234   9.127
 2433POPC   C1A34119  19.394  28.155   8.681
 2433POPC   D2A34120  19.594  28.353   8.307
 2433POPC   C3A34121  19.313  28.510   7.996
 2433POPC   C4A34122  19.397  28.091   7.797
 2433POPC   C1B34123  19.049  28.521   8.816
 2433POPC   C2B34124  19.013  28.377   8.395
 2433POPC   C3B34125  18.937  28.178   8.006
 2433POPC   C4B34126  18.874  28.470   7.675
 2434POPC   NC334127   9.230   6.353   9.493
 2434POPC   PO434128   8.884   5.704   9.478
 2434POPC   GL134129   8.805   5.814   9.075
 2434POPC   GL234130   8.947   6.143   9.113
 2434POPC   C1A34131   9.007   5.851   8.681
 2434POPC   D2A34132   9.286   5.810   8.376
 2434POPC   C3A34133   8.973   5.718   8.115
 2434POPC   C4A34134   8.913   5.867   7.754
 2434POPC   C1B34135   8.898   6.349   8.741
 2434POPC   C2B34136   8.830   6.181   8.331
 2434POPC   C3B34137   9.145   6.229   8.026
 2434POPC   C4B34138   9.040   6.376   7.629
 2435POPC   NC334139  44.324   3.483   9.719
 2435POPC   PO434140  44.909   3.769   9.773
 2435POPC   GL134141  44.648   3.656   9.324
 2435POPC   GL234142  44.539   3.317   9.261
 2435POPC   C1A34143  44.622   3.733   8.827
 2435POPC   D2A34144  44.718   3.978   8.410
 2435POPC   C3A34145  44.595   3.755   8.041
 2435POPC   C4A34146  44.759   3.460   7.758
 2435POPC   C1B34147  44.523   3.216   8.812
 2435POPC   C2B34148  44.530   3.343   8.365
 2435POPC   C3B34149  44.409   3.154   7.938
 2435POPC   C4B34150  44.348   3.229   7.465
 2436POPC   NC334151  16.131  23.388   9.489
 2436POPC   PO434152  15.790  22.802   9.488
 2436POPC   GL134153  15.774  22.941   9.131
 2436POPC   GL234154  16.129  22.998   9.144
 2436POPC   C1A34155  15.844  22.814   8.737
 2436POPC   D2A34156  15.971  22.960   8.356
 2436POPC   C3A34157  15.954  22.751   7.976
 2436POPC   C4A34158  15.675  22.743   7.612
 2436POPC   C1B34159  16.307  23.027   8.769
 2436POPC   C2B34160  16.285  23.339   8.468
 2436POPC   C3B34161  16.327  23.153   8.059
 2436POPC   C4B34162  16.145  23.173   7.692
 2437POPC   NC334163   4.830  17.710   9.461
 2437POPC   PO434164   5.288  17.248   9.589
 2437POPC   GL134165   5.180  17.445   9.174
 2437POPC   GL234166   5.239  17.834   9.152
 2437POPC   C1A34167   4.908  17.565   8.783
 2437POPC   D2A34168   4.811  17.426   8.352
 2437POPC   C3A34169   5.056  17.495   7.962
 2437POPC   C4A34170   4.840  17.305   7.628
 2437POPC   C1B34171   5.406  17.641   8.774
 2437POPC   C2B34172   5.308  17.694   8.382
 2437POPC   C3B34173   5.533  17.737   8.056
 2437POPC   C4B34174   5.482  17.883   7.694
 2438POPC   NC334175  17.797  23.750   9.455
 2438POPC   PO434176  17.260  23.327   9.438
 2438POPC   GL134177  17.434  23.567   9.118
 2438POPC   GL234178  17.728  23.421   9.000
 2438POPC   C1A34179  17.565  23.933   8.854
 2438POPC   D2A34180  17.527  24.026   8.420
 2438POPC   C3A34181  17.426  23.719   8.100
 2438POPC   C4A34182  17.538  23.838   7.683
 2438POPC   C1B34183  17.599  23.516   8.572
 2438POPC   C2B34184  17.770  23.326   8.210
 2438POPC   C3B34185  17.908  23.534   7.859
 2438POPC   C4B34186  17.847  23.541   7.400
 2439POPC   NC334187  12.253  11.644   9.289
 2439POPC   PO434188  12.245  12.285   9.526
 2439POPC   GL134189  12.291  12.159   9.157
 2439POPC   GL234190  12.564  12.339   9.088
 2439POPC   C1A34191  12.010  12.065   8.832
 2439POPC   D2A34192  12.097  11.904   8.447
 2439POPC   C3A34193  11.996  12.169   8.121
 2439POPC   C4A34194  11.810  12.028   7.761
 2439POPC   C1B34195  12.613  12.174   8.722
 2439POPC   C2B34196  12.557  12.099   8.319
 2439POPC   C3B34197  12.435  11.963   7.944
 2439POPC   C4B34198  12.277  12.324   7.696
 2440POPC   NC334199   0.267  35.808   9.729
 2440POPC   PO434200   0.609  36.424   9.488
 2440POPC   GL134201   0.354  36.275   9.204
 2440POPC   GL234202   0.195  36.540   9.030
 2440POPC   C1A34203   0.266  36.112   8.794
 2440POPC   D2A34204   0.408  35.975   8.400
 2440POPC   C3A34205   0.177  36.047   8.040
 2440POPC   C4A34206   0.041  36.324   7.721
 2440POPC   C1B34207   0.562  36.567   8.814
 2440POPC   C2B34208   0.567  36.459   8.416
 2440POPC   C3B34209   0.408  36.524   8.045
 2440POPC   C4B34210   0.632  36.510   7.709
 2441POPC   NC334211  26.590   4.599   9.366
 2441POPC   PO434212  27.193   4.836   9.605
 2441POPC   GL134213  26.990   5.017   9.249
 2441POPC   GL234214  26.985   4.696   9.088
 2441POPC   C1A34215  26.950   5.316   8.880
 2441POPC   D2A34216  27.085   5.302   8.459
 2441POPC   C3A34217  26.822   5.409   8.108
 2441POPC   C4A34218  26.706   5.226   7.701
 2441POPC   C1B34219  27.179   4.857   8.755
 2441POPC   C2B34220  27.142   4.816   8.323
 2441POPC   C3B34221  27.156   5.013   7.926
 2441POPC   C4B34222  27.210   4.700   7.645
 2442POPC   NC334223  19.242  11.056   9.855
 2442POPC   PO434224  19.458  11.540   9.460
 2442POPC   GL134225  19.336  11.411   9.058
 2442POPC   GL234226  19.614  11.569   8.914
 2442POPC   C1A34227  19.190  11.186   8.672
 2442POPC   D2A34228  18.832  11.088   8.391
 2442POPC   C3A34229  18.904  11.165   7.941
 2442POPC   C4A34230  18.980  11.493   7.596
 2442POPC   C1B34231  19.272  11.705   8.644
 2442POPC   C2B34232  19.094  11.532   8.274
 2442POPC   C3B34233  19.368  11.423   7.936
 2442POPC   C4B34234  19.520  11.500   7.533
 2443POPC   NC334235  38.427   7.594   9.478
 2443POPC   PO434236  38.707   6.982   9.433
 2443POPC   GL134237  38.419   7.157   9.093
 2443POPC   GL234238  38.207   7.497   9.050
 2443POPC   C1A34239  38.248   7.121   8.695
 2443POPC   D2A34240  38.287   7.348   8.322
 2443POPC   C3A34241  38.263   7.181   7.916
 2443POPC   C4A34242  38.627   7.393   7.754
 2443POPC   C1B34243  38.359   7.666   8.716
 2443POPC   C2B34244  38.342   7.880   8.356
 2443POPC   C3B34245  38.356   7.834   7.934
 2443POPC   C4B34246  38.047   7.633   7.777
 2444POPC   NC334247  35.246  39.820   9.830
 2444POPC   PO434248  35.049  39.887   9.242
 2444POPC   GL134249  35.451  40.092   9.133
 2444POPC   GL234250  35.785  40.272   9.197
 2444POPC   C1A34251  35.391  40.326   8.773
 2444POPC   D2A34252  35.168  40.211   8.417
 2444POPC   C3A34253  35.365  40.398   8.077
 2444POPC   C4A34254  35.269  40.169   7.748
 2444POPC   C1B34255  35.872  40.196   8.814
 2444POPC   C2B34256  35.780  40.428   8.431
 2444POPC   C3B34257  35.961  40.422   8.020
 2444POPC   C4B34258  35.732  40.346   7.631
 2445POPC   NC334259  37.972   6.136   9.391
 2445POPC   PO434260  37.441   5.767   9.569
 2445POPC   GL134261  37.675   5.663   9.192
 2445POPC   GL234262  37.399   5.458   9.093
 2445POPC   C1A34263  37.892   5.838   8.787
 2445POPC   D2A34264  37.762   5.983   8.323
 2445POPC   C3A34265  37.891   5.766   7.880
 2445POPC   C4A34266  38.011   5.664   7.420
 2445POPC   C1B34267  37.412   5.647   8.721
 2445POPC   C2B34268  37.288   5.778   8.345
 2445POPC   C3B34269  37.403   5.654   7.973
 2445POPC   C4B34270  37.333   5.710   7.560
 2446POPC   NC334271   7.523   0.578   9.443
 2446POPC   PO434272   6.953   0.826   9.342
 2446POPC   GL134273   7.167   0.396   9.111
 2446POPC   GL234274   7.443   0.548   8.931
 2446POPC   C1A34275   7.325   0.092   8.704
 2446POPC   D2A34276   7.508   0.106   8.206
 2446POPC   C3A34277   7.250   0.243   7.838
 2446POPC   C4A34278   7.130   0.611   7.560
 2446POPC   C1B34279   7.688   0.419   8.571
 2446POPC   C2B34280   7.998   0.202   8.337
 2446POPC   C3B34281   7.996   0.307   7.888
 2446POPC   C4B34282   7.678   0.506   7.578
 2447POPC   NC334283  26.886   9.156   9.493
 2447POPC   PO434284  26.414   8.708   9.525
 2447POPC   GL134285  26.640   8.853   9.152
 2447POPC   GL234286  26.746   9.198   9.034
 2447POPC   C1A34287  26.831   8.776   8.739
 2447POPC   D2A34288  27.024   8.835   8.337
 2447POPC   C3A34289  26.814   8.911   7.955
 2447POPC   C4A34290  26.865   8.817   7.523
 2447POPC   C1B34291  27.036   9.257   8.740
 2447POPC   C2B34292  27.292   9.238   8.404
 2447POPC   C3B34293  27.301   9.370   8.028
 2447POPC   C4B34294  27.179   9.193   7.671
 2448POPC   NC334295  26.395   5.243   9.488
 2448POPC   PO434296  26.218   5.823   9.502
 2448POPC   GL134297  26.393   5.833   9.088
 2448POPC   GL234298  26.474   5.490   9.022
 2448POPC   C1A34299  26.345   5.980   8.647
 2448POPC   D2A34300  25.984   5.844   8.380
 2448POPC   C3A34301  25.908   6.014   7.966
 2448POPC   C4A34302  26.020   6.232   7.583
 2448POPC   C1B34303  26.539   5.504   8.558
 2448POPC   C2B34304  26.442   5.761   8.172
 2448POPC   C3B34305  26.254   5.704   7.759
 2448POPC   C4B34306  26.287   5.504   7.348
 2449POPC   NC334307  10.468  44.987   9.594
 2449POPC   PO434308  10.546  44.306   9.531
 2449POPC   GL134309  10.470  44.612   9.200
 2449POPC   GL234310  10.228  44.507   8.918
 2449POPC   C1A34311  10.586  44.876   8.859
 2449POPC   D2A34312  10.247  44.921   8.547
 2449POPC   C3A34313  10.254  44.644   8.192
 2449POPC   C4A34314  10.466  44.759   7.806
 2449POPC   C1B34315  10.531  44.455   8.592
 2449POPC   C2B34316  10.736  44.728   8.299
 2449POPC   C3B34317  10.949  44.739   7.932
 2449POPC   C4B34318  10.818  44.530   7.514
 2450POPC   NC334319  18.869  37.356   9.706
 2450POPC   PO434320  19.211  37.842   9.471
 2450POPC   GL134321  19.013  37.527   9.188
 2450POPC   GL234322  18.694  37.335   9.242
 2450POPC   C1A34323  19.114  37.531   8.756
 2450POPC   D2A34324  18.947  37.808   8.416
 2450POPC   C3A34325  18.985  37.651   8.004
 2450POPC   C4A34326  19.089  37.715   7.534
 2450POPC   C1B34327  18.713  37.191   8.832
 2450POPC   C2B34328  18.719  37.365   8.446
 2450POPC   C3B34329  18.553  37.388   8.063
 2450POPC   C4B34330  18.704  37.413   7.642
 2451POPC   NC334331  32.706  25.419   9.199
 2451POPC   PO434332  33.188  24.966   9.523
 2451POPC   GL134333  32.951  24.972   9.223
 2451POPC   GL234334  32.616  24.899   9.314
 2451POPC   C1A34335  33.096  25.043   8.829
 2451POPC   D2A34336  32.913  25.412   8.625
 2451POPC   C3A34337  32.883  25.420   8.163
 2451POPC   C4A34338  32.979  25.391   7.705
 2451POPC   C1B34339  32.630  24.854   8.855
 2451POPC   C2B34340  32.887  24.846   8.427
 2451POPC   C3B34341  33.039  24.939   8.006
 2451POPC   C4B34342  32.780  24.908   7.640
 2452POPC   NC334343  23.825  38.222   9.541
 2452POPC   PO434344  23.511  38.776   9.423
 2452POPC   GL134345  23.715  38.520   9.126
 2452POPC   GL234346  23.576  38.201   9.077
 2452POPC   C1A34347  23.792  38.505   8.702
 2452POPC   D2A34348  23.738  38.746   8.331
 2452POPC   C3A34349  23.911  38.558   7.979
 2452POPC   C4A34350  23.781  38.570   7.567
 2452POPC   C1B34351  23.409  38.162   8.643
 2452POPC   C2B34352  23.623  38.187   8.219
 2452POPC   C3B34353  23.579  38.119   7.750
 2452POPC   C4B34354  23.568  38.224   7.274
 2453POPC   NC334355   9.761  44.976   9.835
 2453POPC   PO434356   9.485   0.478   9.503
 2453POPC   GL134357   9.831   0.393   9.237
 2453POPC   GL234358   9.621   0.325   8.991
 2453POPC   C1A34359   9.972   0.631   8.870
 2453POPC   D2A34360   9.817   0.750   8.459
 2453POPC   C3A34361  10.094   0.754   8.098
 2453POPC   C4A34362   9.960   0.497   7.739
 2453POPC   C1B34363   9.790   0.222   8.612
 2453POPC   C2B34364   9.839   0.242   8.192
 2453POPC   C3B34365  10.060   0.017   7.915
 2453POPC   C4B34366  10.085   0.043   7.462
 2454POPC   NC334367  26.101  39.777   9.420
 2454POPC   PO434368  26.201  40.425   9.581
 2454POPC   GL134369  25.932  40.213   9.232
 2454POPC   GL234370  26.200  40.205   9.110
 2454POPC   C1A34371  25.860  40.000   8.803
 2454POPC   D2A34372  25.846  39.835   8.388
 2454POPC   C3A34373  25.786  40.035   7.999
 2454POPC   C4A34374  25.909  39.864   7.606
 2454POPC   C1B34375  26.383  40.014   8.795
 2454POPC   C2B34376  26.381  39.832   8.436
 2454POPC   C3B34377  26.289  39.982   8.079
 2454POPC   C4B34378  26.406  39.850   7.735
 2455POPC   NC334379  34.200  37.871   9.448
 2455POPC   PO434380  33.500  37.782   9.565
 2455POPC   GL134381  33.742  37.699   9.166
 2455POPC   GL234382  34.010  37.856   8.987
 2455POPC   C1A34383  33.562  37.779   8.744
 2455POPC   D2A34384  33.416  38.055   8.414
 2455POPC   C3A34385  33.672  38.075   8.056
 2455POPC   C4A34386  33.639  37.962   7.623
 2455POPC   C1B34387  34.027  37.514   8.721
 2455POPC   C2B34388  33.764  37.483   8.376
 2455POPC   C3B34389  33.774  37.594   7.978
 2455POPC   C4B34390  34.086  37.847   7.806
 2456POPC   NC334391  24.424  17.762   9.479
 2456POPC   PO434392  24.779  18.439   9.526
 2456POPC   GL134393  24.492  18.241   9.272
 2456POPC   GL234394  24.739  18.015   9.151
 2456POPC   C1A34395  24.292  18.296   8.870
 2456POPC   D2A34396  24.155  18.187   8.460
 2456POPC   C3A34397  24.400  18.179   8.120
 2456POPC   C4A34398  24.327  18.384   7.739
 2456POPC   C1B34399  24.807  18.361   8.880
 2456POPC   C2B34400  24.662  18.440   8.497
 2456POPC   C3B34401  24.802  18.491   8.102
 2456POPC   C4B34402  24.840  18.439   7.689
 2457POPC   NC334403  30.868  43.254   9.524
 2457POPC   PO434404  30.287  42.960   9.422
 2457POPC   GL134405  30.477  43.195   9.137
 2457POPC   GL234406  30.793  43.010   9.088
 2457POPC   C1A34407  30.620  43.280   8.703
 2457POPC   D2A34408  30.921  43.147   8.424
 2457POPC   C3A34409  30.707  42.946   8.106
 2457POPC   C4A34410  30.668  43.263   7.796
 2457POPC   C1B34411  30.732  42.762   8.695
 2457POPC   C2B34412  31.005  42.584   8.363
 2457POPC   C3B34413  30.989  42.509   7.947
 2457POPC   C4B34414  30.939  42.837   7.658
 2458POPC   NC334415  27.801  24.924   9.972
 2458POPC   PO434416  27.717  25.486   9.632
 2458POPC   GL134417  27.493  25.337   9.243
 2458POPC   GL234418  27.539  24.977   9.178
 2458POPC   C1A34419  27.430  25.528   8.822
 2458POPC   D2A34420  27.651  25.666   8.447
 2458POPC   C3A34421  27.485  25.532   8.049
 2458POPC   C4A34422  27.754  25.610   7.715
 2458POPC   C1B34423  27.359  25.018   8.793
 2458POPC   C2B34424  27.493  25.179   8.417
 2458POPC   C3B34425  27.603  25.033   8.024
 2458POPC   C4B34426  27.437  25.192   7.664
 2459POPC   NC334427  27.390  18.928   9.271
 2459POPC   PO434428  27.853  19.384   9.457
 2459POPC   GL134429  27.765  19.221   9.093
 2459POPC   GL234430  27.408  19.386   9.057
 2459POPC   C1A34431  27.852  18.956   8.738
 2459POPC   D2A34432  28.025  18.864   8.331
 2459POPC   C3A34433  27.841  19.071   7.992
 2459POPC   C4A34434  27.841  18.941   7.567
 2459POPC   C1B34435  27.541  19.381   8.674
 2459POPC   C2B34436  27.505  19.100   8.389
 2459POPC   C3B34437  27.335  19.072   8.029
 2459POPC   C4B34438  27.488  19.313   7.695
 2460POPC   NC334439  34.129   7.083   9.905
 2460POPC   PO434440  33.684   6.854   9.476
 2460POPC   GL134441  33.882   6.730   9.102
 2460POPC   GL234442  34.020   6.990   8.912
 2460POPC   C1A34443  33.825   6.568   8.700
 2460POPC   D2A34444  33.871   6.783   8.331
 2460POPC   C3A34445  33.914   6.525   7.985
 2460POPC   C4A34446  33.634   6.359   7.656
 2460POPC   C1B34447  34.217   7.089   8.568
 2460POPC   C2B34448  34.043   7.275   8.218
 2460POPC   C3B34449  33.850   7.070   7.887
 2460POPC   C4B34450  33.918   6.792   7.564
 2461POPC   NC334451  18.316  41.861   9.521
 2461POPC   PO434452  18.297  41.225   9.296
 2461POPC   GL134453  18.331  41.594   9.061
 2461POPC   GL234454  18.633  41.825   9.099
 2461POPC   C1A34455  18.182  41.540   8.631
 2461POPC   D2A34456  18.285  41.354   8.228
 2461POPC   C3A34457  18.145  41.545   7.862
 2461POPC   C4A34458  18.154  41.937   7.643
 2461POPC   C1B34459  18.537  41.948   8.695
 2461POPC   C2B34460  18.389  41.874   8.258
 2461POPC   C3B34461  18.606  41.816   7.864
 2461POPC   C4B34462  18.635  41.928   7.407
 2462POPC   NC334463  24.827  11.839   9.474
 2462POPC   PO434464  25.018  11.172   9.435
 2462POPC   GL134465  25.082  11.266   9.062
 2462POPC   GL234466  25.322  11.505   9.069
 2462POPC   C1A34467  25.258  11.147   8.681
 2462POPC   D2A34468  25.535  11.047   8.398
 2462POPC   C3A34469  25.301  11.061   8.039
 2462POPC   C4A34470  25.035  11.155   7.679
 2462POPC   C1B34471  25.226  11.658   8.687
 2462POPC   C2B34472  25.317  11.514   8.315
 2462POPC   C3B34473  25.177  11.552   7.920
 2462POPC   C4B34474  25.079  11.605   7.465
 2463POPC   NC334475  15.182  25.663   9.431
 2463POPC   PO434476  15.027  25.032   9.587
 2463POPC   GL134477  15.194  25.211   9.181
 2463POPC   GL234478  14.918  25.460   9.030
 2463POPC   C1A34479  15.340  25.395   8.769
 2463POPC   D2A34480  15.067  25.409   8.391
 2463POPC   C3A34481  15.313  25.398   8.047
 2463POPC   C4A34482  15.380  25.185   7.708
 2463POPC   C1B34483  14.956  25.073   8.752
 2463POPC   C2B34484  14.867  24.958   8.322
 2463POPC   C3B34485  14.921  25.053   7.895
 2463POPC   C4B34486  15.063  24.715   7.642
 2464POPC   NC334487  13.712  40.139   9.778
 2464POPC   PO434488  13.722  39.538   9.486
 2464POPC   GL134489  13.717  39.687   9.074
 2464POPC   GL234490  13.664  40.042   9.158
 2464POPC   C1A34491  13.497  39.829   8.714
 2464POPC   D2A34492  13.521  40.059   8.339
 2464POPC   C3A34493  13.525  39.762   7.974
 2464POPC   C4A34494  13.465  39.930   7.566
 2464POPC   C1B34495  13.712  40.313   8.778
 2464POPC   C2B34496  13.912  40.374   8.368
 2464POPC   C3B34497  13.639  40.403   7.983
 2464POPC   C4B34498  13.872  40.384   7.628
 2465POPC   NC334499  28.178   3.780   9.418
 2465POPC   PO434500  28.236   4.466   9.547
 2465POPC   GL134501  28.437   4.491   9.154
 2465POPC   GL234502  28.471   4.130   9.060
 2465POPC   C1A34503  28.371   4.517   8.734
 2465POPC   D2A34504  28.319   4.284   8.378
 2465POPC   C3A34505  28.413   4.460   8.034
 2465POPC   C4A34506  28.244   4.486   7.678
 2465POPC   C1B34507  28.710   4.134   8.660
 2465POPC   C2B34508  28.812   4.172   8.194
 2465POPC   C3B34509  28.610   4.076   7.770
 2465POPC   C4B34510  28.799   3.996   7.319
 2466POPC   NC334511  38.273   2.514   9.634
 2466POPC   PO434512  38.641   3.061   9.756
 2466POPC   GL134513  38.558   2.893   9.277
 2466POPC   GL234514  38.495   2.550   9.159
 2466POPC   C1A34515  38.436   2.849   8.782
 2466POPC   D2A34516  38.404   2.541   8.444
 2466POPC   C3A34517  38.362   2.743   8.000
 2466POPC   C4A34518  38.756   2.923   7.776
 2466POPC   C1B34519  38.757   2.371   8.843
 2466POPC   C2B34520  38.858   2.167   8.449
 2466POPC   C3B34521  38.684   2.357   8.071
 2466POPC   C4B34522  38.631   2.438   7.660
 2467POPC   NC334523   1.338  16.266   9.137
 2467POPC   PO434524   1.086  16.458   9.720
 2467POPC   GL134525   0.944  16.559   9.221
 2467POPC   GL234526   1.231  16.744   9.007
 2467POPC   C1A34527   0.843  16.616   8.746
 2467POPC   D2A34528   1.198  16.781   8.461
 2467POPC   C3A34529   1.168  16.549   8.092
 2467POPC   C4A34530   0.787  16.401   7.836
 2467POPC   C1B34531   1.559  16.952   8.820
 2467POPC   C2B34532   1.688  16.990   8.364
 2467POPC   C3B34533   1.484  16.946   7.953
 2467POPC   C4B34534   1.252  16.735   7.629
 2468POPC   NC334535  13.569   4.252   9.470
 2468POPC   PO434536  13.978   4.429   9.000
 2468POPC   GL134537  13.595   4.184   8.959
 2468POPC   GL234538  13.356   4.454   9.054
 2468POPC   C1A34539  13.545   4.070   8.536
 2468POPC   D2A34540  13.846   4.381   8.390
 2468POPC   C3A34541  14.061   4.306   8.024
 2468POPC   C4A34542  14.015   4.325   7.617
 2468POPC   C1B34543  13.103   4.219   8.790
 2468POPC   C2B34544  13.047   4.171   8.362
 2468POPC   C3B34545  13.402   4.344   8.111
 2468POPC   C4B34546  13.524   4.413   7.694
 2469POPC   NC334547  20.396  41.262   9.603
 2469POPC   PO434548  20.554  41.894   9.406
 2469POPC   GL134549  20.694  41.664   9.057
 2469POPC   GL234550  20.443  41.412   9.060
 2469POPC   C1A34551  20.654  41.549   8.619
 2469POPC   D2A34552  20.513  41.467   8.212
 2469POPC   C3A34553  20.818  41.306   7.934
 2469POPC   C4A34554  20.933  41.604   7.641
 2469POPC   C1B34555  20.352  41.154   8.673
 2469POPC   C2B34556  20.080  41.220   8.313
 2469POPC   C3B34557  20.216  41.202   7.881
 2469POPC   C4B34558  20.439  41.479   7.625
 2470POPC   NC334559  15.402   2.348   9.495
 2470POPC   PO434560  16.122   2.313   9.456
 2470POPC   GL134561  15.968   2.094   9.128
 2470POPC   GL234562  16.117   1.764   9.124
 2470POPC   C1A34563  15.862   2.124   8.724
 2470POPC   D2A34564  16.011   2.256   8.336
 2470POPC   C3A34565  15.812   2.093   7.980
 2470POPC   C4A34566  15.874   2.234   7.536
 2470POPC   C1B34567  15.907   1.631   8.747
 2470POPC   C2B34568  15.746   1.737   8.369
 2470POPC   C3B34569  15.852   1.549   7.990
 2470POPC   C4B34570  15.727   1.735   7.634
 2471POPC   NC334571  13.462   5.140   9.917
 2471POPC   PO434572  13.948   4.822   9.546
 2471POPC   GL134573  13.685   4.898   9.191
 2471POPC   GL234574  13.316   4.920   9.291
 2471POPC   C1A34575  13.591   5.298   8.962
 2471POPC   D2A34576  13.501   5.421   8.541
 2471POPC   C3A34577  13.722   5.219   8.229
 2471POPC   C4A34578  13.718   5.263   7.785
 2471POPC   C1B34579  13.309   4.898   8.824
 2471POPC   C2B34580  13.480   4.776   8.421
 2471POPC   C3B34581  13.466   4.853   7.972
 2471POPC   C4B34582  13.435   4.905   7.508
 2472POPC   NC334583  31.490  10.567  10.186
 2472POPC   PO434584  31.362  10.608   9.732
 2472POPC   GL134585  31.513  10.724   9.270
 2472POPC   GL234586  31.801  10.530   9.115
 2472POPC   C1A34587  31.501  10.783   8.789
 2472POPC   D2A34588  31.345  10.564   8.407
 2472POPC   C3A34589  31.461  10.630   7.958
 2472POPC   C4A34590  31.344  10.400   7.570
 2472POPC   C1B34591  31.680  10.298   8.710
 2472POPC   C2B34592  31.769  10.309   8.245
 2472POPC   C3B34593  31.769  10.188   7.788
 2472POPC   C4B34594  31.771  10.223   7.307
 2473POPC   NC334595  34.643  43.560   9.449
 2473POPC   PO434596  34.291  44.079   9.522
 2473POPC   GL134597  34.429  43.884   9.141
 2473POPC   GL234598  34.270  43.545   9.099
 2473POPC   C1A34599  34.652  43.690   8.801
 2473POPC   D2A34600  34.722  43.745   8.410
 2473POPC   C3A34601  34.496  44.020   8.109
 2473POPC   C4A34602  34.626  44.171   7.702
 2473POPC   C1B34603  34.337  43.270   8.746
 2473POPC   C2B34604  34.506  43.263   8.336
 2473POPC   C3B34605  34.547  43.533   7.992
 2473POPC   C4B34606  34.430  43.665   7.617
 2474POPC   NC334607  25.845  26.621   9.695
 2474POPC   PO434608  26.311  26.388   9.290
 2474POPC   GL134609  25.992  26.598   9.078
 2474POPC   GL234610  25.741  26.384   9.245
 2474POPC   C1A34611  26.092  26.861   8.690
 2474POPC   D2A34612  26.140  26.782   8.260
 2474POPC   C3A34613  26.052  27.025   7.902
 2474POPC   C4A34614  26.284  27.286   7.617
 2474POPC   C1B34615  25.564  26.421   8.829
 2474POPC   C2B34616  25.717  26.527   8.418
 2474POPC   C3B34617  25.755  26.589   7.966
 2474POPC   C4B34618  25.905  26.517   7.559
 2475POPC   NC334619  35.798   9.316   9.624
 2475POPC   PO434620  35.151   9.521   9.436
 2475POPC   GL134621  35.185   9.443   9.056
 2475POPC   GL234622  35.447   9.222   9.170
 2475POPC   C1A34623  35.207   9.738   8.701
 2475POPC   D2A34624  34.890   9.977   8.440
 2475POPC   C3A34625  34.999  10.089   8.026
 2475POPC   C4A34626  35.289   9.859   7.817
 2475POPC   C1B34627  35.572   9.265   8.776
 2475POPC   C2B34628  35.601   9.503   8.432
 2475POPC   C3B34629  35.496   9.343   8.058
 2475POPC   C4B34630  35.601   9.501   7.678
 2476POPC   NC334631  21.900  17.915   9.618
 2476POPC   PO434632  22.503  18.189   9.451
 2476POPC   GL134633  22.370  18.434   9.107
 2476POPC   GL234634  22.002  18.492   9.176
 2476POPC   C1A34635  22.391  18.600   8.662
 2476POPC   D2A34636  22.101  18.544   8.342
 2476POPC   C3A34637  22.321  18.548   7.977
 2476POPC   C4A34638  22.109  18.415   7.636
 2476POPC   C1B34639  22.023  18.266   8.785
 2476POPC   C2B34640  21.941  18.046   8.429
 2476POPC   C3B34641  21.965  18.119   8.017
 2476POPC   C4B34642  21.877  17.960   7.594
 2477POPC   NC334643  34.707  35.896   9.610
 2477POPC   PO434644  34.404  36.423   9.484
 2477POPC   GL134645  34.536  36.137   9.152
 2477POPC   GL234646  34.887  36.144   9.191
 2477POPC   C1A34647  34.715  35.855   8.798
 2477POPC   D2A34648  34.925  35.982   8.402
 2477POPC   C3A34649  34.667  35.842   8.088
 2477POPC   C4A34650  34.487  35.708   7.717
 2477POPC   C1B34651  34.849  36.334   8.781
 2477POPC   C2B34652  34.627  36.393   8.412
 2477POPC   C3B34653  34.432  36.301   8.044
 2477POPC   C4B34654  34.615  36.205   7.676
 2478POPC   NC334655  15.377  22.321   9.560
 2478POPC   PO434656  14.940  21.766   9.511
 2478POPC   GL134657  15.013  21.970   9.110
 2478POPC   GL234658  15.381  22.010   9.140
 2478POPC   C1A34659  15.181  22.135   8.688
 2478POPC   D2A34660  15.443  22.026   8.320
 2478POPC   C3A34661  15.238  21.987   7.907
 2478POPC   C4A34662  14.930  22.330   7.826
 2478POPC   C1B34663  15.515  22.423   8.930
 2478POPC   C2B34664  15.557  22.498   8.474
 2478POPC   C3B34665  15.440  22.494   8.022
 2478POPC   C4B34666  15.386  22.346   7.573
 2479POPC   NC334667  10.027  21.326   9.430
 2479POPC   PO434668  10.609  21.711   9.517
 2479POPC   GL134669  10.525  21.364   9.216
 2479POPC   GL234670  10.534  21.010   9.361
 2479POPC   C1A34671  10.339  21.382   8.780
 2479POPC   D2A34672  10.515  21.569   8.404
 2479POPC   C3A34673  10.453  21.466   7.996
 2479POPC   C4A34674  10.612  21.702   7.668
 2479POPC   C1B34675  10.514  20.920   8.931
 2479POPC   C2B34676  10.601  20.996   8.503
 2479POPC   C3B34677  10.842  21.177   8.191
 2479POPC   C4B34678  10.867  21.256   7.747
 2480POPC   NC334679  14.490  40.539   9.535
 2480POPC   PO434680  14.101  41.052   9.355
 2480POPC   GL134681  14.425  40.863   9.130
 2480POPC   GL234682  14.403  40.533   9.049
 2480POPC   C1A34683  14.509  40.887   8.691
 2480POPC   D2A34684  14.393  41.210   8.412
 2480POPC   C3A34685  14.407  41.083   8.008
 2480POPC   C4A34686  14.426  41.322   7.645
 2480POPC   C1B34687  14.315  40.387   8.673
 2480POPC   C2B34688  14.525  40.522   8.293
 2480POPC   C3B34689  14.600  40.628   7.873
 2480POPC   C4B34690  14.275  40.754   7.603
 2481POPC   NC334691  14.768   8.252   9.569
 2481POPC   PO434692  14.123   8.257   9.789
 2481POPC   GL134693  14.216   8.095   9.279
 2481POPC   GL234694  14.524   7.931   9.136
 2481POPC   C1A34695  14.169   7.979   8.778
 2481POPC   D2A34696  14.315   8.178   8.340
 2481POPC   C3A34697  14.208   8.076   7.888
 2481POPC   C4A34698  14.317   8.382   7.594
 2481POPC   C1B34699  14.628   8.225   8.748
 2481POPC   C2B34700  14.847   8.174   8.337
 2481POPC   C3B34701  14.768   8.230   7.891
 2481POPC   C4B34702  14.638   7.985   7.538
 2482POPC   NC334703  11.938   1.068   9.425
 2482POPC   PO434704  12.224   1.634   9.391
 2482POPC   GL134705  12.081   1.394   9.026
 2482POPC   GL234706  12.145   1.019   8.969
 2482POPC   C1A34707  12.164   1.541   8.620
 2482POPC   D2A34708  12.273   1.553   8.199
 2482POPC   C3A34709  12.108   1.257   7.911
 2482POPC   C4A34710  12.299   1.224   7.495
 2482POPC   C1B34711  11.707   0.817   8.858
 2482POPC   C2B34712  11.526   0.800   8.433
 2482POPC   C3B34713  11.792   0.885   8.074
 2482POPC   C4B34714  11.922   0.896   7.599
 2483POPC   NC334715   1.452   8.177   9.419
 2483POPC   PO434716   0.768   8.143   9.469
 2483POPC   GL134717   1.013   8.302   9.188
 2483POPC   GL234718   1.116   7.963   9.072
 2483POPC   C1A34719   1.197   8.404   8.811
 2483POPC   D2A34720   1.125   8.138   8.460
 2483POPC   C3A34721   1.344   8.373   8.161
 2483POPC   C4A34722   1.262   8.466   7.734
 2483POPC   C1B34723   1.499   7.948   8.797
 2483POPC   C2B34724   1.538   7.864   8.351
 2483POPC   C3B34725   1.368   7.922   7.938
 2483POPC   C4B34726   0.947   8.018   7.772
 2484POPC   NC334727  44.080  17.148   9.436
 2484POPC   PO434728  43.528  17.529   9.510
 2484POPC   GL134729  43.733  17.613   9.147
 2484POPC   GL234730  44.028  17.672   9.305
 2484POPC   C1A34731  43.759  17.390   8.737
 2484POPC   D2A34732  43.445  17.314   8.418
 2484POPC   C3A34733  43.595  17.241   8.022
 2484POPC   C4A34734  43.714  17.477   7.695
 2484POPC   C1B34735  44.235  17.522   8.922
 2484POPC   C2B34736  44.177  17.605   8.501
 2484POPC   C3B34737  44.041  17.474   8.121
 2484POPC   C4B34738  44.200  17.614   7.732
 2485POPC   NC334739  41.291  36.849   9.333
 2485POPC   PO434740  41.676  37.425   9.412
 2485POPC   GL134741  41.599  37.152   9.050
 2485POPC   GL234742  41.776  36.850   9.046
 2485POPC   C1A34743  41.434  36.858   8.692
 2485POPC   D2A34744  41.256  36.846   8.272
 2485POPC   C3A34745  41.503  37.002   7.901
 2485POPC   C4A34746  41.367  36.719   7.546
 2485POPC   C1B34747  41.931  36.647   8.711
 2485POPC   C2B34748  41.755  36.717   8.306
 2485POPC   C3B34749  41.604  36.512   7.966
 2485POPC   C4B34750  41.805  36.292   7.653
 2486POPC   NC334751  26.489   0.403   9.324
 2486POPC   PO434752  27.077   0.596   9.620
 2486POPC   GL134753  26.904   0.635   9.178
 2486POPC   GL234754  27.161   0.828   9.134
 2486POPC   C1A34755  26.913   0.360   8.758
 2486POPC   D2A34756  27.080   0.448   8.316
 2486POPC   C3A34757  26.832   0.525   7.922
 2486POPC   C4A34758  26.690   0.224   7.611
 2486POPC   C1B34759  27.030   0.844   8.707
 2486POPC   C2B34760  27.283   0.919   8.348
 2486POPC   C3B34761  27.270   0.812   7.938
 2486POPC   C4B34762  27.207   0.572   7.544
 2487POPC   NC334763  32.947  32.572   9.564
 2487POPC   PO434764  33.207  33.198   9.555
 2487POPC   GL134765  33.074  32.939   9.178
 2487POPC   GL234766  32.780  32.674   9.095
 2487POPC   C1A34767  33.144  33.088   8.755
 2487POPC   D2A34768  33.209  33.413   8.437
 2487POPC   C3A34769  33.291  33.196   8.051
 2487POPC   C4A34770  33.354  32.825   7.789
 2487POPC   C1B34771  32.643  32.919   8.750
 2487POPC   C2B34772  32.770  33.114   8.376
 2487POPC   C3B34773  32.868  32.912   7.977
 2487POPC   C4B34774  32.938  32.694   7.558
 2488POPC   NC334775   8.365  14.043   9.646
 2488POPC   PO434776   8.385  14.764   9.475
 2488POPC   GL134777   8.179  14.447   9.229
 2488POPC   GL234778   8.470  14.251   9.193
 2488POPC   C1A34779   7.978  14.378   8.822
 2488POPC   D2A34780   7.866  14.511   8.412
 2488POPC   C3A34781   7.907  14.269   8.034
 2488POPC   C4A34782   7.988  14.533   7.672
 2488POPC   C1B34783   8.480  14.430   8.790
 2488POPC   C2B34784   8.331  14.274   8.402
 2488POPC   C3B34785   8.406  14.407   7.984
 2488POPC   C4B34786   8.517  14.104   7.674
 2489POPC   NC334787  25.973  18.541   9.563
 2489POPC   PO434788  26.472  18.111   9.524
 2489POPC   GL134789  26.152  18.172   9.186
 2489POPC   GL234790  25.775  18.294   9.161
 2489POPC   C1A34791  26.087  17.993   8.766
 2489POPC   D2A34792  26.004  18.248   8.409
 2489POPC   C3A34793  26.205  18.211   8.017
 2489POPC   C4A34794  26.326  18.582   7.799
 2489POPC   C1B34795  25.610  18.199   8.744
 2489POPC   C2B34796  25.541  17.999   8.372
 2489POPC   C3B34797  25.678  18.185   8.003
 2489POPC   C4B34798  25.835  18.323   7.568
 2490POPC   NC334799   7.641  21.773   9.390
 2490POPC   PO434800   7.115  22.174   9.611
 2490POPC   GL134801   7.274  22.336   9.151
 2490POPC   GL234802   7.624  22.216   9.109
 2490POPC   C1A34803   7.266  22.286   8.691
 2490POPC   D2A34804   7.277  22.001   8.344
 2490POPC   C3A34805   7.264  22.219   7.945
 2490POPC   C4A34806   7.125  22.005   7.541
 2490POPC   C1B34807   7.670  21.964   8.727
 2490POPC   C2B34808   7.808  21.822   8.358
 2490POPC   C3B34809   7.637  21.844   7.984
 2490POPC   C4B34810   7.646  22.120   7.642
 2491POPC   NC334811  28.750  39.170   9.557
 2491POPC   PO434812  29.387  39.349   9.562
 2491POPC   GL134813  29.193  39.413   9.175
 2491POPC   GL234814  28.841  39.546   9.201
 2491POPC   C1A34815  29.174  39.160   8.809
 2491POPC   D2A34816  28.912  39.034   8.489
 2491POPC   C3A34817  29.056  39.035   8.083
 2491POPC   C4A34818  28.942  39.065   7.688
 2491POPC   C1B34819  28.822  39.549   8.745
 2491POPC   C2B34820  29.039  39.496   8.328
 2491POPC   C3B34821  28.940  39.548   7.892
 2491POPC   C4B34822  28.959  39.496   7.430
 2492POPC   NC334823  10.880  17.890   9.828
 2492POPC   PO434824  10.466  17.646   9.335
 2492POPC   GL134825  10.467  17.395   9.012
 2492POPC   GL234826  10.738  17.177   9.053
 2492POPC   C1A34827  10.454  17.569   8.612
 2492POPC   D2A34828  10.174  17.532   8.276
 2492POPC   C3A34829  10.445  17.461   7.919
 2492POPC   C4A34830  10.367  17.753   7.588
 2492POPC   C1B34831  10.947  17.460   8.745
 2492POPC   C2B34832  10.913  17.752   8.359
 2492POPC   C3B34833  10.884  17.760   7.872
 2492POPC   C4B34834  10.773  17.449   7.512
 2493POPC   NC334835  35.992  37.630   9.356
 2493POPC   PO434836  36.455  38.141   9.438
 2493POPC   GL134837  36.374  37.985   9.045
 2493POPC   GL234838  36.388  37.638   9.023
 2493POPC   C1A34839  36.338  37.990   8.579
 2493POPC   D2A34840  36.066  37.896   8.244
 2493POPC   C3A34841  36.146  37.937   7.826
 2493POPC   C4A34842  36.337  37.594   7.637
 2493POPC   C1B34843  36.034  37.598   8.723
 2493POPC   C2B34844  35.858  37.448   8.362
 2493POPC   C3B34845  35.933  37.381   7.957
 2493POPC   C4B34846  35.696  37.071   7.724
 2494POPC   NC334847  36.728  28.433   9.521
 2494POPC   PO434848  37.379  28.171   9.583
 2494POPC   GL134849  37.221  28.416   9.251
 2494POPC   GL234850  37.044  28.116   9.195
 2494POPC   C1A34851  36.990  28.484   8.845
 2494POPC   D2A34852  37.155  28.588   8.436
 2494POPC   C3A34853  37.029  28.444   8.033
 2494POPC   C4A34854  36.731  28.498   7.738
 2494POPC   C1B34855  37.023  27.958   8.778
 2494POPC   C2B34856  36.784  28.146   8.416
 2494POPC   C3B34857  36.735  27.988   7.981
 2494POPC   C4B34858  37.062  28.040   7.678
 2495POPC   NC334859  44.103  27.165   9.535
 2495POPC   PO434860  43.725  27.701   9.824
 2495POPC   GL134861  43.887  27.654   9.363
 2495POPC   GL234862  43.607  27.751   9.155
 2495POPC   C1A34863  44.059  27.601   8.926
 2495POPC   D2A34864  44.188  27.538   8.477
 2495POPC   C3A34865  44.018  27.765   8.145
 2495POPC   C4A34866  44.080  27.639   7.719
 2495POPC   C1B34867  43.561  27.478   8.801
 2495POPC   C2B34868  43.675  27.375   8.365
 2495POPC   C3B34869  43.636  27.537   7.935
 2495POPC   C4B34870  43.614  27.670   7.482
 2496POPC   NC334871  29.979  22.017   9.430
 2496POPC   PO434872  29.660  22.633   9.436
 2496POPC   GL134873  29.880  22.401   9.084
 2496POPC   GL234874  29.866  22.072   8.950
 2496POPC   C1A34875  30.200  22.344   8.718
 2496POPC   D2A34876  30.057  22.457   8.333
 2496POPC   C3A34877  29.833  22.230   8.078
 2496POPC   C4A34878  29.938  22.053   7.693
 2496POPC   C1B34879  29.698  22.228   8.626
 2496POPC   C2B34880  29.468  22.024   8.352
 2496POPC   C3B34881  29.632  21.755   8.011
 2496POPC   C4B34882  29.604  21.697   7.551
 2497POPC   NC334883  10.393  15.160   9.595
 2497POPC   PO434884  11.026  15.047   9.701
 2497POPC   GL134885  10.792  15.199   9.272
 2497POPC   GL234886  10.645  14.958   9.099
 2497POPC   C1A34887  10.382  15.376   8.979
 2497POPC   D2A34888  10.003  15.315   8.652
 2497POPC   C3A34889  10.078  15.264   8.171
 2497POPC   C4A34890  10.327  15.312   7.765
 2497POPC   C1B34891  10.378  14.937   8.736
 2497POPC   C2B34892  10.496  15.270   8.454
 2497POPC   C3B34893  10.730  15.195   8.080
 2497POPC   C4B34894  10.829  15.166   7.657
 2498POPC   NC334895  13.273  14.955   9.715
 2498POPC   PO434896  12.897  15.543   9.526
 2498POPC   GL134897  12.725  15.263   9.213
 2498POPC   GL234898  12.352  15.139   9.209
 2498POPC   C1A34899  13.022  15.126   8.925
 2498POPC   D2A34900  13.253  14.932   8.580
 2498POPC   C3A34901  13.053  14.962   8.184
 2498POPC   C4A34902  13.093  15.173   7.805
 2498POPC   C1B34903  12.470  15.084   8.776
 2498POPC   C2B34904  12.782  15.274   8.495
 2498POPC   C3B34905  12.686  15.345   8.086
 2498POPC   C4B34906  12.395  15.055   7.983
 2499POPC   NC334907  29.102  34.154   9.621
 2499POPC   PO434908  29.070  33.500   9.506
 2499POPC   GL134909  28.968  33.785   9.184
 2499POPC   GL234910  29.296  33.884   9.230
 2499POPC   C1A34911  28.829  33.743   8.738
 2499POPC   D2A34912  28.929  33.425   8.395
 2499POPC   C3A34913  29.023  33.614   7.999
 2499POPC   C4A34914  29.219  33.732   7.596
 2499POPC   C1B34915  29.347  33.942   8.828
 2499POPC   C2B34916  29.261  33.851   8.415
 2499POPC   C3B34917  29.410  33.965   8.000
 2499POPC   C4B34918  29.219  34.227   7.688
 2500POPC   NC334919  17.619  26.302   9.489
 2500POPC   PO434920  17.470  25.662   9.380
 2500POPC   GL134921  17.744  25.940   9.120
 2500POPC   GL234922  17.757  26.311   8.985
 2500POPC   C1A34923  17.739  25.858   8.696
 2500POPC   D2A34924  17.479  25.684   8.364
 2500POPC   C3A34925  17.553  25.767   7.953
 2500POPC   C4A34926  17.785  25.941   7.636
 2500POPC   C1B34927  17.466  26.291   8.594
 2500POPC   C2B34928  17.386  26.210   8.153
 2500POPC   C3B34929  17.407  26.315   7.710
 2500POPC   C4B34930  17.485  26.495   7.280
 2501POPC   NC334931  35.895  15.560   9.646
 2501POPC   PO434932  35.738  14.952   9.469
 2501POPC   GL134933  35.954  15.275   9.198
 2501POPC   GL234934  36.200  15.559   9.219
 2501POPC   C1A34935  36.153  15.216   8.801
 2501POPC   D2A34936  35.899  14.968   8.522
 2501POPC   C3A34937  35.888  15.012   8.080
 2501POPC   C4A34938  35.657  14.790   7.729
 2501POPC   C1B34939  36.155  15.729   8.775
 2501POPC   C2B34940  36.251  15.550   8.342
 2501POPC   C3B34941  36.390  15.310   7.940
 2501POPC   C4B34942  36.492  15.390   7.459
 2502POPC   NC334943  30.477  35.847   9.433
 2502POPC   PO434944  30.976  36.124   9.772
 2502POPC   GL134945  30.859  36.260   9.324
 2502POPC   GL234946  30.670  36.094   9.047
 2502POPC   C1A34947  31.067  36.373   8.907
 2502POPC   D2A34948  30.910  36.390   8.494
 2502POPC   C3A34949  31.022  36.131   8.185
 2502POPC   C4A34950  30.812  36.123   7.774
 2502POPC   C1B34951  30.689  35.921   8.631
 2502POPC   C2B34952  30.521  35.954   8.214
 2502POPC   C3B34953  30.555  35.703   7.835
 2502POPC   C4B34954  30.522  35.771   7.365
 2503POPC   NC334955  37.823  26.878   9.542
 2503POPC   PO434956  38.190  26.315   9.365
 2503POPC   GL134957  37.842  26.581   9.121
 2503POPC   GL234958  37.604  26.915   9.093
 2503POPC   C1A34959  37.610  26.566   8.742
 2503POPC   D2A34960  37.836  26.615   8.391
 2503POPC   C3A34961  37.688  26.780   8.037
 2503POPC   C4A34962  37.471  26.821   7.658
 2503POPC   C1B34963  37.832  27.038   8.691
 2503POPC   C2B34964  37.774  27.234   8.285
 2503POPC   C3B34965  37.629  27.257   7.859
 2503POPC   C4B34966  37.901  27.115   7.512
 2504POPC   NC334967  20.108  38.236   9.533
 2504POPC   PO434968  19.602  38.710   9.454
 2504POPC   GL134969  19.940  38.618   9.119
 2504POPC   GL234970  20.090  38.288   9.045
 2504POPC   C1A34971  19.794  38.496   8.680
 2504POPC   D2A34972  19.594  38.557   8.246
 2504POPC   C3A34973  19.803  38.478   7.884
 2504POPC   C4A34974  19.781  38.468   7.466
 2504POPC   C1B34975  20.017  37.996   8.749
 2504POPC   C2B34976  19.801  38.070   8.381
 2504POPC   C3B34977  19.995  38.046   8.036
 2504POPC   C4B34978  19.833  37.996   7.669
 2505POPC   NC334979  37.122  14.744   9.354
 2505POPC   PO434980  37.420  14.354   9.728
 2505POPC   GL134981  37.559  14.276   9.268
 2505POPC   GL234982  37.535  14.593   9.085
 2505POPC   C1A34983  37.502  14.202   8.758
 2505POPC   D2A34984  37.310  14.177   8.294
 2505POPC   C3A34985  37.591  14.185   7.885
 2505POPC   C4A34986  37.936  14.390   7.623
 2505POPC   C1B34987  37.575  14.710   8.638
 2505POPC   C2B34988  37.649  14.557   8.231
 2505POPC   C3B34989  37.573  14.704   7.809
 2505POPC   C4B34990  37.726  14.805   7.397
 2506POPC   NC334991  24.626  35.950   9.565
 2506POPC   PO434992  24.639  36.598   9.452
 2506POPC   GL134993  24.710  36.271   9.176
 2506POPC   GL234994  24.356  36.143   9.157
 2506POPC   C1A34995  24.659  36.245   8.755
 2506POPC   D2A34996  24.633  36.108   8.382
 2506POPC   C3A34997  24.388  36.374   8.162
 2506POPC   C4A34998  24.266  36.133   7.851
 2506POPC   C1B34999  24.272  35.890   8.774
 2506POPC   C2B35000  24.146  35.914   8.338
 2506POPC   C3B35001  24.022  35.715   7.948
 2506POPC   C4B35002  24.392  35.631   7.693
 2507POPC   NC335003  43.681   7.135   9.602
 2507POPC   PO435004  43.756   7.780   9.618
 2507POPC   GL135005  43.870   7.546   9.240
 2507POPC   GL235006  43.515   7.464   9.219
 2507POPC   C1A35007  44.109   7.415   8.836
 2507POPC   D2A35008  44.021   7.267   8.407
 2507POPC   C3A35009  44.090   7.509   8.006
 2507POPC   C4A35010  44.055   7.647   7.565
 2507POPC   C1B35011  43.604   7.282   8.827
 2507POPC   C2B35012  43.550   7.502   8.450
 2507POPC   C3B35013  43.568   7.474   8.025
 2507POPC   C4B35014  43.393   7.337   7.641
 2508POPC   NC335015  28.817  32.237   9.820
 2508POPC   PO435016  29.441  32.073   9.490
 2508POPC   GL135017  29.319  32.258   9.101
 2508POPC   GL235018  29.322  32.646   9.108
 2508POPC   C1A35019  29.328  32.021   8.668
 2508POPC   D2A35020  29.063  31.916   8.283
 2508POPC   C3A35021  29.149  32.082   7.834
 2508POPC   C4A35022  29.032  32.370   7.463
 2508POPC   C1B35023  29.133  32.494   8.704
 2508POPC   C2B35024  29.279  32.395   8.291
 2508POPC   C3B35025  29.158  32.586   7.914
 2508POPC   C4B35026  28.820  32.799   7.739
 2509POPC   NC335027  43.692   3.794   9.417
 2509POPC   PO435028  44.223   3.925   9.792
 2509POPC   GL135029  44.087   3.539   9.297
 2509POPC   GL235030  43.721   3.415   9.117
 2509POPC   C1A35031  44.115   3.534   8.823
 2509POPC   D2A35032  44.242   3.770   8.453
 2509POPC   C3A35033  44.126   3.539   8.100
 2509POPC   C4A35034  43.992   3.528   7.674
 2509POPC   C1B35035  43.548   3.590   8.780
 2509POPC   C2B35036  43.742   3.486   8.424
 2509POPC   C3B35037  43.600   3.509   8.018
 2509POPC   C4B35038  43.466   3.438   7.612
 2510POPC   NC335039  32.900  35.938   9.594
 2510POPC   PO435040  32.574  36.574   9.481
 2510POPC   GL135041  32.965  36.361   9.268
 2510POPC   GL235042  33.168  36.568   9.063
 2510POPC   C1A35043  33.126  36.095   8.868
 2510POPC   D2A35044  33.367  35.981   8.445
 2510POPC   C3A35045  33.221  36.047   7.995
 2510POPC   C4A35046  33.161  36.154   7.529
 2510POPC   C1B35047  32.747  36.472   8.814
 2510POPC   C2B35048  32.506  36.261   8.457
 2510POPC   C3B35049  32.687  36.346   8.031
 2510POPC   C4B35050  32.772  36.472   7.583
 2511POPC   NC335051  10.788  37.270   9.486
 2511POPC   PO435052  10.462  36.779   9.644
 2511POPC   GL135053  10.638  36.754   9.227
 2511POPC   GL235054  10.368  36.524   9.142
 2511POPC   C1A35055  10.789  36.924   8.815
 2511POPC   D2A35056  10.946  37.075   8.376
 2511POPC   C3A35057  10.839  36.938   7.929
 2511POPC   C4A35058  10.601  37.024   7.540
 2511POPC   C1B35059  10.686  36.401   8.835
 2511POPC   C2B35060  10.768  36.557   8.414
 2511POPC   C3B35061  10.760  36.436   8.002
 2511POPC   C4B35062  10.428  36.578   7.732
 2512POPC   NC335063   9.828   9.150   9.562
 2512POPC   PO435064   9.606   8.553   9.633
 2512POPC   GL135065   9.615   8.842   9.221
 2512POPC   GL235066   9.446   9.183   9.210
 2512POPC   C1A35067   9.805   9.100   8.853
 2512POPC   D2A35068  10.015   9.057   8.437
 2512POPC   C3A35069   9.777   8.864   8.095
 2512POPC   C4A35070   9.664   8.858   7.645
 2512POPC   C1B35071   9.300   9.244   8.784
 2512POPC   C2B35072   9.504   9.263   8.366
 2512POPC   C3B35073   9.369   9.146   7.944
 2512POPC   C4B35074   9.425   9.294   7.517
 2513POPC   NC335075  28.779  20.050   9.598
 2513POPC   PO435076  29.346  19.638   9.556
 2513POPC   GL135077  29.216  19.797   9.142
 2513POPC   GL235078  28.985  20.084   9.132
 2513POPC   C1A35079  29.268  19.923   8.696
 2513POPC   D2A35080  29.531  19.983   8.294
 2513POPC   C3A35081  29.422  19.819   7.849
 2513POPC   C4A35082  29.405  19.858   7.367
 2513POPC   C1B35083  28.757  20.056   8.745
 2513POPC   C2B35084  28.960  20.051   8.318
 2513POPC   C3B35085  28.919  19.954   7.892
 2513POPC   C4B35086  28.632  20.073   7.569
 2514POPC   NC335087  34.863  31.549   9.635
 2514POPC   PO435088  34.356  31.099   9.457
 2514POPC   GL135089  34.580  31.398   9.245
 2514POPC   GL235090  34.499  31.751   9.304
 2514POPC   C1A35091  34.762  31.281   8.853
 2514POPC   D2A35092  34.617  31.373   8.467
 2514POPC   C3A35093  34.757  31.280   8.091
 2514POPC   C4A35094  34.519  31.356   7.735
 2514POPC   C1B35095  34.470  31.696   8.862
 2514POPC   C2B35096  34.273  31.769   8.492
 2514POPC   C3B35097  34.472  31.721   8.111
 2514POPC   C4B35098  34.455  31.853   7.712
 2515POPC   NC335099  39.571  26.636   9.504
 2515POPC   PO435100  39.328  27.204   9.336
 2515POPC   GL135101  39.070  27.000   9.045
 2515POPC   GL235102  39.073  26.657   9.146
 2515POPC   C1A35103  38.916  26.868   8.661
 2515POPC   D2A35104  39.084  26.685   8.291
 2515POPC   C3A35105  39.113  27.010   7.977
 2515POPC   C4A35106  38.896  27.267   7.667
 2515POPC   C1B35107  39.392  26.484   8.864
 2515POPC   C2B35108  39.586  26.318   8.498
 2515POPC   C3B35109  39.381  26.289   8.127
 2515POPC   C4B35110  39.270  26.554   7.810
 2516POPC   NC335111  34.273   7.988   9.610
 2516POPC   PO435112  34.909   7.935   9.596
 2516POPC   GL135113  34.650   8.030   9.194
 2516POPC   GL235114  34.394   8.303   9.229
 2516POPC   C1A35115  34.585   8.028   8.711
 2516POPC   D2A35116  34.773   8.199   8.312
 2516POPC   C3A35117  34.630   8.293   7.893
 2516POPC   C4A35118  34.570   8.508   7.495
 2516POPC   C1B35119  34.183   8.292   8.840
 2516POPC   C2B35120  34.117   8.079   8.456
 2516POPC   C3B35121  34.266   8.002   8.056
 2516POPC   C4B35122  34.059   8.132   7.673
 2517POPC   NC335123  34.987  41.286   9.315
 2517POPC   PO435124  34.379  41.613   9.358
 2517POPC   GL135125  34.569  41.470   9.015
 2517POPC   GL235126  34.532  41.146   9.096
 2517POPC   C1A35127  34.776  41.603   8.625
 2517POPC   D2A35128  34.730  41.901   8.274
 2517POPC   C3A35129  34.469  41.711   7.947
 2517POPC   C4A35130  34.554  41.539   7.528
 2517POPC   C1B35131  34.582  41.111   8.647
 2517POPC   C2B35132  34.504  41.252   8.205
 2517POPC   C3B35133  34.655  41.082   7.801
 2517POPC   C4B35134  34.854  41.180   7.374
 2518POPC   NC335135  16.029  12.530   9.548
 2518POPC   PO435136  15.758  11.914   9.665
 2518POPC   GL135137  15.874  11.880   9.204
 2518POPC   GL235138  16.132  12.115   9.234
 2518POPC   C1A35139  16.136  11.752   8.811
 2518POPC   D2A35140  16.305  11.782   8.370
 2518POPC   C3A35141  16.022  11.840   8.012
 2518POPC   C4A35142  15.654  11.954   7.771
 2518POPC   C1B35143  16.041  12.256   8.806
 2518POPC   C2B35144  16.152  12.264   8.340
 2518POPC   C3B35145  16.002  12.345   7.903
 2518POPC   C4B35146  15.927  12.301   7.468
 2519POPC   NC335147  35.106  44.902   9.408
 2519POPC   PO435148  35.547  44.454   9.427
 2519POPC   GL135149  35.425  44.385   9.037
 2519POPC   GL235150  35.076  44.389   9.169
 2519POPC   C1A35151  35.666  44.389   8.650
 2519POPC   D2A35152  35.897  44.630   8.334
 2519POPC   C3A35153  35.686  44.762   7.941
 2519POPC   C4A35154  35.740  44.624   7.493
 2519POPC   C1B35155  35.028  44.594   8.792
 2519POPC   C2B35156  35.231  44.569   8.420
 2519POPC   C3B35157  35.466  44.356   8.138
 2519POPC   C4B35158  35.306  44.506   7.713
 2520POPC   NC335159  39.462  24.926   9.529
 2520POPC   PO435160  40.183  24.969   9.463
 2520POPC   GL135161  39.951  25.211   9.143
 2520POPC   GL235162  39.594  25.285   9.172
 2520POPC   C1A35163  40.056  25.462   8.808
 2520POPC   D2A35164  40.121  25.182   8.486
 2520POPC   C3A35165  40.224  25.280   8.080
 2520POPC   C4A35166  40.180  25.043   7.721
 2520POPC   C1B35167  39.644  25.182   8.723
 2520POPC   C2B35168  39.722  25.442   8.336
 2520POPC   C3B35169  39.750  25.342   7.904
 2520POPC   C4B35170  39.669  24.980   7.671
 2521POPC   NC335171  34.743  27.671   9.491
 2521POPC   PO435172  34.064  27.750   9.364
 2521POPC   GL135173  34.419  27.673   9.081
 2521POPC   GL235174  34.628  27.432   8.999
 2521POPC   C1A35175  34.746  27.866   8.784
 2521POPC   D2A35176  34.915  27.691   8.404
 2521POPC   C3A35177  34.751  27.872   8.055
 2521POPC   C4A35178  34.445  27.911   7.791
 2521POPC   C1B35179  34.344  27.549   8.608
 2521POPC   C2B35180  34.164  27.708   8.214
 2521POPC   C3B35181  34.328  27.450   7.920
 2521POPC   C4B35182  34.717  27.449   7.769
 2522POPC   NC335183  13.825  23.318   9.630
 2522POPC   PO435184  13.357  23.868   9.719
 2522POPC   GL135185  13.578  23.743   9.286
 2522POPC   GL235186  13.824  23.470   9.163
 2522POPC   C1A35187  13.666  23.787   8.814
 2522POPC   D2A35188  13.524  23.948   8.429
 2522POPC   C3A35189  13.645  23.726   8.090
 2522POPC   C4A35190  13.687  23.919   7.733
 2522POPC   C1B35191  13.856  23.249   8.806
 2522POPC   C2B35192  13.972  23.290   8.377
 2522POPC   C3B35193  13.896  23.181   7.954
 2522POPC   C4B35194  13.781  23.437   7.630
 2523POPC   NC335195  39.980  30.957   9.493
 2523POPC   PO435196  39.591  30.460   9.423
 2523POPC   GL135197  40.013  30.547   9.183
 2523POPC   GL235198  40.145  30.870   9.028
 2523POPC   C1A35199  40.104  30.453   8.758
 2523POPC   D2A35200  39.949  30.394   8.339
 2523POPC   C3A35201  40.272  30.390   8.044
 2523POPC   C4A35202  40.307  30.365   7.606
 2523POPC   C1B35203  40.402  31.132   8.763
 2523POPC   C2B35204  40.368  31.192   8.334
 2523POPC   C3B35205  40.033  30.889   8.201
 2523POPC   C4B35206  39.861  30.663   7.843
 2524POPC   NC335207  40.804  20.948   9.652
 2524POPC   PO435208  40.572  20.325   9.512
 2524POPC   GL135209  40.818  20.591   9.217
 2524POPC   GL235210  40.664  20.883   9.155
 2524POPC   C1A35211  40.951  20.752   8.781
 2524POPC   D2A35212  40.821  21.020   8.413
 2524POPC   C3A35213  40.806  20.771   8.081
 2524POPC   C4A35214  41.045  20.641   7.764
 2524POPC   C1B35215  40.435  20.907   8.760
 2524POPC   C2B35216  40.162  20.758   8.429
 2524POPC   C3B35217  40.299  20.685   8.032
 2524POPC   C4B35218  40.501  20.820   7.675
 2525POPC   NC335219  34.390  13.255   9.493
 2525POPC   PO435220  34.346  12.573   9.599
 2525POPC   GL135221  34.562  12.748   9.204
 2525POPC   GL235222  34.438  13.065   8.991
 2525POPC   C1A35223  34.550  12.643   8.757
 2525POPC   D2A35224  34.316  12.858   8.419
 2525POPC   C3A35225  34.546  12.882   8.083
 2525POPC   C4A35226  34.784  12.585   7.806
 2525POPC   C1B35227  34.729  13.100   8.616
 2525POPC   C2B35228  34.984  13.103   8.237
 2525POPC   C3B35229  34.905  13.087   7.768
 2525POPC   C4B35230  34.794  13.113   7.307
 2526POPC   NC335231  14.267  10.257   9.396
 2526POPC   PO435232  14.874  10.288   9.620
 2526POPC   GL135233  14.652  10.504   9.195
 2526POPC   GL235234  14.520  10.844   9.082
 2526POPC   C1A35235  14.474  10.453   8.775
 2526POPC   D2A35236  14.182  10.466   8.441
 2526POPC   C3A35237  14.356  10.564   8.116
 2526POPC   C4A35238  14.438  10.279   7.865
 2526POPC   C1B35239  14.145  10.845   8.782
 2526POPC   C2B35240  13.903  10.909   8.396
 2526POPC   C3B35241  14.042  10.941   7.991
 2526POPC   C4B35242  14.297  10.806   7.638
 2527POPC   NC335243  43.100  31.119   9.677
 2527POPC   PO435244  42.811  31.737   9.520
 2527POPC   GL135245  43.042  31.523   9.199
 2527POPC   GL235246  43.269  31.221   9.192
 2527POPC   C1A35247  42.899  31.653   8.806
 2527POPC   D2A35248  43.034  31.707   8.427
 2527POPC   C3A35249  42.844  31.563   8.072
 2527POPC   C4A35250  43.024  31.625   7.646
 2527POPC   C1B35251  43.315  31.340   8.771
 2527POPC   C2B35252  43.297  31.200   8.367
 2527POPC   C3B35253  43.261  31.285   7.965
 2527POPC   C4B35254  43.226  31.089   7.596
 2528POPC   NC335255  23.184  27.008   9.484
 2528POPC   PO435256  23.059  26.402   9.728
 2528POPC   GL135257  22.956  26.616   9.300
 2528POPC   GL235258  22.643  26.832   9.214
 2528POPC   C1A35259  23.057  26.667   8.858
 2528POPC   D2A35260  22.746  26.552   8.560
 2528POPC   C3A35261  22.793  26.675   8.142
 2528POPC   C4A35262  23.036  26.672   7.788
 2528POPC   C1B35263  22.709  27.058   8.802
 2528POPC   C2B35264  22.876  27.260   8.423
 2528POPC   C3B35265  22.938  27.150   7.993
 2528POPC   C4B35266  22.607  26.986   7.739
 2529POPC   NC335267  15.733  39.844   9.480
 2529POPC   PO435268  16.329  40.135   9.423
 2529POPC   GL135269  16.018  40.056   9.093
 2529POPC   GL235270  15.633  40.185   9.105
 2529POPC   C1A35271  16.175  40.037   8.679
 2529POPC   D2A35272  16.298  39.905   8.278
 2529POPC   C3A35273  16.089  40.208   8.061
 2529POPC   C4A35274  16.062  40.466   7.726
 2529POPC   C1B35275  15.662  39.863   8.762
 2529POPC   C2B35276  15.764  39.901   8.312
 2529POPC   C3B35277  15.697  39.979   7.858
 2529POPC   C4B35278  15.902  39.847   7.520
 2530POPC   NC335279  34.846  35.160   9.597
 2530POPC   PO435280  34.187  35.270   9.775
 2530POPC   GL135281  34.391  35.248   9.306
 2530POPC   GL235282  34.693  35.080   9.142
 2530POPC   C1A35283  34.434  35.418   8.846
 2530POPC   D2A35284  34.286  35.478   8.397
 2530POPC   C3A35285  34.504  35.309   8.053
 2530POPC   C4A35286  34.416  35.215   7.625
 2530POPC   C1B35287  34.915  35.184   8.789
 2530POPC   C2B35288  34.840  35.467   8.453
 2530POPC   C3B35289  35.011  35.472   8.048
 2530POPC   C4B35290  34.930  35.189   7.740
 2531POPC   NC335291  35.878  38.309   9.444
 2531POPC   PO435292  36.281  38.873   9.528
 2531POPC   GL135293  36.194  38.610   9.173
 2531POPC   GL235294  35.881  38.765   9.112
 2531POPC   C1A35295  36.009  38.328   8.812
 2531POPC   D2A35296  35.842  38.324   8.383
 2531POPC   C3A35297  36.074  38.448   8.014
 2531POPC   C4A35298  36.197  38.764   7.695
 2531POPC   C1B35299  35.694  38.721   8.698
 2531POPC   C2B35300  35.744  38.806   8.243
 2531POPC   C3B35301  35.684  38.782   7.791
 2531POPC   C4B35302  35.816  38.800   7.348
 2532POPC   NC335303  27.376  41.875   9.322
 2532POPC   PO435304  27.668  41.386   9.704
 2532POPC   GL135305  27.730  41.460   9.196
 2532POPC   GL235306  27.442  41.560   8.936
 2532POPC   C1A35307  27.826  41.382   8.709
 2532POPC   D2A35308  27.985  41.208   8.306
 2532POPC   C3A35309  27.824  41.463   7.932
 2532POPC   C4A35310  27.373  41.432   7.780
 2532POPC   C1B35311  27.692  41.872   8.761
 2532POPC   C2B35312  27.661  41.950   8.352
 2532POPC   C3B35313  27.461  41.909   7.970
 2532POPC   C4B35314  27.633  41.864   7.576
 2533POPC   NC335315  34.864  37.699   9.456
 2533POPC   PO435316  34.248  37.410   9.486
 2533POPC   GL135317  34.404  37.537   9.107
 2533POPC   GL235318  34.709  37.399   9.071
 2533POPC   C1A35319  34.480  37.784   8.751
 2533POPC   D2A35320  34.701  37.728   8.358
 2533POPC   C3A35321  34.549  37.705   7.956
 2533POPC   C4A35322  34.721  37.806   7.579
 2533POPC   C1B35323  34.644  37.296   8.632
 2533POPC   C2B35324  34.304  37.310   8.311
 2533POPC   C3B35325  34.203  37.341   7.869
 2533POPC   C4B35326  34.321  37.537   7.442
 2534POPC   NC335327  42.548   2.433   9.821
 2534POPC   PO435328  41.986   2.673   9.510
 2534POPC   GL135329  42.212   2.573   9.160
 2534POPC   GL235330  41.976   2.748   8.924
 2534POPC   C1A35331  42.451   2.618   8.757
 2534POPC   D2A35332  42.325   2.548   8.367
 2534POPC   C3A35333  42.314   2.934   8.147
 2534POPC   C4A35334  42.355   2.937   7.708
 2534POPC   C1B35335  42.030   2.296   8.785
 2534POPC   C2B35336  41.927   2.162   8.386
 2534POPC   C3B35337  41.990   2.407   8.010
 2534POPC   C4B35338  42.171   2.475   7.626
 2535POPC   NC335339  11.964   7.919   9.626
 2535POPC   PO435340  12.608   8.152   9.523
 2535POPC   GL135341  12.260   8.027   9.218
 2535POPC   GL235342  11.884   7.897   9.123
 2535POPC   C1A35343  12.152   8.196   8.826
 2535POPC   D2A35344  11.866   8.238   8.512
 2535POPC   C3A35345  12.030   8.282   8.120
 2535POPC   C4A35346  11.905   8.401   7.736
 2535POPC   C1B35347  11.760   7.739   8.697
 2535POPC   C2B35348  11.780   7.761   8.237
 2535POPC   C3B35349  11.818   7.900   7.833
 2535POPC   C4B35350  12.201   8.016   7.699
 2536POPC   NC335351  14.988  43.585   9.983
 2536POPC   PO435352  15.075  44.118   9.575
 2536POPC   GL135353  14.981  43.937   9.186
 2536POPC   GL235354  14.942  43.568   9.138
 2536POPC   C1A35355  14.948  44.039   8.773
 2536POPC   D2A35356  15.121  43.963   8.382
 2536POPC   C3A35357  15.213  44.283   8.104
 2536POPC   C4A35358  15.184  44.273   7.649
 2536POPC   C1B35359  14.946  43.528   8.664
 2536POPC   C2B35360  14.889  43.552   8.198
 2536POPC   C3B35361  15.154  43.778   7.876
 2536POPC   C4B35362  15.042  43.822   7.439
 2537POPC   NC335363  24.404  43.575   9.640
 2537POPC   PO435364  24.598  42.927   9.596
 2537POPC   GL135365  24.584  43.077   9.211
 2537POPC   GL235366  24.295  43.274   9.220
 2537POPC   C1A35367  24.719  43.024   8.801
 2537POPC   D2A35368  24.839  43.311   8.517
 2537POPC   C3A35369  24.888  43.063   8.168
 2537POPC   C4A35370  24.712  43.107   7.810
 2537POPC   C1B35371  24.236  43.257   8.775
 2537POPC   C2B35372  24.381  43.131   8.362
 2537POPC   C3B35373  24.171  43.099   7.979
 2537POPC   C4B35374  24.135  43.039   7.520
 2538POPC   NC335375  22.347  29.414   9.458
 2538POPC   PO435376  21.860  28.941   9.518
 2538POPC   GL135377  22.003  29.109   9.155
 2538POPC   GL235378  22.363  28.972   9.163
 2538POPC   C1A35379  22.035  28.905   8.760
 2538POPC   D2A35380  22.187  28.768   8.371
 2538POPC   C3A35381  21.952  28.745   7.994
 2538POPC   C4A35382  22.127  28.934   7.638
 2538POPC   C1B35383  22.359  29.289   8.817
 2538POPC   C2B35384  22.340  29.437   8.403
 2538POPC   C3B35385  22.375  29.166   8.059
 2538POPC   C4B35386  22.535  29.212   7.677
 2539POPC   NC335387  17.142  18.421   9.587
 2539POPC   PO435388  17.776  18.324   9.517
 2539POPC   GL135389  17.474  18.471   9.173
 2539POPC   GL235390  17.478  18.150   8.997
 2539POPC   C1A35391  17.445  18.550   8.701
 2539POPC   D2A35392  17.306  18.174   8.438
 2539POPC   C3A35393  17.364  18.114   7.981
 2539POPC   C4A35394  17.453  18.451   7.667
 2539POPC   C1B35395  17.790  18.189   8.620
 2539POPC   C2B35396  17.737  18.402   8.223
 2539POPC   C3B35397  17.851  18.201   7.844
 2539POPC   C4B35398  17.673  17.817   7.665
 2540POPC   NC335399  10.192  17.995   9.514
 2540POPC   PO435400  10.807  18.229   9.496
 2540POPC   GL135401  10.579  18.134   9.159
 2540POPC   GL235402  10.303  18.302   9.118
 2540POPC   C1A35403  10.606  18.051   8.736
 2540POPC   D2A35404  10.772  18.275   8.399
 2540POPC   C3A35405  10.591  18.263   7.991
 2540POPC   C4A35406  10.680  18.595   7.737
 2540POPC   C1B35407  10.086  18.515   8.807
 2540POPC   C2B35408  10.196  18.474   8.374
 2540POPC   C3B35409  10.128  18.605   7.961
 2540POPC   C4B35410  10.221  18.427   7.597
 2541POPC   NC335411  40.289  42.153   9.431
 2541POPC   PO435412  39.691  42.319   9.488
 2541POPC   GL135413  39.876  42.355   9.089
 2541POPC   GL235414  40.124  42.601   9.000
 2541POPC   C1A35415  39.831  42.391   8.644
 2541POPC   D2A35416  40.114  42.653   8.445
 2541POPC   C3A35417  40.152  42.470   8.068
 2541POPC   C4A35418  39.890  42.180   7.840
 2541POPC   C1B35419  40.287  42.230   8.761
 2541POPC   C2B35420  40.458  42.180   8.364
 2541POPC   C3B35421  40.390  42.054   7.949
 2541POPC   C4B35422  40.331  42.252   7.551
 2542POPC   NC335423   7.780   5.204   9.324
 2542POPC   PO435424   8.271   4.934   9.657
 2542POPC   GL135425   8.123   4.804   9.249
 2542POPC   GL235426   8.448   4.947   9.151
 2542POPC   C1A35427   8.094   4.826   8.805
 2542POPC   D2A35428   8.389   4.977   8.502
 2542POPC   C3A35429   8.233   5.002   8.076
 2542POPC   C4A35430   8.518   5.006   7.751
 2542POPC   C1B35431   8.480   5.325   8.916
 2542POPC   C2B35432   8.683   5.461   8.569
 2542POPC   C3B35433   8.647   5.310   8.170
 2542POPC   C4B35434   8.531   5.507   7.811
 2543POPC   NC335435   0.378  15.019   9.613
 2543POPC   PO435436   0.676  15.560   9.561
 2543POPC   GL135437   0.502  15.318   9.227
 2543POPC   GL235438   0.682  14.971   9.212
 2543POPC   C1A35439   0.362  15.259   8.840
 2543POPC   D2A35440   0.305  15.433   8.449
 2543POPC   C3A35441   0.156  15.100   8.169
 2543POPC   C4A35442   0.298  15.126   7.741
 2543POPC   C1B35443   0.803  15.024   8.819
 2543POPC   C2B35444   0.606  15.033   8.429
 2543POPC   C3B35445   0.676  15.262   8.051
 2543POPC   C4B35446   0.839  15.154   7.633
 2544POPC   NC335447  27.857  24.295   9.330
 2544POPC   PO435448  27.479  24.756   9.692
 2544POPC   GL135449  27.343  24.532   9.268
 2544POPC   GL235450  27.371  24.178   9.204
 2544POPC   C1A35451  27.457  24.515   8.828
 2544POPC   D2A35452  27.630  24.701   8.469
 2544POPC   C3A35453  27.624  24.540   8.058
 2544POPC   C4A35454  27.314  24.672   7.806
 2544POPC   C1B35455  27.339  23.997   8.805
 2544POPC   C2B35456  27.461  24.188   8.425
 2544POPC   C3B35457  27.232  24.214   8.071
 2544POPC   C4B35458  27.308  24.195   7.624
 2545POPC   NC335459  28.663  43.797   9.414
 2545POPC   PO435460  29.122  44.234   9.694
 2545POPC   GL135461  29.127  44.136   9.230
 2545POPC   GL235462  29.118  43.773   9.159
 2545POPC   C1A35463  29.036  44.107   8.764
 2545POPC   D2A35464  29.176  43.860   8.401
 2545POPC   C3A35465  29.082  43.914   7.973
 2545POPC   C4A35466  29.419  43.839   7.699
 2545POPC   C1B35467  28.903  43.579   8.790
 2545POPC   C2B35468  28.879  43.439   8.354
 2545POPC   C3B35469  29.181  43.402   7.996
 2545POPC   C4B35470  29.093  43.479   7.545
 2546POPC   NC335471   1.398  12.139   9.509
 2546POPC   PO435472   0.940  11.817   9.775
 2546POPC   GL135473   0.911  12.013   9.329
 2546POPC   GL235474   0.827  11.837   9.056
 2546POPC   C1A35475   1.092  12.254   8.923
 2546POPC   D2A35476   0.986  12.502   8.533
 2546POPC   C3A35477   1.177  12.386   8.137
 2546POPC   C4A35478   1.098  12.138   7.762
 2546POPC   C1B35479   1.110  11.724   8.743
 2546POPC   C2B35480   1.263  11.890   8.346
 2546POPC   C3B35481   1.273  11.665   7.971
 2546POPC   C4B35482   1.354  11.728   7.552
 2547POPC   NC335483   9.557  10.972   9.658
 2547POPC   PO435484   9.986  10.501   9.717
 2547POPC   GL135485   9.836  10.664   9.288
 2547POPC   GL235486   9.618  10.948   9.155
 2547POPC   C1A35487   9.836  10.501   8.857
 2547POPC   D2A35488   9.823  10.251   8.489
 2547POPC   C3A35489   9.905  10.471   8.095
 2547POPC   C4A35490   9.812  10.525   7.661
 2547POPC   C1B35491   9.437  10.830   8.754
 2547POPC   C2B35492   9.554  10.694   8.376
 2547POPC   C3B35493   9.504  10.804   7.936
 2547POPC   C4B35494   9.713  11.003   7.536
 2548POPC   NC335495  15.374  24.726   9.504
 2548POPC   PO435496  14.872  24.196   9.506
 2548POPC   GL135497  14.957  24.552   9.254
 2548POPC   GL235498  15.265  24.420   9.109
 2548POPC   C1A35499  14.883  24.579   8.814
 2548POPC   D2A35500  15.127  24.531   8.438
 2548POPC   C3A35501  14.930  24.482   8.079
 2548POPC   C4A35502  15.046  24.215   7.765
 2548POPC   C1B35503  15.379  24.753   8.815
 2548POPC   C2B35504  15.401  24.992   8.453
 2548POPC   C3B35505  15.346  24.830   8.069
 2548POPC   C4B35506  15.559  24.714   7.697
 2549POPC   NC335507  26.566  39.212   9.859
 2549POPC   PO435508  27.031  38.924   9.370
 2549POPC   GL135509  26.955  39.015   8.935
 2549POPC   GL235510  27.087  39.331   8.990
 2549POPC   C1A35511  26.580  39.080   8.630
 2549POPC   D2A35512  26.367  39.050   8.205
 2549POPC   C3A35513  26.682  39.068   7.897
 2549POPC   C4A35514  27.127  39.133   7.778
 2549POPC   C1B35515  27.039  39.322   8.533
 2549POPC   C2B35516  26.694  39.463   8.255
 2549POPC   C3B35517  26.836  39.572   7.859
 2549POPC   C4B35518  27.278  39.604   7.778
 2550POPC   NC335519   6.885  20.280   9.358
 2550POPC   PO435520   6.874  20.929   9.394
 2550POPC   GL135521   6.557  20.715   9.090
 2550POPC   GL235522   6.530  20.336   9.014
 2550POPC   C1A35523   6.588  20.607   8.626
 2550POPC   D2A35524   6.862  20.571   8.287
 2550POPC   C3A35525   6.545  20.559   7.924
 2550POPC   C4A35526   6.688  20.721   7.523
 2550POPC   C1B35527   6.888  20.202   8.716
 2550POPC   C2B35528   7.024  20.092   8.297
 2550POPC   C3B35529   6.955  20.267   7.875
 2550POPC   C4B35530   6.730  20.192   7.496
 2551POPC   NC335531  27.316   2.888   9.621
 2551POPC   PO435532  27.954   3.124   9.757
 2551POPC   GL135533  27.747   2.967   9.342
 2551POPC   GL235534  27.497   3.176   9.205
 2551POPC   C1A35535  27.596   2.659   9.004
 2551POPC   D2A35536  27.741   2.423   8.608
 2551POPC   C3A35537  27.684   2.568   8.174
 2551POPC   C4A35538  27.469   2.566   7.764
 2551POPC   C1B35539  27.710   3.132   8.809
 2551POPC   C2B35540  27.545   3.013   8.431
 2551POPC   C3B35541  27.522   3.012   8.012
 2551POPC   C4B35542  27.723   3.035   7.610
 2552POPC   NC335543  18.420  33.998   9.665
 2552POPC   PO435544  18.356  33.336   9.656
 2552POPC   GL135545  18.456  33.555   9.218
 2552POPC   GL235546  18.422  33.890   9.177
 2552POPC   C1A35547  18.496  33.653   8.740
 2552POPC   D2A35548  18.580  33.425   8.352
 2552POPC   C3A35549  18.370  33.417   7.948
 2552POPC   C4A35550  17.992  33.377   7.673
 2552POPC   C1B35551  18.289  34.138   8.843
 2552POPC   C2B35552  18.229  34.016   8.450
 2552POPC   C3B35553  18.487  33.894   8.151
 2552POPC   C4B35554  18.339  33.868   7.724
 2553POPC   NC335555  12.045  15.539   9.646
 2553POPC   PO435556  12.321  16.035   9.779
 2553POPC   GL135557  12.186  15.885   9.299
 2553POPC   GL235558  12.366  15.641   9.153
 2553POPC   C1A35559  11.909  15.936   8.897
 2553POPC   D2A35560  11.817  15.754   8.464
 2553POPC   C3A35561  11.872  15.962   8.029
 2553POPC   C4A35562  11.933  15.833   7.555
 2553POPC   C1B35563  12.403  15.963   8.797
 2553POPC   C2B35564  12.232  16.077   8.421
 2553POPC   C3B35565  12.183  16.386   8.110
 2553POPC   C4B35566  12.239  16.216   7.734
 2554POPC   NC335567  40.595  31.399   9.354
 2554POPC   PO435568  39.883  31.416   9.418
 2554POPC   GL135569  40.134  31.390   9.111
 2554POPC   GL235570  39.847  31.286   8.931
 2554POPC   C1A35571  40.167  31.662   8.754
 2554POPC   D2A35572  39.896  31.761   8.391
 2554POPC   C3A35573  40.062  31.544   8.046
 2554POPC   C4A35574  40.179  31.551   7.600
 2554POPC   C1B35575  39.891  31.265   8.533
 2554POPC   C2B35576  39.630  31.264   8.198
 2554POPC   C3B35577  39.835  31.170   7.815
 2554POPC   C4B35578  40.300  31.092   7.817
 2555POPC   NC335579   9.620  25.874   9.521
 2555POPC   PO435580  10.163  26.272   9.570
 2555POPC   GL135581   9.932  26.321   9.219
 2555POPC   GL235582   9.919  25.977   9.133
 2555POPC   C1A35583   9.800  26.383   8.801
 2555POPC   D2A35584   9.705  26.133   8.451
 2555POPC   C3A35585   9.723  26.283   8.018
 2555POPC   C4A35586   9.583  26.134   7.626
 2555POPC   C1B35587   9.670  25.771   8.823
 2555POPC   C2B35588   9.741  25.605   8.418
 2555POPC   C3B35589   9.679  25.775   8.024
 2555POPC   C4B35590   9.922  25.763   7.678
 2556POPC   NC335591  25.548  36.329   9.507
 2556POPC   PO435592  25.089  35.946   9.637
 2556POPC   GL135593  25.236  35.997   9.234
 2556POPC   GL235594  25.524  35.795   9.280
 2556POPC   C1A35595  25.135  36.098   8.810
 2556POPC   D2A35596  25.109  36.323   8.394
 2556POPC   C3A35597  24.979  36.140   7.988
 2556POPC   C4A35598  25.199  36.036   7.601
 2556POPC   C1B35599  25.554  35.791   8.837
 2556POPC   C2B35600  25.484  35.992   8.453
 2556POPC   C3B35601  25.487  36.062   8.055
 2556POPC   C4B35602  25.657  35.861   7.734
 2557POPC   NC335603  34.313  18.606   9.418
 2557POPC   PO435604  34.691  19.059   9.506
 2557POPC   GL135605  34.851  18.896   9.115
 2557POPC   GL235606  34.777  19.219   9.024
 2557POPC   C1A35607  34.912  18.894   8.656
 2557POPC   D2A35608  34.601  18.795   8.384
 2557POPC   C3A35609  34.495  18.939   7.991
 2557POPC   C4A35610  34.754  18.759   7.705
 2557POPC   C1B35611  34.494  19.167   8.782
 2557POPC   C2B35612  34.358  19.244   8.404
 2557POPC   C3B35613  34.698  19.382   8.168
 2557POPC   C4B35614  34.695  19.379   7.739
 2558POPC   NC335615  16.870  19.072   9.499
 2558POPC   PO435616  16.258  19.171   9.413
 2558POPC   GL135617  16.519  19.084   9.110
 2558POPC   GL235618  16.473  18.763   9.152
 2558POPC   C1A35619  16.906  19.136   8.861
 2558POPC   D2A35620  16.916  19.099   8.423
 2558POPC   C3A35621  16.580  19.238   8.144
 2558POPC   C4A35622  16.704  19.199   7.726
 2558POPC   C1B35623  16.621  18.737   8.753
 2558POPC   C2B35624  16.510  18.778   8.371
 2558POPC   C3B35625  16.765  18.784   8.027
 2558POPC   C4B35626  16.656  18.714   7.643
 2559POPC   NC335627  33.776  36.489   9.580
 2559POPC   PO435628  33.458  35.896   9.519
 2559POPC   GL135629  33.586  36.206   9.187
 2559POPC   GL235630  33.975  36.327   9.146
 2559POPC   C1A35631  33.632  36.302   8.761
 2559POPC   D2A35632  33.931  36.304   8.431
 2559POPC   C3A35633  33.728  36.242   8.049
 2559POPC   C4A35634  33.454  36.488   7.774
 2559POPC   C1B35635  34.136  36.046   8.841
 2559POPC   C2B35636  34.335  35.978   8.461
 2559POPC   C3B35637  34.152  35.874   8.066
 2559POPC   C4B35638  34.095  36.098   7.698
 2560POPC   NC335639   2.153  10.764   9.412
 2560POPC   PO435640   1.817  10.140   9.600
 2560POPC   GL135641   1.882  10.372   9.201
 2560POPC   GL235642   2.210  10.473   8.981
 2560POPC   C1A35643   1.756  10.617   8.841
 2560POPC   D2A35644   2.047  10.620   8.496
 2560POPC   C3A35645   1.866  10.822   8.134
 2560POPC   C4A35646   1.959  10.746   7.717
 2560POPC   C1B35647   2.453  10.163   8.703
 2560POPC   C2B35648   2.476  10.203   8.280
 2560POPC   C3B35649   2.175  10.401   8.040
 2560POPC   C4B35650   2.186  10.316   7.608
 2561POPC   NC335651  44.964   0.750   9.462
 2561POPC   PO435652  44.863   1.460   9.480
 2561POPC   GL135653  44.577   1.213   9.218
 2561POPC   GL235654  44.660   0.876   9.071
 2561POPC   C1A35655  44.508   1.292   8.786
 2561POPC   D2A35656  44.670   1.274   8.368
 2561POPC   C3A35657  44.441   0.984   8.112
 2561POPC   C4A35658  44.373   1.016   7.688
 2561POPC   C1B35659  44.960   0.959   8.699
 2561POPC   C2B35660   0.163   0.985   8.280
 2561POPC   C3B35661  44.900   1.023   7.925
 2561POPC   C4B35662  44.874   1.190   7.515
 2562POPC   NC335663  22.226  21.715   9.449
 2562POPC   PO435664  21.848  22.250   9.678
 2562POPC   GL135665  21.980  22.188   9.227
 2562POPC   GL235666  22.028  21.867   9.019
 2562POPC   C1A35667  22.286  22.287   8.902
 2562POPC   D2A35668  22.352  22.200   8.489
 2562POPC   C3A35669  22.183  22.435   8.162
 2562POPC   C4A35670  22.349  22.258   7.805
 2562POPC   C1B35671  21.944  21.778   8.611
 2562POPC   C2B35672  21.909  21.983   8.219
 2562POPC   C3B35673  21.946  21.929   7.767
 2562POPC   C4B35674  21.855  21.793   7.318
 2563POPC   NC335675  11.181  13.828   9.589
 2563POPC   PO435676  11.173  13.209   9.505
 2563POPC   GL135677  11.421  13.434   9.174
 2563POPC   GL235678  11.420  13.807   9.146
 2563POPC   C1A35679  11.560  13.529   8.739
 2563POPC   D2A35680  11.389  13.477   8.344
 2563POPC   C3A35681  11.584  13.479   7.953
 2563POPC   C4A35682  11.273  13.348   7.644
 2563POPC   C1B35683  11.537  14.037   8.801
 2563POPC   C2B35684  11.480  14.149   8.420
 2563POPC   C3B35685  11.381  13.931   8.064
 2563POPC   C4B35686  11.485  13.922   7.653
 2564POPC   NC335687  38.495  21.137   9.549
 2564POPC   PO435688  38.381  21.775   9.505
 2564POPC   GL135689  38.454  21.569   9.094
 2564POPC   GL235690  38.573  21.220   9.073
 2564POPC   C1A35691  38.361  21.419   8.653
 2564POPC   D2A35692  38.447  21.562   8.240
 2564POPC   C3A35693  38.255  21.380   7.853
 2564POPC   C4A35694  37.959  21.606   7.574
 2564POPC   C1B35695  38.715  21.030   8.727
 2564POPC   C2B35696  38.545  21.003   8.348
 2564POPC   C3B35697  38.721  21.175   8.011
 2564POPC   C4B35698  38.639  21.118   7.588
 2565POPC   NC335699   9.353  33.640   9.571
 2565POPC   PO435700   8.906  34.121   9.496
 2565POPC   GL135701   8.847  33.877   9.102
 2565POPC   GL235702   9.119  33.609   9.117
 2565POPC   C1A35703   8.807  34.063   8.664
 2565POPC   D2A35704   8.598  34.132   8.240
 2565POPC   C3A35705   8.829  33.842   7.952
 2565POPC   C4A35706   9.276  33.866   7.802
 2565POPC   C1B35707   9.143  33.673   8.669
 2565POPC   C2B35708   9.188  33.612   8.215
 2565POPC   C3B35709   9.112  33.373   7.796
 2565POPC   C4B35710   9.120  33.186   7.345
 2566POPC   NC335711  30.014  37.230   9.497
 2566POPC   PO435712  30.144  36.679   9.745
 2566POPC   GL135713  30.050  36.774   9.229
 2566POPC   GL235714  29.836  37.031   9.035
 2566POPC   C1A35715  30.012  36.624   8.772
 2566POPC   D2A35716  29.881  36.643   8.329
 2566POPC   C3A35717  30.183  36.754   8.008
 2566POPC   C4A35718  30.128  36.794   7.541
 2566POPC   C1B35719  29.987  37.133   8.612
 2566POPC   C2B35720  30.243  37.211   8.244
 2566POPC   C3B35721  30.205  37.226   7.792
 2566POPC   C4B35722  30.385  37.205   7.345
 2567POPC   NC335723  29.560  17.565   9.486
 2567POPC   PO435724  30.222  17.643   9.550
 2567POPC   GL135725  30.002  17.476   9.210
 2567POPC   GL235726  29.873  17.173   9.341
 2567POPC   C1A35727  29.831  17.667   8.814
 2567POPC   D2A35728  29.738  17.529   8.380
 2567POPC   C3A35729  29.922  17.778   8.047
 2567POPC   C4A35730  29.789  17.758   7.601
 2567POPC   C1B35731  29.674  17.184   8.926
 2567POPC   C2B35732  29.878  17.059   8.550
 2567POPC   C3B35733  29.837  17.059   8.127
 2567POPC   C4B35734  29.939  17.297   7.778
 2568POPC   NC335735   5.179  16.839   9.787
 2568POPC   PO435736   5.819  16.851   9.721
 2568POPC   GL135737   5.441  16.873   9.291
 2568POPC   GL235738   5.090  16.717   9.292
 2568POPC   C1A35739   5.230  16.794   8.824
 2568POPC   D2A35740   5.349  16.711   8.375
 2568POPC   C3A35741   5.078  16.863   8.066
 2568POPC   C4A35742   5.247  16.963   7.666
 2568POPC   C1B35743   4.837  16.489   8.920
 2568POPC   C2B35744   4.900  16.471   8.458
 2568POPC   C3B35745   4.866  16.388   8.021
 2568POPC   C4B35746   4.492  16.420   7.839
 2569POPC   NC335747   3.541  14.771   9.419
 2569POPC   PO435748   3.947  15.114   9.763
 2569POPC   GL135749   3.811  15.131   9.231
 2569POPC   GL235750   3.564  15.392   9.065
 2569POPC   C1A35751   3.790  15.015   8.789
 2569POPC   D2A35752   3.692  14.843   8.385
 2569POPC   C3A35753   3.636  15.142   8.051
 2569POPC   C4A35754   3.549  15.475   7.747
 2569POPC   C1B35755   3.299  15.228   8.686
 2569POPC   C2B35756   3.188  14.853   8.408
 2569POPC   C3B35757   3.287  14.728   8.017
 2569POPC   C4B35758   3.229  15.043   7.733
 2570POPC   NC335759  42.952  18.491   9.621
 2570POPC   PO435760  43.663  18.519   9.489
 2570POPC   GL135761  43.300  18.375   9.246
 2570POPC   GL235762  42.976  18.507   9.129
 2570POPC   C1A35763  43.283  18.207   8.848
 2570POPC   D2A35764  43.135  18.249   8.458
 2570POPC   C3A35765  43.344  18.128   8.076
 2570POPC   C4A35766  43.198  18.186   7.647
 2570POPC   C1B35767  42.786  18.534   8.757
 2570POPC   C2B35768  42.840  18.702   8.362
 2570POPC   C3B35769  42.909  18.425   8.035
 2570POPC   C4B35770  42.697  18.319   7.658
 2571POPC   NC335771  42.183  42.515   9.515
 2571POPC   PO435772  42.570  41.869   9.440
 2571POPC   GL135773  42.409  42.172   9.185
 2571POPC   GL235774  42.067  42.173   9.093
 2571POPC   C1A35775  42.479  42.288   8.781
 2571POPC   D2A35776  42.242  42.282   8.435
 2571POPC   C3A35777  42.472  42.450   8.141
 2571POPC   C4A35778  42.708  42.337   7.802
 2571POPC   C1B35779  41.977  42.519   8.819
 2571POPC   C2B35780  41.882  42.651   8.406
 2571POPC   C3B35781  41.906  42.384   8.041
 2571POPC   C4B35782  42.202  42.300   7.710
 2572POPC   NC335783  30.891  18.121   9.453
 2572POPC   PO435784  31.551  18.413   9.438
 2572POPC   GL135785  31.486  18.336   9.063
 2572POPC   GL235786  31.206  18.163   9.042
 2572POPC   C1A35787  31.312  18.510   8.674
 2572POPC   D2A35788  31.541  18.716   8.388
 2572POPC   C3A35789  31.370  18.627   7.997
 2572POPC   C4A35790  31.504  18.511   7.604
 2572POPC   C1B35791  31.489  18.025   8.678
 2572POPC   C2B35792  31.522  18.206   8.274
 2572POPC   C3B35793  31.375  18.100   7.869
 2572POPC   C4B35794  31.541  17.849   7.522
 2573POPC   NC335795  32.802  17.038   9.474
 2573POPC   PO435796  33.392  16.688   9.454
 2573POPC   GL135797  33.041  16.682   9.203
 2573POPC   GL235798  33.114  17.038   9.059
 2573POPC   C1A35799  32.839  16.675   8.818
 2573POPC   D2A35800  32.927  17.021   8.521
 2573POPC   C3A35801  32.993  16.862   8.071
 2573POPC   C4A35802  32.758  16.498   7.862
 2573POPC   C1B35803  33.329  16.718   8.783
 2573POPC   C2B35804  33.349  16.356   8.549
 2573POPC   C3B35805  33.547  16.338   8.147
 2573POPC   C4B35806  33.280  16.345   7.794
 2574POPC   NC335807  16.832  23.462   9.425
 2574POPC   PO435808  16.360  23.834   9.474
 2574POPC   GL135809  16.614  23.860   9.114
 2574POPC   GL235810  16.952  23.960   9.201
 2574POPC   C1A35811  16.527  23.788   8.654
 2574POPC   D2A35812  16.218  23.819   8.301
 2574POPC   C3A35813  16.332  23.676   7.897
 2574POPC   C4A35814  16.585  23.893   7.605
 2574POPC   C1B35815  17.060  23.750   8.815
 2574POPC   C2B35816  16.969  23.645   8.399
 2574POPC   C3B35817  16.912  23.871   8.015
 2574POPC   C4B35818  17.063  23.651   7.678
 2575POPC   NC335819  35.212  30.970   9.495
 2575POPC   PO435820  34.906  30.429   9.267
 2575POPC   GL135821  35.194  30.720   9.022
 2575POPC   GL235822  35.483  30.931   9.060
 2575POPC   C1A35823  35.187  30.976   8.637
 2575POPC   D2A35824  34.956  30.834   8.261
 2575POPC   C3A35825  35.214  31.049   7.974
 2575POPC   C4A35826  35.261  30.937   7.538
 2575POPC   C1B35827  35.590  30.657   8.711
 2575POPC   C2B35828  35.438  30.637   8.291
 2575POPC   C3B35829  35.266  30.564   7.885
 2575POPC   C4B35830  35.459  30.462   7.493
 2576POPC   NC335831  35.777  39.932   9.538
 2576POPC   PO435832  36.292  40.304   9.506
 2576POPC   GL135833  36.311  40.073   9.115
 2576POPC   GL235834  36.076  39.786   9.151
 2576POPC   C1A35835  36.303  39.855   8.710
 2576POPC   D2A35836  36.102  40.030   8.388
 2576POPC   C3A35837  36.221  39.919   8.056
 2576POPC   C4A35838  36.177  40.055   7.706
 2576POPC   C1B35839  35.809  39.693   8.809
 2576POPC   C2B35840  35.607  39.908   8.463
 2576POPC   C3B35841  35.688  39.998   8.041
 2576POPC   C4B35842  35.733  39.800   7.656
 2577POPC   NC335843  41.942   4.547   9.338
 2577POPC   PO435844  41.532   4.002   9.506
 2577POPC   GL135845  41.467   4.323   9.199
 2577POPC   GL235846  41.738   4.183   9.053
 2577POPC   C1A35847  41.350   4.510   8.802
 2577POPC   D2A35848  41.505   4.553   8.401
 2577POPC   C3A35849  41.299   4.421   8.061
 2577POPC   C4A35850  41.592   4.472   7.769
 2577POPC   C1B35851  41.688   4.131   8.654
 2577POPC   C2B35852  41.526   3.932   8.332
 2577POPC   C3B35853  41.521   3.961   7.939
 2577POPC   C4B35854  41.264   4.106   7.661
 2578POPC   NC335855  31.425  19.607   9.565
 2578POPC   PO435856  31.785  20.009   9.479
 2578POPC   GL135857  31.542  19.839   9.111
 2578POPC   GL235858  31.236  19.982   9.142
 2578POPC   C1A35859  31.526  19.732   8.656
 2578POPC   D2A35860  31.676  19.845   8.248
 2578POPC   C3A35861  31.722  19.586   7.924
 2578POPC   C4A35862  31.613  19.930   7.675
 2578POPC   C1B35863  31.171  20.152   8.701
 2578POPC   C2B35864  31.234  20.090   8.269
 2578POPC   C3B35865  31.254  20.259   7.828
 2578POPC   C4B35866  31.202  20.079   7.428
 2579POPC   NC335867   3.391  28.704   9.485
 2579POPC   PO435868   3.976  28.361   9.537
 2579POPC   GL135869   3.692  28.425   9.158
 2579POPC   GL235870   3.355  28.262   9.184
 2579POPC   C1A35871   3.638  28.289   8.707
 2579POPC   D2A35872   3.669  28.494   8.297
 2579POPC   C3A35873   3.788  28.276   7.921
 2579POPC   C4A35874   3.940  28.490   7.573
 2579POPC   C1B35875   3.186  28.489   8.817
 2579POPC   C2B35876   3.185  28.361   8.386
 2579POPC   C3B35877   3.280  28.433   7.939
 2579POPC   C4B35878   3.433  28.680   7.557
 2580POPC   NC335879   9.265  11.498   9.390
 2580POPC   PO435880   8.661  11.715   9.274
 2580POPC   GL135881   8.891  11.423   9.037
 2580POPC   GL235882   9.183  11.198   9.001
 2580POPC   C1A35883   9.060  11.540   8.652
 2580POPC   D2A35884   8.958  11.361   8.276
 2580POPC   C3A35885   8.692  11.487   7.959
 2580POPC   C4A35886   8.830  11.486   7.509
 2580POPC   C1B35887   8.959  11.012   8.655
 2580POPC   C2B35888   9.061  10.808   8.248
 2580POPC   C3B35889   9.088  11.090   7.872
 2580POPC   C4B35890   9.283  11.482   7.884
 2581POPC   NC335891  42.224  24.458   9.499
 2581POPC   PO435892  42.827  24.844   9.500
 2581POPC   GL135893  42.573  24.596   9.130
 2581POPC   GL235894  42.241  24.328   9.026
 2581POPC   C1A35895  42.461  24.616   8.687
 2581POPC   D2A35896  42.306  24.366   8.365
 2581POPC   C3A35897  42.312  24.629   8.029
 2581POPC   C4A35898  42.549  24.584   7.687
 2581POPC   C1B35899  42.539  24.091   8.763
 2581POPC   C2B35900  42.690  23.979   8.358
 2581POPC   C3B35901  42.685  24.135   7.941
 2581POPC   C4B35902  42.900  24.120   7.541
 2582POPC   NC335903  19.323  10.191   9.536
 2582POPC   PO435904  18.881  10.740   9.631
 2582POPC   GL135905  18.935  10.504   9.212
 2582POPC   GL235906  19.264  10.426   9.100
 2582POPC   C1A35907  18.994  10.674   8.748
 2582POPC   D2A35908  18.934  10.602   8.299
 2582POPC   C3A35909  19.206  10.744   7.956
 2582POPC   C4A35910  19.006  10.655   7.521
 2582POPC   C1B35911  19.198  10.205   8.709
 2582POPC   C2B35912  19.190  10.173   8.279
 2582POPC   C3B35913  19.032  10.288   7.905
 2582POPC   C4B35914  19.352  10.304   7.623
 2583POPC   NC335915  38.732   4.129   9.546
 2583POPC   PO435916  39.365   4.463   9.576
 2583POPC   GL135917  39.391   4.317   9.167
 2583POPC   GL235918  39.107   4.171   9.206
 2583POPC   C1A35919  39.380   4.467   8.733
 2583POPC   D2A35920  39.535   4.414   8.288
 2583POPC   C3A35921  39.444   4.379   7.843
 2583POPC   C4A35922  39.566   4.579   7.440
 2583POPC   C1B35923  38.959   4.091   8.832
 2583POPC   C2B35924  39.089   4.158   8.441
 2583POPC   C3B35925  39.172   4.000   8.075
 2583POPC   C4B35926  38.926   4.027   7.706
 2584POPC   NC335927  40.246   7.854   9.436
 2584POPC   PO435928  39.682   7.586   9.534
 2584POPC   GL135929  40.031   7.437   9.240
 2584POPC   GL235930  40.295   7.611   9.009
 2584POPC   C1A35931  39.985   7.230   8.858
 2584POPC   D2A35932  39.890   7.313   8.433
 2584POPC   C3A35933  40.166   7.157   8.116
 2584POPC   C4A35934  39.872   7.107   7.795
 2584POPC   C1B35935  40.341   7.535   8.606
 2584POPC   C2B35936  40.129   7.756   8.331
 2584POPC   C3B35937  39.973   7.613   8.000
 2584POPC   C4B35938  40.217   7.502   7.728
 2585POPC   NC335939  42.031   6.158   9.662
 2585POPC   PO435940  42.456   5.753   9.255
 2585POPC   GL135941  42.404   5.556   8.928
 2585POPC   GL235942  42.032   5.527   9.052
 2585POPC   C1A35943  42.541   5.854   8.578
 2585POPC   D2A35944  42.376   6.080   8.195
 2585POPC   C3A35945  42.636   6.029   7.803
 2585POPC   C4A35946  42.489   5.835   7.401
 2585POPC   C1B35947  42.047   5.689   8.619
 2585POPC   C2B35948  42.264   5.588   8.237
 2585POPC   C3B35949  42.206   5.707   7.821
 2585POPC   C4B35950  42.072   5.535   7.417
 2586POPC   NC335951  42.698   2.376   9.284
 2586POPC   PO435952  42.207   1.988   9.520
 2586POPC   GL135953  42.352   2.023   9.126
 2586POPC   GL235954  42.382   1.669   9.037
 2586POPC   C1A35955  42.501   2.075   8.719
 2586POPC   D2A35956  42.366   1.882   8.364
 2586POPC   C3A35957  42.426   2.155   8.029
 2586POPC   C4A35958  42.428   2.032   7.619
 2586POPC   C1B35959  42.700   1.590   8.726
 2586POPC   C2B35960  42.879   1.846   8.379
 2586POPC   C3B35961  42.783   1.801   7.951
 2586POPC   C4B35962  42.932   2.034   7.630
 2587POPC   NC335963  25.855  16.827   9.484
 2587POPC   PO435964  26.401  16.515   9.525
 2587POPC   GL135965  26.195  16.635   9.152
 2587POPC   GL235966  25.829  16.521   9.083
 2587POPC   C1A35967  26.166  16.809   8.756
 2587POPC   D2A35968  26.035  16.833   8.350
 2587POPC   C3A35969  26.202  16.625   8.002
 2587POPC   C4A35970  26.102  16.946   7.763
 2587POPC   C1B35971  25.659  16.795   8.755
 2587POPC   C2B35972  25.561  16.990   8.360
 2587POPC   C3B35973  25.667  16.779   7.981
 2587POPC   C4B35974  25.687  16.795   7.528
 2588POPC   NC335975  39.483   3.917   9.484
 2588POPC   PO435976  39.487   3.237   9.485
 2588POPC   GL135977  39.251   3.377   9.169
 2588POPC   GL235978  39.290   3.715   9.072
 2588POPC   C1A35979  39.053   3.369   8.806
 2588POPC   D2A35980  39.160   3.651   8.511
 2588POPC   C3A35981  39.041   3.488   8.163
 2588POPC   C4A35982  39.135   3.537   7.773
 2588POPC   C1B35983  39.465   3.979   8.800
 2588POPC   C2B35984  39.584   3.910   8.422
 2588POPC   C3B35985  39.540   3.648   8.108
 2588POPC   C4B35986  39.514   3.851   7.743
 2589POPC   NC335987  14.808  41.343   9.464
 2589POPC   PO435988  15.439  41.692   9.601
 2589POPC   GL135989  15.345  41.349   9.295
 2589POPC   GL235990  15.070  41.458   9.061
 2589POPC   C1A35991  15.416  41.154   8.873
 2589POPC   D2A35992  15.412  41.376   8.481
 2589POPC   C3A35993  15.210  41.329   8.080
 2589POPC   C4A35994  15.395  41.420   7.665
 2589POPC   C1B35995  15.161  41.756   8.758
 2589POPC   C2B35996  15.029  41.746   8.336
 2589POPC   C3B35997  15.229  41.848   7.952
 2589POPC   C4B35998  15.597  41.954   7.746
 2590POPC   NC335999  31.814  40.190   9.658
 2590POPC   PO436000  31.264  39.837   9.554
 2590POPC   GL136001  31.564  39.807   9.210
 2590POPC   GL236002  31.300  39.938   9.019
 2590POPC   C1A36003  31.749  39.926   8.784
 2590POPC   D2A36004  31.550  40.097   8.456
 2590POPC   C3A36005  31.570  39.883   8.092
 2590POPC   C4A36006  31.594  40.107   7.742
 2590POPC   C1B36007  31.184  40.312   8.789
 2590POPC   C2B36008  31.015  40.373   8.378
 2590POPC   C3B36009  31.141  40.183   8.022
 2590POPC   C4B36010  31.110  40.026   7.633
 2591POPC   NC336011  23.522  41.322   9.688
 2591POPC   PO436012  23.523  41.863   9.374
 2591POPC   GL136013  23.779  41.532   9.224
 2591POPC   GL236014  23.500  41.321   9.170
 2591POPC   C1A36015  23.996  41.541   8.813
 2591POPC   D2A36016  23.989  41.454   8.361
 2591POPC   C3A36017  23.927  41.748   8.003
 2591POPC   C4A36018  23.938  41.534   7.603
 2591POPC   C1B36019  23.480  41.480   8.760
 2591POPC   C2B36020  23.474  41.333   8.339
 2591POPC   C3B36021  23.523  41.433   7.914
 2591POPC   C4B36022  23.409  41.456   7.484
 2592POPC   NC336023  41.769  22.103   9.281
 2592POPC   PO436024  42.371  22.240   9.583
 2592POPC   GL136025  42.502  22.138   9.158
 2592POPC   GL236026  42.668  21.800   9.051
 2592POPC   C1A36027  42.489  22.496   8.882
 2592POPC   D2A36028  42.575  22.571   8.460
 2592POPC   C3A36029  42.315  22.554   8.097
 2592POPC   C4A36030  42.419  22.219   7.852
 2592POPC   C1B36031  42.443  21.930   8.660
 2592POPC   C2B36032  42.191  22.066   8.293
 2592POPC   C3B36033  41.971  21.932   7.901
 2592POPC   C4B36034  42.004  21.761   7.475
 2593POPC   NC336035  39.542  21.890   9.611
 2593POPC   PO436036  39.099  22.365   9.529
 2593POPC   GL136037  39.386  22.210   9.204
 2593POPC   GL236038  39.274  21.847   9.170
 2593POPC   C1A36039  39.505  22.085   8.772
 2593POPC   D2A36040  39.657  21.997   8.349
 2593POPC   C3A36041  39.364  21.976   7.987
 2593POPC   C4A36042  39.426  22.239   7.600
 2593POPC   C1B36043  38.982  22.030   8.882
 2593POPC   C2B36044  38.860  21.933   8.465
 2593POPC   C3B36045  38.820  22.111   8.054
 2593POPC   C4B36046  38.958  22.026   7.647
 2594POPC   NC336047  42.920  27.673   9.792
 2594POPC   PO436048  42.312  27.558   9.425
 2594POPC   GL136049  42.530  27.482   9.026
 2594POPC   GL236050  42.651  27.784   8.996
 2594POPC   C1A36051  42.296  27.249   8.717
 2594POPC   D2A36052  42.032  27.412   8.403
 2594POPC   C3A36053  42.350  27.494   8.104
 2594POPC   C4A36054  42.476  27.232   7.765
 2594POPC   C1B36055  42.324  27.804   8.665
 2594POPC   C2B36056  42.399  28.013   8.273
 2594POPC   C3B36057  42.433  27.958   7.858
 2594POPC   C4B36058  42.427  27.762   7.494
 2595POPC   NC336059   2.182  41.006   9.539
 2595POPC   PO436060   1.853  40.401   9.663
 2595POPC   GL136061   1.740  40.546   9.193
 2595POPC   GL236062   2.038  40.718   9.111
 2595POPC   C1A36063   1.728  40.663   8.704
 2595POPC   D2A36064   1.926  40.897   8.355
 2595POPC   C3A36065   1.936  40.682   7.962
 2595POPC   C4A36066   1.978  40.484   7.576
 2595POPC   C1B36067   2.210  40.895   8.765
 2595POPC   C2B36068   2.430  41.074   8.463
 2595POPC   C3B36069   2.460  40.947   8.083
 2595POPC   C4B36070   2.237  40.960   7.687
 2596POPC   NC336071  18.263   1.700   9.466
 2596POPC   PO436072  17.912   2.267   9.474
 2596POPC   GL136073  17.981   1.997   9.118
 2596POPC   GL236074  18.325   1.899   9.012
 2596POPC   C1A36075  18.006   2.106   8.676
 2596POPC   D2A36076  18.367   2.267   8.448
 2596POPC   C3A36077  18.541   2.062   8.128
 2596POPC   C4A36078  18.377   2.151   7.750
 2596POPC   C1B36079  18.222   1.613   8.689
 2596POPC   C2B36080  18.438   1.545   8.309
 2596POPC   C3B36081  18.405   1.626   7.872
 2596POPC   C4B36082  18.040   1.773   7.660
 2597POPC   NC336083  31.437  41.666   9.495
 2597POPC   PO436084  31.414  40.912   9.503
 2597POPC   GL136085  31.474  41.234   9.191
 2597POPC   GL236086  31.168  41.458   9.115
 2597POPC   C1A36087  31.511  41.381   8.771
 2597POPC   D2A36088  31.529  41.278   8.375
 2597POPC   C3A36089  31.390  41.550   8.060
 2597POPC   C4A36090  31.385  41.281   7.723
 2597POPC   C1B36091  31.084  41.702   8.697
 2597POPC   C2B36092  31.177  42.004   8.334
 2597POPC   C3B36093  31.207  42.034   7.855
 2597POPC   C4B36094  31.078  41.978   7.382
 2598POPC   NC336095   4.156  42.910   9.593
 2598POPC   PO436096   4.591  43.356   9.634
 2598POPC   GL136097   4.450  43.135   9.227
 2598POPC   GL236098   4.606  42.778   9.207
 2598POPC   C1A36099   4.157  43.260   8.856
 2598POPC   D2A36100   3.889  43.241   8.467
 2598POPC   C3A36101   4.119  43.335   8.119
 2598POPC   C4A36102   4.089  43.211   7.700
 2598POPC   C1B36103   4.335  42.792   8.805
 2598POPC   C2B36104   4.174  42.840   8.387
 2598POPC   C3B36105   4.363  42.901   8.000
 2598POPC   C4B36106   4.564  43.023   7.612
 2599POPC   NC336107   6.121  19.019   9.797
 2599POPC   PO436108   6.724  19.233   9.497
 2599POPC   GL136109   6.787  18.929   9.157
 2599POPC   GL236110   6.926  19.148   8.914
 2599POPC   C1A36111   6.549  18.836   8.764
 2599POPC   D2A36112   6.568  18.679   8.378
 2599POPC   C3A36113   6.357  18.888   8.026
 2599POPC   C4A36114   6.456  19.024   7.633
 2599POPC   C1B36115   7.010  18.937   8.559
 2599POPC   C2B36116   6.763  19.130   8.239
 2599POPC   C3B36117   6.913  19.244   7.870
 2599POPC   C4B36118   7.199  18.995   7.702
 2600POPC   NC336119  13.926  17.401   9.458
 2600POPC   PO436120  14.604  17.291   9.627
 2600POPC   GL136121  14.482  17.655   9.283
 2600POPC   GL236122  14.164  17.678   9.096
 2600POPC   C1A36123  14.557  17.633   8.805
 2600POPC   D2A36124  14.509  17.389   8.413
 2600POPC   C3A36125  14.629  17.512   8.008
 2600POPC   C4A36126  14.493  17.551   7.554
 2600POPC   C1B36127  14.074  17.488   8.687
 2600POPC   C2B36128  14.048  17.231   8.272
 2600POPC   C3B36129  14.101  17.475   7.892
 2600POPC   C4B36130  13.854  17.829   7.744
 2601POPC   NC336131  42.865  13.902   9.503
 2601POPC   PO436132  43.273  13.712   9.792
 2601POPC   GL136133  43.303  13.692   9.282
 2601POPC   GL236134  43.632  13.750   9.087
 2601POPC   C1A36135  43.191  13.659   8.794
 2601POPC   D2A36136  43.151  13.554   8.316
 2601POPC   C3A36137  43.000  13.734   7.892
 2601POPC   C4A36138  42.924  13.557   7.452
 2601POPC   C1B36139  43.546  14.012   8.698
 2601POPC   C2B36140  43.325  14.061   8.272
 2601POPC   C3B36141  43.413  14.027   7.824
 2601POPC   C4B36142  43.422  13.716   7.486
 2602POPC   NC336143  44.277  27.994   9.435
 2602POPC   PO436144  44.788  28.466   9.590
 2602POPC   GL136145  44.654  28.270   9.195
 2602POPC   GL236146  44.735  27.932   9.197
 2602POPC   C1A36147  44.732  28.259   8.745
 2602POPC   D2A36148  44.866  28.126   8.342
 2602POPC   C3A36149  44.588  28.380   8.120
 2602POPC   C4A36150  44.754  28.305   7.762
 2602POPC   C1B36151  44.507  27.815   8.809
 2602POPC   C2B36152  44.387  28.005   8.400
 2602POPC   C3B36153  44.473  27.905   7.976
 2602POPC   C4B36154  44.341  28.055   7.588
 2603POPC   NC336155  16.473  20.245   9.536
 2603POPC   PO436156  17.066  19.868   9.590
 2603POPC   GL136157  16.805  19.919   9.258
 2603POPC   GL236158  16.736  19.544   9.235
 2603POPC   C1A36159  16.852  19.956   8.819
 2603POPC   D2A36160  16.471  19.963   8.554
 2603POPC   C3A36161  16.552  19.909   8.123
 2603POPC   C4A36162  16.740  20.170   7.782
 2603POPC   C1B36163  16.586  19.519   8.810
 2603POPC   C2B36164  16.819  19.594   8.444
 2603POPC   C3B36165  16.969  19.529   8.045
 2603POPC   C4B36166  16.744  19.689   7.702
 2604POPC   NC336167  20.337  12.421   9.509
 2604POPC   PO436168  20.346  11.797   9.504
 2604POPC   GL136169  20.535  11.954   9.127
 2604POPC   GL236170  20.474  12.297   9.023
 2604POPC   C1A36171  20.434  11.940   8.674
 2604POPC   D2A36172  20.230  12.083   8.289
 2604POPC   C3A36173  20.393  11.879   7.918
 2604POPC   C4A36174  20.791  11.679   7.951
 2604POPC   C1B36175  20.511  12.438   8.566
 2604POPC   C2B36176  20.660  12.287   8.120
 2604POPC   C3B36177  20.719  12.196   7.655
 2604POPC   C4B36178  20.576  12.345   7.220
 2605POPC   NC336179  23.120  17.017   9.431
 2605POPC   PO436180  22.615  16.564   9.510
 2605POPC   GL136181  23.010  16.584   9.174
 2605POPC   GL236182  23.085  16.915   8.945
 2605POPC   C1A36183  23.210  16.496   8.739
 2605POPC   D2A36184  23.197  16.802   8.404
 2605POPC   C3A36185  23.303  16.705   7.990
 2605POPC   C4A36186  23.116  16.661   7.589
 2605POPC   C1B36187  22.826  17.096   8.600
 2605POPC   C2B36188  22.920  17.285   8.236
 2605POPC   C3B36189  22.907  17.068   7.852
 2605POPC   C4B36190  22.714  16.924   7.468
 2606POPC   NC336191  43.557  22.128   9.394
 2606POPC   PO436192  44.106  22.526   9.441
 2606POPC   GL136193  44.091  22.269   9.022
 2606POPC   GL236194  44.305  21.933   8.980
 2606POPC   C1A36195  43.853  22.189   8.669
 2606POPC   D2A36196  43.492  22.218   8.410
 2606POPC   C3A36197  43.592  22.410   7.999
 2606POPC   C4A36198  44.000  22.423   7.708
 2606POPC   C1B36199  44.017  21.692   8.720
 2606POPC   C2B36200  43.857  21.791   8.346
 2606POPC   C3B36201  43.973  22.099   8.116
 2606POPC   C4B36202  44.177  21.959   7.755
 2607POPC   NC336203   6.388  14.113   9.844
 2607POPC   PO436204   6.791  14.565   9.504
 2607POPC   GL136205   6.916  14.243   9.222
 2607POPC   GL236206   6.652  14.319   9.033
 2607POPC   C1A36207   7.016  14.160   8.760
 2607POPC   D2A36208   6.862  14.073   8.342
 2607POPC   C3A36209   6.684  14.420   8.119
 2607POPC   C4A36210   6.769  14.591   7.733
 2607POPC   C1B36211   6.528  14.388   8.626
 2607POPC   C2B36212   6.460  14.784   8.393
 2607POPC   C3B36213   6.332  14.752   7.965
 2607POPC   C4B36214   6.275  14.428   7.672
 2608POPC   NC336215   8.501  20.559   9.418
 2608POPC   PO436216   7.742  20.436   9.462
 2608POPC   GL136217   8.042  20.561   9.184
 2608POPC   GL236218   8.077  20.897   9.295
 2608POPC   C1A36219   8.300  20.628   8.807
 2608POPC   D2A36220   8.333  20.840   8.432
 2608POPC   C3A36221   8.345  20.620   8.086
 2608POPC   C4A36222   8.362  20.404   7.732
 2608POPC   C1B36223   7.963  21.049   8.888
 2608POPC   C2B36224   7.876  21.032   8.458
 2608POPC   C3B36225   7.861  20.858   8.076
 2608POPC   C4B36226   8.000  20.761   7.713
 2609POPC   NC336227   7.168   6.743   9.249
 2609POPC   PO436228   6.536   6.708   9.533
 2609POPC   GL136229   6.510   6.712   9.102
 2609POPC   GL236230   6.349   7.042   9.098
 2609POPC   C1A36231   6.626   6.537   8.663
 2609POPC   D2A36232   6.695   6.654   8.204
 2609POPC   C3A36233   6.866   6.420   7.876
 2609POPC   C4A36234   6.676   6.300   7.430
 2609POPC   C1B36235   6.219   6.859   8.715
 2609POPC   C2B36236   6.074   6.959   8.329
 2609POPC   C3B36237   6.237   6.938   7.944
 2609POPC   C4B36238   6.487   6.676   7.706
 2610POPC   NC336239  29.599   7.855   9.548
 2610POPC   PO436240  29.110   8.410   9.518
 2610POPC   GL136241  29.072   8.209   9.151
 2610POPC   GL236242  29.387   8.109   9.104
 2610POPC   C1A36243  28.958   8.060   8.748
 2610POPC   D2A36244  28.963   7.800   8.401
 2610POPC   C3A36245  28.988   8.058   8.030
 2610POPC   C4A36246  28.803   8.122   7.623
 2610POPC   C1B36247  29.397   8.330   8.668
 2610POPC   C2B36248  29.487   8.618   8.289
 2610POPC   C3B36249  29.500   8.643   7.832
 2610POPC   C4B36250  29.299   8.308   7.617
 2611POPC   NC336251  22.478  14.077   9.483
 2611POPC   PO436252  22.682  14.722   9.532
 2611POPC   GL136253  22.917  14.643   9.164
 2611POPC   GL236254  23.180  14.374   9.162
 2611POPC   C1A36255  22.787  14.704   8.752
 2611POPC   D2A36256  22.985  14.829   8.373
 2611POPC   C3A36257  22.872  14.596   7.988
 2611POPC   C4A36258  22.700  14.515   7.577
 2611POPC   C1B36259  22.973  14.220   8.764
 2611POPC   C2B36260  22.886  13.984   8.344
 2611POPC   C3B36261  22.852  14.083   7.886
 2611POPC   C4B36262  23.260  14.266   7.751
 2612POPC   NC336263  11.573  37.833   9.459
 2612POPC   PO436264  12.146  37.547   9.420
 2612POPC   GL136265  12.084  37.809   9.081
 2612POPC   GL236266  11.834  38.022   9.003
 2612POPC   C1A36267  12.093  37.526   8.728
 2612POPC   D2A36268  12.376  37.427   8.385
 2612POPC   C3A36269  12.202  37.545   7.985
 2612POPC   C4A36270  12.272  37.610   7.544
 2612POPC   C1B36271  12.059  38.008   8.570
 2612POPC   C2B36272  12.152  38.059   8.097
 2612POPC   C3B36273  11.896  37.930   7.752
 2612POPC   C4B36274  11.805  37.700   7.392
 2613POPC   NC336275   1.154  44.375   9.291
 2613POPC   PO436276   1.722  44.595   9.383
 2613POPC   GL136277   1.443  44.753   9.037
 2613POPC   GL236278   1.086  44.888   9.081
 2613POPC   C1A36279   1.218  44.568   8.675
 2613POPC   D2A36280   0.911  44.665   8.375
 2613POPC   C3A36281   1.119  44.560   8.018
 2613POPC   C4A36282   1.456  44.364   7.831
 2613POPC   C1B36283   1.159   0.069   8.644
 2613POPC   C2B36284   1.367  44.964   8.233
 2613POPC   C3B36285   1.435  44.876   7.769
 2613POPC   C4B36286   1.675   0.060   7.414
 2614POPC   NC336287  23.193  10.256   9.541
 2614POPC   PO436288  22.696  10.718   9.504
 2614POPC   GL136289  22.704  10.487   9.113
 2614POPC   GL236290  23.066  10.435   9.082
 2614POPC   C1A36291  22.792  10.561   8.682
 2614POPC   D2A36292  23.113  10.682   8.418
 2614POPC   C3A36293  22.921  10.663   8.032
 2614POPC   C4A36294  23.117  10.972   7.884
 2614POPC   C1B36295  23.275  10.291   8.712
 2614POPC   C2B36296  23.089  10.188   8.307
 2614POPC   C3B36297  22.956  10.186   7.905
 2614POPC   C4B36298  23.208  10.099   7.596
 2615POPC   NC336299  21.378  30.772   9.537
 2615POPC   PO436300  21.387  30.172   9.767
 2615POPC   GL136301  21.210  30.370   9.271
 2615POPC   GL236302  21.375  30.664   9.032
 2615POPC   C1A36303  21.034  30.396   8.797
 2615POPC   D2A36304  21.323  30.606   8.503
 2615POPC   C3A36305  21.445  30.504   8.089
 2615POPC   C4A36306  21.283  30.606   7.703
 2615POPC   C1B36307  21.493  31.032   8.742
 2615POPC   C2B36308  21.557  31.006   8.284
 2615POPC   C3B36309  21.208  31.019   7.981
 2615POPC   C4B36310  21.188  31.069   7.521
 2616POPC   NC336311  20.359  25.978   9.500
 2616POPC   PO436312  21.023  25.728   9.585
 2616POPC   GL136313  20.776  25.788   9.208
 2616POPC   GL236314  20.449  25.604   9.186
 2616POPC   C1A36315  20.667  26.005   8.798
 2616POPC   D2A36316  20.740  26.243   8.393
 2616POPC   C3A36317  20.650  26.094   7.947
 2616POPC   C4A36318  20.880  26.359   7.635
 2616POPC   C1B36319  20.290  25.627   8.782
 2616POPC   C2B36320  20.352  25.848   8.385
 2616POPC   C3B36321  20.290  25.705   7.963
 2616POPC   C4B36322  20.257  25.847   7.521
 2617POPC   NC336323  27.887  35.976   9.416
 2617POPC   PO436324  28.601  35.969   9.421
 2617POPC   GL136325  28.334  36.132   9.112
 2617POPC   GL236326  28.153  35.850   8.993
 2617POPC   C1A36327  28.396  36.414   8.749
 2617POPC   D2A36328  28.256  36.465   8.328
 2617POPC   C3A36329  28.445  36.288   7.943
 2617POPC   C4A36330  28.355  36.410   7.533
 2617POPC   C1B36331  28.150  35.987   8.578
 2617POPC   C2B36332  28.057  35.975   8.154
 2617POPC   C3B36333  28.248  35.816   7.819
 2617POPC   C4B36334  28.298  35.922   7.411
 2618POPC   NC336335  32.132  36.270   9.411
 2618POPC   PO436336  32.488  35.793   9.739
 2618POPC   GL136337  32.346  35.854   9.226
 2618POPC   GL236338  32.537  36.122   9.120
 2618POPC   C1A36339  32.117  36.045   8.799
 2618POPC   D2A36340  31.948  36.119   8.378
 2618POPC   C3A36341  32.229  36.037   8.074
 2618POPC   C4A36342  32.348  36.148   7.684
 2618POPC   C1B36343  32.567  35.820   8.765
 2618POPC   C2B36344  32.380  35.661   8.420
 2618POPC   C3B36345  32.673  35.790   8.149
 2618POPC   C4B36346  32.775  35.923   7.770
 2619POPC   NC336347  10.129  44.257   9.339
 2619POPC   PO436348  10.480  43.744   9.673
 2619POPC   GL136349  10.468  43.757   9.200
 2619POPC   GL236350  10.535  44.076   9.069
 2619POPC   C1A36351  10.274  43.578   8.771
 2619POPC   D2A36352  10.193  43.780   8.353
 2619POPC   C3A36353  10.418  43.751   8.014
 2619POPC   C4A36354  10.437  43.639   7.604
 2619POPC   C1B36355  10.586  43.950   8.642
 2619POPC   C2B36356  10.718  44.118   8.232
 2619POPC   C3B36357  10.572  44.203   7.812
 2619POPC   C4B36358  10.460  44.098   7.386
 2620POPC   NC336359   6.409  30.131   9.548
 2620POPC   PO436360   6.307  29.470   9.425
 2620POPC   GL136361   6.576  29.705   9.151
 2620POPC   GL236362   6.590  30.060   9.102
 2620POPC   C1A36363   6.751  29.766   8.747
 2620POPC   D2A36364   6.890  30.013   8.433
 2620POPC   C3A36365   6.731  29.849   8.079
 2620POPC   C4A36366   6.911  29.946   7.691
 2620POPC   C1B36367   6.454  30.368   8.828
 2620POPC   C2B36368   6.430  30.245   8.410
 2620POPC   C3B36369   6.518  30.280   7.981
 2620POPC   C4B36370   6.423  29.958   7.667
 2621POPC   NC336371  22.440  39.763   9.232
 2621POPC   PO436372  21.869  39.716   9.584
 2621POPC   GL136373  21.967  40.044   9.264
 2621POPC   GL236374  22.016  39.876   8.997
 2621POPC   C1A36375  21.959  40.342   8.863
 2621POPC   D2A36376  21.718  40.289   8.485
 2621POPC   C3A36377  21.876  40.383   8.066
 2621POPC   C4A36378  21.990  40.173   7.701
 2621POPC   C1B36379  22.161  39.930   8.591
 2621POPC   C2B36380  22.197  39.950   8.133
 2621POPC   C3B36381  22.422  39.827   7.763
 2621POPC   C4B36382  22.577  39.860   7.299
 2622POPC   NC336383  28.200   0.110   9.632
 2622POPC   PO436384  28.454   0.659   9.823
 2622POPC   GL136385  28.508   0.542   9.332
 2622POPC   GL236386  28.280   0.321   9.171
 2622POPC   C1A36387  28.633   0.547   8.865
 2622POPC   D2A36388  28.467   0.420   8.444
 2622POPC   C3A36389  28.608   0.513   7.999
 2622POPC   C4A36390  28.496   0.705   7.603
 2622POPC   C1B36391  27.923   0.342   8.876
 2622POPC   C2B36392  27.979   0.269   8.429
 2622POPC   C3B36393  28.229   0.132   8.085
 2622POPC   C4B36394  28.169   0.161   7.668
 2623POPC   NC336395  35.903  19.303   9.357
 2623POPC   PO436396  36.620  19.109   9.269
 2623POPC   GL136397  36.239  19.021   9.091
 2623POPC   GL236398  36.032  18.740   9.150
 2623POPC   C1A36399  36.093  19.213   8.725
 2623POPC   D2A36400  36.087  19.445   8.338
 2623POPC   C3A36401  36.457  19.316   8.096
 2623POPC   C4A36402  36.285  19.001   7.859
 2623POPC   C1B36403  35.905  18.717   8.729
 2623POPC   C2B36404  35.997  18.879   8.296
 2623POPC   C3B36405  35.761  18.880   7.884
 2623POPC   C4B36406  35.732  18.907   7.398
 2624POPC   NC336407  27.601  34.155   9.686
 2624POPC   PO436408  27.274  33.750   9.381
 2624POPC   GL136409  27.683  33.802   9.228
 2624POPC   GL236410  27.632  34.076   9.059
 2624POPC   C1A36411  27.730  33.611   8.823
 2624POPC   D2A36412  27.466  33.547   8.461
 2624POPC   C3A36413  27.557  33.824   8.120
 2624POPC   C4A36414  27.726  33.655   7.771
 2624POPC   C1B36415  27.314  33.944   8.756
 2624POPC   C2B36416  27.088  33.914   8.375
 2624POPC   C3B36417  27.131  34.095   7.989
 2624POPC   C4B36418  27.317  33.938   7.629
 2625POPC   NC336419   0.097  36.621   9.505
 2625POPC   PO436420   0.156  37.313   9.427
 2625POPC   GL136421   0.271  37.031   9.148
 2625POPC   GL236422   0.570  36.883   9.256
 2625POPC   C1A36423   0.195  36.947   8.712
 2625POPC   D2A36424   0.481  36.965   8.372
 2625POPC   C3A36425   0.377  37.057   7.975
 2625POPC   C4A36426   0.234  36.812   7.638
 2625POPC   C1B36427   0.688  37.060   8.850
 2625POPC   C2B36428   0.944  36.814   8.517
 2625POPC   C3B36429   0.889  36.733   8.096
 2625POPC   C4B36430   0.841  36.974   7.721
 2626POPC   NC336431  38.910  36.792   9.575
 2626POPC   PO436432  39.366  37.205   9.237
 2626POPC   GL136433  39.092  36.913   9.106
 2626POPC   GL236434  39.239  36.610   9.201
 2626POPC   C1A36435  38.910  36.680   8.773
 2626POPC   D2A36436  39.106  36.583   8.365
 2626POPC   C3A36437  39.241  36.981   8.189
 2626POPC   C4A36438  39.302  37.170   7.773
 2626POPC   C1B36439  39.464  36.667   8.803
 2626POPC   C2B36440  39.607  36.443   8.462
 2626POPC   C3B36441  39.594  36.602   8.073
 2626POPC   C4B36442  39.242  36.676   7.787
 2627POPC   NC336443  22.499   2.273   9.321
 2627POPC   PO436444  21.994   1.931   9.421
 2627POPC   GL136445  22.118   2.019   9.050
 2627POPC   GL236446  22.011   2.345   9.000
 2627POPC   C1A36447  22.282   2.072   8.650
 2627POPC   D2A36448  22.040   1.979   8.283
 2627POPC   C3A36449  22.218   1.824   7.933
 2627POPC   C4A36450  22.469   2.135   7.762
 2627POPC   C1B36451  21.751   2.089   8.708
 2627POPC   C2B36452  21.528   2.180   8.323
 2627POPC   C3B36453  21.759   2.350   8.016
 2627POPC   C4B36454  21.951   2.165   7.668
 2628POPC   NC336455  28.372  22.680   9.466
 2628POPC   PO436456  28.729  23.290   9.532
 2628POPC   GL136457  28.478  23.231   9.151
 2628POPC   GL236458  28.551  22.912   9.052
 2628POPC   C1A36459  28.126  23.142   8.847
 2628POPC   D2A36460  27.993  23.005   8.446
 2628POPC   C3A36461  28.225  23.272   8.158
 2628POPC   C4A36462  28.183  23.347   7.717
 2628POPC   C1B36463  28.387  22.722   8.676
 2628POPC   C2B36464  28.390  22.778   8.211
 2628POPC   C3B36465  28.543  22.733   7.807
 2628POPC   C4B36466  28.596  22.647   7.382
 2629POPC   NC336467  11.762  21.684   9.587
 2629POPC   PO436468  12.368  21.707   9.215
 2629POPC   GL136469  12.005  21.445   9.202
 2629POPC   GL236470  11.720  21.624   9.080
 2629POPC   C1A36471  11.852  21.152   8.874
 2629POPC   D2A36472  11.957  20.992   8.442
 2629POPC   C3A36473  11.915  21.355   8.135
 2629POPC   C4A36474  12.016  21.254   7.705
 2629POPC   C1B36475  11.974  21.619   8.681
 2629POPC   C2B36476  12.194  21.850   8.331
 2629POPC   C3B36477  12.247  21.724   7.892
 2629POPC   C4B36478  11.864  21.741   7.676
 2630POPC   NC336479  17.972  20.486   9.425
 2630POPC   PO436480  18.335  21.028   9.509
 2630POPC   GL136481  18.259  20.857   9.121
 2630POPC   GL236482  18.504  20.601   9.052
 2630POPC   C1A36483  18.365  20.888   8.677
 2630POPC   D2A36484  18.400  20.584   8.357
 2630POPC   C3A36485  18.384  20.810   7.988
 2630POPC   C4A36486  18.189  20.690   7.604
 2630POPC   C1B36487  18.168  20.444   8.801
 2630POPC   C2B36488  17.911  20.450   8.469
 2630POPC   C3B36489  17.980  20.472   8.055
 2630POPC   C4B36490  17.743  20.426   7.733
 2631POPC   NC336491  14.617  43.735   9.516
 2631POPC   PO436492  14.112  44.243   9.531
 2631POPC   GL136493  14.109  44.112   9.088
 2631POPC   GL236494  14.472  43.933   8.985
 2631POPC   C1A36495  14.060  43.854   8.701
 2631POPC   D2A36496  14.448  43.723   8.458
 2631POPC   C3A36497  14.400  43.748   8.007
 2631POPC   C4A36498  14.108  43.923   7.717
 2631POPC   C1B36499  14.518  44.267   8.655
 2631POPC   C2B36500  14.666  44.164   8.236
 2631POPC   C3B36501  14.754  44.081   7.821
 2631POPC   C4B36502  14.539  43.965   7.431
 2632POPC   NC336503  24.244  10.100   9.406
 2632POPC   PO436504  24.773   9.645   9.479
 2632POPC   GL136505  24.514   9.777   9.143
 2632POPC   GL236506  24.631  10.103   9.070
 2632POPC   C1A36507  24.257   9.790   8.748
 2632POPC   D2A36508  24.388   9.781   8.270
 2632POPC   C3A36509  24.551   9.451   8.032
 2632POPC   C4A36510  24.853   9.434   7.710
 2632POPC   C1B36511  24.737   9.977   8.673
 2632POPC   C2B36512  24.974  10.197   8.384
 2632POPC   C3B36513  24.677  10.171   8.108
 2632POPC   C4B36514  24.556   9.902   7.772
 2633POPC   NC336515  17.143  40.706   9.395
 2633POPC   PO436516  16.548  41.014   9.491
 2633POPC   GL136517  16.689  40.822   9.138
 2633POPC   GL236518  16.977  41.034   9.010
 2633POPC   C1A36519  16.493  41.008   8.815
 2633POPC   D2A36520  16.543  41.143   8.443
 2633POPC   C3A36521  16.741  40.852   8.224
 2633POPC   C4A36522  16.741  40.898   7.812
 2633POPC   C1B36523  17.024  40.745   8.672
 2633POPC   C2B36524  17.078  40.478   8.295
 2633POPC   C3B36525  17.181  40.655   7.919
 2633POPC   C4B36526  17.211  41.098   7.812
 2634POPC   NC336527  10.207   4.156   9.565
 2634POPC   PO436528   9.614   4.459   9.735
 2634POPC   GL136529   9.745   4.265   9.322
 2634POPC   GL236530   9.583   3.951   9.316
 2634POPC   C1A36531   9.953   4.102   8.916
 2634POPC   D2A36532  10.032   4.084   8.448
 2634POPC   C3A36533   9.813   4.422   8.209
 2634POPC   C4A36534   9.718   4.474   7.766
 2634POPC   C1B36535   9.437   4.105   8.908
 2634POPC   C2B36536   9.521   4.072   8.464
 2634POPC   C3B36537   9.465   4.064   8.026
 2634POPC   C4B36538   9.078   4.105   7.819
 2635POPC   NC336539  24.133  33.161   9.526
 2635POPC   PO436540  24.820  33.135   9.497
 2635POPC   GL136541  24.517  32.932   9.225
 2635POPC   GL236542  24.369  33.207   9.074
 2635POPC   C1A36543  24.451  32.788   8.777
 2635POPC   D2A36544  24.504  33.042   8.374
 2635POPC   C3A36545  24.385  32.902   8.007
 2635POPC   C4A36546  24.510  33.054   7.617
 2635POPC   C1B36547  24.317  33.409   8.694
 2635POPC   C2B36548  24.203  33.460   8.270
 2635POPC   C3B36549  24.146  33.338   7.830
 2635POPC   C4B36550  24.312  33.456   7.368
 2636POPC   NC336551  40.085  41.161   9.469
 2636POPC   PO436552  40.295  41.697   9.499
 2636POPC   GL136553  40.199  41.564   9.116
 2636POPC   GL236554  40.442  41.299   9.080
 2636POPC   C1A36555  40.001  41.784   8.740
 2636POPC   D2A36556  39.987  42.010   8.329
 2636POPC   C3A36557  40.031  41.700   7.988
 2636POPC   C4A36558  39.796  41.440   7.748
 2636POPC   C1B36559  40.233  41.284   8.687
 2636POPC   C2B36560  40.028  41.258   8.303
 2636POPC   C3B36561  39.830  40.971   8.041
 2636POPC   C4B36562  39.946  40.977   7.621
 2637POPC   NC336563  17.547  27.278   9.692
 2637POPC   PO436564  17.612  27.858   9.449
 2637POPC   GL136565  17.396  27.603   9.172
 2637POPC   GL236566  17.697  27.419   9.134
 2637POPC   C1A36567  17.492  27.665   8.732
 2637POPC   D2A36568  17.735  27.604   8.384
 2637POPC   C3A36569  17.553  27.704   8.006
 2637POPC   C4A36570  17.597  27.554   7.569
 2637POPC   C1B36571  17.844  27.217   8.741
 2637POPC   C2B36572  17.699  27.074   8.335
 2637POPC   C3B36573  17.856  27.308   7.973
 2637POPC   C4B36574  18.016  27.245   7.568
 2638POPC   NC336575  38.268   6.835   9.468
 2638POPC   PO436576  37.638   6.509   9.434
 2638POPC   GL136577  37.653   6.670   9.049
 2638POPC   GL236578  38.018   6.647   9.072
 2638POPC   C1A36579  37.802   6.867   8.666
 2638POPC   D2A36580  37.883   7.041   8.275
 2638POPC   C3A36581  37.730   6.836   7.901
 2638POPC   C4A36582  37.456   6.565   7.657
 2638POPC   C1B36583  37.954   6.361   8.724
 2638POPC   C2B36584  37.843   6.492   8.315
 2638POPC   C3B36585  37.793   6.310   7.941
 2638POPC   C4B36586  37.943   6.478   7.607
 2639POPC   NC336587  18.017  37.879   9.721
 2639POPC   PO436588  18.401  37.319   9.748
 2639POPC   GL136589  18.227  37.552   9.368
 2639POPC   GL236590  18.481  37.814   9.278
 2639POPC   C1A36591  18.159  37.606   8.903
 2639POPC   D2A36592  18.193  37.414   8.465
 2639POPC   C3A36593  18.095  37.659   8.099
 2639POPC   C4A36594  18.214  37.494   7.705
 2639POPC   C1B36595  18.645  37.722   8.854
 2639POPC   C2B36596  18.447  37.838   8.470
 2639POPC   C3B36597  18.530  37.911   8.068
 2639POPC   C4B36598  18.682  37.947   7.701
 2640POPC   NC336599  41.739   8.391   9.321
 2640POPC   PO436600  41.072   8.253   9.418
 2640POPC   GL136601  41.299   8.244   9.090
 2640POPC   GL236602  41.352   8.582   9.012
 2640POPC   C1A36603  41.449   8.054   8.750
 2640POPC   D2A36604  41.262   8.188   8.391
 2640POPC   C3A36605  41.442   7.967   8.054
 2640POPC   C4A36606  41.422   8.074   7.637
 2640POPC   C1B36607  41.691   8.505   8.690
 2640POPC   C2B36608  41.792   8.202   8.352
 2640POPC   C3B36609  41.858   8.214   7.928
 2640POPC   C4B36610  41.683   8.537   7.710
 2641POPC   NC336611  40.298   5.605   9.557
 2641POPC   PO436612  40.836   6.112   9.443
 2641POPC   GL136613  40.732   5.750   9.193
 2641POPC   GL236614  40.413   5.706   9.079
 2641POPC   C1A36615  40.791   5.577   8.777
 2641POPC   D2A36616  40.923   5.761   8.422
 2641POPC   C3A36617  40.735   5.729   8.043
 2641POPC   C4A36618  40.968   5.602   7.716
 2641POPC   C1B36619  40.565   6.032   8.771
 2641POPC   C2B36620  40.625   6.154   8.353
 2641POPC   C3B36621  40.822   6.214   7.954
 2641POPC   C4B36622  40.578   6.061   7.606
 2642POPC   NC336623  25.499  11.275   9.476
 2642POPC   PO436624  26.169  11.375   9.489
 2642POPC   GL136625  25.949  11.128   9.173
 2642POPC   GL236626  25.601  11.052   9.039
 2642POPC   C1A36627  26.085  11.069   8.779
 2642POPC   D2A36628  26.383  11.269   8.541
 2642POPC   C3A36629  26.396  11.222   8.135
 2642POPC   C4A36630  26.124  11.195   7.801
 2642POPC   C1B36631  25.700  11.392   8.754
 2642POPC   C2B36632  25.919  11.368   8.360
 2642POPC   C3B36633  25.695  11.389   7.980
 2642POPC   C4B36634  25.557  11.548   7.592
 2643POPC   NC336635  29.868  26.806   9.612
 2643POPC   PO436636  30.381  26.325   9.445
 2643POPC   GL136637  30.205  26.692   9.197
 2643POPC   GL236638  29.815  26.786   9.118
 2643POPC   C1A36639  30.133  26.670   8.748
 2643POPC   D2A36640  30.021  26.450   8.387
 2643POPC   C3A36641  30.024  26.738   8.055
 2643POPC   C4A36642  30.206  26.843   7.684
 2643POPC   C1B36643  29.705  27.049   8.759
 2643POPC   C2B36644  29.620  27.195   8.323
 2643POPC   C3B36645  29.714  27.087   7.900
 2643POPC   C4B36646  29.750  26.690   7.609
 2644POPC   NC336647  26.624  31.260   9.513
 2644POPC   PO436648  27.022  31.774   9.590
 2644POPC   GL136649  26.944  31.548   9.165
 2644POPC   GL236650  27.056  31.280   8.948
 2644POPC   C1A36651  26.723  31.646   8.768
 2644POPC   D2A36652  26.527  31.572   8.361
 2644POPC   C3A36653  26.811  31.403   8.050
 2644POPC   C4A36654  27.125  31.460   7.709
 2644POPC   C1B36655  26.696  31.131   8.687
 2644POPC   C2B36656  26.471  31.044   8.293
 2644POPC   C3B36657  26.397  31.096   7.835
 2644POPC   C4B36658  26.458  31.017   7.390
 2645POPC   NC336659  20.652  20.420   9.510
 2645POPC   PO436660  20.811  21.109   9.630
 2645POPC   GL136661  20.507  20.921   9.278
 2645POPC   GL236662  20.527  20.628   9.081
 2645POPC   C1A36663  20.355  20.991   8.822
 2645POPC   D2A36664  20.547  20.765   8.442
 2645POPC   C3A36665  20.418  20.839   7.987
 2645POPC   C4A36666  20.205  20.680   7.580
 2645POPC   C1B36667  20.809  20.444   8.821
 2645POPC   C2B36668  20.866  20.332   8.427
 2645POPC   C3B36669  20.744  20.186   8.064
 2645POPC   C4B36670  20.601  20.420   7.752
 2646POPC   NC336671  26.170  35.617   9.499
 2646POPC   PO436672  26.016  36.350   9.480
 2646POPC   GL136673  25.850  36.193   9.127
 2646POPC   GL236674  26.010  35.889   9.045
 2646POPC   C1A36675  25.824  36.225   8.727
 2646POPC   D2A36676  25.988  35.876   8.514
 2646POPC   C3A36677  25.989  35.955   8.100
 2646POPC   C4A36678  25.906  36.300   7.813
 2646POPC   C1B36679  26.318  36.193   8.832
 2646POPC   C2B36680  26.559  36.329   8.480
 2646POPC   C3B36681  26.367  36.321   8.095
 2646POPC   C4B36682  26.339  36.533   7.720
 2647POPC   NC336683  21.554  40.056   9.570
 2647POPC   PO436684  21.090  39.634   9.445
 2647POPC   GL136685  21.216  39.988   9.127
 2647POPC   GL236686  21.527  40.155   9.060
 2647POPC   C1A36687  21.207  40.182   8.680
 2647POPC   D2A36688  21.351  39.969   8.299
 2647POPC   C3A36689  21.399  40.164   7.922
 2647POPC   C4A36690  21.155  40.247   7.566
 2647POPC   C1B36691  21.595  39.817   8.735
 2647POPC   C2B36692  21.790  39.700   8.316
 2647POPC   C3B36693  21.664  39.734   7.899
 2647POPC   C4B36694  21.223  39.694   7.741
 2648POPC   NC336695   5.796  21.554   9.601
 2648POPC   PO436696   5.988  20.932   9.514
 2648POPC   GL136697   6.029  21.257   9.209
 2648POPC   GL236698   5.705  21.368   9.148
 2648POPC   C1A36699   6.114  21.374   8.763
 2648POPC   D2A36700   6.182  21.271   8.312
 2648POPC   C3A36701   5.934  21.376   7.929
 2648POPC   C4A36702   5.868  21.608   7.534
 2648POPC   C1B36703   5.630  21.127   8.805
 2648POPC   C2B36704   5.695  21.192   8.395
 2648POPC   C3B36705   5.554  21.024   8.031
 2648POPC   C4B36706   5.689  21.023   7.616
 2649POPC   NC336707   8.608  29.609   9.574
 2649POPC   PO436708   7.977  30.008   9.428
 2649POPC   GL136709   8.243  29.871   9.104
 2649POPC   GL236710   8.588  29.810   9.097
 2649POPC   C1A36711   8.251  29.811   8.685
 2649POPC   D2A36712   7.958  29.656   8.416
 2649POPC   C3A36713   8.029  29.814   8.033
 2649POPC   C4A36714   8.022  29.582   7.680
 2649POPC   C1B36715   8.600  29.453   8.825
 2649POPC   C2B36716   8.453  29.361   8.440
 2649POPC   C3B36717   8.479  29.558   8.081
 2649POPC   C4B36718   8.500  29.790   7.720
 2650POPC   NC336719  40.211  22.946   9.650
 2650POPC   PO436720  39.635  22.672   9.385
 2650POPC   GL136721  39.930  22.979   9.189
 2650POPC   GL236722  40.245  22.846   9.162
 2650POPC   C1A36723  40.015  23.133   8.756
 2650POPC   D2A36724  39.863  22.945   8.368
 2650POPC   C3A36725  40.011  23.087   7.991
 2650POPC   C4A36726  40.261  22.867   7.708
 2650POPC   C1B36727  40.437  22.826   8.781
 2650POPC   C2B36728  40.353  22.859   8.377
 2650POPC   C3B36729  40.185  22.559   8.093
 2650POPC   C4B36730  40.490  22.407   7.757
 2651POPC   NC336731  23.646  35.769   9.483
 2651POPC   PO436732  23.828  35.114   9.384
 2651POPC   GL136733  23.773  35.478   9.103
 2651POPC   GL236734  23.426  35.568   9.073
 2651POPC   C1A36735  23.764  35.662   8.694
 2651POPC   D2A36736  23.814  35.416   8.323
 2651POPC   C3A36737  23.545  35.517   7.972
 2651POPC   C4A36738  23.535  35.477   7.532
 2651POPC   C1B36739  23.481  35.221   8.787
 2651POPC   C2B36740  23.413  35.016   8.398
 2651POPC   C3B36741  23.628  34.995   8.051
 2651POPC   C4B36742  23.717  34.778   7.689
 2652POPC   NC336743  23.144  39.020   9.554
 2652POPC   PO436744  22.745  39.608   9.542
 2652POPC   GL136745  22.647  39.291   9.232
 2652POPC   GL236746  22.824  39.014   9.167
 2652POPC   C1A36747  22.776  39.364   8.791
 2652POPC   D2A36748  23.081  39.540   8.498
 2652POPC   C3A36749  22.871  39.634   8.117
 2652POPC   C4A36750  22.891  39.457   7.720
 2652POPC   C1B36751  22.828  38.849   8.795
 2652POPC   C2B36752  23.009  39.003   8.435
 2652POPC   C3B36753  22.873  39.068   8.049
 2652POPC   C4B36754  22.710  38.993   7.651
 2653POPC   NC336755  44.384  36.246   9.557
 2653POPC   PO436756   0.056  36.211   9.700
 2653POPC   GL136757  44.852  36.191   9.289
 2653POPC   GL236758  44.687  35.872   9.333
 2653POPC   C1A36759  44.546  36.205   8.939
 2653POPC   D2A36760  44.451  36.135   8.519
 2653POPC   C3A36761  44.559  36.425   8.166
 2653POPC   C4A36762  44.517  36.249   7.739
 2653POPC   C1B36763  44.852  35.802   8.919
 2653POPC   C2B36764  44.897  35.894   8.489
 2653POPC   C3B36765  44.664  35.910   8.104
 2653POPC   C4B36766  44.839  35.833   7.705
 2654POPC   NC336767   9.599  43.422   9.484
 2654POPC   PO436768   9.396  42.757   9.689
 2654POPC   GL136769   9.514  42.910   9.282
 2654POPC   GL236770   9.838  42.799   9.092
 2654POPC   C1A36771   9.478  43.085   8.887
 2654POPC   D2A36772   9.627  42.917   8.520
 2654POPC   C3A36773   9.555  43.059   8.128
 2654POPC   C4A36774   9.739  43.022   7.740
 2654POPC   C1B36775   9.994  43.125   8.786
 2654POPC   C2B36776   9.938  43.329   8.381
 2654POPC   C3B36777  10.067  43.391   7.940
 2654POPC   C4B36778  10.011  43.350   7.485
 2655POPC   NC336779  17.161  43.120   9.449
 2655POPC   PO436780  17.697  42.763   9.553
 2655POPC   GL136781  17.788  43.039   9.164
 2655POPC   GL236782  17.469  43.192   9.066
 2655POPC   C1A36783  17.698  42.986   8.677
 2655POPC   D2A36784  17.429  42.687   8.379
 2655POPC   C3A36785  17.434  42.851   7.952
 2655POPC   C4A36786  17.726  43.160   7.785
 2655POPC   C1B36787  17.203  42.974   8.768
 2655POPC   C2B36788  17.163  43.164   8.339
 2655POPC   C3B36789  17.274  43.364   7.942
 2655POPC   C4B36790  17.307  43.203   7.519
 2656POPC   NC336791  25.185  35.493   9.622
 2656POPC   PO436792  25.432  34.861   9.537
 2656POPC   GL136793  25.380  35.222   9.207
 2656POPC   GL236794  25.083  35.498   9.137
 2656POPC   C1A36795  25.362  35.326   8.760
 2656POPC   D2A36796  25.045  35.276   8.462
 2656POPC   C3A36797  25.122  35.106   8.064
 2656POPC   C4A36798  25.390  35.102   7.745
 2656POPC   C1B36799  24.840  35.667   8.779
 2656POPC   C2B36800  25.027  35.783   8.384
 2656POPC   C3B36801  25.217  35.629   8.015
 2656POPC   C4B36802  25.026  35.561   7.664
 2657POPC   NC336803  21.050  44.498   9.854
 2657POPC   PO436804  20.912  44.944   9.430
 2657POPC   GL136805  20.582  44.782   9.190
 2657POPC   GL236806  20.695  44.495   8.982
 2657POPC   C1A36807  20.479  44.867   8.760
 2657POPC   D2A36808  20.682  44.554   8.473
 2657POPC   C3A36809  20.566  44.567   8.058
 2657POPC   C4A36810  20.468  44.457   7.664
 2657POPC   C1B36811  21.022  44.788   8.791
 2657POPC   C2B36812  21.170  44.923   8.437
 2657POPC   C3B36813  20.996  44.843   8.065
 2657POPC   C4B36814  20.857  44.786   7.650
 2658POPC   NC336815  12.843  10.925   9.506
 2658POPC   PO436816  13.143  10.357   9.459
 2658POPC   GL136817  13.110  10.651   9.109
 2658POPC   GL236818  12.749  10.680   9.072
 2658POPC   C1A36819  12.989  10.637   8.640
 2658POPC   D2A36820  12.738  10.631   8.282
 2658POPC   C3A36821  12.947  10.464   7.925
 2658POPC   C4A36822  13.012  10.197   7.564
 2658POPC   C1B36823  12.517  10.388   8.772
 2658POPC   C2B36824  12.533  10.133   8.372
 2658POPC   C3B36825  12.455  10.293   7.982
 2658POPC   C4B36826  12.493  10.745   7.822
 2659POPC   NC336827  21.975  21.033   9.633
 2659POPC   PO436828  22.172  20.378   9.571
 2659POPC   GL136829  22.109  20.624   9.222
 2659POPC   GL236830  22.406  20.779   9.185
 2659POPC   C1A36831  22.188  20.534   8.786
 2659POPC   D2A36832  22.084  20.774   8.447
 2659POPC   C3A36833  22.039  20.543   8.085
 2659POPC   C4A36834  22.022  20.556   7.667
 2659POPC   C1B36835  22.500  20.968   8.770
 2659POPC   C2B36836  22.489  21.083   8.320
 2659POPC   C3B36837  22.384  20.913   7.901
 2659POPC   C4B36838  22.218  20.968   7.464
 2660POPC   NC336839  40.934  35.638   9.644
 2660POPC   PO436840  40.766  36.247   9.385
 2660POPC   GL136841  40.877  35.939   9.095
 2660POPC   GL236842  41.096  36.205   8.958
 2660POPC   C1A36843  40.753  35.824   8.683
 2660POPC   D2A36844  40.488  35.914   8.308
 2660POPC   C3A36845  40.758  35.918   7.948
 2660POPC   C4A36846  40.779  35.915   7.506
 2660POPC   C1B36847  40.735  36.366   8.709
 2660POPC   C2B36848  40.726  36.362   8.251
 2660POPC   C3B36849  40.728  36.423   7.809
 2660POPC   C4B36850  40.979  36.400   7.448
 2661POPC   NC336851  33.055  44.350   9.717
 2661POPC   PO436852  33.718  44.381   9.464
 2661POPC   GL136853  33.789  44.415   9.049
 2661POPC   GL236854  34.113  44.560   8.945
 2661POPC   C1A36855  33.806  44.260   8.643
 2661POPC   D2A36856  33.850  44.445   8.254
 2661POPC   C3A36857  33.822  44.458   7.843
 2661POPC   C4A36858  33.579  44.594   7.525
 2661POPC   C1B36859  33.795  44.788   8.672
 2661POPC   C2B36860  33.686  44.920   8.216
 2661POPC   C3B36861  33.875  44.962   7.782
 2661POPC   C4B36862  33.973   0.313   7.500
 2662POPC   NC336863  23.432  31.709   9.520
 2662POPC   PO436864  23.982  31.646   9.893
 2662POPC   GL136865  23.856  31.467   9.389
 2662POPC   GL236866  24.145  31.319   9.141
 2662POPC   C1A36867  23.725  31.574   8.926
 2662POPC   D2A36868  23.616  31.383   8.511
 2662POPC   C3A36869  23.649  31.566   8.094
 2662POPC   C4A36870  23.454  31.533   7.683
 2662POPC   C1B36871  24.221  31.636   8.770
 2662POPC   C2B36872  24.121  31.588   8.329
 2662POPC   C3B36873  24.095  31.612   7.865
 2662POPC   C4B36874  23.920  31.365   7.492
 2663POPC   NC336875  10.197  24.438   9.612
 2663POPC   PO436876  10.614  24.805   9.416
 2663POPC   GL136877  10.337  24.633   9.140
 2663POPC   GL236878  10.339  24.266   9.167
 2663POPC   C1A36879  10.451  24.526   8.734
 2663POPC   D2A36880  10.649  24.631   8.383
 2663POPC   C3A36881  10.337  24.661   8.097
 2663POPC   C4A36882  10.493  24.660   7.703
 2663POPC   C1B36883  10.365  24.029   8.782
 2663POPC   C2B36884  10.485  24.099   8.349
 2663POPC   C3B36885  10.515  24.192   7.916
 2663POPC   C4B36886  10.406  24.249   7.463
 2664POPC   NC336887   3.720  44.078   9.883
 2664POPC   PO436888   3.378  43.695   9.648
 2664POPC   GL136889   3.518  43.469   9.241
 2664POPC   GL236890   3.198  43.400   9.077
 2664POPC   C1A36891   3.625  43.502   8.787
 2664POPC   D2A36892   3.552  43.727   8.340
 2664POPC   C3A36893   3.685  43.905   7.919
 2664POPC   C4A36894   3.702  43.722   7.473
 2664POPC   C1B36895   3.165  43.690   8.706
 2664POPC   C2B36896   3.046  43.661   8.261
 2664POPC   C3B36897   3.210  43.733   7.834
 2664POPC   C4B36898   3.246  43.973   7.431
 2665POPC   NC336899   8.172   4.475   9.627
 2665POPC   PO436900   8.107   3.854   9.384
 2665POPC   GL136901   8.225   4.232   9.184
 2665POPC   GL236902   8.469   4.130   9.031
 2665POPC   C1A36903   8.116   4.298   8.731
 2665POPC   D2A36904   8.192   4.185   8.329
 2665POPC   C3A36905   8.043   4.256   7.951
 2665POPC   C4A36906   8.131   3.975   7.643
 2665POPC   C1B36907   8.538   4.533   8.883
 2665POPC   C2B36908   8.571   4.485   8.476
 2665POPC   C3B36909   8.500   4.557   8.044
 2665POPC   C4B36910   8.245   4.608   7.675
 2666POPC   NC336911  25.016  10.791   9.678
 2666POPC   PO436912  24.655  10.239   9.568
 2666POPC   GL136913  24.944  10.478   9.263
 2666POPC   GL236914  24.822  10.798   9.172
 2666POPC   C1A36915  25.252  10.655   8.926
 2666POPC   D2A36916  25.201  10.661   8.473
 2666POPC   C3A36917  25.524  10.595   8.162
 2666POPC   C4A36918  25.373  10.499   7.752
 2666POPC   C1B36919  24.824  10.930   8.751
 2666POPC   C2B36920  24.844  10.995   8.314
 2666POPC   C3B36921  24.943  10.726   7.940
 2666POPC   C4B36922  25.028  10.725   7.443
 2667POPC   NC336923  41.453  41.831   9.501
 2667POPC   PO436924  41.823  41.413   9.341
 2667POPC   GL136925  41.716  41.744   9.073
 2667POPC   GL236926  41.356  41.778   9.007
 2667POPC   C1A36927  41.719  41.647   8.649
 2667POPC   D2A36928  41.514  41.697   8.285
 2667POPC   C3A36929  41.649  41.474   7.927
 2667POPC   C4A36930  41.717  41.150   7.605
 2667POPC   C1B36931  41.109  41.681   8.652
 2667POPC   C2B36932  41.041  41.469   8.273
 2667POPC   C3B36933  41.170  41.626   7.902
 2667POPC   C4B36934  41.343  41.466   7.497
 2668POPC   NC336935  17.686   0.888   9.376
 2668POPC   PO436936  17.538   1.385   9.760
 2668POPC   GL136937  17.436   1.295   9.255
 2668POPC   GL236938  17.160   1.109   9.117
 2668POPC   C1A36939  17.568   1.230   8.805
 2668POPC   D2A36940  17.442   1.073   8.399
 2668POPC   C3A36941  17.489   1.340   8.051
 2668POPC   C4A36942  17.834   1.322   7.744
 2668POPC   C1B36943  17.178   0.820   8.758
 2668POPC   C2B36944  17.045   0.736   8.308
 2668POPC   C3B36945  17.289   0.885   7.933
 2668POPC   C4B36946  17.097   1.062   7.552
 2669POPC   NC336947  20.219  23.840   9.558
 2669POPC   PO436948  20.750  23.443   9.566
 2669POPC   GL136949  20.597  23.683   9.210
 2669POPC   GL236950  20.293  23.609   9.086
 2669POPC   C1A36951  20.630  23.773   8.761
 2669POPC   D2A36952  20.674  23.510   8.428
 2669POPC   C3A36953  20.714  23.710   8.088
 2669POPC   C4A36954  20.617  23.748   7.708
 2669POPC   C1B36955  20.121  23.601   8.682
 2669POPC   C2B36956  20.275  23.823   8.341
 2669POPC   C3B36957  20.355  24.060   8.007
 2669POPC   C4B36958  20.162  23.963   7.650
 2670POPC   NC336959  11.401   7.033   9.545
 2670POPC   PO436960  11.152   7.668   9.508
 2670POPC   GL136961  11.398   7.594   9.150
 2670POPC   GL236962  11.385   7.220   9.088
 2670POPC   C1A36963  11.271   7.544   8.733
 2670POPC   D2A36964  11.335   7.539   8.356
 2670POPC   C3A36965  10.972   7.485   8.137
 2670POPC   C4A36966  11.012   7.395   7.733
 2670POPC   C1B36967  11.270   6.992   8.723
 2670POPC   C2B36968  11.226   7.028   8.291
 2670POPC   C3B36969  11.429   6.934   7.931
 2670POPC   C4B36970  11.459   7.167   7.520
 2671POPC   NC336971  41.435  40.068   9.796
 2671POPC   PO436972  41.914  39.760   9.385
 2671POPC   GL136973  41.564  40.040   9.263
 2671POPC   GL236974  41.290  39.823   9.257
 2671POPC   C1A36975  41.558  40.266   8.866
 2671POPC   D2A36976  41.788  40.073   8.519
 2671POPC   C3A36977  41.721  40.269   8.133
 2671POPC   C4A36978  41.715  40.059   7.745
 2671POPC   C1B36979  41.189  39.940   8.822
 2671POPC   C2B36980  41.265  40.132   8.416
 2671POPC   C3B36981  41.268  40.099   7.961
 2671POPC   C4B36982  41.305  39.840   7.545
 2672POPC   NC336983  18.676  20.705   9.518
 2672POPC   PO436984  19.283  20.386   9.446
 2672POPC   GL136985  18.967  20.378   9.123
 2672POPC   GL236986  19.009  20.708   9.125
 2672POPC   C1A36987  19.043  20.490   8.652
 2672POPC   D2A36988  19.361  20.611   8.318
 2672POPC   C3A36989  19.372  20.571   7.846
 2672POPC   C4A36990  19.375  20.372   7.418
 2672POPC   C1B36991  18.849  20.951   8.802
 2672POPC   C2B36992  18.813  20.874   8.351
 2672POPC   C3B36993  18.867  20.595   7.980
 2672POPC   C4B36994  18.992  20.674   7.526
 2673POPC   NC336995   5.533  29.714   9.427
 2673POPC   PO436996   5.947  30.194   9.602
 2673POPC   GL136997   6.085  29.916   9.222
 2673POPC   GL236998   5.927  29.580   9.108
 2673POPC   C1A36999   6.239  29.871   8.796
 2673POPC   D2A37000   5.997  29.936   8.462
 2673POPC   C3A37001   6.161  29.873   8.087
 2673POPC   C4A37002   5.932  29.977   7.738
 2673POPC   C1B37003   5.935  29.455   8.678
 2673POPC   C2B37004   5.852  29.468   8.237
 2673POPC   C3B37005   5.580  29.692   7.975
 2673POPC   C4B37006   5.420  29.698   7.566
 2674POPC   NC337007  25.908  44.019   9.449
 2674POPC   PO437008  26.423  43.620   9.715
 2674POPC   GL137009  26.248  43.600   9.227
 2674POPC   GL237010  26.143  43.937   9.022
 2674POPC   C1A37011  26.398  43.611   8.753
 2674POPC   D2A37012  26.180  43.867   8.415
 2674POPC   C3A37013  26.156  43.697   7.998
 2674POPC   C4A37014  26.097  43.938   7.610
 2674POPC   C1B37015  25.873  43.657   8.750
 2674POPC   C2B37016  25.661  43.761   8.372
 2674POPC   C3B37017  25.753  44.011   8.031
 2674POPC   C4B37018  25.644  43.781   7.672
 2675POPC   NC337019  27.389  24.291   9.704
 2675POPC   PO437020  26.843  24.631   9.426
 2675POPC   GL137021  26.891  24.352   9.084
 2675POPC   GL237022  26.598  24.471   8.938
 2675POPC   C1A37023  26.998  24.355   8.647
 2675POPC   D2A37024  27.129  24.669   8.369
 2675POPC   C3A37025  26.876  24.584   8.020
 2675POPC   C4A37026  26.821  24.211   7.773
 2675POPC   C1B37027  26.407  24.738   8.656
 2675POPC   C2B37028  26.597  24.875   8.342
 2675POPC   C3B37029  26.469  24.883   7.972
 2675POPC   C4B37030  26.565  24.655   7.614
 2676POPC   NC337031  21.751  21.791   9.839
 2676POPC   PO437032  22.293  21.357   9.737
 2676POPC   GL137033  22.334  21.269   9.269
 2676POPC   GL237034  22.017  21.319   9.197
 2676POPC   C1A37035  22.313  21.461   8.810
 2676POPC   D2A37036  22.378  21.677   8.389
 2676POPC   C3A37037  22.265  21.475   8.023
 2676POPC   C4A37038  22.068  21.409   7.672
 2676POPC   C1B37039  21.958  21.081   8.843
 2676POPC   C2B37040  21.992  21.283   8.431
 2676POPC   C3B37041  21.924  21.069   8.049
 2676POPC   C4B37042  21.709  20.974   7.701
 2677POPC   NC337043  33.302  29.793   9.482
 2677POPC   PO437044  32.653  29.860   9.527
 2677POPC   GL137045  32.799  29.948   9.121
 2677POPC   GL237046  33.002  29.694   9.093
 2677POPC   C1A37047  32.946  29.975   8.674
 2677POPC   D2A37048  32.763  29.808   8.324
 2677POPC   C3A37049  32.890  29.804   7.944
 2677POPC   C4A37050  32.939  30.184   7.769
 2677POPC   C1B37051  33.296  29.562   8.827
 2677POPC   C2B37052  33.337  29.665   8.443
 2677POPC   C3B37053  33.451  29.589   8.042
 2677POPC   C4B37054  33.256  29.614   7.675
 2678POPC   NC337055  19.380   7.370   9.574
 2678POPC   PO437056  18.792   7.648   9.569
 2678POPC   GL137057  18.917   7.695   9.126
 2678POPC   GL237058  19.268   7.715   9.078
 2678POPC   C1A37059  18.746   7.517   8.717
 2678POPC   D2A37060  18.657   7.560   8.272
 2678POPC   C3A37061  19.020   7.455   7.997
 2678POPC   C4A37062  19.370   7.685   7.835
 2678POPC   C1B37063  19.266   7.470   8.673
 2678POPC   C2B37064  19.451   7.353   8.249
 2678POPC   C3B37065  19.401   7.157   7.808
 2678POPC   C4B37066  19.199   6.869   7.471
 2679POPC   NC337067  12.151  29.745   9.666
 2679POPC   PO437068  12.083  29.120   9.692
 2679POPC   GL137069  11.949  28.952   9.273
 2679POPC   GL237070  12.229  28.911   9.044
 2679POPC   C1A37071  11.858  29.244   8.946
 2679POPC   D2A37072  11.855  29.247   8.502
 2679POPC   C3A37073  11.701  29.329   8.094
 2679POPC   C4A37074  12.011  29.283   7.781
 2679POPC   C1B37075  11.922  28.772   8.709
 2679POPC   C2B37076  11.883  28.809   8.226
 2679POPC   C3B37077  12.191  28.806   7.870
 2679POPC   C4B37078  12.412  29.020   7.509
 2680POPC   NC337079  38.258  30.914   9.363
 2680POPC   PO437080  38.656  30.435   9.514
 2680POPC   GL137081  38.487  30.524   9.116
 2680POPC   GL237082  38.769  30.771   9.076
 2680POPC   C1A37083  38.279  30.691   8.724
 2680POPC   D2A37084  38.233  30.994   8.389
 2680POPC   C3A37085  38.162  30.814   7.976
 2680POPC   C4A37086  38.276  30.893   7.555
 2680POPC   C1B37087  38.752  30.516   8.686
 2680POPC   C2B37088  38.550  30.608   8.287
 2680POPC   C3B37089  38.621  30.639   7.862
 2680POPC   C4B37090  38.728  30.277   7.707
 2681POPC   NC337091  24.537  11.124   9.471
 2681POPC   PO437092  24.334  11.835   9.444
 2681POPC   GL137093  24.607  11.537   9.130
 2681POPC   GL237094  24.480  11.222   8.997
 2681POPC   C1A37095  24.779  11.445   8.690
 2681POPC   D2A37096  24.792  11.573   8.290
 2681POPC   C3A37097  24.629  11.314   7.983
 2681POPC   C4A37098  24.261  11.448   7.813
 2681POPC   C1B37099  24.294  11.217   8.611
 2681POPC   C2B37100  24.181  11.081   8.210
 2681POPC   C3B37101  24.156  10.967   7.788
 2681POPC   C4B37102  24.568  10.963   7.611
 2682POPC   NC337103  23.421  15.719   9.619
 2682POPC   PO437104  23.863  16.183   9.525
 2682POPC   GL137105  23.860  16.002   9.102
 2682POPC   GL237106  23.553  15.830   9.130
 2682POPC   C1A37107  23.791  15.819   8.661
 2682POPC   D2A37108  23.650  15.777   8.219
 2682POPC   C3A37109  23.710  15.789   7.789
 2682POPC   C4A37110  23.610  16.044   7.428
 2682POPC   C1B37111  23.344  16.013   8.780
 2682POPC   C2B37112  23.399  16.214   8.350
 2682POPC   C3B37113  23.350  16.134   7.894
 2682POPC   C4B37114  23.184  15.824   7.568
 2683POPC   NC337115  36.106  42.681   9.644
 2683POPC   PO437116  35.766  42.118   9.769
 2683POPC   GL137117  35.945  42.300   9.321
 2683POPC   GL237118  35.892  42.616   9.171
 2683POPC   C1A37119  36.174  42.315   8.884
 2683POPC   D2A37120  36.101  42.369   8.439
 2683POPC   C3A37121  36.386  42.302   8.107
 2683POPC   C4A37122  36.192  42.295   7.724
 2683POPC   C1B37123  35.992  42.780   8.749
 2683POPC   C2B37124  35.758  42.772   8.365
 2683POPC   C3B37125  35.920  42.665   7.965
 2683POPC   C4B37126  35.822  42.571   7.531
 2684POPC   NC337127  10.316   3.391   9.353
 2684POPC   PO437128  10.884   3.702   9.370
 2684POPC   GL137129  10.690   3.837   9.018
 2684POPC   GL237130  10.356   3.866   9.134
 2684POPC   C1A37131  10.744   3.760   8.585
 2684POPC   D2A37132  10.896   3.857   8.177
 2684POPC   C3A37133  10.828   3.530   7.931
 2684POPC   C4A37134  10.457   3.278   7.919
 2684POPC   C1B37135  10.239   3.693   8.739
 2684POPC   C2B37136  10.313   3.618   8.310
 2684POPC   C3B37137  10.371   3.789   7.927
 2684POPC   C4B37138  10.630   4.044   7.762
 2685POPC   NC337139  31.709   9.284   9.501
 2685POPC   PO437140  31.569   8.615   9.631
 2685POPC   GL137141  31.685   8.614   9.158
 2685POPC   GL237142  31.501   8.911   9.144
 2685POPC   C1A37143  31.428   8.611   8.724
 2685POPC   D2A37144  31.289   8.620   8.273
 2685POPC   C3A37145  31.416   8.864   7.883
 2685POPC   C4A37146  31.685   8.856   7.535
 2685POPC   C1B37147  31.355   9.110   8.742
 2685POPC   C2B37148  31.232   9.145   8.289
 2685POPC   C3B37149  31.396   9.384   7.929
 2685POPC   C4B37150  31.474   9.326   7.493
 2686POPC   NC337151  11.002   2.432   9.469
 2686POPC   PO437152  11.335   1.902   9.762
 2686POPC   GL137153  11.166   1.932   9.340
 2686POPC   GL237154  11.394   2.200   9.239
 2686POPC   C1A37155  11.232   1.862   8.864
 2686POPC   D2A37156  11.361   2.046   8.429
 2686POPC   C3A37157  11.229   1.898   8.025
 2686POPC   C4A37158  10.910   1.885   7.707
 2686POPC   C1B37159  11.525   2.316   8.829
 2686POPC   C2B37160  11.606   2.501   8.403
 2686POPC   C3B37161  11.463   2.375   8.006
 2686POPC   C4B37162  11.259   2.259   7.626
 2687POPC   NC337163  40.316  10.172   9.657
 2687POPC   PO437164  39.884  10.630   9.684
 2687POPC   GL137165  39.908  10.532   9.197
 2687POPC   GL237166  39.673  10.756   9.032
 2687POPC   C1A37167  39.902  10.397   8.715
 2687POPC   D2A37168  40.071  10.249   8.300
 2687POPC   C3A37169  39.962  10.371   7.863
 2687POPC   C4A37170  40.071  10.689   7.527
 2687POPC   C1B37171  39.779  10.897   8.605
 2687POPC   C2B37172  39.825  10.745   8.179
 2687POPC   C3B37173  39.651  10.869   7.766
 2687POPC   C4B37174  39.678  10.935   7.276
 2688POPC   NC337175  35.590  32.848   9.450
 2688POPC   PO437176  34.975  33.257   9.522
 2688POPC   GL137177  35.196  33.059   9.153
 2688POPC   GL237178  34.999  32.811   9.003
 2688POPC   C1A37179  35.168  33.188   8.706
 2688POPC   D2A37180  34.931  33.054   8.345
 2688POPC   C3A37181  35.156  33.112   7.982
 2688POPC   C4A37182  35.535  33.257   7.802
 2688POPC   C1B37183  35.146  32.665   8.628
 2688POPC   C2B37184  34.966  32.545   8.254
 2688POPC   C3B37185  34.996  32.622   7.837
 2688POPC   C4B37186  35.355  32.746   7.684
 2689POPC   NC337187  33.971  42.910   9.397
 2689POPC   PO437188  33.325  42.817   9.530
 2689POPC   GL137189  33.560  43.057   9.138
 2689POPC   GL237190  33.786  43.369   9.205
 2689POPC   C1A37191  33.806  42.927   8.730
 2689POPC   D2A37192  33.856  42.797   8.255
 2689POPC   C3A37193  33.589  43.078   7.935
 2689POPC   C4A37194  33.498  43.045   7.440
 2689POPC   C1B37195  33.867  43.468   8.780
 2689POPC   C2B37196  33.804  43.308   8.376
 2689POPC   C3B37197  34.074  43.225   8.053
 2689POPC   C4B37198  33.974  43.265   7.638
 2690POPC   NC337199  21.714  34.672   9.272
 2690POPC   PO437200  22.226  34.257   9.393
 2690POPC   GL137201  22.361  34.441   9.040
 2690POPC   GL237202  22.177  34.733   9.016
 2690POPC   C1A37203  22.301  34.430   8.592
 2690POPC   D2A37204  22.072  34.532   8.195
 2690POPC   C3A37205  22.234  34.649   7.808
 2690POPC   C4A37206  22.593  34.427   7.905
 2690POPC   C1B37207  21.913  34.780   8.648
 2690POPC   C2B37208  21.891  34.995   8.268
 2690POPC   C3B37209  21.735  34.859   7.908
 2690POPC   C4B37210  21.807  34.914   7.476
 2691POPC   NC337211  44.666   8.431   9.593
 2691POPC   PO437212  44.602   9.104   9.535
 2691POPC   GL137213  44.572   8.769   9.220
 2691POPC   GL237214  44.927   8.661   9.209
 2691POPC   C1A37215  44.493   8.779   8.781
 2691POPC   D2A37216  44.396   9.046   8.442
 2691POPC   C3A37217  44.534   8.767   8.111
 2691POPC   C4A37218  44.560   8.828   7.681
 2691POPC   C1B37219  44.947   9.002   8.887
 2691POPC   C2B37220  44.915   9.042   8.426
 2691POPC   C3B37221  44.846   9.168   7.974
 2691POPC   C4B37222   0.030   8.968   7.614
 2692POPC   NC337223   4.784  21.602   9.507
 2692POPC   PO437224   5.384  21.332   9.594
 2692POPC   GL137225   5.225  21.202   9.225
 2692POPC   GL237226   4.889  21.086   9.297
 2692POPC   C1A37227   5.275  21.495   8.864
 2692POPC   D2A37228   5.400  21.657   8.464
 2692POPC   C3A37229   5.213  21.561   8.088
 2692POPC   C4A37230   5.395  21.429   7.717
 2692POPC   C1B37231   4.961  21.105   8.812
 2692POPC   C2B37232   5.190  21.133   8.405
 2692POPC   C3B37233   5.035  21.096   7.948
 2692POPC   C4B37234   5.071  21.055   7.506
 2693POPC   NC337235  21.606  14.285   9.436
 2693POPC   PO437236  21.086  14.400   9.274
 2693POPC   GL137237  21.476  14.480   8.984
 2693POPC   GL237238  21.830  14.604   9.095
 2693POPC   C1A37239  21.766  14.266   8.689
 2693POPC   D2A37240  21.868  14.301   8.232
 2693POPC   C3A37241  21.438  14.367   7.992
 2693POPC   C4A37242  21.020  14.381   7.744
 2693POPC   C1B37243  21.808  14.769   8.671
 2693POPC   C2B37244  21.681  14.769   8.245
 2693POPC   C3B37245  21.837  14.642   7.832
 2693POPC   C4B37246  21.760  14.755   7.432
 2694POPC   NC337247  13.528  18.315   9.535
 2694POPC   PO437248  13.998  17.843   9.543
 2694POPC   GL137249  13.769  18.023   9.179
 2694POPC   GL237250  13.407  18.121   9.093
 2694POPC   C1A37251  13.801  18.242   8.806
 2694POPC   D2A37252  13.785  18.069   8.418
 2694POPC   C3A37253  13.976  18.250   8.073
 2694POPC   C4A37254  13.686  18.323   7.768
 2694POPC   C1B37255  13.286  18.292   8.711
 2694POPC   C2B37256  13.417  18.420   8.282
 2694POPC   C3B37257  13.206  18.397   7.878
 2694POPC   C4B37258  13.271  18.370   7.406
 2695POPC   NC337259   3.022  11.245   9.557
 2695POPC   PO437260   2.361  11.184   9.438
 2695POPC   GL137261   2.661  11.349   9.166
 2695POPC   GL237262   2.884  11.111   9.043
 2695POPC   C1A37263   2.826  11.549   8.803
 2695POPC   D2A37264   2.685  11.600   8.364
 2695POPC   C3A37265   2.747  11.293   8.031
 2695POPC   C4A37266   2.679  11.258   7.560
 2695POPC   C1B37267   2.686  11.113   8.589
 2695POPC   C2B37268   2.477  10.868   8.249
 2695POPC   C3B37269   2.322  11.050   7.854
 2695POPC   C4B37270   2.164  11.110   7.395
 2696POPC   NC337271   8.866  36.253   9.464
 2696POPC   PO437272   8.337  35.839   9.383
 2696POPC   GL137273   8.683  35.999   9.058
 2696POPC   GL237274   8.751  36.331   8.961
 2696POPC   C1A37275   9.098  35.970   8.788
 2696POPC   D2A37276   9.413  35.930   8.464
 2696POPC   C3A37277   9.320  36.117   8.072
 2696POPC   C4A37278   9.081  36.054   7.705
 2696POPC   C1B37279   8.803  36.295   8.513
 2696POPC   C2B37280   8.838  36.286   8.091
 2696POPC   C3B37281   8.578  36.131   7.765
 2696POPC   C4B37282   8.342  36.323   7.429
 2697POPC   NC337283  23.940  15.030   9.262
 2697POPC   PO437284  23.413  15.292   9.450
 2697POPC   GL137285  23.589  15.323   9.021
 2697POPC   GL237286  23.937  15.501   9.081
 2697POPC   C1A37287  23.687  15.003   8.675
 2697POPC   D2A37288  23.962  14.807   8.383
 2697POPC   C3A37289  23.886  14.888   7.970
 2697POPC   C4A37290  23.596  15.141   7.754
 2697POPC   C1B37291  24.029  15.376   8.694
 2697POPC   C2B37292  23.843  15.317   8.297
 2697POPC   C3B37293  24.026  15.402   7.922
 2697POPC   C4B37294  24.038  15.483   7.517
 2698POPC   NC337295  39.431  31.327   9.341
 2698POPC   PO437296  38.960  31.741   9.623
 2698POPC   GL137297  39.010  31.559   9.135
 2698POPC   GL237298  39.138  31.224   8.935
 2698POPC   C1A37299  38.891  31.556   8.681
 2698POPC   D2A37300  39.071  31.313   8.350
 2698POPC   C3A37301  38.998  31.487   7.950
 2698POPC   C4A37302  39.147  31.277   7.582
 2698POPC   C1B37303  39.423  31.510   8.668
 2698POPC   C2B37304  39.375  31.733   8.252
 2698POPC   C3B37305  39.490  31.599   7.833
 2698POPC   C4B37306  39.700  31.475   7.439
 2699POPC   NC337307  13.701  42.664   9.576
 2699POPC   PO437308  13.327  42.185   9.537
 2699POPC   GL137309  13.312  42.130   9.138
 2699POPC   GL237310  13.639  42.348   9.098
 2699POPC   C1A37311  13.262  42.250   8.748
 2699POPC   D2A37312  13.570  42.436   8.495
 2699POPC   C3A37313  13.485  42.365   8.094
 2699POPC   C4A37314  13.605  42.493   7.714
 2699POPC   C1B37315  13.871  42.667   8.878
 2699POPC   C2B37316  13.883  42.865   8.488
 2699POPC   C3B37317  13.887  42.723   8.073
 2699POPC   C4B37318  14.044  42.781   7.657
 2700POPC   NC337319  42.008  39.308   9.489
 2700POPC   PO437320  42.759  39.241   9.511
 2700POPC   GL137321  42.535  39.296   9.144
 2700POPC   GL237322  42.228  39.484   9.082
 2700POPC   C1A37323  42.409  39.133   8.761
 2700POPC   D2A37324  42.381  39.271   8.361
 2700POPC   C3A37325  42.139  39.010   8.115
 2700POPC   C4A37326  42.304  39.114   7.755
 2700POPC   C1B37327  42.014  39.527   8.675
 2700POPC   C2B37328  41.944  39.614   8.230
 2700POPC   C3B37329  41.909  39.440   7.821
 2700POPC   C4B37330  41.814  39.017   7.673
 2701POPC   NC337331  12.247  42.040   9.408
 2701POPC   PO437332  11.835  42.588   9.482
 2701POPC   GL137333  12.090  42.464   9.144
 2701POPC   GL237334  12.018  42.756   8.953
 2701POPC   C1A37335  12.111  42.258   8.734
 2701POPC   D2A37336  12.051  42.512   8.354
 2701POPC   C3A37337  11.995  42.318   7.966
 2701POPC   C4A37338  11.762  42.184   7.597
 2701POPC   C1B37339  12.399  42.662   8.730
 2701POPC   C2B37340  12.557  42.422   8.346
 2701POPC   C3B37341  12.554  42.577   7.914
 2701POPC   C4B37342  12.238  42.550   7.584
 2702POPC   NC337343  29.574  42.116   9.506
 2702POPC   PO437344  30.255  42.060   9.524
 2702POPC   GL137345  30.043  42.233   9.155
 2702POPC   GL237346  29.829  42.534   9.270
 2702POPC   C1A37347  30.224  42.253   8.733
 2702POPC   D2A37348  30.090  42.038   8.352
 2702POPC   C3A37349  30.232  42.066   7.941
 2702POPC   C4A37350  30.089  42.226   7.540
 2702POPC   C1B37351  29.775  42.502   8.821
 2702POPC   C2B37352  29.968  42.560   8.413
 2702POPC   C3B37353  29.959  42.532   7.969
 2702POPC   C4B37354  29.659  42.620   7.640
 2703POPC   NC337355  35.733  28.388   9.432
 2703POPC   PO437356  36.382  28.114   9.543
 2703POPC   GL137357  36.279  28.303   9.170
 2703POPC   GL237358  36.244  28.663   9.190
 2703POPC   C1A37359  36.343  28.241   8.736
 2703POPC   D2A37360  36.078  28.290   8.373
 2703POPC   C3A37361  36.355  28.329   8.034
 2703POPC   C4A37362  36.281  28.306   7.586
 2703POPC   C1B37363  35.989  28.620   8.774
 2703POPC   C2B37364  35.801  28.735   8.381
 2703POPC   C3B37365  35.946  28.622   7.978
 2703POPC   C4B37366  36.036  28.731   7.534
 2704POPC   NC337367  27.345   7.110   9.728
 2704POPC   PO437368  27.711   7.637   9.493
 2704POPC   GL137369  27.574   7.468   9.103
 2704POPC   GL237370  27.723   7.129   9.076
 2704POPC   C1A37371  27.794   7.554   8.707
 2704POPC   D2A37372  27.795   7.406   8.312
 2704POPC   C3A37373  27.696   7.664   8.014
 2704POPC   C4A37374  27.388   7.543   7.790
 2704POPC   C1B37375  27.454   7.141   8.698
 2704POPC   C2B37376  27.401   7.112   8.250
 2704POPC   C3B37377  27.615   7.107   7.840
 2704POPC   C4B37378  27.697   7.229   7.385
 2705POPC   NC337379  30.629   4.670   9.669
 2705POPC   PO437380  31.152   4.591   9.315
 2705POPC   GL137381  30.693   4.426   9.204
 2705POPC   GL237382  30.456   4.682   9.179
 2705POPC   C1A37383  30.346   4.262   8.880
 2705POPC   D2A37384  30.206   4.126   8.447
 2705POPC   C3A37385  30.395   4.244   8.035
 2705POPC   C4A37386  30.618   4.535   7.764
 2705POPC   C1B37387  30.663   4.623   8.730
 2705POPC   C2B37388  30.775   4.555   8.266
 2705POPC   C3B37389  31.094   4.593   7.902
 2705POPC   C4B37390  31.089   4.596   7.439
 2706POPC   NC337391  20.338  21.369   9.435
 2706POPC   PO437392  19.690  21.251   9.328
 2706POPC   GL137393  19.972  21.516   9.049
 2706POPC   GL237394  20.352  21.727   9.048
 2706POPC   C1A37395  19.747  21.476   8.651
 2706POPC   D2A37396  19.499  21.565   8.286
 2706POPC   C3A37397  19.578  21.283   7.943
 2706POPC   C4A37398  19.833  21.211   7.584
 2706POPC   C1B37399  20.251  21.663   8.650
 2706POPC   C2B37400  20.163  21.273   8.425
 2706POPC   C3B37401  20.103  21.244   8.020
 2706POPC   C4B37402  20.140  21.591   7.779
 2707POPC   NC337403   2.399  28.375   9.824
 2707POPC   PO437404   3.000  28.558   9.658
 2707POPC   GL137405   2.868  28.526   9.210
 2707POPC   GL237406   2.832  28.173   9.066
 2707POPC   C1A37407   2.664  28.538   8.768
 2707POPC   D2A37408   2.693  28.245   8.406
 2707POPC   C3A37409   2.735  28.369   7.965
 2707POPC   C4A37410   2.522  28.552   7.590
 2707POPC   C1B37411   2.406  28.086   8.812
 2707POPC   C2B37412   2.196  28.145   8.366
 2707POPC   C3B37413   2.296  28.059   7.906
 2707POPC   C4B37414   2.577  28.048   7.530
 2708POPC   NC337415  19.156  36.186   9.366
 2708POPC   PO437416  18.798  35.671   9.317
 2708POPC   GL137417  18.979  35.887   8.986
 2708POPC   GL237418  18.829  36.193   8.930
 2708POPC   C1A37419  19.017  35.928   8.557
 2708POPC   D2A37420  18.790  36.178   8.295
 2708POPC   C3A37421  19.132  36.193   8.053
 2708POPC   C4A37422  19.231  35.806   7.861
 2708POPC   C1B37423  19.166  36.406   8.654
 2708POPC   C2B37424  19.329  36.657   8.284
 2708POPC   C3B37425  19.156  36.666   7.860
 2708POPC   C4B37426  18.812  36.386   7.690
 2709POPC   NC337427  14.859  35.631   9.567
 2709POPC   PO437428  15.510  35.623   9.485
 2709POPC   GL137429  15.373  35.696   9.074
 2709POPC   GL237430  15.090  35.495   9.121
 2709POPC   C1A37431  15.304  35.622   8.615
 2709POPC   D2A37432  15.245  35.656   8.153
 2709POPC   C3A37433  14.926  35.488   7.936
 2709POPC   C4A37434  14.923  35.385   7.543
 2709POPC   C1B37435  14.899  35.334   8.746
 2709POPC   C2B37436  15.054  35.199   8.330
 2709POPC   C3B37437  14.965  34.992   7.905
 2709POPC   C4B37438  15.124  34.924   7.476
 2710POPC   NC337439  35.964  43.358   9.624
 2710POPC   PO437440  36.429  42.846   9.379
 2710POPC   GL137441  36.214  43.095   9.081
 2710POPC   GL237442  36.180  43.452   9.164
 2710POPC   C1A37443  36.408  43.069   8.667
 2710POPC   D2A37444  36.355  42.807   8.299
 2710POPC   C3A37445  36.323  43.026   7.910
 2710POPC   C4A37446  36.073  42.996   7.559
 2710POPC   C1B37447  36.124  43.478   8.704
 2710POPC   C2B37448  36.295  43.405   8.276
 2710POPC   C3B37449  36.277  43.633   7.869
 2710POPC   C4B37450  36.307  43.415   7.470
 2711POPC   NC337451  21.774  41.614   9.500
 2711POPC   PO437452  22.298  42.023   9.590
 2711POPC   GL137453  22.198  41.711   9.242
 2711POPC   GL237454  21.925  41.816   9.075
 2711POPC   C1A37455  22.117  41.407   8.865
 2711POPC   D2A37456  22.166  41.560   8.394
 2711POPC   C3A37457  22.011  41.291   8.029
 2711POPC   C4A37458  22.006  41.206   7.568
 2711POPC   C1B37459  22.172  41.948   8.772
 2711POPC   C2B37460  22.049  42.072   8.409
 2711POPC   C3B37461  22.230  42.106   8.035
 2711POPC   C4B37462  22.051  42.038   7.646
 2712POPC   NC337463  29.081  44.697   9.533
 2712POPC   PO437464  29.668  44.985   9.322
 2712POPC   GL137465  29.432  44.686   9.162
 2712POPC   GL237466  29.558  44.404   9.348
 2712POPC   C1A37467  29.079  44.634   8.854
 2712POPC   D2A37468  28.985  44.874   8.452
 2712POPC   C3A37469  29.271  44.908   8.100
 2712POPC   C4A37470  29.110  44.835   7.699
 2712POPC   C1B37471  29.513  44.305   8.871
 2712POPC   C2B37472  29.320  44.436   8.453
 2712POPC   C3B37473  29.075  44.428   8.075
 2712POPC   C4B37474  29.257  44.330   7.698
 2713POPC   NC337475  21.490  43.487   9.694
 2713POPC   PO437476  21.552  44.211   9.557
 2713POPC   GL137477  21.609  43.826   9.280
 2713POPC   GL237478  21.841  43.958   9.061
 2713POPC   C1A37479  21.509  43.696   8.810
 2713POPC   D2A37480  21.336  43.905   8.450
 2713POPC   C3A37481  21.353  43.680   8.072
 2713POPC   C4A37482  21.191  43.849   7.677
 2713POPC   C1B37483  21.786  44.125   8.655
 2713POPC   C2B37484  21.793  43.987   8.224
 2713POPC   C3B37485  21.568  44.126   7.865
 2713POPC   C4B37486  21.624  44.129   7.385
 2714POPC   NC337487  21.808  11.315   9.514
 2714POPC   PO437488  21.131  11.234   9.511
 2714POPC   GL137489  21.418  11.174   9.178
 2714POPC   GL237490  21.590  10.882   9.294
 2714POPC   C1A37491  21.485  11.366   8.746
 2714POPC   D2A37492  21.173  11.441   8.369
 2714POPC   C3A37493  21.288  11.493   7.907
 2714POPC   C4A37494  21.225  11.481   7.420
 2714POPC   C1B37495  21.591  10.844   8.834
 2714POPC   C2B37496  21.324  10.966   8.487
 2714POPC   C3B37497  21.262  10.975   8.058
 2714POPC   C4B37498  21.403  11.059   7.676
 2715POPC   NC337499  11.159  22.480   9.524
 2715POPC   PO437500  11.345  21.853   9.465
 2715POPC   GL137501  11.374  22.146   9.148
 2715POPC   GL237502  11.578  22.475   9.160
 2715POPC   C1A37503  11.259  21.951   8.758
 2715POPC   D2A37504  11.535  21.757   8.474
 2715POPC   C3A37505  11.469  21.793   8.056
 2715POPC   C4A37506  11.413  22.104   7.749
 2715POPC   C1B37507  11.420  22.427   8.733
 2715POPC   C2B37508  11.362  22.262   8.336
 2715POPC   C3B37509  11.299  22.529   8.016
 2715POPC   C4B37510  11.527  22.610   7.650
 2716POPC   NC337511  33.345   9.555   9.454
 2716POPC   PO437512  32.834  10.066   9.294
 2716POPC   GL137513  33.120   9.844   9.102
 2716POPC   GL237514  32.968   9.543   9.086
 2716POPC   C1A37515  33.280   9.709   8.722
 2716POPC   D2A37516  33.166   9.572   8.333
 2716POPC   C3A37517  33.271   9.828   7.990
 2716POPC   C4A37518  33.014  10.145   7.787
 2716POPC   C1B37519  32.734   9.590   8.702
 2716POPC   C2B37520  32.705   9.335   8.306
 2716POPC   C3B37521  32.827   9.574   7.930
 2716POPC   C4B37522  33.135   9.490   7.614
 2717POPC   NC337523  15.882   5.393   9.972
 2717POPC   PO437524  16.176   5.526   9.340
 2717POPC   GL137525  15.893   5.273   9.134
 2717POPC   GL237526  15.920   4.896   9.184
 2717POPC   C1A37527  15.969   5.131   8.721
 2717POPC   D2A37528  15.863   4.891   8.364
 2717POPC   C3A37529  15.956   5.101   7.995
 2717POPC   C4A37530  15.880   5.402   7.692
 2717POPC   C1B37531  16.174   4.685   8.833
 2717POPC   C2B37532  16.332   4.600   8.431
 2717POPC   C3B37533  16.217   4.623   8.014
 2717POPC   C4B37534  16.201   4.824   7.628
 2718POPC   NC337535  40.072  32.476   9.775
 2718POPC   PO437536  39.844  33.142   9.511
 2718POPC   GL137537  39.963  33.022   9.125
 2718POPC   GL237538  40.288  33.212   9.034
 2718POPC   C1A37539  39.831  33.104   8.714
 2718POPC   D2A37540  39.879  33.374   8.359
 2718POPC   C3A37541  40.026  33.137   7.996
 2718POPC   C4A37542  39.932  32.808   7.711
 2718POPC   C1B37543  40.262  32.829   8.775
 2718POPC   C2B37544  40.074  32.782   8.395
 2718POPC   C3B37545  40.225  32.578   8.060
 2718POPC   C4B37546  40.305  32.408   7.678
 2719POPC   NC337547  36.280   5.661   9.579
 2719POPC   PO437548  36.030   6.189   9.532
 2719POPC   GL137549  36.306   6.009   9.189
 2719POPC   GL237550  36.133   5.733   9.054
 2719POPC   C1A37551  36.442   6.058   8.752
 2719POPC   D2A37552  36.255   5.884   8.375
 2719POPC   C3A37553  36.435   5.807   7.969
 2719POPC   C4A37554  36.500   5.898   7.566
 2719POPC   C1B37555  35.862   5.934   8.704
 2719POPC   C2B37556  35.841   6.185   8.271
 2719POPC   C3B37557  35.824   6.082   7.807
 2719POPC   C4B37558  35.563   6.012   7.423
 2720POPC   NC337559  28.130   1.742  10.002
 2720POPC   PO437560  28.229   2.219   9.557
 2720POPC   GL137561  28.311   1.988   9.181
 2720POPC   GL237562  28.384   2.292   9.049
 2720POPC   C1A37563  28.462   1.849   8.755
 2720POPC   D2A37564  28.326   1.884   8.333
 2720POPC   C3A37565  28.573   1.874   7.954
 2720POPC   C4A37566  28.404   1.947   7.532
 2720POPC   C1B37567  28.250   2.311   8.641
 2720POPC   C2B37568  28.157   2.380   8.222
 2720POPC   C3B37569  28.352   2.330   7.855
 2720POPC   C4B37570  28.313   2.432   7.382
 2721POPC   NC337571  32.340  44.798   9.436
 2721POPC   PO437572  31.884  44.235   9.508
 2721POPC   GL137573  32.033  44.488   9.143
 2721POPC   GL237574  32.409  44.397   9.105
 2721POPC   C1A37575  31.903  44.678   8.731
 2721POPC   D2A37576  32.134  44.415   8.400
 2721POPC   C3A37577  32.287  44.448   7.936
 2721POPC   C4A37578  32.063  44.617   7.559
 2721POPC   C1B37579  32.401  44.722   8.766
 2721POPC   C2B37580  32.205  44.912   8.356
 2721POPC   C3B37581  32.338  44.945   7.906
 2721POPC   C4B37582  32.318   0.071   7.467
 2722POPC   NC337583  39.232  24.114   9.536
 2722POPC   PO437584  38.953  24.777   9.610
 2722POPC   GL137585  39.223  24.610   9.233
 2722POPC   GL237586  39.076  24.351   9.119
 2722POPC   C1A37587  39.351  24.727   8.786
 2722POPC   D2A37588  39.095  24.513   8.434
 2722POPC   C3A37589  38.920  24.538   7.972
 2722POPC   C4A37590  39.108  24.306   7.579
 2722POPC   C1B37591  39.342  24.221   8.815
 2722POPC   C2B37592  39.576  24.389   8.447
 2722POPC   C3B37593  39.404  24.345   8.028
 2722POPC   C4B37594  39.475  23.982   7.705
 2723POPC   NC337595   5.212  38.982  10.019
 2723POPC   PO437596   4.743  38.996   9.583
 2723POPC   GL137597   4.841  38.989   9.140
 2723POPC   GL237598   4.523  38.980   9.014
 2723POPC   C1A37599   4.915  38.958   8.673
 2723POPC   D2A37600   4.772  39.108   8.254
 2723POPC   C3A37601   5.069  39.100   7.870
 2723POPC   C4A37602   5.103  38.971   7.438
 2723POPC   C1B37603   4.578  39.338   8.693
 2723POPC   C2B37604   4.648  39.612   8.305
 2723POPC   C3B37605   4.711  39.473   7.882
 2723POPC   C4B37606   4.971  39.479   7.508
 2724POPC   NC337607  28.252   5.796   9.589
 2724POPC   PO437608  28.600   6.403   9.521
 2724POPC   GL137609  28.572   5.980   9.224
 2724POPC   GL237610  28.214   5.838   9.090
 2724POPC   C1A37611  28.607   5.775   8.784
 2724POPC   D2A37612  28.385   5.825   8.383
 2724POPC   C3A37613  28.579   5.758   7.978
 2724POPC   C4A37614  28.464   6.026   7.628
 2724POPC   C1B37615  27.955   5.752   8.706
 2724POPC   C2B37616  27.919   5.639   8.273
 2724POPC   C3B37617  28.091   5.765   7.880
 2724POPC   C4B37618  28.011   5.800   7.438
 2725POPC   NC337619  39.228  22.833   9.501
 2725POPC   PO437620  38.891  23.247   9.105
 2725POPC   GL137621  39.165  22.928   9.010
 2725POPC   GL237622  39.021  22.603   9.087
 2725POPC   C1A37623  39.498  22.909   8.725
 2725POPC   D2A37624  39.372  22.808   8.294
 2725POPC   C3A37625  39.013  22.977   8.137
 2725POPC   C4A37626  39.021  23.214   7.771
 2725POPC   C1B37627  39.190  22.493   8.720
 2725POPC   C2B37628  39.200  22.308   8.349
 2725POPC   C3B37629  39.134  22.477   7.950
 2725POPC   C4B37630  39.330  22.781   7.744
 2726POPC   NC337631  41.930   7.628   9.542
 2726POPC   PO437632  42.488   7.167   9.520
 2726POPC   GL137633  42.436   7.423   9.179
 2726POPC   GL237634  42.112   7.368   9.135
 2726POPC   C1A37635  42.656   7.486   8.782
 2726POPC   D2A37636  42.716   7.457   8.335
 2726POPC   C3A37637  42.440   7.452   7.989
 2726POPC   C4A37638  42.526   7.249   7.586
 2726POPC   C1B37639  42.173   7.690   8.800
 2726POPC   C2B37640  42.175   7.818   8.355
 2726POPC   C3B37641  41.925   7.714   8.019
 2726POPC   C4B37642  42.030   7.446   7.692
 2727POPC   NC337643  14.666  10.691   9.669
 2727POPC   PO437644  14.526  11.411   9.515
 2727POPC   GL137645  14.505  11.360   9.098
 2727POPC   GL237646  14.196  11.274   9.025
 2727POPC   C1A37647  14.591  11.195   8.687
 2727POPC   D2A37648  14.397  11.048   8.330
 2727POPC   C3A37649  14.416  11.299   7.943
 2727POPC   C4A37650  14.728  11.589   7.733
 2727POPC   C1B37651  13.974  11.342   8.671
 2727POPC   C2B37652  13.989  11.407   8.244
 2727POPC   C3B37653  13.904  11.417   7.820
 2727POPC   C4B37654  14.208  11.733   7.738
 2728POPC   NC337655  18.733  25.249   9.648
 2728POPC   PO437656  18.013  25.143   9.522
 2728POPC   GL137657  18.050  24.989   9.105
 2728POPC   GL237658  18.420  25.085   9.074
 2728POPC   C1A37659  18.051  25.121   8.681
 2728POPC   D2A37660  18.244  25.427   8.434
 2728POPC   C3A37661  18.257  25.229   8.044
 2728POPC   C4A37662  18.275  25.390   7.635
 2728POPC   C1B37663  18.556  25.005   8.656
 2728POPC   C2B37664  18.731  25.281   8.325
 2728POPC   C3B37665  18.735  25.394   7.936
 2728POPC   C4B37666  18.628  25.068   7.734
 2729POPC   NC337667  21.560   1.987   9.545
 2729POPC   PO437668  20.933   1.937   9.461
 2729POPC   GL137669  21.236   1.802   9.131
 2729POPC   GL237670  21.620   1.757   9.092
 2729POPC   C1A37671  21.263   1.912   8.692
 2729POPC   D2A37672  21.171   1.736   8.285
 2729POPC   C3A37673  21.138   1.954   7.908
 2729POPC   C4A37674  21.404   2.230   7.677
 2729POPC   C1B37675  21.857   1.578   8.764
 2729POPC   C2B37676  21.656   1.685   8.400
 2729POPC   C3B37677  21.641   1.834   7.966
 2729POPC   C4B37678  21.703   1.729   7.536
 2730POPC   NC337679  23.874  21.822   9.509
 2730POPC   PO437680  23.503  22.370   9.551
 2730POPC   GL137681  23.610  22.408   9.175
 2730POPC   GL237682  23.729  22.092   9.106
 2730POPC   C1A37683  23.820  22.466   8.770
 2730POPC   D2A37684  24.026  22.361   8.413
 2730POPC   C3A37685  23.800  22.388   8.059
 2730POPC   C4A37686  23.836  22.495   7.643
 2730POPC   C1B37687  23.966  21.964   8.752
 2730POPC   C2B37688  23.961  21.846   8.319
 2730POPC   C3B37689  24.107  21.988   7.921
 2730POPC   C4B37690  24.035  22.073   7.476
 2731POPC   NC337691  37.754   5.435   9.672
 2731POPC   PO437692  37.286   5.107   9.430
 2731POPC   GL137693  37.720   5.062   9.189
 2731POPC   GL237694  38.079   4.790   9.130
 2731POPC   C1A37695  37.854   5.316   8.832
 2731POPC   D2A37696  37.835   5.498   8.420
 2731POPC   C3A37697  37.816   5.297   8.036
 2731POPC   C4A37698  37.670   5.332   7.618
 2731POPC   C1B37699  37.917   4.818   8.774
 2731POPC   C2B37700  37.861   4.965   8.420
 2731POPC   C3B37701  38.088   4.874   8.090
 2731POPC   C4B37702  37.883   4.865   7.715
 2732POPC   NC337703  12.323  41.434   9.862
 2732POPC   PO437704  11.879  41.797   9.562
 2732POPC   GL137705  12.057  41.606   9.189
 2732POPC   GL237706  12.400  41.704   9.038
 2732POPC   C1A37707  11.980  41.353   8.827
 2732POPC   D2A37708  12.045  41.450   8.394
 2732POPC   C3A37709  11.862  41.341   8.020
 2732POPC   C4A37710  11.951  41.351   7.571
 2732POPC   C1B37711  12.358  41.788   8.612
 2732POPC   C2B37712  12.069  41.943   8.294
 2732POPC   C3B37713  12.095  41.826   7.843
 2732POPC   C4B37714  12.521  41.919   7.739
 2733POPC   NC337715  43.272   2.406   9.607
 2733POPC   PO437716  42.792   2.092   9.622
 2733POPC   GL137717  42.864   1.952   9.110
 2733POPC   GL237718  43.169   2.173   9.155
 2733POPC   C1A37719  43.173   1.787   8.791
 2733POPC   D2A37720  43.421   1.982   8.466
 2733POPC   C3A37721  43.288   1.937   8.024
 2733POPC   C4A37722  43.412   2.176   7.660
 2733POPC   C1B37723  43.038   2.277   8.740
 2733POPC   C2B37724  42.803   2.371   8.417
 2733POPC   C3B37725  42.915   2.343   8.024
 2733POPC   C4B37726  42.687   2.467   7.653
 2734POPC   NC337727  35.308  17.575   9.656
 2734POPC   PO437728  34.904  17.400   9.149
 2734POPC   GL137729  35.334  17.566   9.135
 2734POPC   GL237730  35.482  17.304   9.229
 2734POPC   C1A37731  35.472  17.725   8.754
 2734POPC   D2A37732  35.228  17.616   8.387
 2734POPC   C3A37733  35.336  17.625   7.967
 2734POPC   C4A37734  35.139  17.358   7.726
 2734POPC   C1B37735  35.520  17.227   8.775
 2734POPC   C2B37736  35.658  17.323   8.358
 2734POPC   C3B37737  35.578  17.179   7.952
 2734POPC   C4B37738  35.463  17.025   7.541
 2735POPC   NC337739   0.919   5.425   9.565
 2735POPC   PO437740   0.331   5.196   9.738
 2735POPC   GL137741   0.353   5.310   9.308
 2735POPC   GL237742   0.519   5.005   9.235
 2735POPC   C1A37743   0.259   5.209   8.858
 2735POPC   D2A37744   0.420   5.109   8.452
 2735POPC   C3A37745   0.157   4.933   8.139
 2735POPC   C4A37746   0.220   4.961   7.713
 2735POPC   C1B37747   0.648   4.837   8.836
 2735POPC   C2B37748   0.674   4.662   8.398
 2735POPC   C3B37749   0.662   4.835   7.966
 2735POPC   C4B37750   0.689   4.858   7.509
 2736POPC   NC337751  36.319  13.631   9.549
 2736POPC   PO437752  35.758  13.261   9.396
 2736POPC   GL137753  35.996  13.569   9.163
 2736POPC   GL237754  36.361  13.564   9.046
 2736POPC   C1A37755  35.961  13.743   8.790
 2736POPC   D2A37756  35.898  13.582   8.428
 2736POPC   C3A37757  35.953  13.914   8.175
 2736POPC   C4A37758  36.005  13.843   7.771
 2736POPC   C1B37759  36.396  13.518   8.594
 2736POPC   C2B37760  36.325  13.540   8.140
 2736POPC   C3B37761  36.340  13.474   7.705
 2736POPC   C4B37762  36.500  13.471   7.275
 2737POPC   NC337763  16.583  10.924   9.617
 2737POPC   PO437764  16.625  11.536   9.551
 2737POPC   GL137765  16.826  11.343   9.175
 2737POPC   GL237766  16.948  11.012   9.268
 2737POPC   C1A37767  16.898  11.236   8.714
 2737POPC   D2A37768  17.036  11.095   8.288
 2737POPC   C3A37769  16.934  11.297   7.868
 2737POPC   C4A37770  16.704  11.524   7.503
 2737POPC   C1B37771  16.637  10.880   8.966
 2737POPC   C2B37772  16.662  10.819   8.522
 2737POPC   C3B37773  16.528  10.995   8.128
 2737POPC   C4B37774  16.552  11.018   7.691
 2738POPC   NC337775   4.422  20.237   9.396
 2738POPC   PO437776   4.503  19.655   9.271
 2738POPC   GL137777   4.190  19.894   9.090
 2738POPC   GL237778   3.998  19.605   9.102
 2738POPC   C1A37779   4.263  20.067   8.668
 2738POPC   D2A37780   4.287  19.926   8.229
 2738POPC   C3A37781   4.653  19.953   7.972
 2738POPC   C4A37782   4.744  20.104   7.579
 2738POPC   C1B37783   4.225  19.569   8.702
 2738POPC   C2B37784   4.543  19.541   8.444
 2738POPC   C3B37785   4.481  19.474   8.009
 2738POPC   C4B37786   4.260  19.745   7.702
 2739POPC   NC337787  14.167  44.906   9.630
 2739POPC   PO437788  13.510  44.633   9.515
 2739POPC   GL137789  13.722  44.556   9.141
 2739POPC   GL237790  13.441  44.676   8.985
 2739POPC   C1A37791  13.853  44.860   8.775
 2739POPC   D2A37792  13.745  44.781   8.350
 2739POPC   C3A37793  14.001  44.897   8.016
 2739POPC   C4A37794  13.955  44.680   7.642
 2739POPC   C1B37795  13.296  44.827   8.598
 2739POPC   C2B37796  13.252  44.821   8.147
 2739POPC   C3B37797  13.371  44.783   7.707
 2739POPC   C4B37798  13.203  44.757   7.261
 2740POPC   NC337799   1.392  26.235   9.525
 2740POPC   PO437800   0.848  26.624   9.407
 2740POPC   GL137801   0.803  26.861   9.006
 2740POPC   GL237802   1.144  26.803   8.903
 2740POPC   C1A37803   0.852  26.965   8.524
 2740POPC   D2A37804   1.205  26.931   8.226
 2740POPC   C3A37805   1.222  26.729   7.836
 2740POPC   C4A37806   0.898  26.555   7.581
 2740POPC   C1B37807   1.359  27.152   8.666
 2740POPC   C2B37808   1.515  27.353   8.264
 2740POPC   C3B37809   1.421  27.222   7.839
 2740POPC   C4B37810   1.579  26.926   7.494
 2741POPC   NC337811  28.130  42.508   9.497
 2741POPC   PO437812  28.493  41.902   9.587
 2741POPC   GL137813  28.437  42.157   9.176
 2741POPC   GL237814  28.117  42.212   9.091
 2741POPC   C1A37815  28.525  42.243   8.733
 2741POPC   D2A37816  28.559  42.474   8.343
 2741POPC   C3A37817  28.350  42.396   7.982
 2741POPC   C4A37818  28.241  42.562   7.611
 2741POPC   C1B37819  27.967  42.308   8.723
 2741POPC   C2B37820  28.095  42.193   8.343
 2741POPC   C3B37821  27.988  42.038   7.905
 2741POPC   C4B37822  28.047  42.141   7.434
 2742POPC   NC337823  17.168  27.866   9.573
 2742POPC   PO437824  17.552  28.487   9.600
 2742POPC   GL137825  17.574  28.328   9.197
 2742POPC   GL237826  17.297  28.122   9.153
 2742POPC   C1A37827  17.421  28.447   8.792
 2742POPC   D2A37828  17.171  28.529   8.436
 2742POPC   C3A37829  17.411  28.567   8.057
 2742POPC   C4A37830  17.619  28.537   7.692
 2742POPC   C1B37831  17.151  28.035   8.753
 2742POPC   C2B37832  17.366  28.043   8.386
 2742POPC   C3B37833  17.234  28.112   7.999
 2742POPC   C4B37834  17.466  28.056   7.643
 2743POPC   NC337835  15.177  15.935   9.563
 2743POPC   PO437836  14.566  15.814   9.495
 2743POPC   GL137837  14.881  15.718   9.168
 2743POPC   GL237838  14.914  16.083   9.124
 2743POPC   C1A37839  15.181  15.805   8.791
 2743POPC   D2A37840  15.329  16.036   8.398
 2743POPC   C3A37841  15.206  15.879   7.983
 2743POPC   C4A37842  15.015  15.760   7.591
 2743POPC   C1B37843  15.037  16.325   8.751
 2743POPC   C2B37844  15.038  16.516   8.325
 2743POPC   C3B37845  15.044  16.387   7.880
 2743POPC   C4B37846  15.164  16.220   7.464
 2744POPC   NC337847   7.008  36.125   9.645
 2744POPC   PO437848   6.369  36.061   9.479
 2744POPC   GL137849   6.524  35.863   9.089
 2744POPC   GL237850   6.866  35.964   9.030
 2744POPC   C1A37851   6.442  35.918   8.653
 2744POPC   D2A37852   6.657  36.157   8.329
 2744POPC   C3A37853   6.425  36.165   7.935
 2744POPC   C4A37854   6.676  36.375   7.606
 2744POPC   C1B37855   6.905  35.701   8.636
 2744POPC   C2B37856   6.697  35.675   8.217
 2744POPC   C3B37857   6.853  35.923   7.848
 2744POPC   C4B37858   6.828  35.920   7.390
 2745POPC   NC337859  35.752  26.975   9.477
 2745POPC   PO437860  36.375  26.700   9.608
 2745POPC   GL137861  36.359  26.682   9.160
 2745POPC   GL237862  36.086  26.951   9.048
 2745POPC   C1A37863  36.276  26.565   8.725
 2745POPC   D2A37864  36.190  26.916   8.472
 2745POPC   C3A37865  36.119  26.948   8.031
 2745POPC   C4A37866  36.221  26.965   7.593
 2745POPC   C1B37867  35.861  27.210   8.715
 2745POPC   C2B37868  35.699  27.014   8.345
 2745POPC   C3B37869  35.444  27.024   8.009
 2745POPC   C4B37870  35.731  27.088   7.718
 2746POPC   NC337871   3.162  36.890   9.550
 2746POPC   PO437872   2.529  37.110   9.529
 2746POPC   GL137873   2.814  36.927   9.191
 2746POPC   GL237874   3.162  37.125   9.112
 2746POPC   C1A37875   2.717  36.744   8.788
 2746POPC   D2A37876   2.489  36.782   8.413
 2746POPC   C3A37877   2.664  36.876   8.011
 2746POPC   C4A37878   2.873  36.658   7.716
 2746POPC   C1B37879   3.199  36.888   8.750
 2746POPC   C2B37880   3.012  36.968   8.398
 2746POPC   C3B37881   3.173  36.899   8.034
 2746POPC   C4B37882   3.172  37.167   7.690
 2747POPC   NC337883  38.222  35.425   9.431
 2747POPC   PO437884  38.852  35.603   9.441
 2747POPC   GL137885  38.637  35.333   9.100
 2747POPC   GL237886  38.298  35.112   9.064
 2747POPC   C1A37887  38.561  35.498   8.685
 2747POPC   D2A37888  38.722  35.744   8.343
 2747POPC   C3A37889  38.623  35.548   7.937
 2747POPC   C4A37890  38.444  35.175   7.710
 2747POPC   C1B37891  38.080  35.356   8.769
 2747POPC   C2B37892  37.992  35.448   8.364
 2747POPC   C3B37893  38.105  35.476   7.938
 2747POPC   C4B37894  37.966  35.291   7.553
 2748POPC   NC337895  37.025  14.243   9.906
 2748POPC   PO437896  36.695  14.661   9.491
 2748POPC   GL137897  36.780  14.311   9.227
 2748POPC   GL237898  37.096  14.298   9.077
 2748POPC   C1A37899  36.691  14.207   8.780
 2748POPC   D2A37900  36.652  14.441   8.382
 2748POPC   C3A37901  36.823  14.287   8.001
 2748POPC   C4A37902  36.601  14.461   7.636
 2748POPC   C1B37903  37.099  14.513   8.657
 2748POPC   C2B37904  37.137  14.659   8.209
 2748POPC   C3B37905  37.075  14.649   7.754
 2748POPC   C4B37906  37.228  14.921   7.446
 2749POPC   NC337907  18.946   5.577   9.621
 2749POPC   PO437908  19.408   6.000   9.683
 2749POPC   GL137909  19.235   5.806   9.253
 2749POPC   GL237910  18.854   5.823   9.163
 2749POPC   C1A37911  19.193   5.796   8.760
 2749POPC   D2A37912  19.012   5.936   8.332
 2749POPC   C3A37913  19.144   5.806   7.878
 2749POPC   C4A37914  18.992   6.020   7.478
 2749POPC   C1B37915  18.637   6.047   8.785
 2749POPC   C2B37916  18.486   6.175   8.340
 2749POPC   C3B37917  18.702   6.087   7.919
 2749POPC   C4B37918  18.658   5.677   7.686
 2750POPC   NC337919  13.450  19.357   9.117
 2750POPC   PO437920  13.363  18.760   9.508
 2750POPC   GL137921  13.623  18.644   9.147
 2750POPC   GL237922  13.842  18.956   9.099
 2750POPC   C1A37923  13.596  18.703   8.707
 2750POPC   D2A37924  13.745  18.964   8.386
 2750POPC   C3A37925  13.768  18.802   7.956
 2750POPC   C4A37926  13.439  18.792   7.624
 2750POPC   C1B37927  14.048  19.282   8.823
 2750POPC   C2B37928  14.064  19.494   8.439
 2750POPC   C3B37929  13.912  19.342   8.087
 2750POPC   C4B37930  13.603  19.261   7.783
 2751POPC   NC337931  29.703  32.493   9.433
 2751POPC   PO437932  30.312  32.549   9.369
 2751POPC   GL137933  30.079  32.324   9.055
 2751POPC   GL237934  29.799  32.101   9.126
 2751POPC   C1A37935  30.031  32.027   8.700
 2751POPC   D2A37936  29.799  31.947   8.358
 2751POPC   C3A37937  30.100  32.112   8.086
 2751POPC   C4A37938  30.198  32.287   7.692
 2751POPC   C1B37939  29.672  32.420   8.768
 2751POPC   C2B37940  29.803  32.468   8.349
 2751POPC   C3B37941  29.658  32.323   7.940
 2751POPC   C4B37942  29.518  32.476   7.566
 2752POPC   NC337943  26.622  18.602   9.450
 2752POPC   PO437944  27.140  18.161   9.687
 2752POPC   GL137945  27.008  18.233   9.240
 2752POPC   GL237946  26.662  18.263   9.067
 2752POPC   C1A37947  27.226  18.332   8.834
 2752POPC   D2A37948  27.099  18.305   8.389
 2752POPC   C3A37949  27.176  18.574   8.027
 2752POPC   C4A37950  27.169  18.352   7.622
 2752POPC   C1B37951  26.344  18.483   8.789
 2752POPC   C2B37952  26.442  18.595   8.334
 2752POPC   C3B37953  26.714  18.358   8.030
 2752POPC   C4B37954  26.674  17.966   7.817
 2753POPC   NC337955  29.549  24.468   9.373
 2753POPC   PO437956  30.166  24.393   9.691
 2753POPC   GL137957  30.213  24.585   9.195
 2753POPC   GL237958  29.942  24.730   9.072
 2753POPC   C1A37959  30.192  24.365   8.707
 2753POPC   D2A37960  29.939  24.420   8.295
 2753POPC   C3A37961  29.931  24.217   7.900
 2753POPC   C4A37962  29.561  23.997   7.906
 2753POPC   C1B37963  29.709  24.632   8.691
 2753POPC   C2B37964  29.471  24.856   8.375
 2753POPC   C3B37965  29.577  24.662   8.003
 2753POPC   C4B37966  29.581  24.521   7.603
 2754POPC   NC337967  26.174  34.147   9.565
 2754POPC   PO437968  25.770  33.671   9.789
 2754POPC   GL137969  25.749  33.640   9.271
 2754POPC   GL237970  25.767  33.989   9.158
 2754POPC   C1A37971  25.928  33.655   8.782
 2754POPC   D2A37972  26.120  33.558   8.336
 2754POPC   C3A37973  26.080  33.679   7.901
 2754POPC   C4A37974  25.901  33.471   7.546
 2754POPC   C1B37975  26.160  34.074   8.917
 2754POPC   C2B37976  26.205  34.069   8.470
 2754POPC   C3B37977  26.353  34.083   8.052
 2754POPC   C4B37978  26.144  34.114   7.639
 2755POPC   NC337979   0.836  42.190   9.467
 2755POPC   PO437980   1.501  42.441   9.555
 2755POPC   GL137981   1.323  42.316   9.129
 2755POPC   GL237982   1.007  42.206   8.998
 2755POPC   C1A37983   1.420  42.069   8.741
 2755POPC   D2A37984   1.226  41.980   8.321
 2755POPC   C3A37985   1.473  42.057   7.972
 2755POPC   C4A37986   1.440  42.290   7.636
 2755POPC   C1B37987   1.077  42.393   8.559
 2755POPC   C2B37988   1.112  42.428   8.090
 2755POPC   C3B37989   1.001  42.537   7.655
 2755POPC   C4B37990   0.737  42.467   7.286
 2756POPC   NC337991  42.909   7.456   9.438
 2756POPC   PO437992  43.272   6.927   9.436
 2756POPC   GL137993  43.133   7.136   9.082
 2756POPC   GL237994  42.794   7.063   9.125
 2756POPC   C1A37995  43.105   7.262   8.647
 2756POPC   D2A37996  43.156   7.202   8.205
 2756POPC   C3A37997  43.025   7.560   7.927
 2756POPC   C4A37998  42.746   7.720   7.606
 2756POPC   C1B37999  42.818   6.838   8.803
 2756POPC   C2B38000  42.726   6.944   8.419
 2756POPC   C3B38001  42.661   6.989   8.014
 2756POPC   C4B38002  42.978   7.079   7.739
 2757POPC   NC338003   5.154   6.812   9.542
 2757POPC   PO438004   4.575   6.928   9.358
 2757POPC   GL138005   4.920   6.668   9.099
 2757POPC   GL238006   5.339   6.611   9.113
 2757POPC   C1A38007   5.099   6.646   8.664
 2757POPC   D2A38008   5.226   6.697   8.233
 2757POPC   C3A38009   4.899   6.565   7.951
 2757POPC   C4A38010   4.854   6.516   7.518
 2757POPC   C1B38011   5.500   6.348   8.763
 2757POPC   C2B38012   5.409   6.226   8.316
 2757POPC   C3B38013   5.366   6.361   7.858
 2757POPC   C4B38014   5.327   6.520   7.373
 2758POPC   NC338015  23.998  20.242   9.445
 2758POPC   PO438016  23.519  19.692   9.556
 2758POPC   GL138017  23.668  19.881   9.200
 2758POPC   GL238018  23.981  19.692   9.239
 2758POPC   C1A38019  23.595  19.872   8.759
 2758POPC   D2A38020  23.659  19.526   8.452
 2758POPC   C3A38021  23.452  19.552   8.051
 2758POPC   C4A38022  23.575  19.813   7.689
 2758POPC   C1B38023  24.072  19.662   8.774
 2758POPC   C2B38024  23.993  19.925   8.408
 2758POPC   C3B38025  23.956  19.724   8.034
 2758POPC   C4B38026  24.227  19.528   7.768
 2759POPC   NC338027  16.063   7.844   9.392
 2759POPC   PO438028  15.614   8.404   9.444
 2759POPC   GL138029  15.767   8.194   9.111
 2759POPC   GL238030  16.098   8.337   9.129
 2759POPC   C1A38031  15.946   7.997   8.748
 2759POPC   D2A38032  16.226   7.997   8.390
 2759POPC   C3A38033  15.986   8.189   8.070
 2759POPC   C4A38034  15.936   8.104   7.651
 2759POPC   C1B38035  16.337   8.387   8.732
 2759POPC   C2B38036  16.345   8.549   8.269
 2759POPC   C3B38037  16.328   8.454   7.792
 2759POPC   C4B38038  16.272   8.266   7.334
 2760POPC   NC338039  26.628   6.032   9.493
 2760POPC   PO438040  26.969   5.447   9.572
 2760POPC   GL138041  26.900   5.689   9.229
 2760POPC   GL238042  27.117   5.949   9.200
 2760POPC   C1A38043  26.815   5.846   8.824
 2760POPC   D2A38044  26.893   5.859   8.434
 2760POPC   C3A38045  26.898   5.912   8.008
 2760POPC   C4A38046  26.746   5.727   7.651
 2760POPC   C1B38047  27.227   6.162   8.773
 2760POPC   C2B38048  27.177   6.280   8.318
 2760POPC   C3B38049  27.255   6.231   7.868
 2760POPC   C4B38050  27.226   5.911   7.597
 2761POPC   NC338051   7.545  31.859   9.239
 2761POPC   PO438052   7.748  32.383   9.462
 2761POPC   GL138053   7.521  32.349   9.029
 2761POPC   GL238054   7.296  32.059   8.868
 2761POPC   C1A38055   7.512  32.398   8.566
 2761POPC   D2A38056   7.548  32.446   8.119
 2761POPC   C3A38057   7.551  32.048   7.951
 2761POPC   C4A38058   7.420  31.915   7.550
 2761POPC   C1B38059   7.047  32.420   8.810
 2761POPC   C2B38060   6.916  32.597   8.452
 2761POPC   C3B38061   6.954  32.390   8.060
 2761POPC   C4B38062   7.245  32.400   7.708
 2762POPC   NC338063  23.454   3.052   9.918
 2762POPC   PO438064  23.848   2.611   9.540
 2762POPC   GL138065  23.827   2.692   9.126
 2762POPC   GL238066  23.985   2.988   9.021
 2762POPC   C1A38067  23.588   2.648   8.768
 2762POPC   D2A38068  23.469   2.447   8.404
 2762POPC   C3A38069  23.773   2.366   8.108
 2762POPC   C4A38070  23.621   2.401   7.734
 2762POPC   C1B38071  24.088   2.737   8.668
 2762POPC   C2B38072  23.889   2.830   8.263
 2762POPC   C3B38073  23.818   2.882   7.768
 2762POPC   C4B38074  23.891   3.056   7.308
 2763POPC   NC338075  31.151   8.528   9.843
 2763POPC   PO438076  31.523   8.072   9.427
 2763POPC   GL138077  31.412   8.100   9.013
 2763POPC   GL238078  31.084   8.005   9.106
 2763POPC   C1A38079  31.384   8.126   8.579
 2763POPC   D2A38080  31.647   8.069   8.255
 2763POPC   C3A38081  31.601   8.364   7.957
 2763POPC   C4A38082  31.568   8.054   7.676
 2763POPC   C1B38083  30.958   7.865   8.725
 2763POPC   C2B38084  31.073   7.825   8.309
 2763POPC   C3B38085  31.169   8.113   8.006
 2763POPC   C4B38086  31.086   8.478   7.815
 2764POPC   NC338087  32.870  42.661   9.445
 2764POPC   PO438088  33.206  42.168   9.726
 2764POPC   GL138089  33.212  42.281   9.269
 2764POPC   GL238090  32.934  42.060   9.193
 2764POPC   C1A38091  33.029  42.408   8.835
 2764POPC   D2A38092  33.152  42.448   8.401
 2764POPC   C3A38093  32.938  42.417   7.980
 2764POPC   C4A38094  33.080  42.283   7.580
 2764POPC   C1B38095  32.777  41.961   8.758
 2764POPC   C2B38096  32.716  42.094   8.305
 2764POPC   C3B38097  32.726  41.968   7.848
 2764POPC   C4B38098  32.785  41.895   7.385
 2765POPC   NC338099  19.244  39.928   9.426
 2765POPC   PO438100  18.799  40.483   9.307
 2765POPC   GL138101  18.966  40.137   9.056
 2765POPC   GL238102  18.755  39.856   9.032
 2765POPC   C1A38103  19.045  39.991   8.643
 2765POPC   D2A38104  18.735  39.876   8.322
 2765POPC   C3A38105  18.843  39.928   7.909
 2765POPC   C4A38106  19.230  40.044   7.847
 2765POPC   C1B38107  18.875  39.528   8.671
 2765POPC   C2B38108  19.243  39.611   8.381
 2765POPC   C3B38109  19.288  39.554   7.956
 2765POPC   C4B38110  19.058  39.542   7.601
 2766POPC   NC338111  41.791  28.505   9.596
 2766POPC   PO438112  41.439  27.934   9.460
 2766POPC   GL138113  41.592  28.143   9.115
 2766POPC   GL238114  41.667  28.504   9.109
 2766POPC   C1A38115  41.706  28.098   8.697
 2766POPC   D2A38116  41.913  27.957   8.328
 2766POPC   C3A38117  41.674  28.126   8.004
 2766POPC   C4A38118  41.355  28.384   8.065
 2766POPC   C1B38119  41.762  28.753   8.767
 2766POPC   C2B38120  41.612  28.688   8.381
 2766POPC   C3B38121  41.795  28.686   7.987
 2766POPC   C4B38122  41.634  28.526   7.665
 2767POPC   NC338123  36.778  26.912   9.577
 2767POPC   PO438124  37.360  26.562   9.502
 2767POPC   GL138125  37.051  26.655   9.164
 2767POPC   GL238126  36.914  27.021   9.114
 2767POPC   C1A38127  37.114  26.740   8.727
 2767POPC   D2A38128  37.378  26.952   8.435
 2767POPC   C3A38129  37.153  26.869   8.049
 2767POPC   C4A38130  37.026  27.098   7.693
 2767POPC   C1B38131  36.632  26.923   8.784
 2767POPC   C2B38132  36.643  26.719   8.366
 2767POPC   C3B38133  36.622  26.848   7.939
 2767POPC   C4B38134  36.854  26.620   7.646
 2768POPC   NC338135  36.956  36.370   9.483
 2768POPC   PO438136  36.627  35.731   9.361
 2768POPC   GL138137  36.881  36.033   9.124
 2768POPC   GL238138  37.183  35.927   8.946
 2768POPC   C1A38139  36.920  36.332   8.792
 2768POPC   D2A38140  36.806  36.271   8.365
 2768POPC   C3A38141  37.047  36.303   8.023
 2768POPC   C4A38142  36.964  36.438   7.655
 2768POPC   C1B38143  36.751  35.850   8.675
 2768POPC   C2B38144  36.433  35.923   8.321
 2768POPC   C3B38145  36.602  36.052   7.903
 2768POPC   C4B38146  36.973  35.860   7.782
 2769POPC   NC338147  26.450  29.850   9.909
 2769POPC   PO438148  25.912  30.009   9.633
 2769POPC   GL138149  26.169  29.905   9.293
 2769POPC   GL238150  25.848  29.798   9.158
 2769POPC   C1A38151  26.175  29.991   8.847
 2769POPC   D2A38152  25.858  30.023   8.533
 2769POPC   C3A38153  26.049  30.028   8.164
 2769POPC   C4A38154  26.193  29.850   7.825
 2769POPC   C1B38155  25.737  29.593   8.806
 2769POPC   C2B38156  25.599  29.572   8.403
 2769POPC   C3B38157  25.807  29.567   8.040
 2769POPC   C4B38158  25.760  29.684   7.599
 2770POPC   NC338159   0.689  27.931   9.310
 2770POPC   PO438160   0.302  27.401   9.512
 2770POPC   GL138161   0.138  27.641   9.180
 2770POPC   GL238162   0.413  27.607   9.012
 2770POPC   C1A38163   0.035  27.820   8.759
 2770POPC   D2A38164   0.225  27.579   8.410
 2770POPC   C3A38165   0.428  27.614   8.013
 2770POPC   C4A38166   0.263  27.586   7.623
 2770POPC   C1B38167   0.562  27.858   8.681
 2770POPC   C2B38168   0.812  27.736   8.326
 2770POPC   C3B38169   0.899  27.341   8.097
 2770POPC   C4B38170   0.655  27.189   7.761
 2771POPC   NC338171  27.557  25.919   9.563
 2771POPC   PO438172  27.718  26.565   9.727
 2771POPC   GL138173  27.784  26.295   9.322
 2771POPC   GL238174  27.905  26.468   9.128
 2771POPC   C1A38175  27.737  25.982   8.923
 2771POPC   D2A38176  27.343  26.023   8.633
 2771POPC   C3A38177  27.357  26.002   8.155
 2771POPC   C4A38178  27.353  25.923   7.689
 2771POPC   C1B38179  27.647  26.444   8.761
 2771POPC   C2B38180  27.738  26.260   8.352
 2771POPC   C3B38181  27.673  26.300   7.887
 2771POPC   C4B38182  27.937  26.285   7.497
 2772POPC   NC338183  19.533  40.759   9.451
 2772POPC   PO438184  20.113  41.104   9.277
 2772POPC   GL138185  19.890  40.814   9.040
 2772POPC   GL238186  19.855  40.510   9.096
 2772POPC   C1A38187  19.939  40.835   8.626
 2772POPC   D2A38188  19.669  40.882   8.280
 2772POPC   C3A38189  19.849  40.839   7.916
 2772POPC   C4A38190  19.948  40.948   7.522
 2772POPC   C1B38191  19.639  40.438   8.714
 2772POPC   C2B38192  19.517  40.349   8.308
 2772POPC   C3B38193  19.468  40.508   7.910
 2772POPC   C4B38194  19.447  40.783   7.549
 2773POPC   NC338195  41.076   1.957   9.714
 2773POPC   PO438196  40.607   2.073   9.254
 2773POPC   GL138197  40.812   2.039   8.889
 2773POPC   GL238198  40.632   1.724   8.837
 2773POPC   C1A38199  40.758   2.099   8.476
 2773POPC   D2A38200  40.421   2.234   8.225
 2773POPC   C3A38201  40.580   2.205   7.824
 2773POPC   C4A38202  40.479   1.800   7.653
 2773POPC   C1B38203  41.032   1.630   8.617
 2773POPC   C2B38204  41.220   1.643   8.235
 2773POPC   C3B38205  41.020   1.904   7.923
 2773POPC   C4B38206  40.926   1.965   7.480
 2774POPC   NC338207  43.480  37.604   9.652
 2774POPC   PO438208  42.812  37.708   9.654
 2774POPC   GL138209  43.059  37.594   9.260
 2774POPC   GL238210  43.391  37.709   9.150
 2774POPC   C1A38211  42.973  37.729   8.854
 2774POPC   D2A38212  43.039  37.907   8.426
 2774POPC   C3A38213  42.785  37.790   8.081
 2774POPC   C4A38214  42.986  37.600   7.709
 2774POPC   C1B38215  43.386  37.458   8.756
 2774POPC   C2B38216  43.524  37.446   8.323
 2774POPC   C3B38217  43.405  37.354   7.917
 2774POPC   C4B38218  43.567  37.477   7.542
 2775POPC   NC338219  16.728  24.844   9.634
 2775POPC   PO438220  16.504  25.443   9.519
 2775POPC   GL138221  16.712  25.366   9.150
 2775POPC   GL238222  16.783  25.015   9.163
 2775POPC   C1A38223  16.634  25.483   8.720
 2775POPC   D2A38224  16.590  25.709   8.378
 2775POPC   C3A38225  16.697  25.435   8.045
 2775POPC   C4A38226  16.744  25.530   7.643
 2775POPC   C1B38227  16.475  25.022   8.821
 2775POPC   C2B38228  16.560  24.856   8.383
 2775POPC   C3B38229  16.453  24.813   7.947
 2775POPC   C4B38230  16.585  25.040   7.585
 2776POPC   NC338231  38.150   5.153   9.432
 2776POPC   PO438232  38.609   4.668   9.642
 2776POPC   GL138233  38.593   4.942   9.256
 2776POPC   GL238234  38.586   5.326   9.216
 2776POPC   C1A38235  38.452   4.954   8.827
 2776POPC   D2A38236  38.441   4.752   8.443
 2776POPC   C3A38237  38.625   4.865   8.063
 2776POPC   C4A38238  38.403   4.865   7.700
 2776POPC   C1B38239  38.339   5.458   8.828
 2776POPC   C2B38240  38.286   5.260   8.447
 2776POPC   C3B38241  38.377   5.327   8.051
 2776POPC   C4B38242  38.172   5.290   7.690
 2777POPC   NC338243  17.955   4.533   9.647
 2777POPC   PO438244  17.248   4.330   9.498
 2777POPC   GL138245  17.378   4.295   9.089
 2777POPC   GL238246  17.379   4.668   9.059
 2777POPC   C1A38247  17.490   4.030   8.710
 2777POPC   D2A38248  17.294   3.936   8.304
 2777POPC   C3A38249  17.523   4.059   7.929
 2777POPC   C4A38250  17.392   4.287   7.556
 2777POPC   C1B38251  17.660   4.515   8.738
 2777POPC   C2B38252  17.622   4.373   8.334
 2777POPC   C3B38253  17.486   4.582   7.980
 2777POPC   C4B38254  17.744   4.687   7.610
 2778POPC   NC338255  15.797  41.365   9.609
 2778POPC   PO438256  16.165  41.938   9.472
 2778POPC   GL138257  15.995  41.637   9.178
 2778POPC   GL238258  16.191  41.320   9.250
 2778POPC   C1A38259  15.711  41.680   8.799
 2778POPC   D2A38260  15.553  41.860   8.386
 2778POPC   C3A38261  15.702  41.580   8.071
 2778POPC   C4A38262  15.973  41.581   7.706
 2778POPC   C1B38263  15.978  41.212   8.873
 2778POPC   C2B38264  15.937  41.315   8.465
 2778POPC   C3B38265  16.202  41.380   8.126
 2778POPC   C4B38266  16.384  41.281   7.745
 2779POPC   NC338267  20.915   0.418   9.450
 2779POPC   PO438268  20.269   0.340   9.312
 2779POPC   GL138269  20.585   0.469   9.030
 2779POPC   GL238270  20.820   0.198   9.011
 2779POPC   C1A38271  20.581   0.340   8.598
 2779POPC   D2A38272  20.250   0.247   8.337
 2779POPC   C3A38273  20.298   0.597   8.095
 2779POPC   C4A38274  20.448   0.545   7.696
 2779POPC   C1B38275  21.103   0.353   8.739
 2779POPC   C2B38276  21.010   0.403   8.301
 2779POPC   C3B38277  20.822   0.655   8.004
 2779POPC   C4B38278  20.925   0.696   7.542
 2780POPC   NC338279  31.861   7.044   9.475
 2780POPC   PO438280  32.346   7.513   9.537
 2780POPC   GL138281  32.556   7.502   9.136
 2780POPC   GL238282  32.304   7.217   9.098
 2780POPC   C1A38283  32.475   7.454   8.676
 2780POPC   D2A38284  32.438   7.236   8.267
 2780POPC   C3A38285  32.323   7.544   7.962
 2780POPC   C4A38286  31.925   7.758   7.867
 2780POPC   C1B38287  32.002   7.274   8.753
 2780POPC   C2B38288  31.936   7.446   8.318
 2780POPC   C3B38289  31.901   7.243   7.912
 2780POPC   C4B38290  32.251   7.064   7.716
 2781POPC   NC338291   4.606  43.799   9.512
 2781POPC   PO438292   5.317  43.807   9.698
 2781POPC   GL138293   5.203  43.612   9.307
 2781POPC   GL238294   5.057  43.926   9.232
 2781POPC   C1A38295   5.063  43.545   8.862
 2781POPC   D2A38296   5.291  43.604   8.448
 2781POPC   C3A38297   5.101  43.684   8.060
 2781POPC   C4A38298   5.060  43.864   7.640
 2781POPC   C1B38299   5.248  44.016   8.815
 2781POPC   C2B38300   5.251  44.114   8.353
 2781POPC   C3B38301   5.413  44.141   7.903
 2781POPC   C4B38302   5.235  44.309   7.478
 2782POPC   NC338303  11.462  28.183   9.558
 2782POPC   PO438304  11.203  28.893   9.595
 2782POPC   GL138305  11.329  28.697   9.187
 2782POPC   GL238306  11.649  28.447   9.146
 2782POPC   C1A38307  11.396  28.604   8.745
 2782POPC   D2A38308  11.239  28.379   8.406
 2782POPC   C3A38309  11.451  28.555   8.081
 2782POPC   C4A38310  11.352  28.521   7.688
 2782POPC   C1B38311  11.604  28.051   8.865
 2782POPC   C2B38312  11.502  27.905   8.421
 2782POPC   C3B38313  11.460  28.052   8.005
 2782POPC   C4B38314  11.586  28.081   7.581
 2783POPC   NC338315  13.560  13.471   5.338
 2783POPC   PO438316  13.811  13.996   5.378
 2783POPC   GL138317  13.621  13.900   5.815
 2783POPC   GL238318  13.694  13.539   5.840
 2783POPC   C1A38319  13.563  13.731   6.291
 2783POPC   D2A38320  13.712  13.572   6.720
 2783POPC   C3A38321  13.695  13.872   7.102
 2783POPC   C4A38322  13.737  14.000   7.550
 2783POPC   C1B38323  13.462  13.245   6.125
 2783POPC   C2B38324  13.477  13.092   6.565
 2783POPC   C3B38325  13.496  13.154   6.996
 2783POPC   C4B38326  13.563  13.437   7.305
 2784POPC   NC338327  14.077  10.324   5.436
 2784POPC   PO438328  14.461   9.744   5.505
 2784POPC   GL138329  14.286   9.823   5.899
 2784POPC   GL238330  14.307  10.149   5.874
 2784POPC   C1A38331  14.020  10.002   6.243
 2784POPC   D2A38332  13.925  10.005   6.653
 2784POPC   C3A38333  14.000   9.598   6.817
 2784POPC   C4A38334  14.153   9.454   7.190
 2784POPC   C1B38335  14.541  10.045   6.279
 2784POPC   C2B38336  14.467   9.814   6.669
 2784POPC   C3B38337  14.462   9.971   7.097
 2784POPC   C4B38338  14.704  10.086   7.492
 2785POPC   NC338339   9.239  25.543   5.366
 2785POPC   PO438340   8.876  24.935   5.507
 2785POPC   GL138341   9.032  25.263   5.765
 2785POPC   GL238342   9.396  25.239   5.823
 2785POPC   C1A38343   9.085  25.464   6.178
 2785POPC   D2A38344   9.210  25.326   6.605
 2785POPC   C3A38345   8.798  25.319   6.823
 2785POPC   C4A38346   8.620  25.383   7.231
 2785POPC   C1B38347   9.331  24.998   6.209
 2785POPC   C2B38348   9.462  24.827   6.609
 2785POPC   C3B38349   9.274  24.745   7.015
 2785POPC   C4B38350   8.979  25.028   7.212
 2786POPC   NC338351  27.189   2.064   5.527
 2786POPC   PO438352  26.556   1.808   5.354
 2786POPC   GL138353  26.556   1.867   5.826
 2786POPC   GL238354  26.647   2.228   5.899
 2786POPC   C1A38355  26.670   1.869   6.309
 2786POPC   D2A38356  27.019   1.808   6.645
 2786POPC   C3A38357  26.927   1.621   7.067
 2786POPC   C4A38358  26.559   1.702   7.302
 2786POPC   C1B38359  26.976   2.290   6.218
 2786POPC   C2B38360  26.868   2.302   6.650
 2786POPC   C3B38361  26.819   2.192   7.104
 2786POPC   C4B38362  27.005   2.452   7.448
 2787POPC   NC338363   3.164   9.775   5.180
 2787POPC   PO438364   2.732  10.149   5.525
 2787POPC   GL138365   3.023   9.894   5.702
 2787POPC   GL238366   2.820   9.636   5.857
 2787POPC   C1A38367   3.135   9.938   6.133
 2787POPC   D2A38368   2.830   9.916   6.467
 2787POPC   C3A38369   2.764   9.979   6.919
 2787POPC   C4A38370   2.905   9.907   7.342
 2787POPC   C1B38371   2.969   9.439   6.233
 2787POPC   C2B38372   2.902   9.313   6.685
 2787POPC   C3B38373   2.779   9.447   7.129
 2787POPC   C4B38374   2.790   9.506   7.618
 2788POPC   NC338375  31.315  21.080   5.500
 2788POPC   PO438376  31.752  21.506   5.503
 2788POPC   GL138377  31.719  21.189   5.828
 2788POPC   GL238378  31.438  21.407   5.953
 2788POPC   C1A38379  31.624  21.017   6.242
 2788POPC   D2A38380  31.405  21.353   6.487
 2788POPC   C3A38381  31.462  21.394   6.920
 2788POPC   C4A38382  31.251  21.177   7.237
 2788POPC   C1B38383  31.814  21.511   6.239
 2788POPC   C2B38384  31.817  21.670   6.650
 2788POPC   C3B38385  31.761  21.787   7.070
 2788POPC   C4B38386  31.536  21.584   7.422
 2789POPC   NC338387  22.302  20.363   5.237
 2789POPC   PO438388  22.045  20.998   5.509
 2789POPC   GL138389  22.030  20.704   5.798
 2789POPC   GL238390  21.738  20.500   5.668
 2789POPC   C1A38391  22.303  20.693   6.173
 2789POPC   D2A38392  22.489  20.715   6.567
 2789POPC   C3A38393  22.226  20.824   6.909
 2789POPC   C4A38394  22.209  20.496   7.193
 2789POPC   C1B38395  21.623  20.626   6.081
 2789POPC   C2B38396  21.844  20.731   6.457
 2789POPC   C3B38397  21.752  20.616   6.874
 2789POPC   C4B38398  21.786  20.767   7.256
 2790POPC   NC338399  12.384   9.494   5.382
 2790POPC   PO438400  12.034  10.159   5.352
 2790POPC   GL138401  12.192   9.895   5.697
 2790POPC   GL238402  11.966   9.655   5.807
 2790POPC   C1A38403  12.312   9.829   6.155
 2790POPC   D2A38404  12.184   9.559   6.518
 2790POPC   C3A38405  12.159   9.716   6.919
 2790POPC   C4A38406  12.415   9.959   7.196
 2790POPC   C1B38407  11.844   9.397   6.146
 2790POPC   C2B38408  11.679   9.436   6.555
 2790POPC   C3B38409  11.705   9.361   6.951
 2790POPC   C4B38410  11.867   9.528   7.304
 2791POPC   NC338411  39.196   2.924   5.362
 2791POPC   PO438412  39.081   2.307   5.437
 2791POPC   GL138413  39.193   2.618   5.783
 2791POPC   GL238414  39.552   2.651   5.764
 2791POPC   C1A38415  39.191   2.731   6.238
 2791POPC   D2A38416  39.141   2.950   6.644
 2791POPC   C3A38417  39.240   2.783   7.042
 2791POPC   C4A38418  38.955   2.678   7.356
 2791POPC   C1B38419  39.648   3.004   6.053
 2791POPC   C2B38420  39.653   3.027   6.516
 2791POPC   C3B38421  39.605   3.148   6.961
 2791POPC   C4B38422  39.604   2.938   7.353
 2792POPC   NC338423  33.466  27.474   5.378
 2792POPC   PO438424  32.986  27.822   5.438
 2792POPC   GL138425  33.002  27.679   5.821
 2792POPC   GL238426  33.190  27.418   5.792
 2792POPC   C1A38427  32.910  27.807   6.229
 2792POPC   D2A38428  32.915  27.719   6.673
 2792POPC   C3A38429  33.115  27.932   7.032
 2792POPC   C4A38430  33.095  27.932   7.496
 2792POPC   C1B38431  33.006  27.259   6.138
 2792POPC   C2B38432  33.112  27.236   6.556
 2792POPC   C3B38433  33.115  27.346   6.971
 2792POPC   C4B38434  33.325  27.289   7.339
 2793POPC   NC338435  23.476  25.886   5.641
 2793POPC   PO438436  24.000  25.788   5.129
 2793POPC   GL138437  23.968  25.859   5.636
 2793POPC   GL238438  23.857  26.232   5.720
 2793POPC   C1A38439  23.920  25.937   6.127
 2793POPC   D2A38440  23.625  26.180   6.448
 2793POPC   C3A38441  23.677  26.018   6.873
 2793POPC   C4A38442  23.590  26.074   7.311
 2793POPC   C1B38443  23.952  26.442   6.145
 2793POPC   C2B38444  24.089  26.298   6.592
 2793POPC   C3B38445  23.974  26.384   7.022
 2793POPC   C4B38446  23.945  26.444   7.478
 2794POPC   NC338447  14.820  14.198   5.441
 2794POPC   PO438448  15.149  14.730   5.519
 2794POPC   GL138449  15.192  14.608   5.945
 2794POPC   GL238450  15.550  14.554   5.873
 2794POPC   C1A38451  15.008  14.321   6.301
 2794POPC   D2A38452  14.928  14.041   6.680
 2794POPC   C3A38453  14.927  14.344   7.008
 2794POPC   C4A38454  14.972  14.473   7.422
 2794POPC   C1B38455  15.518  14.373   6.301
 2794POPC   C2B38456  15.379  14.282   6.741
 2794POPC   C3B38457  15.449  14.465   7.155
 2794POPC   C4B38458  15.663  14.237   7.488
 2795POPC   NC338459   2.275  42.510   5.365
 2795POPC   PO438460   1.742  42.040   5.486
 2795POPC   GL138461   1.944  42.341   5.763
 2795POPC   GL238462   1.678  42.509   5.924
 2795POPC   C1A38463   2.158  42.369   6.178
 2795POPC   D2A38464   2.180  42.468   6.652
 2795POPC   C3A38465   1.919  42.175   6.903
 2795POPC   C4A38466   1.575  42.215   7.147
 2795POPC   C1B38467   1.754  42.652   6.359
 2795POPC   C2B38468   1.612  42.649   6.783
 2795POPC   C3B38469   1.830  42.801   7.097
 2795POPC   C4B38470   2.150  42.529   7.215
 2796POPC   NC338471   3.971  40.265   5.491
 2796POPC   PO438472   3.351  40.040   5.339
 2796POPC   GL138473   3.538  40.143   5.766
 2796POPC   GL238474   3.747  40.415   5.924
 2796POPC   C1A38475   3.606  39.960   6.172
 2796POPC   D2A38476   3.505  40.106   6.595
 2796POPC   C3A38477   3.434  39.796   6.950
 2796POPC   C4A38478   3.504  39.859   7.385
 2796POPC   C1B38479   3.919  40.325   6.326
 2796POPC   C2B38480   3.969  40.225   6.762
 2796POPC   C3B38481   3.670  40.258   7.063
 2796POPC   C4B38482   3.665  40.353   7.463
 2797POPC   NC338483  10.256   3.421   5.481
 2797POPC   PO438484  10.767   3.800   5.276
 2797POPC   GL138485  10.720   3.567   5.685
 2797POPC   GL238486  10.414   3.600   5.920
 2797POPC   C1A38487  10.872   3.627   6.133
 2797POPC   D2A38488  10.592   3.715   6.524
 2797POPC   C3A38489  10.740   3.668   6.983
 2797POPC   C4A38490  10.653   3.566   7.450
 2797POPC   C1B38491  10.135   3.900   6.134
 2797POPC   C2B38492  10.133   4.081   6.535
 2797POPC   C3B38493  10.142   3.941   6.954
 2797POPC   C4B38494  10.298   3.916   7.390
 2798POPC   NC338495   8.227   6.775   5.117
 2798POPC   PO438496   7.889   6.270   5.457
 2798POPC   GL138497   7.979   6.567   5.767
 2798POPC   GL238498   8.315   6.768   5.719
 2798POPC   C1A38499   7.949   6.480   6.186
 2798POPC   D2A38500   8.189   6.327   6.498
 2798POPC   C3A38501   7.987   6.393   6.858
 2798POPC   C4A38502   8.083   6.674   7.180
 2798POPC   C1B38503   8.586   7.012   6.039
 2798POPC   C2B38504   8.536   6.964   6.500
 2798POPC   C3B38505   8.414   6.989   6.948
 2798POPC   C4B38506   8.384   7.003   7.423
 2799POPC   NC338507  27.903  44.318   5.429
 2799POPC   PO438508  28.428  44.647   5.235
 2799POPC   GL138509  28.264  44.602   5.672
 2799POPC   GL238510  28.506  44.399   5.801
 2799POPC   C1A38511  28.260  44.691   6.150
 2799POPC   D2A38512  28.216  44.916   6.561
 2799POPC   C3A38513  28.400  44.727   6.957
 2799POPC   C4A38514  28.324  44.732   7.405
 2799POPC   C1B38515  28.583  44.285   6.230
 2799POPC   C2B38516  28.703  44.432   6.623
 2799POPC   C3B38517  28.797  44.370   7.069
 2799POPC   C4B38518  28.794  44.481   7.529
 2800POPC   NC338519   4.067  33.990   5.205
 2800POPC   PO438520   4.601  33.740   5.267
 2800POPC   GL138521   4.692  33.844   5.779
 2800POPC   GL238522   4.689  34.186   5.953
 2800POPC   C1A38523   4.754  33.783   6.254
 2800POPC   D2A38524   4.573  33.929   6.649
 2800POPC   C3A38525   4.597  33.948   7.105
 2800POPC   C4A38526   4.318  33.781   7.426
 2800POPC   C1B38527   4.383  34.274   6.303
 2800POPC   C2B38528   4.309  34.347   6.749
 2800POPC   C3B38529   4.199  34.296   7.142
 2800POPC   C4B38530   4.046  34.570   7.422
 2801POPC   NC338531  44.505  17.681   5.506
 2801POPC   PO438532  44.880  17.096   5.319
 2801POPC   GL138533  44.871  17.355   5.727
 2801POPC   GL238534  44.555  17.285   5.806
 2801POPC   C1A38535  44.733  17.634   6.131
 2801POPC   D2A38536  44.431  17.677   6.492
 2801POPC   C3A38537  44.577  17.578   6.877
 2801POPC   C4A38538  44.424  17.617   7.286
 2801POPC   C1B38539  44.377  17.280   6.190
 2801POPC   C2B38540  44.511  17.132   6.592
 2801POPC   C3B38541  44.395  17.127   7.021
 2801POPC   C4B38542  44.539  17.129   7.458
 2802POPC   NC338543  26.268  15.029   5.189
 2802POPC   PO438544  26.217  15.681   5.409
 2802POPC   GL138545  26.097  15.251   5.699
 2802POPC   GL238546  26.271  14.885   5.703
 2802POPC   C1A38547  25.980  15.067   6.136
 2802POPC   D2A38548  25.867  14.916   6.567
 2802POPC   C3A38549  26.024  15.084   6.975
 2802POPC   C4A38550  25.878  15.131   7.428
 2802POPC   C1B38551  26.437  14.861   6.131
 2802POPC   C2B38552  26.408  15.005   6.559
 2802POPC   C3B38553  26.470  14.841   6.972
 2802POPC   C4B38554  26.237  14.769   7.338
 2803POPC   NC338555  11.693   8.212   5.308
 2803POPC   PO438556  12.342   8.359   5.355
 2803POPC   GL138557  12.066   8.249   5.711
 2803POPC   GL238558  11.884   7.926   5.728
 2803POPC   C1A38559  12.025   8.402   6.134
 2803POPC   D2A38560  11.768   8.545   6.487
 2803POPC   C3A38561  11.914   8.380   6.880
 2803POPC   C4A38562  12.036   8.572   7.278
 2803POPC   C1B38563  11.905   7.874   6.188
 2803POPC   C2B38564  12.009   7.700   6.598
 2803POPC   C3B38565  11.856   7.830   6.961
 2803POPC   C4B38566  11.855   8.101   7.325
 2804POPC   NC338567  42.637  37.279   5.358
 2804POPC   PO438568  42.060  36.826   5.270
 2804POPC   GL138569  42.269  36.969   5.582
 2804POPC   GL238570  41.987  37.022   5.760
 2804POPC   C1A38571  42.448  36.938   5.980
 2804POPC   D2A38572  42.413  36.830   6.398
 2804POPC   C3A38573  42.430  37.067   6.763
 2804POPC   C4A38574  42.395  36.967   7.182
 2804POPC   C1B38575  42.000  37.177   6.152
 2804POPC   C2B38576  42.004  37.296   6.573
 2804POPC   C3B38577  41.951  37.163   6.989
 2804POPC   C4B38578  42.055  37.269   7.420
 2805POPC   NC338579  37.621  14.557   5.383
 2805POPC   PO438580  37.993  14.172   5.565
 2805POPC   GL138581  37.588  14.287   5.831
 2805POPC   GL238582  37.462  14.644   5.864
 2805POPC   C1A38583  37.437  14.344   6.290
 2805POPC   D2A38584  37.563  14.581   6.685
 2805POPC   C3A38585  37.740  14.380   7.078
 2805POPC   C4A38586  37.738  13.997   7.369
 2805POPC   C1B38587  37.204  14.798   6.232
 2805POPC   C2B38588  37.065  14.690   6.670
 2805POPC   C3B38589  37.209  14.566   7.082
 2805POPC   C4B38590  37.400  14.391   7.453
 2806POPC   NC338591   0.954   0.058   5.477
 2806POPC   PO438592   0.921  44.331   5.482
 2806POPC   GL138593   1.097  44.585   5.785
 2806POPC   GL238594   0.904  44.471   6.048
 2806POPC   C1A38595   1.223  44.866   6.132
 2806POPC   D2A38596   1.140  44.935   6.562
 2806POPC   C3A38597   1.355  44.689   6.867
 2806POPC   C4A38598   1.260  44.640   7.325
 2806POPC   C1B38599   1.097  44.449   6.424
 2806POPC   C2B38600   1.045  44.299   6.819
 2806POPC   C3B38601   1.132  44.156   7.196
 2806POPC   C4B38602   0.997  44.287   7.615
 2807POPC   NC338603  43.883  10.722   5.362
 2807POPC   PO438604  44.393  10.700   5.738
 2807POPC   GL138605  43.980  10.642   5.875
 2807POPC   GL238606  43.693  10.870   5.820
 2807POPC   C1A38607  43.991  10.520   6.289
 2807POPC   D2A38608  43.906  10.328   6.672
 2807POPC   C3A38609  43.910  10.578   7.035
 2807POPC   C4A38610  44.174  10.351   7.258
 2807POPC   C1B38611  43.541  10.750   6.202
 2807POPC   C2B38612  43.678  10.775   6.609
 2807POPC   C3B38613  43.483  10.869   6.971
 2807POPC   C4B38614  43.584  10.957   7.391
 2808POPC   NC338615  20.394  23.365   5.592
 2808POPC   PO438616  20.733  22.798   5.450
 2808POPC   GL138617  20.564  22.897   5.829
 2808POPC   GL238618  20.774  23.163   5.867
 2808POPC   C1A38619  20.411  22.872   6.264
 2808POPC   D2A38620  20.245  22.750   6.667
 2808POPC   C3A38621  20.519  22.844   6.979
 2808POPC   C4A38622  20.491  22.922   7.384
 2808POPC   C1B38623  21.018  23.323   6.166
 2808POPC   C2B38624  20.962  23.416   6.569
 2808POPC   C3B38625  20.901  23.187   6.915
 2808POPC   C4B38626  20.983  22.978   7.261
 2809POPC   NC338627  28.049   1.853   5.368
 2809POPC   PO438628  27.445   1.898   5.166
 2809POPC   GL138629  27.663   1.966   5.683
 2809POPC   GL238630  27.779   2.306   5.722
 2809POPC   C1A38631  27.640   1.798   6.178
 2809POPC   D2A38632  27.531   1.694   6.640
 2809POPC   C3A38633  27.860   1.691   6.976
 2809POPC   C4A38634  28.069   1.601   7.374
 2809POPC   C1B38635  27.488   2.277   6.101
 2809POPC   C2B38636  27.396   2.176   6.536
 2809POPC   C3B38637  27.522   2.108   6.967
 2809POPC   C4B38638  27.458   2.225   7.393
 2810POPC   NC338639  29.908  22.522   5.473
 2810POPC   PO438640  29.731  21.836   5.257
 2810POPC   GL138641  29.796  22.009   5.707
 2810POPC   GL238642  29.431  21.897   5.824
 2810POPC   C1A38643  30.073  22.214   6.102
 2810POPC   D2A38644  30.201  22.105   6.540
 2810POPC   C3A38645  30.055  22.254   6.934
 2810POPC   C4A38646  30.206  22.354   7.356
 2810POPC   C1B38647  29.583  22.115   6.150
 2810POPC   C2B38648  29.698  22.285   6.522
 2810POPC   C3B38649  29.543  22.138   6.909
 2810POPC   C4B38650  29.675  22.222   7.298
 2811POPC   NC338651  18.158  44.552   5.436
 2811POPC   PO438652  18.773  44.801   5.428
 2811POPC   GL138653  18.472  44.766   5.756
 2811POPC   GL238654  18.488  44.395   5.813
 2811POPC   C1A38655  18.257  44.685   6.165
 2811POPC   D2A38656  18.427  44.513   6.542
 2811POPC   C3A38657  18.162  44.701   6.827
 2811POPC   C4A38658  18.248  44.692   7.264
 2811POPC   C1B38659  18.245  44.168   6.143
 2811POPC   C2B38660  17.992  44.249   6.521
 2811POPC   C3B38661  18.204  44.176   6.940
 2811POPC   C4B38662  18.588  44.387   7.042
 2812POPC   NC338663  37.312   8.312   5.444
 2812POPC   PO438664  36.871   7.792   5.337
 2812POPC   GL138665  36.974   7.839   5.768
 2812POPC   GL238666  37.261   7.992   5.825
 2812POPC   C1A38667  36.840   8.079   6.137
 2812POPC   D2A38668  36.725   8.197   6.554
 2812POPC   C3A38669  36.916   8.033   6.921
 2812POPC   C4A38670  36.689   8.283   7.221
 2812POPC   C1B38671  37.337   8.241   6.169
 2812POPC   C2B38672  37.216   8.357   6.552
 2812POPC   C3B38673  37.381   8.320   6.929
 2812POPC   C4B38674  37.184   8.262   7.313
 2813POPC   NC338675  43.072  33.546   5.274
 2813POPC   PO438676  42.852  32.928   5.345
 2813POPC   GL138677  42.961  33.039   5.760
 2813POPC   GL238678  43.219  33.296   5.785
 2813POPC   C1A38679  42.776  32.829   6.141
 2813POPC   D2A38680  42.692  32.861   6.571
 2813POPC   C3A38681  42.851  32.757   6.950
 2813POPC   C4A38682  42.951  32.931   7.331
 2813POPC   C1B38683  43.146  33.165   6.242
 2813POPC   C2B38684  43.079  33.158   6.699
 2813POPC   C3B38685  43.327  33.205   7.053
 2813POPC   C4B38686  43.350  33.194   7.502
 2814POPC   NC338687   3.634  19.293   5.336
 2814POPC   PO438688   4.039  18.828   5.581
 2814POPC   GL138689   3.687  19.085   5.820
 2814POPC   GL238690   3.569  19.450   5.832
 2814POPC   C1A38691   3.431  18.925   6.172
 2814POPC   D2A38692   3.605  18.762   6.574
 2814POPC   C3A38693   3.450  18.908   6.975
 2814POPC   C4A38694   3.162  18.883   7.297
 2814POPC   C1B38695   3.602  19.408   6.277
 2814POPC   C2B38696   3.343  19.230   6.582
 2814POPC   C3B38697   3.109  19.286   6.930
 2814POPC   C4B38698   3.345  19.366   7.290
 2815POPC   NC338699  12.457  10.872   5.701
 2815POPC   PO438700  12.954  10.428   5.474
 2815POPC   GL138701  12.739  10.473   5.852
 2815POPC   GL238702  12.600  10.162   5.860
 2815POPC   C1A38703  12.821  10.756   6.230
 2815POPC   D2A38704  13.071  10.880   6.597
 2815POPC   C3A38705  12.963  10.845   7.041
 2815POPC   C4A38706  12.890  10.686   7.467
 2815POPC   C1B38707  12.429  10.385   6.255
 2815POPC   C2B38708  12.617  10.525   6.667
 2815POPC   C3B38709  12.749  10.345   7.075
 2815POPC   C4B38710  12.527  10.345   7.487
 2816POPC   NC338711  25.506  16.568   5.425
 2816POPC   PO438712  25.024  16.995   5.468
 2816POPC   GL138713  24.952  16.727   5.808
 2816POPC   GL238714  24.633  16.817   5.857
 2816POPC   C1A38715  25.137  16.724   6.211
 2816POPC   D2A38716  25.378  16.574   6.519
 2816POPC   C3A38717  25.210  16.698   6.845
 2816POPC   C4A38718  25.223  16.673   7.262
 2816POPC   C1B38719  24.688  16.949   6.256
 2816POPC   C2B38720  24.854  17.081   6.631
 2816POPC   C3B38721  24.806  16.933   7.040
 2816POPC   C4B38722  24.918  17.097   7.401
 2817POPC   NC338723   1.345  27.599   5.511
 2817POPC   PO438724   0.769  28.007   5.563
 2817POPC   GL138725   1.023  27.760   5.918
 2817POPC   GL238726   1.013  27.405   5.872
 2817POPC   C1A38727   1.201  27.634   6.367
 2817POPC   D2A38728   1.376  27.605   6.828
 2817POPC   C3A38729   1.076  27.700   7.191
 2817POPC   C4A38730   1.051  27.557   7.638
 2817POPC   C1B38731   1.413  27.262   6.097
 2817POPC   C2B38732   1.510  27.206   6.529
 2817POPC   C3B38733   1.504  27.114   6.988
 2817POPC   C4B38734   1.453  27.388   7.324
 2818POPC   NC338735  40.844  39.664   5.419
 2818POPC   PO438736  40.473  39.135   5.572
 2818POPC   GL138737  40.729  39.275   5.949
 2818POPC   GL238738  41.065  39.068   6.063
 2818POPC   C1A38739  40.759  39.253   6.399
 2818POPC   D2A38740  41.028  39.078   6.707
 2818POPC   C3A38741  40.789  39.178   7.071
 2818POPC   C4A38742  40.452  39.459   7.161
 2818POPC   C1B38743  41.218  39.447   6.294
 2818POPC   C2B38744  41.377  39.630   6.665
 2818POPC   C3B38745  41.266  39.473   7.110
 2818POPC   C4B38746  40.974  39.427   7.481
 2819POPC   NC338747   8.355  28.633   5.401
 2819POPC   PO438748   8.037  28.069   5.422
 2819POPC   GL138749   8.114  28.253   5.826
 2819POPC   GL238750   8.433  28.440   5.929
 2819POPC   C1A38751   7.996  28.391   6.246
 2819POPC   D2A38752   8.160  28.604   6.627
 2819POPC   C3A38753   8.126  28.363   6.991
 2819POPC   C4A38754   7.857  28.362   7.338
 2819POPC   C1B38755   8.472  28.261   6.375
 2819POPC   C2B38756   8.395  27.993   6.733
 2819POPC   C3B38757   8.508  28.029   7.142
 2819POPC   C4B38758   8.387  28.331   7.446
 2820POPC   NC338759  10.300   8.239   5.416
 2820POPC   PO438760  10.871   7.969   5.539
 2820POPC   GL138761  10.590   8.197   5.830
 2820POPC   GL238762  10.425   7.941   5.981
 2820POPC   C1A38763  10.693   8.410   6.195
 2820POPC   D2A38764  10.688   8.198   6.576
 2820POPC   C3A38765  10.422   8.330   6.881
 2820POPC   C4A38766  10.398   8.531   7.267
 2820POPC   C1B38767  10.871   7.929   6.171
 2820POPC   C2B38768  10.981   7.694   6.512
 2820POPC   C3B38769  10.857   7.836   6.903
 2820POPC   C4B38770  10.683   8.086   7.253
 2821POPC   NC338771  32.020   7.198   5.233
 2821POPC   PO438772  32.424   7.773   5.260
 2821POPC   GL138773  32.208   7.596   5.667
 2821POPC   GL238774  32.493   7.486   5.778
 2821POPC   C1A38775  32.050   7.462   6.130
 2821POPC   D2A38776  32.026   7.293   6.589
 2821POPC   C3A38777  31.967   7.521   7.006
 2821POPC   C4A38778  32.116   7.496   7.455
 2821POPC   C1B38779  32.554   7.533   6.210
 2821POPC   C2B38780  32.534   7.321   6.604
 2821POPC   C3B38781  32.498   7.478   7.024
 2821POPC   C4B38782  32.599   7.269   7.414
 2822POPC   NC338783  43.818  25.523   5.423
 2822POPC   PO438784  43.940  26.180   5.343
 2822POPC   GL138785  43.748  26.113   5.726
 2822POPC   GL238786  43.473  25.874   5.703
 2822POPC   C1A38787  43.921  26.258   6.125
 2822POPC   D2A38788  44.163  26.036   6.427
 2822POPC   C3A38789  44.020  26.106   6.826
 2822POPC   C4A38790  44.090  25.930   7.197
 2822POPC   C1B38791  43.665  25.772   6.117
 2822POPC   C2B38792  43.651  25.853   6.562
 2822POPC   C3B38793  43.628  25.766   7.014
 2822POPC   C4B38794  43.454  25.409   7.252
 2823POPC   NC338795  26.836  33.084   5.095
 2823POPC   PO438796  26.536  32.751   5.583
 2823POPC   GL138797  26.663  32.979   5.898
 2823POPC   GL238798  26.904  33.197   5.767
 2823POPC   C1A38799  26.668  32.851   6.332
 2823POPC   D2A38800  26.401  32.692   6.673
 2823POPC   C3A38801  26.660  32.729   7.045
 2823POPC   C4A38802  26.579  32.879   7.437
 2823POPC   C1B38803  27.113  33.078   6.145
 2823POPC   C2B38804  27.189  33.110   6.578
 2823POPC   C3B38805  27.188  33.022   7.023
 2823POPC   C4B38806  26.837  33.233   7.191
 2824POPC   NC338807  32.872  24.191   5.453
 2824POPC   PO438808  33.117  23.557   5.193
 2824POPC   GL138809  33.056  23.641   5.658
 2824POPC   GL238810  33.349  23.518   5.855
 2824POPC   C1A38811  33.046  23.868   6.053
 2824POPC   D2A38812  33.181  23.645   6.422
 2824POPC   C3A38813  33.080  23.854   6.816
 2824POPC   C4A38814  32.926  23.650   7.188
 2824POPC   C1B38815  33.409  23.124   6.088
 2824POPC   C2B38816  33.385  23.059   6.535
 2824POPC   C3B38817  33.199  23.320   6.851
 2824POPC   C4B38818  33.435  23.586   7.088
 2825POPC   NC338819  19.256  22.355   5.423
 2825POPC   PO438820  18.627  22.017   5.437
 2825POPC   GL138821  18.876  22.202   5.785
 2825POPC   GL238822  19.253  22.070   5.827
 2825POPC   C1A38823  18.910  22.028   6.202
 2825POPC   D2A38824  19.168  22.054   6.565
 2825POPC   C3A38825  18.951  21.939   6.927
 2825POPC   C4A38826  18.819  22.106   7.319
 2825POPC   C1B38827  19.363  22.337   6.142
 2825POPC   C2B38828  19.572  22.382   6.528
 2825POPC   C3B38829  19.397  22.351   6.945
 2825POPC   C4B38830  19.317  22.056   7.277
 2826POPC   NC338831  13.754   1.258   5.300
 2826POPC   PO438832  13.275   1.579   5.588
 2826POPC   GL138833  13.598   1.389   5.819
 2826POPC   GL238834  13.515   1.063   5.708
 2826POPC   C1A38835  13.725   1.335   6.280
 2826POPC   D2A38836  13.966   1.335   6.679
 2826POPC   C3A38837  13.737   1.384   7.066
 2826POPC   C4A38838  13.427   1.555   7.370
 2826POPC   C1B38839  13.866   0.962   5.972
 2826POPC   C2B38840  13.869   0.828   6.409
 2826POPC   C3B38841  13.903   0.870   6.862
 2826POPC   C4B38842  13.720   0.916   7.281
 2827POPC   NC338843  15.858  21.093   5.577
 2827POPC   PO438844  15.715  21.664   5.396
 2827POPC   GL138845  16.024  21.605   5.735
 2827POPC   GL238846  16.373  21.620   5.897
 2827POPC   C1A38847  15.899  21.550   6.149
 2827POPC   D2A38848  15.711  21.474   6.526
 2827POPC   C3A38849  16.039  21.578   6.798
 2827POPC   C4A38850  16.074  21.532   7.224
 2827POPC   C1B38851  16.329  21.240   6.136
 2827POPC   C2B38852  16.116  21.133   6.515
 2827POPC   C3B38853  15.953  21.092   6.927
 2827POPC   C4B38854  16.254  21.060   7.223
 2828POPC   NC338855  44.253   0.253   5.443
 2828POPC   PO438856  43.652   0.487   5.338
 2828POPC   GL138857  43.857   0.461   5.724
 2828POPC   GL238858  44.017   0.766   5.649
 2828POPC   C1A38859  43.772   0.210   6.113
 2828POPC   D2A38860  43.914   0.094   6.532
 2828POPC   C3A38861  43.635   0.264   6.849
 2828POPC   C4A38862  43.758   0.512   7.221
 2828POPC   C1B38863  43.973   0.791   6.100
 2828POPC   C2B38864  43.952   0.617   6.528
 2828POPC   C3B38865  44.111   0.754   6.935
 2828POPC   C4B38866  44.206   0.678   7.372
 2829POPC   NC338867   3.270   7.398   5.560
 2829POPC   PO438868   3.997   7.443   5.289
 2829POPC   GL138869   3.733   7.591   5.659
 2829POPC   GL238870   3.696   7.285   5.873
 2829POPC   C1A38871   3.567   7.674   6.118
 2829POPC   D2A38872   3.581   7.377   6.453
 2829POPC   C3A38873   3.557   7.582   6.844
 2829POPC   C4A38874   3.655   7.741   7.199
 2829POPC   C1B38875   3.378   7.039   6.115
 2829POPC   C2B38876   3.317   6.886   6.532
 2829POPC   C3B38877   3.286   7.146   6.883
 2829POPC   C4B38878   3.498   7.227   7.244
 2830POPC   NC338879  42.263   1.928   5.475
 2830POPC   PO438880  42.734   2.344   5.146
 2830POPC   GL138881  42.474   2.376   5.669
 2830POPC   GL238882  42.373   2.009   5.943
 2830POPC   C1A38883  42.182   2.432   6.073
 2830POPC   D2A38884  42.255   2.288   6.503
 2830POPC   C3A38885  42.016   2.272   6.887
 2830POPC   C4A38886  42.153   2.157   7.228
 2830POPC   C1B38887  42.222   1.753   6.277
 2830POPC   C2B38888  42.119   1.801   6.718
 2830POPC   C3B38889  42.475   1.861   6.948
 2830POPC   C4B38890  42.712   2.153   7.180
 2831POPC   NC338891  22.382  29.719   5.341
 2831POPC   PO438892  21.781  29.857   5.480
 2831POPC   GL138893  22.039  29.804   5.869
 2831POPC   GL238894  22.434  29.814   5.842
 2831POPC   C1A38895  21.891  29.804   6.322
 2831POPC   D2A38896  22.067  29.990   6.708
 2831POPC   C3A38897  22.024  29.842   7.138
 2831POPC   C4A38898  21.965  29.961   7.586
 2831POPC   C1B38899  22.396  29.965   6.265
 2831POPC   C2B38900  22.533  30.192   6.623
 2831POPC   C3B38901  22.480  30.101   7.031
 2831POPC   C4B38902  22.456  29.938   7.434
 2832POPC   NC338903  14.561  33.972   5.257
 2832POPC   PO438904  14.694  33.556   5.394
 2832POPC   GL138905  14.574  33.735   5.807
 2832POPC   GL238906  14.635  34.083   5.780
 2832POPC   C1A38907  14.341  33.686   6.237
 2832POPC   D2A38908  14.118  33.695   6.666
 2832POPC   C3A38909  14.342  33.748   7.088
 2832POPC   C4A38910  14.538  33.816   7.520
 2832POPC   C1B38911  14.748  34.009   6.231
 2832POPC   C2B38912  14.554  33.980   6.661
 2832POPC   C3B38913  14.626  34.178   7.086
 2832POPC   C4B38914  14.652  34.363   7.520
 2833POPC   NC338915  38.947  36.673   5.120
 2833POPC   PO438916  39.595  36.909   5.193
 2833POPC   GL138917  39.443  37.161   5.604
 2833POPC   GL238918  39.073  37.161   5.760
 2833POPC   C1A38919  39.468  37.040   6.070
 2833POPC   D2A38920  39.356  37.110   6.525
 2833POPC   C3A38921  39.337  36.816   6.880
 2833POPC   C4A38922  39.316  36.908   7.329
 2833POPC   C1B38923  38.933  37.048   6.181
 2833POPC   C2B38924  38.860  37.035   6.630
 2833POPC   C3B38925  39.018  37.207   7.011
 2833POPC   C4B38926  38.885  37.147   7.468
 2834POPC   NC338927  14.264   0.641   5.201
 2834POPC   PO438928  14.739   0.226   5.563
 2834POPC   GL138929  14.364   0.449   5.728
 2834POPC   GL238930  14.146   0.147   5.695
 2834POPC   C1A38931  14.311   0.735   6.138
 2834POPC   D2A38932  14.367   0.936   6.590
 2834POPC   C3A38933  14.360   0.667   6.978
 2834POPC   C4A38934  14.220   0.635   7.417
 2834POPC   C1B38935  14.301   0.170   6.167
 2834POPC   C2B38936  14.305   0.182   6.663
 2834POPC   C3B38937  14.310   0.179   7.141
 2834POPC   C4B38938  14.102   0.153   7.546
 2835POPC   NC338939  12.094  17.191   5.516
 2835POPC   PO438940  11.847  16.550   5.220
 2835POPC   GL138941  12.020  16.704   5.652
 2835POPC   GL238942  12.371  16.841   5.796
 2835POPC   C1A38943  12.013  16.665   6.114
 2835POPC   D2A38944  11.768  16.799   6.478
 2835POPC   C3A38945  11.833  16.545   6.838
 2835POPC   C4A38946  11.755  16.640   7.251
 2835POPC   C1B38947  12.532  16.743   6.243
 2835POPC   C2B38948  12.518  16.801   6.711
 2835POPC   C3B38949  12.282  16.653   7.088
 2835POPC   C4B38950  12.154  16.269   7.247
 2836POPC   NC338951   9.910  18.704   5.595
 2836POPC   PO438952   9.731  19.371   5.277
 2836POPC   GL138953   9.640  19.156   5.656
 2836POPC   GL238954   9.346  18.926   5.542
 2836POPC   C1A38955   9.858  19.110   6.066
 2836POPC   D2A38956  10.028  19.067   6.497
 2836POPC   C3A38957   9.850  19.300   6.840
 2836POPC   C4A38958   9.729  19.161   7.258
 2836POPC   C1B38959   9.381  18.884   6.005
 2836POPC   C2B38960   9.520  19.005   6.435
 2836POPC   C3B38961   9.693  18.820   6.822
 2836POPC   C4B38962   9.440  18.733   7.158
 2837POPC   NC338963  31.102  24.204   5.307
 2837POPC   PO438964  31.752  24.267   5.552
 2837POPC   GL138965  31.457  24.471   5.783
 2837POPC   GL238966  31.184  24.231   5.813
 2837POPC   C1A38967  31.576  24.625   6.185
 2837POPC   D2A38968  31.558  24.821   6.571
 2837POPC   C3A38969  31.399  24.677   6.940
 2837POPC   C4A38970  31.410  24.645   7.376
 2837POPC   C1B38971  31.102  24.466   6.166
 2837POPC   C2B38972  31.244  24.395   6.541
 2837POPC   C3B38973  31.079  24.297   6.899
 2837POPC   C4B38974  30.957  24.417   7.278
 2838POPC   NC338975  35.568  30.886   5.384
 2838POPC   PO438976  35.342  30.272   5.425
 2838POPC   GL138977  35.470  30.556   5.771
 2838POPC   GL238978  35.325  30.922   5.835
 2838POPC   C1A38979  35.305  30.565   6.181
 2838POPC   D2A38980  35.491  30.511   6.558
 2838POPC   C3A38981  35.198  30.570   6.849
 2838POPC   C4A38982  35.402  30.788   7.097
 2838POPC   C1B38983  35.544  31.022   6.247
 2838POPC   C2B38984  35.678  31.047   6.700
 2838POPC   C3B38985  35.752  31.134   7.151
 2838POPC   C4B38986  35.768  30.873   7.527
 2839POPC   NC338987  17.181   6.461   5.365
 2839POPC   PO438988  17.564   7.032   5.374
 2839POPC   GL138989  17.695   6.695   5.740
 2839POPC   GL238990  17.379   6.531   5.841
 2839POPC   C1A38991  17.744   6.510   6.198
 2839POPC   D2A38992  17.551   6.675   6.612
 2839POPC   C3A38993  17.687   6.513   7.054
 2839POPC   C4A38994  17.706   6.590   7.548
 2839POPC   C1B38995  17.235   6.391   6.257
 2839POPC   C2B38996  17.036   6.475   6.655
 2839POPC   C3B38997  17.165   6.589   7.089
 2839POPC   C4B38998  17.351   6.280   7.382
 2840POPC   NC338999  44.358  29.673   5.319
 2840POPC   PO439000  44.872  30.076   5.417
 2840POPC   GL139001  44.671  29.794   5.755
 2840POPC   GL239002  44.319  29.852   5.844
 2840POPC   C1A39003  44.684  29.809   6.220
 2840POPC   D2A39004  44.735  30.103   6.592
 2840POPC   C3A39005  44.895  29.852   6.961
 2840POPC   C4A39006  44.989  29.712   7.394
 2840POPC   C1B39007  44.242  30.038   6.287
 2840POPC   C2B39008  44.226  30.128   6.717
 2840POPC   C3B39009  44.494  30.140   7.067
 2840POPC   C4B39010  44.533  29.906   7.421
 2841POPC   NC339011  25.089  10.167   5.328
 2841POPC   PO439012  25.156   9.494   5.533
 2841POPC   GL139013  25.389   9.550   5.883
 2841POPC   GL239014  25.313   9.895   5.848
 2841POPC   C1A39015  25.214   9.612   6.284
 2841POPC   D2A39016  25.330   9.671   6.674
 2841POPC   C3A39017  25.146   9.503   7.021
 2841POPC   C4A39018  25.256   9.592   7.426
 2841POPC   C1B39019  25.350  10.148   6.212
 2841POPC   C2B39020  25.481  10.163   6.640
 2841POPC   C3B39021  25.328  10.020   7.045
 2841POPC   C4B39022  25.467  10.092   7.466
 2842POPC   NC339023   2.312   7.656   5.431
 2842POPC   PO439024   2.124   7.027   5.525
 2842POPC   GL139025   1.962   7.156   5.871
 2842POPC   GL239026   1.814   7.505   5.846
 2842POPC   C1A39027   2.002   7.174   6.297
 2842POPC   D2A39028   2.087   7.524   6.577
 2842POPC   C3A39029   1.977   7.454   6.991
 2842POPC   C4A39030   2.052   7.108   7.243
 2842POPC   C1B39031   2.204   7.597   6.067
 2842POPC   C2B39032   2.363   7.908   6.380
 2842POPC   C3B39033   2.470   7.914   6.848
 2842POPC   C4B39034   2.120   7.927   7.149
 2843POPC   NC339035  21.004   2.459   5.553
 2843POPC   PO439036  20.388   2.514   5.124
 2843POPC   GL139037  20.498   2.634   5.587
 2843POPC   GL239038  20.510   2.307   5.594
 2843POPC   C1A39039  20.645   2.668   6.096
 2843POPC   D2A39040  20.590   2.843   6.562
 2843POPC   C3A39041  20.689   2.685   7.008
 2843POPC   C4A39042  20.901   2.912   7.362
 2843POPC   C1B39043  20.250   2.377   5.969
 2843POPC   C2B39044  20.232   2.519   6.397
 2843POPC   C3B39045  20.202   2.540   6.856
 2843POPC   C4B39046  20.323   2.382   7.274
 2844POPC   NC339047   5.969  27.730   5.429
 2844POPC   PO439048   5.647  27.296   5.524
 2844POPC   GL139049   5.688  27.612   5.873
 2844POPC   GL239050   5.999  27.785   5.935
 2844POPC   C1A39051   5.743  27.639   6.351
 2844POPC   D2A39052   5.878  27.875   6.727
 2844POPC   C3A39053   5.714  27.670   7.072
 2844POPC   C4A39054   5.621  27.596   7.506
 2844POPC   C1B39055   6.233  27.789   6.329
 2844POPC   C2B39056   6.295  27.605   6.761
 2844POPC   C3B39057   6.246  27.745   7.197
 2844POPC   C4B39058   6.208  27.878   7.642
 2845POPC   NC339059   6.659  35.804   5.398
 2845POPC   PO439060   6.303  36.366   5.481
 2845POPC   GL139061   6.363  36.027   5.814
 2845POPC   GL239062   6.724  35.900   5.909
 2845POPC   C1A39063   6.444  36.090   6.282
 2845POPC   D2A39064   6.558  35.854   6.676
 2845POPC   C3A39065   6.494  36.091   7.033
 2845POPC   C4A39066   6.337  36.050   7.430
 2845POPC   C1B39067   6.962  35.793   6.331
 2845POPC   C2B39068   7.094  35.763   6.804
 2845POPC   C3B39069   7.312  35.956   7.191
 2845POPC   C4B39070   7.293  36.063   7.652
 2846POPC   NC339071  15.518  14.956   5.376
 2846POPC   PO439072  14.978  15.370   5.368
 2846POPC   GL139073  15.075  15.176   5.759
 2846POPC   GL239074  14.985  15.472   5.892
 2846POPC   C1A39075  15.213  15.042   6.196
 2846POPC   D2A39076  15.225  14.730   6.545
 2846POPC   C3A39077  15.102  14.834   6.988
 2846POPC   C4A39078  15.166  14.997   7.437
 2846POPC   C1B39079  15.032  15.515   6.290
 2846POPC   C2B39080  15.127  15.255   6.651
 2846POPC   C3B39081  15.197  15.344   7.065
 2846POPC   C4B39082  14.859  15.382   7.303
 2847POPC   NC339083  16.262  36.555   5.523
 2847POPC   PO439084  16.843  36.725   5.311
 2847POPC   GL139085  16.855  36.951   5.699
 2847POPC   GL239086  16.521  37.029   5.786
 2847POPC   C1A39087  16.824  36.768   6.112
 2847POPC   D2A39088  16.618  36.754   6.502
 2847POPC   C3A39089  16.807  37.057   6.779
 2847POPC   C4A39090  16.943  36.976   7.204
 2847POPC   C1B39091  16.503  37.252   6.173
 2847POPC   C2B39092  16.337  37.174   6.576
 2847POPC   C3B39093  16.235  37.342   6.963
 2847POPC   C4B39094  16.590  37.333   7.163
 2848POPC   NC339095  35.135   9.939   5.006
 2848POPC   PO439096  35.623   9.648   5.365
 2848POPC   GL139097  35.570   9.757   5.835
 2848POPC   GL239098  35.244   9.603   5.877
 2848POPC   C1A39099  35.494   9.681   6.295
 2848POPC   D2A39100  35.268   9.377   6.532
 2848POPC   C3A39101  35.319   9.555   6.899
 2848POPC   C4A39102  35.394   9.739   7.273
 2848POPC   C1B39103  35.168  10.032   6.109
 2848POPC   C2B39104  35.095  10.237   6.537
 2848POPC   C3B39105  35.096  10.053   6.964
 2848POPC   C4B39106  35.033  10.051   7.416
 2849POPC   NC339107   7.600  13.392   5.414
 2849POPC   PO439108   7.092  13.795   5.702
 2849POPC   GL139109   7.218  13.403   5.798
 2849POPC   GL239110   7.536  13.551   5.892
 2849POPC   C1A39111   7.150  13.276   6.222
 2849POPC   D2A39112   7.370  13.477   6.581
 2849POPC   C3A39113   7.204  13.445   6.992
 2849POPC   C4A39114   7.241  13.734   7.310
 2849POPC   C1B39115   7.801  13.821   6.142
 2849POPC   C2B39116   7.800  13.848   6.579
 2849POPC   C3B39117   7.661  13.697   6.978
 2849POPC   C4B39118   7.747  13.686   7.418
 2850POPC   NC339119  26.676  25.999   5.223
 2850POPC   PO439120  26.892  26.563   5.507
 2850POPC   GL139121  26.904  26.161   5.680
 2850POPC   GL239122  27.262  26.165   5.713
 2850POPC   C1A39123  26.878  25.900   6.072
 2850POPC   D2A39124  26.890  25.735   6.505
 2850POPC   C3A39125  26.845  25.931   6.904
 2850POPC   C4A39126  26.944  25.904   7.360
 2850POPC   C1B39127  27.116  26.357   6.125
 2850POPC   C2B39128  27.175  26.210   6.545
 2850POPC   C3B39129  27.129  26.357   6.953
 2850POPC   C4B39130  26.795  26.372   7.225
 2851POPC   NC339131   8.107   2.581   5.534
 2851POPC   PO439132   8.700   2.811   5.353
 2851POPC   GL139133   8.470   2.870   5.791
 2851POPC   GL239134   8.104   2.916   5.899
 2851POPC   C1A39135   8.560   2.862   6.244
 2851POPC   D2A39136   8.470   2.585   6.620
 2851POPC   C3A39137   8.452   2.695   7.059
 2851POPC   C4A39138   8.332   3.089   7.211
 2851POPC   C1B39139   8.066   2.776   6.327
 2851POPC   C2B39140   8.108   2.961   6.735
 2851POPC   C3B39141   7.823   2.937   7.088
 2851POPC   C4B39142   7.734   3.085   7.492
 2852POPC   NC339143  42.529  40.601   5.425
 2852POPC   PO439144  42.004  41.091   5.459
 2852POPC   GL139145  42.239  40.871   5.769
 2852POPC   GL239146  42.499  41.042   5.923
 2852POPC   C1A39147  42.254  40.575   6.117
 2852POPC   D2A39148  42.217  40.341   6.523
 2852POPC   C3A39149  42.369  40.571   6.875
 2852POPC   C4A39150  42.284  40.641   7.304
 2852POPC   C1B39151  42.295  41.101   6.311
 2852POPC   C2B39152  42.317  41.069   6.769
 2852POPC   C3B39153  42.604  41.021   7.132
 2852POPC   C4B39154  42.698  41.057   7.647
 2853POPC   NC339155  23.481  27.465   5.413
 2853POPC   PO439156  24.139  27.686   5.461
 2853POPC   GL139157  23.879  27.481   5.770
 2853POPC   GL239158  23.618  27.739   5.804
 2853POPC   C1A39159  23.708  27.469   6.220
 2853POPC   D2A39160  23.848  27.631   6.628
 2853POPC   C3A39161  23.656  27.437   6.994
 2853POPC   C4A39162  23.632  27.384   7.435
 2853POPC   C1B39163  23.332  27.895   6.086
 2853POPC   C2B39164  23.538  28.011   6.443
 2853POPC   C3B39165  23.439  27.893   6.858
 2853POPC   C4B39166  23.284  27.737   7.239
 2854POPC   NC339167  32.840  44.117   5.515
 2854POPC   PO439168  33.406  43.727   5.412
 2854POPC   GL139169  33.256  43.564   5.805
 2854POPC   GL239170  32.904  43.701   5.828
 2854POPC   C1A39171  33.453  43.461   6.219
 2854POPC   D2A39172  33.381  43.646   6.652
 2854POPC   C3A39173  33.296  43.472   7.068
 2854POPC   C4A39174  33.142  43.738   7.456
 2854POPC   C1B39175  33.101  43.835   6.220
 2854POPC   C2B39176  32.907  43.882   6.607
 2854POPC   C3B39177  33.050  43.966   6.987
 2854POPC   C4B39178  32.802  44.091   7.368
 2855POPC   NC339179  20.351   0.685   5.376
 2855POPC   PO439180  20.433   1.396   5.347
 2855POPC   GL139181  20.397   1.356   5.791
 2855POPC   GL239182  20.669   1.152   5.851
 2855POPC   C1A39183  20.334   1.241   6.231
 2855POPC   D2A39184  20.436   1.044   6.601
 2855POPC   C3A39185  20.308   1.221   6.951
 2855POPC   C4A39186  20.653   1.277   7.172
 2855POPC   C1B39187  20.815   1.421   6.209
 2855POPC   C2B39188  20.960   1.329   6.617
 2855POPC   C3B39189  21.093   1.107   6.977
 2855POPC   C4B39190  21.069   1.161   7.427
 2856POPC   NC339191   4.140  13.627   5.375
 2856POPC   PO439192   4.842  13.608   5.424
 2856POPC   GL139193   4.510  13.499   5.745
 2856POPC   GL239194   4.330  13.804   5.863
 2856POPC   C1A39195   4.451  13.387   6.193
 2856POPC   D2A39196   4.379  13.573   6.623
 2856POPC   C3A39197   4.584  13.417   6.962
 2856POPC   C4A39198   4.711  13.517   7.380
 2856POPC   C1B39199   4.057  13.740   6.255
 2856POPC   C2B39200   3.909  13.409   6.570
 2856POPC   C3B39201   4.051  13.348   6.991
 2856POPC   C4B39202   4.223  13.668   7.253
 2857POPC   NC339203  35.061  36.634   5.373
 2857POPC   PO439204  35.648  36.951   5.391
 2857POPC   GL139205  35.443  36.814   5.755
 2857POPC   GL239206  35.164  36.990   5.841
 2857POPC   C1A39207  35.443  36.802   6.217
 2857POPC   D2A39208  35.668  36.852   6.606
 2857POPC   C3A39209  35.559  36.673   6.999
 2857POPC   C4A39210  35.162  36.670   7.194
 2857POPC   C1B39211  35.095  37.170   6.233
 2857POPC   C2B39212  35.356  37.258   6.533
 2857POPC   C3B39213  35.325  37.126   6.926
 2857POPC   C4B39214  35.395  37.133   7.332
 2858POPC   NC339215   6.398   8.043   5.417
 2858POPC   PO439216   6.741   7.452   5.368
 2858POPC   GL139217   6.681   7.316   5.790
 2858POPC   GL239218   6.447   7.592   5.854
 2858POPC   C1A39219   6.539   7.213   6.214
 2858POPC   D2A39220   6.624   7.475   6.537
 2858POPC   C3A39221   6.729   7.232   6.875
 2858POPC   C4A39222   6.841   7.451   7.221
 2858POPC   C1B39223   6.222   7.619   6.245
 2858POPC   C2B39224   6.182   7.780   6.631
 2858POPC   C3B39225   6.433   7.693   6.957
 2858POPC   C4B39226   6.351   7.654   7.347
 2859POPC   NC339227  23.819  41.336   5.352
 2859POPC   PO439228  23.317  41.759   5.596
 2859POPC   GL139229  23.648  41.567   5.797
 2859POPC   GL239230  23.535  41.226   5.877
 2859POPC   C1A39231  23.911  41.784   6.115
 2859POPC   D2A39232  23.939  42.004   6.512
 2859POPC   C3A39233  23.849  41.746   6.825
 2859POPC   C4A39234  23.722  41.802   7.235
 2859POPC   C1B39235  23.496  41.480   6.272
 2859POPC   C2B39236  23.365  41.741   6.626
 2859POPC   C3B39237  23.419  41.481   6.975
 2859POPC   C4B39238  23.822  41.299   7.131
 2860POPC   NC339239  42.045  24.299   5.423
 2860POPC   PO439240  42.563  24.792   5.598
 2860POPC   GL139241  42.525  24.349   5.722
 2860POPC   GL239242  42.191  24.419   5.907
 2860POPC   C1A39243  42.613  24.276   6.155
 2860POPC   D2A39244  42.329  24.351   6.506
 2860POPC   C3A39245  42.468  24.579   6.872
 2860POPC   C4A39246  42.541  24.355   7.242
 2860POPC   C1B39247  41.998  24.705   6.245
 2860POPC   C2B39248  41.911  24.609   6.702
 2860POPC   C3B39249  42.020  24.455   7.106
 2860POPC   C4B39250  42.053  24.534   7.576
 2861POPC   NC339251  11.482  19.303   5.601
 2861POPC   PO439252  11.203  18.676   5.463
 2861POPC   GL139253  11.398  18.835   5.842
 2861POPC   GL239254  11.137  19.084   5.924
 2861POPC   C1A39255  11.422  18.870   6.312
 2861POPC   D2A39256  11.698  18.977   6.644
 2861POPC   C3A39257  11.561  19.147   7.013
 2861POPC   C4A39258  11.144  19.032   7.179
 2861POPC   C1B39259  11.329  19.377   6.227
 2861POPC   C2B39260  11.157  19.610   6.542
 2861POPC   C3B39261  11.176  19.489   6.947
 2861POPC   C4B39262  11.097  19.720   7.286
 2862POPC   NC339263  22.603  16.144   5.433
 2862POPC   PO439264  22.823  15.635   5.100
 2862POPC   GL139265  22.960  15.789   5.519
 2862POPC   GL239266  22.795  15.529   5.690
 2862POPC   C1A39267  23.034  15.958   5.975
 2862POPC   D2A39268  22.955  15.967   6.470
 2862POPC   C3A39269  23.209  15.991   6.893
 2862POPC   C4A39270  23.177  16.274   7.263
 2862POPC   C1B39271  22.825  15.515   6.147
 2862POPC   C2B39272  22.660  15.524   6.556
 2862POPC   C3B39273  22.710  15.793   6.893
 2862POPC   C4B39274  22.774  15.921   7.297
 2863POPC   NC339275  11.168  44.039   5.418
 2863POPC   PO439276  11.732  43.658   5.325
 2863POPC   GL139277  11.523  43.842   5.742
 2863POPC   GL239278  11.124  43.804   5.850
 2863POPC   C1A39279  11.455  44.015   6.160
 2863POPC   D2A39280  11.368  43.793   6.513
 2863POPC   C3A39281  11.278  44.028   6.818
 2863POPC   C4A39282  11.418  43.913   7.190
 2863POPC   C1B39283  11.129  43.507   6.148
 2863POPC   C2B39284  11.029  43.402   6.560
 2863POPC   C3B39285  11.078  43.578   6.980
 2863POPC   C4B39286  10.980  43.451   7.421
 2864POPC   NC339287  40.599  33.536   5.317
 2864POPC   PO439288  40.725  34.184   5.537
 2864POPC   GL139289  40.896  33.983   5.904
 2864POPC   GL239290  40.857  33.619   5.844
 2864POPC   C1A39291  40.840  33.944   6.366
 2864POPC   D2A39292  40.561  33.921   6.739
 2864POPC   C3A39293  40.708  33.986   7.170
 2864POPC   C4A39294  40.733  33.651   7.499
 2864POPC   C1B39295  40.958  33.446   6.253
 2864POPC   C2B39296  40.940  33.533   6.722
 2864POPC   C3B39297  41.095  33.635   7.132
 2864POPC   C4B39298  41.332  33.436   7.477
 2865POPC   NC339299  19.514  33.812   5.473
 2865POPC   PO439300  20.113  33.579   5.452
 2865POPC   GL139301  20.069  33.955   5.731
 2865POPC   GL239302  19.751  33.880   5.894
 2865POPC   C1A39303  20.041  34.168   6.148
 2865POPC   D2A39304  19.806  34.027   6.514
 2865POPC   C3A39305  19.955  34.187   6.919
 2865POPC   C4A39306  20.139  34.282   7.323
 2865POPC   C1B39307  19.927  33.629   6.163
 2865POPC   C2B39308  20.108  33.544   6.547
 2865POPC   C3B39309  19.910  33.650   6.915
 2865POPC   C4B39310  19.902  33.822   7.292
 2866POPC   NC339311  43.520  29.592   5.435
 2866POPC   PO439312  43.144  30.185   5.336
 2866POPC   GL139313  42.942  30.076   5.748
 2866POPC   GL239314  43.107  29.765   5.727
 2866POPC   C1A39315  42.846  29.813   6.168
 2866POPC   D2A39316  42.857  29.576   6.582
 2866POPC   C3A39317  42.840  29.746   6.978
 2866POPC   C4A39318  42.877  30.033   7.319
 2866POPC   C1B39319  43.345  29.962   6.026
 2866POPC   C2B39320  43.353  30.026   6.464
 2866POPC   C3B39321  43.237  30.062   6.881
 2866POPC   C4B39322  43.354  29.794   7.190
 2867POPC   NC339323  41.661  22.541   5.665
 2867POPC   PO439324  41.902  23.149   5.644
 2867POPC   GL139325  41.680  22.998   5.939
 2867POPC   GL239326  41.353  22.889   5.920
 2867POPC   C1A39327  41.738  23.024   6.330
 2867POPC   D2A39328  41.924  22.944   6.665
 2867POPC   C3A39329  41.691  22.970   7.009
 2867POPC   C4A39330  41.757  22.919   7.433
 2867POPC   C1B39331  41.342  22.723   6.345
 2867POPC   C2B39332  41.267  22.742   6.768
 2867POPC   C3B39333  41.219  22.920   7.173
 2867POPC   C4B39334  41.277  23.223   7.472
 2868POPC   NC339335  43.969  11.898   5.260
 2868POPC   PO439336  43.375  12.155   5.254
 2868POPC   GL139337  43.684  12.140   5.746
 2868POPC   GL239338  43.984  11.881   5.825
 2868POPC   C1A39339  43.969  12.211   6.192
 2868POPC   D2A39340  44.192  12.014   6.580
 2868POPC   C3A39341  44.131  12.235   7.008
 2868POPC   C4A39342  43.799  12.534   7.176
 2868POPC   C1B39343  43.831  11.717   6.234
 2868POPC   C2B39344  43.721  11.692   6.689
 2868POPC   C3B39345  43.947  11.738   7.076
 2868POPC   C4B39346  43.865  11.805   7.506
 2869POPC   NC339347  39.702  18.080   5.525
 2869POPC   PO439348  40.270  18.131   5.427
 2869POPC   GL139349  40.057  18.313   5.839
 2869POPC   GL239350  39.838  18.602   5.792
 2869POPC   C1A39351  40.192  18.588   6.212
 2869POPC   D2A39352  40.221  18.543   6.685
 2869POPC   C3A39353  39.889  18.238   6.881
 2869POPC   C4A39354  39.659  17.953   7.166
 2869POPC   C1B39355  39.681  18.654   6.231
 2869POPC   C2B39356  39.743  18.697   6.692
 2869POPC   C3B39357  39.958  18.685   7.115
 2869POPC   C4B39358  39.852  18.743   7.549
 2870POPC   NC339359  40.075   1.295   5.393
 2870POPC   PO439360  39.645   1.673   5.760
 2870POPC   GL139361  39.854   1.259   5.901
 2870POPC   GL239362  40.192   1.094   5.837
 2870POPC   C1A39363  39.841   1.204   6.353
 2870POPC   D2A39364  39.854   1.530   6.678
 2870POPC   C3A39365  39.704   1.394   7.077
 2870POPC   C4A39366  39.819   1.116   7.423
 2870POPC   C1B39367  40.312   0.974   6.242
 2870POPC   C2B39368  40.220   1.053   6.664
 2870POPC   C3B39369  40.163   0.973   7.076
 2870POPC   C4B39370  40.178   0.730   7.444
 2871POPC   NC339371  43.215  25.315   5.195
 2871POPC   PO439372  43.464  24.818   5.619
 2871POPC   GL139373  43.256  25.082   5.920
 2871POPC   GL239374  43.260  25.372   5.716
 2871POPC   C1A39375  43.459  25.301   6.247
 2871POPC   D2A39376  43.494  25.376   6.668
 2871POPC   C3A39377  43.159  25.201   6.878
 2871POPC   C4A39378  43.041  25.116   7.289
 2871POPC   C1B39379  43.152  25.658   6.055
 2871POPC   C2B39380  43.071  25.595   6.497
 2871POPC   C3B39381  43.131  25.721   6.911
 2871POPC   C4B39382  42.802  25.585   7.143
 2872POPC   NC339383   8.298  34.159   5.468
 2872POPC   PO439384   8.151  33.473   5.514
 2872POPC   GL139385   8.448  33.718   5.768
 2872POPC   GL239386   8.332  34.043   5.949
 2872POPC   C1A39387   8.550  33.662   6.205
 2872POPC   D2A39388   8.265  33.806   6.536
 2872POPC   C3A39389   8.167  33.609   6.948
 2872POPC   C4A39390   8.405  33.811   7.241
 2872POPC   C1B39391   7.928  33.965   6.144
 2872POPC   C2B39392   7.766  34.011   6.570
 2872POPC   C3B39393   8.027  34.081   6.924
 2872POPC   C4B39394   7.937  33.996   7.349
 2873POPC   NC339395  27.102   1.595   5.244
 2873POPC   PO439396  27.015   0.933   5.197
 2873POPC   GL139397  26.908   1.047   5.680
 2873POPC   GL239398  26.584   1.227   5.601
 2873POPC   C1A39399  27.044   1.014   6.190
 2873POPC   D2A39400  26.899   0.960   6.692
 2873POPC   C3A39401  27.110   1.026   7.131
 2873POPC   C4A39402  27.291   1.261   7.511
 2873POPC   C1B39403  26.557   1.162   6.064
 2873POPC   C2B39404  26.609   1.356   6.474
 2873POPC   C3B39405  26.482   1.327   6.899
 2873POPC   C4B39406  26.649   1.197   7.276
 2874POPC   NC339407   1.460  15.270   5.415
 2874POPC   PO439408   0.951  14.837   5.638
 2874POPC   GL139409   1.017  15.290   5.742
 2874POPC   GL239410   1.356  15.463   5.871
 2874POPC   C1A39411   0.939  15.379   6.150
 2874POPC   D2A39412   1.084  15.127   6.499
 2874POPC   C3A39413   1.126  15.343   6.872
 2874POPC   C4A39414   1.194  15.147   7.239
 2874POPC   C1B39415   1.405  15.055   6.089
 2874POPC   C2B39416   1.531  14.835   6.471
 2874POPC   C3B39417   1.478  14.900   6.897
 2874POPC   C4B39418   1.651  14.900   7.302
 2875POPC   NC339419   7.603  19.533   5.396
 2875POPC   PO439420   7.167  19.114   5.164
 2875POPC   GL139421   7.338  19.194   5.676
 2875POPC   GL239422   7.634  19.334   5.879
 2875POPC   C1A39423   7.276  19.063   6.116
 2875POPC   D2A39424   7.116  19.215   6.494
 2875POPC   C3A39425   7.413  19.135   6.810
 2875POPC   C4A39426   7.371  19.072   7.231
 2875POPC   C1B39427   7.610  19.379   6.351
 2875POPC   C2B39428   7.799  19.474   6.743
 2875POPC   C3B39429   7.673  19.478   7.155
 2875POPC   C4B39430   7.746  19.226   7.539
 2876POPC   NC339431  36.981  28.279   5.287
 2876POPC   PO439432  36.328  28.340   5.384
 2876POPC   GL139433  36.653  28.358   5.731
 2876POPC   GL239434  36.997  28.481   5.768
 2876POPC   C1A39435  36.815  28.156   6.122
 2876POPC   D2A39436  36.883  28.280   6.545
 2876POPC   C3A39437  36.847  28.029   6.868
 2876POPC   C4A39438  37.154  27.846   7.175
 2876POPC   C1B39439  37.078  28.601   6.202
 2876POPC   C2B39440  37.117  28.732   6.649
 2876POPC   C3B39441  37.176  28.404   7.001
 2876POPC   C4B39442  37.208  28.468   7.454
 2877POPC   NC339443  32.034  21.127   5.438
 2877POPC   PO439444  32.485  21.605   5.637
 2877POPC   GL139445  32.320  21.256   5.823
 2877POPC   GL239446  32.580  21.044   5.944
 2877POPC   C1A39447  32.124  21.111   6.167
 2877POPC   D2A39448  32.157  21.199   6.581
 2877POPC   C3A39449  31.905  21.131   6.912
 2877POPC   C4A39450  31.968  21.326   7.275
 2877POPC   C1B39451  32.573  21.429   6.229
 2877POPC   C2B39452  32.311  21.671   6.513
 2877POPC   C3B39453  32.242  21.621   6.956
 2877POPC   C4B39454  32.588  21.555   7.306
 2878POPC   NC339455  12.326  12.573   5.126
 2878POPC   PO439456  12.328  13.197   5.208
 2878POPC   GL139457  12.276  12.895   5.582
 2878POPC   GL239458  11.941  12.801   5.758
 2878POPC   C1A39459  12.369  12.857   6.049
 2878POPC   D2A39460  12.152  12.974   6.432
 2878POPC   C3A39461  12.254  12.855   6.857
 2878POPC   C4A39462  12.067  13.007   7.230
 2878POPC   C1B39463  11.882  12.591   6.192
 2878POPC   C2B39464  11.746  12.508   6.645
 2878POPC   C3B39465  11.914  12.536   7.088
 2878POPC   C4B39466  11.837  12.556   7.574
 2879POPC   NC339467   9.593  41.749   5.378
 2879POPC   PO439468   9.306  41.263   5.567
 2879POPC   GL139469   9.526  41.582   5.874
 2879POPC   GL239470   9.759  41.903   5.829
 2879POPC   C1A39471   9.718  41.645   6.309
 2879POPC   D2A39472   9.704  41.888   6.729
 2879POPC   C3A39473   9.645  41.774   7.165
 2879POPC   C4A39474   9.544  41.614   7.593
 2879POPC   C1B39475  10.124  41.908   6.123
 2879POPC   C2B39476  10.190  41.935   6.583
 2879POPC   C3B39477  10.154  41.903   7.058
 2879POPC   C4B39478  10.371  41.884   7.487
 2880POPC   NC339479   5.863  13.159   5.490
 2880POPC   PO439480   5.544  12.630   5.535
 2880POPC   GL139481   5.885  12.730   5.817
 2880POPC   GL239482   5.781  12.974   5.979
 2880POPC   C1A39483   5.907  12.521   6.214
 2880POPC   D2A39484   5.643  12.527   6.563
 2880POPC   C3A39485   5.887  12.493   6.925
 2880POPC   C4A39486   6.087  12.778   7.211
 2880POPC   C1B39487   5.751  13.070   6.406
 2880POPC   C2B39488   5.425  13.029   6.700
 2880POPC   C3B39489   5.432  12.886   7.118
 2880POPC   C4B39490   5.700  13.041   7.455
 2881POPC   NC339491   4.857  15.473   5.322
 2881POPC   PO439492   5.480  15.256   5.565
 2881POPC   GL139493   5.208  15.046   5.877
 2881POPC   GL239494   4.853  15.047   5.825
 2881POPC   C1A39495   5.081  14.927   6.296
 2881POPC   D2A39496   5.017  15.165   6.656
 2881POPC   C3A39497   5.029  15.019   7.054
 2881POPC   C4A39498   5.285  15.342   7.251
 2881POPC   C1B39499   4.848  15.390   6.166
 2881POPC   C2B39500   4.620  15.453   6.564
 2881POPC   C3B39501   4.796  15.514   7.006
 2881POPC   C4B39502   4.826  15.314   7.418
 2882POPC   NC339503  15.946  35.692   5.613
 2882POPC   PO439504  16.189  36.236   5.200
 2882POPC   GL139505  15.924  36.230   5.684
 2882POPC   GL239506  15.945  35.993   5.986
 2882POPC   C1A39507  15.920  36.436   6.166
 2882POPC   D2A39508  15.888  36.232   6.584
 2882POPC   C3A39509  15.770  36.360   6.974
 2882POPC   C4A39510  16.030  36.607   7.225
 2882POPC   C1B39511  16.231  35.964   6.332
 2882POPC   C2B39512  16.148  35.828   6.762
 2882POPC   C3B39513  16.085  35.989   7.194
 2882POPC   C4B39514  16.180  35.861   7.658
 2883POPC   NC339515  24.147  34.223   5.314
 2883POPC   PO439516  24.704  34.551   5.460
 2883POPC   GL139517  24.499  34.564   5.828
 2883POPC   GL239518  24.295  34.872   5.756
 2883POPC   C1A39519  24.741  34.541   6.238
 2883POPC   D2A39520  24.944  34.492   6.660
 2883POPC   C3A39521  24.595  34.399   6.925
 2883POPC   C4A39522  24.409  34.328   7.299
 2883POPC   C1B39523  24.359  34.885   6.201
 2883POPC   C2B39524  24.300  34.910   6.648
 2883POPC   C3B39525  24.280  34.797   7.075
 2883POPC   C4B39526  24.662  34.777   7.347
 2884POPC   NC339527  29.824  33.022   5.214
 2884POPC   PO439528  30.425  33.161   5.455
 2884POPC   GL139529  30.033  33.128   5.716
 2884POPC   GL239530  29.687  33.313   5.639
 2884POPC   C1A39531  30.050  33.122   6.181
 2884POPC   D2A39532  30.056  32.938   6.611
 2884POPC   C3A39533  29.975  33.219   7.006
 2884POPC   C4A39534  29.984  33.233   7.498
 2884POPC   C1B39535  29.577  33.011   5.956
 2884POPC   C2B39536  29.584  32.990   6.396
 2884POPC   C3B39537  29.590  32.869   6.823
 2884POPC   C4B39538  29.688  32.865   7.259
 2885POPC   NC339539  26.967  33.893   5.581
 2885POPC   PO439540  26.546  33.403   5.308
 2885POPC   GL139541  26.505  33.500   5.767
 2885POPC   GL239542  26.764  33.651   5.972
 2885POPC   C1A39543  26.470  33.321   6.217
 2885POPC   D2A39544  26.649  33.258   6.680
 2885POPC   C3A39545  26.518  33.588   7.026
 2885POPC   C4A39546  26.516  33.988   7.281
 2885POPC   C1B39547  27.196  33.584   6.142
 2885POPC   C2B39548  27.325  33.617   6.571
 2885POPC   C3B39549  27.279  33.541   6.992
 2885POPC   C4B39550  26.982  33.729   7.276
 2886POPC   NC339551  11.554  32.603   5.569
 2886POPC   PO439552  11.277  32.043   5.424
 2886POPC   GL139553  11.143  32.293   5.825
 2886POPC   GL239554  10.852  32.562   5.865
 2886POPC   C1A39555  11.300  32.190   6.244
 2886POPC   D2A39556  11.471  32.345   6.628
 2886POPC   C3A39557  11.403  32.030   6.965
 2886POPC   C4A39558  11.042  32.021   7.219
 2886POPC   C1B39559  11.107  32.669   6.221
 2886POPC   C2B39560  10.999  32.626   6.646
 2886POPC   C3B39561  11.180  32.506   7.025
 2886POPC   C4B39562  11.015  32.486   7.461
 2887POPC   NC339563  22.355  36.358   5.437
 2887POPC   PO439564  21.917  36.910   5.234
 2887POPC   GL139565  22.044  36.957   5.673
 2887POPC   GL239566  22.274  36.715   5.802
 2887POPC   C1A39567  22.117  37.143   6.070
 2887POPC   D2A39568  22.014  36.970   6.457
 2887POPC   C3A39569  22.155  37.103   6.844
 2887POPC   C4A39570  22.075  36.971   7.258
 2887POPC   C1B39571  22.437  36.760   6.226
 2887POPC   C2B39572  22.340  36.630   6.661
 2887POPC   C3B39573  22.256  36.519   7.091
 2887POPC   C4B39574  22.570  36.372   7.373
 2888POPC   NC339575  31.777  37.265   5.682
 2888POPC   PO439576  32.040  36.696   5.398
 2888POPC   GL139577  32.230  36.855   5.757
 2888POPC   GL239578  32.276  37.195   5.646
 2888POPC   C1A39579  32.513  36.785   6.109
 2888POPC   D2A39580  32.656  36.927   6.500
 2888POPC   C3A39581  32.417  36.714   6.784
 2888POPC   C4A39582  32.431  36.811   7.194
 2888POPC   C1B39583  32.289  37.258   6.105
 2888POPC   C2B39584  32.141  37.030   6.456
 2888POPC   C3B39585  32.158  37.163   6.876
 2888POPC   C4B39586  32.029  37.330   7.246
 2889POPC   NC339587  22.085  26.602   5.198
 2889POPC   PO439588  22.218  25.955   5.370
 2889POPC   GL139589  22.259  26.161   5.779
 2889POPC   GL239590  22.548  26.328   5.847
 2889POPC   C1A39591  22.113  26.254   6.220
 2889POPC   D2A39592  21.924  25.944   6.528
 2889POPC   C3A39593  21.652  26.065   6.881
 2889POPC   C4A39594  21.780  26.202   7.281
 2889POPC   C1B39595  22.646  26.225   6.291
 2889POPC   C2B39596  22.402  26.208   6.672
 2889POPC   C3B39597  22.184  26.020   7.025
 2889POPC   C4B39598  22.247  26.147   7.480
 2890POPC   NC339599  36.732  37.753   5.428
 2890POPC   PO439600  37.360  37.896   5.401
 2890POPC   GL139601  37.329  37.715   5.800
 2890POPC   GL239602  37.398  38.072   5.893
 2890POPC   C1A39603  37.164  37.444   6.152
 2890POPC   D2A39604  37.064  37.349   6.596
 2890POPC   C3A39605  36.807  37.573   6.877
 2890POPC   C4A39606  36.703  37.498   7.298
 2890POPC   C1B39607  37.215  37.936   6.288
 2890POPC   C2B39608  37.221  37.887   6.741
 2890POPC   C3B39609  37.108  37.893   7.181
 2890POPC   C4B39610  37.268  38.001   7.579
 2891POPC   NC339611  18.408  39.147   5.545
 2891POPC   PO439612  18.525  39.791   5.517
 2891POPC   GL139613  18.277  39.540   5.872
 2891POPC   GL239614  18.128  39.160   5.952
 2891POPC   C1A39615  18.348  39.450   6.305
 2891POPC   D2A39616  18.559  39.572   6.701
 2891POPC   C3A39617  18.331  39.500   7.093
 2891POPC   C4A39618  18.224  39.284   7.489
 2891POPC   C1B39619  18.473  38.975   6.219
 2891POPC   C2B39620  18.398  39.086   6.665
 2891POPC   C3B39621  18.347  38.973   7.077
 2891POPC   C4B39622  18.371  38.784   7.438
 2892POPC   NC339623  20.457  34.192   5.379
 2892POPC   PO439624  20.865  33.708   5.335
 2892POPC   GL139625  20.607  33.801   5.709
 2892POPC   GL239626  20.799  33.552   5.886
 2892POPC   C1A39627  20.414  33.806   6.152
 2892POPC   D2A39628  20.342  34.022   6.564
 2892POPC   C3A39629  20.374  33.882   6.997
 2892POPC   C4A39630  20.411  33.834   7.430
 2892POPC   C1B39631  20.902  33.968   6.097
 2892POPC   C2B39632  20.987  33.902   6.510
 2892POPC   C3B39633  20.857  34.048   6.878
 2892POPC   C4B39634  20.876  33.791   7.204
 2893POPC   NC339635   9.903  30.856   5.585
 2893POPC   PO439636   9.445  30.437   5.411
 2893POPC   GL139637   9.687  30.420   5.768
 2893POPC   GL239638  10.063  30.498   5.892
 2893POPC   C1A39639   9.609  30.621   6.148
 2893POPC   D2A39640   9.792  30.759   6.526
 2893POPC   C3A39641   9.609  30.681   6.892
 2893POPC   C4A39642   9.801  30.558   7.276
 2893POPC   C1B39643  10.130  30.920   6.172
 2893POPC   C2B39644  10.048  31.200   6.558
 2893POPC   C3B39645   9.971  31.040   6.975
 2893POPC   C4B39646  10.249  30.903   7.288
 2894POPC   NC339647  35.366  37.312   5.501
 2894POPC   PO439648  35.102  37.903   5.573
 2894POPC   GL139649  35.045  37.557   5.846
 2894POPC   GL239650  35.370  37.478   5.971
 2894POPC   C1A39651  34.964  37.656   6.278
 2894POPC   D2A39652  35.102  37.876   6.618
 2894POPC   C3A39653  35.353  37.653   6.857
 2894POPC   C4A39654  35.417  37.632   7.258
 2894POPC   C1B39655  35.570  37.658   6.300
 2894POPC   C2B39656  35.786  37.782   6.648
 2894POPC   C3B39657  35.772  37.960   7.078
 2894POPC   C4B39658  35.717  37.939   7.541
 2895POPC   NC339659  30.622  37.662   5.245
 2895POPC   PO439660  29.876  37.564   5.191
 2895POPC   GL139661  29.909  37.541   5.723
 2895POPC   GL239662  29.606  37.393   5.809
 2895POPC   C1A39663  30.121  37.749   6.116
 2895POPC   D2A39664  30.376  37.790   6.526
 2895POPC   C3A39665  30.161  37.737   6.936
 2895POPC   C4A39666  29.747  37.632   7.090
 2895POPC   C1B39667  29.616  37.712   6.133
 2895POPC   C2B39668  29.703  37.857   6.559
 2895POPC   C3B39669  29.424  37.975   6.890
 2895POPC   C4B39670  29.311  37.831   7.297
 2896POPC   NC339671  29.385  28.590   5.387
 2896POPC   PO439672  28.779  28.193   5.348
 2896POPC   GL139673  28.940  28.043   5.754
 2896POPC   GL239674  29.190  28.304   5.797
 2896POPC   C1A39675  29.058  27.944   6.183
 2896POPC   D2A39676  29.092  28.185   6.562
 2896POPC   C3A39677  28.892  28.233   6.948
 2896POPC   C4A39678  28.997  28.044   7.342
 2896POPC   C1B39679  28.966  28.452   6.140
 2896POPC   C2B39680  29.068  28.704   6.501
 2896POPC   C3B39681  29.058  28.718   6.984
 2896POPC   C4B39682  29.399  28.642   7.281
 2897POPC   NC339683  22.977  41.874   5.306
 2897POPC   PO439684  23.017  41.202   5.252
 2897POPC   GL139685  23.046  41.346   5.712
 2897POPC   GL239686  22.837  41.643   5.778
 2897POPC   C1A39687  23.068  41.187   6.152
 2897POPC   D2A39688  23.163  41.214   6.598
 2897POPC   C3A39689  22.962  41.244   7.064
 2897POPC   C4A39690  22.961  41.208   7.565
 2897POPC   C1B39691  23.021  41.677   6.221
 2897POPC   C2B39692  22.875  41.609   6.680
 2897POPC   C3B39693  22.990  41.752   7.097
 2897POPC   C4B39694  22.616  41.730   7.320
 2898POPC   NC339695   1.879  35.863   5.399
 2898POPC   PO439696   2.261  36.348   5.408
 2898POPC   GL139697   2.204  36.260   5.850
 2898POPC   GL239698   2.409  35.979   5.860
 2898POPC   C1A39699   1.926  36.213   6.255
 2898POPC   D2A39700   1.653  36.308   6.648
 2898POPC   C3A39701   1.803  36.233   7.110
 2898POPC   C4A39702   2.139  36.167   7.422
 2898POPC   C1B39703   2.391  36.028   6.338
 2898POPC   C2B39704   2.164  36.077   6.763
 2898POPC   C3B39705   2.054  35.779   7.104
 2898POPC   C4B39706   2.232  35.663   7.504
 2899POPC   NC339707  24.728  13.132   5.663
 2899POPC   PO439708  24.638  13.738   5.406
 2899POPC   GL139709  24.485  13.703   5.827
 2899POPC   GL239710  24.192  13.610   6.014
 2899POPC   C1A39711  24.559  13.928   6.195
 2899POPC   D2A39712  24.351  13.914   6.581
 2899POPC   C3A39713  24.557  13.924   6.955
 2899POPC   C4A39714  24.728  13.619   7.171
 2899POPC   C1B39715  24.573  13.430   6.261
 2899POPC   C2B39716  24.695  13.256   6.643
 2899POPC   C3B39717  24.487  13.181   7.044
 2899POPC   C4B39718  24.386  13.388   7.474
 2900POPC   NC339719   7.329  28.839   5.516
 2900POPC   PO439720   7.523  29.583   5.530
 2900POPC   GL139721   7.431  29.270   5.815
 2900POPC   GL239722   7.697  29.076   5.767
 2900POPC   C1A39723   7.239  29.052   6.167
 2900POPC   D2A39724   7.204  28.762   6.509
 2900POPC   C3A39725   7.287  28.970   6.881
 2900POPC   C4A39726   7.392  29.221   7.216
 2900POPC   C1B39727   7.837  29.321   6.135
 2900POPC   C2B39728   7.649  29.442   6.516
 2900POPC   C3B39729   7.750  29.331   6.896
 2900POPC   C4B39730   7.916  29.272   7.260
 2901POPC   NC339731  40.112  40.273   5.113
 2901POPC   PO439732  39.869  39.899   5.715
 2901POPC   GL139733  40.008  40.155   6.072
 2901POPC   GL239734  40.279  39.923   6.044
 2901POPC   C1A39735  39.878  40.303   6.457
 2901POPC   D2A39736  39.689  40.013   6.775
 2901POPC   C3A39737  39.711  40.123   7.196
 2901POPC   C4A39738  40.115  40.317   7.364
 2901POPC   C1B39739  40.344  39.540   6.298
 2901POPC   C2B39740  40.565  39.642   6.678
 2901POPC   C3B39741  40.480  40.040   6.899
 2901POPC   C4B39742  40.140  39.877   7.125
 2902POPC   NC339743  38.333  32.678   5.412
 2902POPC   PO439744  38.740  32.115   5.580
 2902POPC   GL139745  38.629  32.407   5.892
 2902POPC   GL239746  38.263  32.408   5.849
 2902POPC   C1A39747  38.569  32.271   6.336
 2902POPC   D2A39748  38.349  32.095   6.699
 2902POPC   C3A39749  38.465  32.281   7.081
 2902POPC   C4A39750  38.543  32.086   7.488
 2902POPC   C1B39751  38.067  32.350   6.244
 2902POPC   C2B39752  38.020  32.504   6.638
 2902POPC   C3B39753  38.047  32.595   7.073
 2902POPC   C4B39754  38.137  32.412   7.454
 2903POPC   NC339755  27.375   3.043   5.450
 2903POPC   PO439756  27.891   2.781   5.309
 2903POPC   GL139757  27.753   2.866   5.744
 2903POPC   GL239758  27.409   2.680   5.790
 2903POPC   C1A39759  27.772   2.683   6.145
 2903POPC   D2A39760  27.818   2.478   6.519
 2903POPC   C3A39761  27.665   2.605   6.918
 2903POPC   C4A39762  27.829   2.568   7.337
 2903POPC   C1B39763  27.292   2.828   6.187
 2903POPC   C2B39764  27.266   2.666   6.572
 2903POPC   C3B39765  27.168   2.566   6.979
 2903POPC   C4B39766  27.385   2.768   7.317
 2904POPC   NC339767  30.814  22.529   5.093
 2904POPC   PO439768  30.373  22.418   5.559
 2904POPC   GL139769  30.552  22.169   5.841
 2904POPC   GL239770  30.829  22.346   5.887
 2904POPC   C1A39771  30.570  21.953   6.223
 2904POPC   D2A39772  30.752  21.928   6.640
 2904POPC   C3A39773  30.528  21.969   7.036
 2904POPC   C4A39774  30.743  22.219   7.330
 2904POPC   C1B39775  31.029  22.181   6.255
 2904POPC   C2B39776  31.086  22.357   6.670
 2904POPC   C3B39777  31.063  22.535   7.096
 2904POPC   C4B39778  31.096  22.503   7.589
 2905POPC   NC339779  16.675  23.015   5.375
 2905POPC   PO439780  16.404  23.528   5.604
 2905POPC   GL139781  16.514  23.141   5.879
 2905POPC   GL239782  16.720  22.809   5.885
 2905POPC   C1A39783  16.538  22.990   6.329
 2905POPC   D2A39784  16.803  23.222   6.621
 2905POPC   C3A39785  16.675  23.256   7.037
 2905POPC   C4A39786  16.301  23.116   7.204
 2905POPC   C1B39787  17.041  23.001   6.195
 2905POPC   C2B39788  17.289  23.054   6.588
 2905POPC   C3B39789  17.181  23.088   7.008
 2905POPC   C4B39790  17.041  23.207   7.414
 2906POPC   NC339791  22.153  33.268   5.328
 2906POPC   PO439792  22.534  32.654   5.308
 2906POPC   GL139793  22.532  32.874   5.739
 2906POPC   GL239794  22.215  33.085   5.798
 2906POPC   C1A39795  22.444  32.855   6.206
 2906POPC   D2A39796  22.282  32.718   6.624
 2906POPC   C3A39797  22.386  32.986   6.996
 2906POPC   C4A39798  22.362  33.434   7.048
 2906POPC   C1B39799  22.168  33.311   6.203
 2906POPC   C2B39800  22.031  33.182   6.620
 2906POPC   C3B39801  21.869  32.914   6.939
 2906POPC   C4B39802  21.972  33.076   7.343
 2907POPC   NC339803  17.194  19.963   5.357
 2907POPC   PO439804  17.706  19.580   5.435
 2907POPC   GL139805  17.513  19.797   5.765
 2907POPC   GL239806  17.231  19.544   5.764
 2907POPC   C1A39807  17.627  20.098   6.137
 2907POPC   D2A39808  17.605  19.926   6.560
 2907POPC   C3A39809  17.722  20.120   6.946
 2907POPC   C4A39810  17.603  19.985   7.402
 2907POPC   C1B39811  17.209  19.812   6.153
 2907POPC   C2B39812  17.106  19.941   6.560
 2907POPC   C3B39813  17.272  19.856   6.964
 2907POPC   C4B39814  17.027  19.857   7.301
 2908POPC   NC339815  30.972  19.215   5.249
 2908POPC   PO439816  30.888  18.464   5.307
 2908POPC   GL139817  30.765  18.711   5.736
 2908POPC   GL239818  30.467  18.947   5.812
 2908POPC   C1A39819  30.835  18.959   6.155
 2908POPC   D2A39820  30.609  19.073   6.549
 2908POPC   C3A39821  30.765  18.974   6.971
 2908POPC   C4A39822  31.035  19.239   7.239
 2908POPC   C1B39823  30.378  19.311   6.088
 2908POPC   C2B39824  30.383  19.550   6.479
 2908POPC   C3B39825  30.588  19.477   6.907
 2908POPC   C4B39826  30.546  19.318   7.331
 2909POPC   NC339827  17.037  11.528   5.396
 2909POPC   PO439828  16.580  10.983   5.367
 2909POPC   GL139829  16.680  11.076   5.814
 2909POPC   GL239830  16.618  11.401   5.855
 2909POPC   C1A39831  16.668  11.134   6.291
 2909POPC   D2A39832  16.592  11.320   6.658
 2909POPC   C3A39833  16.637  11.069   6.939
 2909POPC   C4A39834  16.828  11.084   7.287
 2909POPC   C1B39835  16.781  11.616   6.193
 2909POPC   C2B39836  17.059  11.457   6.489
 2909POPC   C3B39837  17.035  11.415   6.929
 2909POPC   C4B39838  17.179  11.485   7.365
 2910POPC   NC339839  36.591  26.328   5.459
 2910POPC   PO439840  37.128  25.892   5.397
 2910POPC   GL139841  36.939  26.096   5.763
 2910POPC   GL239842  37.050  26.458   5.760
 2910POPC   C1A39843  36.796  26.053   6.188
 2910POPC   D2A39844  37.021  26.119   6.556
 2910POPC   C3A39845  36.939  25.818   6.906
 2910POPC   C4A39846  36.817  25.870   7.326
 2910POPC   C1B39847  36.866  26.553   6.174
 2910POPC   C2B39848  36.623  26.463   6.558
 2910POPC   C3B39849  36.702  26.284   6.941
 2910POPC   C4B39850  36.983  26.347   7.245
 2911POPC   NC339851  22.001  38.034   5.011
 2911POPC   PO439852  22.283  38.541   5.290
 2911POPC   GL139853  22.124  38.449   5.729
 2911POPC   GL239854  21.834  38.702   5.748
 2911POPC   C1A39855  22.222  38.256   6.167
 2911POPC   D2A39856  22.364  38.061   6.557
 2911POPC   C3A39857  22.391  38.360   6.917
 2911POPC   C4A39858  22.147  38.581   7.238
 2911POPC   C1B39859  21.762  38.471   6.140
 2911POPC   C2B39860  21.913  38.576   6.559
 2911POPC   C3B39861  21.795  38.369   6.935
 2911POPC   C4B39862  21.881  38.134   7.321
 2912POPC   NC339863  22.625  14.581   5.513
 2912POPC   PO439864  23.109  14.089   5.397
 2912POPC   GL139865  22.989  14.291   5.796
 2912POPC   GL239866  22.647  14.261   5.901
 2912POPC   C1A39867  23.098  14.389   6.239
 2912POPC   D2A39868  23.079  14.675   6.601
 2912POPC   C3A39869  22.892  14.541   6.961
 2912POPC   C4A39870  23.096  14.367   7.287
 2912POPC   C1B39871  22.733  14.013   6.250
 2912POPC   C2B39872  22.867  14.139   6.647
 2912POPC   C3B39873  22.697  14.080   7.070
 2912POPC   C4B39874  22.483  14.082   7.444
 2913POPC   NC339875  32.067  20.446   5.316
 2913POPC   PO439876  32.469  20.942   5.431
 2913POPC   GL139877  32.204  20.714   5.761
 2913POPC   GL239878  32.084  20.327   5.796
 2913POPC   C1A39879  32.136  20.613   6.199
 2913POPC   D2A39880  31.949  20.732   6.568
 2913POPC   C3A39881  32.236  20.722   6.899
 2913POPC   C4A39882  32.165  20.849   7.324
 2913POPC   C1B39883  32.035  20.092   6.178
 2913POPC   C2B39884  32.097  20.235   6.602
 2913POPC   C3B39885  32.095  20.262   7.040
 2913POPC   C4B39886  32.225  20.361   7.445
 2914POPC   NC339887  29.457   9.200   5.437
 2914POPC   PO439888  29.890   8.825   5.257
 2914POPC   GL139889  29.720   8.844   5.690
 2914POPC   GL239890  29.871   9.155   5.769
 2914POPC   C1A39891  29.751   8.770   6.129
 2914POPC   D2A39892  29.945   8.747   6.518
 2914POPC   C3A39893  29.753   8.932   6.853
 2914POPC   C4A39894  29.677   9.033   7.271
 2914POPC   C1B39895  30.098   9.146   6.188
 2914POPC   C2B39896  30.239   9.160   6.623
 2914POPC   C3B39897  30.306   8.976   7.017
 2914POPC   C4B39898  30.191   9.177   7.386
 2915POPC   NC339899  37.164  39.249   5.502
 2915POPC   PO439900  36.565  39.030   5.538
 2915POPC   GL139901  36.817  39.236   5.860
 2915POPC   GL239902  37.030  38.945   5.904
 2915POPC   C1A39903  36.963  39.517   6.208
 2915POPC   D2A39904  36.987  39.322   6.604
 2915POPC   C3A39905  37.218  39.453   6.967
 2915POPC   C4A39906  37.038  39.594   7.352
 2915POPC   C1B39907  37.287  38.877   6.293
 2915POPC   C2B39908  37.214  38.873   6.729
 2915POPC   C3B39909  36.911  39.013   7.023
 2915POPC   C4B39910  37.067  39.087   7.427
 2916POPC   NC339911  28.703   6.478   5.313
 2916POPC   PO439912  28.350   6.866   5.615
 2916POPC   GL139913  28.412   6.470   5.786
 2916POPC   GL239914  28.107   6.314   5.845
 2916POPC   C1A39915  28.613   6.412   6.178
 2916POPC   D2A39916  28.560   6.648   6.559
 2916POPC   C3A39917  28.743   6.430   6.884
 2916POPC   C4A39918  28.678   6.350   7.309
 2916POPC   C1B39919  28.104   6.495   6.281
 2916POPC   C2B39920  28.027   6.444   6.723
 2916POPC   C3B39921  28.302   6.606   7.060
 2916POPC   C4B39922  28.494   6.805   7.416
 2917POPC   NC339923  12.607  13.529   5.044
 2917POPC   PO439924  12.909  14.008   5.276
 2917POPC   GL139925  12.862  13.772   5.687
 2917POPC   GL239926  13.173  13.558   5.704
 2917POPC   C1A39927  12.631  13.827   6.100
 2917POPC   D2A39928  12.759  13.886   6.541
 2917POPC   C3A39929  12.742  13.615   6.903
 2917POPC   C4A39930  12.571  13.673   7.312
 2917POPC   C1B39931  13.067  13.571   6.140
 2917POPC   C2B39932  13.175  13.556   6.562
 2917POPC   C3B39933  13.258  13.640   6.955
 2917POPC   C4B39934  13.075  13.568   7.330
 2918POPC   NC339935  26.130   1.615   5.337
 2918POPC   PO439936  26.121   0.909   5.405
 2918POPC   GL139937  26.110   1.066   5.802
 2918POPC   GL239938  26.130   1.403   5.787
 2918POPC   C1A39939  25.956   1.134   6.209
 2918POPC   D2A39940  25.795   0.914   6.554
 2918POPC   C3A39941  25.975   1.168   6.862
 2918POPC   C4A39942  26.147   1.087   7.232
 2918POPC   C1B39943  26.262   1.573   6.134
 2918POPC   C2B39944  26.133   1.575   6.527
 2918POPC   C3B39945  26.217   1.761   6.883
 2918POPC   C4B39946  26.059   1.610   7.250
 2919POPC   NC339947  16.809  12.272   5.444
 2919POPC   PO439948  16.519  11.698   5.468
 2919POPC   GL139949  16.607  11.934   5.814
 2919POPC   GL239950  16.927  11.895   5.790
 2919POPC   C1A39951  16.445  12.008   6.228
 2919POPC   D2A39952  16.585  11.806   6.612
 2919POPC   C3A39953  16.679  11.833   7.025
 2919POPC   C4A39954  16.419  12.178   7.145
 2919POPC   C1B39955  16.890  12.225   6.129
 2919POPC   C2B39956  16.743  12.300   6.557
 2919POPC   C3B39957  16.904  12.293   7.006
 2919POPC   C4B39958  17.009  12.460   7.433
 2920POPC   NC339959  33.653  38.580   5.375
 2920POPC   PO439960  34.186  38.202   5.305
 2920POPC   GL139961  33.909  38.271   5.717
 2920POPC   GL239962  33.968  38.597   5.751
 2920POPC   C1A39963  33.614  38.440   6.071
 2920POPC   D2A39964  33.593  38.640   6.482
 2920POPC   C3A39965  33.730  38.353   6.837
 2920POPC   C4A39966  33.506  38.299   7.236
 2920POPC   C1B39967  34.014  38.743   6.130
 2920POPC   C2B39968  34.101  38.649   6.528
 2920POPC   C3B39969  33.940  38.830   6.860
 2920POPC   C4B39970  34.113  38.861   7.222
 2921POPC   NC339971  24.233  19.247   5.255
 2921POPC   PO439972  24.709  18.852   5.190
 2921POPC   GL139973  24.483  18.939   5.639
 2921POPC   GL239974  24.643  19.111   5.911
 2921POPC   C1A39975  24.302  18.758   6.072
 2921POPC   D2A39976  24.470  18.732   6.486
 2921POPC   C3A39977  24.362  18.859   6.900
 2921POPC   C4A39978  24.779  18.994   7.066
 2921POPC   C1B39979  24.377  19.220   6.256
 2921POPC   C2B39980  24.544  19.266   6.639
 2921POPC   C3B39981  24.407  19.355   7.022
 2921POPC   C4B39982  24.139  19.244   7.352
 2922POPC   NC339983  27.104   8.735   5.425
 2922POPC   PO439984  26.713   9.280   5.454
 2922POPC   GL139985  26.696   8.969   5.782
 2922POPC   GL239986  27.037   9.027   5.838
 2922POPC   C1A39987  26.771   8.851   6.234
 2922POPC   D2A39988  26.927   9.026   6.635
 2922POPC   C3A39989  26.812   8.780   6.986
 2922POPC   C4A39990  26.450   8.752   7.202
 2922POPC   C1B39991  27.078   9.311   6.155
 2922POPC   C2B39992  27.264   9.402   6.514
 2922POPC   C3B39993  27.158   9.426   6.905
 2922POPC   C4B39994  26.995   9.196   7.212
 2923POPC   NC339995  33.528   7.120   5.488
 2923POPC   PO439996  33.621   6.455   5.368
 2923POPC   GL139997  33.674   6.683   5.799
 2923POPC   GL239998  33.413   6.878   5.939
 2923POPC   C1A39999  33.711   6.513   6.231
 2923POPC   D2A40000  33.717   6.531   6.682
 2923POPC   C3A40001  33.866   6.709   7.028
 2923POPC   C4A40002  34.000   6.370   7.297
 2923POPC   C1B40003  33.774   7.003   6.246
 2923POPC   C2B40004  33.667   7.080   6.669
 2923POPC   C3B40005  33.402   6.943   6.970
 2923POPC   C4B40006  33.476   6.749   7.352
 2924POPC   NC340007   5.597   9.926   5.504
 2924POPC   PO440008   6.243   9.894   5.369
 2924POPC   GL140009   5.986   9.687   5.720
 2924POPC   GL240010   5.814   9.380   5.638
 2924POPC   C1A40011   5.785   9.775   6.123
 2924POPC   D2A40012   5.959   9.749   6.520
 2924POPC   C3A40013   6.007  10.046   6.846
 2924POPC   C4A40014   5.892   9.888   7.250
 2924POPC   C1B40015   5.668   9.259   6.063
 2924POPC   C2B40016   5.524   9.455   6.464
 2924POPC   C3B40017   5.641   9.614   6.882
 2924POPC   C4B40018   5.592   9.461   7.283
 2925POPC   NC340019  43.889  32.047   5.438
 2925POPC   PO440020  44.427  32.504   5.518
 2925POPC   GL140021  44.019  32.445   5.772
 2925POPC   GL240022  43.648  32.335   5.805
 2925POPC   C1A40023  43.986  32.334   6.203
 2925POPC   D2A40024  44.006  32.030   6.553
 2925POPC   C3A40025  44.115  32.176   6.968
 2925POPC   C4A40026  44.088  32.183   7.422
 2925POPC   C1B40027  43.482  32.292   6.209
 2925POPC   C2B40028  43.638  32.367   6.621
 2925POPC   C3B40029  43.607  32.269   7.059
 2925POPC   C4B40030  43.623  32.387   7.499
 2926POPC   NC340031  29.756  39.804   5.301
 2926POPC   PO440032  30.383  40.177   5.393
 2926POPC   GL140033  30.038  39.970   5.710
 2926POPC   GL240034  29.698  39.774   5.789
 2926POPC   C1A40035  29.888  40.092   6.153
 2926POPC   D2A40036  30.185  40.092   6.512
 2926POPC   C3A40037  30.092  39.936   6.955
 2926POPC   C4A40038  30.151  40.006   7.437
 2926POPC   C1B40039  29.737  39.556   6.156
 2926POPC   C2B40040  29.760  39.735   6.549
 2926POPC   C3B40041  29.597  39.744   6.945
 2926POPC   C4B40042  29.784  39.640   7.314
 2927POPC   NC340043  25.732   0.741   5.614
 2927POPC   PO440044  26.180   0.401   5.187
 2927POPC   GL140045  26.122   0.442   5.681
 2927POPC   GL240046  26.363   0.236   5.811
 2927POPC   C1A40047  25.941   0.371   6.127
 2927POPC   D2A40048  25.892   0.331   6.597
 2927POPC   C3A40049  26.029   0.621   6.938
 2927POPC   C4A40050  25.855   0.676   7.363
 2927POPC   C1B40051  26.431   0.235   6.242
 2927POPC   C2B40052  26.408   0.393   6.639
 2927POPC   C3B40053  26.556   0.298   7.026
 2927POPC   C4B40054  26.286   0.400   7.366
 2928POPC   NC340055  37.903   1.165   5.300
 2928POPC   PO440056  37.339   0.775   5.388
 2928POPC   GL140057  37.659   0.991   5.739
 2928POPC   GL240058  37.873   1.334   5.779
 2928POPC   C1A40059  37.797   0.983   6.217
 2928POPC   D2A40060  37.651   1.186   6.621
 2928POPC   C3A40061  37.531   1.060   7.050
 2928POPC   C4A40062  37.122   1.125   7.274
 2928POPC   C1B40063  38.157   1.350   6.160
 2928POPC   C2B40064  38.158   1.198   6.592
 2928POPC   C3B40065  37.973   1.308   7.009
 2928POPC   C4B40066  37.989   1.052   7.382
 2929POPC   NC340067  25.397  25.597   5.392
 2929POPC   PO440068  24.880  26.058   5.275
 2929POPC   GL140069  25.137  25.972   5.678
 2929POPC   GL240070  25.490  26.079   5.692
 2929POPC   C1A40071  25.310  25.800   6.103
 2929POPC   D2A40072  25.286  25.742   6.575
 2929POPC   C3A40073  25.412  25.988   6.967
 2929POPC   C4A40074  25.229  25.934   7.391
 2929POPC   C1B40075  25.341  26.314   6.050
 2929POPC   C2B40076  25.413  26.286   6.495
 2929POPC   C3B40077  25.214  26.486   6.850
 2929POPC   C4B40078  24.983  26.346   7.217
 2930POPC   NC340079  20.836  31.429   5.427
 2930POPC   PO440080  20.191  31.505   5.421
 2930POPC   GL140081  20.430  31.479   5.795
 2930POPC   GL240082  20.369  31.201   5.957
 2930POPC   C1A40083  20.521  31.653   6.233
 2930POPC   D2A40084  20.546  31.885   6.630
 2930POPC   C3A40085  20.682  31.711   7.039
 2930POPC   C4A40086  20.458  31.582   7.465
 2930POPC   C1B40087  20.832  31.276   6.109
 2930POPC   C2B40088  20.920  31.439   6.542
 2930POPC   C3B40089  20.552  31.310   6.763
 2930POPC   C4B40090  20.303  31.166   7.097
 2931POPC   NC340091  10.297  22.374   5.427
 2931POPC   PO440092  10.647  21.804   5.288
 2931POPC   GL140093  10.438  21.961   5.714
 2931POPC   GL240094  10.599  22.283   5.847
 2931POPC   C1A40095  10.183  22.077   6.112
 2931POPC   D2A40096  10.289  21.970   6.552
 2931POPC   C3A40097  10.206  22.190   6.950
 2931POPC   C4A40098  10.536  22.418   7.207
 2931POPC   C1B40099  10.705  21.947   6.172
 2931POPC   C2B40100  10.760  21.749   6.600
 2931POPC   C3B40101  10.618  21.881   7.033
 2931POPC   C4B40102  10.875  22.045   7.394
 2932POPC   NC340103   3.978  36.886   5.441
 2932POPC   PO440104   3.316  36.747   5.331
 2932POPC   GL140105   3.588  36.668   5.696
 2932POPC   GL240106   3.582  37.011   5.795
 2932POPC   C1A40107   3.642  36.707   6.184
 2932POPC   D2A40108   3.538  36.902   6.596
 2932POPC   C3A40109   3.498  36.663   6.978
 2932POPC   C4A40110   3.771  36.577   7.319
 2932POPC   C1B40111   3.342  37.149   6.168
 2932POPC   C2B40112   3.282  37.337   6.565
 2932POPC   C3B40113   3.551  37.349   6.907
 2932POPC   C4B40114   3.387  37.104   7.229
 2933POPC   NC340115  44.827   5.129   5.290
 2933POPC   PO440116  44.217   5.142   5.498
 2933POPC   GL140117  44.610   5.025   5.759
 2933POPC   GL240118  44.917   5.267   5.772
 2933POPC   C1A40119  44.827   4.965   6.191
 2933POPC   D2A40120   0.026   4.889   6.641
 2933POPC   C3A40121  44.828   5.064   6.981
 2933POPC   C4A40122  44.413   5.252   7.021
 2933POPC   C1B40123   0.050   5.460   6.175
 2933POPC   C2B40124  44.876   5.568   6.600
 2933POPC   C3B40125  44.904   5.564   7.042
 2933POPC   C4B40126   0.087   5.316   7.360
 2934POPC   NC340127  29.436  41.378   5.454
 2934POPC   PO440128  29.136  41.975   5.533
 2934POPC   GL140129  29.264  41.731   5.817
 2934POPC   GL240130  28.997  41.489   5.769
 2934POPC   C1A40131  29.285  41.888   6.213
 2934POPC   D2A40132  29.411  41.652   6.542
 2934POPC   C3A40133  29.451  41.826   6.943
 2934POPC   C4A40134  29.278  41.712   7.333
 2934POPC   C1B40135  29.136  41.372   6.181
 2934POPC   C2B40136  28.975  41.371   6.581
 2934POPC   C3B40137  29.004  41.166   6.967
 2934POPC   C4B40138  29.018  41.249   7.413
 2935POPC   NC340139  30.363  34.527   5.528
 2935POPC   PO440140  30.746  34.088   5.247
 2935POPC   GL140141  30.816  34.296   5.743
 2935POPC   GL240142  30.690  34.644   5.888
 2935POPC   C1A40143  30.787  34.264   6.222
 2935POPC   D2A40144  30.582  34.540   6.544
 2935POPC   C3A40145  30.740  34.529   6.968
 2935POPC   C4A40146  30.467  34.423   7.322
 2935POPC   C1B40147  30.401  34.878   6.187
 2935POPC   C2B40148  30.497  35.044   6.598
 2935POPC   C3B40149  30.340  34.835   6.931
 2935POPC   C4B40150  30.267  34.915   7.315
 2936POPC   NC340151  27.220   7.130   5.467
 2936POPC   PO440152  26.795   7.586   5.205
 2936POPC   GL140153  26.855   7.650   5.674
 2936POPC   GL240154  26.865   7.353   5.855
 2936POPC   C1A40155  26.949   7.777   6.151
 2936POPC   D2A40156  26.847   7.937   6.600
 2936POPC   C3A40157  26.885   7.672   6.997
 2936POPC   C4A40158  26.759   7.312   7.241
 2936POPC   C1B40159  27.110   7.257   6.193
 2936POPC   C2B40160  27.060   7.410   6.598
 2936POPC   C3B40161  27.201   7.232   7.003
 2936POPC   C4B40162  27.181   7.177   7.496
 2937POPC   NC340163  15.491  25.697   5.268
 2937POPC   PO440164  14.906  25.911   5.452
 2937POPC   GL140165  15.042  25.953   5.839
 2937POPC   GL240166  15.400  25.950   5.783
 2937POPC   C1A40167  15.062  25.898   6.261
 2937POPC   D2A40168  15.159  26.106   6.638
 2937POPC   C3A40169  14.854  26.044   6.948
 2937POPC   C4A40170  14.990  26.013   7.372
 2937POPC   C1B40171  15.585  25.805   6.190
 2937POPC   C2B40172  15.625  25.865   6.653
 2937POPC   C3B40173  15.371  25.867   7.036
 2937POPC   C4B40174  15.402  25.506   7.324
 2938POPC   NC340175  14.159  26.981   5.162
 2938POPC   PO440176  14.359  26.358   5.486
 2938POPC   GL140177  14.470  26.638   5.850
 2938POPC   GL240178  14.599  26.973   5.737
 2938POPC   C1A40179  14.490  26.575   6.300
 2938POPC   D2A40180  14.245  26.602   6.655
 2938POPC   C3A40181  14.467  26.647   7.029
 2938POPC   C4A40182  14.133  26.571   7.273
 2938POPC   C1B40183  14.389  27.055   6.163
 2938POPC   C2B40184  14.551  26.992   6.602
 2938POPC   C3B40185  14.493  27.146   7.033
 2938POPC   C4B40186  14.705  27.393   7.228
 2939POPC   NC340187   7.854  10.908   5.406
 2939POPC   PO440188   8.454  11.295   5.477
 2939POPC   GL140189   8.151  11.219   5.782
 2939POPC   GL240190   8.135  10.856   5.834
 2939POPC   C1A40191   8.146  11.285   6.230
 2939POPC   D2A40192   8.344  11.550   6.544
 2939POPC   C3A40193   8.300  11.283   6.878
 2939POPC   C4A40194   8.417  11.276   7.288
 2939POPC   C1B40195   7.849  10.882   6.172
 2939POPC   C2B40196   8.040  10.896   6.600
 2939POPC   C3B40197   7.944  10.936   7.034
 2939POPC   C4B40198   8.040  11.002   7.459
 2940POPC   NC340199  24.716  29.648   5.473
 2940POPC   PO440200  25.420  29.846   5.497
 2940POPC   GL140201  25.180  30.057   5.815
 2940POPC   GL240202  24.852  30.160   5.720
 2940POPC   C1A40203  24.962  29.846   6.147
 2940POPC   D2A40204  25.132  29.972   6.525
 2940POPC   C3A40205  25.057  29.801   6.936
 2940POPC   C4A40206  25.424  29.907   7.219
 2940POPC   C1B40207  24.865  30.345   6.151
 2940POPC   C2B40208  24.745  30.280   6.593
 2940POPC   C3B40209  25.058  30.305   6.921
 2940POPC   C4B40210  25.158  30.330   7.321
 2941POPC   NC340211  30.116  36.035   5.431
 2941POPC   PO440212  29.452  36.120   5.717
 2941POPC   GL140213  29.870  36.243   5.876
 2941POPC   GL240214  30.278  36.311   5.825
 2941POPC   C1A40215  29.734  36.194   6.312
 2941POPC   D2A40216  29.422  36.208   6.612
 2941POPC   C3A40217  29.692  36.226   6.946
 2941POPC   C4A40218  29.710  36.284   7.381
 2941POPC   C1B40219  30.242  36.157   6.228
 2941POPC   C2B40220  30.147  36.307   6.650
 2941POPC   C3B40221  30.200  36.129   7.064
 2941POPC   C4B40222  30.208  36.297   7.484
 2942POPC   NC340223  25.884  10.169   5.388
 2942POPC   PO440224  26.045   9.462   5.370
 2942POPC   GL140225  25.997   9.680   5.768
 2942POPC   GL240226  25.813   9.945   5.870
 2942POPC   C1A40227  26.199   9.646   6.171
 2942POPC   D2A40228  26.172   9.435   6.571
 2942POPC   C3A40229  26.293   9.710   6.916
 2942POPC   C4A40230  26.236   9.581   7.312
 2942POPC   C1B40231  25.718   9.805   6.303
 2942POPC   C2B40232  25.810   9.760   6.759
 2942POPC   C3B40233  25.751   9.745   7.206
 2942POPC   C4B40234  25.962   9.930   7.568
 2943POPC   NC340235  26.552  24.188   5.638
 2943POPC   PO440236  25.978  23.842   5.373
 2943POPC   GL140237  25.975  23.711   5.843
 2943POPC   GL240238  26.332  23.700   5.965
 2943POPC   C1A40239  25.976  23.852   6.302
 2943POPC   D2A40240  26.175  23.836   6.708
 2943POPC   C3A40241  25.874  23.837   7.044
 2943POPC   C4A40242  25.580  23.926   7.385
 2943POPC   C1B40243  26.228  23.399   6.319
 2943POPC   C2B40244  26.210  23.340   6.750
 2943POPC   C3B40245  26.310  23.519   7.130
 2943POPC   C4B40246  26.732  23.435   7.258
 2944POPC   NC340247  35.966  32.459   5.517
 2944POPC   PO440248  36.325  32.943   5.792
 2944POPC   GL140249  36.354  32.482   5.878
 2944POPC   GL240250  36.186  32.112   5.827
 2944POPC   C1A40251  36.339  32.267   6.270
 2944POPC   D2A40252  36.135  32.216   6.635
 2944POPC   C3A40253  36.320  32.178   7.014
 2944POPC   C4A40254  36.250  32.468   7.270
 2944POPC   C1B40255  35.863  32.055   6.155
 2944POPC   C2B40256  35.741  31.918   6.584
 2944POPC   C3B40257  35.955  31.823   6.970
 2944POPC   C4B40258  35.781  31.626   7.326
 2945POPC   NC340259  12.852   1.704   5.432
 2945POPC   PO440260  12.724   2.370   5.321
 2945POPC   GL140261  12.939   2.153   5.689
 2945POPC   GL240262  12.714   1.902   5.877
 2945POPC   C1A40263  13.130   2.080   6.097
 2945POPC   D2A40264  12.905   2.038   6.490
 2945POPC   C3A40265  12.959   2.276   6.856
 2945POPC   C4A40266  12.741   2.194   7.261
 2945POPC   C1B40267  12.912   1.615   6.206
 2945POPC   C2B40268  12.808   1.527   6.639
 2945POPC   C3B40269  12.893   1.776   7.007
 2945POPC   C4B40270  12.967   1.751   7.473
 2946POPC   NC340271  35.253  39.737   5.461
 2946POPC   PO440272  35.609  40.264   5.410
 2946POPC   GL140273  35.402  40.121   5.774
 2946POPC   GL240274  35.626  39.861   5.815
 2946POPC   C1A40275  35.180  40.158   6.169
 2946POPC   D2A40276  35.159  40.355   6.563
 2946POPC   C3A40277  35.292  40.147   6.901
 2946POPC   C4A40278  35.439  40.005   7.297
 2946POPC   C1B40279  35.585  39.657   6.186
 2946POPC   C2B40280  35.447  39.804   6.549
 2946POPC   C3B40281  35.422  39.611   6.948
 2946POPC   C4B40282  35.801  39.545   7.203
 2947POPC   NC340283  22.045   8.430   5.298
 2947POPC   PO440284  22.323   8.050   5.240
 2947POPC   GL140285  22.315   8.220   5.732
 2947POPC   GL240286  22.081   8.510   5.845
 2947POPC   C1A40287  22.264   8.250   6.254
 2947POPC   D2A40288  22.056   8.203   6.706
 2947POPC   C3A40289  22.303   8.165   7.116
 2947POPC   C4A40290  22.277   7.891   7.509
 2947POPC   C1B40291  21.933   8.668   6.296
 2947POPC   C2B40292  21.770   8.636   6.740
 2947POPC   C3B40293  21.998   8.642   7.153
 2947POPC   C4B40294  22.062   8.874   7.577
 2948POPC   NC340295  12.045   3.246   5.514
 2948POPC   PO440296  12.463   3.545   5.068
 2948POPC   GL140297  12.440   3.714   5.609
 2948POPC   GL240298  12.129   3.652   5.792
 2948POPC   C1A40299  12.460   3.717   6.163
 2948POPC   D2A40300  12.632   3.836   6.602
 2948POPC   C3A40301  12.458   3.677   6.999
 2948POPC   C4A40302  12.151   3.847   7.251
 2948POPC   C1B40303  11.984   3.434   6.172
 2948POPC   C2B40304  11.789   3.395   6.594
 2948POPC   C3B40305  11.738   3.568   6.989
 2948POPC   C4B40306  11.917   3.425   7.334
 2949POPC   NC340307  38.089  33.178   5.637
 2949POPC   PO440308  38.720  33.000   5.479
 2949POPC   GL140309  38.769  32.948   5.895
 2949POPC   GL240310  38.412  32.900   5.927
 2949POPC   C1A40311  38.745  32.759   6.303
 2949POPC   D2A40312  38.496  32.653   6.674
 2949POPC   C3A40313  38.500  32.856   7.056
 2949POPC   C4A40314  38.752  32.635   7.339
 2949POPC   C1B40315  38.170  32.882   6.316
 2949POPC   C2B40316  38.082  33.000   6.766
 2949POPC   C3B40317  38.101  33.151   7.198
 2949POPC   C4B40318  38.136  33.327   7.616
 2950POPC   NC340319  31.986  26.555   5.367
 2950POPC   PO440320  32.421  27.015   5.543
 2950POPC   GL140321  32.290  26.745   5.763
 2950POPC   GL240322  32.562  26.512   5.733
 2950POPC   C1A40323  32.106  26.882   6.146
 2950POPC   D2A40324  32.236  27.104   6.496
 2950POPC   C3A40325  32.203  26.927   6.901
 2950POPC   C4A40326  32.227  27.082   7.293
 2950POPC   C1B40327  32.242  26.397   6.110
 2950POPC   C2B40328  32.242  26.547   6.552
 2950POPC   C3B40329  32.277  26.427   7.003
 2950POPC   C4B40330  32.568  26.658   7.221
 2951POPC   NC340331  44.277  18.971   5.414
 2951POPC   PO440332  43.678  19.344   5.336
 2951POPC   GL140333  43.882  19.263   5.720
 2951POPC   GL240334  43.836  18.929   5.754
 2951POPC   C1A40335  43.716  19.192   6.159
 2951POPC   D2A40336  43.602  18.958   6.499
 2951POPC   C3A40337  43.622  19.179   6.893
 2951POPC   C4A40338  43.828  18.961   7.231
 2951POPC   C1B40339  44.146  18.935   6.126
 2951POPC   C2B40340  44.254  19.018   6.589
 2951POPC   C3B40341  44.161  19.282   6.984
 2951POPC   C4B40342  44.232  19.323   7.445
 2952POPC   NC340343   5.102  43.993   5.438
 2952POPC   PO440344   4.656  43.575   5.535
 2952POPC   GL140345   4.985  43.699   5.849
 2952POPC   GL240346   5.292  43.582   5.742
 2952POPC   C1A40347   5.247  43.857   6.229
 2952POPC   D2A40348   5.372  43.851   6.696
 2952POPC   C3A40349   5.065  43.651   7.025
 2952POPC   C4A40350   4.686  43.743   7.324
 2952POPC   C1B40351   5.508  43.436   6.108
 2952POPC   C2B40352   5.702  43.445   6.553
 2952POPC   C3B40353   5.605  43.534   7.010
 2952POPC   C4B40354   5.446  43.861   7.290
 2953POPC   NC340355  44.832  27.217   5.405
 2953POPC   PO440356  44.548  26.557   5.454
 2953POPC   GL140357  44.599  26.771   5.835
 2953POPC   GL240358  44.876  26.660   6.051
 2953POPC   C1A40359  44.513  26.974   6.234
 2953POPC   D2A40360  44.710  26.946   6.621
 2953POPC   C3A40361  44.438  26.866   6.955
 2953POPC   C4A40362  44.567  26.880   7.370
 2953POPC   C1B40363   0.189  26.683   6.335
 2953POPC   C2B40364   0.064  26.572   6.714
 2953POPC   C3B40365   0.011  26.829   7.053
 2953POPC   C4B40366   0.008  26.663   7.456
 2954POPC   NC340367  12.662  13.228   5.541
 2954POPC   PO440368  12.735  12.526   5.371
 2954POPC   GL140369  12.803  12.751   5.755
 2954POPC   GL240370  13.029  13.029   5.854
 2954POPC   C1A40371  12.860  12.620   6.174
 2954POPC   D2A40372  12.601  12.725   6.508
 2954POPC   C3A40373  12.756  12.726   6.916
 2954POPC   C4A40374  13.039  12.724   7.240
 2954POPC   C1B40375  12.790  13.135   6.205
 2954POPC   C2B40376  12.946  13.110   6.609
 2954POPC   C3B40377  12.980  13.180   7.028
 2954POPC   C4B40378  12.594  13.128   7.235
 2955POPC   NC340379  33.353  24.996   5.107
 2955POPC   PO440380  32.781  25.464   5.324
 2955POPC   GL140381  32.907  25.318   5.777
 2955POPC   GL240382  32.797  25.028   5.924
 2955POPC   C1A40383  33.083  25.362   6.193
 2955POPC   D2A40384  32.975  25.169   6.560
 2955POPC   C3A40385  33.075  25.362   6.944
 2955POPC   C4A40386  33.087  25.094   7.290
 2955POPC   C1B40387  32.573  25.157   6.233
 2955POPC   C2B40388  32.460  25.007   6.608
 2955POPC   C3B40389  32.673  25.033   6.980
 2955POPC   C4B40390  32.613  25.285   7.316
 2956POPC   NC340391   9.734  18.171   5.174
 2956POPC   PO440392   9.816  17.488   5.337
 2956POPC   GL140393   9.726  17.476   5.767
 2956POPC   GL240394   9.799  17.149   5.860
 2956POPC   C1A40395   9.687  17.640   6.183
 2956POPC   D2A40396   9.689  17.567   6.632
 2956POPC   C3A40397  10.065  17.516   6.875
 2956POPC   C4A40398   9.905  17.658   7.277
 2956POPC   C1B40399   9.725  17.154   6.329
 2956POPC   C2B40400   9.788  17.063   6.753
 2956POPC   C3B40401   9.804  17.147   7.169
 2956POPC   C4B40402   9.540  17.283   7.470
 2957POPC   NC340403  28.110  19.190   5.395
 2957POPC   PO440404  28.496  18.617   5.512
 2957POPC   GL140405  28.279  18.878   5.861
 2957POPC   GL240406  28.303  19.253   5.871
 2957POPC   C1A40407  28.374  18.987   6.312
 2957POPC   D2A40408  28.453  18.791   6.726
 2957POPC   C3A40409  28.071  18.844   6.923
 2957POPC   C4A40410  28.082  19.197   7.183
 2957POPC   C1B40411  28.245  19.516   6.235
 2957POPC   C2B40412  28.365  19.418   6.645
 2957POPC   C3B40413  28.569  19.320   6.993
 2957POPC   C4B40414  28.720  19.235   7.385
 2958POPC   NC340415  13.633  20.349   5.286
 2958POPC   PO440416  14.132  20.590   5.708
 2958POPC   GL140417  13.666  20.549   5.770
 2958POPC   GL240418  13.491  20.859   5.669
 2958POPC   C1A40419  13.509  20.398   6.173
 2958POPC   D2A40420  13.682  20.336   6.595
 2958POPC   C3A40421  13.474  20.450   7.000
 2958POPC   C4A40422  13.837  20.429   7.302
 2958POPC   C1B40423  13.574  20.907   6.137
 2958POPC   C2B40424  13.866  20.873   6.513
 2958POPC   C3B40425  13.787  20.853   6.973
 2958POPC   C4B40426  13.396  20.918   7.207
 2959POPC   NC340427   7.901   8.261   5.435
 2959POPC   PO440428   8.497   7.849   5.344
 2959POPC   GL140429   8.232   8.075   5.762
 2959POPC   GL240430   7.903   8.158   5.934
 2959POPC   C1A40431   8.300   8.374   6.139
 2959POPC   D2A40432   8.240   8.339   6.586
 2959POPC   C3A40433   7.990   8.515   6.920
 2959POPC   C4A40434   8.038   8.357   7.363
 2959POPC   C1B40435   8.094   7.895   6.248
 2959POPC   C2B40436   8.177   7.834   6.672
 2959POPC   C3B40437   7.964   8.010   7.011
 2959POPC   C4B40438   7.632   8.044   7.359
 2960POPC   NC340439  26.569  36.946   5.433
 2960POPC   PO440440  27.234  36.775   5.359
 2960POPC   GL140441  26.994  36.889   5.759
 2960POPC   GL240442  26.675  36.674   5.849
 2960POPC   C1A40443  26.992  36.975   6.233
 2960POPC   D2A40444  26.701  37.049   6.608
 2960POPC   C3A40445  26.837  37.020   7.051
 2960POPC   C4A40446  26.761  37.093   7.521
 2960POPC   C1B40447  26.778  36.514   6.243
 2960POPC   C2B40448  26.948  36.568   6.646
 2960POPC   C3B40449  26.770  36.505   7.038
 2960POPC   C4B40450  26.488  36.726   7.292
 2961POPC   NC340451  37.062  35.558   5.231
 2961POPC   PO440452  36.559  35.210   5.424
 2961POPC   GL140453  36.653  35.462   5.763
 2961POPC   GL240454  37.000  35.419   5.737
 2961POPC   C1A40455  36.749  35.332   6.217
 2961POPC   D2A40456  36.926  35.129   6.563
 2961POPC   C3A40457  36.784  35.090   6.986
 2961POPC   C4A40458  37.059  35.037   7.324
 2961POPC   C1B40459  37.191  35.570   6.132
 2961POPC   C2B40460  37.039  35.643   6.548
 2961POPC   C3B40461  36.972  35.809   6.955
 2961POPC   C4B40462  37.170  35.720   7.351
 2962POPC   NC340463  18.809   3.489   5.549
 2962POPC   PO440464  19.433   3.811   5.408
 2962POPC   GL140465  19.155   3.751   5.795
 2962POPC   GL240466  19.089   3.374   5.938
 2962POPC   C1A40467  18.864   3.760   6.171
 2962POPC   D2A40468  18.796   3.653   6.618
 2962POPC   C3A40469  19.000   3.497   6.970
 2962POPC   C4A40470  19.072   3.757   7.319
 2962POPC   C1B40471  19.291   3.130   6.212
 2962POPC   C2B40472  19.247   3.211   6.614
 2962POPC   C3B40473  19.500   3.169   6.948
 2962POPC   C4B40474  19.353   3.316   7.306
 2963POPC   NC340475   8.577  10.764   5.537
 2963POPC   PO440476   7.930  10.451   5.585
 2963POPC   GL140477   8.058  10.337   5.926
 2963POPC   GL240478   8.373  10.219   5.879
 2963POPC   C1A40479   8.058  10.445   6.325
 2963POPC   D2A40480   7.837  10.407   6.674
 2963POPC   C3A40481   8.143  10.462   6.948
 2963POPC   C4A40482   8.030  10.512   7.334
 2963POPC   C1B40483   8.531  10.540   6.156
 2963POPC   C2B40484   8.508  10.616   6.584
 2963POPC   C3B40485   8.495  10.823   6.964
 2963POPC   C4B40486   8.460  10.740   7.362
 2964POPC   NC340487   4.790  39.071   5.352
 2964POPC   PO440488   5.313  38.863   5.452
 2964POPC   GL140489   5.152  39.225   5.702
 2964POPC   GL240490   4.900  39.505   5.729
 2964POPC   C1A40491   5.029  39.266   6.162
 2964POPC   D2A40492   4.987  39.396   6.611
 2964POPC   C3A40493   5.171  39.294   7.043
 2964POPC   C4A40494   5.471  39.327   7.416
 2964POPC   C1B40495   4.648  39.697   6.111
 2964POPC   C2B40496   4.651  39.784   6.582
 2964POPC   C3B40497   4.929  39.759   6.968
 2964POPC   C4B40498   5.226  39.877   7.311
 2965POPC   NC340499  24.350  42.054   5.262
 2965POPC   PO440500  24.885  42.473   5.206
 2965POPC   GL140501  24.694  42.298   5.610
 2965POPC   GL240502  24.424  42.499   5.808
 2965POPC   C1A40503  24.766  42.182   6.046
 2965POPC   D2A40504  24.779  42.041   6.474
 2965POPC   C3A40505  24.862  42.370   6.762
 2965POPC   C4A40506  24.618  42.424   7.130
 2965POPC   C1B40507  24.295  42.317   6.255
 2965POPC   C2B40508  24.355  42.207   6.716
 2965POPC   C3B40509  24.120  42.134   7.092
 2965POPC   C4B40510  24.095  42.016   7.559
 2966POPC   NC340511  26.445   9.682   5.521
 2966POPC   PO440512  27.043   9.880   5.420
 2966POPC   GL140513  26.881   9.724   5.834
 2966POPC   GL240514  26.660   9.458   5.914
 2966POPC   C1A40515  26.682   9.807   6.265
 2966POPC   D2A40516  26.526  10.083   6.582
 2966POPC   C3A40517  26.733  10.006   6.972
 2966POPC   C4A40518  26.777   9.660   7.185
 2966POPC   C1B40519  26.594   9.316   6.305
 2966POPC   C2B40520  26.684   9.467   6.699
 2966POPC   C3B40521  26.526   9.244   7.054
 2966POPC   C4B40522  26.567   9.230   7.521
 2967POPC   NC340523  23.959   9.553   5.383
 2967POPC   PO440524  23.534   9.971   5.308
 2967POPC   GL140525  23.629   9.842   5.741
 2967POPC   GL240526  23.992   9.836   5.809
 2967POPC   C1A40527  23.566   9.798   6.204
 2967POPC   D2A40528  23.755   9.849   6.643
 2967POPC   C3A40529  23.677   9.699   7.091
 2967POPC   C4A40530  23.877   9.396   7.418
 2967POPC   C1B40531  23.978  10.099   6.179
 2967POPC   C2B40532  24.028  10.269   6.593
 2967POPC   C3B40533  24.006  10.105   7.028
 2967POPC   C4B40534  23.992  10.030   7.456
 2968POPC   NC340535  13.185  18.893   5.508
 2968POPC   PO440536  12.602  19.230   5.334
 2968POPC   GL140537  12.679  19.199   5.774
 2968POPC   GL240538  12.974  19.331   5.710
 2968POPC   C1A40539  12.677  18.891   6.142
 2968POPC   D2A40540  12.541  18.938   6.610
 2968POPC   C3A40541  12.915  19.057   6.883
 2968POPC   C4A40542  13.083  18.811   7.224
 2968POPC   C1B40543  13.056  19.438   6.105
 2968POPC   C2B40544  12.819  19.301   6.424
 2968POPC   C3B40545  12.546  19.429   6.754
 2968POPC   C4B40546  12.829  19.538   7.075
 2969POPC   NC340547  18.403   9.303   5.214
 2969POPC   PO440548  18.455   9.989   5.109
 2969POPC   GL140549  18.435   9.945   5.624
 2969POPC   GL240550  18.298   9.581   5.715
 2969POPC   C1A40551  18.470   9.903   6.122
 2969POPC   D2A40552  18.346   9.940   6.596
 2969POPC   C3A40553  18.451   9.772   6.974
 2969POPC   C4A40554  18.716   9.776   7.271
 2969POPC   C1B40555  18.112   9.499   6.129
 2969POPC   C2B40556  18.220   9.441   6.557
 2969POPC   C3B40557  18.274   9.272   6.983
 2969POPC   C4B40558  18.379   9.388   7.400
 2970POPC   NC340559  37.322   6.764   5.432
 2970POPC   PO440560  37.846   6.318   5.352
 2970POPC   GL140561  37.716   6.457   5.741
 2970POPC   GL240562  37.672   6.848   5.783
 2970POPC   C1A40563  37.897   6.574   6.142
 2970POPC   D2A40564  37.914   6.808   6.527
 2970POPC   C3A40565  37.958   6.496   6.852
 2970POPC   C4A40566  37.689   6.447   7.185
 2970POPC   C1B40567  37.481   6.923   6.205
 2970POPC   C2B40568  37.501   7.122   6.626
 2970POPC   C3B40569  37.582   6.973   7.063
 2970POPC   C4B40570  37.385   7.032   7.478
 2971POPC   NC340571   8.099  23.535   5.519
 2971POPC   PO440572   8.736  23.438   5.570
 2971POPC   GL140573   8.460  23.620   5.889
 2971POPC   GL240574   8.206  23.883   5.883
 2971POPC   C1A40575   8.324  23.647   6.323
 2971POPC   D2A40576   8.186  23.667   6.728
 2971POPC   C3A40577   8.469  23.817   7.030
 2971POPC   C4A40578   8.372  23.722   7.446
 2971POPC   C1B40579   8.049  24.065   6.275
 2971POPC   C2B40580   7.821  24.004   6.651
 2971POPC   C3B40581   7.967  23.954   7.089
 2971POPC   C4B40582   7.875  23.819   7.495
 2972POPC   NC340583  31.257   8.475   5.324
 2972POPC   PO440584  31.709   7.921   5.534
 2972POPC   GL140585  31.573   8.228   5.822
 2972POPC   GL240586  31.828   8.496   5.807
 2972POPC   C1A40587  31.575   8.132   6.274
 2972POPC   D2A40588  31.363   8.194   6.676
 2972POPC   C3A40589  31.435   8.005   7.091
 2972POPC   C4A40590  31.125   7.989   7.439
 2972POPC   C1B40591  31.945   8.480   6.258
 2972POPC   C2B40592  31.888   8.248   6.670
 2972POPC   C3B40593  31.754   8.412   7.072
 2972POPC   C4B40594  31.421   8.423   7.397
 2973POPC   NC340595  31.022  42.838   5.665
 2973POPC   PO440596  31.018  42.172   5.477
 2973POPC   GL140597  30.893  42.354   5.865
 2973POPC   GL240598  30.547  42.471   5.958
 2973POPC   C1A40599  30.821  42.184   6.284
 2973POPC   D2A40600  30.708  42.385   6.662
 2973POPC   C3A40601  30.803  42.158   6.990
 2973POPC   C4A40602  30.462  42.082   7.203
 2973POPC   C1B40603  30.857  42.708   6.271
 2973POPC   C2B40604  31.104  42.707   6.678
 2973POPC   C3B40605  30.872  42.742   7.062
 2973POPC   C4B40606  30.428  42.576   7.130
 2974POPC   NC340607  23.119  37.003   5.477
 2974POPC   PO440608  22.771  36.520   5.546
 2974POPC   GL140609  22.772  36.856   5.839
 2974POPC   GL240610  22.560  37.153   5.709
 2974POPC   C1A40611  23.000  36.900   6.229
 2974POPC   D2A40612  23.266  36.934   6.590
 2974POPC   C3A40613  23.023  37.003   6.940
 2974POPC   C4A40614  22.694  36.794   7.125
 2974POPC   C1B40615  22.612  37.240   6.155
 2974POPC   C2B40616  22.637  37.063   6.588
 2974POPC   C3B40617  22.600  37.284   6.982
 2974POPC   C4B40618  22.305  37.407   7.285
 2975POPC   NC340619  32.150   8.068   5.492
 2975POPC   PO440620  32.757   8.026   5.640
 2975POPC   GL140621  32.498   7.977   5.925
 2975POPC   GL240622  32.313   8.299   5.932
 2975POPC   C1A40623  32.557   8.093   6.334
 2975POPC   D2A40624  32.361   8.390   6.565
 2975POPC   C3A40625  32.476   8.499   6.976
 2975POPC   C4A40626  32.355   8.322   7.362
 2975POPC   C1B40627  32.071   7.980   6.195
 2975POPC   C2B40628  32.215   7.780   6.580
 2975POPC   C3B40629  32.257   7.960   6.998
 2975POPC   C4B40630  31.938   7.964   7.329
 2976POPC   NC340631  18.825  24.276   5.546
 2976POPC   PO440632  19.267  24.860   5.428
 2976POPC   GL140633  19.085  24.647   5.854
 2976POPC   GL240634  18.748  24.508   5.979
 2976POPC   C1A40635  19.053  24.625   6.352
 2976POPC   D2A40636  19.039  24.339   6.736
 2976POPC   C3A40637  19.270  24.500   7.108
 2976POPC   C4A40638  19.370  24.786   7.477
 2976POPC   C1B40639  18.494  24.220   6.262
 2976POPC   C2B40640  18.533  23.994   6.632
 2976POPC   C3B40641  18.575  24.138   7.026
 2976POPC   C4B40642  18.774  24.463   7.170
 2977POPC   NC340643  17.138  10.033   5.216
 2977POPC   PO440644  17.125   9.348   5.383
 2977POPC   GL140645  17.427   9.559   5.706
 2977POPC   GL240646  17.780   9.711   5.674
 2977POPC   C1A40647  17.551   9.602   6.140
 2977POPC   D2A40648  17.346   9.891   6.466
 2977POPC   C3A40649  17.542   9.961   6.852
 2977POPC   C4A40650  17.562   9.751   7.248
 2977POPC   C1B40651  17.921   9.955   6.041
 2977POPC   C2B40652  17.869   9.821   6.484
 2977POPC   C3B40653  17.955   9.681   6.926
 2977POPC   C4B40654  18.075   9.797   7.365
 2978POPC   NC340655   0.289  41.027   5.292
 2978POPC   PO440656   0.366  40.404   5.453
 2978POPC   GL140657   0.644  40.702   5.664
 2978POPC   GL240658   0.473  41.004   5.750
 2978POPC   C1A40659   0.830  40.824   6.076
 2978POPC   D2A40660   0.929  40.711   6.502
 2978POPC   C3A40661   0.694  40.893   6.848
 2978POPC   C4A40662   0.707  40.722   7.230
 2978POPC   C1B40663   0.308  40.761   6.058
 2978POPC   C2B40664   0.358  40.801   6.482
 2978POPC   C3B40665   0.197  40.753   6.918
 2978POPC   C4B40666   0.274  40.451   7.244
 2979POPC   NC340667  22.700  23.233   5.440
 2979POPC   PO440668  23.184  23.719   5.501
 2979POPC   GL140669  23.003  23.490   5.785
 2979POPC   GL240670  22.683  23.655   5.717
 2979POPC   C1A40671  22.942  23.613   6.193
 2979POPC   D2A40672  23.043  23.389   6.539
 2979POPC   C3A40673  23.239  23.536   6.884
 2979POPC   C4A40674  23.082  23.754   7.217
 2979POPC   C1B40675  22.450  23.486   6.051
 2979POPC   C2B40676  22.539  23.492   6.478
 2979POPC   C3B40677  22.741  23.767   6.783
 2979POPC   C4B40678  22.578  23.799   7.198
 2980POPC   NC340679   8.412  18.938   5.443
 2980POPC   PO440680   7.796  19.111   5.433
 2980POPC   GL140681   8.083  19.083   5.810
 2980POPC   GL240682   8.446  19.273   5.829
 2980POPC   C1A40683   7.928  18.918   6.218
 2980POPC   D2A40684   8.042  19.036   6.617
 2980POPC   C3A40685   7.866  18.993   7.031
 2980POPC   C4A40686   8.150  19.266   7.218
 2980POPC   C1B40687   8.447  18.944   6.159
 2980POPC   C2B40688   8.527  18.829   6.607
 2980POPC   C3B40689   8.371  18.806   7.042
 2980POPC   C4B40690   8.586  18.776   7.444
 2981POPC   NC340691  31.242  36.205   5.412
 2981POPC   PO440692  30.595  36.215   5.393
 2981POPC   GL140693  30.814  36.083   5.734
 2981POPC   GL240694  30.693  35.738   5.729
 2981POPC   C1A40695  30.746  36.265   6.149
 2981POPC   D2A40696  30.629  36.093   6.549
 2981POPC   C3A40697  30.631  36.372   6.880
 2981POPC   C4A40698  30.681  36.241   7.292
 2981POPC   C1B40699  30.872  35.748   6.163
 2981POPC   C2B40700  31.053  35.815   6.582
 2981POPC   C3B40701  30.898  35.851   6.989
 2981POPC   C4B40702  31.061  35.904   7.400
 2982POPC   NC340703  15.063  36.126   5.433
 2982POPC   PO440704  15.668  35.940   5.323
 2982POPC   GL140705  15.443  35.960   5.756
 2982POPC   GL240706  15.428  36.294   5.800
 2982POPC   C1A40707  15.067  36.072   6.098
 2982POPC   D2A40708  14.965  36.279   6.500
 2982POPC   C3A40709  14.891  36.047   6.872
 2982POPC   C4A40710  14.973  36.080   7.267
 2982POPC   C1B40711  15.526  36.143   6.239
 2982POPC   C2B40712  15.420  36.024   6.660
 2982POPC   C3B40713  15.429  35.979   7.090
 2982POPC   C4B40714  15.406  36.287   7.439
 2983POPC   NC340715  22.400  28.158   5.356
 2983POPC   PO440716  21.902  28.577   5.486
 2983POPC   GL140717  22.147  28.371   5.781
 2983POPC   GL240718  22.496  28.509   5.738
 2983POPC   C1A40719  22.017  28.271   6.188
 2983POPC   D2A40720  22.197  28.228   6.574
 2983POPC   C3A40721  21.962  28.300   6.952
 2983POPC   C4A40722  22.192  28.161   7.291
 2983POPC   C1B40723  22.473  28.516   6.184
 2983POPC   C2B40724  22.423  28.696   6.599
 2983POPC   C3B40725  22.454  28.479   6.983
 2983POPC   C4B40726  22.733  28.329   7.325
 2984POPC   NC340727   4.570  14.656   5.272
 2984POPC   PO440728   4.168  14.116   5.432
 2984POPC   GL140729   4.373  14.323   5.805
 2984POPC   GL240730   4.482  14.685   5.783
 2984POPC   C1A40731   4.313  14.274   6.265
 2984POPC   D2A40732   4.344  14.066   6.683
 2984POPC   C3A40733   4.224  14.174   7.121
 2984POPC   C4A40734   4.498  14.339   7.455
 2984POPC   C1B40735   4.695  14.617   6.176
 2984POPC   C2B40736   4.700  14.435   6.612
 2984POPC   C3B40737   4.474  14.608   6.990
 2984POPC   C4B40738   4.634  14.833   7.357
 2985POPC   NC340739  27.909  17.745   5.503
 2985POPC   PO440740  28.603  17.838   5.297
 2985POPC   GL140741  28.504  17.560   5.665
 2985POPC   GL240742  28.252  17.717   5.876
 2985POPC   C1A40743  28.540  17.347   6.096
 2985POPC   D2A40744  28.558  17.599   6.521
 2985POPC   C3A40745  28.647  17.330   6.901
 2985POPC   C4A40746  28.555  17.424   7.343
 2985POPC   C1B40747  28.039  17.380   6.091
 2985POPC   C2B40748  28.224  17.227   6.502
 2985POPC   C3B40749  28.148  17.439   6.890
 2985POPC   C4B40750  28.059  17.553   7.302
 2986POPC   NC340751   9.293  10.515   5.485
 2986POPC   PO440752   8.582  10.306   5.412
 2986POPC   GL140753   8.880  10.410   5.776
 2986POPC   GL240754   9.172  10.178   5.849
 2986POPC   C1A40755   9.074  10.566   6.176
 2986POPC   D2A40756   9.072  10.839   6.543
 2986POPC   C3A40757   8.987  10.664   6.926
 2986POPC   C4A40758   8.883  10.476   7.309
 2986POPC   C1B40759   9.322  10.103   6.259
 2986POPC   C2B40760   9.427  10.393   6.585
 2986POPC   C3B40761   9.409  10.370   7.024
 2986POPC   C4B40762   9.212  10.114   7.329
 2987POPC   NC340763  32.670   6.619   5.372
 2987POPC   PO440764  33.042   7.070   5.564
 2987POPC   GL140765  32.912   6.731   5.825
 2987POPC   GL240766  32.607   6.535   5.894
 2987POPC   C1A40767  33.028   6.607   6.216
 2987POPC   D2A40768  33.246   6.636   6.568
 2987POPC   C3A40769  32.992   6.615   6.952
 2987POPC   C4A40770  32.753   6.611   7.339
 2987POPC   C1B40771  32.640   6.295   6.277
 2987POPC   C2B40772  32.923   6.179   6.605
 2987POPC   C3B40773  33.321   6.206   6.830
 2987POPC   C4B40774  33.289   6.295   7.243
 2988POPC   NC340775  37.249  11.475   5.406
 2988POPC   PO440776  37.675  11.040   5.020
 2988POPC   GL140777  37.715  11.211   5.538
 2988POPC   GL240778  37.796  10.940   5.807
 2988POPC   C1A40779  37.558  11.332   6.015
 2988POPC   D2A40780  37.452  11.344   6.488
 2988POPC   C3A40781  37.772  11.260   6.802
 2988POPC   C4A40782  37.759  11.418   7.238
 2988POPC   C1B40783  37.749  10.932   6.279
 2988POPC   C2B40784  37.481  10.844   6.634
 2988POPC   C3B40785  37.407  10.988   7.076
 2988POPC   C4B40786  37.526  11.026   7.527
 2989POPC   NC340787   5.941  31.776   5.167
 2989POPC   PO440788   5.801  32.327   5.335
 2989POPC   GL140789   5.927  32.188   5.761
 2989POPC   GL240790   5.999  32.507   5.900
 2989POPC   C1A40791   5.836  32.068   6.220
 2989POPC   D2A40792   5.794  32.308   6.645
 2989POPC   C3A40793   5.741  32.060   7.061
 2989POPC   C4A40794   5.515  32.114   7.456
 2989POPC   C1B40795   6.102  32.822   6.230
 2989POPC   C2B40796   6.235  32.706   6.652
 2989POPC   C3B40797   6.078  32.493   7.033
 2989POPC   C4B40798   5.720  32.555   7.297
 2990POPC   NC340799  13.756  26.364   5.631
 2990POPC   PO440800  13.651  27.050   5.341
 2990POPC   GL140801  13.855  26.871   5.740
 2990POPC   GL240802  13.559  26.837   5.950
 2990POPC   C1A40803  13.995  26.686   6.186
 2990POPC   D2A40804  13.720  26.781   6.560
 2990POPC   C3A40805  13.720  26.650   6.988
 2990POPC   C4A40806  13.649  26.559   7.430
 2990POPC   C1B40807  13.796  27.148   6.214
 2990POPC   C2B40808  14.064  27.229   6.538
 2990POPC   C3B40809  14.040  27.021   6.896
 2990POPC   C4B40810  13.937  27.041   7.307
 2991POPC   NC340811  29.416  17.827   5.272
 2991POPC   PO440812  29.148  17.164   5.304
 2991POPC   GL140813  29.004  17.411   5.684
 2991POPC   GL240814  29.021  17.776   5.627
 2991POPC   C1A40815  28.934  17.639   6.111
 2991POPC   D2A40816  29.038  17.407   6.475
 2991POPC   C3A40817  29.093  17.610   6.856
 2991POPC   C4A40818  29.070  17.335   7.219
 2991POPC   C1B40819  29.389  17.683   5.930
 2991POPC   C2B40820  29.456  17.727   6.418
 2991POPC   C3B40821  29.658  17.861   6.829
 2991POPC   C4B40822  29.487  17.653   7.182
 2992POPC   NC340823   2.645  12.861   5.171
 2992POPC   PO440824   2.532  13.466   5.475
 2992POPC   GL140825   2.499  13.722   5.804
 2992POPC   GL240826   2.515  14.063   5.714
 2992POPC   C1A40827   2.785  13.707   6.139
 2992POPC   D2A40828   3.096  13.748   6.439
 2992POPC   C3A40829   2.966  13.633   6.837
 2992POPC   C4A40830   3.067  13.369   7.188
 2992POPC   C1B40831   2.659  14.204   6.102
 2992POPC   C2B40832   2.803  14.160   6.535
 2992POPC   C3B40833   2.723  14.121   6.975
 2992POPC   C4B40834   2.823  13.822   7.304
 2993POPC   NC340835  43.906  13.282   5.491
 2993POPC   PO440836  43.524  13.767   5.372
 2993POPC   GL140837  43.819  13.820   5.708
 2993POPC   GL240838  43.803  13.519   5.925
 2993POPC   C1A40839  44.141  13.872   6.055
 2993POPC   D2A40840  44.073  13.541   6.396
 2993POPC   C3A40841  44.128  13.601   6.848
 2993POPC   C4A40842  44.241  13.402   7.238
 2993POPC   C1B40843  43.661  13.831   6.197
 2993POPC   C2B40844  43.768  13.902   6.603
 2993POPC   C3B40845  43.676  13.794   7.012
 2993POPC   C4B40846  43.936  13.800   7.344
 2994POPC   NC340847  16.321  37.169   5.350
 2994POPC   PO440848  16.003  37.797   5.413
 2994POPC   GL140849  16.252  37.546   5.705
 2994POPC   GL240850  16.067  37.264   5.830
 2994POPC   C1A40851  16.218  37.697   6.121
 2994POPC   D2A40852  16.123  37.623   6.538
 2994POPC   C3A40853  16.198  37.849   6.924
 2994POPC   C4A40854  16.003  37.744   7.312
 2994POPC   C1B40855  15.720  37.392   6.106
 2994POPC   C2B40856  15.626  37.597   6.502
 2994POPC   C3B40857  15.755  37.531   6.909
 2994POPC   C4B40858  15.628  37.378   7.311
 2995POPC   NC340859  23.705  32.340   5.378
 2995POPC   PO440860  24.129  31.936   5.642
 2995POPC   GL140861  23.868  32.293   5.860
 2995POPC   GL240862  23.477  32.276   5.829
 2995POPC   C1A40863  23.868  32.436   6.292
 2995POPC   D2A40864  24.131  32.127   6.534
 2995POPC   C3A40865  23.945  32.031   6.916
 2995POPC   C4A40866  23.802  32.310   7.195
 2995POPC   C1B40867  23.543  32.035   6.209
 2995POPC   C2B40868  23.499  32.135   6.653
 2995POPC   C3B40869  23.366  32.047   7.076
 2995POPC   C4B40870  23.190  31.907   7.472
 2996POPC   NC340871   0.746  42.589   5.487
 2996POPC   PO440872   0.728  41.979   5.798
 2996POPC   GL140873   0.329  42.155   5.975
 2996POPC   GL240874   0.340  42.481   5.823
 2996POPC   C1A40875   0.354  42.331   6.400
 2996POPC   D2A40876   0.706  42.319   6.709
 2996POPC   C3A40877   0.610  42.016   7.038
 2996POPC   C4A40878   0.413  42.074   7.415
 2996POPC   C1B40879   0.146  42.760   6.139
 2996POPC   C2B40880   0.191  42.775   6.598
 2996POPC   C3B40881   0.384  42.626   6.951
 2996POPC   C4B40882   0.236  42.567   7.374
 2997POPC   NC340883  40.495  20.248   5.473
 2997POPC   PO440884  41.171  20.505   5.443
 2997POPC   GL140885  40.855  20.576   5.742
 2997POPC   GL240886  40.971  20.906   5.737
 2997POPC   C1A40887  40.788  20.395   6.161
 2997POPC   D2A40888  40.622  20.216   6.547
 2997POPC   C3A40889  40.783  20.488   6.856
 2997POPC   C4A40890  40.650  20.604   7.250
 2997POPC   C1B40891  40.908  20.925   6.184
 2997POPC   C2B40892  40.677  20.948   6.585
 2997POPC   C3B40893  40.759  21.061   7.024
 2997POPC   C4B40894  40.910  21.005   7.444
 2998POPC   NC340895   4.321  17.163   5.482
 2998POPC   PO440896   4.226  17.856   5.498
 2998POPC   GL140897   4.165  17.627   5.858
 2998POPC   GL240898   4.476  17.448   5.911
 2998POPC   C1A40899   4.249  17.730   6.300
 2998POPC   D2A40900   4.051  17.671   6.706
 2998POPC   C3A40901   4.342  17.726   7.046
 2998POPC   C4A40902   4.699  17.475   7.163
 2998POPC   C1B40903   4.304  17.215   6.237
 2998POPC   C2B40904   4.357  17.257   6.677
 2998POPC   C3B40905   4.176  17.252   7.064
 2998POPC   C4B40906   4.434  17.062   7.363
 2999POPC   NC340907   6.458  10.919   5.702
 2999POPC   PO440908   6.934  10.468   5.495
 2999POPC   GL140909   6.766  10.405   5.960
 2999POPC   GL240910   6.757  10.070   6.043
 2999POPC   C1A40911   6.526  10.387   6.380
 2999POPC   D2A40912   6.634  10.663   6.710
 2999POPC   C3A40913   6.554  10.549   7.124
 2999POPC   C4A40914   6.307  10.853   7.394
 2999POPC   C1B40915   6.982  10.169   6.393
 2999POPC   C2B40916   6.836  10.189   6.803
 2999POPC   C3B40917   6.932  10.208   7.205
 2999POPC   C4B40918   6.783  10.198   7.631
 3000POPC   NC340919  16.818   0.443   5.437
 3000POPC   PO440920  16.347  44.897   5.609
 3000POPC   GL140921  16.563   0.215   5.791
 3000POPC   GL240922  16.886   0.139   5.855
 3000POPC   C1A40923  16.619   0.593   6.074
 3000POPC   D2A40924  16.532   0.531   6.531
 3000POPC   C3A40925  16.633   0.798   6.880
 3000POPC   C4A40926  16.736   0.760   7.302
 3000POPC   C1B40927  16.688   0.119   6.256
 3000POPC   C2B40928  16.752   0.058   6.638
 3000POPC   C3B40929  16.655   0.255   7.004
 3000POPC   C4B40930  17.023   0.354   7.223
 3001POPC   NC340931  39.418  27.534   5.389
 3001POPC   PO440932  39.010  27.968   5.225
 3001POPC   GL140933  38.956  27.620   5.629
 3001POPC   GL240934  39.248  27.687   5.875
 3001POPC   C1A40935  38.845  27.503   6.117
 3001POPC   D2A40936  38.803  27.376   6.582
 3001POPC   C3A40937  39.174  27.373   6.857
 3001POPC   C4A40938  39.156  27.529   7.299
 3001POPC   C1B40939  39.416  27.466   6.271
 3001POPC   C2B40940  39.692  27.630   6.612
 3001POPC   C3B40941  39.535  27.727   7.003
 3001POPC   C4B40942  39.659  27.546   7.408
 3002POPC   NC340943  43.564   3.150   5.578
 3002POPC   PO440944  43.850   3.614   5.120
 3002POPC   GL140945  43.835   3.585   5.599
 3002POPC   GL240946  44.179   3.584   5.721
 3002POPC   C1A40947  43.815   3.745   6.039
 3002POPC   D2A40948  43.798   3.933   6.446
 3002POPC   C3A40949  43.706   3.644   6.778
 3002POPC   C4A40950  43.745   3.674   7.234
 3002POPC   C1B40951  44.153   3.337   6.105
 3002POPC   C2B40952  44.058   3.322   6.539
 3002POPC   C3B40953  44.105   3.345   6.984
 3002POPC   C4B40954  44.278   3.681   7.225
 3003POPC   NC340955  26.587   3.897   5.698
 3003POPC   PO440956  26.777   4.268   5.200
 3003POPC   GL140957  26.939   4.546   5.674
 3003POPC   GL240958  26.678   4.382   5.907
 3003POPC   C1A40959  27.105   4.557   6.171
 3003POPC   D2A40960  27.111   4.408   6.623
 3003POPC   C3A40961  26.846   4.608   6.913
 3003POPC   C4A40962  26.489   4.577   7.225
 3003POPC   C1B40963  26.795   4.153   6.282
 3003POPC   C2B40964  26.644   4.174   6.696
 3003POPC   C3B40965  26.577   4.061   7.101
 3003POPC   C4B40966  26.519   4.146   7.503
 3004POPC   NC340967  32.061  18.160   5.351
 3004POPC   PO440968  32.653  18.407   5.385
 3004POPC   GL140969  32.464  18.172   5.747
 3004POPC   GL240970  32.106  18.159   5.851
 3004POPC   C1A40971  32.528  18.281   6.186
 3004POPC   D2A40972  32.320  18.199   6.549
 3004POPC   C3A40973  32.505  18.174   6.921
 3004POPC   C4A40974  32.300  18.175   7.297
 3004POPC   C1B40975  31.900  18.162   6.248
 3004POPC   C2B40976  31.916  18.509   6.543
 3004POPC   C3B40977  32.022  18.421   6.940
 3004POPC   C4B40978  31.791  18.196   7.224
 3005POPC   NC340979   2.494   6.778   5.440
 3005POPC   PO440980   2.971   6.278   5.361
 3005POPC   GL140981   2.819   6.558   5.754
 3005POPC   GL240982   2.906   6.934   5.731
 3005POPC   C1A40983   2.689   6.432   6.195
 3005POPC   D2A40984   2.844   6.569   6.600
 3005POPC   C3A40985   2.711   6.397   6.975
 3005POPC   C4A40986   2.731   6.601   7.385
 3005POPC   C1B40987   2.895   6.899   6.181
 3005POPC   C2B40988   2.839   7.082   6.596
 3005POPC   C3B40989   2.852   6.908   6.988
 3005POPC   C4B40990   3.196   6.623   7.106
 3006POPC   NC340991   8.038   1.824   5.509
 3006POPC   PO440992   8.469   2.356   5.712
 3006POPC   GL140993   8.219   2.403   6.028
 3006POPC   GL240994   8.056   2.126   5.925
 3006POPC   C1A40995   8.170   2.211   6.434
 3006POPC   D2A40996   8.316   1.811   6.626
 3006POPC   C3A40997   8.472   1.756   7.008
 3006POPC   C4A40998   8.341   1.843   7.418
 3006POPC   C1B40999   8.020   1.767   6.178
 3006POPC   C2B41000   7.833   1.706   6.592
 3006POPC   C3B41001   7.953   1.885   7.006
 3006POPC   C4B41002   7.859   1.680   7.380
 3007POPC   NC341003  16.266  40.337   5.386
 3007POPC   PO441004  16.065  39.622   5.346
 3007POPC   GL141005  16.010  39.711   5.790
 3007POPC   GL241006  16.306  39.635   5.849
 3007POPC   C1A41007  15.971  39.584   6.243
 3007POPC   D2A41008  16.134  39.681   6.651
 3007POPC   C3A41009  15.889  39.922   6.949
 3007POPC   C4A41010  15.959  40.265   7.259
 3007POPC   C1B41011  16.193  40.020   6.173
 3007POPC   C2B41012  16.201  40.271   6.563
 3007POPC   C3B41013  16.348  40.192   6.959
 3007POPC   C4B41014  16.319  39.819   7.237
 3008POPC   NC341015  32.409  31.047   5.539
 3008POPC   PO441016  32.116  30.428   5.266
 3008POPC   GL141017  32.100  30.592   5.753
 3008POPC   GL241018  32.358  30.788   6.001
 3008POPC   C1A41019  32.075  30.402   6.181
 3008POPC   D2A41020  32.223  30.638   6.556
 3008POPC   C3A41021  32.003  30.414   6.892
 3008POPC   C4A41022  32.092  30.160   7.217
 3008POPC   C1B41023  31.951  30.905   6.176
 3008POPC   C2B41024  31.742  30.792   6.584
 3008POPC   C3B41025  31.984  30.911   6.939
 3008POPC   C4B41026  32.370  30.690   7.143
 3009POPC   NC341027  37.562  34.125   5.531
 3009POPC   PO441028  37.826  33.423   5.338
 3009POPC   GL141029  37.763  33.600   5.734
 3009POPC   GL241030  38.013  33.896   5.710
 3009POPC   C1A41031  37.524  33.696   6.118
 3009POPC   D2A41032  37.483  33.972   6.466
 3009POPC   C3A41033  37.519  33.847   6.889
 3009POPC   C4A41034  37.398  33.732   7.298
 3009POPC   C1B41035  38.079  33.716   6.120
 3009POPC   C2B41036  37.998  33.838   6.538
 3009POPC   C3B41037  38.015  33.993   6.965
 3009POPC   C4B41038  37.942  33.682   7.271
 3010POPC   NC341039  27.144  12.873   5.389
 3010POPC   PO441040  27.802  12.929   5.216
 3010POPC   GL141041  27.554  12.972   5.686
 3010POPC   GL241042  27.274  12.716   5.856
 3010POPC   C1A41043  27.656  12.861   6.144
 3010POPC   D2A41044  27.433  12.946   6.537
 3010POPC   C3A41045  27.558  13.027   6.962
 3010POPC   C4A41046  27.552  13.097   7.415
 3010POPC   C1B41047  27.106  12.617   6.311
 3010POPC   C2B41048  27.146  12.626   6.809
 3010POPC   C3B41049  27.345  12.656   7.228
 3010POPC   C4B41050  27.296  12.720   7.651
 3011POPC   NC341051  21.591   9.493   5.290
 3011POPC   PO441052  21.016   9.935   5.463
 3011POPC   GL141053  21.247   9.799   5.801
 3011POPC   GL241054  21.390   9.484   5.773
 3011POPC   C1A41055  21.207   9.928   6.218
 3011POPC   D2A41056  21.425  10.047   6.577
 3011POPC   C3A41057  21.216   9.923   6.964
 3011POPC   C4A41058  21.587   9.966   7.208
 3011POPC   C1B41059  21.186   9.406   6.172
 3011POPC   C2B41060  21.239   9.550   6.588
 3011POPC   C3B41061  21.580   9.591   6.866
 3011POPC   C4B41062  21.479   9.398   7.250
 3012POPC   NC341063   2.133  20.124   5.340
 3012POPC   PO441064   1.683  19.641   5.417
 3012POPC   GL141065   1.787  19.786   5.752
 3012POPC   GL241066   1.692  20.104   5.684
 3012POPC   C1A41067   2.022  19.712   6.101
 3012POPC   D2A41068   1.893  19.830   6.490
 3012POPC   C3A41069   2.009  19.620   6.851
 3012POPC   C4A41070   2.150  19.901   7.155
 3012POPC   C1B41071   1.578  20.067   6.120
 3012POPC   C2B41072   1.633  20.272   6.501
 3012POPC   C3B41073   1.733  20.091   6.910
 3012POPC   C4B41074   1.620  20.079   7.337
 3013POPC   NC341075  13.971  21.003   5.574
 3013POPC   PO441076  14.584  21.421   5.542
 3013POPC   GL141077  14.296  21.295   5.889
 3013POPC   GL241078  14.132  21.576   5.854
 3013POPC   C1A41079  14.227  21.256   6.374
 3013POPC   D2A41080  14.532  21.397   6.727
 3013POPC   C3A41081  14.435  21.222   7.151
 3013POPC   C4A41082  14.591  20.955   7.489
 3013POPC   C1B41083  14.376  21.709   6.195
 3013POPC   C2B41084  14.165  21.743   6.589
 3013POPC   C3B41085  14.188  21.660   7.021
 3013POPC   C4B41086  14.261  21.652   7.432
 3014POPC   NC341087  38.040  22.307   5.312
 3014POPC   PO441088  37.606  21.951   5.597
 3014POPC   GL141089  37.779  22.321   5.769
 3014POPC   GL241090  38.133  22.343   5.819
 3014POPC   C1A41091  37.752  22.519   6.171
 3014POPC   D2A41092  37.482  22.459   6.536
 3014POPC   C3A41093  37.584  22.355   6.956
 3014POPC   C4A41094  37.365  22.010   7.110
 3014POPC   C1B41095  37.978  22.044   6.175
 3014POPC   C2B41096  37.850  22.013   6.625
 3014POPC   C3B41097  37.873  21.940   7.075
 3014POPC   C4B41098  37.701  22.062   7.485
 3015POPC   NC341099   7.261   8.436   5.302
 3015POPC   PO441100   7.679   7.910   5.225
 3015POPC   GL141101   7.432   8.136   5.655
 3015POPC   GL241102   7.522   8.454   5.784
 3015POPC   C1A41103   7.420   8.108   6.156
 3015POPC   D2A41104   7.711   8.175   6.529
 3015POPC   C3A41105   7.446   8.099   6.897
 3015POPC   C4A41106   7.232   7.781   7.177
 3015POPC   C1B41107   7.479   8.605   6.230
 3015POPC   C2B41108   7.217   8.471   6.595
 3015POPC   C3B41109   7.174   8.557   7.052
 3015POPC   C4B41110   7.566   8.517   7.231
 3016POPC   NC341111   5.538  20.384   5.260
 3016POPC   PO441112   5.918  20.836   5.587
 3016POPC   GL141113   5.793  20.497   5.869
 3016POPC   GL241114   5.488  20.285   5.775
 3016POPC   C1A41115   5.702  20.606   6.296
 3016POPC   D2A41116   5.872  20.990   6.516
 3016POPC   C3A41117   5.764  20.991   6.910
 3016POPC   C4A41118   5.879  20.727   7.233
 3016POPC   C1B41119   5.631  20.094   6.185
 3016POPC   C2B41120   5.841  20.104   6.577
 3016POPC   C3B41121   5.880  20.237   6.997
 3016POPC   C4B41122   5.552  20.337   7.238
 3017POPC   NC341123  32.464  25.788   5.278
 3017POPC   PO441124  31.870  26.068   5.412
 3017POPC   GL141125  32.110  25.816   5.712
 3017POPC   GL241126  32.394  26.039   5.739
 3017POPC   C1A41127  32.206  25.860   6.166
 3017POPC   D2A41128  32.055  26.084   6.498
 3017POPC   C3A41129  32.280  25.957   6.807
 3017POPC   C4A41130  32.326  25.907   7.198
 3017POPC   C1B41131  32.672  26.160   6.125
 3017POPC   C2B41132  32.684  26.148   6.584
 3017POPC   C3B41133  32.741  26.193   7.051
 3017POPC   C4B41134  32.593  26.216   7.496
 3018POPC   NC341135  43.424  11.301   5.451
 3018POPC   PO441136  44.039  11.190   5.246
 3018POPC   GL141137  44.084  11.167   5.725
 3018POPC   GL241138  43.859  11.371   5.835
 3018POPC   C1A41139  44.072  11.053   6.182
 3018POPC   D2A41140  44.042  11.335   6.513
 3018POPC   C3A41141  43.874  11.209   6.891
 3018POPC   C4A41142  44.094  11.246   7.238
 3018POPC   C1B41143  43.606  11.257   6.171
 3018POPC   C2B41144  43.464  11.222   6.562
 3018POPC   C3B41145  43.378  11.374   6.945
 3018POPC   C4B41146  43.590  11.446   7.292
 3019POPC   NC341147  34.046  19.603   5.500
 3019POPC   PO441148  34.496  20.071   5.455
 3019POPC   GL141149  34.505  19.809   5.796
 3019POPC   GL241150  34.807  19.603   5.853
 3019POPC   C1A41151  34.619  20.011   6.168
 3019POPC   D2A41152  34.722  20.222   6.554
 3019POPC   C3A41153  34.472  20.120   6.919
 3019POPC   C4A41154  34.675  20.009   7.316
 3019POPC   C1B41155  34.547  19.513   6.211
 3019POPC   C2B41156  34.579  19.716   6.578
 3019POPC   C3B41157  34.757  19.693   6.924
 3019POPC   C4B41158  34.543  19.497   7.229
 3020POPC   NC341159  11.759  13.356   5.382
 3020POPC   PO441160  12.429  13.627   5.463
 3020POPC   GL141161  12.191  13.760   5.783
 3020POPC   GL241162  11.959  13.988   5.598
 3020POPC   C1A41163  12.236  13.451   6.125
 3020POPC   D2A41164  12.476  13.425   6.500
 3020POPC   C3A41165  12.243  13.686   6.789
 3020POPC   C4A41166  12.056  13.529   7.143
 3020POPC   C1B41167  11.781  14.030   6.011
 3020POPC   C2B41168  11.846  13.817   6.408
 3020POPC   C3B41169  11.693  13.779   6.832
 3020POPC   C4B41170  11.705  14.040   7.195
 3021POPC   NC341171   9.966  17.037   5.354
 3021POPC   PO441172   9.549  16.530   5.239
 3021POPC   GL141173   9.657  16.711   5.633
 3021POPC   GL241174   9.883  16.554   5.828
 3021POPC   C1A41175   9.472  16.789   6.062
 3021POPC   D2A41176   9.580  16.666   6.496
 3021POPC   C3A41177   9.386  16.712   6.907
 3021POPC   C4A41178   9.601  16.665   7.314
 3021POPC   C1B41179  10.004  16.783   6.160
 3021POPC   C2B41180  10.109  16.685   6.554
 3021POPC   C3B41181   9.927  16.600   6.923
 3021POPC   C4B41182  10.100  16.757   7.297
 3022POPC   NC341183  11.388  34.872   5.170
 3022POPC   PO441184  10.958  34.381   5.346
 3022POPC   GL141185  11.112  34.608   5.741
 3022POPC   GL241186  11.404  34.845   5.699
 3022POPC   C1A41187  11.192  34.561   6.195
 3022POPC   D2A41188  11.343  34.723   6.573
 3022POPC   C3A41189  11.401  34.480   6.923
 3022POPC   C4A41190  11.066  34.509   7.183
 3022POPC   C1B41191  11.591  34.899   6.135
 3022POPC   C2B41192  11.828  34.870   6.531
 3022POPC   C3B41193  11.695  34.946   6.923
 3022POPC   C4B41194  11.358  34.934   7.182
 3023POPC   NC341195  42.543   7.431   5.475
 3023POPC   PO441196  41.895   7.463   5.514
 3023POPC   GL141197  42.185   7.302   5.902
 3023POPC   GL241198  42.586   7.274   5.942
 3023POPC   C1A41199  42.300   7.465   6.334
 3023POPC   D2A41200  42.686   7.502   6.571
 3023POPC   C3A41201  42.647   7.644   6.998
 3023POPC   C4A41202  42.308   7.602   7.300
 3023POPC   C1B41203  42.551   7.028   6.287
 3023POPC   C2B41204  42.393   7.040   6.666
 3023POPC   C3B41205  42.463   7.154   7.067
 3023POPC   C4B41206  42.120   7.121   7.317
 3024POPC   NC341207  38.965  30.643   5.532
 3024POPC   PO441208  39.561  30.409   5.421
 3024POPC   GL141209  39.388  30.594   5.822
 3024POPC   GL241210  39.557  30.353   5.998
 3024POPC   C1A41211  39.085  30.749   6.151
 3024POPC   D2A41212  39.056  30.598   6.565
 3024POPC   C3A41213  39.198  30.928   6.810
 3024POPC   C4A41214  39.086  30.937   7.217
 3024POPC   C1B41215  39.553  30.682   6.338
 3024POPC   C2B41216  39.600  30.607   6.768
 3024POPC   C3B41217  39.363  30.500   7.120
 3024POPC   C4B41218  39.561  30.417   7.507
 3025POPC   NC341219   5.601   8.953   5.273
 3025POPC   PO441220   6.218   9.081   5.267
 3025POPC   GL141221   5.974   8.891   5.676
 3025POPC   GL241222   5.675   8.660   5.719
 3025POPC   C1A41223   6.068   8.916   6.130
 3025POPC   D2A41224   6.107   8.816   6.596
 3025POPC   C3A41225   5.909   9.129   6.904
 3025POPC   C4A41226   5.996   9.152   7.346
 3025POPC   C1B41227   5.468   8.757   6.124
 3025POPC   C2B41228   5.596   8.911   6.534
 3025POPC   C3B41229   5.585   8.754   6.975
 3025POPC   C4B41230   5.529   8.932   7.396
 3026POPC   NC341231  10.170  10.994   5.508
 3026POPC   PO441232  10.755  11.314   5.387
 3026POPC   GL141233  10.534  11.392   5.751
 3026POPC   GL241234  10.607  11.098   5.840
 3026POPC   C1A41235  10.617  11.510   6.188
 3026POPC   D2A41236  10.463  11.747   6.537
 3026POPC   C3A41237  10.643  11.646   6.920
 3026POPC   C4A41238  10.510  11.392   7.272
 3026POPC   C1B41239  10.514  11.000   6.257
 3026POPC   C2B41240  10.543  11.217   6.651
 3026POPC   C3B41241  10.471  10.960   7.017
 3026POPC   C4B41242  10.335  10.904   7.451
 3027POPC   NC341243  24.054  14.896   5.381
 3027POPC   PO441244  23.439  14.996   5.279
 3027POPC   GL141245  23.684  15.174   5.674
 3027POPC   GL241246  24.020  15.111   5.877
 3027POPC   C1A41247  23.577  15.222   6.114
 3027POPC   D2A41248  23.618  15.041   6.517
 3027POPC   C3A41249  23.531  15.244   6.904
 3027POPC   C4A41250  23.508  15.008   7.266
 3027POPC   C1B41251  24.025  15.313   6.308
 3027POPC   C2B41252  24.041  15.434   6.730
 3027POPC   C3B41253  24.019  15.209   7.096
 3027POPC   C4B41254  23.963  14.964   7.458
 3028POPC   NC341255  36.740   5.321   5.413
 3028POPC   PO441256  36.702   4.721   5.537
 3028POPC   GL141257  36.988   4.956   5.829
 3028POPC   GL241258  37.046   5.318   5.862
 3028POPC   C1A41259  36.946   5.005   6.271
 3028POPC   D2A41260  36.871   5.195   6.673
 3028POPC   C3A41261  36.990   4.928   7.026
 3028POPC   C4A41262  36.885   4.958   7.459
 3028POPC   C1B41263  37.245   5.415   6.313
 3028POPC   C2B41264  37.271   5.472   6.791
 3028POPC   C3B41265  37.159   5.350   7.263
 3028POPC   C4B41266  37.201   5.230   7.772
 3029POPC   NC341267  35.439  13.648   5.282
 3029POPC   PO441268  34.746  13.797   5.336
 3029POPC   GL141269  35.079  13.594   5.624
 3029POPC   GL241270  35.320  13.839   5.752
 3029POPC   C1A41271  35.096  13.492   6.079
 3029POPC   D2A41272  35.435  13.543   6.404
 3029POPC   C3A41273  35.354  13.469   6.839
 3029POPC   C4A41274  35.602  13.330   7.163
 3029POPC   C1B41275  35.259  13.980   6.200
 3029POPC   C2B41276  35.289  13.941   6.667
 3029POPC   C3B41277  35.453  13.885   7.115
 3029POPC   C4B41278  35.210  14.006   7.471
 3030POPC   NC341279  34.004   5.270   5.104
 3030POPC   PO441280  33.925   4.759   5.323
 3030POPC   GL141281  33.891   4.775   5.846
 3030POPC   GL241282  33.950   5.106   6.018
 3030POPC   C1A41283  33.606   4.865   6.285
 3030POPC   D2A41284  33.469   5.142   6.674
 3030POPC   C3A41285  33.712   5.126   7.088
 3030POPC   C4A41286  33.695   4.999   7.569
 3030POPC   C1B41287  34.250   5.290   6.334
 3030POPC   C2B41288  34.283   5.353   6.806
 3030POPC   C3B41289  34.250   5.064   7.140
 3030POPC   C4B41290  34.213   4.959   7.609
 3031POPC   NC341291  30.587  20.019   5.424
 3031POPC   PO441292  30.519  19.311   5.234
 3031POPC   GL141293  30.583  19.553   5.656
 3031POPC   GL241294  30.280  19.762   5.765
 3031POPC   C1A41295  30.694  19.767   6.091
 3031POPC   D2A41296  30.864  19.724   6.525
 3031POPC   C3A41297  30.837  19.936   6.941
 3031POPC   C4A41298  30.874  19.714   7.350
 3031POPC   C1B41299  30.259  20.048   6.136
 3031POPC   C2B41300  30.477  20.064   6.552
 3031POPC   C3B41301  30.329  20.117   6.964
 3031POPC   C4B41302  30.390  19.826   7.257
 3032POPC   NC341303   8.514  19.939   5.411
 3032POPC   PO441304   7.850  19.913   5.517
 3032POPC   GL141305   8.058  19.622   5.783
 3032POPC   GL241306   8.358  19.796   5.910
 3032POPC   C1A41307   8.105  19.420   6.205
 3032POPC   D2A41308   8.313  19.475   6.611
 3032POPC   C3A41309   8.192  19.713   6.991
 3032POPC   C4A41310   8.523  19.655   7.331
 3032POPC   C1B41311   8.170  19.926   6.323
 3032POPC   C2B41312   8.259  20.180   6.699
 3032POPC   C3B41313   8.422  20.146   7.125
 3032POPC   C4B41314   8.203  20.009   7.451
 3033POPC   NC341315  21.401  32.011   5.297
 3033POPC   PO441316  21.546  32.641   5.433
 3033POPC   GL141317  21.265  32.378   5.699
 3033POPC   GL241318  21.302  32.022   5.793
 3033POPC   C1A41319  21.044  32.492   6.069
 3033POPC   D2A41320  21.216  32.577   6.486
 3033POPC   C3A41321  21.186  32.513   6.915
 3033POPC   C4A41322  21.523  32.447   7.215
 3033POPC   C1B41323  21.403  32.156   6.216
 3033POPC   C2B41324  21.501  32.158   6.652
 3033POPC   C3B41325  21.614  31.989   7.027
 3033POPC   C4B41326  21.390  31.965   7.390
 3034POPC   NC341327  24.377  11.769   5.470
 3034POPC   PO441328  24.739  11.168   5.531
 3034POPC   GL141329  24.652  11.469   5.824
 3034POPC   GL241330  24.331  11.395   5.843
 3034POPC   C1A41331  24.593  11.379   6.278
 3034POPC   D2A41332  24.305  11.241   6.578
 3034POPC   C3A41333  24.419  11.249   7.004
 3034POPC   C4A41334  24.174  10.978   7.275
 3034POPC   C1B41335  24.110  11.592   6.173
 3034POPC   C2B41336  24.092  11.702   6.594
 3034POPC   C3B41337  23.958  11.457   6.933
 3034POPC   C4B41338  24.099  11.482   7.346
 3035POPC   NC341339  19.528  28.302   5.375
 3035POPC   PO441340  18.883  28.435   5.277
 3035POPC   GL141341  19.051  28.475   5.699
 3035POPC   GL241342  19.274  28.253   5.854
 3035POPC   C1A41343  18.922  28.490   6.119
 3035POPC   D2A41344  18.999  28.311   6.508
 3035POPC   C3A41345  18.882  28.504   6.880
 3035POPC   C4A41346  18.709  28.309   7.215
 3035POPC   C1B41347  19.451  28.398   6.260
 3035POPC   C2B41348  19.399  28.624   6.657
 3035POPC   C3B41349  19.386  28.465   7.051
 3035POPC   C4B41350  19.362  28.598   7.480
 3036POPC   NC341351   2.713  18.854   5.652
 3036POPC   PO441352   3.164  19.278   5.403
 3036POPC   GL141353   3.075  19.265   5.850
 3036POPC   GL241354   2.746  19.423   5.857
 3036POPC   C1A41355   2.935  19.145   6.275
 3036POPC   D2A41356   2.620  18.967   6.559
 3036POPC   C3A41357   2.741  18.922   6.979
 3036POPC   C4A41358   2.477  18.870   7.301
 3036POPC   C1B41359   2.564  19.520   6.270
 3036POPC   C2B41360   2.698  19.485   6.676
 3036POPC   C3B41361   2.581  19.411   7.080
 3036POPC   C4B41362   2.847  19.266   7.391
 3037POPC   NC341363  19.501  20.501   5.482
 3037POPC   PO441364  18.887  20.425   5.243
 3037POPC   GL141365  19.035  20.588   5.706
 3037POPC   GL241366  19.083  20.950   5.739
 3037POPC   C1A41367  19.211  20.717   6.181
 3037POPC   D2A41368  19.258  20.964   6.623
 3037POPC   C3A41369  19.197  20.672   7.014
 3037POPC   C4A41370  18.948  20.277   7.123
 3037POPC   C1B41371  18.959  21.156   6.139
 3037POPC   C2B41372  18.689  21.116   6.519
 3037POPC   C3B41373  18.600  20.976   6.956
 3037POPC   C4B41374  18.959  21.094   7.196
 3038POPC   NC341375  34.064  30.540   5.346
 3038POPC   PO441376  33.500  30.879   5.286
 3038POPC   GL141377  33.701  30.832   5.680
 3038POPC   GL241378  33.580  31.136   5.835
 3038POPC   C1A41379  33.921  30.783   6.104
 3038POPC   D2A41380  34.079  30.920   6.530
 3038POPC   C3A41381  33.924  30.724   6.891
 3038POPC   C4A41382  34.021  30.706   7.317
 3038POPC   C1B41383  33.390  30.823   6.107
 3038POPC   C2B41384  33.508  30.796   6.546
 3038POPC   C3B41385  33.630  31.132   6.822
 3038POPC   C4B41386  33.683  31.107   7.250
 3039POPC   NC341387  38.654   1.295   5.271
 3039POPC   PO441388  38.162   0.769   5.308
 3039POPC   GL141389  38.314   1.071   5.604
 3039POPC   GL241390  38.166   0.920   5.867
 3039POPC   C1A41391  38.599   1.252   5.922
 3039POPC   D2A41392  38.629   1.255   6.391
 3039POPC   C3A41393  38.654   1.207   6.827
 3039POPC   C4A41394  38.443   1.332   7.169
 3039POPC   C1B41395  38.494   0.824   6.165
 3039POPC   C2B41396  38.428   0.746   6.594
 3039POPC   C3B41397  38.265   0.871   6.968
 3039POPC   C4B41398  38.466   0.854   7.316
 3040POPC   NC341399  25.919  10.880   5.596
 3040POPC   PO441400  26.153  11.376   5.192
 3040POPC   GL141401  26.148  11.342   5.682
 3040POPC   GL241402  26.352  11.058   5.821
 3040POPC   C1A41403  25.982  11.258   6.141
 3040POPC   D2A41404  26.050  11.200   6.589
 3040POPC   C3A41405  25.821  11.018   6.966
 3040POPC   C4A41406  25.887  11.312   7.310
 3040POPC   C1B41407  26.415  10.988   6.249
 3040POPC   C2B41408  26.514  10.986   6.678
 3040POPC   C3B41409  26.303  11.098   7.048
 3040POPC   C4B41410  26.074  10.877   7.412
 3041POPC   NC341411   9.562  44.362   5.587
 3041POPC   PO441412   9.736  43.776   5.306
 3041POPC   GL141413   9.877  43.855   5.735
 3041POPC   GL241414  10.017  44.185   5.755
 3041POPC   C1A41415   9.763  43.696   6.139
 3041POPC   D2A41416   9.608  43.814   6.538
 3041POPC   C3A41417   9.721  43.593   6.921
 3041POPC   C4A41418   9.619  43.818   7.328
 3041POPC   C1B41419   9.781  44.242   6.170
 3041POPC   C2B41420   9.979  44.229   6.554
 3041POPC   C3B41421   9.837  44.111   6.932
 3041POPC   C4B41422   9.967  44.207   7.322
 3042POPC   NC341423  39.583  24.845   5.409
 3042POPC   PO441424  40.017  24.285   5.196
 3042POPC   GL141425  39.922  24.327   5.666
 3042POPC   GL241426  39.934  24.693   5.760
 3042POPC   C1A41427  39.965  24.361   6.147
 3042POPC   D2A41428  39.849  24.565   6.545
 3042POPC   C3A41429  39.989  24.402   6.941
 3042POPC   C4A41430  40.291  24.231   7.210
 3042POPC   C1B41431  39.719  24.859   6.132
 3042POPC   C2B41432  39.556  25.003   6.561
 3042POPC   C3B41433  39.702  24.841   6.969
 3042POPC   C4B41434  39.982  24.772   7.323
 3043POPC   NC341435  26.485  21.224   4.927
 3043POPC   PO441436  25.853  21.280   5.300
 3043POPC   GL141437  25.958  21.265   5.780
 3043POPC   GL241438  26.326  21.144   5.812
 3043POPC   C1A41439  26.049  21.619   6.143
 3043POPC   D2A41440  26.187  21.800   6.549
 3043POPC   C3A41441  26.060  21.607   6.926
 3043POPC   C4A41442  26.284  21.403   7.254
 3043POPC   C1B41443  26.106  21.124   6.225
 3043POPC   C2B41444  25.919  21.279   6.543
 3043POPC   C3B41445  25.998  21.099   6.925
 3043POPC   C4B41446  25.945  21.021   7.334
 3044POPC   NC341447  28.665  21.645   5.424
 3044POPC   PO441448  28.561  20.957   5.426
 3044POPC   GL141449  28.415  21.332   5.811
 3044POPC   GL241450  28.184  21.641   5.952
 3044POPC   C1A41451  28.405  21.378   6.314
 3044POPC   D2A41452  28.760  21.359   6.588
 3044POPC   C3A41453  28.580  21.228   6.991
 3044POPC   C4A41454  28.390  21.320   7.371
 3044POPC   C1B41455  28.610  21.760   6.077
 3044POPC   C2B41456  28.746  21.874   6.493
 3044POPC   C3B41457  28.613  21.748   6.892
 3044POPC   C4B41458  28.792  21.657   7.267
 3045POPC   NC341459  25.391  28.999   5.333
 3045POPC   PO441460  24.752  29.185   5.283
 3045POPC   GL141461  25.015  29.244   5.649
 3045POPC   GL241462  24.917  28.999   5.866
 3045POPC   C1A41463  25.163  29.364   6.100
 3045POPC   D2A41464  25.025  29.463   6.540
 3045POPC   C3A41465  25.202  29.311   6.993
 3045POPC   C4A41466  25.339  29.458   7.433
 3045POPC   C1B41467  24.795  28.936   6.259
 3045POPC   C2B41468  24.940  28.982   6.663
 3045POPC   C3B41469  24.874  28.927   7.093
 3045POPC   C4B41470  25.079  29.047   7.470
 3046POPC   NC341471  23.302  39.440   5.358
 3046POPC   PO441472  22.699  39.103   5.368
 3046POPC   GL141473  22.792  39.198   5.820
 3046POPC   GL241474  23.055  39.499   5.835
 3046POPC   C1A41475  22.760  38.991   6.253
 3046POPC   D2A41476  22.571  39.215   6.622
 3046POPC   C3A41477  22.749  39.413   6.990
 3046POPC   C4A41478  23.011  39.173   7.280
 3046POPC   C1B41479  22.964  39.444   6.285
 3046POPC   C2B41480  23.138  39.265   6.662
 3046POPC   C3B41481  23.309  39.487   7.024
 3046POPC   C4B41482  23.053  39.684   7.314
 3047POPC   NC341483  22.546  21.715   5.437
 3047POPC   PO441484  23.124  22.218   5.461
 3047POPC   GL141485  23.071  22.176   5.898
 3047POPC   GL241486  22.723  22.156   5.783
 3047POPC   C1A41487  23.005  22.208   6.362
 3047POPC   D2A41488  22.880  22.050   6.799
 3047POPC   C3A41489  23.094  22.202   7.136
 3047POPC   C4A41490  23.142  22.088   7.560
 3047POPC   C1B41491  22.555  22.298   6.154
 3047POPC   C2B41492  22.453  22.233   6.592
 3047POPC   C3B41493  22.544  22.392   7.014
 3047POPC   C4B41494  22.663  22.194   7.392
 3048POPC   NC341495  12.978  36.625   4.935
 3048POPC   PO441496  12.813  37.082   5.470
 3048POPC   GL141497  12.726  37.011   5.904
 3048POPC   GL241498  13.097  36.982   5.896
 3048POPC   C1A41499  12.826  37.056   6.354
 3048POPC   D2A41500  12.749  37.047   6.796
 3048POPC   C3A41501  12.917  37.138   7.164
 3048POPC   C4A41502  12.703  37.408   7.401
 3048POPC   C1B41503  13.236  36.795   6.236
 3048POPC   C2B41504  13.103  36.691   6.632
 3048POPC   C3B41505  12.979  36.622   7.034
 3048POPC   C4B41506  13.013  36.738   7.474
 3049POPC   NC341507   1.249  22.441   5.545
 3049POPC   PO441508   0.724  21.909   5.531
 3049POPC   GL141509   1.027  21.828   5.903
 3049POPC   GL241510   1.093  22.157   5.992
 3049POPC   C1A41511   1.239  21.791   6.353
 3049POPC   D2A41512   1.269  22.001   6.790
 3049POPC   C3A41513   1.053  21.921   7.195
 3049POPC   C4A41514   1.204  21.685   7.601
 3049POPC   C1B41515   1.449  22.245   6.278
 3049POPC   C2B41516   1.604  22.390   6.686
 3049POPC   C3B41517   1.623  22.392   7.150
 3049POPC   C4B41518   1.288  22.316   7.458
 3050POPC   NC341519  37.628   5.405   5.402
 3050POPC   PO441520  37.963   4.845   5.465
 3050POPC   GL141521  37.852   5.180   5.798
 3050POPC   GL241522  37.505   5.118   5.799
 3050POPC   C1A41523  37.807   5.471   6.183
 3050POPC   D2A41524  37.723   5.327   6.613
 3050POPC   C3A41525  37.959   4.978   6.825
 3050POPC   C4A41526  37.969   5.067   7.263
 3050POPC   C1B41527  37.553   5.019   6.214
 3050POPC   C2B41528  37.354   4.964   6.606
 3050POPC   C3B41529  37.488   5.034   7.011
 3050POPC   C4B41530  37.419   4.931   7.429
 3051POPC   NC341531   5.520  14.765   5.567
 3051POPC   PO441532   4.978  14.433   5.297
 3051POPC   GL141533   4.921  14.377   5.783
 3051POPC   GL241534   5.211  14.528   5.912
 3051POPC   C1A41535   5.006  14.205   6.252
 3051POPC   D2A41536   5.176  14.200   6.720
 3051POPC   C3A41537   4.931  14.392   7.089
 3051POPC   C4A41538   4.983  14.498   7.545
 3051POPC   C1B41539   5.397  14.519   6.332
 3051POPC   C2B41540   5.337  14.708   6.735
 3051POPC   C3B41541   5.367  14.644   7.173
 3051POPC   C4B41542   5.498  14.576   7.600
 3052POPC   NC341543  26.937   4.607   4.928
 3052POPC   PO441544  26.635   5.011   5.402
 3052POPC   GL141545  26.935   5.045   5.767
 3052POPC   GL241546  26.736   4.887   6.020
 3052POPC   C1A41547  27.183   5.101   6.150
 3052POPC   D2A41548  27.004   4.961   6.544
 3052POPC   C3A41549  27.121   5.056   6.968
 3052POPC   C4A41550  26.882   4.916   7.332
 3052POPC   C1B41551  26.636   4.627   6.392
 3052POPC   C2B41552  26.399   4.763   6.746
 3052POPC   C3B41553  26.423   5.055   7.067
 3052POPC   C4B41554  26.294   4.990   7.492
 3053POPC   NC341555  22.853  37.967   5.236
 3053POPC   PO441556  23.191  37.418   5.323
 3053POPC   GL141557  22.945  37.516   5.689
 3053POPC   GL241558  23.059  37.282   5.899
 3053POPC   C1A41559  22.775  37.750   6.066
 3053POPC   D2A41560  22.878  37.927   6.489
 3053POPC   C3A41561  22.703  37.827   6.892
 3053POPC   C4A41562  22.749  37.644   7.295
 3053POPC   C1B41563  23.067  37.415   6.307
 3053POPC   C2B41564  22.961  37.447   6.662
 3053POPC   C3B41565  23.131  37.492   7.022
 3053POPC   C4B41566  23.206  37.307   7.416
 3054POPC   NC341567  13.813  24.468   5.368
 3054POPC   PO441568  13.148  24.310   5.447
 3054POPC   GL141569  13.466  24.498   5.762
 3054POPC   GL241570  13.774  24.257   5.835
 3054POPC   C1A41571  13.676  24.639   6.164
 3054POPC   D2A41572  13.753  24.837   6.611
 3054POPC   C3A41573  13.547  24.738   7.019
 3054POPC   C4A41574  13.810  24.599   7.371
 3054POPC   C1B41575  13.472  24.153   6.158
 3054POPC   C2B41576  13.484  24.382   6.577
 3054POPC   C3B41577  13.724  24.269   6.970
 3054POPC   C4B41578  13.501  24.208   7.375
 3055POPC   NC341579  38.289  31.998   5.519
 3055POPC   PO441580  38.224  31.373   5.214
 3055POPC   GL141581  38.246  31.463   5.668
 3055POPC   GL241582  38.583  31.626   5.768
 3055POPC   C1A41583  38.285  31.240   6.098
 3055POPC   D2A41584  38.327  31.118   6.566
 3055POPC   C3A41585  38.407  31.475   6.870
 3055POPC   C4A41586  38.220  31.818   7.169
 3055POPC   C1B41587  38.842  31.653   6.188
 3055POPC   C2B41588  38.804  31.802   6.631
 3055POPC   C3B41589  38.726  31.829   7.071
 3055POPC   C4B41590  38.799  31.654   7.487
 3056POPC   NC341591  27.086  28.989   5.538
 3056POPC   PO441592  26.513  29.445   5.524
 3056POPC   GL141593  26.850  29.352   5.811
 3056POPC   GL241594  27.050  29.641   5.935
 3056POPC   C1A41595  26.978  29.132   6.204
 3056POPC   D2A41596  26.857  28.860   6.545
 3056POPC   C3A41597  26.997  29.021   6.938
 3056POPC   C4A41598  26.982  28.866   7.357
 3056POPC   C1B41599  26.677  29.571   6.224
 3056POPC   C2B41600  26.735  29.380   6.631
 3056POPC   C3B41601  26.669  29.446   7.047
 3056POPC   C4B41602  26.818  29.338   7.432
 3057POPC   NC341603  20.302  26.121   5.541
 3057POPC   PO441604  19.677  25.773   5.399
 3057POPC   GL141605  19.787  26.133   5.664
 3057POPC   GL241606  19.961  26.474   5.651
 3057POPC   C1A41607  19.759  26.115   6.109
 3057POPC   D2A41608  19.979  26.252   6.470
 3057POPC   C3A41609  19.805  26.096   6.825
 3057POPC   C4A41610  19.996  26.166   7.214
 3057POPC   C1B41611  19.913  26.599   6.087
 3057POPC   C2B41612  19.576  26.566   6.402
 3057POPC   C3B41613  19.632  26.581   6.854
 3057POPC   C4B41614  19.526  26.358   7.211
 3058POPC   NC341615   9.407   8.128   4.980
 3058POPC   PO441616   9.867   8.052   5.423
 3058POPC   GL141617   9.949   8.121   5.848
 3058POPC   GL241618  10.103   8.442   5.846
 3058POPC   C1A41619   9.706   8.085   6.254
 3058POPC   D2A41620   9.512   7.987   6.694
 3058POPC   C3A41621   9.418   8.317   7.039
 3058POPC   C4A41622   9.472   8.413   7.471
 3058POPC   C1B41623  10.203   8.290   6.282
 3058POPC   C2B41624  10.020   8.101   6.650
 3058POPC   C3B41625   9.926   8.236   7.047
 3058POPC   C4B41626  10.154   8.065   7.334
 3059POPC   NC341627  31.925  23.816   5.424
 3059POPC   PO441628  32.625  23.792   5.438
 3059POPC   GL141629  32.553  23.558   5.777
 3059POPC   GL241630  32.210  23.553   5.749
 3059POPC   C1A41631  32.582  23.674   6.179
 3059POPC   D2A41632  32.353  23.682   6.529
 3059POPC   C3A41633  32.536  23.730   6.886
 3059POPC   C4A41634  32.405  23.831   7.270
 3059POPC   C1B41635  32.064  23.758   6.107
 3059POPC   C2B41636  31.871  23.801   6.516
 3059POPC   C3B41637  31.975  23.944   6.936
 3059POPC   C4B41638  31.926  24.012   7.394
 3060POPC   NC341639  27.467  11.049   5.416
 3060POPC   PO441640  28.063  10.860   5.606
 3060POPC   GL141641  27.657  11.060   5.915
 3060POPC   GL241642  27.327  11.268   5.860
 3060POPC   C1A41643  27.381  11.066   6.346
 3060POPC   D2A41644  27.538  10.995   6.795
 3060POPC   C3A41645  27.538  11.272   7.214
 3060POPC   C4A41646  27.403  11.118   7.652
 3060POPC   C1B41647  27.205  11.561   6.221
 3060POPC   C2B41648  27.382  11.652   6.660
 3060POPC   C3B41649  27.273  11.728   7.121
 3060POPC   C4B41650  27.402  11.690   7.560
 3061POPC   NC341651  24.144  22.992   5.408
 3061POPC   PO441652  24.762  22.760   5.429
 3061POPC   GL141653  24.587  23.013   5.770
 3061POPC   GL241654  24.918  22.975   5.895
 3061POPC   C1A41655  24.399  22.898   6.204
 3061POPC   D2A41656  24.475  22.959   6.669
 3061POPC   C3A41657  24.179  23.068   7.048
 3061POPC   C4A41658  24.182  22.920   7.531
 3061POPC   C1B41659  25.001  22.825   6.267
 3061POPC   C2B41660  24.970  22.776   6.690
 3061POPC   C3B41661  24.678  22.599   6.987
 3061POPC   C4B41662  24.606  22.925   7.267
 3062POPC   NC341663   4.000   7.992   5.222
 3062POPC   PO441664   3.337   7.781   5.283
 3062POPC   GL141665   3.483   8.054   5.639
 3062POPC   GL241666   3.836   8.120   5.724
 3062POPC   C1A41667   3.353   8.126   6.072
 3062POPC   D2A41668   3.440   7.991   6.509
 3062POPC   C3A41669   3.441   8.164   6.944
 3062POPC   C4A41670   3.461   8.324   7.386
 3062POPC   C1B41671   3.828   8.322   6.165
 3062POPC   C2B41672   3.795   8.370   6.604
 3062POPC   C3B41673   3.838   8.484   7.032
 3062POPC   C4B41674   3.952   8.209   7.306
 3063POPC   NC341675  29.160   3.180   5.592
 3063POPC   PO441676  28.867   2.619   5.385
 3063POPC   GL141677  29.031   2.741   5.837
 3063POPC   GL241678  29.378   2.766   5.824
 3063POPC   C1A41679  29.057   2.995   6.260
 3063POPC   D2A41680  29.056   3.202   6.693
 3063POPC   C3A41681  29.175   2.898   6.979
 3063POPC   C4A41682  28.921   2.613   7.230
 3063POPC   C1B41683  29.572   2.952   6.221
 3063POPC   C2B41684  29.636   2.742   6.656
 3063POPC   C3B41685  29.681   2.931   7.081
 3063POPC   C4B41686  29.526   2.837   7.517
 3064POPC   NC341687  39.410   4.697   5.420
 3064POPC   PO441688  39.021   4.091   5.398
 3064POPC   GL141689  39.172   4.344   5.733
 3064POPC   GL241690  39.037   4.651   5.796
 3064POPC   C1A41691  39.428   4.489   6.086
 3064POPC   D2A41692  39.371   4.384   6.549
 3064POPC   C3A41693  39.491   4.301   6.986
 3064POPC   C4A41694  39.315   4.126   7.374
 3064POPC   C1B41695  38.955   4.503   6.245
 3064POPC   C2B41696  38.836   4.517   6.687
 3064POPC   C3B41697  38.935   4.407   7.122
 3064POPC   C4B41698  39.076   4.551   7.528
 3065POPC   NC341699  26.062  17.355   5.330
 3065POPC   PO441700  26.064  17.862   5.779
 3065POPC   GL141701  26.135  17.454   5.888
 3065POPC   GL241702  25.783  17.404   5.794
 3065POPC   C1A41703  26.289  17.369   6.328
 3065POPC   D2A41704  26.410  17.710   6.641
 3065POPC   C3A41705  26.229  17.590   7.044
 3065POPC   C4A41706  25.932  17.717   7.365
 3065POPC   C1B41707  25.768  17.352   6.250
 3065POPC   C2B41708  25.695  17.480   6.674
 3065POPC   C3B41709  25.792  17.301   7.065
 3065POPC   C4B41710  26.048  16.999   7.250
 3066POPC   NC341711  34.847  19.680   5.356
 3066POPC   PO441712  35.405  20.057   5.191
 3066POPC   GL141713  35.222  19.896   5.608
 3066POPC   GL241714  34.957  20.080   5.727
 3066POPC   C1A41715  35.300  19.788   6.033
 3066POPC   D2A41716  35.033  19.730   6.372
 3066POPC   C3A41717  35.262  19.603   6.718
 3066POPC   C4A41718  35.416  19.725   7.094
 3066POPC   C1B41719  35.061  20.240   6.127
 3066POPC   C2B41720  35.246  20.174   6.515
 3066POPC   C3B41721  35.095  20.062   6.883
 3066POPC   C4B41722  35.036  20.369   7.107
 3067POPC   NC341723   9.499  28.099   5.481
 3067POPC   PO441724   9.922  28.602   5.460
 3067POPC   GL141725   9.762  28.556   5.855
 3067POPC   GL241726   9.796  28.218   5.902
 3067POPC   C1A41727   9.877  28.557   6.285
 3067POPC   D2A41728   9.781  28.323   6.657
 3067POPC   C3A41729   9.710  28.519   7.043
 3067POPC   C4A41730   9.680  28.264   7.410
 3067POPC   C1B41731   9.469  28.249   6.247
 3067POPC   C2B41732   9.380  27.992   6.611
 3067POPC   C3B41733   9.328  28.148   7.007
 3067POPC   C4B41734   9.003  28.052   7.292
 3068POPC   NC341735  26.331  38.731   5.543
 3068POPC   PO441736  25.870  38.230   5.387
 3068POPC   GL141737  25.879  38.473   5.792
 3068POPC   GL241738  26.205  38.387   5.909
 3068POPC   C1A41739  25.892  38.539   6.264
 3068POPC   D2A41740  26.110  38.417   6.636
 3068POPC   C3A41741  26.109  38.716   6.931
 3068POPC   C4A41742  25.878  38.869   7.285
 3068POPC   C1B41743  26.230  38.075   6.269
 3068POPC   C2B41744  26.385  37.947   6.688
 3068POPC   C3B41745  26.299  38.186   7.065
 3068POPC   C4B41746  25.889  38.338   7.199
 3069POPC   NC341747  12.221  39.726   5.497
 3069POPC   PO441748  12.311  40.406   5.548
 3069POPC   GL141749  12.210  40.114   5.890
 3069POPC   GL241750  11.897  39.914   5.836
 3069POPC   C1A41751  12.410  39.790   6.166
 3069POPC   D2A41752  12.492  39.655   6.599
 3069POPC   C3A41753  12.367  39.958   6.920
 3069POPC   C4A41754  12.368  40.356   7.137
 3069POPC   C1B41755  11.908  39.790   6.262
 3069POPC   C2B41756  11.974  39.720   6.699
 3069POPC   C3B41757  11.825  39.998   7.063
 3069POPC   C4B41758  11.658  39.827   7.503
 3070POPC   NC341759  13.862  39.174   5.335
 3070POPC   PO441760  14.078  38.609   5.685
 3070POPC   GL141761  13.991  38.966   5.901
 3070POPC   GL241762  13.769  39.226   5.825
 3070POPC   C1A41763  13.811  39.039   6.287
 3070POPC   D2A41764  13.633  38.832   6.581
 3070POPC   C3A41765  13.827  39.030   6.851
 3070POPC   C4A41766  13.745  39.172   7.200
 3070POPC   C1B41767  13.438  39.350   6.117
 3070POPC   C2B41768  13.358  39.291   6.531
 3070POPC   C3B41769  13.499  39.484   6.869
 3070POPC   C4B41770  13.706  39.669   7.207
 3071POPC   NC341771  42.425  39.774   5.425
 3071POPC   PO441772  42.043  40.350   5.424
 3071POPC   GL141773  42.186  40.094   5.798
 3071POPC   GL241774  42.005  39.740   5.744
 3071POPC   C1A41775  42.528  40.126   6.159
 3071POPC   D2A41776  42.765  40.217   6.571
 3071POPC   C3A41777  42.605  40.121   7.010
 3071POPC   C4A41778  42.608  40.179   7.465
 3071POPC   C1B41779  42.236  39.703   6.136
 3071POPC   C2B41780  42.296  39.844   6.555
 3071POPC   C3B41781  42.262  39.685   6.963
 3071POPC   C4B41782  42.547  39.429   7.132
 3072POPC   NC341783  24.133  28.171   5.136
 3072POPC   PO441784  23.516  28.035   5.387
 3072POPC   GL141785  23.550  28.265   5.838
 3072POPC   GL241786  23.318  28.435   5.918
 3072POPC   C1A41787  23.741  28.481   6.189
 3072POPC   D2A41788  23.879  28.550   6.579
 3072POPC   C3A41789  23.900  28.138   6.784
 3072POPC   C4A41790  23.744  28.157   7.180
 3072POPC   C1B41791  23.237  28.407   6.360
 3072POPC   C2B41792  23.406  28.403   6.758
 3072POPC   C3B41793  23.597  28.664   7.047
 3072POPC   C4B41794  23.608  28.621   7.462
 3073POPC   NC341795   8.359   5.980   5.566
 3073POPC   PO441796   7.741   5.648   5.662
 3073POPC   GL141797   8.142   5.705   5.925
 3073POPC   GL241798   8.218   6.098   6.019
 3073POPC   C1A41799   8.449   5.762   6.288
 3073POPC   D2A41800   8.486   5.965   6.702
 3073POPC   C3A41801   8.373   5.684   7.020
 3073POPC   C4A41802   8.240   5.698   7.445
 3073POPC   C1B41803   7.943   5.914   6.335
 3073POPC   C2B41804   7.719   5.966   6.683
 3073POPC   C3B41805   7.898   5.892   7.079
 3073POPC   C4B41806   8.168   6.175   7.275
 3074POPC   NC341807  10.817  33.971   5.556
 3074POPC   PO441808  11.525  33.800   5.316
 3074POPC   GL141809  11.329  33.776   5.706
 3074POPC   GL241810  11.257  34.113   5.748
 3074POPC   C1A41811  11.077  33.556   6.039
 3074POPC   D2A41812  10.950  33.628   6.483
 3074POPC   C3A41813  11.297  33.570   6.774
 3074POPC   C4A41814  11.543  33.617   7.165
 3074POPC   C1B41815  11.134  34.051   6.179
 3074POPC   C2B41816  11.199  34.105   6.612
 3074POPC   C3B41817  11.087  34.007   7.009
 3074POPC   C4B41818  11.354  34.135   7.342
 3075POPC   NC341819  33.470   9.936   5.467
 3075POPC   PO441820  33.957   9.565   5.211
 3075POPC   GL141821  33.866   9.627   5.685
 3075POPC   GL241822  33.953   9.372   5.943
 3075POPC   C1A41823  33.821   9.809   6.157
 3075POPC   D2A41824  33.951   9.960   6.615
 3075POPC   C3A41825  33.704   9.928   7.031
 3075POPC   C4A41826  33.832  10.093   7.434
 3075POPC   C1B41827  34.277   9.346   6.285
 3075POPC   C2B41828  34.208   9.318   6.744
 3075POPC   C3B41829  33.931   9.442   7.083
 3075POPC   C4B41830  33.567   9.483   7.326
 3076POPC   NC341831  28.385  43.527   5.468
 3076POPC   PO441832  28.608  43.073   5.100
 3076POPC   GL141833  28.526  43.055   5.621
 3076POPC   GL241834  28.182  42.964   5.755
 3076POPC   C1A41835  28.474  43.124   6.130
 3076POPC   D2A41836  28.278  43.251   6.539
 3076POPC   C3A41837  28.541  43.180   6.920
 3076POPC   C4A41838  28.620  43.328   7.352
 3076POPC   C1B41839  27.959  42.946   6.182
 3076POPC   C2B41840  27.977  42.791   6.629
 3076POPC   C3B41841  28.037  43.030   7.021
 3076POPC   C4B41842  27.959  42.935   7.457
 3077POPC   NC341843  21.802  36.624   4.891
 3077POPC   PO441844  21.232  36.803   5.276
 3077POPC   GL141845  21.265  36.913   5.705
 3077POPC   GL241846  21.555  37.138   5.743
 3077POPC   C1A41847  21.139  37.079   6.103
 3077POPC   D2A41848  21.254  36.963   6.524
 3077POPC   C3A41849  21.020  36.958   6.893
 3077POPC   C4A41850  21.281  37.099   7.195
 3077POPC   C1B41851  21.677  36.831   6.079
 3077POPC   C2B41852  21.639  36.623   6.511
 3077POPC   C3B41853  21.680  36.875   6.878
 3077POPC   C4B41854  21.623  36.754   7.278
 3078POPC   NC341855  42.163   4.246   5.529
 3078POPC   PO441856  42.741   3.852   5.442
 3078POPC   GL141857  42.634   4.165   5.770
 3078POPC   GL241858  42.454   4.481   5.864
 3078POPC   C1A41859  42.718   4.202   6.203
 3078POPC   D2A41860  42.835   4.258   6.612
 3078POPC   C3A41861  42.475   4.422   6.762
 3078POPC   C4A41862  42.393   4.455   7.168
 3078POPC   C1B41863  42.224   4.492   6.265
 3078POPC   C2B41864  42.075   4.712   6.649
 3078POPC   C3B41865  41.903   4.566   7.056
 3078POPC   C4B41866  42.030   4.544   7.490
 3079POPC   NC341867  10.716  34.771   5.437
 3079POPC   PO441868  10.399  34.149   5.350
 3079POPC   GL141869  10.544  34.388   5.713
 3079POPC   GL241870  10.295  34.653   5.760
 3079POPC   C1A41871  10.698  34.636   6.089
 3079POPC   D2A41872  10.809  34.867   6.497
 3079POPC   C3A41873  10.499  34.930   6.857
 3079POPC   C4A41874  10.648  34.816   7.273
 3079POPC   C1B41875  10.225  34.430   6.122
 3079POPC   C2B41876  10.270  34.264   6.524
 3079POPC   C3B41877  10.199  34.191   6.972
 3079POPC   C4B41878  10.223  34.548   7.235
 3080POPC   NC341879  24.178  39.647   5.695
 3080POPC   PO441880  24.611  39.286   5.301
 3080POPC   GL141881  24.580  39.308   5.786
 3080POPC   GL241882  24.331  39.106   5.953
 3080POPC   C1A41883  24.626  39.323   6.289
 3080POPC   D2A41884  24.360  39.137   6.641
 3080POPC   C3A41885  24.483  39.147   7.066
 3080POPC   C4A41886  24.660  39.508   7.225
 3080POPC   C1B41887  24.099  39.370   6.256
 3080POPC   C2B41888  24.041  39.563   6.620
 3080POPC   C3B41889  24.036  39.393   7.013
 3080POPC   C4B41890  24.148  39.384   7.449
 3081POPC   NC341891  15.777  41.021   5.518
 3081POPC   PO441892  16.277  41.486   5.317
 3081POPC   GL141893  16.183  41.412   5.750
 3081POPC   GL241894  16.238  41.066   5.720
 3081POPC   C1A41895  15.974  41.540   6.166
 3081POPC   D2A41896  15.663  41.648   6.491
 3081POPC   C3A41897  15.780  41.518   6.905
 3081POPC   C4A41898  15.687  41.708   7.301
 3081POPC   C1B41899  16.122  41.057   6.147
 3081POPC   C2B41900  16.001  41.163   6.576
 3081POPC   C3B41901  16.162  41.139   6.998
 3081POPC   C4B41902  16.233  41.448   7.270
 3082POPC   NC341903  37.053  23.950   5.447
 3082POPC   PO441904  37.091  23.309   5.556
 3082POPC   GL141905  36.910  23.646   5.831
 3082POPC   GL241906  36.797  23.380   6.003
 3082POPC   C1A41907  36.949  23.949   6.185
 3082POPC   D2A41908  37.044  24.058   6.645
 3082POPC   C3A41909  37.044  23.745   7.009
 3082POPC   C4A41910  37.279  23.375   7.188
 3082POPC   C1B41911  36.574  23.621   6.234
 3082POPC   C2B41912  36.528  23.812   6.596
 3082POPC   C3B41913  36.567  23.580   6.968
 3082POPC   C4B41914  36.534  23.671   7.371
 3083POPC   NC341915  22.239  19.223   5.239
 3083POPC   PO441916  21.890  18.718   5.633
 3083POPC   GL141917  22.095  19.053   5.750
 3083POPC   GL241918  22.379  18.890   5.840
 3083POPC   C1A41919  22.027  19.166   6.191
 3083POPC   D2A41920  21.841  18.919   6.549
 3083POPC   C3A41921  21.602  19.139   6.882
 3083POPC   C4A41922  21.778  19.279   7.283
 3083POPC   C1B41923  22.368  18.783   6.292
 3083POPC   C2B41924  22.387  19.015   6.704
 3083POPC   C3B41925  22.312  19.081   7.184
 3083POPC   C4B41926  22.257  18.901   7.611
 3084POPC   NC341927   4.317  12.291   5.537
 3084POPC   PO441928   4.237  11.563   5.405
 3084POPC   GL141929   4.172  11.807   5.801
 3084POPC   GL241930   4.476  11.971   5.897
 3084POPC   C1A41931   4.179  11.900   6.276
 3084POPC   D2A41932   4.045  12.080   6.630
 3084POPC   C3A41933   4.200  12.000   7.021
 3084POPC   C4A41934   3.951  12.146   7.356
 3084POPC   C1B41935   4.666  12.153   6.276
 3084POPC   C2B41936   4.567  12.196   6.688
 3084POPC   C3B41937   4.534  12.407   7.060
 3084POPC   C4B41938   4.445  12.206   7.435
 3085POPC   NC341939  26.659  22.759   5.265
 3085POPC   PO441940  27.198  23.072   5.351
 3085POPC   GL141941  26.967  22.946   5.712
 3085POPC   GL241942  26.614  22.781   5.774
 3085POPC   C1A41943  26.963  22.979   6.157
 3085POPC   D2A41944  27.128  22.861   6.554
 3085POPC   C3A41945  26.975  23.078   6.939
 3085POPC   C4A41946  26.988  23.022   7.411
 3085POPC   C1B41947  26.440  22.936   6.175
 3085POPC   C2B41948  26.563  23.010   6.603
 3085POPC   C3B41949  26.458  23.010   7.058
 3085POPC   C4B41950  26.495  22.945   7.499
 3086POPC   NC341951  12.933   7.057   5.397
 3086POPC   PO441952  12.718   6.418   5.417
 3086POPC   GL141953  12.956   6.593   5.768
 3086POPC   GL241954  13.277   6.783   5.683
 3086POPC   C1A41955  12.856   6.542   6.227
 3086POPC   D2A41956  13.019   6.467   6.656
 3086POPC   C3A41957  12.708   6.512   7.033
 3086POPC   C4A41958  12.368   6.745   7.309
 3086POPC   C1B41959  13.294   6.803   6.154
 3086POPC   C2B41960  13.208   6.949   6.586
 3086POPC   C3B41961  13.204   6.789   7.007
 3086POPC   C4B41962  13.140   6.547   7.376
 3087POPC   NC341963  10.058  34.480   5.315
 3087POPC   PO441964   9.569  34.795   5.491
 3087POPC   GL141965   9.777  34.596   5.841
 3087POPC   GL241966   9.777  34.247   5.728
 3087POPC   C1A41967   9.850  34.700   6.314
 3087POPC   D2A41968   9.996  34.616   6.767
 3087POPC   C3A41969   9.902  34.913   7.097
 3087POPC   C4A41970   9.464  35.016   7.135
 3087POPC   C1B41971   9.803  34.147   6.186
 3087POPC   C2B41972   9.850  33.987   6.632
 3087POPC   C3B41973   9.687  34.092   7.031
 3087POPC   C4B41974   9.688  34.474   7.246
 3088POPC   NC341975  11.873  29.361   5.334
 3088POPC   PO441976  12.557  29.472   5.514
 3088POPC   GL141977  12.305  29.125   5.765
 3088POPC   GL241978  11.958  29.106   5.769
 3088POPC   C1A41979  12.164  29.100   6.232
 3088POPC   D2A41980  12.014  29.295   6.636
 3088POPC   C3A41981  12.213  29.273   7.029
 3088POPC   C4A41982  11.970  29.438   7.311
 3088POPC   C1B41983  11.738  28.858   6.050
 3088POPC   C2B41984  11.738  28.885   6.504
 3088POPC   C3B41985  11.745  29.028   6.988
 3088POPC   C4B41986  11.971  28.840   7.335
 3089POPC   NC341987   0.250   2.744   5.419
 3089POPC   PO441988   0.363   3.388   5.451
 3089POPC   GL141989   0.277   3.103   5.794
 3089POPC   GL241990   0.611   2.967   5.755
 3089POPC   C1A41991   0.284   2.831   6.210
 3089POPC   D2A41992   0.133   2.718   6.679
 3089POPC   C3A41993   0.402   2.500   7.011
 3089POPC   C4A41994   0.720   2.279   7.289
 3089POPC   C1B41995   0.767   3.004   6.206
 3089POPC   C2B41996   0.618   2.870   6.652
 3089POPC   C3B41997   0.396   3.002   7.083
 3089POPC   C4B41998   0.444   3.421   7.313
 3090POPC   NC341999  15.165  38.940   5.490
 3090POPC   PO442000  15.540  38.416   5.332
 3090POPC   GL142001  15.311  38.510   5.752
 3090POPC   GL242002  14.996  38.677   5.887
 3090POPC   C1A42003  15.241  38.345   6.173
 3090POPC   D2A42004  15.043  38.319   6.569
 3090POPC   C3A42005  15.106  38.645   6.859
 3090POPC   C4A42006  14.966  38.463   7.218
 3090POPC   C1B42007  15.083  38.829   6.325
 3090POPC   C2B42008  15.403  38.989   6.603
 3090POPC   C3B42009  15.445  39.037   7.057
 3090POPC   C4B42010  15.197  38.852   7.411
 3091POPC   NC342011  17.353  27.273   5.394
 3091POPC   PO442012  17.680  26.670   5.337
 3091POPC   GL142013  17.605  26.886   5.747
 3091POPC   GL242014  17.339  27.094   5.902
 3091POPC   C1A42015  17.737  26.957   6.193
 3091POPC   D2A42016  17.809  26.797   6.617
 3091POPC   C3A42017  17.822  27.048   7.003
 3091POPC   C4A42018  17.588  27.066   7.381
 3091POPC   C1B42019  17.222  26.844   6.273
 3091POPC   C2B42020  17.295  26.731   6.714
 3091POPC   C3B42021  17.172  26.899   7.124
 3091POPC   C4B42022  17.216  26.802   7.604
 3092POPC   NC342023  23.327  40.953   5.481
 3092POPC   PO442024  23.792  40.510   5.210
 3092POPC   GL142025  23.719  40.447   5.681
 3092POPC   GL242026  23.433  40.533   5.741
 3092POPC   C1A42027  23.869  40.494   6.119
 3092POPC   D2A42028  23.886  40.872   6.382
 3092POPC   C3A42029  23.820  40.849   6.840
 3092POPC   C4A42030  23.847  40.712   7.278
 3092POPC   C1B42031  23.438  40.783   6.130
 3092POPC   C2B42032  23.411  40.700   6.538
 3092POPC   C3B42033  23.317  40.866   6.903
 3092POPC   C4B42034  23.414  41.028   7.230
 3093POPC   NC342035  44.329  10.248   5.704
 3093POPC   PO442036  44.746  10.687   5.286
 3093POPC   GL142037  44.884  10.633   5.748
 3093POPC   GL242038  44.960  10.308   5.846
 3093POPC   C1A42039  44.936  10.740   6.201
 3093POPC   D2A42040  44.857  10.652   6.647
 3093POPC   C3A42041  44.428  10.612   6.821
 3093POPC   C4A42042  44.392  10.828   7.197
 3093POPC   C1B42043  44.727  10.282   6.216
 3093POPC   C2B42044  44.592  10.180   6.581
 3093POPC   C3B42045  44.697  10.093   6.951
 3093POPC   C4B42046  44.682  10.404   7.227
 3094POPC   NC342047  41.732  37.274   5.402
 3094POPC   PO442048  41.297  37.892   5.402
 3094POPC   GL142049  41.488  37.599   5.763
 3094POPC   GL242050  41.852  37.562   5.797
 3094POPC   C1A42051  41.563  37.442   6.213
 3094POPC   D2A42052  41.509  37.412   6.676
 3094POPC   C3A42053  41.432  37.827   6.867
 3094POPC   C4A42054  41.301  37.760   7.277
 3094POPC   C1B42055  41.805  37.894   6.093
 3094POPC   C2B42056  41.822  37.796   6.521
 3094POPC   C3B42057  41.938  37.899   6.928
 3094POPC   C4B42058  41.770  37.600   7.188
 3095POPC   NC342059  13.297  31.666   4.874
 3095POPC   PO442060  12.861  31.586   5.186
 3095POPC   GL142061  12.858  31.417   5.681
 3095POPC   GL242062  12.537  31.368   5.859
 3095POPC   C1A42063  12.900  31.462   6.189
 3095POPC   D2A42064  12.761  31.577   6.634
 3095POPC   C3A42065  12.907  31.374   7.034
 3095POPC   C4A42066  13.188  31.536   7.376
 3095POPC   C1B42067  12.404  31.657   6.214
 3095POPC   C2B42068  12.277  31.731   6.661
 3095POPC   C3B42069  12.462  31.644   7.086
 3095POPC   C4B42070  12.622  31.422   7.453
 3096POPC   NC342071  44.809  24.395   5.423
 3096POPC   PO442072   0.028  24.960   5.454
 3096POPC   GL142073  44.709  24.768   5.762
 3096POPC   GL242074  44.714  24.386   5.908
 3096POPC   C1A42075  44.541  24.795   6.176
 3096POPC   D2A42076  44.404  24.429   6.384
 3096POPC   C3A42077  44.395  24.438   6.809
 3096POPC   C4A42078  44.323  24.560   7.199
 3096POPC   C1B42079  44.892  24.078   6.205
 3096POPC   C2B42080  44.788  24.152   6.645
 3096POPC   C3B42081  44.843  24.354   7.069
 3096POPC   C4B42082   0.127  24.260   7.431
 3097POPC   NC342083  32.076   9.944   5.427
 3097POPC   PO442084  32.451   9.450   5.221
 3097POPC   GL142085  32.193   9.479   5.647
 3097POPC   GL242086  32.250   9.789   5.859
 3097POPC   C1A42087  32.039   9.428   6.129
 3097POPC   D2A42088  32.224   9.383   6.584
 3097POPC   C3A42089  32.105   9.558   6.992
 3097POPC   C4A42090  31.731   9.704   7.241
 3097POPC   C1B42091  31.999   9.957   6.211
 3097POPC   C2B42092  32.099  10.005   6.659
 3097POPC   C3B42093  32.290  10.022   7.080
 3097POPC   C4B42094  32.135   9.923   7.497
 3098POPC   NC342095  29.413  38.297   5.311
 3098POPC   PO442096  28.845  38.699   5.490
 3098POPC   GL142097  29.129  38.434   5.730
 3098POPC   GL242098  29.507  38.523   5.745
 3098POPC   C1A42099  29.231  38.116   6.043
 3098POPC   D2A42100  29.339  38.248   6.468
 3098POPC   C3A42101  29.033  38.309   6.799
 3098POPC   C4A42102  29.157  38.308   7.210
 3098POPC   C1B42103  29.432  38.636   6.144
 3098POPC   C2B42104  29.570  38.735   6.522
 3098POPC   C3B42105  29.556  38.500   6.915
 3098POPC   C4B42106  29.534  38.601   7.362
 3099POPC   NC342107   5.507  11.502   5.408
 3099POPC   PO442108   6.019  11.107   5.548
 3099POPC   GL142109   5.839  11.387   5.810
 3099POPC   GL242110   5.605  11.158   5.922
 3099POPC   C1A42111   5.818  11.595   6.212
 3099POPC   D2A42112   6.007  11.539   6.616
 3099POPC   C3A42113   5.885  11.268   6.937
 3099POPC   C4A42114   5.846  11.405   7.376
 3099POPC   C1B42115   5.732  11.075   6.370
 3099POPC   C2B42116   5.645  10.830   6.750
 3099POPC   C3B42117   5.715  10.878   7.218
 3099POPC   C4B42118   5.562  11.034   7.618
 3100POPC   NC342119  30.139  29.382   5.493
 3100POPC   PO442120  29.512  29.030   5.450
 3100POPC   GL142121  29.718  29.244   5.800
 3100POPC   GL242122  30.038  29.035   5.856
 3100POPC   C1A42123  29.875  29.367   6.227
 3100POPC   D2A42124  30.215  29.236   6.514
 3100POPC   C3A42125  30.172  29.365   6.936
 3100POPC   C4A42126  29.835  29.520   7.193
 3100POPC   C1B42127  29.856  28.664   6.056
 3100POPC   C2B42128  29.914  28.587   6.498
 3100POPC   C3B42129  30.134  28.808   6.841
 3100POPC   C4B42130  30.018  28.996   7.253
 3101POPC   NC342131  14.904  41.375   5.475
 3101POPC   PO442132  15.648  41.456   5.568
 3101POPC   GL142133  15.284  41.550   5.789
 3101POPC   GL242134  15.250  41.187   5.830
 3101POPC   C1A42135  15.115  41.850   6.115
 3101POPC   D2A42136  15.216  42.044   6.528
 3101POPC   C3A42137  15.323  41.833   6.932
 3101POPC   C4A42138  15.203  41.825   7.393
 3101POPC   C1B42139  15.025  41.342   6.188
 3101POPC   C2B42140  15.002  41.573   6.556
 3101POPC   C3B42141  15.023  41.397   6.924
 3101POPC   C4B42142  15.345  41.362   7.161
 3102POPC   NC342143  28.605  28.669   5.360
 3102POPC   PO442144  27.965  28.341   5.355
 3102POPC   GL142145  28.227  28.531   5.716
 3102POPC   GL242146  28.513  28.336   5.768
 3102POPC   C1A42147  28.467  28.661   6.142
 3102POPC   D2A42148  28.627  28.466   6.541
 3102POPC   C3A42149  28.507  28.632   6.940
 3102POPC   C4A42150  28.125  28.519   7.148
 3102POPC   C1B42151  28.575  28.119   6.154
 3102POPC   C2B42152  28.605  27.952   6.593
 3102POPC   C3B42153  28.410  28.108   6.993
 3102POPC   C4B42154  28.502  27.950   7.417
 3103POPC   NC342155  15.110   5.161   5.228
 3103POPC   PO442156  15.526   5.002   5.721
 3103POPC   GL142157  15.195   4.922   5.961
 3103POPC   GL242158  14.889   4.771   5.821
 3103POPC   C1A42159  14.974   5.140   6.250
 3103POPC   D2A42160  15.018   5.409   6.596
 3103POPC   C3A42161  14.945   5.265   6.992
 3103POPC   C4A42162  15.115   5.416   7.343
 3103POPC   C1B42163  14.911   4.627   6.268
 3103POPC   C2B42164  14.972   4.833   6.676
 3103POPC   C3B42165  15.077   4.769   7.120
 3103POPC   C4B42166  15.136   4.928   7.566
 3104POPC   NC342167  33.863  28.889   5.551
 3104POPC   PO442168  33.640  29.504   5.386
 3104POPC   GL142169  33.805  29.372   5.750
 3104POPC   GL242170  33.520  29.166   5.835
 3104POPC   C1A42171  34.079  29.248   6.094
 3104POPC   D2A42172  34.088  29.120   6.516
 3104POPC   C3A42173  33.995  28.974   6.915
 3104POPC   C4A42174  34.095  29.114   7.279
 3104POPC   C1B42175  33.579  29.281   6.271
 3104POPC   C2B42176  33.603  29.243   6.731
 3104POPC   C3B42177  33.764  29.431   7.112
 3104POPC   C4B42178  33.651  29.332   7.575
 3105POPC   NC342179  44.610  27.998   5.178
 3105POPC   PO442180  44.288  28.520   5.431
 3105POPC   GL142181  44.485  28.599   5.851
 3105POPC   GL242182  44.356  28.929   5.995
 3105POPC   C1A42183  44.716  28.337   6.208
 3105POPC   D2A42184  44.813  28.107   6.594
 3105POPC   C3A42185  44.715  28.329   6.920
 3105POPC   C4A42186  44.705  28.252   7.290
 3105POPC   C1B42187  44.312  28.641   6.333
 3105POPC   C2B42188  44.315  28.580   6.764
 3105POPC   C3B42189  44.335  28.587   7.213
 3105POPC   C4B42190  44.326  28.552   7.686
 3106POPC   NC342191  15.639  27.061   5.459
 3106POPC   PO442192  16.129  26.655   5.580
 3106POPC   GL142193  16.019  26.778   5.917
 3106POPC   GL242194  15.670  26.773   5.862
 3106POPC   C1A42195  16.189  26.984   6.259
 3106POPC   D2A42196  15.930  26.982   6.608
 3106POPC   C3A42197  16.127  27.035   6.976
 3106POPC   C4A42198  16.120  26.632   7.126
 3106POPC   C1B42199  15.436  26.779   6.214
 3106POPC   C2B42200  15.441  26.547   6.584
 3106POPC   C3B42201  15.454  26.776   6.942
 3106POPC   C4B42202  15.668  26.744   7.302
 3107POPC   NC342203  40.536   5.681   5.124
 3107POPC   PO442204  41.174   5.765   5.267
 3107POPC   GL142205  40.829   5.889   5.580
 3107POPC   GL242206  40.554   5.662   5.680
 3107POPC   C1A42207  40.801   5.927   6.058
 3107POPC   D2A42208  40.637   5.953   6.491
 3107POPC   C3A42209  40.857   5.840   6.840
 3107POPC   C4A42210  40.891   5.839   7.276
 3107POPC   C1B42211  40.342   5.741   6.133
 3107POPC   C2B42212  40.326   5.536   6.559
 3107POPC   C3B42213  40.510   5.465   6.992
 3107POPC   C4B42214  40.507   5.544   7.466
 3108POPC   NC342215  38.501   3.045   5.419
 3108POPC   PO442216  38.374   2.439   5.321
 3108POPC   GL142217  38.377   2.633   5.766
 3108POPC   GL242218  38.382   2.987   5.894
 3108POPC   C1A42219  38.453   2.560   6.232
 3108POPC   D2A42220  38.719   2.657   6.600
 3108POPC   C3A42221  38.566   2.760   7.036
 3108POPC   C4A42222  38.331   2.813   7.435
 3108POPC   C1B42223  38.645   3.045   6.252
 3108POPC   C2B42224  38.426   3.100   6.652
 3108POPC   C3B42225  38.360   3.233   7.069
 3108POPC   C4B42226  38.682   3.199   7.350
 3109POPC   NC342227  12.155  34.970   5.493
 3109POPC   PO442228  12.200  35.623   5.312
 3109POPC   GL142229  12.166  35.419   5.753
 3109POPC   GL242230  11.879  35.215   5.865
 3109POPC   C1A42231  12.289  35.327   6.206
 3109POPC   D2A42232  12.066  35.327   6.647
 3109POPC   C3A42233  12.090  35.202   7.114
 3109POPC   C4A42234  11.810  34.965   7.437
 3109POPC   C1B42235  11.861  35.597   6.168
 3109POPC   C2B42236  11.969  35.821   6.570
 3109POPC   C3B42237  11.881  35.671   6.991
 3109POPC   C4B42238  12.142  35.665   7.362
 3110POPC   NC342239  42.813  29.850   5.303
 3110POPC   PO442240  42.297  30.225   5.361
 3110POPC   GL142241  42.432  30.008   5.759
 3110POPC   GL242242  42.594  29.649   5.732
 3110POPC   C1A42243  42.432  30.121   6.217
 3110POPC   D2A42244  42.268  30.248   6.620
 3110POPC   C3A42245  42.459  30.091   6.983
 3110POPC   C4A42246  42.365  30.084   7.415
 3110POPC   C1B42247  42.349  29.636   6.113
 3110POPC   C2B42248  42.386  29.729   6.558
 3110POPC   C3B42249  42.364  29.550   6.936
 3110POPC   C4B42250  42.435  29.592   7.338
 3111POPC   NC342251  41.009  38.994   5.564
 3111POPC   PO442252  40.601  38.465   5.496
 3111POPC   GL142253  40.739  38.435   5.885
 3111POPC   GL242254  40.671  38.764   5.932
 3111POPC   C1A42255  40.928  38.183   6.213
 3111POPC   D2A42256  41.211  38.224   6.573
 3111POPC   C3A42257  40.993  38.122   6.964
 3111POPC   C4A42258  40.969  38.426   7.329
 3111POPC   C1B42259  40.780  38.681   6.368
 3111POPC   C2B42260  40.511  38.594   6.742
 3111POPC   C3B42261  40.586  38.711   7.174
 3111POPC   C4B42262  40.510  38.601   7.607
 3112POPC   NC342263  23.003  18.727   5.500
 3112POPC   PO442264  22.726  18.186   5.493
 3112POPC   GL142265  22.825  18.262   5.895
 3112POPC   GL242266  22.770  18.590   5.964
 3112POPC   C1A42267  22.858  18.058   6.287
 3112POPC   D2A42268  22.671  17.906   6.665
 3112POPC   C3A42269  22.789  18.159   7.025
 3112POPC   C4A42270  23.124  18.116   7.325
 3112POPC   C1B42271  23.106  18.498   6.280
 3112POPC   C2B42272  23.177  18.249   6.647
 3112POPC   C3B42273  23.264  18.457   6.993
 3112POPC   C4B42274  22.987  18.650   7.251
 3113POPC   NC342275  31.103  26.308   5.334
 3113POPC   PO442276  31.183  25.645   5.529
 3113POPC   GL142277  31.265  26.001   5.738
 3113POPC   GL242278  31.607  25.955   5.886
 3113POPC   C1A42279  31.222  26.194   6.136
 3113POPC   D2A42280  31.545  26.097   6.434
 3113POPC   C3A42281  31.452  26.169   6.845
 3113POPC   C4A42282  31.167  26.100   7.134
 3113POPC   C1B42283  31.743  25.674   6.224
 3113POPC   C2B42284  31.829  25.668   6.681
 3113POPC   C3B42285  31.852  25.957   7.069
 3113POPC   C4B42286  31.847  25.829   7.524
 3114POPC   NC342287  30.650   5.440   5.077
 3114POPC   PO442288  30.259   5.915   5.365
 3114POPC   GL142289  30.539   5.907   5.766
 3114POPC   GL242290  30.827   6.092   5.781
 3114POPC   C1A42291  30.707   5.814   6.219
 3114POPC   D2A42292  30.548   5.970   6.655
 3114POPC   C3A42293  30.792   5.805   6.988
 3114POPC   C4A42294  31.012   5.615   7.310
 3114POPC   C1B42295  30.927   6.272   6.176
 3114POPC   C2B42296  31.031   6.080   6.559
 3114POPC   C3B42297  30.992   6.284   6.920
 3114POPC   C4B42298  30.709   6.249   7.255
 3115POPC   NC342299  24.916  15.128   5.478
 3115POPC   PO442300  24.257  15.307   5.464
 3115POPC   GL142301  24.518  15.297   5.818
 3115POPC   GL242302  24.522  14.931   5.782
 3115POPC   C1A42303  24.518  15.294   6.266
 3115POPC   D2A42304  24.362  15.047   6.650
 3115POPC   C3A42305  24.529  15.259   6.992
 3115POPC   C4A42306  24.731  15.486   7.305
 3115POPC   C1B42307  24.829  14.877   6.104
 3115POPC   C2B42308  24.861  15.033   6.528
 3115POPC   C3B42309  24.791  14.835   6.893
 3115POPC   C4B42310  24.884  14.961   7.286
 3116POPC   NC342311  12.081  23.403   5.400
 3116POPC   PO442312  11.673  22.900   5.346
 3116POPC   GL142313  11.900  23.063   5.736
 3116POPC   GL242314  12.161  22.865   5.779
 3116POPC   C1A42315  12.045  23.192   6.172
 3116POPC   D2A42316  11.798  23.373   6.512
 3116POPC   C3A42317  11.969  23.263   6.916
 3116POPC   C4A42318  12.159  22.978   7.195
 3116POPC   C1B42319  11.957  22.643   6.136
 3116POPC   C2B42320  11.921  22.837   6.538
 3116POPC   C3B42321  11.741  22.778   6.908
 3116POPC   C4B42322  11.772  22.519   7.219
 3117POPC   NC342323  14.245  15.811   5.318
 3117POPC   PO442324  14.771  16.215   5.456
 3117POPC   GL142325  14.446  16.017   5.740
 3117POPC   GL242326  14.557  15.669   5.688
 3117POPC   C1A42327  14.235  16.058   6.161
 3117POPC   D2A42328  14.370  16.165   6.615
 3117POPC   C3A42329  14.136  16.109   6.978
 3117POPC   C4A42330  14.267  16.316   7.330
 3117POPC   C1B42331  14.520  15.562   6.101
 3117POPC   C2B42332  14.322  15.660   6.473
 3117POPC   C3B42333  14.369  15.676   6.883
 3117POPC   C4B42334  14.460  15.830   7.255
 3118POPC   NC342335  39.911  36.618   5.378
 3118POPC   PO442336  40.534  36.672   5.440
 3118POPC   GL142337  40.237  36.787   5.750
 3118POPC   GL242338  40.094  37.144   5.769
 3118POPC   C1A42339  40.224  36.857   6.193
 3118POPC   D2A42340  39.856  36.982   6.411
 3118POPC   C3A42341  39.887  36.883   6.842
 3118POPC   C4A42342  39.728  36.649   7.188
 3118POPC   C1B42343  40.232  37.370   6.175
 3118POPC   C2B42344  40.230  37.245   6.628
 3118POPC   C3B42345  40.144  37.269   7.070
 3118POPC   C4B42346  40.139  36.930   7.345
 3119POPC   NC342347  10.777  18.481   5.454
 3119POPC   PO442348  10.145  18.339   5.397
 3119POPC   GL142349  10.365  18.315   5.795
 3119POPC   GL242350  10.617  18.026   5.792
 3119POPC   C1A42351  10.274  18.344   6.282
 3119POPC   D2A42352  10.245  18.617   6.698
 3119POPC   C3A42353  10.437  18.520   7.134
 3119POPC   C4A42354  10.629  18.177   7.451
 3119POPC   C1B42355  10.770  18.222   6.157
 3119POPC   C2B42356  10.681  18.080   6.592
 3119POPC   C3B42357  10.836  18.205   6.992
 3119POPC   C4B42358  10.946  18.553   7.260
 3120POPC   NC342359   2.655  28.578   5.448
 3120POPC   PO442360   3.253  28.947   5.561
 3120POPC   GL142361   3.081  28.647   5.935
 3120POPC   GL242362   2.833  28.407   5.891
 3120POPC   C1A42363   2.912  28.586   6.360
 3120POPC   D2A42364   2.730  28.576   6.744
 3120POPC   C3A42365   2.767  28.362   7.126
 3120POPC   C4A42366   2.998  28.372   7.512
 3120POPC   C1B42367   2.507  28.333   6.223
 3120POPC   C2B42368   2.538  28.110   6.634
 3120POPC   C3B42369   2.343  28.040   7.047
 3120POPC   C4B42370   2.139  28.306   7.359
 3121POPC   NC342371   0.770  13.372   5.429
 3121POPC   PO442372   0.238  13.672   5.146
 3121POPC   GL142373   0.337  13.622   5.637
 3121POPC   GL242374   0.452  13.915   5.853
 3121POPC   C1A42375   0.436  13.385   6.029
 3121POPC   D2A42376   0.455  13.171   6.431
 3121POPC   C3A42377   0.267  13.347   6.803
 3121POPC   C4A42378   0.510  13.396   7.152
 3121POPC   C1B42379   0.644  13.809   6.235
 3121POPC   C2B42380   0.662  13.650   6.637
 3121POPC   C3B42381   0.542  13.894   6.983
 3121POPC   C4B42382   0.665  13.848   7.368
 3122POPC   NC342383  18.894  34.101   5.150
 3122POPC   PO442384  19.113  33.590   5.439
 3122POPC   GL142385  18.967  33.896   5.736
 3122POPC   GL242386  19.254  34.066   5.873
 3122POPC   C1A42387  18.896  33.924   6.200
 3122POPC   D2A42388  19.110  34.048   6.586
 3122POPC   C3A42389  18.921  33.884   6.970
 3122POPC   C4A42390  18.686  33.901   7.334
 3122POPC   C1B42391  19.382  33.747   6.195
 3122POPC   C2B42392  19.569  33.540   6.544
 3122POPC   C3B42393  19.474  33.344   6.936
 3122POPC   C4B42394  19.382  33.655   7.231
 3123POPC   NC342395  36.810  17.839   5.551
 3123POPC   PO442396  37.214  18.505   5.522
 3123POPC   GL142397  36.992  18.233   5.809
 3123POPC   GL242398  37.194  17.964   5.869
 3123POPC   C1A42399  36.707  18.137   6.171
 3123POPC   D2A42400  36.692  18.375   6.556
 3123POPC   C3A42401  36.716  18.158   6.956
 3123POPC   C4A42402  36.862  18.383   7.306
 3123POPC   C1B42403  37.087  17.810   6.230
 3123POPC   C2B42404  36.977  17.914   6.599
 3123POPC   C3B42405  37.056  17.722   6.958
 3123POPC   C4B42406  37.022  17.909   7.330
 3124POPC   NC342407  36.413  29.762   5.417
 3124POPC   PO442408  35.934  30.172   5.154
 3124POPC   GL142409  36.040  30.054   5.622
 3124POPC   GL242410  36.044  29.695   5.760
 3124POPC   C1A42411  36.089  30.090   6.103
 3124POPC   D2A42412  35.887  30.183   6.524
 3124POPC   C3A42413  36.113  30.145   6.926
 3124POPC   C4A42414  35.935  29.931   7.261
 3124POPC   C1B42415  36.180  29.481   6.125
 3124POPC   C2B42416  36.227  29.648   6.510
 3124POPC   C3B42417  36.088  29.600   6.893
 3124POPC   C4B42418  36.342  29.602   7.206
 3125POPC   NC342419   3.952  38.335   5.094
 3125POPC   PO442420   4.313  38.843   5.450
 3125POPC   GL142421   4.281  38.490   5.825
 3125POPC   GL242422   3.919  38.403   5.965
 3125POPC   C1A42423   4.318  38.254   6.254
 3125POPC   D2A42424   4.465  38.024   6.640
 3125POPC   C3A42425   4.277  38.094   7.032
 3125POPC   C4A42426   4.419  38.206   7.441
 3125POPC   C1B42427   4.011  38.668   6.316
 3125POPC   C2B42428   4.085  38.502   6.730
 3125POPC   C3B42429   4.205  38.601   7.151
 3125POPC   C4B42430   3.898  38.749   7.399
 3126POPC   NC342431  27.343   0.842   5.527
 3126POPC   PO442432  27.378   1.563   5.612
 3126POPC   GL142433  27.682   1.381   5.875
 3126POPC   GL242434  27.716   1.007   5.886
 3126POPC   C1A42435  27.576   1.279   6.299
 3126POPC   D2A42436  27.796   1.259   6.659
 3126POPC   C3A42437  27.544   1.290   7.014
 3126POPC   C4A42438  27.769   1.217   7.359
 3126POPC   C1B42439  27.535   0.767   6.249
 3126POPC   C2B42440  27.427   0.877   6.700
 3126POPC   C3B42441  27.573   0.774   7.138
 3126POPC   C4B42442  27.640   0.813   7.599
 3127POPC   NC342443  36.658  42.945   5.374
 3127POPC   PO442444  37.157  43.411   5.447
 3127POPC   GL142445  36.870  43.252   5.745
 3127POPC   GL242446  37.019  42.929   5.754
 3127POPC   C1A42447  36.788  43.131   6.177
 3127POPC   D2A42448  36.811  42.887   6.537
 3127POPC   C3A42449  36.873  43.044   6.924
 3127POPC   C4A42450  37.075  43.179   7.308
 3127POPC   C1B42451  37.283  43.080   6.093
 3127POPC   C2B42452  37.333  43.019   6.540
 3127POPC   C3B42453  37.389  42.975   6.957
 3127POPC   C4B42454  37.554  43.006   7.359
 3128POPC   NC342455  29.852  27.811   5.392
 3128POPC   PO442456  30.019  27.176   5.498
 3128POPC   GL142457  29.970  27.548   5.796
 3128POPC   GL242458  30.262  27.773   5.822
 3128POPC   C1A42459  29.784  27.649   6.180
 3128POPC   D2A42460  29.750  27.357   6.500
 3128POPC   C3A42461  29.739  27.543   6.924
 3128POPC   C4A42462  29.790  27.931   7.159
 3128POPC   C1B42463  30.273  27.570   6.226
 3128POPC   C2B42464  30.149  27.674   6.608
 3128POPC   C3B42465  30.248  27.830   6.976
 3128POPC   C4B42466  30.123  27.592   7.303
 3129POPC   NC342467  39.022  34.135   5.278
 3129POPC   PO442468  39.449  33.684   5.438
 3129POPC   GL142469  39.142  33.846   5.712
 3129POPC   GL242470  39.414  33.901   5.917
 3129POPC   C1A42471  38.979  33.706   6.112
 3129POPC   D2A42472  39.117  33.788   6.520
 3129POPC   C3A42473  38.965  33.558   6.856
 3129POPC   C4A42474  38.946  33.714   7.268
 3129POPC   C1B42475  39.499  34.088   6.304
 3129POPC   C2B42476  39.652  33.896   6.669
 3129POPC   C3B42477  39.373  33.828   7.007
 3129POPC   C4B42478  39.378  33.865   7.469
 3130POPC   NC342479  18.087  23.361   5.306
 3130POPC   PO442480  17.926  22.765   5.455
 3130POPC   GL142481  18.150  22.901   5.777
 3130POPC   GL242482  18.061  23.225   5.811
 3130POPC   C1A42483  18.072  22.762   6.181
 3130POPC   D2A42484  18.098  22.480   6.525
 3130POPC   C3A42485  18.221  22.668   6.885
 3130POPC   C4A42486  18.125  22.852   7.256
 3130POPC   C1B42487  18.100  23.273   6.253
 3130POPC   C2B42488  18.366  23.061   6.567
 3130POPC   C3B42489  18.522  23.101   7.006
 3130POPC   C4B42490  18.305  23.320   7.347
 3131POPC   NC342491  35.230  16.519   5.304
 3131POPC   PO442492  35.630  16.235   5.688
 3131POPC   GL142493  35.364  16.637   5.780
 3131POPC   GL242494  35.584  16.887   5.844
 3131POPC   C1A42495  35.136  16.822   6.162
 3131POPC   D2A42496  35.021  16.669   6.585
 3131POPC   C3A42497  35.188  16.749   7.003
 3131POPC   C4A42498  35.365  16.553   7.384
 3131POPC   C1B42499  35.644  16.701   6.220
 3131POPC   C2B42500  35.553  16.705   6.631
 3131POPC   C3B42501  35.689  16.566   6.989
 3131POPC   C4B42502  35.846  16.767   7.365
 3132POPC   NC342503  42.213  27.573   5.299
 3132POPC   PO442504  42.744  27.254   5.515
 3132POPC   GL142505  42.441  27.468   5.825
 3132POPC   GL242506  42.060  27.461   5.823
 3132POPC   C1A42507  42.306  27.518   6.258
 3132POPC   D2A42508  42.139  27.464   6.643
 3132POPC   C3A42509  42.371  27.616   6.969
 3132POPC   C4A42510  42.307  27.329   7.275
 3132POPC   C1B42511  41.915  27.821   6.083
 3132POPC   C2B42512  41.980  27.972   6.508
 3132POPC   C3B42513  41.852  27.806   6.911
 3132POPC   C4B42514  41.961  27.691   7.331
 3133POPC   NC342515  11.188  27.978   5.599
 3133POPC   PO442516  11.685  28.325   5.416
 3133POPC   GL142517  11.465  28.336   5.840
 3133POPC   GL242518  11.060  28.345   5.929
 3133POPC   C1A42519  11.407  28.099   6.230
 3133POPC   D2A42520  11.374  28.317   6.591
 3133POPC   C3A42521  11.447  28.136   6.987
 3133POPC   C4A42522  11.188  28.215   7.296
 3133POPC   C1B42523  10.866  28.177   6.328
 3133POPC   C2B42524  10.900  28.267   6.789
 3133POPC   C3B42525  10.997  28.600   7.040
 3133POPC   C4B42526  10.907  28.600   7.469
 3134POPC   NC342527  30.213  18.015   5.620
 3134POPC   PO442528  29.977  18.470   5.233
 3134POPC   GL142529  29.795  18.344   5.640
 3134POPC   GL242530  29.516  18.125   5.715
 3134POPC   C1A42531  29.750  18.462   6.088
 3134POPC   D2A42532  29.746  18.619   6.499
 3134POPC   C3A42533  29.765  18.398   6.891
 3134POPC   C4A42534  29.909  18.538   7.286
 3134POPC   C1B42535  29.773  17.965   6.093
 3134POPC   C2B42536  29.972  18.116   6.463
 3134POPC   C3B42537  30.198  18.122   6.848
 3134POPC   C4B42538  30.081  18.056   7.289
 3135POPC   NC342539  23.103  30.310   5.449
 3135POPC   PO442540  22.936  30.949   5.679
 3135POPC   GL142541  23.016  30.570   5.912
 3135POPC   GL242542  22.713  30.374   5.809
 3135POPC   C1A42543  23.178  30.722   6.308
 3135POPC   D2A42544  23.226  31.086   6.602
 3135POPC   C3A42545  23.062  30.941   6.953
 3135POPC   C4A42546  23.140  30.735   7.324
 3135POPC   C1B42547  22.515  30.492   6.204
 3135POPC   C2B42548  22.639  30.688   6.610
 3135POPC   C3B42549  22.773  30.531   7.011
 3135POPC   C4B42550  22.652  30.434   7.420
 3136POPC   NC342551  39.221  36.392   5.589
 3136POPC   PO442552  38.879  35.823   5.482
 3136POPC   GL142553  39.043  35.947   5.873
 3136POPC   GL242554  39.421  36.006   5.896
 3136POPC   C1A42555  39.115  35.972   6.324
 3136POPC   D2A42556  38.825  36.187   6.633
 3136POPC   C3A42557  39.016  36.236   7.019
 3136POPC   C4A42558  39.155  35.853   7.155
 3136POPC   C1B42559  39.651  36.084   6.315
 3136POPC   C2B42560  39.557  36.158   6.766
 3136POPC   C3B42561  39.543  36.167   7.222
 3136POPC   C4B42562  39.609  36.322   7.644
 3137POPC   NC342563  20.849  40.616   5.403
 3137POPC   PO442564  20.647  41.277   5.317
 3137POPC   GL142565  20.738  41.045   5.726
 3137POPC   GL242566  20.455  40.805   5.772
 3137POPC   C1A42567  20.718  40.930   6.209
 3137POPC   D2A42568  20.565  41.008   6.671
 3137POPC   C3A42569  20.764  40.929   7.113
 3137POPC   C4A42570  20.641  40.987   7.587
 3137POPC   C1B42571  20.376  40.495   6.125
 3137POPC   C2B42572  20.600  40.389   6.498
 3137POPC   C3B42573  20.529  40.536   6.909
 3137POPC   C4B42574  20.783  40.448   7.297
 3138POPC   NC342575  42.906  41.588   5.228
 3138POPC   PO442576  43.480  41.442   5.494
 3138POPC   GL142577  43.163  41.515   5.791
 3138POPC   GL242578  42.854  41.376   5.729
 3138POPC   C1A42579  43.103  41.668   6.203
 3138POPC   D2A42580  42.967  41.811   6.580
 3138POPC   C3A42581  43.261  41.703   6.835
 3138POPC   C4A42582  43.209  41.698   7.238
 3138POPC   C1B42583  42.963  41.168   6.139
 3138POPC   C2B42584  43.135  41.229   6.548
 3138POPC   C3B42585  43.117  41.051   6.940
 3138POPC   C4B42586  43.105  41.185   7.341
 3139POPC   NC342587  30.965  17.134   5.458
 3139POPC   PO442588  30.983  17.818   5.300
 3139POPC   GL142589  30.707  17.736   5.694
 3139POPC   GL242590  30.711  17.388   5.848
 3139POPC   C1A42591  30.791  17.771   6.170
 3139POPC   D2A42592  30.966  17.574   6.565
 3139POPC   C3A42593  30.736  17.432   6.906
 3139POPC   C4A42594  30.669  17.691   7.226
 3139POPC   C1B42595  30.550  17.299   6.301
 3139POPC   C2B42596  30.289  17.212   6.695
 3139POPC   C3B42597  30.357  17.170   7.168
 3139POPC   C4B42598  30.424  17.139   7.645
 3140POPC   NC342599   8.536  43.144   5.541
 3140POPC   PO442600   8.018  43.479   5.398
 3140POPC   GL142601   8.136  43.319   5.840
 3140POPC   GL242602   8.477  43.451   5.936
 3140POPC   C1A42603   8.079  43.165   6.303
 3140POPC   D2A42604   7.912  43.209   6.747
 3140POPC   C3A42605   8.074  42.950   7.111
 3140POPC   C4A42606   8.070  43.042   7.564
 3140POPC   C1B42607   8.716  43.497   6.303
 3140POPC   C2B42608   8.397  43.452   6.607
 3140POPC   C3B42609   8.339  43.381   7.037
 3140POPC   C4B42610   8.613  43.538   7.357
 3141POPC   NC342611   8.377  44.619   5.105
 3141POPC   PO442612   8.127  44.321   5.623
 3141POPC   GL142613   8.048  44.489   5.995
 3141POPC   GL242614   8.331  44.718   6.025
 3141POPC   C1A42615   8.005  44.544   6.430
 3141POPC   D2A42616   8.326  44.738   6.657
 3141POPC   C3A42617   8.206  44.793   7.092
 3141POPC   C4A42618   8.141  44.989   7.489
 3141POPC   C1B42619   8.509  44.418   6.279
 3141POPC   C2B42620   8.631  44.317   6.670
 3141POPC   C3B42621   8.387  44.334   7.010
 3141POPC   C4B42622   8.566  44.374   7.411
 3142POPC   NC342623  22.289  12.588   5.428
 3142POPC   PO442624  21.915  13.017   5.555
 3142POPC   GL142625  22.101  12.715   5.896
 3142POPC   GL242626  22.451  12.610   5.903
 3142POPC   C1A42627  22.238  12.742   6.361
 3142POPC   D2A42628  22.178  12.750   6.822
 3142POPC   C3A42629  22.007  13.062   7.132
 3142POPC   C4A42630  22.125  13.447   7.384
 3142POPC   C1B42631  22.694  12.488   6.261
 3142POPC   C2B42632  22.740  12.678   6.674
 3142POPC   C3B42633  22.578  12.699   7.110
 3142POPC   C4B42634  22.378  12.863   7.453
 3143POPC   NC342635  37.487  32.395   5.453
 3143POPC   PO442636  38.075  32.314   5.275
 3143POPC   GL142637  37.838  32.134   5.704
 3143POPC   GL242638  37.688  32.413   5.911
 3143POPC   C1A42639  37.708  31.988   6.151
 3143POPC   D2A42640  37.623  32.185   6.537
 3143POPC   C3A42641  37.841  32.137   6.937
 3143POPC   C4A42642  37.757  32.078   7.368
 3143POPC   C1B42643  37.283  32.323   6.122
 3143POPC   C2B42644  37.152  32.383   6.545
 3143POPC   C3B42645  37.301  32.237   6.953
 3143POPC   C4B42646  37.435  32.471   7.323
 3144POPC   NC342647  28.178   0.871   5.504
 3144POPC   PO442648  28.579   1.223   5.682
 3144POPC   GL142649  28.450   1.289   6.072
 3144POPC   GL242650  28.805   1.370   6.102
 3144POPC   C1A42651  28.091   1.054   6.275
 3144POPC   D2A42652  27.932   0.759   6.598
 3144POPC   C3A42653  28.034   0.944   6.987
 3144POPC   C4A42654  28.272   1.085   7.307
 3144POPC   C1B42655  28.795   1.027   6.370
 3144POPC   C2B42656  28.487   1.060   6.660
 3144POPC   C3B42657  28.571   1.339   6.989
 3144POPC   C4B42658  28.706   1.630   7.290
 3145POPC   NC342659  11.065  11.613   5.530
 3145POPC   PO442660  11.554  11.315   5.103
 3145POPC   GL142661  11.467  11.209   5.612
 3145POPC   GL242662  11.121  11.139   5.737
 3145POPC   C1A42663  11.530  11.255   6.128
 3145POPC   D2A42664  11.532  11.524   6.533
 3145POPC   C3A42665  11.453  11.320   6.969
 3145POPC   C4A42666  11.330  11.343   7.426
 3145POPC   C1B42667  11.003  11.140   6.172
 3145POPC   C2B42668  11.065  11.288   6.587
 3145POPC   C3B42669  10.947  11.233   7.006
 3145POPC   C4B42670  10.868  10.982   7.329
 3146POPC   NC342671  25.528  30.294   5.498
 3146POPC   PO442672  25.047  30.778   5.420
 3146POPC   GL142673  25.093  30.626   5.795
 3146POPC   GL242674  25.427  30.650   5.875
 3146POPC   C1A42675  25.014  30.837   6.179
 3146POPC   D2A42676  25.061  30.669   6.565
 3146POPC   C3A42677  25.381  30.754   6.829
 3146POPC   C4A42678  25.284  30.820   7.231
 3146POPC   C1B42679  25.372  30.409   6.251
 3146POPC   C2B42680  25.534  30.281   6.674
 3146POPC   C3B42681  25.639  30.382   7.109
 3146POPC   C4B42682  25.618  30.576   7.516
 3147POPC   NC342683  33.422  42.147   5.618
 3147POPC   PO442684  33.975  42.271   5.223
 3147POPC   GL142685  33.918  42.218   5.727
 3147POPC   GL242686  33.689  42.473   5.928
 3147POPC   C1A42687  34.031  42.218   6.184
 3147POPC   D2A42688  33.802  42.232   6.587
 3147POPC   C3A42689  33.989  42.486   6.926
 3147POPC   C4A42690  33.966  42.377   7.365
 3147POPC   C1B42691  33.296  42.511   6.168
 3147POPC   C2B42692  33.150  42.638   6.558
 3147POPC   C3B42693  33.348  42.503   6.921
 3147POPC   C4B42694  33.443  42.558   7.323
 3148POPC   NC342695  36.276  20.499   5.291
 3148POPC   PO442696  35.759  20.857   5.167
 3148POPC   GL142697  35.795  20.698   5.649
 3148POPC   GL242698  36.013  20.413   5.760
 3148POPC   C1A42699  35.841  20.726   6.150
 3148POPC   D2A42700  35.953  20.929   6.593
 3148POPC   C3A42701  36.154  20.724   6.976
 3148POPC   C4A42702  36.423  20.627   7.369
 3148POPC   C1B42703  36.110  20.284   6.220
 3148POPC   C2B42704  36.138  20.176   6.685
 3148POPC   C3B42705  36.152  20.239   7.156
 3148POPC   C4B42706  36.349  20.134   7.577
 3149POPC   NC342707   5.365  16.325   5.637
 3149POPC   PO442708   4.947  16.023   5.208
 3149POPC   GL142709   4.972  15.949   5.709
 3149POPC   GL242710   4.663  15.724   5.815
 3149POPC   C1A42711   5.142  15.979   6.179
 3149POPC   D2A42712   5.061  15.707   6.565
 3149POPC   C3A42713   5.276  15.787   6.948
 3149POPC   C4A42714   5.299  16.210   7.089
 3149POPC   C1B42715   4.647  15.906   6.263
 3149POPC   C2B42716   4.605  15.929   6.710
 3149POPC   C3B42717   4.826  16.018   7.076
 3149POPC   C4B42718   4.781  16.173   7.516
 3150POPC   NC342719  16.051  20.240   5.420
 3150POPC   PO442720  16.069  19.552   5.483
 3150POPC   GL142721  15.908  19.823   5.855
 3150POPC   GL242722  16.216  19.978   6.018
 3150POPC   C1A42723  15.708  19.778   6.311
 3150POPC   D2A42724  15.758  19.691   6.800
 3150POPC   C3A42725  16.061  19.743   7.212
 3150POPC   C4A42726  15.824  19.702   7.641
 3150POPC   C1B42727  15.873  20.240   6.184
 3150POPC   C2B42728  15.659  20.220   6.598
 3150POPC   C3B42729  15.979  20.149   6.907
 3150POPC   C4B42730  15.994  20.232   7.337
 3151POPC   NC342731  29.662  44.902   5.480
 3151POPC   PO442732  29.253  44.357   5.396
 3151POPC   GL142733  29.024  44.482   5.739
 3151POPC   GL242734  29.095  44.823   5.664
 3151POPC   C1A42735  29.043  44.530   6.196
 3151POPC   D2A42736  29.366  44.687   6.456
 3151POPC   C3A42737  29.419  44.545   6.866
 3151POPC   C4A42738  29.241  44.557   7.256
 3151POPC   C1B42739  28.722  44.867   5.951
 3151POPC   C2B42740  28.722  44.937   6.419
 3151POPC   C3B42741  28.940  44.823   6.823
 3151POPC   C4B42742  28.826  44.893   7.250
 3152POPC   NC342743  24.019  15.619   5.701
 3152POPC   PO442744  23.484  15.976   5.476
 3152POPC   GL142745  23.580  15.944   5.894
 3152POPC   GL242746  23.432  16.308   5.879
 3152POPC   C1A42747  23.782  15.778   6.327
 3152POPC   D2A42748  23.613  15.720   6.712
 3152POPC   C3A42749  23.793  15.704   7.095
 3152POPC   C4A42750  23.556  15.510   7.388
 3152POPC   C1B42751  23.395  16.159   6.296
 3152POPC   C2B42752  23.642  16.208   6.607
 3152POPC   C3B42753  23.612  16.333   6.988
 3152POPC   C4B42754  23.928  16.402   7.235
 3153POPC   NC342755  17.255  36.675   5.519
 3153POPC   PO442756  17.656  37.027   5.153
 3153POPC   GL142757  17.726  36.974   5.611
 3153POPC   GL242758  17.770  36.610   5.647
 3153POPC   C1A42759  17.593  37.098   6.060
 3153POPC   D2A42760  17.513  36.890   6.447
 3153POPC   C3A42761  17.339  37.042   6.836
 3153POPC   C4A42762  17.479  36.984   7.240
 3153POPC   C1B42763  17.808  36.397   6.055
 3153POPC   C2B42764  17.631  36.380   6.452
 3153POPC   C3B42765  17.708  36.600   6.838
 3153POPC   C4B42766  17.679  36.462   7.243
 3154POPC   NC342767  39.709  20.477   5.381
 3154POPC   PO442768  40.286  20.815   5.464
 3154POPC   GL142769  40.132  20.533   5.769
 3154POPC   GL242770  39.809  20.641   5.851
 3154POPC   C1A42771  40.267  20.366   6.170
 3154POPC   D2A42772  40.282  20.604   6.543
 3154POPC   C3A42773  40.194  20.516   6.963
 3154POPC   C4A42774  40.271  20.926   7.156
 3154POPC   C1B42775  39.764  20.389   6.165
 3154POPC   C2B42776  39.827  20.337   6.574
 3154POPC   C3B42777  39.656  20.519   6.928
 3154POPC   C4B42778  39.804  20.757   7.245
 3155POPC   NC342779  11.405  37.319   5.375
 3155POPC   PO442780  11.449  37.887   5.470
 3155POPC   GL142781  11.519  37.573   5.833
 3155POPC   GL242782  11.173  37.399   5.837
 3155POPC   C1A42783  11.661  37.644   6.301
 3155POPC   D2A42784  11.430  37.788   6.679
 3155POPC   C3A42785  11.387  37.658   7.121
 3155POPC   C4A42786  11.343  37.613   7.599
 3155POPC   C1B42787  11.144  37.563   6.295
 3155POPC   C2B42788  11.004  37.498   6.767
 3155POPC   C3B42789  10.911  37.593   7.225
 3155POPC   C4B42790  11.004  37.966   7.475
 3156POPC   NC342791  32.626  43.310   5.403
 3156POPC   PO442792  33.287  43.149   5.193
 3156POPC   GL142793  33.140  43.056   5.668
 3156POPC   GL242794  32.821  43.185   5.847
 3156POPC   C1A42795  33.150  43.008   6.167
 3156POPC   D2A42796  33.303  43.128   6.580
 3156POPC   C3A42797  33.152  42.981   6.955
 3156POPC   C4A42798  32.986  43.152   7.313
 3156POPC   C1B42799  32.834  43.407   6.282
 3156POPC   C2B42800  32.873  43.383   6.745
 3156POPC   C3B42801  32.787  43.574   7.133
 3156POPC   C4B42802  32.716  43.528   7.620
 3157POPC   NC342803  11.670  20.886   5.390
 3157POPC   PO442804  12.389  20.875   5.434
 3157POPC   GL142805  12.170  20.718   5.849
 3157POPC   GL242806  11.813  20.557   5.792
 3157POPC   C1A42807  12.188  20.769   6.347
 3157POPC   D2A42808  12.061  21.099   6.728
 3157POPC   C3A42809  12.136  21.043   7.214
 3157POPC   C4A42810  12.113  20.760   7.623
 3157POPC   C1B42811  11.689  20.738   6.221
 3157POPC   C2B42812  11.821  20.645   6.674
 3157POPC   C3B42813  11.923  20.601   7.129
 3157POPC   C4B42814  11.786  20.388   7.522
 3158POPC   NC342815  10.643   7.028   5.377
 3158POPC   PO442816  10.353   6.439   5.258
 3158POPC   GL142817  10.397   6.566   5.726
 3158POPC   GL242818  10.717   6.703   5.776
 3158POPC   C1A42819  10.420   6.539   6.224
 3158POPC   D2A42820  10.276   6.391   6.679
 3158POPC   C3A42821  10.475   6.465   7.107
 3158POPC   C4A42822  10.520   6.436   7.598
 3158POPC   C1B42823  10.853   6.844   6.191
 3158POPC   C2B42824  10.646   6.855   6.568
 3158POPC   C3B42825  10.782   6.867   6.965
 3158POPC   C4B42826  10.608   6.885   7.359
 3159POPC   NC342827  38.647  16.417   5.281
 3159POPC   PO442828  38.755  17.035   5.404
 3159POPC   GL142829  38.991  16.727   5.709
 3159POPC   GL242830  39.309  16.843   5.845
 3159POPC   C1A42831  39.065  16.567   6.185
 3159POPC   D2A42832  39.216  16.832   6.553
 3159POPC   C3A42833  39.262  16.765   7.027
 3159POPC   C4A42834  39.446  16.748   7.479
 3159POPC   C1B42835  38.934  17.048   6.119
 3159POPC   C2B42836  38.853  17.219   6.568
 3159POPC   C3B42837  38.967  17.216   7.016
 3159POPC   C4B42838  39.021  17.027   7.433
 3160POPC   NC342839  28.848  20.486   5.423
 3160POPC   PO442840  28.223  20.344   5.356
 3160POPC   GL142841  28.406  20.526   5.728
 3160POPC   GL242842  28.299  20.839   5.853
 3160POPC   C1A42843  28.327  20.438   6.177
 3160POPC   D2A42844  28.539  20.367   6.556
 3160POPC   C3A42845  28.268  20.340   6.901
 3160POPC   C4A42846  28.387  20.399   7.290
 3160POPC   C1B42847  28.155  20.937   6.248
 3160POPC   C2B42848  28.063  20.734   6.641
 3160POPC   C3B42849  28.207  20.851   7.063
 3160POPC   C4B42850  28.005  20.998   7.448
 3161POPC   NC342851  33.044  18.022   5.452
 3161POPC   PO442852  32.849  17.414   5.334
 3161POPC   GL142853  32.920  17.449   5.775
 3161POPC   GL242854  32.824  17.130   5.925
 3161POPC   C1A42855  33.140  17.518   6.168
 3161POPC   D2A42856  33.325  17.490   6.570
 3161POPC   C3A42857  33.185  17.468   6.987
 3161POPC   C4A42858  32.930  17.520   7.321
 3161POPC   C1B42859  32.709  17.318   6.360
 3161POPC   C2B42860  32.697  17.376   6.844
 3161POPC   C3B42861  32.504  17.706   7.154
 3161POPC   C4B42862  32.704  17.980   7.498
 3162POPC   NC342863  35.989  14.314   5.423
 3162POPC   PO442864  36.527  14.092   5.261
 3162POPC   GL142865  36.374  14.310   5.744
 3162POPC   GL242866  36.020  14.542   5.869
 3162POPC   C1A42867  36.345  14.405   6.209
 3162POPC   D2A42868  35.977  14.494   6.465
 3162POPC   C3A42869  36.165  14.617   6.843
 3162POPC   C4A42870  36.311  14.442   7.227
 3162POPC   C1B42871  35.776  14.922   6.050
 3162POPC   C2B42872  35.715  14.952   6.504
 3162POPC   C3B42873  35.666  14.702   6.880
 3162POPC   C4B42874  35.883  14.701   7.280
 3163POPC   NC342875  33.264  29.651   5.605
 3163POPC   PO442876  33.077  30.157   5.213
 3163POPC   GL142877  32.924  30.060   5.656
 3163POPC   GL242878  33.216  30.091   5.883
 3163POPC   C1A42879  32.777  29.886   6.089
 3163POPC   D2A42880  32.921  30.001   6.536
 3163POPC   C3A42881  32.808  29.809   6.951
 3163POPC   C4A42882  33.087  29.934   7.312
 3163POPC   C1B42883  33.251  29.749   6.214
 3163POPC   C2B42884  33.405  29.687   6.563
 3163POPC   C3B42885  33.289  29.630   6.943
 3163POPC   C4B42886  33.282  29.381   7.236
 3164POPC   NC342887  23.363   1.088   5.643
 3164POPC   PO442888  22.662   1.120   5.555
 3164POPC   GL142889  22.908   1.051   5.886
 3164POPC   GL242890  23.041   1.366   5.914
 3164POPC   C1A42891  22.831   1.031   6.315
 3164POPC   D2A42892  22.723   1.314   6.629
 3164POPC   C3A42893  22.665   1.097   6.977
 3164POPC   C4A42894  22.982   1.034   7.264
 3164POPC   C1B42895  23.271   1.294   6.310
 3164POPC   C2B42896  23.248   1.540   6.696
 3164POPC   C3B42897  22.968   1.554   7.060
 3164POPC   C4B42898  23.091   1.469   7.507
 3165POPC   NC342899   8.662   8.249   5.542
 3165POPC   PO442900   9.268   8.480   5.266
 3165POPC   GL142901   9.146   8.333   5.745
 3165POPC   GL242902   8.830   8.471   5.941
 3165POPC   C1A42903   9.200   8.174   6.209
 3165POPC   D2A42904   9.085   8.294   6.656
 3165POPC   C3A42905   9.030   7.971   7.014
 3165POPC   C4A42906   8.873   7.871   7.452
 3165POPC   C1B42907   8.628   8.768   6.210
 3165POPC   C2B42908   8.711   8.644   6.619
 3165POPC   C3B42909   8.635   8.326   6.920
 3165POPC   C4B42910   8.445   8.572   7.178
 3166POPC   NC342911  23.613  11.881   5.536
 3166POPC   PO442912  24.176  12.231   5.497
 3166POPC   GL142913  24.026  12.018   5.840
 3166POPC   GL242914  23.760  12.278   5.883
 3166POPC   C1A42915  24.030  12.103   6.285
 3166POPC   D2A42916  23.828  12.341   6.630
 3166POPC   C3A42917  23.888  12.053   6.914
 3166POPC   C4A42918  23.767  11.845   7.226
 3166POPC   C1B42919  23.529  12.141   6.241
 3166POPC   C2B42920  23.347  12.131   6.654
 3166POPC   C3B42921  23.427  12.235   7.083
 3166POPC   C4B42922  23.403  12.501   7.485
 3167POPC   NC342923   2.750  41.586   5.527
 3167POPC   PO442924   2.967  42.164   5.528
 3167POPC   GL142925   3.086  41.821   5.841
 3167POPC   GL242926   2.984  41.435   5.945
 3167POPC   C1A42927   3.032  41.771   6.294
 3167POPC   D2A42928   2.868  41.513   6.620
 3167POPC   C3A42929   2.927  41.580   7.056
 3167POPC   C4A42930   2.608  41.685   7.374
 3167POPC   C1B42931   2.577  41.521   6.162
 3167POPC   C2B42932   2.341  41.393   6.519
 3167POPC   C3B42933   2.444  41.439   6.946
 3167POPC   C4B42934   2.242  41.271   7.288
 3168POPC   NC342935  41.329  28.540   5.588
 3168POPC   PO442936  41.682  28.039   5.440
 3168POPC   GL142937  41.539  28.117   5.840
 3168POPC   GL242938  41.190  28.157   5.895
 3168POPC   C1A42939  41.560  28.181   6.263
 3168POPC   D2A42940  41.586  28.524   6.512
 3168POPC   C3A42941  41.671  28.295   6.833
 3168POPC   C4A42942  41.685  28.290   7.235
 3168POPC   C1B42943  41.151  28.491   6.225
 3168POPC   C2B42944  41.099  28.306   6.636
 3168POPC   C3B42945  41.190  28.349   7.070
 3168POPC   C4B42946  41.229  28.279   7.532
 3169POPC   NC342947   5.948  12.398   5.451
 3169POPC   PO442948   5.451  11.943   5.471
 3169POPC   GL142949   5.638  12.155   5.801
 3169POPC   GL242950   5.896  11.912   5.798
 3169POPC   C1A42951   5.564  12.102   6.239
 3169POPC   D2A42952   5.454  11.813   6.577
 3169POPC   C3A42953   5.652  11.731   6.974
 3169POPC   C4A42954   5.649  11.952   7.370
 3169POPC   C1B42955   6.084  12.035   6.184
 3169POPC   C2B42956   5.938  12.045   6.602
 3169POPC   C3B42957   6.134  11.942   6.992
 3169POPC   C4B42958   6.127  12.247   7.307
 3170POPC   NC342959  44.478  41.194   5.033
 3170POPC   PO442960  44.416  41.568   5.596
 3170POPC   GL142961  44.705  41.607   5.881
 3170POPC   GL242962  44.834  41.941   5.881
 3170POPC   C1A42963  44.612  41.415   6.241
 3170POPC   D2A42964  44.723  41.487   6.609
 3170POPC   C3A42965  44.474  41.234   6.796
 3170POPC   C4A42966  44.451  41.215   7.202
 3170POPC   C1B42967  44.585  41.926   6.271
 3170POPC   C2B42968  44.665  41.972   6.708
 3170POPC   C3B42969  44.585  41.726   7.077
 3170POPC   C4B42970  44.533  41.922   7.498
 3171POPC   NC342971   9.593  29.933   5.357
 3171POPC   PO442972   8.967  29.891   5.261
 3171POPC   GL142973   9.127  29.890   5.676
 3171POPC   GL242974   8.927  30.158   5.777
 3171POPC   C1A42975   9.013  29.761   6.120
 3171POPC   D2A42976   8.712  29.737   6.470
 3171POPC   C3A42977   8.955  29.684   6.841
 3171POPC   C4A42978   9.239  29.794   7.168
 3171POPC   C1B42979   9.188  30.259   6.139
 3171POPC   C2B42980   9.109  30.076   6.545
 3171POPC   C3B42981   9.045  30.218   6.956
 3171POPC   C4B42982   9.284  30.473   7.217
 3172POPC   NC342983  40.160   3.187   5.368
 3172POPC   PO442984  39.967   2.567   5.447
 3172POPC   GL142985  40.093   2.733   5.835
 3172POPC   GL242986  39.992   2.432   5.978
 3172POPC   C1A42987  40.103   2.839   6.288
 3172POPC   D2A42988  40.168   3.130   6.649
 3172POPC   C3A42989  40.070   3.015   7.091
 3172POPC   C4A42990  40.024   3.073   7.560
 3172POPC   C1B42991  39.667   2.532   6.256
 3172POPC   C2B42992  39.460   2.505   6.645
 3172POPC   C3B42993  39.744   2.629   6.953
 3172POPC   C4B42994  40.074   2.533   7.274
 3173POPC   NC342995  23.207  29.491   5.356
 3173POPC   PO442996  22.757  29.995   5.437
 3173POPC   GL142997  22.976  29.937   5.813
 3173POPC   GL242998  23.083  29.612   5.865
 3173POPC   C1A42999  22.901  30.111   6.225
 3173POPC   D2A43000  23.029  30.328   6.603
 3173POPC   C3A43001  22.996  30.072   6.975
 3173POPC   C4A43002  23.124  30.224   7.382
 3173POPC   C1B43003  22.748  29.598   6.198
 3173POPC   C2B43004  22.724  29.727   6.631
 3173POPC   C3B43005  22.779  29.591   7.046
 3173POPC   C4B43006  23.214  29.570   7.178
 3174POPC   NC343007  25.906  11.803   5.211
 3174POPC   PO443008  26.474  11.978   5.506
 3174POPC   GL143009  26.196  12.172   5.794
 3174POPC   GL243010  25.861  12.088   5.702
 3174POPC   C1A43011  26.019  12.264   6.181
 3174POPC   D2A43012  26.157  12.423   6.562
 3174POPC   C3A43013  25.970  12.207   6.875
 3174POPC   C4A43014  26.055  12.236   7.289
 3174POPC   C1B43015  25.989  11.760   6.011
 3174POPC   C2B43016  26.016  11.737   6.457
 3174POPC   C3B43017  25.875  11.594   6.859
 3174POPC   C4B43018  25.824  11.803   7.219
 3175POPC   NC343019  10.949   1.736   5.024
 3175POPC   PO443020  11.276   1.291   5.366
 3175POPC   GL143021  11.276   1.342   5.804
 3175POPC   GL243022  11.598   1.197   5.837
 3175POPC   C1A43023  11.126   1.321   6.227
 3175POPC   D2A43024  11.332   1.255   6.614
 3175POPC   C3A43025  11.070   1.303   6.942
 3175POPC   C4A43026  11.189   1.155   7.326
 3175POPC   C1B43027  11.488   0.967   6.211
 3175POPC   C2B43028  11.180   0.757   6.472
 3175POPC   C3B43029  11.248   0.779   6.927
 3175POPC   C4B43030  11.594   1.068   7.030
 3176POPC   NC343031  42.685  29.058   5.565
 3176POPC   PO443032  42.077  28.923   5.437
 3176POPC   GL143033  42.248  29.177   5.839
 3176POPC   GL243034  42.111  28.963   6.081
 3176POPC   C1A43035  42.560  29.204   6.253
 3176POPC   D2A43036  42.501  29.105   6.714
 3176POPC   C3A43037  42.703  29.195   7.163
 3176POPC   C4A43038  42.666  29.287   7.699
 3176POPC   C1B43039  42.038  29.301   6.385
 3176POPC   C2B43040  41.987  29.222   6.834
 3176POPC   C3B43041  42.228  29.034   7.134
 3176POPC   C4B43042  42.561  28.676   7.049
 3177POPC   NC343043  13.275  10.129   5.617
 3177POPC   PO443044  12.828   9.697   5.259
 3177POPC   GL143045  12.716   9.657   5.766
 3177POPC   GL243046  13.011   9.841   5.944
 3177POPC   C1A43047  12.755   9.548   6.261
 3177POPC   D2A43048  13.123   9.637   6.543
 3177POPC   C3A43049  13.150   9.478   6.991
 3177POPC   C4A43050  12.850   9.191   7.195
 3177POPC   C1B43051  12.823  10.061   6.299
 3177POPC   C2B43052  12.525   9.982   6.625
 3177POPC   C3B43053  12.795   9.822   6.921
 3177POPC   C4B43054  13.150  10.044   7.092
 3178POPC   NC343055  31.736  35.377   5.339
 3178POPC   PO443056  31.152  34.997   5.339
 3178POPC   GL143057  31.363  35.279   5.674
 3178POPC   GL243058  31.196  35.602   5.741
 3178POPC   C1A43059  31.467  35.158   6.120
 3178POPC   D2A43060  31.345  35.048   6.548
 3178POPC   C3A43061  31.564  35.143   6.943
 3178POPC   C4A43062  31.468  35.207   7.365
 3178POPC   C1B43063  31.383  35.659   6.168
 3178POPC   C2B43064  31.478  35.531   6.592
 3178POPC   C3B43065  31.403  35.639   7.034
 3178POPC   C4B43066  31.785  35.589   7.267
 3179POPC   NC343067  29.121  37.349   5.435
 3179POPC   PO443068  29.071  37.993   5.382
 3179POPC   GL143069  28.857  37.757   5.720
 3179POPC   GL243070  29.136  37.597   5.881
 3179POPC   C1A43071  28.791  37.801   6.184
 3179POPC   D2A43072  29.082  37.794   6.547
 3179POPC   C3A43073  28.913  37.840   6.984
 3179POPC   C4A43074  28.877  37.511   7.334
 3179POPC   C1B43075  29.271  37.378   6.244
 3179POPC   C2B43076  29.476  37.387   6.607
 3179POPC   C3B43077  29.267  37.466   6.961
 3179POPC   C4B43078  29.390  37.314   7.370
 3180POPC   NC343079  36.309  25.441   5.401
 3180POPC   PO443080  35.698  25.579   5.562
 3180POPC   GL143081  35.865  25.342   5.905
 3180POPC   GL243082  36.125  25.130   5.772
 3180POPC   C1A43083  35.864  25.320   6.343
 3180POPC   D2A43084  35.770  25.619   6.657
 3180POPC   C3A43085  36.029  25.543   6.991
 3180POPC   C4A43086  36.161  25.223   7.270
 3180POPC   C1B43087  36.335  25.214   6.184
 3180POPC   C2B43088  36.344  25.320   6.633
 3180POPC   C3B43089  36.477  24.979   6.916
 3180POPC   C4B43090  36.595  24.983   7.324
 3181POPC   NC343091  14.837  39.606   5.061
 3181POPC   PO443092  14.976  40.117   5.525
 3181POPC   GL143093  15.276  39.901   5.776
 3181POPC   GL243094  15.032  39.696   5.891
 3181POPC   C1A43095  15.629  39.964   6.097
 3181POPC   D2A43096  15.700  40.164   6.510
 3181POPC   C3A43097  15.391  40.089   6.845
 3181POPC   C4A43098  15.503  40.052   7.277
 3181POPC   C1B43099  15.120  39.900   6.301
 3181POPC   C2B43100  14.942  39.867   6.733
 3181POPC   C3B43101  15.018  39.866   7.215
 3181POPC   C4B43102  14.887  39.711   7.654
 3182POPC   NC343103  25.340  42.942   5.651
 3182POPC   PO443104  25.400  43.620   5.430
 3182POPC   GL143105  25.367  43.428   5.814
 3182POPC   GL243106  25.019  43.351   5.844
 3182POPC   C1A43107  25.355  43.271   6.233
 3182POPC   D2A43108  25.517  43.084   6.591
 3182POPC   C3A43109  25.344  43.206   6.977
 3182POPC   C4A43110  25.370  42.923   7.318
 3182POPC   C1B43111  24.847  43.193   6.247
 3182POPC   C2B43112  24.898  42.918   6.611
 3182POPC   C3B43113  24.865  42.929   7.066
 3182POPC   C4B43114  24.968  43.234   7.376
 3183POPC   NC343115  16.897   5.233   5.180
 3183POPC   PO443116  16.439   4.770   5.160
 3183POPC   GL143117  16.482   4.916   5.620
 3183POPC   GL243118  16.801   5.096   5.720
 3183POPC   C1A43119  16.515   4.872   6.105
 3183POPC   D2A43120  16.737   4.942   6.524
 3183POPC   C3A43121  16.510   5.135   6.874
 3183POPC   C4A43122  16.528   5.024   7.302
 3183POPC   C1B43123  16.788   5.314   6.157
 3183POPC   C2B43124  16.754   5.504   6.542
 3183POPC   C3B43125  16.871   5.530   6.921
 3183POPC   C4B43126  16.647   5.499   7.272
 3184POPC   NC343127  38.442  40.362   5.340
 3184POPC   PO443128  38.788  39.818   5.175
 3184POPC   GL143129  38.726  39.823   5.654
 3184POPC   GL243130  38.487  40.084   5.763
 3184POPC   C1A43131  38.664  39.792   6.133
 3184POPC   D2A43132  38.346  39.836   6.471
 3184POPC   C3A43133  38.500  39.824   6.903
 3184POPC   C4A43134  38.525  40.053   7.273
 3184POPC   C1B43135  38.411  40.272   6.169
 3184POPC   C2B43136  38.394  40.540   6.527
 3184POPC   C3B43137  38.375  40.426   6.955
 3184POPC   C4B43138  38.212  40.434   7.393
 3185POPC   NC343139  19.570  19.863   5.353
 3185POPC   PO443140  20.066  19.537   5.366
 3185POPC   GL143141  19.862  19.665   5.771
 3185POPC   GL243142  20.077  19.869   5.974
 3185POPC   C1A43143  19.768  19.555   6.222
 3185POPC   D2A43144  19.661  19.763   6.596
 3185POPC   C3A43145  19.879  19.732   6.959
 3185POPC   C4A43146  19.582  19.507   7.208
 3185POPC   C1B43147  19.890  20.099   6.284
 3185POPC   C2B43148  19.937  20.200   6.707
 3185POPC   C3B43149  19.578  20.154   6.974
 3185POPC   C4B43150  19.701  20.001   7.339
 3186POPC   NC343151  22.285  18.602   5.420
 3186POPC   PO443152  21.840  18.154   5.058
 3186POPC   GL143153  21.947  18.197   5.579
 3186POPC   GL243154  22.289  18.255   5.778
 3186POPC   C1A43155  21.883  18.200   6.078
 3186POPC   D2A43156  21.992  18.428   6.484
 3186POPC   C3A43157  22.252  18.214   6.816
 3186POPC   C4A43158  22.251  18.086   7.250
 3186POPC   C1B43159  22.400  18.258   6.219
 3186POPC   C2B43160  22.657  18.442   6.564
 3186POPC   C3B43161  22.567  18.619   6.965
 3186POPC   C4B43162  22.527  18.504   7.390
 3187POPC   NC343163   3.052  38.170   5.319
 3187POPC   PO443164   2.600  38.642   5.365
 3187POPC   GL143165   2.670  38.370   5.709
 3187POPC   GL243166   3.005  38.398   5.829
 3187POPC   C1A43167   2.601  38.360   6.166
 3187POPC   D2A43168   2.700  38.525   6.559
 3187POPC   C3A43169   2.445  38.471   6.886
 3187POPC   C4A43170   2.533  38.307   7.286
 3187POPC   C1B43171   3.105  38.604   6.247
 3187POPC   C2B43172   3.161  38.700   6.710
 3187POPC   C3B43173   2.972  38.509   7.089
 3187POPC   C4B43174   3.158  38.178   7.376
 3188POPC   NC343175  44.124  16.238   5.389
 3188POPC   PO443176  43.477  15.965   5.283
 3188POPC   GL143177  43.777  15.978   5.654
 3188POPC   GL243178  43.830  16.310   5.800
 3188POPC   C1A43179  43.947  15.895   6.095
 3188POPC   D2A43180  43.797  15.895   6.550
 3188POPC   C3A43181  43.999  15.767   6.968
 3188POPC   C4A43182  43.881  15.784   7.431
 3188POPC   C1B43183  44.042  16.371   6.242
 3188POPC   C2B43184  44.186  16.219   6.695
 3188POPC   C3B43185  44.105  16.218   7.193
 3188POPC   C4B43186  43.996  16.303   7.642
 3189POPC   NC343187  34.803  28.610   5.636
 3189POPC   PO443188  34.359  28.140   5.283
 3189POPC   GL143189  34.414  28.258   5.746
 3189POPC   GL243190  34.400  28.538   5.924
 3189POPC   C1A43191  34.327  28.086   6.184
 3189POPC   D2A43192  34.545  28.057   6.591
 3189POPC   C3A43193  34.318  28.032   6.962
 3189POPC   C4A43194  34.239  28.190   7.390
 3189POPC   C1B43195  34.713  28.423   6.257
 3189POPC   C2B43196  35.047  28.456   6.535
 3189POPC   C3B43197  34.982  28.559   6.943
 3189POPC   C4B43198  34.611  28.412   7.136
 3190POPC   NC343199  31.169  20.375   5.323
 3190POPC   PO443200  31.696  20.783   5.395
 3190POPC   GL143201  31.684  20.661   5.831
 3190POPC   GL243202  31.475  20.386   5.751
 3190POPC   C1A43203  31.657  20.436   6.255
 3190POPC   D2A43204  31.616  20.328   6.715
 3190POPC   C3A43205  31.723  20.637   7.045
 3190POPC   C4A43206  31.665  20.937   7.385
 3190POPC   C1B43207  31.171  20.469   6.089
 3190POPC   C2B43208  31.043  20.339   6.545
 3190POPC   C3B43209  31.188  20.334   6.994
 3190POPC   C4B43210  31.275  20.597   7.370
 3191POPC   NC343211  35.907  39.911   5.390
 3191POPC   PO443212  36.407  40.281   5.422
 3191POPC   GL143213  36.144  40.137   5.792
 3191POPC   GL243214  35.869  40.337   5.841
 3191POPC   C1A43215  36.064  39.837   6.154
 3191POPC   D2A43216  35.973  39.632   6.575
 3191POPC   C3A43217  36.225  39.806   6.911
 3191POPC   C4A43218  36.279  39.680   7.329
 3191POPC   C1B43219  35.696  40.184   6.212
 3191POPC   C2B43220  35.930  40.152   6.557
 3191POPC   C3B43221  35.771  40.004   6.903
 3191POPC   C4B43222  35.942  40.052   7.266
 3192POPC   NC343223  39.044  37.434   5.347
 3192POPC   PO443224  39.597  37.690   5.460
 3192POPC   GL143225  39.262  37.664   5.753
 3192POPC   GL243226  39.093  37.962   5.855
 3192POPC   C1A43227  39.220  37.481   6.154
 3192POPC   D2A43228  39.049  37.518   6.566
 3192POPC   C3A43229  39.306  37.631   6.921
 3192POPC   C4A43230  39.277  37.460   7.353
 3192POPC   C1B43231  39.123  37.962   6.290
 3192POPC   C2B43232  39.015  38.025   6.698
 3192POPC   C3B43233  39.045  38.018   7.127
 3192POPC   C4B43234  39.427  37.935   7.357
 3193POPC   NC343235  11.882  37.840   5.596
 3193POPC   PO443236  12.175  38.359   5.340
 3193POPC   GL143237  12.147  38.512   5.787
 3193POPC   GL243238  11.799  38.579   5.907
 3193POPC   C1A43239  12.228  38.609   6.234
 3193POPC   D2A43240  12.218  38.711   6.656
 3193POPC   C3A43241  11.946  38.511   6.922
 3193POPC   C4A43242  11.861  38.460   7.343
 3193POPC   C1B43243  11.917  38.211   6.178
 3193POPC   C2B43244  11.865  38.062   6.607
 3193POPC   C3B43245  11.708  38.059   7.038
 3193POPC   C4B43246  11.500  38.111   7.439
 3194POPC   NC343247  30.406  20.999   5.495
 3194POPC   PO443248  30.721  20.437   5.236
 3194POPC   GL143249  30.768  20.423   5.698
 3194POPC   GL243250  30.456  20.600   5.808
 3194POPC   C1A43251  30.682  20.339   6.166
 3194POPC   D2A43252  30.488  20.570   6.543
 3194POPC   C3A43253  30.695  20.475   6.941
 3194POPC   C4A43254  30.722  20.257   7.338
 3194POPC   C1B43255  30.481  20.931   6.160
 3194POPC   C2B43256  30.389  21.089   6.606
 3194POPC   C3B43257  30.350  20.855   7.003
 3194POPC   C4B43258  30.527  20.733   7.412
 3195POPC   NC343259  17.814   0.494   5.509
 3195POPC   PO443260  17.191   0.087   5.438
 3195POPC   GL143261  17.377   0.312   5.830
 3195POPC   GL243262  17.139   0.608   5.842
 3195POPC   C1A43263  17.607   0.400   6.271
 3195POPC   D2A43264  17.521   0.544   6.726
 3195POPC   C3A43265  17.743   0.524   7.134
 3195POPC   C4A43266  17.712   0.231   7.497
 3195POPC   C1B43267  17.081   0.447   6.280
 3195POPC   C2B43268  17.024   0.532   6.723
 3195POPC   C3B43269  17.205   0.808   7.077
 3195POPC   C4B43270  17.343   0.628   7.486
 3196POPC   NC343271  23.066  32.704   5.368
 3196POPC   PO443272  23.288  33.418   5.380
 3196POPC   GL143273  23.073  33.116   5.741
 3196POPC   GL243274  23.141  32.764   5.871
 3196POPC   C1A43275  22.974  33.066   6.226
 3196POPC   D2A43276  22.683  33.118   6.588
 3196POPC   C3A43277  22.883  33.286   6.963
 3196POPC   C4A43278  22.785  33.316   7.381
 3196POPC   C1B43279  23.292  32.527   6.238
 3196POPC   C2B43280  23.399  32.648   6.658
 3196POPC   C3B43281  23.362  32.560   7.076
 3196POPC   C4B43282  23.242  32.624   7.462
 3197POPC   NC343283  26.927  35.188   5.396
 3197POPC   PO443284  26.689  35.828   5.373
 3197POPC   GL143285  26.647  35.483   5.697
 3197POPC   GL243286  26.913  35.634   5.872
 3197POPC   C1A43287  26.730  35.171   6.072
 3197POPC   D2A43288  26.664  35.225   6.536
 3197POPC   C3A43289  26.924  35.167   6.890
 3197POPC   C4A43290  26.720  35.223   7.273
 3197POPC   C1B43291  26.816  35.652   6.317
 3197POPC   C2B43292  26.887  35.670   6.737
 3197POPC   C3B43293  26.919  35.670   7.168
 3197POPC   C4B43294  26.852  35.742   7.598
 3198POPC   NC343295  29.810   2.229   5.615
 3198POPC   PO443296  30.012   1.666   5.382
 3198POPC   GL143297  29.885   1.712   5.789
 3198POPC   GL243298  29.559   1.818   5.794
 3198POPC   C1A43299  29.971   1.794   6.246
 3198POPC   D2A43300  30.040   1.783   6.713
 3198POPC   C3A43301  30.181   1.971   7.123
 3198POPC   C4A43302  30.017   1.934   7.565
 3198POPC   C1B43303  29.510   2.011   6.192
 3198POPC   C2B43304  29.687   2.211   6.548
 3198POPC   C3B43305  29.685   2.065   6.962
 3198POPC   C4B43306  29.561   1.986   7.362
 3199POPC   NC343307  35.416  44.138   5.537
 3199POPC   PO443308  34.957  43.522   5.471
 3199POPC   GL143309  35.196  43.772   5.809
 3199POPC   GL243310  35.042  44.083   5.901
 3199POPC   C1A43311  35.474  43.703   6.186
 3199POPC   D2A43312  35.655  43.546   6.577
 3199POPC   C3A43313  35.524  43.631   6.977
 3199POPC   C4A43314  35.457  43.813   7.402
 3199POPC   C1B43315  35.233  44.132   6.273
 3199POPC   C2B43316  35.536  44.040   6.612
 3199POPC   C3B43317  35.363  44.106   7.006
 3199POPC   C4B43318  35.098  44.208   7.372
 3200POPC   NC343319   3.971  18.426   5.363
 3200POPC   PO443320   3.458  18.080   5.259
 3200POPC   GL143321   3.580  18.225   5.681
 3200POPC   GL243322   3.876  18.082   5.783
 3200POPC   C1A43323   3.591  18.391   6.135
 3200POPC   D2A43324   3.395  18.307   6.547
 3200POPC   C3A43325   3.558  18.401   6.954
 3200POPC   C4A43326   3.303  18.237   7.284
 3200POPC   C1B43327   3.792  17.923   6.184
 3200POPC   C2B43328   3.874  18.127   6.583
 3200POPC   C3B43329   3.891  18.028   7.035
 3200POPC   C4B43330   3.991  18.378   7.267
 3201POPC   NC343331  25.502  38.366   5.120
 3201POPC   PO443332  25.033  38.725   5.351
 3201POPC   GL143333  25.175  38.426   5.669
 3201POPC   GL243334  24.882  38.181   5.689
 3201POPC   C1A43335  25.411  38.458   6.079
 3201POPC   D2A43336  25.350  38.575   6.496
 3201POPC   C3A43337  25.528  38.438   6.870
 3201POPC   C4A43338  25.417  38.643   7.263
 3201POPC   C1B43339  24.879  38.420   6.094
 3201POPC   C2B43340  24.890  38.302   6.529
 3201POPC   C3B43341  25.002  38.513   6.907
 3201POPC   C4B43342  24.999  38.358   7.315
 3202POPC   NC343343  41.642   4.653   5.337
 3202POPC   PO443344  41.762   4.045   5.368
 3202POPC   GL143345  41.616   4.305   5.712
 3202POPC   GL243346  41.275   4.378   5.589
 3202POPC   C1A43347  41.718   4.266   6.155
 3202POPC   D2A43348  41.761   4.309   6.596
 3202POPC   C3A43349  41.760   4.034   6.954
 3202POPC   C4A43350  41.644   4.199   7.347
 3202POPC   C1B43351  41.195   4.386   6.049
 3202POPC   C2B43352  41.231   4.367   6.505
 3202POPC   C3B43353  41.405   4.475   6.935
 3202POPC   C4B43354  41.274   4.580   7.378
 3203POPC   NC343355  27.763   7.970   5.467
 3203POPC   PO443356  27.635   7.367   5.486
 3203POPC   GL143357  27.623   7.348   5.899
 3203POPC   GL243358  27.335   7.577   5.851
 3203POPC   C1A43359  27.930   7.456   6.228
 3203POPC   D2A43360  28.097   7.429   6.654
 3203POPC   C3A43361  27.908   7.614   7.059
 3203POPC   C4A43362  27.817   7.754   7.519
 3203POPC   C1B43363  27.443   7.639   6.266
 3203POPC   C2B43364  27.570   7.416   6.619
 3203POPC   C3B43365  27.414   7.696   6.907
 3203POPC   C4B43366  27.347   7.622   7.308
 3204POPC   NC343367  44.032  43.467   5.394
 3204POPC   PO443368  43.558  44.078   5.395
 3204POPC   GL143369  43.832  44.019   5.767
 3204POPC   GL243370  43.917  43.689   5.829
 3204POPC   C1A43371  43.992  44.056   6.192
 3204POPC   D2A43372  43.848  43.961   6.586
 3204POPC   C3A43373  43.976  44.078   6.987
 3204POPC   C4A43374  43.660  43.948   7.243
 3204POPC   C1B43375  43.730  43.582   6.211
 3204POPC   C2B43376  43.775  43.440   6.643
 3204POPC   C3B43377  43.568  43.467   7.055
 3204POPC   C4B43378  43.328  43.618   7.433
 3205POPC   NC343379  44.102  20.641   5.388
 3205POPC   PO443380  43.613  20.962   5.598
 3205POPC   GL143381  43.761  20.594   5.789
 3205POPC   GL243382  43.699  20.253   5.614
 3205POPC   C1A43383  43.818  20.624   6.220
 3205POPC   D2A43384  43.638  20.725   6.600
 3205POPC   C3A43385  43.950  20.687   6.906
 3205POPC   C4A43386  43.800  20.798   7.312
 3205POPC   C1B43387  43.763  20.125   6.060
 3205POPC   C2B43388  43.710  20.169   6.530
 3205POPC   C3B43389  43.736  20.178   6.999
 3205POPC   C4B43390  44.084  20.340   7.247
 3206POPC   NC343391  18.044  24.622   4.953
 3206POPC   PO443392  18.499  24.596   5.457
 3206POPC   GL143393  18.269  24.553   5.832
 3206POPC   GL243394  18.293  24.183   5.795
 3206POPC   C1A43395  18.378  24.713   6.267
 3206POPC   D2A43396  18.577  24.558   6.640
 3206POPC   C3A43397  18.346  24.656   6.977
 3206POPC   C4A43398  18.453  24.828   7.334
 3206POPC   C1B43399  17.983  24.264   6.148
 3206POPC   C2B43400  18.086  24.383   6.570
 3206POPC   C3B43401  18.082  24.232   6.973
 3206POPC   C4B43402  18.247  24.352   7.388
 3207POPC   NC343403  18.107   1.181   5.391
 3207POPC   PO443404  18.380   1.798   5.555
 3207POPC   GL143405  18.296   1.428   5.831
 3207POPC   GL243406  18.455   1.115   5.791
 3207POPC   C1A43407  18.230   1.268   6.275
 3207POPC   D2A43408  18.171   1.169   6.725
 3207POPC   C3A43409  18.203   1.484   7.052
 3207POPC   C4A43410  17.810   1.537   7.256
 3207POPC   C1B43411  18.634   0.966   6.178
 3207POPC   C2B43412  18.581   0.847   6.616
 3207POPC   C3B43413  18.536   1.012   7.042
 3207POPC   C4B43414  18.103   1.027   7.257
 3208POPC   NC343415  39.579  43.948   5.390
 3208POPC   PO443416  39.203  43.525   5.508
 3208POPC   GL143417  39.372  43.774   5.820
 3208POPC   GL243418  39.251  44.110   5.732
 3208POPC   C1A43419  39.209  43.880   6.189
 3208POPC   D2A43420  38.988  43.910   6.554
 3208POPC   C3A43421  39.181  43.870   6.955
 3208POPC   C4A43422  38.922  43.963   7.290
 3208POPC   C1B43423  39.466  44.314   6.089
 3208POPC   C2B43424  39.451  44.179   6.540
 3208POPC   C3B43425  39.297  44.358   6.936
 3208POPC   C4B43426  39.339  44.234   7.357
 3209POPC   NC343427  42.490   5.181   5.387
 3209POPC   PO443428  42.053   4.720   5.563
 3209POPC   GL143429  42.349   4.984   5.861
 3209POPC   GL243430  42.460   5.337   5.870
 3209POPC   C1A43431  42.319   5.087   6.315
 3209POPC   D2A43432  42.094   5.299   6.660
 3209POPC   C3A43433  42.086   5.060   7.049
 3209POPC   C4A43434  42.119   5.043   7.488
 3209POPC   C1B43435  42.616   5.503   6.260
 3209POPC   C2B43436  42.590   5.357   6.714
 3209POPC   C3B43437  42.479   5.397   7.145
 3209POPC   C4B43438  42.514   5.325   7.631
 3210POPC   NC343439   4.364  36.325   5.222
 3210POPC   PO443440   4.459  37.000   5.407
 3210POPC   GL143441   4.344  37.011   5.823
 3210POPC   GL243442   4.051  36.860   5.926
 3210POPC   C1A43443   4.452  36.752   6.214
 3210POPC   D2A43444   4.286  36.654   6.600
 3210POPC   C3A43445   4.396  36.761   6.996
 3210POPC   C4A43446   4.546  36.503   7.311
 3210POPC   C1B43447   3.945  37.143   6.219
 3210POPC   C2B43448   3.967  37.158   6.660
 3210POPC   C3B43449   3.920  37.016   7.075
 3210POPC   C4B43450   4.128  37.265   7.365
 3211POPC   NC343451  32.071  34.607   5.482
 3211POPC   PO443452  32.656  34.905   5.625
 3211POPC   GL143453  32.324  34.758   5.911
 3211POPC   GL243454  32.200  34.412   5.939
 3211POPC   C1A43455  32.159  34.736   6.342
 3211POPC   D2A43456  32.212  34.481   6.711
 3211POPC   C3A43457  32.104  34.727   7.069
 3211POPC   C4A43458  31.988  34.984   7.398
 3211POPC   C1B43459  32.541  34.293   6.262
 3211POPC   C2B43460  32.677  34.198   6.724
 3211POPC   C3B43461  32.590  34.525   7.059
 3211POPC   C4B43462  32.403  34.645   7.466
 3212POPC   NC343463  25.669  44.112   5.385
 3212POPC   PO443464  26.212  43.714   5.306
 3212POPC   GL143465  26.295  43.679   5.721
 3212POPC   GL243466  26.435  43.368   5.755
 3212POPC   C1A43467  26.106  43.796   6.116
 3212POPC   D2A43468  25.783  43.990   6.392
 3212POPC   C3A43469  25.842  43.953   6.841
 3212POPC   C4A43470  25.764  44.088   7.259
 3212POPC   C1B43471  26.329  43.322   6.179
 3212POPC   C2B43472  26.269  43.542   6.560
 3212POPC   C3B43473  26.419  43.614   6.962
 3212POPC   C4B43474  26.296  44.002   7.152
 3213POPC   NC343475  12.110   8.732   5.512
 3213POPC   PO443476  11.880   9.397   5.372
 3213POPC   GL143477  11.832   9.118   5.721
 3213POPC   GL243478  12.175   9.176   5.763
 3213POPC   C1A43479  11.925   8.904   6.131
 3213POPC   D2A43480  12.010   9.050   6.527
 3213POPC   C3A43481  12.175   8.836   6.851
 3213POPC   C4A43482  12.092   9.075   7.216
 3213POPC   C1B43483  12.334   9.295   6.117
 3213POPC   C2B43484  12.523   9.136   6.485
 3213POPC   C3B43485  12.450   9.269   6.886
 3213POPC   C4B43486  12.430   9.468   7.282
 3214POPC   NC343487  15.506  37.206   5.450
 3214POPC   PO443488  15.239  36.540   5.274
 3214POPC   GL143489  15.042  36.627   5.706
 3214POPC   GL243490  14.946  36.985   5.724
 3214POPC   C1A43491  15.217  36.603   6.163
 3214POPC   D2A43492  15.465  36.560   6.564
 3214POPC   C3A43493  15.224  36.431   6.925
 3214POPC   C4A43494  15.031  36.598   7.278
 3214POPC   C1B43495  15.241  37.120   6.043
 3214POPC   C2B43496  15.337  37.137   6.470
 3214POPC   C3B43497  15.353  37.187   6.902
 3214POPC   C4B43498  15.193  37.112   7.330
 3215POPC   NC343499  30.208  20.421   5.054
 3215POPC   PO443500  29.898  20.962   5.362
 3215POPC   GL143501  29.970  20.825   5.801
 3215POPC   GL243502  29.963  20.449   5.868
 3215POPC   C1A43503  29.772  20.774   6.231
 3215POPC   D2A43504  29.983  20.765   6.635
 3215POPC   C3A43505  29.820  20.800   7.060
 3215POPC   C4A43506  30.048  20.520   7.358
 3215POPC   C1B43507  29.675  20.257   6.166
 3215POPC   C2B43508  29.599  20.385   6.583
 3215POPC   C3B43509  29.827  20.290   6.943
 3215POPC   C4B43510  29.886  19.941   7.201
 3216POPC   NC343511   1.128   2.905   5.423
 3216POPC   PO443512   0.656   2.534   5.457
 3216POPC   GL143513   0.947   2.593   5.859
 3216POPC   GL243514   1.277   2.777   5.904
 3216POPC   C1A43515   0.975   2.566   6.350
 3216POPC   D2A43516   0.858   2.422   6.783
 3216POPC   C3A43517   0.872   2.745   7.085
 3216POPC   C4A43518   1.232   2.965   7.206
 3216POPC   C1B43519   1.444   2.774   6.344
 3216POPC   C2B43520   1.354   2.571   6.754
 3216POPC   C3B43521   1.308   2.447   7.179
 3216POPC   C4B43522   1.530   2.648   7.514
 3217POPC   NC343523  26.521  26.830   5.446
 3217POPC   PO443524  27.163  26.793   5.138
 3217POPC   GL143525  27.258  26.711   5.775
 3217POPC   GL243526  26.913  26.806   5.941
 3217POPC   C1A43527  27.347  26.859   6.190
 3217POPC   D2A43528  27.127  26.729   6.542
 3217POPC   C3A43529  26.975  26.969   6.884
 3217POPC   C4A43530  26.904  26.858   7.307
 3217POPC   C1B43531  26.693  26.605   6.288
 3217POPC   C2B43532  26.698  26.521   6.722
 3217POPC   C3B43533  26.505  26.765   7.014
 3217POPC   C4B43534  26.514  27.188   7.160
 3218POPC   NC343535  44.940  36.227   5.412
 3218POPC   PO443536  44.385  36.594   5.554
 3218POPC   GL143537  44.569  36.262   5.799
 3218POPC   GL243538  44.882  36.054   5.885
 3218POPC   C1A43539  44.758  36.416   6.193
 3218POPC   D2A43540  44.733  36.630   6.575
 3218POPC   C3A43541  44.694  36.337   6.902
 3218POPC   C4A43542  44.743  36.453   7.322
 3218POPC   C1B43543  44.542  35.949   6.200
 3218POPC   C2B43544  44.528  35.807   6.648
 3218POPC   C3B43545  44.622  35.850   7.086
 3218POPC   C4B43546  44.986  36.010   7.268
 3219POPC   NC343547  18.454  41.088   5.699
 3219POPC   PO443548  18.831  41.649   5.499
 3219POPC   GL143549  18.436  41.593   5.818
 3219POPC   GL243550  18.085  41.440   5.775
 3219POPC   C1A43551  18.428  41.822   6.210
 3219POPC   D2A43552  18.509  41.824   6.663
 3219POPC   C3A43553  18.336  41.504   6.948
 3219POPC   C4A43554  18.291  41.513   7.382
 3219POPC   C1B43555  18.062  41.479   6.238
 3219POPC   C2B43556  17.983  41.722   6.626
 3219POPC   C3B43557  17.695  41.612   6.971
 3219POPC   C4B43558  17.792  41.620   7.417
 3220POPC   NC343559  16.711  28.320   5.383
 3220POPC   PO443560  16.600  27.774   5.684
 3220POPC   GL143561  16.849  28.054   5.927
 3220POPC   GL243562  16.764  28.397   5.918
 3220POPC   C1A43563  16.809  28.047   6.340
 3220POPC   D2A43564  16.663  28.213   6.670
 3220POPC   C3A43565  16.828  28.147   7.056
 3220POPC   C4A43566  16.522  28.280   7.339
 3220POPC   C1B43567  16.928  28.550   6.326
 3220POPC   C2B43568  16.890  28.671   6.764
 3220POPC   C3B43569  16.948  28.630   7.213
 3220POPC   C4B43570  17.171  28.757   7.602
 3221POPC   NC343571  35.388  10.055   5.479
 3221POPC   PO443572  35.219  10.785   5.448
 3221POPC   GL143573  35.224  10.631   5.864
 3221POPC   GL243574  35.452  10.386   5.867
 3221POPC   C1A43575  35.355  10.613   6.315
 3221POPC   D2A43576  35.551  10.541   6.706
 3221POPC   C3A43577  35.328  10.517   7.108
 3221POPC   C4A43578  35.624  10.650   7.441
 3221POPC   C1B43579  35.625  10.181   6.256
 3221POPC   C2B43580  35.538  10.016   6.678
 3221POPC   C3B43581  35.690  10.164   7.076
 3221POPC   C4B43582  35.549  10.160   7.501
 3222POPC   NC343583   0.666  38.338   5.484
 3222POPC   PO443584   0.017  38.383   5.687
 3222POPC   GL143585   0.390  38.553   5.842
 3222POPC   GL243586   0.527  38.211   5.960
 3222POPC   C1A43587   0.672  38.653   6.177
 3222POPC   D2A43588   0.430  38.519   6.525
 3222POPC   C3A43589   0.589  38.599   6.903
 3222POPC   C4A43590   0.325  38.596   7.221
 3222POPC   C1B43591   0.551  38.056   6.381
 3222POPC   C2B43592   0.692  38.027   6.814
 3222POPC   C3B43593   0.659  38.194   7.237
 3222POPC   C4B43594   0.848  38.267   7.648
 3223POPC   NC343595  25.008  10.769   5.532
 3223POPC   PO443596  25.502  10.377   5.217
 3223POPC   GL143597  25.405  10.394   5.703
 3223POPC   GL243598  25.057  10.345   5.811
 3223POPC   C1A43599  25.433  10.640   6.129
 3223POPC   D2A43600  25.603  10.662   6.590
 3223POPC   C3A43601  25.345  10.801   6.959
 3223POPC   C4A43602  25.413  11.073   7.323
 3223POPC   C1B43603  24.909  10.497   6.184
 3223POPC   C2B43604  25.095  10.530   6.573
 3223POPC   C3B43605  24.962  10.429   6.971
 3223POPC   C4B43606  24.983  10.245   7.356
 3224POPC   NC343607  12.685  44.629   5.365
 3224POPC   PO443608  12.976   0.151   5.163
 3224POPC   GL143609  13.038  44.928   5.585
 3224POPC   GL243610  13.203  44.626   5.755
 3224POPC   C1A43611  12.824  44.912   5.997
 3224POPC   D2A43612  12.728  44.725   6.381
 3224POPC   C3A43613  12.842  44.862   6.798
 3224POPC   C4A43614  12.659  44.750   7.177
 3224POPC   C1B43615  13.254  44.358   6.137
 3224POPC   C2B43616  13.152  44.496   6.560
 3224POPC   C3B43617  12.962  44.382   6.936
 3224POPC   C4B43618  13.260  44.201   7.164
 3225POPC   NC343619  20.011   8.486   5.406
 3225POPC   PO443620  19.662   7.922   5.414
 3225POPC   GL143621  19.649   8.103   5.847
 3225POPC   GL243622  19.607   8.451   5.735
 3225POPC   C1A43623  19.912   8.155   6.259
 3225POPC   D2A43624  20.004   8.379   6.667
 3225POPC   C3A43625  19.999   8.185   7.101
 3225POPC   C4A43626  20.161   8.285   7.515
 3225POPC   C1B43627  19.566   8.511   6.168
 3225POPC   C2B43628  19.506   8.293   6.556
 3225POPC   C3B43629  19.601   8.469   6.977
 3225POPC   C4B43630  19.667   8.436   7.410
 3226POPC   NC343631  41.482  26.893   5.342
 3226POPC   PO443632  41.549  26.281   5.216
 3226POPC   GL143633  41.667  26.464   5.684
 3226POPC   GL243634  41.775  26.824   5.735
 3226POPC   C1A43635  41.546  26.640   6.150
 3226POPC   D2A43636  41.374  26.832   6.557
 3226POPC   C3A43637  41.344  26.913   7.024
 3226POPC   C4A43638  41.421  26.658   7.399
 3226POPC   C1B43639  41.977  26.944   6.114
 3226POPC   C2B43640  41.878  27.024   6.524
 3226POPC   C3B43641  42.024  27.031   6.937
 3226POPC   C4B43642  41.786  27.023   7.278
 3227POPC   NC343643  29.672  16.167   5.390
 3227POPC   PO443644  30.260  16.013   5.569
 3227POPC   GL143645  29.903  16.118   5.845
 3227POPC   GL243646  29.669  15.865   5.841
 3227POPC   C1A43647  29.606  16.241   6.203
 3227POPC   D2A43648  29.748  16.257   6.647
 3227POPC   C3A43649  29.689  16.032   7.067
 3227POPC   C4A43650  29.953  16.026   7.459
 3227POPC   C1B43651  29.856  15.804   6.273
 3227POPC   C2B43652  29.916  15.731   6.726
 3227POPC   C3B43653  29.981  15.599   7.181
 3227POPC   C4B43654  30.195  15.573   7.606
 3228POPC   NC343655  23.687  18.425   5.414
 3228POPC   PO443656  24.405  18.479   5.463
 3228POPC   GL143657  24.020  18.483   5.776
 3228POPC   GL243658  23.779  18.184   5.865
 3228POPC   C1A43659  23.747  18.624   6.149
 3228POPC   D2A43660  23.572  18.582   6.595
 3228POPC   C3A43661  23.773  18.575   7.006
 3228POPC   C4A43662  23.883  18.461   7.456
 3228POPC   C1B43663  23.576  18.145   6.292
 3228POPC   C2B43664  23.707  18.102   6.731
 3228POPC   C3B43665  23.609  18.108   7.173
 3228POPC   C4B43666  23.552  18.059   7.608
 3229POPC   NC343667  31.493  17.635   5.327
 3229POPC   PO443668  31.536  17.005   5.486
 3229POPC   GL143669  31.549  17.393   5.761
 3229POPC   GL243670  31.195  17.550   5.731
 3229POPC   C1A43671  31.775  17.665   6.083
 3229POPC   D2A43672  31.913  17.560   6.523
 3229POPC   C3A43673  31.691  17.390   6.905
 3229POPC   C4A43674  31.799  17.264   7.346
 3229POPC   C1B43675  31.280  17.539   6.171
 3229POPC   C2B43676  31.468  17.801   6.510
 3229POPC   C3B43677  31.505  17.850   6.958
 3229POPC   C4B43678  31.223  17.580   7.190
 3230POPC   NC343679  40.853  44.939   5.459
 3230POPC   PO443680  41.257  44.399   5.477
 3230POPC   GL143681  40.970  44.474   5.779
 3230POPC   GL243682  40.675  44.302   5.887
 3230POPC   C1A43683  40.980  44.621   6.174
 3230POPC   D2A43684  40.762  44.749   6.516
 3230POPC   C3A43685  40.924  44.679   6.920
 3230POPC   C4A43686  40.696  44.944   7.216
 3230POPC   C1B43687  40.541  44.185   6.297
 3230POPC   C2B43688  40.507  44.346   6.718
 3230POPC   C3B43689  40.568  44.350   7.162
 3230POPC   C4B43690  40.485  44.220   7.622
 3231POPC   NC343691  28.111  36.683   5.211
 3231POPC   PO443692  28.777  37.025   5.421
 3231POPC   GL143693  28.544  36.886   5.831
 3231POPC   GL243694  28.435  37.265   5.954
 3231POPC   C1A43695  28.301  36.854   6.211
 3231POPC   D2A43696  28.360  37.144   6.503
 3231POPC   C3A43697  28.144  37.027   6.846
 3231POPC   C4A43698  28.299  36.728   7.110
 3231POPC   C1B43699  28.785  37.276   6.184
 3231POPC   C2B43700  28.942  37.161   6.596
 3231POPC   C3B43701  28.703  37.164   6.983
 3231POPC   C4B43702  28.345  37.266   7.241
 3232POPC   NC343703  18.558  43.705   5.346
 3232POPC   PO443704  19.207  44.059   5.261
 3232POPC   GL143705  19.108  44.124   5.693
 3232POPC   GL243706  19.395  44.330   5.759
 3232POPC   C1A43707  18.927  44.178   6.126
 3232POPC   D2A43708  18.684  44.074   6.509
 3232POPC   C3A43709  18.958  44.074   6.882
 3232POPC   C4A43710  19.096  43.733   7.146
 3232POPC   C1B43711  19.458  44.091   6.119
 3232POPC   C2B43712  19.333  44.116   6.541
 3232POPC   C3B43713  19.473  44.140   6.972
 3232POPC   C4B43714  19.414  44.041   7.398
 3233POPC   NC343715  39.454  38.130   5.511
 3233POPC   PO443716  39.049  38.631   5.235
 3233POPC   GL143717  39.072  38.467   5.707
 3233POPC   GL243718  39.367  38.384   5.968
 3233POPC   C1A43719  38.913  38.418   6.142
 3233POPC   D2A43720  38.754  38.462   6.547
 3233POPC   C3A43721  39.040  38.496   6.919
 3233POPC   C4A43722  39.220  38.427   7.348
 3233POPC   C1B43723  39.626  38.068   6.196
 3233POPC   C2B43724  39.652  37.959   6.647
 3233POPC   C3B43725  39.713  38.211   7.043
 3233POPC   C4B43726  39.709  38.332   7.504
 3234POPC   NC343727  10.374  21.013   5.412
 3234POPC   PO443728  10.065  20.490   5.447
 3234POPC   GL143729  10.358  20.635   5.774
 3234POPC   GL243730  10.687  20.829   5.772
 3234POPC   C1A43731  10.519  20.431   6.146
 3234POPC   D2A43732  10.634  20.540   6.569
 3234POPC   C3A43733  10.401  20.385   6.902
 3234POPC   C4A43734  10.471  20.464   7.331
 3234POPC   C1B43735  10.616  20.926   6.202
 3234POPC   C2B43736  10.393  21.022   6.586
 3234POPC   C3B43737  10.549  20.868   6.974
 3234POPC   C4B43738  10.766  21.001   7.321
 3235POPC   NC343739   3.146  16.036   5.655
 3235POPC   PO443740   2.699  15.581   5.366
 3235POPC   GL143741   2.629  15.873   5.748
 3235POPC   GL243742   2.535  16.256   5.762
 3235POPC   C1A43743   2.626  15.988   6.190
 3235POPC   D2A43744   2.364  15.942   6.538
 3235POPC   C3A43745   2.590  16.035   6.842
 3235POPC   C4A43746   2.448  16.052   7.186
 3235POPC   C1B43747   2.837  16.487   6.078
 3235POPC   C2B43748   3.098  16.540   6.468
 3235POPC   C3B43749   2.950  16.410   6.896
 3235POPC   C4B43750   2.957  16.093   7.224
 3236POPC   NC343751   5.880  28.650   5.495
 3236POPC   PO443752   6.278  28.070   5.498
 3236POPC   GL143753   6.005  28.264   5.789
 3236POPC   GL243754   5.692  28.136   5.659
 3236POPC   C1A43755   5.870  28.515   6.155
 3236POPC   D2A43756   6.048  28.648   6.535
 3236POPC   C3A43757   5.934  28.505   6.938
 3236POPC   C4A43758   6.090  28.634   7.350
 3236POPC   C1B43759   5.608  28.082   6.120
 3236POPC   C2B43760   5.630  28.268   6.539
 3236POPC   C3B43761   5.552  28.180   6.989
 3236POPC   C4B43762   5.897  28.099   7.281
 3237POPC   NC343763  16.529   1.609   5.438
 3237POPC   PO443764  16.704   0.914   5.388
 3237POPC   GL143765  16.739   1.224   5.723
 3237POPC   GL243766  16.451   1.130   5.885
 3237POPC   C1A43767  16.951   1.238   6.110
 3237POPC   D2A43768  16.869   0.963   6.453
 3237POPC   C3A43769  16.918   1.211   6.835
 3237POPC   C4A43770  16.793   1.305   7.232
 3237POPC   C1B43771  16.508   1.486   6.174
 3237POPC   C2B43772  16.456   1.316   6.611
 3237POPC   C3B43773  16.393   1.551   6.979
 3237POPC   C4B43774  16.543   1.741   7.326
 3238POPC   NC343775  13.038  26.216   5.455
 3238POPC   PO443776  12.449  26.079   5.385
 3238POPC   GL143777  12.677  26.001   5.776
 3238POPC   GL243778  12.980  25.782   5.820
 3238POPC   C1A43779  12.755  26.063   6.209
 3238POPC   D2A43780  12.531  26.142   6.566
 3238POPC   C3A43781  12.773  26.376   6.828
 3238POPC   C4A43782  12.703  26.195   7.207
 3238POPC   C1B43783  13.246  25.888   6.202
 3238POPC   C2B43784  13.187  26.072   6.597
 3238POPC   C3B43785  12.947  25.895   6.891
 3238POPC   C4B43786  13.075  25.842   7.307
 3239POPC   NC343787   8.386  27.780   5.525
 3239POPC   PO443788   7.828  27.400   5.516
 3239POPC   GL143789   8.005  27.699   5.840
 3239POPC   GL243790   8.323  27.497   5.935
 3239POPC   C1A43791   8.177  27.833   6.264
 3239POPC   D2A43792   8.304  27.519   6.575
 3239POPC   C3A43793   8.083  27.561   6.959
 3239POPC   C4A43794   8.038  27.895   7.237
 3239POPC   C1B43795   8.632  27.313   6.234
 3239POPC   C2B43796   8.625  27.144   6.688
 3239POPC   C3B43797   8.441  27.214   7.079
 3239POPC   C4B43798   8.409  27.558   7.362
 3240POPC   NC343799  32.701  35.398   5.600
 3240POPC   PO443800  32.154  35.064   5.314
 3240POPC   GL143801  32.153  35.363   5.700
 3240POPC   GL243802  32.381  35.268   5.968
 3240POPC   C1A43803  31.927  35.449   6.136
 3240POPC   D2A43804  31.873  35.165   6.519
 3240POPC   C3A43805  32.077  35.250   6.942
 3240POPC   C4A43806  32.246  35.392   7.340
 3240POPC   C1B43807  32.587  35.042   6.307
 3240POPC   C2B43808  32.460  34.960   6.745
 3240POPC   C3B43809  32.577  35.050   7.166
 3240POPC   C4B43810  32.583  35.104   7.612
 3241POPC   NC343811  21.551  21.627   5.487
 3241POPC   PO443812  21.075  21.213   5.394
 3241POPC   GL143813  21.284  21.304   5.782
 3241POPC   GL243814  21.613  21.164   5.712
 3241POPC   C1A43815  21.423  21.613   6.125
 3241POPC   D2A43816  21.685  21.656   6.491
 3241POPC   C3A43817  21.425  21.575   6.854
 3241POPC   C4A43818  21.295  21.621   7.241
 3241POPC   C1B43819  21.607  21.126   6.142
 3241POPC   C2B43820  21.391  21.213   6.494
 3241POPC   C3B43821  21.470  21.051   6.892
 3241POPC   C4B43822  21.392  21.121   7.314
 3242POPC   NC343823  42.523  32.176   5.250
 3242POPC   PO443824  41.929  32.279   5.315
 3242POPC   GL143825  42.285  32.297   5.703
 3242POPC   GL243826  42.621  32.063   5.755
 3242POPC   C1A43827  42.290  32.123   6.156
 3242POPC   D2A43828  42.194  31.945   6.602
 3242POPC   C3A43829  42.035  32.221   6.926
 3242POPC   C4A43830  42.194  32.412   7.319
 3242POPC   C1B43831  42.705  31.844   6.169
 3242POPC   C2B43832  42.679  32.062   6.567
 3242POPC   C3B43833  42.531  32.110   6.986
 3242POPC   C4B43834  42.737  31.966   7.352
 3243POPC   NC343835  12.572  38.555   5.472
 3243POPC   PO443836  13.125  38.308   5.653
 3243POPC   GL143837  12.950  38.531   6.027
 3243POPC   GL243838  12.628  38.642   5.954
 3243POPC   C1A43839  12.701  38.545   6.439
 3243POPC   D2A43840  12.697  38.768   6.817
 3243POPC   C3A43841  13.016  38.546   7.065
 3243POPC   C4A43842  13.059  38.589   7.525
 3243POPC   C1B43843  12.487  38.204   6.086
 3243POPC   C2B43844  12.366  38.124   6.529
 3243POPC   C3B43845  12.433  38.312   6.949
 3243POPC   C4B43846  12.639  38.364   7.359
 3244POPC   NC343847  14.721  40.513   5.465
 3244POPC   PO443848  14.414  41.148   5.407
 3244POPC   GL143849  14.485  40.869   5.756
 3244POPC   GL243850  14.750  40.964   5.978
 3244POPC   C1A43851  14.333  40.679   6.144
 3244POPC   D2A43852  14.531  40.732   6.542
 3244POPC   C3A43853  14.340  40.836   6.923
 3244POPC   C4A43854  14.464  41.132   7.183
 3244POPC   C1B43855  14.821  40.518   6.149
 3244POPC   C2B43856  14.921  40.356   6.559
 3244POPC   C3B43857  14.726  40.456   6.964
 3244POPC   C4B43858  14.722  40.719   7.345
 3245POPC   NC343859  26.575   0.745   5.259
 3245POPC   PO443860  27.065   0.487   5.645
 3245POPC   GL143861  26.758   0.594   5.923
 3245POPC   GL243862  26.507   0.744   5.767
 3245POPC   C1A43863  26.762   0.617   6.344
 3245POPC   D2A43864  26.926   0.375   6.657
 3245POPC   C3A43865  27.138   0.527   6.987
 3245POPC   C4A43866  27.037   0.208   7.240
 3245POPC   C1B43867  26.292   0.735   6.167
 3245POPC   C2B43868  26.335   0.915   6.578
 3245POPC   C3B43869  26.501   0.805   6.985
 3245POPC   C4B43870  26.762   0.650   7.306
 3246POPC   NC343871  24.572  12.493   5.470
 3246POPC   PO443872  24.829  11.855   5.372
 3246POPC   GL143873  24.702  11.982   5.816
 3246POPC   GL243874  24.486  12.266   5.911
 3246POPC   C1A43875  24.530  11.888   6.235
 3246POPC   D2A43876  24.580  11.923   6.677
 3246POPC   C3A43877  24.325  11.816   7.047
 3246POPC   C4A43878  24.312  11.912   7.508
 3246POPC   C1B43879  24.382  12.455   6.318
 3246POPC   C2B43880  24.314  12.341   6.767
 3246POPC   C3B43881  24.568  12.254   7.140
 3246POPC   C4B43882  24.752  12.224   7.565
 3247POPC   NC343883  40.507  30.930   5.031
 3247POPC   PO443884  40.937  31.409   5.368
 3247POPC   GL143885  40.899  31.510   5.827
 3247POPC   GL243886  40.968  31.169   5.832
 3247POPC   C1A43887  41.023  31.654   6.277
 3247POPC   D2A43888  41.216  31.719   6.709
 3247POPC   C3A43889  40.956  31.552   7.067
 3247POPC   C4A43890  40.555  31.722   7.178
 3247POPC   C1B43891  41.117  31.158   6.232
 3247POPC   C2B43892  40.974  31.271   6.628
 3247POPC   C3B43893  41.171  31.095   6.965
 3247POPC   C4B43894  41.023  31.097   7.382
 3248POPC   NC343895  12.764   8.569   5.350
 3248POPC   PO443896  13.218   8.127   5.217
 3248POPC   GL143897  13.004   8.225   5.662
 3248POPC   GL243898  12.682   8.012   5.706
 3248POPC   C1A43899  12.783   8.352   6.103
 3248POPC   D2A43900  12.740   8.183   6.580
 3248POPC   C3A43901  12.909   8.222   7.050
 3248POPC   C4A43902  13.095   7.925   7.399
 3248POPC   C1B43903  12.382   8.020   6.076
 3248POPC   C2B43904  12.237   8.139   6.514
 3248POPC   C3B43905  12.319   8.078   6.955
 3248POPC   C4B43906  12.449   8.246   7.327
 3249POPC   NC343907  38.116  42.589   5.588
 3249POPC   PO443908  38.572  42.099   5.496
 3249POPC   GL143909  38.631  42.271   5.901
 3249POPC   GL243910  38.398  42.507   6.010
 3249POPC   C1A43911  38.674  42.160   6.321
 3249POPC   D2A43912  38.449  42.052   6.648
 3249POPC   C3A43913  38.512  42.208   7.065
 3249POPC   C4A43914  38.636  42.064   7.461
 3249POPC   C1B43915  38.159  42.598   6.368
 3249POPC   C2B43916  38.120  42.442   6.762
 3249POPC   C3B43917  38.309  42.656   7.079
 3249POPC   C4B43918  38.375  42.541   7.524
 3250POPC   NC343919   7.630  32.786   5.285
 3250POPC   PO443920   7.226  33.210   5.566
 3250POPC   GL143921   7.414  33.120   5.959
 3250POPC   GL243922   7.660  32.925   5.813
 3250POPC   C1A43923   7.695  33.100   6.330
 3250POPC   D2A43924   7.909  33.232   6.725
 3250POPC   C3A43925   7.632  33.475   7.039
 3250POPC   C4A43926   7.299  33.163   7.150
 3250POPC   C1B43927   7.603  32.617   6.149
 3250POPC   C2B43928   7.740  32.639   6.607
 3250POPC   C3B43929   7.774  32.595   7.090
 3250POPC   C4B43930   7.479  32.769   7.425
 3251POPC   NC343931   0.955  17.700   5.484
 3251POPC   PO443932   1.423  17.116   5.435
 3251POPC   GL143933   1.317  17.414   5.767
 3251POPC   GL243934   1.640  17.566   5.828
 3251POPC   C1A43935   1.128  17.568   6.174
 3251POPC   D2A43936   0.983  17.498   6.596
 3251POPC   C3A43937   1.188  17.595   6.997
 3251POPC   C4A43938   1.151  17.660   7.469
 3251POPC   C1B43939   1.631  17.335   6.185
 3251POPC   C2B43940   1.558  17.498   6.572
 3251POPC   C3B43941   1.610  17.305   6.970
 3251POPC   C4B43942   1.627  17.602   7.298
 3252POPC   NC343943  11.091  21.688   5.242
 3252POPC   PO443944  11.536  22.246   5.405
 3252POPC   GL143945  11.480  22.135   5.785
 3252POPC   GL243946  11.114  22.127   5.778
 3252POPC   C1A43947  11.710  22.137   6.162
 3252POPC   D2A43948  11.690  21.956   6.574
 3252POPC   C3A43949  11.538  22.173   6.909
 3252POPC   C4A43950  11.345  22.242   7.275
 3252POPC   C1B43951  11.221  22.015   6.206
 3252POPC   C2B43952  11.129  22.112   6.610
 3252POPC   C3B43953  11.127  21.870   6.974
 3252POPC   C4B43954  11.381  21.708   7.290
 3253POPC   NC343955  23.665   2.036   5.546
 3253POPC   PO443956  23.378   1.398   5.300
 3253POPC   GL143957  23.510   1.580   5.792
 3253POPC   GL243958  23.836   1.801   5.950
 3253POPC   C1A43959  23.414   1.767   6.239
 3253POPC   D2A43960  23.682   1.852   6.595
 3253POPC   C3A43961  23.594   1.747   7.036
 3253POPC   C4A43962  23.994   1.638   7.186
 3253POPC   C1B43963  23.715   2.180   6.194
 3253POPC   C2B43964  23.777   2.362   6.589
 3253POPC   C3B43965  23.804   2.218   6.968
 3253POPC   C4B43966  23.547   2.240   7.272
 3254POPC   NC343967  12.120  40.691   5.255
 3254POPC   PO443968  11.804  41.264   5.451
 3254POPC   GL143969  11.905  41.063   5.846
 3254POPC   GL243970  12.159  40.828   5.785
 3254POPC   C1A43971  11.945  40.810   6.260
 3254POPC   D2A43972  11.851  40.933   6.707
 3254POPC   C3A43973  11.918  40.641   7.077
 3254POPC   C4A43974  11.891  40.834   7.487
 3254POPC   C1B43975  12.351  41.069   6.131
 3254POPC   C2B43976  12.349  40.920   6.566
 3254POPC   C3B43977  12.371  40.869   7.034
 3254POPC   C4B43978  12.348  41.106   7.414
 3255POPC   NC343979  34.026  20.249   5.310
 3255POPC   PO443980  33.737  19.649   5.150
 3255POPC   GL143981  33.692  19.947   5.594
 3255POPC   GL243982  34.035  20.042   5.784
 3255POPC   C1A43983  33.619  19.991   6.067
 3255POPC   D2A43984  33.675  19.692   6.420
 3255POPC   C3A43985  33.682  19.909   6.843
 3255POPC   C4A43986  33.659  20.134   7.230
 3255POPC   C1B43987  34.129  19.856   6.229
 3255POPC   C2B43988  34.103  19.674   6.689
 3255POPC   C3B43989  34.107  19.805   7.141
 3255POPC   C4B43990  34.193  20.174   7.401
 3256POPC   NC343991   9.456  15.287   5.660
 3256POPC   PO443992   8.852  15.327   5.390
 3256POPC   GL143993   8.826  15.288   5.821
 3256POPC   GL243994   8.954  15.596   5.869
 3256POPC   C1A43995   8.686  15.340   6.258
 3256POPC   D2A43996   8.591  15.101   6.627
 3256POPC   C3A43997   8.541  15.316   7.021
 3256POPC   C4A43998   8.605  15.057   7.347
 3256POPC   C1B43999   9.189  15.426   6.253
 3256POPC   C2B44000   9.037  15.358   6.675
 3256POPC   C3B44001   9.051  15.312   7.114
 3256POPC   C4B44002   9.308  15.460   7.476
 3257POPC   NC344003  18.848  19.749   5.386
 3257POPC   PO444004  19.353  20.205   5.151
 3257POPC   GL144005  19.218  20.079   5.644
 3257POPC   GL244006  18.888  19.995   5.826
 3257POPC   C1A44007  19.340  19.848   6.073
 3257POPC   D2A44008  19.165  19.645   6.476
 3257POPC   C3A44009  19.233  19.749   6.909
 3257POPC   C4A44010  19.207  19.886   7.324
 3257POPC   C1B44011  18.743  19.700   6.169
 3257POPC   C2B44012  18.565  19.713   6.624
 3257POPC   C3B44013  18.709  19.676   7.079
 3257POPC   C4B44014  18.805  19.656   7.539
 3258POPC   NC344015  19.591   7.469   5.290
 3258POPC   PO444016  20.002   6.983   5.356
 3258POPC   GL144017  19.829   7.254   5.740
 3258POPC   GL244018  19.612   7.560   5.813
 3258POPC   C1A44019  19.732   7.250   6.209
 3258POPC   D2A44020  19.887   7.424   6.605
 3258POPC   C3A44021  19.652   7.414   7.013
 3258POPC   C4A44022  19.659   7.039   7.298
 3258POPC   C1B44023  19.603   7.758   6.267
 3258POPC   C2B44024  19.745   7.885   6.727
 3258POPC   C3B44025  20.073   7.689   7.027
 3258POPC   C4B44026  20.135   7.280   7.242
 3259POPC   NC344027  43.989  44.292   5.364
 3259POPC   PO444028  44.348  44.808   5.493
 3259POPC   GL144029  44.148  44.541   5.798
 3259POPC   GL244030  43.777  44.552   5.743
 3259POPC   C1A44031  44.001  44.694   6.192
 3259POPC   D2A44032  43.851  44.486   6.524
 3259POPC   C3A44033  43.896  44.665   6.891
 3259POPC   C4A44034  44.015  44.512   7.267
 3259POPC   C1B44035  43.589  44.362   6.090
 3259POPC   C2B44036  43.380  44.299   6.469
 3259POPC   C3B44037  43.518  44.274   6.867
 3259POPC   C4B44038  43.526  44.436   7.267
 3260POPC   NC344039  12.340  41.194   5.481
 3260POPC   PO444040  12.238  41.838   5.393
 3260POPC   GL144041  12.111  41.587   5.757
 3260POPC   GL244042  12.473  41.594   5.810
 3260POPC   C1A44043  11.920  41.464   6.174
 3260POPC   D2A44044  11.880  41.720   6.566
 3260POPC   C3A44045  11.931  41.497   6.975
 3260POPC   C4A44046  11.887  41.781   7.305
 3260POPC   C1B44047  12.417  41.576   6.228
 3260POPC   C2B44048  12.309  41.429   6.633
 3260POPC   C3B44049  12.517  41.430   7.030
 3260POPC   C4B44050  12.357  41.617   7.380
 3261POPC   NC344051  22.655  11.036   5.381
 3261POPC   PO444052  23.213  11.538   5.471
 3261POPC   GL144053  23.116  11.430   5.863
 3261POPC   GL244054  23.006  11.116   5.810
 3261POPC   C1A44055  23.173  11.287   6.293
 3261POPC   D2A44056  23.038  11.122   6.690
 3261POPC   C3A44057  23.033  11.300   7.106
 3261POPC   C4A44058  23.262  11.057   7.409
 3261POPC   C1B44059  22.761  10.995   6.192
 3261POPC   C2B44060  22.585  10.887   6.605
 3261POPC   C3B44061  22.583  11.080   7.005
 3261POPC   C4B44062  22.754  10.967   7.441
 3262POPC   NC344063  17.783  40.632   5.391
 3262POPC   PO444064  17.201  41.018   5.486
 3262POPC   GL144065  17.538  40.899   5.776
 3262POPC   GL244066  17.543  40.547   5.836
 3262POPC   C1A44067  17.449  40.861   6.230
 3262POPC   D2A44068  17.402  40.606   6.609
 3262POPC   C3A44069  17.495  40.947   6.906
 3262POPC   C4A44070  17.461  41.010   7.349
 3262POPC   C1B44071  17.836  40.526   6.184
 3262POPC   C2B44072  17.894  40.701   6.593
 3262POPC   C3B44073  17.847  40.630   7.045
 3262POPC   C4B44074  17.844  40.719   7.489
 3263POPC   NC344075  16.166   5.135   5.169
 3263POPC   PO444076  15.546   4.912   5.230
 3263POPC   GL144077  15.987   5.101   5.630
 3263POPC   GL244078  15.862   5.162   6.047
 3263POPC   C1A44079  16.313   5.319   5.945
 3263POPC   D2A44080  16.268   5.369   6.432
 3263POPC   C3A44081  15.988   5.094   6.728
 3263POPC   C4A44082  15.993   4.883   7.156
 3263POPC   C1B44083  15.508   5.067   6.369
 3263POPC   C2B44084  15.402   5.088   6.799
 3263POPC   C3B44085  15.493   5.087   7.222
 3263POPC   C4B44086  15.673   4.937   7.586
 3264POPC   NC344087  13.450  43.457   5.254
 3264POPC   PO444088  13.674  44.057   5.192
 3264POPC   GL144089  13.634  44.033   5.655
 3264POPC   GL244090  13.725  43.701   5.723
 3264POPC   C1A44091  13.713  44.078   6.116
 3264POPC   D2A44092  13.752  43.901   6.558
 3264POPC   C3A44093  13.735  44.106   6.944
 3264POPC   C4A44094  13.686  43.961   7.371
 3264POPC   C1B44095  13.782  43.562   6.172
 3264POPC   C2B44096  13.967  43.450   6.608
 3264POPC   C3B44097  13.796  43.567   7.005
 3264POPC   C4B44098  13.525  43.483   7.359
 3265POPC   NC344099  31.988  36.288   5.662
 3265POPC   PO444100  32.513  35.817   5.455
 3265POPC   GL144101  32.372  35.979   5.831
 3265POPC   GL244102  32.473  36.343   5.843
 3265POPC   C1A44103  32.253  35.857   6.231
 3265POPC   D2A44104  32.383  35.969   6.624
 3265POPC   C3A44105  32.118  35.780   6.891
 3265POPC   C4A44106  32.201  35.881   7.289
 3265POPC   C1B44107  32.237  36.374   6.261
 3265POPC   C2B44108  32.004  36.309   6.639
 3265POPC   C3B44109  32.159  36.336   7.041
 3265POPC   C4B44110  31.966  36.322   7.405
 3266POPC   NC344111  35.924  42.897   5.351
 3266POPC   PO444112  36.389  43.329   5.377
 3266POPC   GL144113  36.245  43.055   5.706
 3266POPC   GL244114  36.372  43.217   5.925
 3266POPC   C1A44115  35.906  43.052   6.039
 3266POPC   D2A44116  36.055  43.343   6.358
 3266POPC   C3A44117  36.029  43.299   6.828
 3266POPC   C4A44118  35.834  43.319   7.244
 3266POPC   C1B44119  36.349  42.909   6.275
 3266POPC   C2B44120  36.339  42.842   6.724
 3266POPC   C3B44121  36.402  43.058   7.117
 3266POPC   C4B44122  36.643  42.998   7.510
 3267POPC   NC344123  41.778  31.845   5.396
 3267POPC   PO444124  41.856  31.092   5.369
 3267POPC   GL144125  41.650  31.405   5.686
 3267POPC   GL244126  41.933  31.573   5.809
 3267POPC   C1A44127  41.494  31.495   6.133
 3267POPC   D2A44128  41.508  31.273   6.550
 3267POPC   C3A44129  41.556  31.411   6.971
 3267POPC   C4A44130  41.416  31.735   7.242
 3267POPC   C1B44131  41.924  31.744   6.221
 3267POPC   C2B44132  41.714  31.787   6.621
 3267POPC   C3B44133  41.910  31.752   7.055
 3267POPC   C4B44134  42.218  31.911   7.348
 3268POPC   NC344135  28.325  16.307   5.147
 3268POPC   PO444136  28.329  15.760   5.513
 3268POPC   GL144137  28.468  16.076   5.696
 3268POPC   GL244138  28.180  16.178   5.887
 3268POPC   C1A44139  28.588  16.026   6.133
 3268POPC   D2A44140  28.330  16.134   6.467
 3268POPC   C3A44141  28.455  15.881   6.778
 3268POPC   C4A44142  28.497  15.948   7.196
 3268POPC   C1B44143  28.111  15.797   6.139
 3268POPC   C2B44144  27.908  15.812   6.550
 3268POPC   C3B44145  27.996  15.776   6.998
 3268POPC   C4B44146  28.001  16.005   7.367
 3269POPC   NC344147   7.166   2.290   5.359
 3269POPC   PO444148   7.810   2.232   5.455
 3269POPC   GL144149   7.569   2.166   5.806
 3269POPC   GL244150   7.592   1.822   5.809
 3269POPC   C1A44151   7.656   2.101   6.260
 3269POPC   D2A44152   7.728   2.207   6.666
 3269POPC   C3A44153   7.495   2.306   6.993
 3269POPC   C4A44154   7.550   2.076   7.364
 3269POPC   C1B44155   7.312   1.745   6.178
 3269POPC   C2B44156   7.340   1.841   6.618
 3269POPC   C3B44157   7.467   1.723   7.013
 3269POPC   C4B44158   7.356   1.567   7.422
 3270POPC   NC344159  27.827  35.648   5.400
 3270POPC   PO444160  27.387  35.114   5.422
 3270POPC   GL144161  27.628  35.329   5.767
 3270POPC   GL244162  27.440  35.652   5.748
 3270POPC   C1A44163  27.845  35.339   6.195
 3270POPC   D2A44164  27.877  35.159   6.619
 3270POPC   C3A44165  27.534  35.199   6.906
 3270POPC   C4A44166  27.653  35.387   7.259
 3270POPC   C1B44167  27.355  35.648   6.186
 3270POPC   C2B44168  27.585  35.639   6.579
 3270POPC   C3B44169  27.385  35.698   6.952
 3270POPC   C4B44170  27.369  35.804   7.376
 3271POPC   NC344171  27.563  27.363   5.319
 3271POPC   PO444172  27.139  27.886   5.161
 3271POPC   GL144173  27.337  27.964   5.644
 3271POPC   GL244174  27.614  27.722   5.717
 3271POPC   C1A44175  27.379  28.070   6.097
 3271POPC   D2A44176  27.560  27.934   6.513
 3271POPC   C3A44177  27.336  27.701   6.843
 3271POPC   C4A44178  27.576  27.584   7.254
 3271POPC   C1B44179  27.470  27.573   6.127
 3271POPC   C2B44180  27.371  27.301   6.474
 3271POPC   C3B44181  27.449  27.216   6.907
 3271POPC   C4B44182  27.192  27.262   7.255
 3272POPC   NC344183  33.861  37.879   5.400
 3272POPC   PO444184  33.675  37.270   5.597
 3272POPC   GL144185  33.858  37.514   5.813
 3272POPC   GL244186  33.969  37.263   6.029
 3272POPC   C1A44187  33.999  37.844   6.049
 3272POPC   D2A44188  33.817  38.083   6.377
 3272POPC   C3A44189  33.841  37.826   6.754
 3272POPC   C4A44190  33.906  37.951   7.183
 3272POPC   C1B44191  34.216  37.385   6.340
 3272POPC   C2B44192  34.280  37.469   6.757
 3272POPC   C3B44193  33.981  37.443   7.074
 3272POPC   C4B44194  33.824  37.508   7.466
 3273POPC   NC344195  19.583  34.779   5.407
 3273POPC   PO444196  20.130  34.456   5.531
 3273POPC   GL144197  19.892  34.565   5.799
 3273POPC   GL244198  19.659  34.342   5.719
 3273POPC   C1A44199  20.050  34.700   6.163
 3273POPC   D2A44200  20.121  34.494   6.527
 3273POPC   C3A44201  19.930  34.706   6.834
 3273POPC   C4A44202  20.176  34.779   7.181
 3273POPC   C1B44203  19.565  34.384   6.168
 3273POPC   C2B44204  19.398  34.497   6.580
 3273POPC   C3B44205  19.501  34.440   7.022
 3273POPC   C4B44206  19.683  34.760   7.282
 3274POPC   NC344207  26.289  37.906   5.431
 3274POPC   PO444208  25.610  37.602   5.434
 3274POPC   GL144209  25.771  37.645   5.827
 3274POPC   GL244210  25.959  37.947   5.841
 3274POPC   C1A44211  25.864  37.566   6.246
 3274POPC   D2A44212  25.710  37.475   6.645
 3274POPC   C3A44213  26.086  37.463   6.911
 3274POPC   C4A44214  26.432  37.692   7.150
 3274POPC   C1B44215  25.727  38.054   6.236
 3274POPC   C2B44216  25.835  37.984   6.710
 3274POPC   C3B44217  25.833  37.835   7.157
 3274POPC   C4B44218  25.835  38.026   7.614
 3275POPC   NC344219  25.049   0.464   5.442
 3275POPC   PO444220  25.672   0.245   5.499
 3275POPC   GL144221  25.450   0.387   5.836
 3275POPC   GL244222  25.172   0.192   5.862
 3275POPC   C1A44223  25.499   0.646   6.206
 3275POPC   D2A44224  25.376   0.498   6.565
 3275POPC   C3A44225  25.519   0.623   6.960
 3275POPC   C4A44226  25.607   0.243   7.228
 3275POPC   C1B44227  25.003   0.547   6.093
 3275POPC   C2B44228  24.890   0.689   6.485
 3275POPC   C3B44229  24.999   0.544   6.888
 3275POPC   C4B44230  25.141   0.513   7.292
 3276POPC   NC344231  23.094   9.848   5.250
 3276POPC   PO444232  22.555   9.918   5.507
 3276POPC   GL144233  22.858   9.990   5.836
 3276POPC   GL244234  23.132  10.176   5.704
 3276POPC   C1A44235  23.039   9.775   6.229
 3276POPC   D2A44236  23.299   9.598   6.593
 3276POPC   C3A44237  23.118   9.656   6.997
 3276POPC   C4A44238  22.697   9.565   7.173
 3276POPC   C1B44239  23.060  10.279   6.207
 3276POPC   C2B44240  23.118  10.080   6.651
 3276POPC   C3B44241  23.001  10.139   7.100
 3276POPC   C4B44242  22.747   9.974   7.468
 3277POPC   NC344243  14.202  17.762   5.579
 3277POPC   PO444244  14.361  17.132   5.478
 3277POPC   GL144245  14.413  17.349   5.863
 3277POPC   GL244246  14.085  17.295   5.882
 3277POPC   C1A44247  14.353  17.621   6.231
 3277POPC   D2A44248  14.529  17.804   6.618
 3277POPC   C3A44249  14.348  17.588   6.978
 3277POPC   C4A44250  14.108  17.786   7.307
 3277POPC   C1B44251  13.892  17.397   6.241
 3277POPC   C2B44252  13.918  17.613   6.622
 3277POPC   C3B44253  13.860  17.439   7.034
 3277POPC   C4B44254  14.077  17.296   7.404
 3278POPC   NC344255  31.738  40.622   5.479
 3278POPC   PO444256  31.044  40.841   5.526
 3278POPC   GL144257  31.287  40.643   5.843
 3278POPC   GL244258  31.585  40.803   5.936
 3278POPC   C1A44259  31.246  40.640   6.305
 3278POPC   D2A44260  31.013  40.704   6.689
 3278POPC   C3A44261  31.193  40.618   7.084
 3278POPC   C4A44262  31.292  40.907   7.395
 3278POPC   C1B44263  31.745  40.585   6.295
 3278POPC   C2B44264  31.580  40.614   6.720
 3278POPC   C3B44265  31.711  40.744   7.109
 3278POPC   C4B44266  31.620  40.463   7.396
 3279POPC   NC344267  22.714  35.425   5.446
 3279POPC   PO444268  23.230  35.043   5.296
 3279POPC   GL144269  23.041  35.112   5.761
 3279POPC   GL244270  22.679  35.074   5.834
 3279POPC   C1A44271  22.991  35.315   6.191
 3279POPC   D2A44272  23.071  35.105   6.571
 3279POPC   C3A44273  22.972  35.307   6.921
 3279POPC   C4A44274  23.097  35.483   7.274
 3279POPC   C1B44275  22.787  34.854   6.206
 3279POPC   C2B44276  22.593  34.859   6.604
 3279POPC   C3B44277  22.755  34.836   6.990
 3279POPC   C4B44278  22.838  35.048   7.357
 3280POPC   NC344279   2.613  13.029   5.681
 3280POPC   PO444280   3.073  12.663   5.228
 3280POPC   GL144281   2.985  12.666   5.717
 3280POPC   GL244282   2.679  12.516   5.807
 3280POPC   C1A44283   2.925  12.814   6.211
 3280POPC   D2A44284   2.771  13.238   6.439
 3280POPC   C3A44285   2.678  13.184   6.895
 3280POPC   C4A44286   2.928  12.868   7.106
 3280POPC   C1B44287   2.736  12.336   6.190
 3280POPC   C2B44288   2.644  12.483   6.578
 3280POPC   C3B44289   2.511  12.657   6.919
 3280POPC   C4B44290   2.578  12.521   7.317
 3281POPC   NC344291  25.806  27.733   5.068
 3281POPC   PO444292  26.343  27.346   5.287
 3281POPC   GL144293  26.173  27.401   5.709
 3281POPC   GL244294  26.076  27.748   5.772
 3281POPC   C1A44295  26.109  27.409   6.160
 3281POPC   D2A44296  26.013  27.581   6.551
 3281POPC   C3A44297  26.283  27.567   6.880
 3281POPC   C4A44298  26.043  27.480   7.218
 3281POPC   C1B44299  25.768  27.799   6.115
 3281POPC   C2B44300  25.770  28.022   6.511
 3281POPC   C3B44301  25.811  27.882   6.933
 3281POPC   C4B44302  26.107  27.981   7.230
 3282POPC   NC344303  14.785  24.463   5.601
 3282POPC   PO444304  14.274  24.702   5.216
 3282POPC   GL144305  14.237  24.632   5.661
 3282POPC   GL244306  14.281  24.277   5.663
 3282POPC   C1A44307  14.429  24.660   6.103
 3282POPC   D2A44308  14.294  24.619   6.543
 3282POPC   C3A44309  14.535  24.703   6.926
 3282POPC   C4A44310  14.320  24.504   7.264
 3282POPC   C1B44311  14.485  24.143   6.071
 3282POPC   C2B44312  14.476  24.021   6.482
 3282POPC   C3B44313  14.515  24.175   6.882
 3282POPC   C4B44314  14.300  24.002   7.212
 3283POPC   NC344315  10.734   4.261   5.314
 3283POPC   PO444316  10.087   3.914   5.450
 3283POPC   GL144317  10.456   4.048   5.688
 3283POPC   GL244318  10.535   4.405   5.762
 3283POPC   C1A44319  10.622   4.063   6.117
 3283POPC   D2A44320  10.687   4.376   6.439
 3283POPC   C3A44321  10.567   4.191   6.829
 3283POPC   C4A44322  10.728   4.154   7.247
 3283POPC   C1B44323  10.253   4.414   6.131
 3283POPC   C2B44324  10.250   4.584   6.574
 3283POPC   C3B44325  10.314   4.620   7.013
 3283POPC   C4B44326   9.985   4.755   7.278
 3284POPC   NC344327  23.951  28.085   5.636
 3284POPC   PO444328  24.549  28.194   5.339
 3284POPC   GL144329  24.500  28.355   5.765
 3284POPC   GL244330  24.173  28.458   5.897
 3284POPC   C1A44331  24.631  28.292   6.201
 3284POPC   D2A44332  24.843  28.013   6.504
 3284POPC   C3A44333  24.681  28.065   6.942
 3284POPC   C4A44334  24.627  28.488   7.173
 3284POPC   C1B44335  24.148  28.199   6.284
 3284POPC   C2B44336  24.353  28.342   6.661
 3284POPC   C3B44337  24.146  28.498   7.030
 3284POPC   C4B44338  24.264  28.139   7.272
 3285POPC   NC344339  13.221  27.198   5.495
 3285POPC   PO444340  13.461  27.859   5.503
 3285POPC   GL144341  13.539  27.681   5.909
 3285POPC   GL244342  13.541  27.352   5.846
 3285POPC   C1A44343  13.568  27.580   6.349
 3285POPC   D2A44344  13.549  27.714   6.735
 3285POPC   C3A44345  13.766  27.451   6.995
 3285POPC   C4A44346  13.660  27.521   7.417
 3285POPC   C1B44347  13.273  27.202   6.212
 3285POPC   C2B44348  13.413  27.201   6.675
 3285POPC   C3B44349  13.473  27.065   7.119
 3285POPC   C4B44350  13.505  27.072   7.579
 3286POPC   NC344351  20.837   0.094   5.005
 3286POPC   PO444352  20.607  44.564   5.422
 3286POPC   GL144353  20.353  44.803   5.724
 3286POPC   GL244354  20.637  44.836   5.939
 3286POPC   C1A44355  20.198  44.800   6.161
 3286POPC   D2A44356  20.423  44.897   6.516
 3286POPC   C3A44357  20.413  44.642   6.855
 3286POPC   C4A44358  20.513  44.769   7.244
 3286POPC   C1B44359  20.740  44.534   6.228
 3286POPC   C2B44360  20.793  44.200   6.502
 3286POPC   C3B44361  20.820  44.315   6.908
 3286POPC   C4B44362  20.842  44.413   7.308
 3287POPC   NC344363  12.755  40.417   5.432
 3287POPC   PO444364  12.680  39.773   5.495
 3287POPC   GL144365  12.845  39.829   5.894
 3287POPC   GL244366  12.721  40.158   5.907
 3287POPC   C1A44367  12.969  39.652   6.306
 3287POPC   D2A44368  12.964  39.728   6.778
 3287POPC   C3A44369  13.163  39.745   7.190
 3287POPC   C4A44370  13.058  39.595   7.620
 3287POPC   C1B44371  13.024  40.241   6.258
 3287POPC   C2B44372  13.078  40.257   6.710
 3287POPC   C3B44373  12.833  40.122   7.073
 3287POPC   C4B44374  12.663  39.762   7.288
 3288POPC   NC344375   8.861   2.392   5.473
 3288POPC   PO444376   9.086   1.735   5.230
 3288POPC   GL144377   8.883   1.849   5.667
 3288POPC   GL244378   8.513   1.810   5.751
 3288POPC   C1A44379   9.009   2.037   6.101
 3288POPC   D2A44380   9.316   2.161   6.445
 3288POPC   C3A44381   9.218   2.229   6.884
 3288POPC   C4A44382   9.164   1.960   7.249
 3288POPC   C1B44383   8.526   1.939   6.196
 3288POPC   C2B44384   8.736   2.145   6.596
 3288POPC   C3B44385   8.725   2.191   7.080
 3288POPC   C4B44386   8.781   2.035   7.561
 3289POPC   NC344387  12.479  14.093   5.472
 3289POPC   PO444388  11.894  14.476   5.454
 3289POPC   GL144389  12.021  14.519   5.881
 3289POPC   GL244390  12.292  14.291   5.911
 3289POPC   C1A44391  11.939  14.413   6.333
 3289POPC   D2A44392  11.996  14.192   6.749
 3289POPC   C3A44393  12.119  14.470   7.066
 3289POPC   C4A44394  12.247  14.563   7.453
 3289POPC   C1B44395  12.411  14.618   6.225
 3289POPC   C2B44396  12.438  14.465   6.643
 3289POPC   C3B44397  12.483  14.110   6.933
 3289POPC   C4B44398  12.206  14.010   7.273
 3290POPC   NC344399  31.890  24.742   5.578
 3290POPC   PO444400  32.660  24.687   5.522
 3290POPC   GL144401  32.520  24.342   5.816
 3290POPC   GL244402  32.152  24.339   5.858
 3290POPC   C1A44403  32.438  24.176   6.254
 3290POPC   D2A44404  32.263  24.405   6.611
 3290POPC   C3A44405  32.339  24.299   7.044
 3290POPC   C4A44406  32.572  24.611   7.279
 3290POPC   C1B44407  31.902  24.236   6.226
 3290POPC   C2B44408  31.755  24.351   6.628
 3290POPC   C3B44409  31.898  24.574   6.988
 3290POPC   C4B44410  32.067  24.527   7.408
 3291POPC   NC344411  37.232  28.996   5.092
 3291POPC   PO444412  37.846  29.028   5.419
 3291POPC   GL144413  37.692  29.186   5.825
 3291POPC   GL244414  37.384  28.978   5.775
 3291POPC   C1A44415  37.716  29.378   6.252
 3291POPC   D2A44416  37.650  29.499   6.689
 3291POPC   C3A44417  37.784  29.300   7.034
 3291POPC   C4A44418  37.809  29.273   7.487
 3291POPC   C1B44419  37.483  28.905   6.222
 3291POPC   C2B44420  37.645  28.977   6.622
 3291POPC   C3B44421  37.509  28.791   6.998
 3291POPC   C4B44422  37.470  28.914   7.397
 3292POPC   NC344423  15.982   4.618   5.384
 3292POPC   PO444424  15.835   4.054   5.653
 3292POPC   GL144425  15.951   4.309   5.992
 3292POPC   GL244426  15.885   4.659   5.889
 3292POPC   C1A44427  16.311   4.419   6.288
 3292POPC   D2A44428  16.294   4.624   6.711
 3292POPC   C3A44429  16.009   4.384   6.999
 3292POPC   C4A44430  16.163   4.085   7.324
 3292POPC   C1B44431  15.896   4.712   6.333
 3292POPC   C2B44432  15.841   4.315   6.511
 3292POPC   C3B44433  15.575   4.123   6.796
 3292POPC   C4B44434  15.650   4.057   7.226
 3293POPC   NC344435  43.661  17.092   5.516
 3293POPC   PO444436  44.180  17.379   5.423
 3293POPC   GL144437  44.018  17.564   5.769
 3293POPC   GL244438  43.701  17.625   5.651
 3293POPC   C1A44439  43.999  17.613   6.208
 3293POPC   D2A44440  44.044  17.348   6.581
 3293POPC   C3A44441  44.041  17.522   6.955
 3293POPC   C4A44442  44.029  17.296   7.331
 3293POPC   C1B44443  43.521  17.515   6.049
 3293POPC   C2B44444  43.568  17.571   6.493
 3293POPC   C3B44445  43.593  17.322   6.828
 3293POPC   C4B44446  43.533  17.330   7.232
 3294POPC   NC344447  26.176   6.021   5.107
 3294POPC   PO444448  25.791   5.587   5.397
 3294POPC   GL144449  26.098   5.761   5.736
 3294POPC   GL244450  26.475   5.658   5.741
 3294POPC   C1A44451  26.067   5.849   6.225
 3294POPC   D2A44452  25.964   6.048   6.666
 3294POPC   C3A44453  25.978   5.839   7.089
 3294POPC   C4A44454  25.806   5.774   7.505
 3294POPC   C1B44455  26.549   5.969   6.089
 3294POPC   C2B44456  26.458   6.047   6.533
 3294POPC   C3B44457  26.477   5.845   6.944
 3294POPC   C4B44458  26.417   6.003   7.364
 3295POPC   NC344459  19.027   4.025   5.344
 3295POPC   PO444460  18.822   4.596   5.518
 3295POPC   GL144461  19.047   4.277   5.794
 3295POPC   GL244462  19.362   4.435   5.843
 3295POPC   C1A44463  19.225   4.100   6.192
 3295POPC   D2A44464  18.894   4.158   6.507
 3295POPC   C3A44465  18.988   4.061   6.897
 3295POPC   C4A44466  19.251   4.224   7.193
 3295POPC   C1B44467  19.116   4.580   6.265
 3295POPC   C2B44468  19.094   4.618   6.750
 3295POPC   C3B44469  18.984   4.857   7.138
 3295POPC   C4B44470  19.150   5.041   7.554
 3296POPC   NC344471  18.108  10.256   5.281
 3296POPC   PO444472  18.706  10.441   5.496
 3296POPC   GL144473  18.395  10.442   5.870
 3296POPC   GL244474  18.076  10.374   5.782
 3296POPC   C1A44475  18.193  10.305   6.296
 3296POPC   D2A44476  17.973  10.281   6.719
 3296POPC   C3A44477  18.249  10.253   7.086
 3296POPC   C4A44478  18.501  10.604   7.256
 3296POPC   C1B44479  18.016  10.723   6.095
 3296POPC   C2B44480  18.254  10.770   6.504
 3296POPC   C3B44481  18.113  10.763   6.945
 3296POPC   C4B44482  17.782  11.011   7.207
 3297POPC   NC344483   3.107  19.736   5.394
 3297POPC   PO444484   2.589  20.096   5.379
 3297POPC   GL144485   2.790  19.943   5.798
 3297POPC   GL244486   3.128  19.780   5.898
 3297POPC   C1A44487   2.718  20.001   6.260
 3297POPC   D2A44488   2.409  19.917   6.615
 3297POPC   C3A44489   2.636  19.997   6.987
 3297POPC   C4A44490   3.051  20.193   7.111
 3297POPC   C1B44491   3.108  19.633   6.327
 3297POPC   C2B44492   3.100  19.797   6.761
 3297POPC   C3B44493   2.983  19.705   7.192
 3297POPC   C4B44494   3.079  19.652   7.632
 3298POPC   NC344495  14.109  14.291   5.173
 3298POPC   PO444496  13.636  14.611   5.589
 3298POPC   GL144497  13.517  14.462   5.936
 3298POPC   GL244498  13.208  14.643   5.967
 3298POPC   C1A44499  13.714  14.212   6.261
 3298POPC   D2A44500  14.048  14.134   6.589
 3298POPC   C3A44501  13.990  14.276   7.018
 3298POPC   C4A44502  13.750  14.551   7.283
 3298POPC   C1B44503  13.341  14.600   6.391
 3298POPC   C2B44504  13.643  14.469   6.677
 3298POPC   C3B44505  13.449  14.300   6.985
 3298POPC   C4B44506  13.138  14.507   7.218
 3299POPC   NC344507  29.366  43.335   5.440
 3299POPC   PO444508  28.754  43.566   5.750
 3299POPC   GL144509  28.984  43.255   5.944
 3299POPC   GL244510  29.000  42.925   5.791
 3299POPC   C1A44511  28.958  43.266   6.389
 3299POPC   D2A44512  28.799  43.573   6.678
 3299POPC   C3A44513  29.003  43.445   7.041
 3299POPC   C4A44514  29.058  43.063   7.226
 3299POPC   C1B44515  28.868  42.799   6.201
 3299POPC   C2B44516  28.958  42.767   6.663
 3299POPC   C3B44517  28.969  42.587   7.079
 3299POPC   C4B44518  29.182  42.609   7.470
 3300POPC   NC344519  14.155   9.384   5.680
 3300POPC   PO444520  14.681   9.099   5.364
 3300POPC   GL144521  14.449   8.956   5.718
 3300POPC   GL244522  14.578   9.238   5.923
 3300POPC   C1A44523  14.321   8.842   6.141
 3300POPC   D2A44524  14.523   8.757   6.541
 3300POPC   C3A44525  14.319   8.966   6.898
 3300POPC   C4A44526  14.483   9.065   7.311
 3300POPC   C1B44527  14.656   9.219   6.369
 3300POPC   C2B44528  14.809   9.128   6.784
 3300POPC   C3B44529  14.890   9.369   7.119
 3300POPC   C4B44530  14.649   9.590   7.425
 3301POPC   NC344531  42.199  23.315   5.331
 3301POPC   PO444532  42.396  23.964   5.342
 3301POPC   GL144533  42.130  23.923   5.740
 3301POPC   GL244534  42.107  23.581   5.816
 3301POPC   C1A44535  42.158  23.962   6.189
 3301POPC   D2A44536  42.250  23.710   6.581
 3301POPC   C3A44537  42.396  23.964   6.913
 3301POPC   C4A44538  42.723  23.785   7.164
 3301POPC   C1B44539  41.974  23.467   6.226
 3301POPC   C2B44540  41.772  23.450   6.625
 3301POPC   C3B44541  42.038  23.353   6.954
 3301POPC   C4B44542  42.234  23.593   7.249
 3302POPC   NC344543  37.390  20.646   5.451
 3302POPC   PO444544  36.713  20.563   5.116
 3302POPC   GL144545  36.707  20.593   5.603
 3302POPC   GL244546  36.990  20.438   5.770
 3302POPC   C1A44547  36.749  20.800   6.046
 3302POPC   D2A44548  36.841  20.854   6.512
 3302POPC   C3A44549  36.699  20.693   6.904
 3302POPC   C4A44550  36.938  20.755   7.254
 3302POPC   C1B44551  36.719  20.286   6.125
 3302POPC   C2B44552  36.785  20.304   6.591
 3302POPC   C3B44553  37.017  20.272   7.002
 3302POPC   C4B44554  36.793  20.275   7.402
 3303POPC   NC344555  15.331  19.803   5.333
 3303POPC   PO444556  14.919  20.323   5.463
 3303POPC   GL144557  15.090  19.982   5.766
 3303POPC   GL244558  15.324  19.689   5.825
 3303POPC   C1A44559  15.274  20.047   6.185
 3303POPC   D2A44560  15.107  20.123   6.595
 3303POPC   C3A44561  15.278  19.944   6.947
 3303POPC   C4A44562  15.589  19.926   7.234
 3303POPC   C1B44563  15.190  19.542   6.225
 3303POPC   C2B44564  15.295  19.521   6.645
 3303POPC   C3B44565  15.353  19.466   7.101
 3303POPC   C4B44566  15.483  19.337   7.509
 3304POPC   NC344567  16.756  41.207   5.434
 3304POPC   PO444568  17.168  41.759   5.536
 3304POPC   GL144569  16.760  41.606   5.814
 3304POPC   GL244570  16.676  41.243   5.925
 3304POPC   C1A44571  16.476  41.675   6.213
 3304POPC   D2A44572  16.346  41.526   6.669
 3304POPC   C3A44573  16.579  41.766   7.004
 3304POPC   C4A44574  16.914  41.770   7.288
 3304POPC   C1B44575  16.654  41.217   6.350
 3304POPC   C2B44576  16.825  41.391   6.724
 3304POPC   C3B44577  16.700  41.281   7.118
 3304POPC   C4B44578  16.942  41.092   7.380
 3305POPC   NC344579   3.462  35.620   5.393
 3305POPC   PO444580   3.125  35.048   5.399
 3305POPC   GL144581   3.370  35.253   5.747
 3305POPC   GL244582   3.677  35.073   5.836
 3305POPC   C1A44583   3.586  35.513   6.107
 3305POPC   D2A44584   3.746  35.501   6.546
 3305POPC   C3A44585   3.478  35.598   6.934
 3305POPC   C4A44586   3.366  35.297   7.293
 3305POPC   C1B44587   3.977  35.155   6.209
 3305POPC   C2B44588   4.174  35.199   6.635
 3305POPC   C3B44589   3.869  35.196   6.953
 3305POPC   C4B44590   3.888  35.047   7.356
 3306POPC   NC344591  36.050   6.861   5.251
 3306POPC   PO444592  36.428   6.408   5.508
 3306POPC   GL144593  36.111   6.558   5.760
 3306POPC   GL244594  36.036   6.924   5.771
 3306POPC   C1A44595  36.225   6.628   6.189
 3306POPC   D2A44596  36.497   6.661   6.546
 3306POPC   C3A44597  36.310   6.521   6.940
 3306POPC   C4A44598  36.027   6.667   7.157
 3306POPC   C1B44599  36.029   7.078   6.220
 3306POPC   C2B44600  36.033   6.895   6.648
 3306POPC   C3B44601  35.902   7.125   7.025
 3306POPC   C4B44602  35.657   6.992   7.358
 3307POPC   NC344603  26.344   2.201   5.485
 3307POPC   PO444604  25.734   1.831   5.403
 3307POPC   GL144605  26.020   1.921   5.755
 3307POPC   GL244606  25.782   2.117   5.929
 3307POPC   C1A44607  26.216   2.082   6.156
 3307POPC   D2A44608  26.006   2.124   6.542
 3307POPC   C3A44609  26.276   2.290   6.866
 3307POPC   C4A44610  26.265   2.112   7.252
 3307POPC   C1B44611  25.748   1.651   6.107
 3307POPC   C2B44612  25.641   1.432   6.506
 3307POPC   C3B44613  25.702   1.617   6.888
 3307POPC   C4B44614  25.812   2.049   7.021
 3308POPC   NC344615   3.283  34.640   5.304
 3308POPC   PO444616   3.702  34.243   5.258
 3308POPC   GL144617   3.644  34.510   5.682
 3308POPC   GL244618   3.326  34.650   5.823
 3308POPC   C1A44619   3.803  34.660   6.116
 3308POPC   D2A44620   4.067  34.707   6.491
 3308POPC   C3A44621   3.903  34.690   6.920
 3308POPC   C4A44622   3.500  34.831   7.091
 3308POPC   C1B44623   3.401  34.369   6.219
 3308POPC   C2B44624   3.633  34.347   6.654
 3308POPC   C3B44625   3.629  34.332   7.163
 3308POPC   C4B44626   3.436  34.232   7.599
 3309POPC   NC344627  24.657  30.490   5.371
 3309POPC   PO444628  24.070  30.587   5.511
 3309POPC   GL144629  24.411  30.598   5.816
 3309POPC   GL244630  24.637  30.877   5.726
 3309POPC   C1A44631  24.405  30.530   6.258
 3309POPC   D2A44632  24.240  30.327   6.605
 3309POPC   C3A44633  24.445  30.548   6.923
 3309POPC   C4A44634  24.823  30.747   7.032
 3309POPC   C1B44635  24.519  31.014   6.135
 3309POPC   C2B44636  24.623  30.938   6.549
 3309POPC   C3B44637  24.457  31.102   6.906
 3309POPC   C4B44638  24.329  30.917   7.279
 3310POPC   NC344639  25.919  31.602   5.379
 3310POPC   PO444640  26.582  31.820   5.373
 3310POPC   GL144641  26.368  31.649   5.743
 3310POPC   GL244642  26.147  31.915   5.740
 3310POPC   C1A44643  26.276  31.294   6.073
 3310POPC   D2A44644  26.109  31.126   6.485
 3310POPC   C3A44645  26.098  31.299   6.920
 3310POPC   C4A44646  26.201  31.481   7.318
 3310POPC   C1B44647  25.895  31.900   6.095
 3310POPC   C2B44648  26.034  31.725   6.488
 3310POPC   C3B44649  26.132  31.832   6.914
 3310POPC   C4B44650  25.861  31.848   7.225
 3311POPC   NC344651  39.408  25.710   5.192
 3311POPC   PO444652  38.813  25.928   5.342
 3311POPC   GL144653  38.876  25.803   5.735
 3311POPC   GL244654  39.048  26.107   5.783
 3311POPC   C1A44655  38.949  25.767   6.174
 3311POPC   D2A44656  39.294  25.872   6.428
 3311POPC   C3A44657  39.147  25.932   6.816
 3311POPC   C4A44658  39.222  25.888   7.229
 3311POPC   C1B44659  39.234  26.301   6.139
 3311POPC   C2B44660  39.109  26.393   6.547
 3311POPC   C3B44661  39.219  26.417   6.973
 3311POPC   C4B44662  39.083  26.353   7.366
 3312POPC   NC344663   8.454  17.223   5.514
 3312POPC   PO444664   7.907  17.610   5.259
 3312POPC   GL144665   8.300  17.650   5.713
 3312POPC   GL244666   8.175  17.325   5.926
 3312POPC   C1A44667   8.511  17.570   6.200
 3312POPC   D2A44668   8.441  17.311   6.605
 3312POPC   C3A44669   8.484  17.475   7.027
 3312POPC   C4A44670   8.126  17.448   7.281
 3312POPC   C1B44671   7.987  17.377   6.351
 3312POPC   C2B44672   8.023  17.557   6.767
 3312POPC   C3B44673   7.835  17.816   7.070
 3312POPC   C4B44674   7.676  17.656   7.432
 3313POPC   NC344675  40.185  26.112   5.452
 3313POPC   PO444676  39.468  26.229   5.515
 3313POPC   GL144677  39.820  26.170   5.840
 3313POPC   GL244678  40.049  25.846   5.872
 3313POPC   C1A44679  39.728  26.143   6.292
 3313POPC   D2A44680  39.599  26.181   6.731
 3313POPC   C3A44681  39.695  25.823   7.037
 3313POPC   C4A44682  39.817  25.845   7.490
 3313POPC   C1B44683  40.227  26.074   6.234
 3313POPC   C2B44684  40.080  26.002   6.670
 3313POPC   C3B44685  40.146  26.112   7.099
 3313POPC   C4B44686  40.175  26.204   7.536
 3314POPC   NC344687  27.737  29.731   5.557
 3314POPC   PO444688  27.151  30.100   5.627
 3314POPC   GL144689  27.449  30.023   5.913
 3314POPC   GL244690  27.688  30.234   5.732
 3314POPC   C1A44691  27.667  29.860   6.283
 3314POPC   D2A44692  27.507  29.753   6.702
 3314POPC   C3A44693  27.663  29.650   7.079
 3314POPC   C4A44694  27.393  29.937   7.252
 3314POPC   C1B44695  27.755  30.354   6.149
 3314POPC   C2B44696  27.956  30.231   6.515
 3314POPC   C3B44697  27.806  30.140   6.907
 3314POPC   C4B44698  27.880  30.068   7.319
 3315POPC   NC344699   8.518  22.627   5.518
 3315POPC   PO444700   8.058  23.091   5.239
 3315POPC   GL144701   8.079  22.930   5.678
 3315POPC   GL244702   8.385  23.114   5.769
 3315POPC   C1A44703   8.178  22.848   6.138
 3315POPC   D2A44704   8.148  23.159   6.487
 3315POPC   C3A44705   8.145  22.978   6.899
 3315POPC   C4A44706   8.123  22.623   7.168
 3315POPC   C1B44707   8.595  23.233   6.203
 3315POPC   C2B44708   8.583  23.378   6.661
 3315POPC   C3B44709   8.469  23.317   7.093
 3315POPC   C4B44710   8.056  23.380   7.223
 3316POPC   NC344711  13.161  28.218   5.433
 3316POPC   PO444712  13.132  28.806   5.578
 3316POPC   GL144713  13.467  28.546   5.847
 3316POPC   GL244714  13.611  28.200   5.862
 3316POPC   C1A44715  13.690  28.481   6.288
 3316POPC   D2A44716  13.702  28.201   6.679
 3316POPC   C3A44717  13.755  28.399   7.079
 3316POPC   C4A44718  14.146  28.452   7.304
 3316POPC   C1B44719  13.428  28.049   6.276
 3316POPC   C2B44720  13.183  28.087   6.655
 3316POPC   C3B44721  13.369  28.053   7.081
 3316POPC   C4B44722  13.608  28.027   7.439
 3317POPC   NC344723  11.741  15.865   5.645
 3317POPC   PO444724  11.185  15.801   5.258
 3317POPC   GL144725  11.222  15.939   5.710
 3317POPC   GL244726  11.223  15.645   5.896
 3317POPC   C1A44727  11.228  16.094   6.175
 3317POPC   D2A44728  11.472  16.075   6.595
 3317POPC   C3A44729  11.221  15.995   6.975
 3317POPC   C4A44730  11.269  16.173   7.396
 3317POPC   C1B44731  11.557  15.678   6.231
 3317POPC   C2B44732  11.767  15.664   6.614
 3317POPC   C3B44733  11.514  15.551   6.915
 3317POPC   C4B44734  11.519  15.674   7.276
 3318POPC   NC344735  40.291  27.834   5.510
 3318POPC   PO444736  39.825  27.389   5.221
 3318POPC   GL144737  39.964  27.457   5.663
 3318POPC   GL244738  39.697  27.442   5.839
 3318POPC   C1A44739  40.161  27.474   6.109
 3318POPC   D2A44740  40.217  27.683   6.510
 3318POPC   C3A44741  40.107  27.428   6.870
 3318POPC   C4A44742  40.126  27.642   7.233
 3318POPC   C1B44743  39.777  27.804   6.123
 3318POPC   C2B44744  39.925  28.105   6.459
 3318POPC   C3B44745  40.033  28.025   6.898
 3318POPC   C4B44746  39.776  28.045   7.298
 3319POPC   NC344747  19.285  42.878   5.408
 3319POPC   PO444748  18.791  43.291   5.329
 3319POPC   GL144749  18.947  43.128   5.716
 3319POPC   GL244750  18.783  42.890   5.868
 3319POPC   C1A44751  19.222  43.171   6.077
 3319POPC   D2A44752  19.191  43.472   6.405
 3319POPC   C3A44753  19.047  43.336   6.815
 3319POPC   C4A44754  19.318  43.236   7.115
 3319POPC   C1B44755  18.965  42.745   6.213
 3319POPC   C2B44756  18.821  42.950   6.562
 3319POPC   C3B44757  18.899  42.823   6.979
 3319POPC   C4B44758  19.280  42.748   7.156
 3320POPC   NC344759  39.224   9.946   5.382
 3320POPC   PO444760  39.439   9.305   5.261
 3320POPC   GL144761  39.421   9.532   5.646
 3320POPC   GL244762  39.069   9.589   5.739
 3320POPC   C1A44763  39.509   9.649   6.073
 3320POPC   D2A44764  39.639   9.614   6.514
 3320POPC   C3A44765  39.404   9.524   6.914
 3320POPC   C4A44766  39.510   9.567   7.353
 3320POPC   C1B44767  39.072   9.424   6.166
 3320POPC   C2B44768  39.021   9.628   6.560
 3320POPC   C3B44769  38.847   9.724   6.961
 3320POPC   C4B44770  38.916   9.619   7.400
 3321POPC   NC344771  24.189  27.191   5.405
 3321POPC   PO444772  24.542  26.623   5.224
 3321POPC   GL144773  24.547  26.702   5.796
 3321POPC   GL244774  24.247  26.917   5.899
 3321POPC   C1A44775  24.432  26.606   6.257
 3321POPC   D2A44776  24.324  26.749   6.676
 3321POPC   C3A44777  24.621  26.632   6.974
 3321POPC   C4A44778  24.420  26.399   7.258
 3321POPC   C1B44779  24.327  27.147   6.333
 3321POPC   C2B44780  24.485  27.222   6.818
 3321POPC   C3B44781  24.572  27.041   7.274
 3321POPC   C4B44782  24.620  27.177   7.731
 3322POPC   NC344783  39.497  28.394   5.578
 3322POPC   PO444784  38.943  28.100   5.738
 3322POPC   GL144785  39.166  28.396   5.960
 3322POPC   GL244786  39.142  28.720   5.788
 3322POPC   C1A44787  39.436  28.166   6.230
 3322POPC   D2A44788  39.275  27.911   6.544
 3322POPC   C3A44789  39.201  28.228   6.830
 3322POPC   C4A44790  39.294  28.327   7.238
 3322POPC   C1B44791  39.032  28.875   6.168
 3322POPC   C2B44792  39.014  28.739   6.583
 3322POPC   C3B44793  39.237  28.750   6.953
 3322POPC   C4B44794  39.485  28.790   7.308
 3323POPC   NC344795   8.549  24.599   5.543
 3323POPC   PO444796   9.223  24.311   5.554
 3323POPC   GL144797   8.952  24.532   5.835
 3323POPC   GL244798   9.195  24.536   6.047
 3323POPC   C1A44799   8.796  24.830   6.164
 3323POPC   D2A44800   8.949  24.875   6.580
 3323POPC   C3A44801   8.681  24.762   6.903
 3323POPC   C4A44802   8.835  24.532   7.232
 3323POPC   C1B44803   8.904  24.335   6.324
 3323POPC   C2B44804   8.925  24.341   6.759
 3323POPC   C3B44805   8.965  24.066   7.105
 3323POPC   C4B44806   9.123  24.153   7.511
 3324POPC   NC344807  16.406  43.080   5.443
 3324POPC   PO444808  16.923  43.460   5.226
 3324POPC   GL144809  16.847  43.292   5.715
 3324POPC   GL244810  16.766  42.896   5.771
 3324POPC   C1A44811  16.639  43.229   6.134
 3324POPC   D2A44812  16.748  43.044   6.543
 3324POPC   C3A44813  16.714  43.239   6.940
 3324POPC   C4A44814  16.815  43.080   7.343
 3324POPC   C1B44815  16.493  42.740   6.150
 3324POPC   C2B44816  16.402  42.639   6.580
 3324POPC   C3B44817  16.647  42.718   6.962
 3324POPC   C4B44818  16.388  42.802   7.289
 3325POPC   NC344819  37.522   0.360   5.460
 3325POPC   PO444820  38.043  44.992   5.382
 3325POPC   GL144821  37.890   0.177   5.772
 3325POPC   GL244822  37.789   0.518   5.851
 3325POPC   C1A44823  37.745   0.103   6.185
 3325POPC   D2A44824  37.553  44.957   6.572
 3325POPC   C3A44825  37.552   0.220   6.944
 3325POPC   C4A44826  37.341   0.209   7.357
 3325POPC   C1B44827  37.547   0.548   6.266
 3325POPC   C2B44828  37.413   0.716   6.663
 3325POPC   C3B44829  37.266   0.639   7.082
 3325POPC   C4B44830  37.654   0.611   7.270
 3326POPC   NC344831  37.369  42.999   5.382
 3326POPC   PO444832  37.977  43.192   5.316
 3326POPC   GL144833  37.766  43.208   5.734
 3326POPC   GL244834  37.700  42.857   5.800
 3326POPC   C1A44835  37.741  43.307   6.209
 3326POPC   D2A44836  37.606  43.448   6.641
 3326POPC   C3A44837  37.823  43.256   7.006
 3326POPC   C4A44838  38.077  43.031   7.302
 3326POPC   C1B44839  37.678  42.777   6.249
 3326POPC   C2B44840  37.830  42.883   6.667
 3326POPC   C3B44841  37.792  42.668   7.083
 3326POPC   C4B44842  37.855  42.636   7.567
 3327POPC   NC344843  33.621  16.429   5.671
 3327POPC   PO444844  33.669  15.832   5.313
 3327POPC   GL144845  33.744  15.877   5.735
 3327POPC   GL244846  33.408  15.948   5.769
 3327POPC   C1A44847  33.930  15.862   6.160
 3327POPC   D2A44848  33.967  16.100   6.555
 3327POPC   C3A44849  33.729  16.092   6.941
 3327POPC   C4A44850  33.911  16.235   7.307
 3327POPC   C1B44851  33.439  15.723   6.174
 3327POPC   C2B44852  33.684  15.664   6.590
 3327POPC   C3B44853  34.013  15.663   6.921
 3327POPC   C4B44854  33.886  15.726   7.360
 3328POPC   NC344855   7.567  10.175   5.686
 3328POPC   PO444856   7.487  10.658   5.243
 3328POPC   GL144857   7.534  10.690   5.769
 3328POPC   GL244858   7.221  10.617   5.885
 3328POPC   C1A44859   7.526  10.486   6.257
 3328POPC   D2A44860   7.465  10.077   6.519
 3328POPC   C3A44861   7.424  10.188   6.965
 3328POPC   C4A44862   7.550  10.602   7.136
 3328POPC   C1B44863   7.009  10.659   6.311
 3328POPC   C2B44864   7.172  10.560   6.713
 3328POPC   C3B44865   7.047  10.725   7.107
 3328POPC   C4B44866   7.246  10.919   7.466
 3329POPC   NC344867  12.027  14.917   5.506
 3329POPC   PO444868  11.639  15.428   5.624
 3329POPC   GL144869  12.026  15.385   5.839
 3329POPC   GL244870  12.191  15.040   5.963
 3329POPC   C1A44871  12.029  15.391   6.274
 3329POPC   D2A44872  12.048  15.033   6.548
 3329POPC   C3A44873  11.929  15.240   6.899
 3329POPC   C4A44874  11.972  15.378   7.312
 3329POPC   C1B44875  12.479  15.150   6.297
 3329POPC   C2B44876  12.562  14.955   6.692
 3329POPC   C3B44877  12.325  14.945   7.063
 3329POPC   C4B44878  12.370  15.063   7.479
 3330POPC   NC344879  19.441  25.380   5.259
 3330POPC   PO444880  18.876  25.522   5.441
 3330POPC   GL144881  19.040  25.238   5.722
 3330POPC   GL244882  19.352  25.429   5.776
 3330POPC   C1A44883  18.831  25.028   6.070
 3330POPC   D2A44884  18.730  25.057   6.492
 3330POPC   C3A44885  18.967  24.849   6.808
 3330POPC   C4A44886  18.975  24.934   7.195
 3330POPC   C1B44887  19.234  25.337   6.210
 3330POPC   C2B44888  19.241  25.253   6.633
 3330POPC   C3B44889  18.937  25.365   6.913
 3330POPC   C4B44890  18.968  25.677   7.279
 3331POPC   NC344891  32.268  28.686   5.326
 3331POPC   PO444892  31.858  28.241   5.377
 3331POPC   GL144893  32.044  28.464   5.738
 3331POPC   GL244894  32.284  28.196   5.783
 3331POPC   C1A44895  32.258  28.582   6.149
 3331POPC   D2A44896  32.441  28.435   6.562
 3331POPC   C3A44897  32.336  28.504   6.973
 3331POPC   C4A44898  32.232  28.712   7.328
 3331POPC   C1B44899  32.482  28.098   6.178
 3331POPC   C2B44900  32.463  27.900   6.555
 3331POPC   C3B44901  32.444  27.996   6.969
 3331POPC   C4B44902  32.081  28.096   7.178
 3332POPC   NC344903   4.833   5.316   5.409
 3332POPC   PO444904   4.753   4.760   5.412
 3332POPC   GL144905   4.993   4.992   5.807
 3332POPC   GL244906   5.373   4.994   5.803
 3332POPC   C1A44907   5.050   5.080   6.303
 3332POPC   D2A44908   5.150   4.973   6.779
 3332POPC   C3A44909   4.968   5.221   7.122
 3332POPC   C4A44910   4.659   5.225   7.477
 3332POPC   C1B44911   5.556   5.114   6.228
 3332POPC   C2B44912   5.486   5.322   6.632
 3332POPC   C3B44913   5.464   5.324   7.086
 3332POPC   C4B44914   5.432   4.905   7.248
 3333POPC   NC344915  43.299  36.445   5.397
 3333POPC   PO444916  43.034  37.046   5.228
 3333POPC   GL144917  43.006  36.869   5.663
 3333POPC   GL244918  43.345  36.796   5.784
 3333POPC   C1A44919  42.925  36.831   6.136
 3333POPC   D2A44920  42.916  37.032   6.566
 3333POPC   C3A44921  42.882  36.820   6.981
 3333POPC   C4A44922  43.195  36.643   7.283
 3333POPC   C1B44923  43.444  36.738   6.226
 3333POPC   C2B44924  43.298  36.705   6.670
 3333POPC   C3B44925  43.349  37.040   6.987
 3333POPC   C4B44926  43.617  37.006   7.345
 3334POPC   NC344927   5.624  22.482   5.651
 3334POPC   PO444928   6.179  22.496   5.610
 3334POPC   GL144929   5.991  22.175   5.874
 3334POPC   GL244930   5.871  21.836   5.864
 3334POPC   C1A44931   5.732  22.136   6.260
 3334POPC   D2A44932   5.670  21.949   6.663
 3334POPC   C3A44933   5.536  22.231   7.025
 3334POPC   C4A44934   5.708  22.560   7.315
 3334POPC   C1B44935   5.960  21.669   6.296
 3334POPC   C2B44936   6.161  21.799   6.691
 3334POPC   C3B44937   5.960  21.960   7.092
 3334POPC   C4B44938   5.843  22.106   7.488
 3335POPC   NC344939  37.767  31.432   5.362
 3335POPC   PO444940  37.369  31.936   5.485
 3335POPC   GL144941  37.583  31.644   5.796
 3335POPC   GL244942  37.472  31.300   5.792
 3335POPC   C1A44943  37.832  31.504   6.195
 3335POPC   D2A44944  37.974  31.719   6.608
 3335POPC   C3A44945  37.773  31.640   7.011
 3335POPC   C4A44946  37.551  31.317   7.240
 3335POPC   C1B44947  37.525  31.101   6.185
 3335POPC   C2B44948  37.581  31.214   6.613
 3335POPC   C3B44949  37.907  31.174   6.875
 3335POPC   C4B44950  38.113  31.260   7.229
 3336POPC   NC344951  34.035  27.973   5.575
 3336POPC   PO444952  33.866  27.293   5.485
 3336POPC   GL144953  33.736  27.596   5.803
 3336POPC   GL244954  33.476  27.866   5.727
 3336POPC   C1A44955  33.906  27.676   6.219
 3336POPC   D2A44956  33.809  27.455   6.596
 3336POPC   C3A44957  34.075  27.562   6.920
 3336POPC   C4A44958  33.963  27.807   7.229
 3336POPC   C1B44959  33.402  27.726   6.164
 3336POPC   C2B44960  33.404  27.779   6.607
 3336POPC   C3B44961  33.543  27.621   7.021
 3336POPC   C4B44962  33.557  27.683   7.508
 3337POPC   NC344963  19.822  30.047   5.321
 3337POPC   PO444964  20.078  29.464   5.509
 3337POPC   GL144965  19.744  29.695   5.756
 3337POPC   GL244966  19.730  30.077   5.813
 3337POPC   C1A44967  19.803  29.715   6.208
 3337POPC   D2A44968  19.809  29.949   6.594
 3337POPC   C3A44969  20.039  29.731   6.882
 3337POPC   C4A44970  19.860  29.796   7.237
 3337POPC   C1B44971  19.680  30.238   6.196
 3337POPC   C2B44972  19.687  30.476   6.552
 3337POPC   C3B44973  19.844  30.399   6.911
 3337POPC   C4B44974  19.644  30.244   7.237
 3338POPC   NC344975  23.741  38.414   5.259
 3338POPC   PO444976  23.769  39.128   5.266
 3338POPC   GL144977  23.669  38.804   5.611
 3338POPC   GL244978  23.956  38.618   5.738
 3338POPC   C1A44979  23.484  38.629   6.013
 3338POPC   D2A44980  23.462  38.746   6.470
 3338POPC   C3A44981  23.638  38.562   6.875
 3338POPC   C4A44982  23.400  38.702   7.242
 3338POPC   C1B44983  23.934  38.414   6.166
 3338POPC   C2B44984  23.768  38.186   6.534
 3338POPC   C3B44985  23.934  38.094   6.941
 3338POPC   C4B44986  24.087  38.426   7.183
 3339POPC   NC344987   1.729   6.794   5.531
 3339POPC   PO444988   2.261   6.378   5.408
 3339POPC   GL144989   2.173   6.598   5.837
 3339POPC   GL244990   2.407   6.847   5.940
 3339POPC   C1A44991   1.945   6.640   6.273
 3339POPC   D2A44992   1.957   6.874   6.713
 3339POPC   C3A44993   1.777   6.710   7.110
 3339POPC   C4A44994   1.732   6.848   7.562
 3339POPC   C1B44995   2.409   6.812   6.380
 3339POPC   C2B44996   2.322   6.525   6.662
 3339POPC   C3B44997   2.317   6.696   7.054
 3339POPC   C4B44998   2.196   6.648   7.441
 3340POPC   NC344999   0.632   4.737   5.368
 3340POPC   PO445000   0.407   4.178   5.184
 3340POPC   GL145001   0.390   4.348   5.594
 3340POPC   GL245002   0.145   4.191   5.754
 3340POPC   C1A45003   0.423   4.535   6.010
 3340POPC   D2A45004   0.289   4.524   6.439
 3340POPC   C3A45005   0.435   4.475   6.874
 3340POPC   C4A45006   0.663   4.410   7.257
 3340POPC   C1B45007   0.260   4.074   6.194
 3340POPC   C2B45008   0.182   4.069   6.670
 3340POPC   C3B45009   0.371   3.991   7.103
 3340POPC   C4B45010   0.499   3.998   7.563
 3341POPC   NC345011   2.289  36.754   5.596
 3341POPC   PO445012   1.778  37.139   5.428
 3341POPC   GL145013   1.911  36.980   5.843
 3341POPC   GL245014   1.841  36.630   5.861
 3341POPC   C1A45015   1.931  37.195   6.237
 3341POPC   D2A45016   1.907  37.242   6.667
 3341POPC   C3A45017   2.053  37.115   7.054
 3341POPC   C4A45018   1.764  37.173   7.373
 3341POPC   C1B45019   2.010  36.706   6.310
 3341POPC   C2B45020   1.951  36.700   6.779
 3341POPC   C3B45021   2.154  36.623   7.199
 3341POPC   C4B45022   2.210  36.601   7.678
 3342POPC   NC345023  19.658  35.493   5.604
 3342POPC   PO445024  20.071  35.006   5.318
 3342POPC   GL145025  19.976  35.080   5.769
 3342POPC   GL245026  19.649  35.000   5.908
 3342POPC   C1A45027  19.954  35.328   6.166
 3342POPC   D2A45028  19.894  35.488   6.565
 3342POPC   C3A45029  20.065  35.255   6.923
 3342POPC   C4A45030  20.065  35.529   7.257
 3342POPC   C1B45031  19.669  34.941   6.392
 3342POPC   C2B45032  19.585  35.124   6.781
 3342POPC   C3B45033  19.620  35.525   6.993
 3342POPC   C4B45034  19.626  35.271   7.301
 3343POPC   NC345035  26.161  16.149   5.324
 3343POPC   PO445036  25.474  16.105   5.402
 3343POPC   GL145037  25.583  16.183   5.804
 3343POPC   GL245038  25.753  15.882   5.855
 3343POPC   C1A45039  25.722  16.349   6.202
 3343POPC   D2A45040  25.844  16.422   6.643
 3343POPC   C3A45041  25.868  16.051   6.905
 3343POPC   C4A45042  26.150  16.023   7.244
 3343POPC   C1B45043  25.832  15.552   6.181
 3343POPC   C2B45044  26.069  15.406   6.556
 3343POPC   C3B45045  26.176  15.580   6.960
 3343POPC   C4B45046  25.799  15.594   7.184
 3344POPC   NC345047   3.759  16.009   5.327
 3344POPC   PO445048   3.294  15.601   5.653
 3344POPC   GL145049   3.686  15.718   5.803
 3344POPC   GL245050   3.628  16.039   5.815
 3344POPC   C1A45051   3.824  15.826   6.245
 3344POPC   D2A45052   4.076  15.918   6.607
 3344POPC   C3A45053   3.801  15.890   6.960
 3344POPC   C4A45054   3.388  15.774   7.146
 3344POPC   C1B45055   3.562  16.271   6.187
 3344POPC   C2B45056   3.722  16.301   6.605
 3344POPC   C3B45057   3.448  16.318   6.964
 3344POPC   C4B45058   3.397  16.300   7.396
 3345POPC   NC345059  27.294  38.611   5.685
 3345POPC   PO445060  27.474  38.398   5.083
 3345POPC   GL145061  27.624  38.253   5.581
 3345POPC   GL245062  27.457  38.071   5.853
 3345POPC   C1A45063  27.795  38.399   6.050
 3345POPC   D2A45064  27.545  38.634   6.370
 3345POPC   C3A45065  27.647  38.698   6.805
 3345POPC   C4A45066  27.697  38.489   7.156
 3345POPC   C1B45067  27.388  38.137   6.288
 3345POPC   C2B45068  27.572  38.199   6.689
 3345POPC   C3B45069  27.441  38.059   7.086
 3345POPC   C4B45070  27.660  38.122   7.482
 3346POPC   NC345071  31.223  10.454   5.538
 3346POPC   PO445072  31.687  10.151   5.495
 3346POPC   GL145073  31.600  10.288   5.916
 3346POPC   GL245074  31.254  10.203   6.000
 3346POPC   C1A45075  31.641  10.339   6.376
 3346POPC   D2A45076  31.818  10.441   6.800
 3346POPC   C3A45077  31.486  10.605   7.101
 3346POPC   C4A45078  31.170  10.843   7.351
 3346POPC   C1B45079  31.129  10.282   6.439
 3346POPC   C2B45080  31.365  10.201   6.809
 3346POPC   C3B45081  31.310  10.036   7.210
 3346POPC   C4B45082  31.416   9.852   7.631
 3347POPC   NC345083  10.487   9.302   5.530
 3347POPC   PO445084  10.535   8.625   5.539
 3347POPC   GL145085  10.456   8.793   5.942
 3347POPC   GL245086  10.185   8.977   5.793
 3347POPC   C1A45087  10.485   8.812   6.441
 3347POPC   D2A45088  10.733   9.050   6.760
 3347POPC   C3A45089  10.725   8.910   7.201
 3347POPC   C4A45090  10.654   8.761   7.651
 3347POPC   C1B45091  10.280   9.219   6.179
 3347POPC   C2B45092  10.078   9.139   6.581
 3347POPC   C3B45093  10.272   9.141   6.974
 3347POPC   C4B45094  10.376   9.220   7.391
 3348POPC   NC345095  43.839  27.469   5.260
 3348POPC   PO445096  44.062  27.977   5.542
 3348POPC   GL145097  43.745  27.764   5.805
 3348POPC   GL245098  43.605  27.417   5.750
 3348POPC   C1A45099  43.734  27.702   6.277
 3348POPC   D2A45100  43.714  27.519   6.692
 3348POPC   C3A45101  44.079  27.688   6.920
 3348POPC   C4A45102  44.145  28.110   7.133
 3348POPC   C1B45103  43.734  27.210   6.160
 3348POPC   C2B45104  44.070  27.174   6.493
 3348POPC   C3B45105  43.968  27.120   6.922
 3348POPC   C4B45106  43.960  27.362   7.275
 3349POPC   NC345107  39.227  23.307   5.407
 3349POPC   PO445108  39.411  22.658   5.336
 3349POPC   GL145109  39.221  22.851   5.698
 3349POPC   GL245110  38.870  22.899   5.716
 3349POPC   C1A45111  39.177  22.870   6.157
 3349POPC   D2A45112  39.296  22.977   6.597
 3349POPC   C3A45113  39.606  22.881   6.945
 3349POPC   C4A45114  39.603  23.004   7.386
 3349POPC   C1B45115  38.700  23.089   6.120
 3349POPC   C2B45116  38.778  22.975   6.525
 3349POPC   C3B45117  38.926  23.048   6.928
 3349POPC   C4B45118  39.116  22.908   7.290
 3350POPC   NC345119  20.951  43.157   5.373
 3350POPC   PO445120  20.331  42.992   5.340
 3350POPC   GL145121  20.576  43.106   5.731
 3350POPC   GL245122  20.837  42.913   5.823
 3350POPC   C1A45123  20.461  42.977   6.168
 3350POPC   D2A45124  20.332  43.027   6.590
 3350POPC   C3A45125  20.623  42.963   6.950
 3350POPC   C4A45126  20.497  43.240   7.281
 3350POPC   C1B45127  20.875  43.284   6.154
 3350POPC   C2B45128  21.089  43.316   6.568
 3350POPC   C3B45129  20.936  43.368   6.992
 3350POPC   C4B45130  20.853  43.555   7.411
 3351POPC   NC345131   3.036  11.562   5.603
 3351POPC   PO445132   2.633  11.120   5.308
 3351POPC   GL145133   2.606  11.315   5.761
 3351POPC   GL245134   2.378  11.578   5.840
 3351POPC   C1A45135   2.796  11.361   6.209
 3351POPC   D2A45136   2.643  11.516   6.638
 3351POPC   C3A45137   2.945  11.365   6.926
 3351POPC   C4A45138   3.059  11.099   7.267
 3351POPC   C1B45139   2.288  11.393   6.219
 3351POPC   C2B45140   2.131  11.534   6.581
 3351POPC   C3B45141   2.220  11.441   6.988
 3351POPC   C4B45142   2.576  11.608   7.193
 3352POPC   NC345143  44.506  18.433   5.115
 3352POPC   PO445144  44.879  17.932   5.451
 3352POPC   GL145145  44.692  18.060   5.855
 3352POPC   GL245146  44.326  17.948   5.936
 3352POPC   C1A45147  44.868  18.359   6.174
 3352POPC   D2A45148  44.901  18.554   6.583
 3352POPC   C3A45149  44.541  18.473   6.865
 3352POPC   C4A45150  44.659  18.466   7.288
 3352POPC   C1B45151  44.425  18.158   6.343
 3352POPC   C2B45152  44.751  18.045   6.660
 3352POPC   C3B45153  44.739  18.001   7.121
 3352POPC   C4B45154  44.860  18.004   7.588
 3353POPC   NC345155  25.761  26.447   5.442
 3353POPC   PO445156  25.816  25.833   5.354
 3353POPC   GL145157  26.029  26.069   5.683
 3353POPC   GL245158  26.385  25.972   5.645
 3353POPC   C1A45159  25.830  26.116   6.103
 3353POPC   D2A45160  25.935  26.166   6.557
 3353POPC   C3A45161  25.973  25.832   6.879
 3353POPC   C4A45162  25.884  26.127   7.191
 3353POPC   C1B45163  26.350  25.929   6.088
 3353POPC   C2B45164  26.535  26.099   6.468
 3353POPC   C3B45165  26.372  26.162   6.866
 3353POPC   C4B45166  26.420  25.900   7.207
 3354POPC   NC345167   8.410  12.490   5.332
 3354POPC   PO445168   8.046  13.155   5.367
 3354POPC   GL145169   8.272  12.873   5.666
 3354POPC   GL245170   8.062  12.615   5.777
 3354POPC   C1A45171   8.444  12.767   6.094
 3354POPC   D2A45172   8.216  12.990   6.409
 3354POPC   C3A45173   8.201  13.041   6.851
 3354POPC   C4A45174   8.327  12.838   7.248
 3354POPC   C1B45175   7.860  12.730   6.139
 3354POPC   C2B45176   7.786  12.776   6.563
 3354POPC   C3B45177   8.059  12.564   6.826
 3354POPC   C4B45178   7.866  12.613   7.196
 3355POPC   NC345179   9.912  16.265   5.392
 3355POPC   PO445180   9.602  15.653   5.447
 3355POPC   GL145181   9.753  15.914   5.778
 3355POPC   GL245182   9.522  16.203   5.730
 3355POPC   C1A45183   9.775  15.772   6.225
 3355POPC   D2A45184   9.635  15.495   6.569
 3355POPC   C3A45185   9.852  15.591   6.957
 3355POPC   C4A45186   9.667  15.762   7.309
 3355POPC   C1B45187   9.643  16.274   6.167
 3355POPC   C2B45188   9.504  16.144   6.583
 3355POPC   C3B45189   9.568  16.206   7.023
 3355POPC   C4B45190   9.953  16.187   7.231
 3356POPC   NC345191  43.606  24.415   5.388
 3356POPC   PO445192  44.287  24.492   5.597
 3356POPC   GL145193  43.864  24.462   5.825
 3356POPC   GL245194  43.602  24.172   5.834
 3356POPC   C1A45195  43.674  24.465   6.239
 3356POPC   D2A45196  43.911  24.356   6.586
 3356POPC   C3A45197  43.900  24.637   6.890
 3356POPC   C4A45198  43.797  24.494   7.275
 3356POPC   C1B45199  43.838  23.993   6.190
 3356POPC   C2B45200  43.670  23.893   6.588
 3356POPC   C3B45201  43.669  24.071   6.986
 3356POPC   C4B45202  44.103  24.132   7.093
 3357POPC   NC345203  41.864   7.009   5.576
 3357POPC   PO445204  42.013   6.415   5.248
 3357POPC   GL145205  41.863   6.531   5.734
 3357POPC   GL245206  41.514   6.571   5.799
 3357POPC   C1A45207  41.763   6.425   6.216
 3357POPC   D2A45208  41.471   6.505   6.572
 3357POPC   C3A45209  41.634   6.497   7.003
 3357POPC   C4A45210  41.432   6.680   7.403
 3357POPC   C1B45211  41.519   6.867   6.178
 3357POPC   C2B45212  41.400   7.047   6.560
 3357POPC   C3B45213  41.292   6.903   6.951
 3357POPC   C4B45214  41.696   6.986   7.108
 3358POPC   NC345215   5.653  44.152   5.109
 3358POPC   PO445216   5.138  44.403   5.251
 3358POPC   GL145217   5.218  44.436   5.716
 3358POPC   GL245218   5.448  44.207   5.865
 3358POPC   C1A45219   5.218  44.606   6.167
 3358POPC   D2A45220   5.385  44.624   6.617
 3358POPC   C3A45221   5.144  44.678   7.031
 3358POPC   C4A45222   4.839  44.637   7.393
 3358POPC   C1B45223   5.668  44.373   6.249
 3358POPC   C2B45224   5.714  44.245   6.673
 3358POPC   C3B45225   5.545  44.335   7.061
 3358POPC   C4B45226   5.639  44.762   7.134
 3359POPC   NC345227  32.524  30.219   5.357
 3359POPC   PO445228  31.931  29.852   5.395
 3359POPC   GL145229  32.177  30.020   5.752
 3359POPC   GL245230  32.452  30.216   5.868
 3359POPC   C1A45231  32.255  29.839   6.155
 3359POPC   D2A45232  32.487  29.740   6.505
 3359POPC   C3A45233  32.283  29.802   6.887
 3359POPC   C4A45234  32.377  29.609   7.211
 3359POPC   C1B45235  32.585  30.345   6.283
 3359POPC   C2B45236  32.475  30.228   6.708
 3359POPC   C3B45237  32.595  30.232   7.140
 3359POPC   C4B45238  32.612  29.953   7.482
 3360POPC   NC345239  13.559  44.462   5.366
 3360POPC   PO445240  13.799   0.055   5.268
 3360POPC   GL145241  13.700  44.859   5.683
 3360POPC   GL245242  13.469   0.073   5.838
 3360POPC   C1A45243  13.722  44.670   6.123
 3360POPC   D2A45244  13.662  44.415   6.504
 3360POPC   C3A45245  13.526  44.598   6.897
 3360POPC   C4A45246  13.652  44.487   7.303
 3360POPC   C1B45247  13.277  44.866   6.223
 3360POPC   C2B45248  13.308   0.007   6.630
 3360POPC   C3B45249  13.431   0.150   7.013
 3360POPC   C4B45250  13.677  44.994   7.337
 3361POPC   NC345251  31.576  37.956   5.198
 3361POPC   PO445252  31.352  37.412   5.517
 3361POPC   GL145253  31.511  37.643   5.852
 3361POPC   GL245254  31.573  37.978   5.738
 3361POPC   C1A45255  31.491  37.498   6.285
 3361POPC   D2A45256  31.613  37.434   6.707
 3361POPC   C3A45257  31.327  37.444   7.065
 3361POPC   C4A45258  31.083  37.795   7.157
 3361POPC   C1B45259  31.433  38.004   6.180
 3361POPC   C2B45260  31.669  37.932   6.546
 3361POPC   C3B45261  31.551  37.895   6.963
 3361POPC   C4B45262  31.792  38.017   7.296
 3362POPC   NC345263  33.159  28.254   5.463
 3362POPC   PO445264  32.739  28.779   5.337
 3362POPC   GL145265  32.686  28.536   5.746
 3362POPC   GL245266  32.828  28.173   5.830
 3362POPC   C1A45267  32.792  28.528   6.196
 3362POPC   D2A45268  32.904  28.222   6.517
 3362POPC   C3A45269  32.836  28.341   6.909
 3362POPC   C4A45270  32.733  28.307   7.333
 3362POPC   C1B45271  33.221  28.213   6.113
 3362POPC   C2B45272  33.410  28.321   6.526
 3362POPC   C3B45273  33.460  28.545   6.901
 3362POPC   C4B45274  33.201  28.523   7.246
 3363POPC   NC345275  25.596  24.063   5.732
 3363POPC   PO445276  25.150  23.613   5.470
 3363POPC   GL145277  25.302  23.669   5.866
 3363POPC   GL245278  25.092  23.941   5.899
 3363POPC   C1A45279  25.486  23.710   6.269
 3363POPC   D2A45280  25.498  23.873   6.682
 3363POPC   C3A45281  25.446  23.565   7.000
 3363POPC   C4A45282  25.252  23.557   7.426
 3363POPC   C1B45283  24.975  23.729   6.296
 3363POPC   C2B45284  24.970  23.763   6.743
 3363POPC   C3B45285  25.149  23.946   7.096
 3363POPC   C4B45286  25.098  24.060   7.516
 3364POPC   NC345287  33.409  29.821   5.113
 3364POPC   PO445288  34.062  30.012   5.153
 3364POPC   GL145289  33.800  29.953   5.583
 3364POPC   GL245290  33.696  30.282   5.728
 3364POPC   C1A45291  33.758  29.781   6.058
 3364POPC   D2A45292  33.913  29.628   6.505
 3364POPC   C3A45293  33.746  29.879   6.894
 3364POPC   C4A45294  33.621  29.848   7.377
 3364POPC   C1B45295  34.063  30.235   6.021
 3364POPC   C2B45296  34.254  30.381   6.439
 3364POPC   C3B45297  34.211  30.300   6.898
 3364POPC   C4B45298  33.798  30.292   7.173
 3365POPC   NC345299  15.879  44.992   5.536
 3365POPC   PO445300  16.436   0.277   5.251
 3365POPC   GL145301  16.121   0.410   5.664
 3365POPC   GL245302  15.912   0.706   5.725
 3365POPC   C1A45303  15.904   0.320   6.090
 3365POPC   D2A45304  15.884   0.460   6.508
 3365POPC   C3A45305  15.542   0.430   6.777
 3365POPC   C4A45306  15.650   0.230   7.160
 3365POPC   C1B45307  16.132   0.774   6.169
 3365POPC   C2B45308  16.163   0.856   6.664
 3365POPC   C3B45309  16.224   0.588   7.087
 3365POPC   C4B45310  16.263   0.697   7.577
 3366POPC   NC345311  29.019  32.518   5.527
 3366POPC   PO445312  29.554  32.073   5.496
 3366POPC   GL145313  29.349  32.217   5.857
 3366POPC   GL245314  29.120  31.956   5.877
 3366POPC   C1A45315  29.091  32.363   6.242
 3366POPC   D2A45316  28.835  32.312   6.629
 3366POPC   C3A45317  28.945  32.521   6.974
 3366POPC   C4A45318  29.375  32.477   7.081
 3366POPC   C1B45319  29.381  31.932   6.277
 3366POPC   C2B45320  29.340  32.138   6.688
 3366POPC   C3B45321  29.066  32.025   7.044
 3366POPC   C4B45322  29.101  31.662   7.317
 3367POPC   NC345323  25.507  36.406   5.348
 3367POPC   PO445324  24.953  36.123   5.443
 3367POPC   GL145325  25.075  35.883   5.796
 3367POPC   GL245326  25.407  35.934   5.726
 3367POPC   C1A45327  25.147  35.949   6.273
 3367POPC   D2A45328  25.025  36.237   6.658
 3367POPC   C3A45329  25.112  36.128   7.066
 3367POPC   C4A45330  25.129  35.714   7.185
 3367POPC   C1B45331  25.566  36.137   6.063
 3367POPC   C2B45332  25.569  36.134   6.510
 3367POPC   C3B45333  25.485  35.898   6.831
 3367POPC   C4B45334  25.581  35.922   7.239
 3368POPC   NC345335  33.891  25.176   5.684
 3368POPC   PO445336  33.264  25.326   5.408
 3368POPC   GL145337  33.382  25.505   5.791
 3368POPC   GL245338  33.415  25.169   5.883
 3368POPC   C1A45339  33.552  25.594   6.227
 3368POPC   D2A45340  33.950  25.487   6.459
 3368POPC   C3A45341  33.935  25.385   6.921
 3368POPC   C4A45342  33.540  25.371   7.153
 3368POPC   C1B45343  33.581  25.070   6.254
 3368POPC   C2B45344  33.491  25.227   6.631
 3368POPC   C3B45345  33.320  24.920   6.874
 3368POPC   C4B45346  33.551  24.866   7.216
 3369POPC   NC345347  41.224  18.729   5.538
 3369POPC   PO445348  40.566  18.898   5.326
 3369POPC   GL145349  40.618  18.921   5.759
 3369POPC   GL245350  40.865  19.124   5.847
 3369POPC   C1A45351  40.654  18.843   6.219
 3369POPC   D2A45352  40.914  18.908   6.608
 3369POPC   C3A45353  40.784  18.791   7.035
 3369POPC   C4A45354  40.812  18.942   7.447
 3369POPC   C1B45355  40.935  19.425   6.180
 3369POPC   C2B45356  40.958  19.437   6.622
 3369POPC   C3B45357  40.994  19.281   7.016
 3369POPC   C4B45358  41.115  19.359   7.447
 3370POPC   NC345359   2.685  35.392   5.025
 3370POPC   PO445360   2.115  35.484   5.340
 3370POPC   GL145361   2.000  35.435   5.789
 3370POPC   GL245362   1.868  35.096   5.922
 3370POPC   C1A45363   2.163  35.403   6.221
 3370POPC   D2A45364   2.177  35.570   6.635
 3370POPC   C3A45365   1.943  35.308   6.929
 3370POPC   C4A45366   1.807  35.377   7.369
 3370POPC   C1B45367   2.103  34.868   6.267
 3370POPC   C2B45368   1.917  34.782   6.745
 3370POPC   C3B45369   1.774  34.886   7.167
 3370POPC   C4B45370   1.860  34.918   7.616
 3371POPC   NC345371  22.365  24.712   5.488
 3371POPC   PO445372  22.404  24.080   5.664
 3371POPC   GL145373  22.047  24.261   5.869
 3371POPC   GL245374  22.015  24.609   5.876
 3371POPC   C1A45375  22.141  24.361   6.314
 3371POPC   D2A45376  22.402  24.149   6.621
 3371POPC   C3A45377  22.270  24.255   7.010
 3371POPC   C4A45378  21.930  24.428   7.235
 3371POPC   C1B45379  22.149  24.870   6.248
 3371POPC   C2B45380  22.316  24.740   6.641
 3371POPC   C3B45381  22.260  24.789   7.089
 3371POPC   C4B45382  22.312  24.599   7.522
 3372POPC   NC345383  40.299   4.093   4.968
 3372POPC   PO445384  39.831   4.448   5.427
 3372POPC   GL145385  39.874   4.336   5.835
 3372POPC   GL245386  39.599   4.061   5.847
 3372POPC   C1A45387  40.173   4.450   6.203
 3372POPC   D2A45388  40.275   4.675   6.603
 3372POPC   C3A45389  40.331   4.431   6.950
 3372POPC   C4A45390  39.970   4.401   7.176
 3372POPC   C1B45391  39.768   4.148   6.275
 3372POPC   C2B45392  39.928   4.236   6.658
 3372POPC   C3B45393  39.867   3.938   6.983
 3372POPC   C4B45394  39.826   3.967   7.388
 3373POPC   NC345395  31.351   4.134   5.529
 3373POPC   PO445396  31.624   3.619   5.824
 3373POPC   GL145397  31.409   4.012   6.017
 3373POPC   GL245398  31.059   4.027   5.952
 3373POPC   C1A45399  31.264   4.344   6.331
 3373POPC   D2A45400  31.255   4.210   6.769
 3373POPC   C3A45401  31.423   4.360   7.150
 3373POPC   C4A45402  31.436   4.261   7.608
 3373POPC   C1B45403  30.950   3.934   6.403
 3373POPC   C2B45404  30.781   4.070   6.811
 3373POPC   C3B45405  31.007   3.989   7.215
 3373POPC   C4B45406  30.930   4.127   7.657
 3374POPC   NC345407  41.466  20.881   5.456
 3374POPC   PO445408  41.752  20.257   5.280
 3374POPC   GL145409  41.585  20.421   5.715
 3374POPC   GL245410  41.775  20.667   5.918
 3374POPC   C1A45411  41.305  20.575   6.076
 3374POPC   D2A45412  41.224  20.398   6.475
 3374POPC   C3A45413  41.366  20.628   6.834
 3374POPC   C4A45414  41.176  20.635   7.221
 3374POPC   C1B45415  41.861  20.491   6.346
 3374POPC   C2B45416  41.877  20.484   6.809
 3374POPC   C3B45417  41.735  20.546   7.222
 3374POPC   C4B45418  41.920  20.352   7.580
 3375POPC   NC345419  44.432  16.974   5.423
 3375POPC   PO445420  44.663  16.364   5.408
 3375POPC   GL145421  44.517  16.566   5.739
 3375POPC   GL245422  44.795  16.808   5.745
 3375POPC   C1A45423  44.688  16.469   6.141
 3375POPC   D2A45424  44.611  16.620   6.545
 3375POPC   C3A45425  44.922  16.599   6.840
 3375POPC   C4A45426  44.680  16.736   7.188
 3375POPC   C1B45427  44.810  16.997   6.148
 3375POPC   C2B45428   0.013  17.021   6.540
 3375POPC   C3B45429  44.955  17.110   6.970
 3375POPC   C4B45430   0.192  16.801   7.228
 3376POPC   NC345431  28.755  31.040   5.551
 3376POPC   PO445432  28.534  30.542   5.167
 3376POPC   GL145433  28.567  30.487   5.665
 3376POPC   GL245434  28.264  30.354   5.872
 3376POPC   C1A45435  28.685  30.679   6.098
 3376POPC   D2A45436  28.615  30.911   6.516
 3376POPC   C3A45437  28.512  30.674   6.931
 3376POPC   C4A45438  28.510  30.834   7.377
 3376POPC   C1B45439  28.193  30.627   6.181
 3376POPC   C2B45440  28.111  30.724   6.588
 3376POPC   C3B45441  27.982  30.651   6.996
 3376POPC   C4B45442  28.095  30.529   7.409
 3377POPC   NC345443  16.761   2.343   5.363
 3377POPC   PO445444  17.004   1.663   5.405
 3377POPC   GL145445  16.845   1.724   5.820
 3377POPC   GL245446  16.784   2.074   5.819
 3377POPC   C1A45447  16.909   1.813   6.246
 3377POPC   D2A45448  16.641   1.801   6.599
 3377POPC   C3A45449  16.906   1.730   6.944
 3377POPC   C4A45450  17.066   1.816   7.341
 3377POPC   C1B45451  16.440   2.023   6.129
 3377POPC   C2B45452  16.350   2.252   6.495
 3377POPC   C3B45453  16.298   2.083   6.900
 3377POPC   C4B45454  16.379   2.223   7.326
 3378POPC   NC345455  26.313  41.862   5.597
 3378POPC   PO445456  26.609  41.398   5.168
 3378POPC   GL145457  26.732  41.531   5.609
 3378POPC   GL245458  26.537  41.379   5.895
 3378POPC   C1A45459  27.019  41.574   5.996
 3378POPC   D2A45460  27.195  41.467   6.414
 3378POPC   C3A45461  27.044  41.657   6.799
 3378POPC   C4A45462  26.790  41.783   7.114
 3378POPC   C1B45463  26.706  41.261   6.317
 3378POPC   C2B45464  26.788  41.247   6.782
 3378POPC   C3B45465  26.690  41.276   7.221
 3378POPC   C4B45466  26.500  41.165   7.641
 3379POPC   NC345467  29.906   3.733   5.221
 3379POPC   PO445468  30.331   3.366   5.614
 3379POPC   GL145469  29.977   3.476   5.889
 3379POPC   GL245470  29.875   3.794   5.744
 3379POPC   C1A45471  29.866   3.417   6.305
 3379POPC   D2A45472  30.090   3.694   6.590
 3379POPC   C3A45473  30.284   3.507   6.947
 3379POPC   C4A45474  30.573   3.630   7.281
 3379POPC   C1B45475  29.727   3.864   6.168
 3379POPC   C2B45476  29.595   3.748   6.627
 3379POPC   C3B45477  29.797   3.706   7.045
 3379POPC   C4B45478  30.065   3.702   7.415
 3380POPC   NC345479   0.761  40.149   5.396
 3380POPC   PO445480   0.394  39.623   5.458
 3380POPC   GL145481   0.582  39.813   5.844
 3380POPC   GL245482   0.583  40.196   5.874
 3380POPC   C1A45483   0.404  39.905   6.286
 3380POPC   D2A45484   0.120  39.930   6.675
 3380POPC   C3A45485   0.309  39.937   7.099
 3380POPC   C4A45486   0.664  39.671   7.336
 3380POPC   C1B45487   0.598  40.382   6.280
 3380POPC   C2B45488   0.477  40.335   6.719
 3380POPC   C3B45489   0.720  40.209   7.076
 3380POPC   C4B45490   0.690  40.170   7.535
 3381POPC   NC345491  24.386  18.018   5.399
 3381POPC   PO445492  24.568  17.382   5.278
 3381POPC   GL145493  24.650  17.321   5.726
 3381POPC   GL245494  24.509  17.641   5.755
 3381POPC   C1A45495  24.701  17.443   6.186
 3381POPC   D2A45496  24.444  17.392   6.561
 3381POPC   C3A45497  24.594  17.379   6.974
 3381POPC   C4A45498  24.900  17.598   7.204
 3381POPC   C1B45499  24.226  17.621   6.141
 3381POPC   C2B45500  24.188  17.853   6.556
 3381POPC   C3B45501  24.490  17.886   6.902
 3381POPC   C4B45502  24.415  17.718   7.315
 3382POPC   NC345503  35.286  27.322   5.526
 3382POPC   PO445504  35.580  27.851   5.303
 3382POPC   GL145505  35.319  27.829   5.693
 3382POPC   GL245506  35.019  27.664   5.775
 3382POPC   C1A45507  35.356  27.730   6.162
 3382POPC   D2A45508  35.548  27.759   6.583
 3382POPC   C3A45509  35.629  27.535   6.951
 3382POPC   C4A45510  35.433  27.700   7.299
 3382POPC   C1B45511  34.986  27.379   6.144
 3382POPC   C2B45512  35.199  27.372   6.536
 3382POPC   C3B45513  35.118  27.511   6.934
 3382POPC   C4B45514  34.934  27.500   7.321
 3383POPC   NC345515  38.299   5.263   5.532
 3383POPC   PO445516  38.955   4.927   5.372
 3383POPC   GL145517  38.736   5.054   5.719
 3383POPC   GL245518  38.851   5.349   5.823
 3383POPC   C1A45519  38.623   4.870   6.116
 3383POPC   D2A45520  38.770   5.008   6.527
 3383POPC   C3A45521  38.529   5.008   6.907
 3383POPC   C4A45522  38.715   4.859   7.314
 3383POPC   C1B45523  38.573   5.368   6.189
 3383POPC   C2B45524  38.232   5.293   6.500
 3383POPC   C3B45525  38.134   5.441   6.932
 3383POPC   C4B45526  38.414   5.375   7.260
 3384POPC   NC345527  31.602  31.173   5.516
 3384POPC   PO445528  31.323  31.777   5.417
 3384POPC   GL145529  31.352  31.539   5.840
 3384POPC   GL245530  31.682  31.619   5.841
 3384POPC   C1A45531  31.302  31.519   6.327
 3384POPC   D2A45532  31.415  31.740   6.711
 3384POPC   C3A45533  31.237  31.574   7.075
 3384POPC   C4A45534  31.104  31.159   7.186
 3384POPC   C1B45535  31.837  31.430   6.225
 3384POPC   C2B45536  31.724  31.303   6.660
 3384POPC   C3B45537  31.713  31.344   7.112
 3384POPC   C4B45538  31.849  31.465   7.541
 3385POPC   NC345539  20.106  38.474   5.454
 3385POPC   PO445540  19.743  37.907   5.536
 3385POPC   GL145541  19.935  38.137   5.841
 3385POPC   GL245542  20.272  38.070   5.881
 3385POPC   C1A45543  19.828  38.348   6.214
 3385POPC   D2A45544  20.023  38.335   6.611
 3385POPC   C3A45545  19.810  38.435   6.962
 3385POPC   C4A45546  19.675  38.058   7.161
 3385POPC   C1B45547  20.326  38.432   6.159
 3385POPC   C2B45548  20.290  38.748   6.507
 3385POPC   C3B45549  20.361  38.626   6.946
 3385POPC   C4B45550  20.224  38.714   7.362
 3386POPC   NC345551  38.923  20.800   5.520
 3386POPC   PO445552  39.289  20.387   5.211
 3386POPC   GL145553  39.283  20.371   5.663
 3386POPC   GL245554  39.543  20.143   5.741
 3386POPC   C1A45555  39.247  20.468   6.105
 3386POPC   D2A45556  39.446  20.697   6.463
 3386POPC   C3A45557  39.212  20.822   6.832
 3386POPC   C4A45558  39.286  20.780   7.264
 3386POPC   C1B45559  39.461  19.992   6.152
 3386POPC   C2B45560  39.321  20.162   6.530
 3386POPC   C3B45561  39.199  20.297   6.912
 3386POPC   C4B45562  39.387  20.306   7.332
 3387POPC   NC345563  27.050  17.507   5.375
 3387POPC   PO445564  26.413  17.623   5.225
 3387POPC   GL145565  26.594  17.653   5.674
 3387POPC   GL245566  26.908  17.850   5.748
 3387POPC   C1A45567  26.736  17.484   6.099
 3387POPC   D2A45568  26.911  17.567   6.532
 3387POPC   C3A45569  26.752  17.464   6.945
 3387POPC   C4A45570  26.492  17.129   7.053
 3387POPC   C1B45571  27.166  17.796   6.137
 3387POPC   C2B45572  27.317  17.876   6.547
 3387POPC   C3B45573  27.155  17.787   6.965
 3387POPC   C4B45574  27.044  17.917   7.407
 3388POPC   NC345575  37.787  34.858   5.344
 3388POPC   PO445576  37.247  34.492   5.533
 3388POPC   GL145577  37.616  34.531   5.831
 3388POPC   GL245578  37.769  34.876   5.849
 3388POPC   C1A45579  37.844  34.227   6.138
 3388POPC   D2A45580  37.855  34.327   6.581
 3388POPC   C3A45581  37.453  34.373   6.783
 3388POPC   C4A45582  37.532  34.275   7.170
 3388POPC   C1B45583  37.804  34.725   6.258
 3388POPC   C2B45584  37.705  34.807   6.659
 3388POPC   C3B45585  37.652  35.145   6.819
 3388POPC   C4B45586  37.969  35.133   7.081
 3389POPC   NC345587  27.230  15.201   5.358
 3389POPC   PO445588  27.817  15.017   5.388
 3389POPC   GL145589  27.657  15.271   5.800
 3389POPC   GL245590  27.272  15.349   5.845
 3389POPC   C1A45591  27.845  15.338   6.252
 3389POPC   D2A45592  27.682  15.364   6.677
 3389POPC   C3A45593  27.903  15.276   7.066
 3389POPC   C4A45594  27.792  15.156   7.486
 3389POPC   C1B45595  27.302  15.360   6.298
 3389POPC   C2B45596  27.152  15.404   6.740
 3389POPC   C3B45597  27.373  15.270   7.120
 3389POPC   C4B45598  27.319  15.292   7.590
 3390POPC   NC345599  39.194  39.862   5.396
 3390POPC   PO445600  39.682  40.346   5.305
 3390POPC   GL145601  39.449  40.208   5.710
 3390POPC   GL245602  39.059  40.235   5.735
 3390POPC   C1A45603  39.316  39.915   6.080
 3390POPC   D2A45604  39.082  39.778   6.443
 3390POPC   C3A45605  39.205  39.849   6.876
 3390POPC   C4A45606  39.094  39.725   7.293
 3390POPC   C1B45607  38.926  40.246   6.168
 3390POPC   C2B45608  38.756  40.164   6.581
 3390POPC   C3B45609  38.901  40.245   6.994
 3390POPC   C4B45610  38.983  40.206   7.447
 3391POPC   NC345611  43.318  21.293   5.430
 3391POPC   PO445612  42.697  21.587   5.657
 3391POPC   GL145613  42.975  21.310   5.849
 3391POPC   GL245614  43.343  21.274   5.924
 3391POPC   C1A45615  42.957  21.269   6.275
 3391POPC   D2A45616  42.747  21.130   6.633
 3391POPC   C3A45617  42.936  21.363   6.979
 3391POPC   C4A45618  42.990  21.789   7.175
 3391POPC   C1B45619  43.610  21.217   6.265
 3391POPC   C2B45620  43.621  21.529   6.584
 3391POPC   C3B45621  43.434  21.517   6.984
 3391POPC   C4B45622  43.368  21.141   7.225
 3392POPC   NC345623  35.202   8.529   5.656
 3392POPC   PO445624  35.149   7.897   5.431
 3392POPC   GL145625  35.427   8.028   5.785
 3392POPC   GL245626  35.784   8.177   5.788
 3392POPC   C1A45627  35.309   8.169   6.192
 3392POPC   D2A45628  35.054   8.115   6.550
 3392POPC   C3A45629  35.162   8.456   6.830
 3392POPC   C4A45630  35.302   8.288   7.203
 3392POPC   C1B45631  35.777   7.956   6.205
 3392POPC   C2B45632  35.613   8.141   6.603
 3392POPC   C3B45633  35.724   8.086   7.010
 3392POPC   C4B45634  35.820   8.283   7.354
 3393POPC   NC345635   1.433  11.616   5.543
 3393POPC   PO445636   1.226  10.962   5.666
 3393POPC   GL145637   1.195  11.306   5.864
 3393POPC   GL245638   0.952  11.477   5.672
 3393POPC   C1A45639   1.327  11.360   6.284
 3393POPC   D2A45640   1.325  10.968   6.517
 3393POPC   C3A45641   1.336  11.002   6.953
 3393POPC   C4A45642   1.190  10.871   7.359
 3393POPC   C1B45643   0.914  11.655   6.102
 3393POPC   C2B45644   0.894  11.516   6.552
 3393POPC   C3B45645   0.898  11.662   6.968
 3393POPC   C4B45646   1.121  11.387   7.235
 3394POPC   NC345647  40.414  44.069   5.529
 3394POPC   PO445648  39.947  43.530   5.370
 3394POPC   GL145649  39.909  43.729   5.778
 3394POPC   GL245650  40.265  43.721   5.859
 3394POPC   C1A45651  39.817  43.940   6.195
 3394POPC   D2A45652  40.115  44.024   6.548
 3394POPC   C3A45653  39.934  44.100   6.949
 3394POPC   C4A45654  39.643  43.865   7.209
 3394POPC   C1B45655  40.197  43.597   6.262
 3394POPC   C2B45656  39.947  43.515   6.614
 3394POPC   C3B45657  40.033  43.574   7.026
 3394POPC   C4B45658  40.388  43.481   7.242
 3395POPC   NC345659   2.739  41.222   5.051
 3395POPC   PO445660   2.896  40.594   5.189
 3395POPC   GL145661   2.761  40.671   5.642
 3395POPC   GL245662   2.838  41.028   5.668
 3395POPC   C1A45663   2.754  40.513   6.103
 3395POPC   D2A45664   2.513  40.620   6.509
 3395POPC   C3A45665   2.713  40.480   6.880
 3395POPC   C4A45666   2.902  40.643   7.257
 3395POPC   C1B45667   2.688  41.021   6.102
 3395POPC   C2B45668   2.829  41.007   6.540
 3395POPC   C3B45669   2.633  40.970   6.949
 3395POPC   C4B45670   2.745  41.165   7.321
 3396POPC   NC345671  10.228  24.925   5.412
 3396POPC   PO445672   9.679  25.343   5.412
 3396POPC   GL145673   9.939  25.244   5.738
 3396POPC   GL245674   9.838  25.538   5.898
 3396POPC   C1A45675   9.851  25.012   6.120
 3396POPC   D2A45676  10.003  25.030   6.565
 3396POPC   C3A45677   9.711  25.181   6.885
 3396POPC   C4A45678   9.353  25.349   7.115
 3396POPC   C1B45679   9.618  25.450   6.263
 3396POPC   C2B45680   9.915  25.553   6.557
 3396POPC   C3B45681   9.917  25.715   6.935
 3396POPC   C4B45682   9.811  25.481   7.286
 3397POPC   NC345683  41.327  20.062   5.370
 3397POPC   PO445684  41.869  19.662   5.610
 3397POPC   GL145685  41.552  19.878   5.774
 3397POPC   GL245686  41.230  19.664   5.745
 3397POPC   C1A45687  41.559  20.111   6.133
 3397POPC   D2A45688  41.783  20.009   6.482
 3397POPC   C3A45689  41.530  20.111   6.809
 3397POPC   C4A45690  41.606  20.064   7.217
 3397POPC   C1B45691  41.440  19.561   6.147
 3397POPC   C2B45692  41.422  19.644   6.581
 3397POPC   C3B45693  41.311  19.678   7.015
 3397POPC   C4B45694  41.573  19.576   7.340
 3398POPC   NC345695   9.613   5.960   5.261
 3398POPC   PO445696  10.237   5.769   5.431
 3398POPC   GL145697   9.824   5.675   5.652
 3398POPC   GL245698   9.667   5.988   5.782
 3398POPC   C1A45699   9.559   5.564   6.027
 3398POPC   D2A45700   9.579   5.732   6.457
 3398POPC   C3A45701   9.366   5.743   6.848
 3398POPC   C4A45702   9.596   5.694   7.247
 3398POPC   C1B45703   9.506   6.163   6.178
 3398POPC   C2B45704   9.682   6.194   6.619
 3398POPC   C3B45705   9.568   6.176   7.073
 3398POPC   C4B45706   9.534   6.284   7.545
 3399POPC   NC345707  37.528  23.154   5.452
 3399POPC   PO445708  38.091  22.771   5.346
 3399POPC   GL145709  37.853  22.843   5.757
 3399POPC   GL245710  37.477  22.737   5.761
 3399POPC   C1A45711  37.718  23.059   6.170
 3399POPC   D2A45712  37.774  23.242   6.617
 3399POPC   C3A45713  37.874  22.986   7.012
 3399POPC   C4A45714  37.801  22.931   7.465
 3399POPC   C1B45715  37.295  22.778   6.179
 3399POPC   C2B45716  37.221  22.909   6.649
 3399POPC   C3B45717  37.376  22.829   7.095
 3399POPC   C4B45718  37.483  22.531   7.446
 3400POPC   NC345719  40.260  10.210   5.351
 3400POPC   PO445720  39.683   9.982   5.429
 3400POPC   GL145721  39.940  10.240   5.778
 3400POPC   GL245722  40.279  10.126   5.890
 3400POPC   C1A45723  39.996  10.443   6.231
 3400POPC   D2A45724  39.850  10.661   6.638
 3400POPC   C3A45725  39.885  10.482   7.059
 3400POPC   C4A45726  39.627  10.441   7.447
 3400POPC   C1B45727  40.392  10.130   6.346
 3400POPC   C2B45728  40.323  10.446   6.698
 3400POPC   C3B45729  40.405  10.539   7.154
 3400POPC   C4B45730  40.519  10.443   7.606
 3401POPC   NC345731  25.538   2.295   5.482
 3401POPC   PO445732  24.981   1.886   5.473
 3401POPC   GL145733  24.970   1.922   5.888
 3401POPC   GL245734  25.329   1.894   5.879
 3401POPC   C1A45735  25.125   2.120   6.306
 3401POPC   D2A45736  25.422   1.950   6.617
 3401POPC   C3A45737  25.314   2.092   7.013
 3401POPC   C4A45738  24.976   2.228   7.202
 3401POPC   C1B45739  25.243   1.635   6.247
 3401POPC   C2B45740  25.114   1.472   6.646
 3401POPC   C3B45741  25.204   1.567   7.070
 3401POPC   C4B45742  25.500   1.744   7.338
 3402POPC   NC345743  30.387   2.990   5.321
 3402POPC   PO445744  30.888   2.655   5.311
 3402POPC   GL145745  30.694   2.719   5.731
 3402POPC   GL245746  30.691   3.063   5.822
 3402POPC   C1A45747  30.463   2.630   6.154
 3402POPC   D2A45748  30.499   2.827   6.594
 3402POPC   C3A45749  30.496   2.555   6.991
 3402POPC   C4A45750  30.791   2.410   7.312
 3402POPC   C1B45751  30.877   2.913   6.220
 3402POPC   C2B45752  31.004   2.845   6.658
 3402POPC   C3B45753  30.846   2.950   7.072
 3402POPC   C4B45754  30.821   3.230   7.444
 3403POPC   NC345755   4.792  20.004   5.489
 3403POPC   PO445756   4.876  19.325   5.353
 3403POPC   GL145757   4.899  19.563   5.736
 3403POPC   GL245758   5.186  19.792   5.712
 3403POPC   C1A45759   4.983  19.566   6.181
 3403POPC   D2A45760   5.153  19.627   6.565
 3403POPC   C3A45761   4.875  19.575   6.889
 3403POPC   C4A45762   4.659  19.652   7.303
 3403POPC   C1B45763   5.131  20.046   6.079
 3403POPC   C2B45764   5.051  20.113   6.505
 3403POPC   C3B45765   5.315  20.055   6.853
 3403POPC   C4B45766   5.043  19.952   7.186
 3404POPC   NC345767  21.466  39.293   5.434
 3404POPC   PO445768  20.997  39.054   5.727
 3404POPC   GL145769  21.344  39.290   5.943
 3404POPC   GL245770  21.720  39.276   5.874
 3404POPC   C1A45771  21.516  39.421   6.344
 3404POPC   D2A45772  21.378  39.589   6.717
 3404POPC   C3A45773  21.565  39.358   7.029
 3404POPC   C4A45774  21.570  39.428   7.478
 3404POPC   C1B45775  21.713  38.972   6.219
 3404POPC   C2B45776  21.566  38.992   6.659
 3404POPC   C3B45777  21.735  38.871   7.066
 3404POPC   C4B45778  21.706  38.942   7.533
 3405POPC   NC345779   5.870  15.483   5.444
 3405POPC   PO445780   5.997  14.819   5.477
 3405POPC   GL145781   5.916  14.957   5.844
 3405POPC   GL245782   6.127  15.223   5.784
 3405POPC   C1A45783   5.773  14.864   6.252
 3405POPC   D2A45784   5.909  14.651   6.638
 3405POPC   C3A45785   5.783  14.936   6.914
 3405POPC   C4A45786   5.667  15.020   7.283
 3405POPC   C1B45787   6.014  15.325   6.187
 3405POPC   C2B45788   6.135  15.126   6.557
 3405POPC   C3B45789   6.264  15.096   6.955
 3405POPC   C4B45790   6.111  15.264   7.359
 3406POPC   NC345791  12.544   0.379   5.280
 3406POPC   PO445792  13.156   0.712   5.417
 3406POPC   GL145793  13.084   0.420   5.713
 3406POPC   GL245794  12.752   0.344   5.750
 3406POPC   C1A45795  13.122   0.324   6.129
 3406POPC   D2A45796  12.877   0.241   6.455
 3406POPC   C3A45797  13.014   0.423   6.824
 3406POPC   C4A45798  12.934   0.197   7.182
 3406POPC   C1B45799  12.705   0.614   6.121
 3406POPC   C2B45800  12.609   0.672   6.581
 3406POPC   C3B45801  12.548   0.535   7.033
 3406POPC   C4B45802  12.414   0.723   7.441
 3407POPC   NC345803  21.083  36.061   5.258
 3407POPC   PO445804  20.668  36.448   5.487
 3407POPC   GL145805  20.649  36.057   5.721
 3407POPC   GL245806  20.942  35.874   5.728
 3407POPC   C1A45807  20.548  35.977   6.141
 3407POPC   D2A45808  20.603  36.209   6.522
 3407POPC   C3A45809  20.436  36.006   6.882
 3407POPC   C4A45810  20.267  35.981   7.283
 3407POPC   C1B45811  21.057  36.029   6.126
 3407POPC   C2B45812  21.020  35.916   6.559
 3407POPC   C3B45813  20.952  36.130   6.929
 3407POPC   C4B45814  21.016  35.947   7.328
 3408POPC   NC345815  27.058  21.933   5.338
 3408POPC   PO445816  26.492  22.359   5.418
 3408POPC   GL145817  26.732  22.244   5.758
 3408POPC   GL245818  27.029  22.453   5.821
 3408POPC   C1A45819  26.923  22.033   6.103
 3408POPC   D2A45820  27.053  22.174   6.503
 3408POPC   C3A45821  26.854  22.112   6.925
 3408POPC   C4A45822  27.059  22.211   7.320
 3408POPC   C1B45823  26.752  22.515   6.212
 3408POPC   C2B45824  26.743  22.546   6.668
 3408POPC   C3B45825  26.799  22.613   7.099
 3408POPC   C4B45826  26.411  22.490   7.260
 3409POPC   NC345827   9.224  20.126   5.448
 3409POPC   PO445828   8.801  19.606   5.557
 3409POPC   GL145829   8.859  19.680   5.975
 3409POPC   GL245830   9.108  19.926   5.962
 3409POPC   C1A45831   8.674  19.795   6.375
 3409POPC   D2A45832   8.667  19.811   6.816
 3409POPC   C3A45833   9.013  19.585   7.000
 3409POPC   C4A45834   9.411  19.646   7.177
 3409POPC   C1B45835   8.724  20.206   6.076
 3409POPC   C2B45836   8.665  20.438   6.483
 3409POPC   C3B45837   8.832  20.310   6.892
 3409POPC   C4B45838   8.907  20.022   7.219
 3410POPC   NC345839  24.905  31.174   5.195
 3410POPC   PO445840  24.206  31.251   5.158
 3410POPC   GL145841  24.256  31.403   5.610
 3410POPC   GL245842  24.594  31.390   5.664
 3410POPC   C1A45843  24.326  31.487   6.087
 3410POPC   D2A45844  24.210  31.334   6.495
 3410POPC   C3A45845  24.305  31.629   6.833
 3410POPC   C4A45846  24.208  31.746   7.258
 3410POPC   C1B45847  24.835  31.412   6.055
 3410POPC   C2B45848  24.726  31.454   6.489
 3410POPC   C3B45849  24.803  31.507   6.924
 3410POPC   C4B45850  24.595  31.420   7.289
 3411POPC   NC345851  35.724  34.112   5.566
 3411POPC   PO445852  36.335  33.802   5.517
 3411POPC   GL145853  36.239  33.813   5.891
 3411POPC   GL245854  36.511  33.668   6.020
 3411POPC   C1A45855  36.020  34.067   6.155
 3411POPC   D2A45856  35.865  33.935   6.503
 3411POPC   C3A45857  36.012  34.131   6.867
 3411POPC   C4A45858  36.014  34.009   7.276
 3411POPC   C1B45859  36.461  33.888   6.382
 3411POPC   C2B45860  36.276  33.691   6.734
 3411POPC   C3B45861  36.406  33.696   7.162
 3411POPC   C4B45862  36.322  33.722   7.598
 3412POPC   NC345863   4.985  10.011   5.563
 3412POPC   PO445864   5.331   9.496   5.468
 3412POPC   GL145865   5.307   9.665   5.873
 3412POPC   GL245866   4.940   9.619   5.936
 3412POPC   C1A45867   5.286   9.913   6.256
 3412POPC   D2A45868   5.027   9.843   6.620
 3412POPC   C3A45869   5.147   9.694   7.006
 3412POPC   C4A45870   5.360  10.003   7.240
 3412POPC   C1B45871   4.734   9.957   6.203
 3412POPC   C2B45872   4.541   9.984   6.625
 3412POPC   C3B45873   4.722  10.002   7.059
 3412POPC   C4B45874   4.678  10.031   7.534
 3413POPC   NC345875  15.947  41.795   5.452
 3413POPC   PO445876  15.633  42.286   5.103
 3413POPC   GL145877  15.648  42.173   5.607
 3413POPC   GL245878  15.992  42.276   5.738
 3413POPC   C1A45879  15.620  42.303   6.111
 3413POPC   D2A45880  15.945  42.418   6.454
 3413POPC   C3A45881  15.894  42.331   6.888
 3413POPC   C4A45882  15.986  42.513   7.275
 3413POPC   C1B45883  16.065  42.036   6.124
 3413POPC   C2B45884  16.126  41.962   6.585
 3413POPC   C3B45885  16.094  41.894   7.053
 3413POPC   C4B45886  16.014  42.048   7.472
 3414POPC   NC345887  42.751  35.661   5.107
 3414POPC   PO445888  43.198  35.412   5.518
 3414POPC   GL145889  42.939  35.246   5.820
 3414POPC   GL245890  42.905  34.904   5.853
 3414POPC   C1A45891  42.903  35.420   6.217
 3414POPC   D2A45892  43.150  35.653   6.539
 3414POPC   C3A45893  43.063  35.737   6.982
 3414POPC   C4A45894  43.388  35.595   7.263
 3414POPC   C1B45895  43.162  34.936   6.200
 3414POPC   C2B45896  43.191  35.140   6.551
 3414POPC   C3B45897  43.078  35.225   6.936
 3414POPC   C4B45898  43.176  34.906   7.228
 3415POPC   NC345899  30.256  30.198   5.471
 3415POPC   PO445900  29.781  29.708   5.487
 3415POPC   GL145901  29.825  29.947   5.862
 3415POPC   GL245902  30.143  30.091   5.970
 3415POPC   C1A45903  29.750  29.883   6.295
 3415POPC   D2A45904  29.875  29.721   6.693
 3415POPC   C3A45905  29.755  30.040   6.966
 3415POPC   C4A45906  29.765  30.306   7.350
 3415POPC   C1B45907  30.242  29.736   6.265
 3415POPC   C2B45908  30.385  29.786   6.709
 3415POPC   C3B45909  30.209  29.867   7.119
 3415POPC   C4B45910  30.262  29.809   7.587
 3416POPC   NC345911  34.396   9.747   5.323
 3416POPC   PO445912  35.082   9.714   5.400
 3416POPC   GL145913  34.750   9.683   5.702
 3416POPC   GL245914  34.378   9.653   5.824
 3416POPC   C1A45915  34.785   9.709   6.114
 3416POPC   D2A45916  34.936   9.758   6.520
 3416POPC   C3A45917  34.811   9.465   6.836
 3416POPC   C4A45918  34.699   9.743   7.177
 3416POPC   C1B45919  34.325   9.855   6.249
 3416POPC   C2B45920  34.428   9.779   6.695
 3416POPC   C3B45921  34.214   9.880   7.094
 3416POPC   C4B45922  34.215   9.734   7.524
 3417POPC   NC345923   9.754  43.383   5.526
 3417POPC   PO445924   9.768  42.781   5.210
 3417POPC   GL145925   9.728  42.908   5.658
 3417POPC   GL245926   9.386  43.017   5.719
 3417POPC   C1A45927   9.997  42.943   6.067
 3417POPC   D2A45928   9.913  42.805   6.506
 3417POPC   C3A45929   9.849  43.023   6.913
 3417POPC   C4A45930   9.954  42.867   7.301
 3417POPC   C1B45931   9.569  43.208   6.109
 3417POPC   C2B45932   9.578  43.254   6.534
 3417POPC   C3B45933   9.364  43.177   6.930
 3417POPC   C4B45934   9.524  43.314   7.324
 3418POPC   NC345935  23.449  40.114   5.408
 3418POPC   PO445936  24.091  39.969   5.374
 3418POPC   GL145937  23.877  40.017   5.866
 3418POPC   GL245938  23.494  40.059   5.927
 3418POPC   C1A45939  23.810  40.015   6.337
 3418POPC   D2A45940  23.746  40.332   6.663
 3418POPC   C3A45941  24.008  40.294   7.034
 3418POPC   C4A45942  23.745  40.167   7.360
 3418POPC   C1B45943  23.363  39.753   6.205
 3418POPC   C2B45944  23.450  39.763   6.626
 3418POPC   C3B45945  23.773  39.845   6.926
 3418POPC   C4B45946  23.713  39.650   7.300
 3419POPC   NC345947   3.403   6.431   5.342
 3419POPC   PO445948   3.578   7.052   5.426
 3419POPC   GL145949   3.644   6.790   5.771
 3419POPC   GL245950   3.321   6.626   5.817
 3419POPC   C1A45951   3.846   6.911   6.222
 3419POPC   D2A45952   3.867   7.020   6.674
 3419POPC   C3A45953   3.674   6.795   7.008
 3419POPC   C4A45954   3.622   6.600   7.418
 3419POPC   C1B45955   3.523   6.525   6.200
 3419POPC   C2B45956   3.592   6.448   6.644
 3419POPC   C3B45957   3.645   6.250   7.050
 3419POPC   C4B45958   3.488   6.119   7.474
 3420POPC   NC345959  16.339  23.956   5.411
 3420POPC   PO445960  15.726  23.571   5.203
 3420POPC   GL145961  15.877  23.665   5.634
 3420POPC   GL245962  15.955  23.362   5.827
 3420POPC   C1A45963  15.926  23.822   6.080
 3420POPC   D2A45964  15.900  23.664   6.516
 3420POPC   C3A45965  15.974  23.941   6.846
 3420POPC   C4A45966  15.772  23.936   7.265
 3420POPC   C1B45967  16.240  23.416   6.219
 3420POPC   C2B45968  16.222  23.264   6.658
 3420POPC   C3B45969  15.985  23.452   6.992
 3420POPC   C4B45970  16.170  23.611   7.384
 3421POPC   NC345971  10.961   8.423   5.571
 3421POPC   PO445972  11.665   8.576   5.592
 3421POPC   GL145973  11.424   8.281   5.784
 3421POPC   GL245974  11.373   7.935   5.648
 3421POPC   C1A45975  11.216   8.355   6.168
 3421POPC   D2A45976  11.199   8.142   6.530
 3421POPC   C3A45977  11.092   8.284   6.898
 3421POPC   C4A45978  11.456   8.355   7.113
 3421POPC   C1B45979  11.392   7.845   6.111
 3421POPC   C2B45980  11.501   7.733   6.560
 3421POPC   C3B45981  11.357   7.838   6.978
 3421POPC   C4B45982  11.140   7.693   7.333
 3422POPC   NC345983   1.458  18.357   5.536
 3422POPC   PO445984   0.840  18.172   5.568
 3422POPC   GL145985   1.001  18.051   5.932
 3422POPC   GL245986   1.297  17.944   5.797
 3422POPC   C1A45987   1.233  18.333   6.207
 3422POPC   D2A45988   1.095  18.553   6.553
 3422POPC   C3A45989   1.118  18.363   6.945
 3422POPC   C4A45990   1.173  18.517   7.360
 3422POPC   C1B45991   1.497  17.898   6.180
 3422POPC   C2B45992   1.311  17.951   6.584
 3422POPC   C3B45993   1.503  18.009   6.982
 3422POPC   C4B45994   1.405  18.079   7.412
 3423POPC   NC345995  17.642   4.656   5.515
 3423POPC   PO445996  17.352   5.173   5.214
 3423POPC   GL145997  17.328   5.040   5.693
 3423POPC   GL245998  17.154   4.699   5.751
 3423POPC   C1A45999  17.584   4.901   6.110
 3423POPC   D2A46000  17.797   4.764   6.513
 3423POPC   C3A46001  17.728   5.023   6.872
 3423POPC   C4A46002  17.557   5.024   7.270
 3423POPC   C1B46003  17.076   4.899   6.129
 3423POPC   C2B46004  17.260   4.852   6.518
 3423POPC   C3B46005  17.204   4.931   6.913
 3423POPC   C4B46006  17.036   5.162   7.247
 3424POPC   NC346007  29.392   6.256   5.411
 3424POPC   PO446008  29.021   6.892   5.253
 3424POPC   GL146009  29.159   6.689   5.600
 3424POPC   GL246010  28.859   6.734   5.794
 3424POPC   C1A46011  29.347   6.650   6.027
 3424POPC   D2A46012  29.461   6.644   6.481
 3424POPC   C3A46013  29.249   6.429   6.803
 3424POPC   C4A46014  29.122   6.596   7.195
 3424POPC   C1B46015  28.878   6.937   6.215
 3424POPC   C2B46016  29.025   6.904   6.649
 3424POPC   C3B46017  28.775   6.947   7.010
 3424POPC   C4B46018  28.670   7.253   7.312
 3425POPC   NC346019   3.904  20.291   5.288
 3425POPC   PO446020   3.561  19.735   5.417
 3425POPC   GL146021   3.567  19.998   5.721
 3425POPC   GL246022   3.894  20.072   5.779
 3425POPC   C1A46023   3.561  19.911   6.168
 3425POPC   D2A46024   3.754  19.828   6.557
 3425POPC   C3A46025   3.569  19.618   6.893
 3425POPC   C4A46026   3.446  19.868   7.257
 3425POPC   C1B46027   4.120  20.102   6.208
 3425POPC   C2B46028   4.146  20.127   6.682
 3425POPC   C3B46029   3.859  20.062   7.036
 3425POPC   C4B46030   3.861  20.026   7.527
 3426POPC   NC346031  27.338  19.402   5.133
 3426POPC   PO446032  27.676  18.975   5.535
 3426POPC   GL146033  27.560  18.771   5.909
 3426POPC   GL246034  27.178  18.705   5.912
 3426POPC   C1A46035  27.843  18.810   6.283
 3426POPC   D2A46036  27.926  19.189   6.542
 3426POPC   C3A46037  27.623  19.316   6.845
 3426POPC   C4A46038  27.533  19.144   7.228
 3426POPC   C1B46039  27.339  18.754   6.360
 3426POPC   C2B46040  27.564  18.793   6.759
 3426POPC   C3B46041  27.539  18.645   7.189
 3426POPC   C4B46042  27.361  18.814   7.602
 3427POPC   NC346043  21.961  10.979   5.553
 3427POPC   PO446044  22.315  11.441   5.271
 3427POPC   GL146045  22.204  11.389   5.721
 3427POPC   GL246046  22.535  11.322   5.794
 3427POPC   C1A46047  22.230  11.263   6.195
 3427POPC   D2A46048  22.057  11.312   6.605
 3427POPC   C3A46049  22.038  11.024   6.898
 3427POPC   C4A46050  22.148  11.291   7.215
 3427POPC   C1B46051  22.709  11.501   6.163
 3427POPC   C2B46052  22.597  11.409   6.576
 3427POPC   C3B46053  22.633  11.610   6.968
 3427POPC   C4B46054  22.581  11.442   7.379
 3428POPC   NC346055  20.319  43.477   5.472
 3428POPC   PO446056  19.690  43.221   5.419
 3428POPC   GL146057  19.765  42.995   5.770
 3428POPC   GL246058  20.080  43.127   5.813
 3428POPC   C1A46059  19.724  43.078   6.223
 3428POPC   D2A46060  19.460  43.065   6.591
 3428POPC   C3A46061  19.717  42.953   6.929
 3428POPC   C4A46062  19.753  43.120   7.345
 3428POPC   C1B46063  20.111  43.410   6.187
 3428POPC   C2B46064  19.932  43.353   6.628
 3428POPC   C3B46065  20.060  43.388   7.053
 3428POPC   C4B46066  20.023  43.540   7.501
 3429POPC   NC346067  18.709  23.873   4.972
 3429POPC   PO446068  19.135  23.870   5.468
 3429POPC   GL146069  18.991  23.726   5.862
 3429POPC   GL246070  18.766  23.959   5.951
 3429POPC   C1A46071  19.036  23.646   6.293
 3429POPC   D2A46072  19.038  23.836   6.674
 3429POPC   C3A46073  19.124  23.543   6.973
 3429POPC   C4A46074  19.082  23.487   7.407
 3429POPC   C1B46075  19.141  24.139   6.182
 3429POPC   C2B46076  19.484  24.108   6.519
 3429POPC   C3B46077  19.425  24.013   6.966
 3429POPC   C4B46078  19.024  23.990   7.219
 3430POPC   NC346079  13.417  18.054   5.438
 3430POPC   PO446080  14.048  18.124   5.353
 3430POPC   GL146081  13.866  18.158   5.748
 3430POPC   GL246082  13.981  18.482   5.776
 3430POPC   C1A46083  13.648  18.290   6.141
 3430POPC   D2A46084  13.596  18.065   6.542
 3430POPC   C3A46085  13.509  18.219   6.944
 3430POPC   C4A46086  13.723  18.119   7.309
 3430POPC   C1B46087  14.092  18.532   6.189
 3430POPC   C2B46088  13.900  18.539   6.597
 3430POPC   C3B46089  13.785  18.647   7.031
 3430POPC   C4B46090  13.910  18.631   7.453
 3431POPC   NC346091  28.217  15.183   5.200
 3431POPC   PO446092  28.840  15.260   5.513
 3431POPC   GL146093  28.521  15.385   5.837
 3431POPC   GL246094  28.170  15.327   5.740
 3431POPC   C1A46095  28.380  15.379   6.274
 3431POPC   D2A46096  28.210  15.434   6.682
 3431POPC   C3A46097  28.465  15.450   7.070
 3431POPC   C4A46098  28.792  15.198   7.302
 3431POPC   C1B46099  28.141  14.984   6.040
 3431POPC   C2B46100  28.096  14.965   6.509
 3431POPC   C3B46101  28.317  14.980   6.913
 3431POPC   C4B46102  28.290  15.054   7.353
 3432POPC   NC346103  26.899  34.453   5.330
 3432POPC   PO446104  26.510  34.953   5.364
 3432POPC   GL146105  26.559  34.657   5.678
 3432POPC   GL246106  26.328  34.807   5.870
 3432POPC   C1A46107  26.887  34.622   6.008
 3432POPC   D2A46108  26.997  34.839   6.406
 3432POPC   C3A46109  26.971  34.644   6.829
 3432POPC   C4A46110  27.006  34.765   7.268
 3432POPC   C1B46111  26.413  34.528   6.188
 3432POPC   C2B46112  26.503  34.742   6.553
 3432POPC   C3B46113  26.476  34.865   6.967
 3432POPC   C4B46114  26.572  34.491   7.180
 3433POPC   NC346115  10.705  33.127   5.499
 3433POPC   PO446116  10.457  32.585   5.444
 3433POPC   GL146117  10.405  32.858   5.838
 3433POPC   GL246118  10.316  33.235   5.808
 3433POPC   C1A46119  10.395  32.963   6.285
 3433POPC   D2A46120  10.215  32.978   6.702
 3433POPC   C3A46121  10.580  32.928   6.950
 3433POPC   C4A46122  10.716  33.082   7.321
 3433POPC   C1B46123  10.571  33.412   6.158
 3433POPC   C2B46124  10.479  33.402   6.589
 3433POPC   C3B46125  10.699  33.437   6.951
 3433POPC   C4B46126  11.056  33.470   7.211
 3434POPC   NC346127   3.039  17.902   5.332
 3434POPC   PO446128   2.610  18.446   5.444
 3434POPC   GL146129   2.699  18.099   5.716
 3434POPC   GL246130   3.066  18.120   5.796
 3434POPC   C1A46131   2.736  18.009   6.162
 3434POPC   D2A46132   2.895  18.196   6.556
 3434POPC   C3A46133   2.821  18.060   6.980
 3434POPC   C4A46134   2.570  17.997   7.383
 3434POPC   C1B46135   3.071  18.454   6.132
 3434POPC   C2B46136   3.083  18.712   6.528
 3434POPC   C3B46137   3.066  18.533   6.925
 3434POPC   C4B46138   2.837  18.479   7.302
 3435POPC   NC346139  14.001  12.749   5.559
 3435POPC   PO446140  13.298  13.100   5.431
 3435POPC   GL146141  13.494  12.805   5.776
 3435POPC   GL246142  13.752  12.532   5.938
 3435POPC   C1A46143  13.369  12.738   6.204
 3435POPC   D2A46144  13.638  12.576   6.535
 3435POPC   C3A46145  13.443  12.627   6.926
 3435POPC   C4A46146  13.536  12.773   7.331
 3435POPC   C1B46147  13.860  12.907   6.182
 3435POPC   C2B46148  14.030  12.946   6.577
 3435POPC   C3B46149  13.936  12.839   6.981
 3435POPC   C4B46150  13.996  13.211   7.216
 3436POPC   NC346151  19.974   1.366   5.445
 3436POPC   PO446152  19.323   1.465   5.569
 3436POPC   GL146153  19.590   1.259   5.925
 3436POPC   GL246154  19.942   1.132   5.915
 3436POPC   C1A46155  19.597   1.021   6.318
 3436POPC   D2A46156  19.465   0.836   6.733
 3436POPC   C3A46157  19.616   1.150   7.022
 3436POPC   C4A46158  19.882   1.511   7.129
 3436POPC   C1B46159  20.072   0.811   6.283
 3436POPC   C2B46160  20.000   0.811   6.753
 3436POPC   C3B46161  20.019   0.911   7.226
 3436POPC   C4B46162  20.102   0.914   7.719
 3437POPC   NC346163  37.244  42.201   5.056
 3437POPC   PO446164  37.697  42.256   5.531
 3437POPC   GL146165  37.549  42.352   5.908
 3437POPC   GL246166  37.885  42.396   5.996
 3437POPC   C1A46167  37.530  42.212   6.313
 3437POPC   D2A46168  37.605  42.428   6.641
 3437POPC   C3A46169  37.645  42.190   6.955
 3437POPC   C4A46170  37.483  42.320   7.327
 3437POPC   C1B46171  38.092  42.101   6.226
 3437POPC   C2B46172  37.956  41.973   6.610
 3437POPC   C3B46173  38.099  41.923   7.014
 3437POPC   C4B46174  38.037  42.253   7.280
 3438POPC   NC346175  22.756  28.856   5.131
 3438POPC   PO446176  23.366  29.024   5.389
 3438POPC   GL146177  23.074  29.113   5.742
 3438POPC   GL246178  22.719  29.053   5.710
 3438POPC   C1A46179  23.051  29.198   6.201
 3438POPC   D2A46180  23.120  29.374   6.618
 3438POPC   C3A46181  23.000  29.124   6.965
 3438POPC   C4A46182  22.942  29.190   7.404
 3438POPC   C1B46183  22.568  29.035   6.162
 3438POPC   C2B46184  22.632  29.198   6.572
 3438POPC   C3B46185  22.491  29.070   6.970
 3438POPC   C4B46186  22.563  28.839   7.320
 3439POPC   NC346187  23.643  19.486   5.623
 3439POPC   PO446188  23.444  18.874   5.394
 3439POPC   GL146189  23.543  18.996   5.815
 3439POPC   GL246190  23.257  18.830   5.926
 3439POPC   C1A46191  23.827  19.134   6.173
 3439POPC   D2A46192  23.985  18.901   6.536
 3439POPC   C3A46193  23.891  19.072   6.954
 3439POPC   C4A46194  23.720  18.940   7.363
 3439POPC   C1B46195  23.371  18.941   6.315
 3439POPC   C2B46196  23.487  19.108   6.663
 3439POPC   C3B46197  23.348  18.958   7.033
 3439POPC   C4B46198  23.239  19.045   7.459
 3440POPC   NC346199  28.699  18.292   5.230
 3440POPC   PO446200  28.089  18.152   5.646
 3440POPC   GL146201  28.266  18.379   5.999
 3440POPC   GL246202  28.565  18.191   6.169
 3440POPC   C1A46203  28.201  18.454   6.432
 3440POPC   D2A46204  28.497  18.275   6.715
 3440POPC   C3A46205  28.337  18.324   7.117
 3440POPC   C4A46206  28.060  18.557   7.339
 3440POPC   C1B46207  28.193  17.951   6.326
 3440POPC   C2B46208  28.145  17.923   6.756
 3440POPC   C3B46209  28.434  17.831   7.054
 3440POPC   C4B46210  28.416  17.926   7.487
 3441POPC   NC346211  32.731  18.793   5.648
 3441POPC   PO446212  33.151  19.079   5.208
 3441POPC   GL146213  33.175  19.124   5.669
 3441POPC   GL246214  33.247  18.782   5.766
 3441POPC   C1A46215  32.921  19.263   6.054
 3441POPC   D2A46216  32.979  19.409   6.470
 3441POPC   C3A46217  32.848  19.309   6.855
 3441POPC   C4A46218  33.071  19.322   7.235
 3441POPC   C1B46219  33.121  18.824   6.203
 3441POPC   C2B46220  32.874  18.844   6.584
 3441POPC   C3B46221  32.971  18.857   7.039
 3441POPC   C4B46222  33.126  18.850   7.486
 3442POPC   NC346223  38.060   7.667   5.464
 3442POPC   PO446224  37.613   7.121   5.325
 3442POPC   GL146225  37.665   7.373   5.713
 3442POPC   GL246226  37.381   7.506   5.882
 3442POPC   C1A46227  37.768   7.356   6.175
 3442POPC   D2A46228  37.878   7.559   6.567
 3442POPC   C3A46229  37.707   7.472   6.970
 3442POPC   C4A46230  37.835   7.701   7.329
 3442POPC   C1B46231  37.218   7.723   6.254
 3442POPC   C2B46232  37.373   7.863   6.667
 3442POPC   C3B46233  37.378   7.827   7.128
 3442POPC   C4B46234  37.401   7.543   7.522
 3443POPC   NC346235  18.796  27.625   5.385
 3443POPC   PO446236  19.492  27.821   5.399
 3443POPC   GL146237  19.158  27.746   5.731
 3443POPC   GL246238  18.882  28.000   5.680
 3443POPC   C1A46239  19.070  27.475   6.124
 3443POPC   D2A46240  19.345  27.499   6.514
 3443POPC   C3A46241  19.128  27.505   6.914
 3443POPC   C4A46242  19.015  27.355   7.310
 3443POPC   C1B46243  18.847  27.976   6.115
 3443POPC   C2B46244  18.913  27.802   6.546
 3443POPC   C3B46245  19.069  28.013   6.944
 3443POPC   C4B46246  19.137  28.146   7.371
 3444POPC   NC346247   7.449   6.393   5.614
 3444POPC   PO446248   7.346   6.967   5.249
 3444POPC   GL146249   7.538   6.902   5.725
 3444POPC   GL246250   7.229   6.764   5.892
 3444POPC   C1A46251   7.605   6.845   6.239
 3444POPC   D2A46252   7.554   6.641   6.699
 3444POPC   C3A46253   7.578   6.767   7.187
 3444POPC   C4A46254   7.530   7.010   7.596
 3444POPC   C1B46255   7.131   6.707   6.334
 3444POPC   C2B46256   7.058   6.821   6.766
 3444POPC   C3B46257   7.150   6.550   7.104
 3444POPC   C4B46258   7.083   6.119   7.217
 3445POPC   NC346259  39.501   6.347   5.374
 3445POPC   PO446260  38.961   6.844   5.160
 3445POPC   GL146261  39.235   6.806   5.599
 3445POPC   GL246262  39.368   6.501   5.835
 3445POPC   C1A46263  39.214   6.908   6.079
 3445POPC   D2A46264  39.414   6.689   6.427
 3445POPC   C3A46265  39.314   6.735   6.878
 3445POPC   C4A46266  39.319   6.714   7.334
 3445POPC   C1B46267  39.178   6.300   6.206
 3445POPC   C2B46268  39.107   6.319   6.651
 3445POPC   C3B46269  39.126   6.299   7.100
 3445POPC   C4B46270  39.384   6.258   7.510
 3446POPC   NC346271  30.315   8.761   5.148
 3446POPC   PO446272  30.880   8.762   5.404
 3446POPC   GL146273  30.941   8.830   5.861
 3446POPC   GL246274  30.574   8.881   5.972
 3446POPC   C1A46275  30.914   8.721   6.314
 3446POPC   D2A46276  30.607   8.772   6.639
 3446POPC   C3A46277  30.809   8.836   7.039
 3446POPC   C4A46278  30.653   8.879   7.464
 3446POPC   C1B46279  30.674   9.178   6.318
 3446POPC   C2B46280  30.751   9.270   6.766
 3446POPC   C3B46281  30.658   9.320   7.217
 3446POPC   C4B46282  30.534   9.447   7.658
 3447POPC   NC346283   7.207  11.579   5.586
 3447POPC   PO446284   7.133  12.253   5.584
 3447POPC   GL146285   7.442  11.989   5.818
 3447POPC   GL246286   7.774  11.903   5.710
 3447POPC   C1A46287   7.428  11.868   6.264
 3447POPC   D2A46288   7.017  11.910   6.514
 3447POPC   C3A46289   7.078  12.192   6.868
 3447POPC   C4A46290   7.385  12.132   7.185
 3447POPC   C1B46291   7.806  12.217   6.100
 3447POPC   C2B46292   7.728  12.238   6.576
 3447POPC   C3B46293   7.868  12.134   7.022
 3447POPC   C4B46294   7.968  11.994   7.468
 3448POPC   NC346295  12.433  20.388   5.460
 3448POPC   PO446296  13.212  20.564   5.342
 3448POPC   GL146297  13.100  20.515   5.780
 3448POPC   GL246298  13.047  20.874   5.913
 3448POPC   C1A46299  13.017  20.400   6.212
 3448POPC   D2A46300  13.198  20.631   6.578
 3448POPC   C3A46301  12.939  20.515   6.945
 3448POPC   C4A46302  12.933  20.396   7.371
 3448POPC   C1B46303  12.660  20.744   6.086
 3448POPC   C2B46304  12.644  20.598   6.510
 3448POPC   C3B46305  12.444  20.760   6.857
 3448POPC   C4B46306  12.473  20.637   7.273
 3449POPC   NC346307  31.210   7.728   5.479
 3449POPC   PO446308  31.308   7.109   5.116
 3449POPC   GL146309  31.423   7.190   5.634
 3449POPC   GL246310  31.785   7.282   5.705
 3449POPC   C1A46311  31.476   7.424   6.103
 3449POPC   D2A46312  31.633   7.617   6.542
 3449POPC   C3A46313  31.446   7.490   6.983
 3449POPC   C4A46314  31.537   7.623   7.427
 3449POPC   C1B46315  31.767   7.006   6.087
 3449POPC   C2B46316  31.560   7.020   6.517
 3449POPC   C3B46317  31.715   7.052   6.954
 3449POPC   C4B46318  31.740   7.168   7.408
 3450POPC   NC346319  43.375  37.234   5.481
 3450POPC   PO446320  42.842  37.685   5.481
 3450POPC   GL146321  43.018  37.413   5.794
 3450POPC   GL246322  43.226  37.696   5.944
 3450POPC   C1A46323  43.212  37.248   6.180
 3450POPC   D2A46324  43.210  37.522   6.515
 3450POPC   C3A46325  43.450  37.542   6.880
 3450POPC   C4A46326  43.205  37.593   7.224
 3450POPC   C1B46327  42.868  37.833   6.194
 3450POPC   C2B46328  42.821  38.049   6.565
 3450POPC   C3B46329  42.897  37.867   6.930
 3450POPC   C4B46330  42.747  37.838   7.328
 3451POPC   NC346331  26.610  14.518   5.479
 3451POPC   PO446332  27.168  14.151   5.632
 3451POPC   GL146333  26.894  14.403   5.896
 3451POPC   GL246334  26.544  14.397   5.957
 3451POPC   C1A46335  26.852  14.608   6.294
 3451POPC   D2A46336  26.694  14.475   6.676
 3451POPC   C3A46337  26.902  14.572   7.077
 3451POPC   C4A46338  27.036  14.408   7.476
 3451POPC   C1B46339  26.403  14.135   6.307
 3451POPC   C2B46340  26.453  14.004   6.729
 3451POPC   C3B46341  26.456  14.314   7.093
 3451POPC   C4B46342  26.520  14.398   7.528
 3452POPC   NC346343  15.396   8.169   5.426
 3452POPC   PO446344  14.762   8.138   5.627
 3452POPC   GL146345  15.066   8.401   5.820
 3452POPC   GL246346  15.223   8.101   5.883
 3452POPC   C1A46347  15.344   8.467   6.216
 3452POPC   D2A46348  15.245   8.290   6.629
 3452POPC   C3A46349  15.280   8.330   7.082
 3452POPC   C4A46350  14.991   8.377   7.427
 3452POPC   C1B46351  15.563   7.983   6.111
 3452POPC   C2B46352  15.681   8.100   6.505
 3452POPC   C3B46353  15.592   7.929   6.904
 3452POPC   C4B46354  15.554   7.889   7.356
 3453POPC   NC346355   9.921  19.760   5.096
 3453POPC   PO446356   9.526  19.821   5.654
 3453POPC   GL146357   9.740  19.595   5.932
 3453POPC   GL246358  10.006  19.811   6.025
 3453POPC   C1A46359   9.713  19.484   6.365
 3453POPC   D2A46360   9.538  19.696   6.685
 3453POPC   C3A46361   9.837  19.796   6.940
 3453POPC   C4A46362   9.895  19.627   7.359
 3453POPC   C1B46363   9.665  19.988   6.274
 3453POPC   C2B46364   9.657  20.257   6.595
 3453POPC   C3B46365   9.889  20.292   6.962
 3453POPC   C4B46366   9.714  20.098   7.316
 3454POPC   NC346367  19.745   5.983   5.169
 3454POPC   PO446368  20.226   5.817   5.566
 3454POPC   GL146369  19.777   5.974   5.702
 3454POPC   GL246370  19.568   5.702   5.841
 3454POPC   C1A46371  19.553   6.106   6.124
 3454POPC   D2A46372  19.744   6.015   6.547
 3454POPC   C3A46373  19.742   6.016   7.013
 3454POPC   C4A46374  20.069   5.880   7.335
 3454POPC   C1B46375  19.540   5.605   6.306
 3454POPC   C2B46376  19.610   5.558   6.776
 3454POPC   C3B46377  19.686   5.561   7.236
 3454POPC   C4B46378  19.495   5.439   7.620
 3455POPC   NC346379   1.408  23.388   5.229
 3455POPC   PO446380   1.015  22.859   5.417
 3455POPC   GL146381   1.092  22.999   5.810
 3455POPC   GL246382   1.390  22.818   5.884
 3455POPC   C1A46383   1.162  23.141   6.233
 3455POPC   D2A46384   1.332  22.909   6.595
 3455POPC   C3A46385   1.210  23.127   6.960
 3455POPC   C4A46386   1.328  23.404   7.314
 3455POPC   C1B46387   1.117  22.626   6.194
 3455POPC   C2B46388   1.077  22.444   6.602
 3455POPC   C3B46389   1.184  22.600   7.007
 3455POPC   C4B46390   1.382  22.828   7.365
 3456POPC   NC346391  42.026  11.798   5.446
 3456POPC   PO446392  42.572  12.044   5.484
 3456POPC   GL146393  42.324  11.941   5.874
 3456POPC   GL246394  41.948  12.023   5.907
 3456POPC   C1A46395  42.429  11.840   6.321
 3456POPC   D2A46396  42.703  11.830   6.701
 3456POPC   C3A46397  42.609  12.123   7.069
 3456POPC   C4A46398  42.461  12.046   7.504
 3456POPC   C1B46399  42.134  12.267   6.246
 3456POPC   C2B46400  42.249  12.179   6.689
 3456POPC   C3B46401  42.096  12.171   7.139
 3456POPC   C4B46402  41.977  12.233   7.589
 3457POPC   NC346403  14.411  20.208   5.521
 3457POPC   PO446404  14.274  19.559   5.455
 3457POPC   GL146405  14.486  19.764   5.811
 3457POPC   GL246406  14.796  19.574   5.849
 3457POPC   C1A46407  14.283  19.736   6.221
 3457POPC   D2A46408  14.093  19.904   6.599
 3457POPC   C3A46409  14.308  19.696   6.903
 3457POPC   C4A46410  14.416  19.816   7.310
 3457POPC   C1B46411  14.789  19.860   6.223
 3457POPC   C2B46412  14.603  19.989   6.602
 3457POPC   C3B46413  14.765  19.994   6.995
 3457POPC   C4B46414  14.927  19.699   7.284
 3458POPC   NC346415  43.749  30.464   5.388
 3458POPC   PO446416  43.914  29.809   5.318
 3458POPC   GL146417  43.819  30.039   5.714
 3458POPC   GL246418  43.800  29.731   5.836
 3458POPC   C1A46419  43.777  30.184   6.175
 3458POPC   D2A46420  43.747  30.351   6.605
 3458POPC   C3A46421  43.736  30.080   6.972
 3458POPC   C4A46422  44.061  29.918   7.194
 3458POPC   C1B46423  43.726  29.683   6.219
 3458POPC   C2B46424  43.867  29.793   6.569
 3458POPC   C3B46425  43.946  29.520   6.876
 3458POPC   C4B46426  43.691  29.381   7.182
 3459POPC   NC346427  42.665   9.775   5.194
 3459POPC   PO446428  43.147   9.613   5.579
 3459POPC   GL146429  43.103   9.653   5.987
 3459POPC   GL246430  43.154   9.997   6.049
 3459POPC   C1A46431  42.923   9.410   6.317
 3459POPC   D2A46432  42.746   9.505   6.703
 3459POPC   C3A46433  43.070   9.587   6.967
 3459POPC   C4A46434  43.272   9.316   7.263
 3459POPC   C1B46435  43.184   9.858   6.467
 3459POPC   C2B46436  42.994  10.090   6.791
 3459POPC   C3B46437  43.059  10.118   7.208
 3459POPC   C4B46438  43.119   9.776   7.462
 3460POPC   NC346439   0.711  21.738   5.079
 3460POPC   PO446440   0.387  21.225   5.352
 3460POPC   GL146441   0.359  21.259   5.794
 3460POPC   GL246442   0.615  21.506   5.841
 3460POPC   C1A46443   0.517  21.106   6.195
 3460POPC   D2A46444   0.742  21.066   6.580
 3460POPC   C3A46445   0.554  21.181   6.921
 3460POPC   C4A46446   0.501  21.227   7.342
 3460POPC   C1B46447   0.386  21.594   6.209
 3460POPC   C2B46448   0.487  21.578   6.604
 3460POPC   C3B46449   0.534  21.691   7.006
 3460POPC   C4B46450   0.259  21.665   7.296
 3461POPC   NC346451  33.965  24.385   5.603
 3461POPC   PO446452  33.578  24.883   5.489
 3461POPC   GL146453  33.668  24.706   5.865
 3461POPC   GL246454  34.018  24.728   6.011
 3461POPC   C1A46455  33.621  24.463   6.229
 3461POPC   D2A46456  33.700  24.693   6.605
 3461POPC   C3A46457  33.850  24.528   6.984
 3461POPC   C4A46458  33.635  24.391   7.373
 3461POPC   C1B46459  34.109  24.340   6.309
 3461POPC   C2B46460  34.092  24.100   6.729
 3461POPC   C3B46461  34.081  24.139   7.203
 3461POPC   C4B46462  34.164  24.516   7.426
 3462POPC   NC346463   8.162  10.092   5.410
 3462POPC   PO446464   8.312   9.532   5.163
 3462POPC   GL146465   8.300   9.666   5.657
 3462POPC   GL246466   8.012   9.832   5.831
 3462POPC   C1A46467   8.414   9.767   6.119
 3462POPC   D2A46468   8.381  10.074   6.503
 3462POPC   C3A46469   8.378   9.826   6.897
 3462POPC   C4A46470   8.112   9.555   7.157
 3462POPC   C1B46471   7.929   9.955   6.251
 3462POPC   C2B46472   7.887   9.796   6.671
 3462POPC   C3B46473   7.915  10.024   7.023
 3462POPC   C4B46474   8.200  10.035   7.348
 3463POPC   NC346475  14.991  23.512   5.551
 3463POPC   PO446476  14.841  22.923   5.269
 3463POPC   GL146477  15.156  22.913   5.690
 3463POPC   GL246478  15.039  23.157   5.939
 3463POPC   C1A46479  15.485  22.912   6.097
 3463POPC   D2A46480  15.585  23.266   6.409
 3463POPC   C3A46481  15.514  23.186   6.878
 3463POPC   C4A46482  15.378  22.866   7.207
 3463POPC   C1B46483  15.025  22.883   6.321
 3463POPC   C2B46484  15.060  22.941   6.778
 3463POPC   C3B46485  15.002  23.224   7.124
 3463POPC   C4B46486  14.820  23.127   7.513
 3464POPC   NC346487  44.975   4.352   5.281
 3464POPC   PO446488  44.277   4.347   5.200
 3464POPC   GL146489  44.425   4.506   5.629
 3464POPC   GL246490  44.650   4.257   5.729
 3464POPC   C1A46491  44.408   4.507   6.141
 3464POPC   D2A46492  44.307   4.247   6.540
 3464POPC   C3A46493  44.460   4.210   6.997
 3464POPC   C4A46494  44.560   4.439   7.398
 3464POPC   C1B46495  44.901   4.464   6.089
 3464POPC   C2B46496  44.793   4.428   6.537
 3464POPC   C3B46497  44.920   4.435   6.973
 3464POPC   C4B46498   0.043   4.261   7.391
 3465POPC   NC346499   5.251  29.424   5.420
 3465POPC   PO446500   4.922  30.034   5.526
 3465POPC   GL146501   5.074  29.876   5.881
 3465POPC   GL246502   4.989  29.524   5.853
 3465POPC   C1A46503   5.385  29.968   6.212
 3465POPC   D2A46504   5.384  29.797   6.640
 3465POPC   C3A46505   5.346  30.115   6.980
 3465POPC   C4A46506   5.241  30.173   7.440
 3465POPC   C1B46507   5.097  29.558   6.286
 3465POPC   C2B46508   4.963  29.523   6.716
 3465POPC   C3B46509   5.090  29.679   7.128
 3465POPC   C4B46510   4.901  29.787   7.529
 3466POPC   NC346511  37.679  27.576   5.423
 3466POPC   PO446512  38.106  28.086   5.634
 3466POPC   GL146513  37.894  27.774   5.924
 3466POPC   GL246514  37.802  27.411   5.889
 3466POPC   C1A46515  37.641  27.747   6.320
 3466POPC   D2A46516  37.524  27.924   6.740
 3466POPC   C3A46517  37.630  27.599   7.015
 3466POPC   C4A46518  38.043  27.462   7.166
 3466POPC   C1B46519  37.380  27.364   6.041
 3466POPC   C2B46520  37.250  27.293   6.462
 3466POPC   C3B46521  37.314  27.154   6.894
 3466POPC   C4B46522  37.451  27.239   7.336
 3467POPC   NC346523  17.113   7.325   5.360
 3467POPC   PO446524  16.683   7.775   5.389
 3467POPC   GL146525  16.906   7.630   5.799
 3467POPC   GL246526  16.874   7.263   5.857
 3467POPC   C1A46527  16.815   7.540   6.269
 3467POPC   D2A46528  16.541   7.684   6.579
 3467POPC   C3A46529  16.727   7.614   6.981
 3467POPC   C4A46530  16.865   7.652   7.442
 3467POPC   C1B46531  17.033   6.978   6.203
 3467POPC   C2B46532  17.126   6.981   6.635
 3467POPC   C3B46533  16.997   7.129   7.032
 3467POPC   C4B46534  16.607   7.211   7.252
 3468POPC   NC346535  21.696  14.366   5.211
 3468POPC   PO446536  22.230  14.486   5.309
 3468POPC   GL146537  22.160  14.442   5.770
 3468POPC   GL246538  22.300  14.735   5.895
 3468POPC   C1A46539  22.279  14.358   6.247
 3468POPC   D2A46540  22.353  14.118   6.637
 3468POPC   C3A46541  22.164  14.196   7.029
 3468POPC   C4A46542  21.965  14.062   7.416
 3468POPC   C1B46543  21.945  14.749   6.189
 3468POPC   C2B46544  21.963  14.590   6.613
 3468POPC   C3B46545  22.367  14.618   6.838
 3468POPC   C4B46546  22.536  14.837   7.180
 3469POPC   NC346547   6.184  21.675   5.476
 3469POPC   PO446548   6.528  21.137   5.340
 3469POPC   GL146549   6.667  21.389   5.766
 3469POPC   GL246550   6.978  21.608   5.817
 3469POPC   C1A46551   6.733  21.437   6.228
 3469POPC   D2A46552   6.786  21.203   6.606
 3469POPC   C3A46553   6.646  21.448   6.931
 3469POPC   C4A46554   6.293  21.588   7.124
 3469POPC   C1B46555   7.193  21.773   6.228
 3469POPC   C2B46556   7.090  21.628   6.633
 3469POPC   C3B46557   7.151  21.352   6.974
 3469POPC   C4B46558   6.998  21.363   7.394
 3470POPC   NC346559  32.816  21.271   5.518
 3470POPC   PO446560  33.106  21.874   5.361
 3470POPC   GL146561  33.178  21.521   5.759
 3470POPC   GL246562  33.080  21.161   5.950
 3470POPC   C1A46563  33.285  21.517   6.209
 3470POPC   D2A46564  33.084  21.583   6.590
 3470POPC   C3A46565  33.040  21.372   6.986
 3470POPC   C4A46566  33.205  21.473   7.383
 3470POPC   C1B46567  32.954  21.122   6.397
 3470POPC   C2B46568  32.638  21.304   6.699
 3470POPC   C3B46569  32.433  21.166   7.027
 3470POPC   C4B46570  32.725  21.064   7.299
 3471POPC   NC346571  34.387  24.273   5.151
 3471POPC   PO446572  34.159  24.830   5.503
 3471POPC   GL146573  34.441  24.513   5.761
 3471POPC   GL246574  34.817  24.377   5.768
 3471POPC   C1A46575  34.566  24.575   6.192
 3471POPC   D2A46576  34.688  24.718   6.613
 3471POPC   C3A46577  34.404  24.593   6.923
 3471POPC   C4A46578  34.570  24.275   7.148
 3471POPC   C1B46579  34.976  24.267   6.204
 3471POPC   C2B46580  35.056  24.308   6.657
 3471POPC   C3B46581  35.001  24.534   7.050
 3471POPC   C4B46582  35.000  24.422   7.495
 3472POPC   NC346583   3.093  11.113   5.191
 3472POPC   PO446584   3.399  11.721   5.329
 3472POPC   GL146585   3.549  11.431   5.712
 3472POPC   GL246586   3.757  11.143   5.911
 3472POPC   C1A46587   3.500  11.503   6.172
 3472POPC   D2A46588   3.581  11.223   6.523
 3472POPC   C3A46589   3.462  11.412   6.910
 3472POPC   C4A46590   3.492  11.342   7.338
 3472POPC   C1B46591   3.999  11.443   6.154
 3472POPC   C2B46592   3.935  11.577   6.597
 3472POPC   C3B46593   3.964  11.419   7.023
 3472POPC   C4B46594   4.054  11.641   7.376
 3473POPC   NC346595  42.918   1.925   5.019
 3473POPC   PO446596  42.725   1.964   5.605
 3473POPC   GL146597  43.021   2.046   5.910
 3473POPC   GL246598  43.012   2.355   5.887
 3473POPC   C1A46599  43.126   1.966   6.337
 3473POPC   D2A46600  43.330   1.679   6.640
 3473POPC   C3A46601  43.540   1.869   6.976
 3473POPC   C4A46602  43.231   1.917   7.260
 3473POPC   C1B46603  42.692   2.277   6.212
 3473POPC   C2B46604  42.737   2.163   6.631
 3473POPC   C3B46605  43.120   2.189   6.847
 3473POPC   C4B46606  43.449   2.372   7.101
 3474POPC   NC346607  14.005  10.966   5.600
 3474POPC   PO446608  13.456  11.266   5.277
 3474POPC   GL146609  13.504  11.304   5.733
 3474POPC   GL246610  13.522  10.948   5.808
 3474POPC   C1A46611  13.749  11.287   6.157
 3474POPC   D2A46612  13.917  11.568   6.502
 3474POPC   C3A46613  13.770  11.445   6.920
 3474POPC   C4A46614  13.686  11.347   7.343
 3474POPC   C1B46615  13.475  10.856   6.255
 3474POPC   C2B46616  13.595  11.019   6.643
 3474POPC   C3B46617  13.586  10.915   7.081
 3474POPC   C4B46618  13.306  10.995   7.456
 3475POPC   NC346619  22.318  38.978   5.145
 3475POPC   PO446620  21.905  39.459   5.411
 3475POPC   GL146621  22.219  39.252   5.714
 3475POPC   GL246622  22.333  38.919   5.683
 3475POPC   C1A46623  22.329  39.281   6.154
 3475POPC   D2A46624  22.046  39.250   6.517
 3475POPC   C3A46625  22.196  39.416   6.917
 3475POPC   C4A46626  22.014  39.251   7.265
 3475POPC   C1B46627  22.213  38.784   6.099
 3475POPC   C2B46628  22.371  38.750   6.489
 3475POPC   C3B46629  22.227  38.895   6.858
 3475POPC   C4B46630  22.491  38.994   7.179
 3476POPC   NC346631  40.216  41.256   5.268
 3476POPC   PO446632  40.869  41.346   5.401
 3476POPC   GL146633  40.881  41.632   5.796
 3476POPC   GL246634  40.516  41.665   5.876
 3476POPC   C1A46635  40.903  41.787   6.252
 3476POPC   D2A46636  40.677  41.566   6.625
 3476POPC   C3A46637  40.886  41.579   7.034
 3476POPC   C4A46638  40.993  41.219   7.231
 3476POPC   C1B46639  40.402  41.838   6.261
 3476POPC   C2B46640  40.434  41.995   6.712
 3476POPC   C3B46641  40.399  41.688   7.087
 3476POPC   C4B46642  40.334  41.712   7.554
 3477POPC   NC346643  24.837  19.285   5.476
 3477POPC   PO446644  25.310  18.843   5.683
 3477POPC   GL146645  25.156  19.031   6.049
 3477POPC   GL246646  25.088  19.375   5.924
 3477POPC   C1A46647  25.093  18.842   6.470
 3477POPC   D2A46648  25.347  18.566   6.750
 3477POPC   C3A46649  25.593  18.916   6.840
 3477POPC   C4A46650  25.335  19.172   7.173
 3477POPC   C1B46651  25.390  19.470   6.227
 3477POPC   C2B46652  25.372  19.332   6.625
 3477POPC   C3B46653  25.012  19.388   6.845
 3477POPC   C4B46654  24.917  19.517   7.234
 3478POPC   NC346655  44.234  24.021   5.568
 3478POPC   PO446656  44.806  23.950   5.517
 3478POPC   GL146657  44.641  23.794   5.827
 3478POPC   GL246658  44.905  23.515   5.751
 3478POPC   C1A46659  44.413  23.937   6.204
 3478POPC   D2A46660  44.253  23.966   6.610
 3478POPC   C3A46661  44.530  23.823   6.955
 3478POPC   C4A46662  44.987  23.858   7.040
 3478POPC   C1B46663  44.751  23.483   6.187
 3478POPC   C2B46664  44.847  23.636   6.576
 3478POPC   C3B46665  44.865  23.362   6.928
 3478POPC   C4B46666  44.724  23.403   7.343
 3479POPC   NC346667   3.896  38.661   5.533
 3479POPC   PO446668   3.500  38.235   5.208
 3479POPC   GL146669   3.481  38.370   5.634
 3479POPC   GL246670   3.405  38.715   5.689
 3479POPC   C1A46671   3.449  38.238   6.084
 3479POPC   D2A46672   3.586  38.433   6.483
 3479POPC   C3A46673   3.523  38.297   6.903
 3479POPC   C4A46674   3.822  38.249   7.256
 3479POPC   C1B46675   3.561  38.797   6.093
 3479POPC   C2B46676   3.558  38.958   6.505
 3479POPC   C3B46677   3.649  38.799   6.900
 3479POPC   C4B46678   3.431  38.658   7.249
 3480POPC   NC346679  21.935  11.712   5.316
 3480POPC   PO446680  21.899  12.357   5.306
 3480POPC   GL146681  22.142  12.177   5.697
 3480POPC   GL246682  22.384  11.885   5.634
 3480POPC   C1A46683  22.229  12.247   6.169
 3480POPC   D2A46684  22.373  12.301   6.612
 3480POPC   C3A46685  22.231  12.280   7.032
 3480POPC   C4A46686  22.007  12.545   7.321
 3480POPC   C1B46687  22.277  11.758   6.066
 3480POPC   C2B46688  22.240  11.787   6.529
 3480POPC   C3B46689  22.137  11.749   6.979
 3480POPC   C4B46690  22.389  11.904   7.334
 3481POPC   NC346691   3.221  40.876   5.357
 3481POPC   PO446692   3.833  40.755   5.537
 3481POPC   GL146693   3.477  40.844   5.826
 3481POPC   GL246694   3.256  40.589   5.775
 3481POPC   C1A46695   3.460  40.848   6.285
 3481POPC   D2A46696   3.617  40.598   6.629
 3481POPC   C3A46697   3.818  40.760   6.981
 3481POPC   C4A46698   3.733  41.100   7.276
 3481POPC   C1B46699   3.279  40.369   6.160
 3481POPC   C2B46700   3.100  40.463   6.535
 3481POPC   C3B46701   3.177  40.755   6.851
 3481POPC   C4B46702   3.399  40.709   7.236
 3482POPC   NC346703   9.388   5.012   5.486
 3482POPC   PO446704  10.094   4.890   5.537
 3482POPC   GL146705   9.881   5.165   5.734
 3482POPC   GL246706   9.652   4.952   5.921
 3482POPC   C1A46707   9.979   5.312   6.115
 3482POPC   D2A46708   9.648   5.232   6.414
 3482POPC   C3A46709   9.698   5.346   6.847
 3482POPC   C4A46710   9.690   5.173   7.258
 3482POPC   C1B46711   9.910   4.815   6.261
 3482POPC   C2B46712   9.848   4.871   6.710
 3482POPC   C3B46713   9.489   4.812   6.945
 3482POPC   C4B46714   9.508   4.551   7.303
 3483POPC   NC346715  22.090  23.994   5.349
 3483POPC   PO446716  22.303  23.342   5.214
 3483POPC   GL146717  22.115  23.505   5.655
 3483POPC   GL246718  21.858  23.778   5.776
 3483POPC   C1A46719  21.944  23.403   6.121
 3483POPC   D2A46720  21.930  23.507   6.548
 3483POPC   C3A46721  22.221  23.678   6.825
 3483POPC   C4A46722  22.156  23.519   7.213
 3483POPC   C1B46723  22.059  23.877   6.221
 3483POPC   C2B46724  21.877  24.023   6.649
 3483POPC   C3B46725  21.892  23.949   7.117
 3483POPC   C4B46726  22.255  24.071   7.484
 3484POPC   NC346727   8.090  14.615   5.652
 3484POPC   PO446728   8.496  14.048   5.369
 3484POPC   GL146729   8.214  14.123   5.741
 3484POPC   GL246730   8.484  14.239   5.871
 3484POPC   C1A46731   8.060  14.291   6.200
 3484POPC   D2A46732   8.096  14.250   6.663
 3484POPC   C3A46733   7.976  14.434   7.067
 3484POPC   C4A46734   8.063  14.101   7.402
 3484POPC   C1B46735   8.603  14.340   6.260
 3484POPC   C2B46736   8.554  14.472   6.668
 3484POPC   C3B46737   8.459  14.248   7.045
 3484POPC   C4B46738   8.392  14.490   7.377
 3485POPC   NC346739  30.291  31.829   5.612
 3485POPC   PO446740  29.763  31.572   5.242
 3485POPC   GL146741  29.872  31.512   5.681
 3485POPC   GL246742  29.659  31.732   5.850
 3485POPC   C1A46743  30.068  31.323   6.094
 3485POPC   D2A46744  29.912  31.163   6.522
 3485POPC   C3A46745  29.924  31.433   6.898
 3485POPC   C4A46746  30.118  31.548   7.326
 3485POPC   C1B46747  29.599  31.467   6.197
 3485POPC   C2B46748  29.393  31.478   6.565
 3485POPC   C3B46749  29.434  31.681   6.922
 3485POPC   C4B46750  29.607  31.554   7.291
 3486POPC   NC346751  12.591   3.096   5.070
 3486POPC   PO446752  12.068   2.748   5.416
 3486POPC   GL146753  12.124   2.748   5.843
 3486POPC   GL246754  12.259   3.033   5.909
 3486POPC   C1A46755  11.985   2.818   6.288
 3486POPC   D2A46756  11.996   2.445   6.598
 3486POPC   C3A46757  11.950   2.543   7.039
 3486POPC   C4A46758  11.834   2.928   7.227
 3486POPC   C1B46759  12.420   3.180   6.235
 3486POPC   C2B46760  12.323   3.398   6.582
 3486POPC   C3B46761  12.197   3.209   6.950
 3486POPC   C4B46762  12.310   3.072   7.352
 3487POPC   NC346763  28.646   4.037   5.614
 3487POPC   PO446764  27.969   4.233   5.439
 3487POPC   GL146765  28.251   4.323   5.744
 3487POPC   GL246766  28.547   4.545   5.612
 3487POPC   C1A46767  28.313   4.107   6.149
 3487POPC   D2A46768  28.302   4.271   6.547
 3487POPC   C3A46769  28.326   4.070   6.933
 3487POPC   C4A46770  28.310   4.100   7.360
 3487POPC   C1B46771  28.513   4.621   6.067
 3487POPC   C2B46772  28.612   4.670   6.484
 3487POPC   C3B46773  28.602   4.519   6.891
 3487POPC   C4B46774  28.504   4.632   7.285
 3488POPC   NC346775  13.270  35.735   5.750
 3488POPC   PO446776  13.825  35.547   5.342
 3488POPC   GL146777  13.644  35.398   5.729
 3488POPC   GL246778  13.475  35.136   5.794
 3488POPC   C1A46779  13.713  35.494   6.167
 3488POPC   D2A46780  13.792  35.378   6.580
 3488POPC   C3A46781  13.615  35.644   6.903
 3488POPC   C4A46782  13.658  35.555   7.335
 3488POPC   C1B46783  13.316  35.175   6.217
 3488POPC   C2B46784  13.296  35.310   6.646
 3488POPC   C3B46785  13.539  35.153   7.040
 3488POPC   C4B46786  13.464  35.095   7.490
 3489POPC   NC346787  14.144  41.535   5.330
 3489POPC   PO446788  14.763  41.887   5.392
 3489POPC   GL146789  14.703  41.734   5.809
 3489POPC   GL246790  14.428  41.500   5.774
 3489POPC   C1A46791  14.587  41.613   6.238
 3489POPC   D2A46792  14.564  41.303   6.558
 3489POPC   C3A46793  14.553  41.574   6.885
 3489POPC   C4A46794  14.715  41.651   7.271
 3489POPC   C1B46795  14.280  41.200   6.096
 3489POPC   C2B46796  14.113  41.086   6.499
 3489POPC   C3B46797  14.090  41.335   6.873
 3489POPC   C4B46798  14.195  41.549   7.243
 3490POPC   NC346799  38.843  24.091   5.493
 3490POPC   PO446800  39.444  24.406   5.430
 3490POPC   GL146801  39.411  24.567   5.830
 3490POPC   GL246802  39.124  24.328   5.878
 3490POPC   C1A46803  39.275  24.643   6.275
 3490POPC   D2A46804  38.977  24.433   6.593
 3490POPC   C3A46805  38.995  24.536   7.054
 3490POPC   C4A46806  39.337  24.706   7.336
 3490POPC   C1B46807  39.491  24.151   6.092
 3490POPC   C2B46808  39.468  24.236   6.515
 3490POPC   C3B46809  39.307  24.180   6.890
 3490POPC   C4B46810  39.588  24.210   7.230
 3491POPC   NC346811   3.048  21.671   5.481
 3491POPC   PO446812   2.859  21.021   5.409
 3491POPC   GL146813   2.852  21.202   5.811
 3491POPC   GL246814   2.514  21.142   5.836
 3491POPC   C1A46815   2.775  21.034   6.263
 3491POPC   D2A46816   2.620  20.963   6.701
 3491POPC   C3A46817   2.894  21.179   6.945
 3491POPC   C4A46818   3.120  21.402   7.250
 3491POPC   C1B46819   2.370  21.350   6.138
 3491POPC   C2B46820   2.445  21.406   6.508
 3491POPC   C3B46821   2.397  21.425   6.882
 3491POPC   C4B46822   2.459  21.275   7.226
 3492POPC   NC346823  26.910   5.442   5.462
 3492POPC   PO446824  26.595   6.023   5.378
 3492POPC   GL146825  26.920   5.923   5.753
 3492POPC   GL246826  27.009   5.583   5.935
 3492POPC   C1A46827  27.062   6.020   6.182
 3492POPC   D2A46828  26.948   6.096   6.599
 3492POPC   C3A46829  27.145   6.073   6.933
 3492POPC   C4A46830  26.925   5.870   7.205
 3492POPC   C1B46831  27.015   5.537   6.398
 3492POPC   C2B46832  26.751   5.400   6.760
 3492POPC   C3B46833  26.761   5.401   7.196
 3492POPC   C4B46834  27.113   5.407   7.417
 3493POPC   NC346835  42.757  27.721   5.516
 3493POPC   PO446836  43.406  27.670   5.255
 3493POPC   GL146837  43.250  27.790   5.638
 3493POPC   GL246838  43.098  27.479   5.811
 3493POPC   C1A46839  43.301  27.851   6.067
 3493POPC   D2A46840  43.229  27.652   6.469
 3493POPC   C3A46841  43.242  27.836   6.874
 3493POPC   C4A46842  43.140  27.737   7.291
 3493POPC   C1B46843  42.820  27.585   6.173
 3493POPC   C2B46844  42.709  27.376   6.569
 3493POPC   C3B46845  42.885  27.336   6.981
 3493POPC   C4B46846  42.794  27.380   7.400
 3494POPC   NC346847  10.800  16.030   5.416
 3494POPC   PO446848  10.193  15.776   5.376
 3494POPC   GL146849  10.362  15.976   5.772
 3494POPC   GL246850  10.725  15.921   5.913
 3494POPC   C1A46851  10.302  15.842   6.208
 3494POPC   D2A46852  10.217  15.664   6.605
 3494POPC   C3A46853  10.301  15.859   7.032
 3494POPC   C4A46854  10.153  15.629   7.403
 3494POPC   C1B46855  10.725  16.138   6.329
 3494POPC   C2B46856  10.726  16.011   6.777
 3494POPC   C3B46857  10.770  16.094   7.230
 3494POPC   C4B46858  10.854  16.203   7.683
 3495POPC   NC346859  19.366  39.357   5.566
 3495POPC   PO446860  18.852  39.052   5.677
 3495POPC   GL146861  18.995  39.354   5.987
 3495POPC   GL246862  19.320  39.582   6.027
 3495POPC   C1A46863  18.881  39.283   6.395
 3495POPC   D2A46864  18.867  38.896   6.645
 3495POPC   C3A46865  18.821  39.113   7.006
 3495POPC   C4A46866  18.866  39.544   7.120
 3495POPC   C1B46867  19.423  39.188   6.236
 3495POPC   C2B46868  19.523  39.146   6.678
 3495POPC   C3B46869  19.311  39.220   7.068
 3495POPC   C4B46870  19.176  39.010   7.447
 3496POPC   NC346871  27.236  32.942   5.499
 3496POPC   PO446872  27.906  32.748   5.570
 3496POPC   GL146873  27.609  32.817   5.869
 3496POPC   GL246874  27.550  33.152   5.877
 3496POPC   C1A46875  27.544  32.830   6.301
 3496POPC   D2A46876  27.473  32.707   6.707
 3496POPC   C3A46877  27.726  32.834   7.062
 3496POPC   C4A46878  27.538  32.968   7.434
 3496POPC   C1B46879  27.639  33.323   6.293
 3496POPC   C2B46880  27.668  33.243   6.739
 3496POPC   C3B46881  27.732  33.344   7.175
 3496POPC   C4B46882  27.387  33.442   7.479
 3497POPC   NC346883  26.436  19.593   5.521
 3497POPC   PO446884  26.646  20.275   5.427
 3497POPC   GL146885  26.691  19.944   5.821
 3497POPC   GL246886  26.909  19.662   5.813
 3497POPC   C1A46887  26.577  19.740   6.283
 3497POPC   D2A46888  26.478  19.674   6.779
 3497POPC   C3A46889  26.586  19.917   7.185
 3497POPC   C4A46890  26.569  20.275   7.522
 3497POPC   C1B46891  27.089  19.626   6.229
 3497POPC   C2B46892  26.979  19.678   6.658
 3497POPC   C3B46893  26.934  19.537   7.077
 3497POPC   C4B46894  27.200  19.636   7.429
 3498POPC   NC346895  44.933  25.410   5.459
 3498POPC   PO446896  44.241  25.448   5.598
 3498POPC   GL146897  44.497  25.483   5.949
 3498POPC   GL246898  44.744  25.245   5.931
 3498POPC   C1A46899  44.479  25.313   6.359
 3498POPC   D2A46900  44.575  25.291   6.774
 3498POPC   C3A46901  44.367  25.521   7.054
 3498POPC   C4A46902  44.407  25.414   7.471
 3498POPC   C1B46903  44.931  25.069   6.348
 3498POPC   C2B46904  44.772  24.797   6.717
 3498POPC   C3B46905  44.731  24.877   7.178
 3498POPC   C4B46906  44.816  25.143   7.539
 3499POPC   NC346907  17.613  23.082   5.599
 3499POPC   PO446908  17.055  22.775   5.501
 3499POPC   GL146909  17.338  22.737   5.884
 3499POPC   GL246910  17.670  22.609   5.873
 3499POPC   C1A46911  17.615  23.009   6.214
 3499POPC   D2A46912  17.845  22.937   6.603
 3499POPC   C3A46913  17.923  23.210   6.946
 3499POPC   C4A46914  17.618  23.111   7.273
 3499POPC   C1B46915  17.557  22.521   6.306
 3499POPC   C2B46916  17.416  22.551   6.717
 3499POPC   C3B46917  17.702  22.661   7.034
 3499POPC   C4B46918  17.722  22.652   7.492
 3500POPC   NC346919  40.774  19.297   5.345
 3500POPC   PO446920  40.837  19.937   5.374
 3500POPC   GL146921  40.832  20.024   5.795
 3500POPC   GL246922  41.135  20.164   5.847
 3500POPC   C1A46923  40.551  19.909   6.134
 3500POPC   D2A46924  40.511  19.647   6.500
 3500POPC   C3A46925  40.638  19.752   6.929
 3500POPC   C4A46926  40.504  20.119   7.155
 3500POPC   C1B46927  41.077  19.935   6.244
 3500POPC   C2B46928  41.034  19.961   6.684
 3500POPC   C3B46929  41.088  20.139   7.087
 3500POPC   C4B46930  40.938  20.262   7.472
 3501POPC   NC346931   8.707  21.920   5.428
 3501POPC   PO446932   8.963  22.622   5.390
 3501POPC   GL146933   8.902  22.385   5.787
 3501POPC   GL246934   9.106  22.081   5.806
 3501POPC   C1A46935   9.009  22.314   6.233
 3501POPC   D2A46936   9.193  22.580   6.528
 3501POPC   C3A46937   8.986  22.474   6.905
 3501POPC   C4A46938   8.936  22.150   7.216
 3501POPC   C1B46939   9.176  21.826   6.198
 3501POPC   C2B46940   9.229  21.965   6.638
 3501POPC   C3B46941   9.220  21.769   7.016
 3501POPC   C4B46942   9.299  21.862   7.447
 3502POPC   NC346943  16.752  25.650   5.191
 3502POPC   PO446944  16.734  26.345   5.343
 3502POPC   GL146945  16.882  26.096   5.731
 3502POPC   GL246946  16.568  26.129   5.925
 3502POPC   C1A46947  16.874  25.858   6.187
 3502POPC   D2A46948  16.635  26.071   6.517
 3502POPC   C3A46949  16.830  25.955   6.907
 3502POPC   C4A46950  16.586  25.864   7.257
 3502POPC   C1B46951  16.859  26.378   6.180
 3502POPC   C2B46952  16.840  26.530   6.601
 3502POPC   C3B46953  17.002  26.423   6.997
 3502POPC   C4B46954  16.988  26.225   7.381
 3503POPC   NC346955  27.923   7.033   5.600
 3503POPC   PO446956  27.390   6.620   5.487
 3503POPC   GL146957  27.479   6.857   5.841
 3503POPC   GL246958  27.776   6.717   5.958
 3503POPC   C1A46959  27.330   6.794   6.256
 3503POPC   D2A46960  27.106   6.883   6.610
 3503POPC   C3A46961  27.104   6.613   6.924
 3503POPC   C4A46962  27.346   6.805   7.221
 3503POPC   C1B46963  27.776   6.976   6.343
 3503POPC   C2B46964  27.634   6.883   6.774
 3503POPC   C3B46965  27.839   6.755   7.182
 3503POPC   C4B46966  27.671   6.652   7.593
 3504POPC   NC346967   0.063   9.457   5.430
 3504POPC   PO446968  44.901   8.827   5.714
 3504POPC   GL146969  44.694   9.018   6.029
 3504POPC   GL246970  44.676   9.357   5.853
 3504POPC   C1A46971  44.404   8.970   6.377
 3504POPC   D2A46972  44.217   9.048   6.774
 3504POPC   C3A46973  44.380   8.838   7.149
 3504POPC   C4A46974  44.800   8.701   7.244
 3504POPC   C1B46975  44.871   9.410   6.265
 3504POPC   C2B46976   0.082   9.254   6.627
 3504POPC   C3B46977  44.775   9.090   6.907
 3504POPC   C4B46978  44.664   9.213   7.317
 3505POPC   NC346979  11.499   6.927   5.195
 3505POPC   PO446980  11.680   7.610   5.334
 3505POPC   GL146981  11.457   7.398   5.705
 3505POPC   GL246982  11.652   7.153   5.887
 3505POPC   C1A46983  11.209   7.359   6.109
 3505POPC   D2A46984  11.287   7.263   6.535
 3505POPC   C3A46985  11.061   7.366   6.896
 3505POPC   C4A46986  11.007   7.200   7.272
 3505POPC   C1B46987  11.733   7.389   6.250
 3505POPC   C2B46988  11.764   7.264   6.689
 3505POPC   C3B46989  11.583   7.375   7.064
 3505POPC   C4B46990  11.656   7.644   7.411
 3506POPC   NC346991  29.579  27.019   5.495
 3506POPC   PO446992  30.026  26.427   5.402
 3506POPC   GL146993  29.883  26.735   5.778
 3506POPC   GL246994  29.782  27.095   5.947
 3506POPC   C1A46995  29.704  26.673   6.202
 3506POPC   D2A46996  29.778  26.850   6.602
 3506POPC   C3A46997  30.135  26.673   6.810
 3506POPC   C4A46998  30.114  26.602   7.248
 3506POPC   C1B46999  30.111  27.029   6.214
 3506POPC   C2B47000  30.210  27.157   6.615
 3506POPC   C3B47001  30.078  27.135   7.038
 3506POPC   C4B47002  29.849  27.169   7.420
 3507POPC   NC347003  34.762  37.638   5.400
 3507POPC   PO447004  34.110  37.480   5.345
 3507POPC   GL147005  34.373  37.558   5.765
 3507POPC   GL247006  34.601  37.849   5.835
 3507POPC   C1A47007  34.633  37.306   6.065
 3507POPC   D2A47008  34.657  37.137   6.504
 3507POPC   C3A47009  34.895  37.408   6.763
 3507POPC   C4A47010  34.911  37.715   7.115
 3507POPC   C1B47011  34.476  37.814   6.260
 3507POPC   C2B47012  34.606  37.861   6.678
 3507POPC   C3B47013  34.420  37.894   7.080
 3507POPC   C4B47014  34.336  38.099   7.463
 3508POPC   NC347015   5.270  30.359   5.547
 3508POPC   PO447016   6.041  30.432   5.498
 3508POPC   GL147017   5.942  30.512   5.912
 3508POPC   GL247018   5.659  30.276   5.877
 3508POPC   C1A47019   5.949  30.860   6.249
 3508POPC   D2A47020   5.892  30.912   6.713
 3508POPC   C3A47021   5.918  31.061   7.133
 3508POPC   C4A47022   5.483  30.975   7.324
 3508POPC   C1B47023   5.654  30.400   6.313
 3508POPC   C2B47024   5.767  30.132   6.630
 3508POPC   C3B47025   6.008  30.187   6.951
 3508POPC   C4B47026   5.763  30.537   7.152
 3509POPC   NC347027   9.615   3.744   5.407
 3509POPC   PO447028   9.887   3.155   5.435
 3509POPC   GL147029   9.671   3.347   5.755
 3509POPC   GL247030   9.894   3.573   5.837
 3509POPC   C1A47031   9.502   3.400   6.179
 3509POPC   D2A47032   9.645   3.437   6.595
 3509POPC   C3A47033   9.544   3.568   7.005
 3509POPC   C4A47034   9.813   3.746   7.288
 3509POPC   C1B47035  10.036   3.361   6.236
 3509POPC   C2B47036  10.152   3.458   6.695
 3509POPC   C3B47037  10.211   3.463   7.155
 3509POPC   C4B47038  10.092   3.490   7.619
 3510POPC   NC347039   6.507   2.512   5.389
 3510POPC   PO447040   6.814   2.038   5.227
 3510POPC   GL147041   6.795   2.146   5.699
 3510POPC   GL247042   7.087   2.013   5.804
 3510POPC   C1A47043   6.756   1.976   6.190
 3510POPC   D2A47044   6.821   1.823   6.657
 3510POPC   C3A47045   6.558   1.863   7.072
 3510POPC   C4A47046   6.362   1.782   7.517
 3510POPC   C1B47047   7.180   2.261   6.173
 3510POPC   C2B47048   7.089   2.269   6.637
 3510POPC   C3B47049   7.057   2.061   7.076
 3510POPC   C4B47050   7.144   2.399   7.376
 3511POPC   NC347051  27.985  37.986   5.371
 3511POPC   PO447052  27.381  37.758   5.468
 3511POPC   GL147053  27.638  37.563   5.800
 3511POPC   GL247054  27.990  37.474   5.696
 3511POPC   C1A47055  27.540  37.527   6.245
 3511POPC   D2A47056  27.515  37.700   6.682
 3511POPC   C3A47057  27.455  37.528   7.117
 3511POPC   C4A47058  27.328  37.760   7.490
 3511POPC   C1B47059  27.965  37.266   6.124
 3511POPC   C2B47060  27.910  37.387   6.563
 3511POPC   C3B47061  27.957  37.518   6.978
 3511POPC   C4B47062  27.918  37.624   7.412
 3512POPC   NC347063  13.867   6.154   5.323
 3512POPC   PO447064  13.197   5.993   5.193
 3512POPC   GL147065  13.460   5.983   5.654
 3512POPC   GL247066  13.796   5.977   5.865
 3512POPC   C1A47067  13.339   5.958   6.123
 3512POPC   D2A47068  13.580   6.033   6.513
 3512POPC   C3A47069  13.476   5.861   6.905
 3512POPC   C4A47070  13.624   5.953   7.302
 3512POPC   C1B47071  13.718   5.627   6.195
 3512POPC   C2B47072  13.847   5.473   6.605
 3512POPC   C3B47073  13.926   5.627   7.023
 3512POPC   C4B47074  13.980   5.539   7.459
 3513POPC   NC347075  28.143  16.921   5.382
 3513POPC   PO447076  27.607  16.449   5.375
 3513POPC   GL147077  27.654  16.608   5.853
 3513POPC   GL247078  27.751  16.982   5.886
 3513POPC   C1A47079  27.427  16.697   6.290
 3513POPC   D2A47080  27.355  16.876   6.704
 3513POPC   C3A47081  27.517  16.713   7.077
 3513POPC   C4A47082  27.445  16.556   7.503
 3513POPC   C1B47083  27.837  16.968   6.320
 3513POPC   C2B47084  27.798  17.106   6.740
 3513POPC   C3B47085  27.744  17.176   7.153
 3513POPC   C4B47086  27.844  16.885   7.470
 3514POPC   NC347087  39.891  32.221   5.546
 3514POPC   PO447088  40.428  31.868   5.506
 3514POPC   GL147089  40.235  32.083   5.889
 3514POPC   GL247090  39.994  32.391   6.013
 3514POPC   C1A47091  40.116  32.006   6.299
 3514POPC   D2A47092  40.223  32.206   6.626
 3514POPC   C3A47093  40.172  31.903   6.909
 3514POPC   C4A47094  40.163  31.990   7.340
 3514POPC   C1B47095  39.646  32.236   6.292
 3514POPC   C2B47096  39.699  32.118   6.724
 3514POPC   C3B47097  39.935  32.338   7.030
 3514POPC   C4B47098  39.861  32.384   7.447
 3515POPC   NC347099  28.664  38.188   5.488
 3515POPC   PO447100  28.029  38.519   5.428
 3515POPC   GL147101  28.278  38.360   5.781
 3515POPC   GL247102  28.594  38.526   5.891
 3515POPC   C1A47103  28.279  38.255   6.228
 3515POPC   D2A47104  28.011  38.437   6.542
 3515POPC   C3A47105  28.151  38.645   6.918
 3515POPC   C4A47106  28.209  38.539   7.327
 3515POPC   C1B47107  28.805  38.317   6.243
 3515POPC   C2B47108  28.613  38.076   6.595
 3515POPC   C3B47109  28.506  38.241   6.989
 3515POPC   C4B47110  28.695  38.400   7.369
 3516POPC   NC347111   1.654  16.686   5.452
 3516POPC   PO447112   2.196  17.063   5.414
 3516POPC   GL147113   1.959  16.894   5.796
 3516POPC   GL247114   2.072  16.556   5.845
 3516POPC   C1A47115   1.825  16.763   6.240
 3516POPC   D2A47116   1.649  16.705   6.665
 3516POPC   C3A47117   1.896  16.802   7.041
 3516POPC   C4A47118   1.784  16.840   7.482
 3516POPC   C1B47119   2.205  16.279   6.163
 3516POPC   C2B47120   2.071  16.378   6.565
 3516POPC   C3B47121   2.056  16.296   6.979
 3516POPC   C4B47122   2.062  16.309   7.436
 3517POPC   NC347123  43.241  27.233   5.363
 3517POPC   PO447124  43.029  26.575   5.227
 3517POPC   GL147125  43.018  26.793   5.643
 3517POPC   GL247126  43.286  26.994   5.803
 3517POPC   C1A47127  43.024  26.661   6.101
 3517POPC   D2A47128  43.198  26.690   6.521
 3517POPC   C3A47129  42.983  26.816   6.878
 3517POPC   C4A47130  43.072  26.593   7.245
 3517POPC   C1B47131  43.210  27.158   6.228
 3517POPC   C2B47132  43.300  27.199   6.674
 3517POPC   C3B47133  43.423  27.316   7.092
 3517POPC   C4B47134  43.196  27.062   7.359
 3518POPC   NC347135  39.056  31.740   5.545
 3518POPC   PO447136  39.120  31.070   5.541
 3518POPC   GL147137  39.414  31.121   5.895
 3518POPC   GL247138  39.508  31.477   5.826
 3518POPC   C1A47139  39.264  31.202   6.321
 3518POPC   D2A47140  38.849  31.250   6.559
 3518POPC   C3A47141  38.941  31.377   6.972
 3518POPC   C4A47142  39.359  31.339   7.093
 3518POPC   C1B47143  39.384  31.725   6.199
 3518POPC   C2B47144  39.292  31.614   6.630
 3518POPC   C3B47145  39.241  31.842   6.989
 3518POPC   C4B47146  39.264  31.734   7.397
 3519POPC   NC347147  20.205  42.492   5.344
 3519POPC   PO447148  20.807  42.264   5.331
 3519POPC   GL147149  20.531  42.327   5.727
 3519POPC   GL247150  20.358  42.654   5.781
 3519POPC   C1A47151  20.556  42.436   6.187
 3519POPC   D2A47152  20.760  42.587   6.550
 3519POPC   C3A47153  20.776  42.291   6.883
 3519POPC   C4A47154  20.865  42.485   7.240
 3519POPC   C1B47155  20.036  42.680   6.094
 3519POPC   C2B47156  19.954  42.648   6.524
 3519POPC   C3B47157  20.292  42.589   6.835
 3519POPC   C4B47158  20.164  42.866   7.167
 3520POPC   NC347159  42.990  20.384   5.396
 3520POPC   PO447160  42.995  21.007   5.270
 3520POPC   GL147161  43.124  20.835   5.724
 3520POPC   GL247162  43.253  20.500   5.817
 3520POPC   C1A47163  43.256  20.848   6.211
 3520POPC   D2A47164  43.272  21.098   6.644
 3520POPC   C3A47165  43.050  20.856   6.960
 3520POPC   C4A47166  43.302  20.606   7.237
 3520POPC   C1B47167  42.894  20.470   6.128
 3520POPC   C2B47168  42.855  20.594   6.557
 3520POPC   C3B47169  42.998  20.346   6.917
 3520POPC   C4B47170  42.832  20.294   7.343
 3521POPC   NC347171  17.230  15.178   5.589
 3521POPC   PO447172  16.832  15.173   5.238
 3521POPC   GL147173  16.735  15.223   5.723
 3521POPC   GL247174  16.412  15.162   5.862
 3521POPC   C1A47175  16.793  15.223   6.220
 3521POPC   D2A47176  16.716  15.006   6.651
 3521POPC   C3A47177  16.922  15.044   7.092
 3521POPC   C4A47178  16.986  15.228   7.522
 3521POPC   C1B47179  16.348  14.949   6.254
 3521POPC   C2B47180  16.198  15.125   6.638
 3521POPC   C3B47181  16.388  15.143   7.037
 3521POPC   C4B47182  16.547  14.962   7.423
 3522POPC   NC347183  28.702  25.383   5.455
 3522POPC   PO447184  29.255  24.987   5.421
 3522POPC   GL147185  28.979  25.087   5.772
 3522POPC   GL247186  29.025  25.459   5.841
 3522POPC   C1A47187  29.039  25.136   6.233
 3522POPC   D2A47188  29.090  25.402   6.585
 3522POPC   C3A47189  29.333  25.265   6.931
 3522POPC   C4A47190  29.224  25.372   7.348
 3522POPC   C1B47191  28.743  25.568   6.197
 3522POPC   C2B47192  28.699  25.723   6.645
 3522POPC   C3B47193  28.772  25.469   7.039
 3522POPC   C4B47194  28.763  25.614   7.488
 3523POPC   NC347195  26.254  20.276   5.146
 3523POPC   PO447196  25.950  19.760   5.402
 3523POPC   GL147197  26.032  19.834   5.779
 3523POPC   GL247198  26.236  20.091   5.667
 3523POPC   C1A47199  26.075  19.575   6.132
 3523POPC   D2A47200  26.080  19.823   6.467
 3523POPC   C3A47201  25.969  19.704   6.845
 3523POPC   C4A47202  25.982  19.684   7.256
 3523POPC   C1B47203  26.295  20.154   6.108
 3523POPC   C2B47204  26.218  20.310   6.506
 3523POPC   C3B47205  26.243  20.130   6.862
 3523POPC   C4B47206  26.148  20.169   7.242
 3524POPC   NC347207  12.105  43.621   5.594
 3524POPC   PO447208  12.101  42.990   5.300
 3524POPC   GL147209  12.152  43.042   5.754
 3524POPC   GL247210  12.506  42.948   5.797
 3524POPC   C1A47211  11.937  43.008   6.183
 3524POPC   D2A47212  11.716  42.863   6.584
 3524POPC   C3A47213  11.858  43.052   7.004
 3524POPC   C4A47214  11.972  43.437   7.211
 3524POPC   C1B47215  12.446  42.902   6.237
 3524POPC   C2B47216  12.256  42.995   6.649
 3524POPC   C3B47217  12.302  42.797   7.056
 3524POPC   C4B47218  12.606  42.804   7.356
 3525POPC   NC347219  33.383  33.105   5.338
 3525POPC   PO447220  32.675  33.060   5.419
 3525POPC   GL147221  32.966  32.811   5.666
 3525POPC   GL247222  32.706  32.751   5.887
 3525POPC   C1A47223  33.202  32.823   6.057
 3525POPC   D2A47224  33.164  32.897   6.505
 3525POPC   C3A47225  33.286  32.662   6.840
 3525POPC   C4A47226  33.302  32.848   7.250
 3525POPC   C1B47227  32.776  32.635   6.277
 3525POPC   C2B47228  32.672  32.768   6.660
 3525POPC   C3B47229  32.809  32.693   7.042
 3525POPC   C4B47230  32.791  33.051   7.209
 3526POPC   NC347231  28.124  30.535   5.419
 3526POPC   PO447232  27.567  30.867   5.357
 3526POPC   GL147233  27.766  30.760   5.750
 3526POPC   GL247234  27.433  30.659   5.872
 3526POPC   C1A47235  27.749  30.860   6.212
 3526POPC   D2A47236  27.600  30.626   6.589
 3526POPC   C3A47237  27.509  30.900   6.937
 3526POPC   C4A47238  27.720  30.960   7.314
 3526POPC   C1B47239  27.205  30.459   6.190
 3526POPC   C2B47240  27.326  30.192   6.507
 3526POPC   C3B47241  27.320  30.311   6.924
 3526POPC   C4B47242  27.567  30.469   7.264
 3527POPC   NC347243  34.428  43.580   5.363
 3527POPC   PO447244  34.239  44.280   5.431
 3527POPC   GL147245  34.550  44.132   5.762
 3527POPC   GL247246  34.650  43.766   5.815
 3527POPC   C1A47247  34.558  44.040   6.214
 3527POPC   D2A47248  34.613  43.783   6.578
 3527POPC   C3A47249  34.611  43.994   6.961
 3527POPC   C4A47250  34.364  44.054   7.298
 3527POPC   C1B47251  34.950  43.676   6.223
 3527POPC   C2B47252  35.112  43.767   6.661
 3527POPC   C3B47253  35.028  43.738   7.122
 3527POPC   C4B47254  34.921  43.782   7.571
 3528POPC   NC347255  33.282  42.685   5.285
 3528POPC   PO447256  32.999  42.161   5.414
 3528POPC   GL147257  32.951  42.503   5.695
 3528POPC   GL247258  32.935  42.199   5.922
 3528POPC   C1A47259  32.788  42.640   6.099
 3528POPC   D2A47260  32.790  42.314   6.417
 3528POPC   C3A47261  32.745  42.465   6.826
 3528POPC   C4A47262  32.923  42.606   7.210
 3528POPC   C1B47263  33.212  41.984   6.214
 3528POPC   C2B47264  33.253  42.130   6.593
 3528POPC   C3B47265  33.045  42.090   6.977
 3528POPC   C4B47266  33.372  42.064   7.217
 3529POPC   NC347267  15.312  44.282   5.481
 3529POPC   PO447268  15.458  43.583   5.529
 3529POPC   GL147269  15.259  43.890   5.874
 3529POPC   GL247270  14.936  44.079   5.781
 3529POPC   C1A47271  15.267  43.903   6.350
 3529POPC   D2A47272  15.137  43.649   6.715
 3529POPC   C3A47273  15.369  43.784   7.052
 3529POPC   C4A47274  15.365  44.229   7.157
 3529POPC   C1B47275  14.779  43.925   6.175
 3529POPC   C2B47276  14.809  44.126   6.582
 3529POPC   C3B47277  14.815  43.948   6.996
 3529POPC   C4B47278  14.671  43.541   7.187
 3530POPC   NC347279  40.644  26.960   5.479
 3530POPC   PO447280  41.196  26.569   5.551
 3530POPC   GL147281  40.990  26.821   5.867
 3530POPC   GL247282  40.612  26.740   5.933
 3530POPC   C1A47283  40.934  26.874   6.305
 3530POPC   D2A47284  40.623  26.853   6.625
 3530POPC   C3A47285  40.835  26.997   6.976
 3530POPC   C4A47286  40.910  26.811   7.362
 3530POPC   C1B47287  40.586  26.457   6.275
 3530POPC   C2B47288  40.476  26.338   6.699
 3530POPC   C3B47289  40.549  26.568   7.069
 3530POPC   C4B47290  40.410  26.955   7.276
 3531POPC   NC347291  15.008  15.807   5.501
 3531POPC   PO447292  15.537  16.126   5.708
 3531POPC   GL147293  15.226  15.968   6.005
 3531POPC   GL247294  14.895  15.993   5.952
 3531POPC   C1A47295  15.218  15.982   6.465
 3531POPC   D2A47296  15.388  15.703   6.774
 3531POPC   C3A47297  15.427  15.813   7.223
 3531POPC   C4A47298  15.589  15.823   7.645
 3531POPC   C1B47299  14.732  15.954   6.339
 3531POPC   C2B47300  14.841  15.705   6.712
 3531POPC   C3B47301  14.941  15.864   7.082
 3531POPC   C4B47302  14.734  16.243   7.118
 3532POPC   NC347303  16.745  36.266   5.271
 3532POPC   PO447304  16.355  35.912   5.629
 3532POPC   GL147305  16.756  36.039   5.849
 3532POPC   GL247306  17.096  35.829   5.825
 3532POPC   C1A47307  16.635  36.288   6.237
 3532POPC   D2A47308  16.429  36.313   6.692
 3532POPC   C3A47309  16.715  36.441   7.063
 3532POPC   C4A47310  16.923  36.282   7.473
 3532POPC   C1B47311  17.027  35.862   6.281
 3532POPC   C2B47312  16.691  35.890   6.565
 3532POPC   C3B47313  16.588  35.914   7.000
 3532POPC   C4B47314  16.680  35.830   7.413
 3533POPC   NC347315  22.908  33.692   5.370
 3533POPC   PO447316  23.235  34.254   5.333
 3533POPC   GL147317  23.115  33.998   5.735
 3533POPC   GL247318  22.739  33.953   5.804
 3533POPC   C1A47319  23.053  33.600   6.023
 3533POPC   D2A47320  22.973  33.534   6.479
 3533POPC   C3A47321  23.237  33.661   6.859
 3533POPC   C4A47322  23.216  33.575   7.309
 3533POPC   C1B47323  22.883  34.026   6.251
 3533POPC   C2B47324  22.803  33.944   6.709
 3533POPC   C3B47325  22.754  33.803   7.149
 3533POPC   C4B47326  22.645  34.082   7.531
 3534POPC   NC347327  28.839   9.092   5.609
 3534POPC   PO447328  28.196   9.127   5.508
 3534POPC   GL147329  28.411   8.915   5.862
 3534POPC   GL247330  28.709   8.651   5.831
 3534POPC   C1A47331  28.282   8.931   6.276
 3534POPC   D2A47332  28.177   9.231   6.572
 3534POPC   C3A47333  28.329   9.164   6.963
 3534POPC   C4A47334  28.460   9.395   7.320
 3534POPC   C1B47335  28.786   8.862   6.219
 3534POPC   C2B47336  28.721   9.048   6.615
 3534POPC   C3B47337  28.833   9.244   6.992
 3534POPC   C4B47338  28.824   9.017   7.342
 3535POPC   NC347339  18.025  38.552   5.353
 3535POPC   PO447340  17.330  38.609   5.470
 3535POPC   GL147341  17.677  38.676   5.777
 3535POPC   GL247342  17.814  38.353   5.835
 3535POPC   C1A47343  17.630  38.722   6.252
 3535POPC   D2A47344  17.367  38.727   6.655
 3535POPC   C3A47345  17.547  38.768   7.080
 3535POPC   C4A47346  17.570  38.501   7.449
 3535POPC   C1B47347  17.893  38.149   6.234
 3535POPC   C2B47348  17.817  38.381   6.630
 3535POPC   C3B47349  17.579  38.268   6.985
 3535POPC   C4B47350  17.715  38.022   7.315
 3536POPC   NC347351  41.887   9.940   5.543
 3536POPC   PO447352  41.258   9.696   5.449
 3536POPC   GL147353  41.520   9.677   5.826
 3536POPC   GL247354  41.826   9.752   5.988
 3536POPC   C1A47355  41.418   9.675   6.275
 3536POPC   D2A47356  41.115   9.611   6.590
 3536POPC   C3A47357  41.344   9.618   6.911
 3536POPC   C4A47358  41.344   9.751   7.286
 3536POPC   C1B47359  41.900  10.002   6.343
 3536POPC   C2B47360  41.933  10.206   6.753
 3536POPC   C3B47361  41.699  10.085   7.147
 3536POPC   C4B47362  41.765   9.849   7.539
 3537POPC   NC347363   9.659   0.544   5.024
 3537POPC   PO447364   9.660   1.198   5.283
 3537POPC   GL147365   9.824   1.292   5.701
 3537POPC   GL247366   9.506   1.259   5.800
 3537POPC   C1A47367   9.814   1.509   6.134
 3537POPC   D2A47368   9.902   1.317   6.547
 3537POPC   C3A47369   9.673   1.399   6.970
 3537POPC   C4A47370   9.788   1.349   7.423
 3537POPC   C1B47371   9.689   1.003   6.146
 3537POPC   C2B47372   9.534   0.916   6.586
 3537POPC   C3B47373   9.481   0.912   7.048
 3537POPC   C4B47374   9.379   0.966   7.483
 3538POPC   NC347375  29.345  35.774   5.436
 3538POPC   PO447376  28.831  35.397   5.413
 3538POPC   GL147377  28.941  35.524   5.813
 3538POPC   GL247378  29.262  35.331   5.889
 3538POPC   C1A47379  28.879  35.383   6.237
 3538POPC   D2A47380  29.152  35.203   6.532
 3538POPC   C3A47381  29.114  35.399   6.889
 3538POPC   C4A47382  28.965  35.282   7.259
 3538POPC   C1B47383  29.463  34.992   6.181
 3538POPC   C2B47384  29.565  34.856   6.636
 3538POPC   C3B47385  29.428  35.011   7.041
 3538POPC   C4B47386  29.494  35.415   7.268
 3539POPC   NC347387   2.264  11.459   5.357
 3539POPC   PO447388   1.644  11.199   5.430
 3539POPC   GL147389   1.893  11.378   5.751
 3539POPC   GL247390   2.113  11.093   5.841
 3539POPC   C1A47391   1.803  11.559   6.151
 3539POPC   D2A47392   1.659  11.739   6.533
 3539POPC   C3A47393   1.698  11.593   6.941
 3539POPC   C4A47394   1.777  11.479   7.339
 3539POPC   C1B47395   1.766  11.054   6.174
 3539POPC   C2B47396   1.743  11.219   6.588
 3539POPC   C3B47397   1.855  11.072   6.981
 3539POPC   C4B47398   1.676  10.960   7.365
 3540POPC   NC347399  25.031  39.160   5.504
 3540POPC   PO447400  25.521  39.589   5.474
 3540POPC   GL147401  25.481  39.332   5.862
 3540POPC   GL247402  25.614  38.971   5.853
 3540POPC   C1A47403  25.181  39.224   6.211
 3540POPC   D2A47404  25.020  38.953   6.571
 3540POPC   C3A47405  24.994  39.145   6.982
 3540POPC   C4A47406  25.143  39.590   7.057
 3540POPC   C1B47407  25.623  38.973   6.320
 3540POPC   C2B47408  25.645  38.936   6.783
 3540POPC   C3B47409  25.486  39.157   7.156
 3540POPC   C4B47410  25.518  39.055   7.601
 3541POPC   NC347411  18.499   5.255   5.222
 3541POPC   PO447412  18.077   4.735   5.299
 3541POPC   GL147413  18.176   4.691   5.746
 3541POPC   GL247414  18.454   4.952   5.772
 3541POPC   C1A47415  18.213   4.781   6.191
 3541POPC   D2A47416  18.268   4.987   6.578
 3541POPC   C3A47417  18.181   4.756   6.941
 3541POPC   C4A47418  18.101   5.025   7.295
 3541POPC   C1B47419  18.488   5.271   6.160
 3541POPC   C2B47420  18.583   5.401   6.624
 3541POPC   C3B47421  18.559   5.129   7.010
 3541POPC   C4B47422  18.667   5.150   7.452
 3542POPC   NC347423  10.365  28.547   5.597
 3542POPC   PO447424  10.734  28.026   5.577
 3542POPC   GL147425  10.483  28.156   5.912
 3542POPC   GL247426  10.210  27.899   5.884
 3542POPC   C1A47427  10.464  28.510   6.236
 3542POPC   D2A47428  10.693  28.681   6.589
 3542POPC   C3A47429  10.493  28.612   6.975
 3542POPC   C4A47430  10.411  28.601   7.386
 3542POPC   C1B47431  10.155  28.092   6.291
 3542POPC   C2B47432  10.294  28.253   6.667
 3542POPC   C3B47433  10.142  28.243   7.093
 3542POPC   C4B47434  10.181  28.186   7.545
 3543POPC   NC347435  24.734   9.362   5.705
 3543POPC   PO447436  24.369   9.717   5.219
 3543POPC   GL147437  24.494   9.845   5.664
 3543POPC   GL247438  24.824   9.891   5.688
 3543POPC   C1A47439  24.409   9.807   6.139
 3543POPC   D2A47440  24.622   9.677   6.527
 3543POPC   C3A47441  24.352   9.750   6.879
 3543POPC   C4A47442  24.304   9.665   7.301
 3543POPC   C1B47443  24.876   9.981   6.131
 3543POPC   C2B47444  24.992  10.031   6.571
 3543POPC   C3B47445  24.828   9.919   6.957
 3543POPC   C4B47446  24.808   9.789   7.360
 3544POPC   NC347447  24.657  31.909   5.517
 3544POPC   PO447448  24.229  32.194   5.158
 3544POPC   GL147449  24.405  32.356   5.665
 3544POPC   GL247450  24.737  32.245   5.885
 3544POPC   C1A47451  24.390  32.447   6.166
 3544POPC   D2A47452  24.739  32.496   6.510
 3544POPC   C3A47453  24.625  32.407   6.959
 3544POPC   C4A47454  24.313  32.255   7.221
 3544POPC   C1B47455  24.653  31.914   6.176
 3544POPC   C2B47456  24.647  31.963   6.594
 3544POPC   C3B47457  24.946  32.018   6.871
 3544POPC   C4B47458  24.733  31.924   7.219
 3545POPC   NC347459  29.562   4.479   5.019
 3545POPC   PO447460  28.977   4.272   5.380
 3545POPC   GL147461  29.043   4.239   5.853
 3545POPC   GL247462  29.388   4.106   5.877
 3545POPC   C1A47463  28.825   4.233   6.277
 3545POPC   D2A47464  29.048   4.420   6.631
 3545POPC   C3A47465  29.070   4.353   7.064
 3545POPC   C4A47466  29.356   4.343   7.382
 3545POPC   C1B47467  29.310   4.082   6.346
 3545POPC   C2B47468  29.150   3.935   6.767
 3545POPC   C3B47469  29.289   3.868   7.181
 3545POPC   C4B47470  29.580   3.885   7.500
 3546POPC   NC347471  41.643  33.149   5.516
 3546POPC   PO447472  41.057  33.430   5.406
 3546POPC   GL147473  41.212  33.229   5.801
 3546POPC   GL247474  41.350  32.861   5.813
 3546POPC   C1A47475  41.431  33.188   6.193
 3546POPC   D2A47476  41.810  33.100   6.459
 3546POPC   C3A47477  41.836  33.238   6.899
 3546POPC   C4A47478  41.618  33.058   7.255
 3546POPC   C1B47479  41.451  32.661   6.209
 3546POPC   C2B47480  41.367  32.853   6.581
 3546POPC   C3B47481  41.235  33.062   6.919
 3546POPC   C4B47482  41.141  32.729   7.192
 3547POPC   NC347483  27.533  22.763   5.332
 3547POPC   PO447484  27.773  23.408   5.492
 3547POPC   GL147485  27.621  23.069   5.729
 3547POPC   GL247486  27.896  22.826   5.691
 3547POPC   C1A47487  27.463  22.839   6.108
 3547POPC   D2A47488  27.656  22.919   6.529
 3547POPC   C3A47489  27.474  22.772   6.925
 3547POPC   C4A47490  27.725  22.821   7.271
 3547POPC   C1B47491  27.912  22.604   6.083
 3547POPC   C2B47492  28.020  22.442   6.481
 3547POPC   C3B47493  27.893  22.467   6.876
 3547POPC   C4B47494  28.106  22.407   7.260
 3548POPC   NC347495  28.166   0.032   5.340
 3548POPC   PO447496  28.530   0.630   5.338
 3548POPC   GL147497  28.594   0.569   5.774
 3548POPC   GL247498  28.847   0.813   5.892
 3548POPC   C1A47499  28.416   0.280   6.112
 3548POPC   D2A47500  28.331   0.418   6.532
 3548POPC   C3A47501  28.542   0.202   6.877
 3548POPC   C4A47502  28.512   0.276   7.319
 3548POPC   C1B47503  28.865   0.506   6.241
 3548POPC   C2B47504  28.787   0.598   6.669
 3548POPC   C3B47505  28.509   0.700   7.012
 3548POPC   C4B47506  28.849   0.673   7.235
 3549POPC   NC347507  14.178  23.709   5.353
 3549POPC   PO447508  14.817  23.927   5.418
 3549POPC   GL147509  14.561  23.740   5.758
 3549POPC   GL247510  14.191  23.806   5.838
 3549POPC   C1A47511  14.695  23.637   6.185
 3549POPC   D2A47512  14.720  23.421   6.582
 3549POPC   C3A47513  14.501  23.624   6.905
 3549POPC   C4A47514  14.541  23.545   7.321
 3549POPC   C1B47515  14.225  23.468   6.089
 3549POPC   C2B47516  14.221  23.546   6.483
 3549POPC   C3B47517  13.981  23.556   6.826
 3549POPC   C4B47518  14.062  23.386   7.198
 3550POPC   NC347519  16.465  27.363   5.540
 3550POPC   PO447520  17.006  27.516   5.210
 3550POPC   GL147521  17.001  27.437   5.727
 3550POPC   GL247522  16.814  27.225   5.896
 3550POPC   C1A47523  17.070  27.643   6.170
 3550POPC   D2A47524  17.156  27.808   6.629
 3550POPC   C3A47525  16.999  27.496   6.916
 3550POPC   C4A47526  16.714  27.266   7.155
 3550POPC   C1B47527  16.568  27.384   6.257
 3550POPC   C2B47528  16.593  27.651   6.619
 3550POPC   C3B47529  16.521  27.743   7.056
 3550POPC   C4B47530  16.727  27.771   7.442
 3551POPC   NC347531  35.326  42.393   5.345
 3551POPC   PO447532  34.711  42.600   5.509
 3551POPC   GL147533  35.128  42.639   5.770
 3551POPC   GL247534  35.341  42.313   5.833
 3551POPC   C1A47535  35.431  42.700   6.142
 3551POPC   D2A47536  35.473  42.484   6.535
 3551POPC   C3A47537  35.312  42.579   6.932
 3551POPC   C4A47538  35.401  42.385   7.358
 3551POPC   C1B47539  35.421  42.092   6.214
 3551POPC   C2B47540  35.341  41.951   6.646
 3551POPC   C3B47541  35.456  41.956   7.101
 3551POPC   C4B47542  35.302  41.907   7.556
 3552POPC   NC347543  23.421  42.222   5.591
 3552POPC   PO447544  24.059  42.466   5.350
 3552POPC   GL147545  23.896  42.446   5.767
 3552POPC   GL247546  23.681  42.712   5.840
 3552POPC   C1A47547  23.729  42.309   6.174
 3552POPC   D2A47548  23.452  42.350   6.540
 3552POPC   C3A47549  23.622  42.216   6.931
 3552POPC   C4A47550  23.691  42.289   7.375
 3552POPC   C1B47551  23.985  42.751   6.209
 3552POPC   C2B47552  23.944  42.546   6.628
 3552POPC   C3B47553  23.873  42.666   7.070
 3552POPC   C4B47554  24.142  42.524   7.413
 3553POPC   NC347555  32.673  35.084   5.190
 3553POPC   PO447556  33.154  35.544   5.451
 3553POPC   GL147557  33.189  35.174   5.670
 3553POPC   GL247558  33.029  35.357   5.982
 3553POPC   C1A47559  33.364  34.995   6.050
 3553POPC   D2A47560  33.107  35.010   6.434
 3553POPC   C3A47561  32.889  35.296   6.690
 3553POPC   C4A47562  33.087  35.418   7.083
 3553POPC   C1B47563  32.693  35.558   6.246
 3553POPC   C2B47564  32.404  35.459   6.580
 3553POPC   C3B47565  32.570  35.579   6.995
 3553POPC   C4B47566  32.721  35.548   7.416
 3554POPC   NC347567  28.778   2.102   5.508
 3554POPC   PO447568  28.403   1.613   5.202
 3554POPC   GL147569  28.460   1.705   5.691
 3554POPC   GL247570  28.120   1.753   5.863
 3554POPC   C1A47571  28.545   1.802   6.151
 3554POPC   D2A47572  28.391   1.584   6.554
 3554POPC   C3A47573  28.360   1.831   6.963
 3554POPC   C4A47574  28.655   2.149   7.132
 3554POPC   C1B47575  28.030   2.114   6.152
 3554POPC   C2B47576  27.957   2.005   6.578
 3554POPC   C3B47577  28.035   2.238   6.945
 3554POPC   C4B47578  27.944   2.075   7.320
 3555POPC   NC347579  34.615  31.119   5.449
 3555POPC   PO447580  34.752  31.836   5.497
 3555POPC   GL147581  34.705  31.507   5.804
 3555POPC   GL247582  34.906  31.221   5.854
 3555POPC   C1A47583  34.644  31.521   6.256
 3555POPC   D2A47584  34.853  31.542   6.667
 3555POPC   C3A47585  34.524  31.698   6.941
 3555POPC   C4A47586  34.250  31.616   7.302
 3555POPC   C1B47587  35.088  31.259   6.266
 3555POPC   C2B47588  35.162  31.083   6.692
 3555POPC   C3B47589  34.919  30.967   7.068
 3555POPC   C4B47590  34.613  31.243   7.237
 3556POPC   NC347591  40.202  23.894   5.325
 3556POPC   PO447592  39.704  23.444   5.349
 3556POPC   GL147593  39.911  23.692   5.701
 3556POPC   GL247594  40.272  23.574   5.736
 3556POPC   C1A47595  39.950  23.799   6.159
 3556POPC   D2A47596  39.937  24.032   6.572
 3556POPC   C3A47597  40.032  23.853   6.990
 3556POPC   C4A47598  39.783  23.740   7.355
 3556POPC   C1B47599  40.249  23.356   6.148
 3556POPC   C2B47600  40.173  23.392   6.605
 3556POPC   C3B47601  40.374  23.474   7.014
 3556POPC   C4B47602  40.309  23.693   7.418
 3557POPC   NC347603  10.343   5.308   5.467
 3557POPC   PO447604  10.536   4.674   5.291
 3557POPC   GL147605  10.578   4.906   5.734
 3557POPC   GL247606  10.766   5.207   5.803
 3557POPC   C1A47607  10.429   4.883   6.177
 3557POPC   D2A47608  10.238   5.144   6.509
 3557POPC   C3A47609  10.204   5.185   6.948
 3557POPC   C4A47610  10.398   5.044   7.306
 3557POPC   C1B47611  10.750   5.255   6.243
 3557POPC   C2B47612  10.718   5.007   6.631
 3557POPC   C3B47613  10.795   5.200   7.011
 3557POPC   C4B47614  10.567   5.548   7.193
 3558POPC   NC347615   3.267  27.717   5.384
 3558POPC   PO447616   2.707  28.113   5.482
 3558POPC   GL147617   3.095  27.966   5.839
 3558POPC   GL247618   3.426  27.741   5.860
 3558POPC   C1A47619   3.266  27.828   6.313
 3558POPC   D2A47620   3.681  27.916   6.498
 3558POPC   C3A47621   3.706  27.887   6.956
 3558POPC   C4A47622   3.473  27.731   7.304
 3558POPC   C1B47623   3.707  27.528   6.175
 3558POPC   C2B47624   3.678  27.417   6.636
 3558POPC   C3B47625   3.775  27.360   7.087
 3558POPC   C4B47626   3.866  27.468   7.538
 3559POPC   NC347627  27.409  43.606   5.075
 3559POPC   PO447628  27.793  43.170   5.498
 3559POPC   GL147629  27.564  43.034   5.816
 3559POPC   GL247630  27.286  42.843   5.671
 3559POPC   C1A47631  27.503  43.250   6.217
 3559POPC   D2A47632  27.760  43.248   6.583
 3559POPC   C3A47633  27.728  43.456   6.960
 3559POPC   C4A47634  27.614  43.269   7.310
 3559POPC   C1B47635  27.217  42.818   6.118
 3559POPC   C2B47636  27.159  42.996   6.533
 3559POPC   C3B47637  27.274  43.213   6.901
 3559POPC   C4B47638  27.158  43.050   7.281
 3560POPC   NC347639  14.977  12.616   5.385
 3560POPC   PO447640  15.507  13.020   5.299
 3560POPC   GL147641  15.329  12.837   5.704
 3560POPC   GL247642  15.173  12.525   5.877
 3560POPC   C1A47643  15.255  12.938   6.156
 3560POPC   D2A47644  15.456  12.810   6.531
 3560POPC   C3A47645  15.372  13.004   6.928
 3560POPC   C4A47646  15.206  12.692   7.179
 3560POPC   C1B47647  15.063  12.444   6.348
 3560POPC   C2B47648  14.936  12.359   6.804
 3560POPC   C3B47649  14.744  12.533   7.218
 3560POPC   C4B47650  14.506  12.598   7.623
 3561POPC   NC347651  27.962   4.678   5.270
 3561POPC   PO447652  28.478   5.139   5.356
 3561POPC   GL147653  28.442   5.112   5.800
 3561POPC   GL247654  28.160   4.845   5.769
 3561POPC   C1A47655  28.657   5.124   6.239
 3561POPC   D2A47656  28.618   5.114   6.716
 3561POPC   C3A47657  28.806   5.365   7.051
 3561POPC   C4A47658  28.503   5.143   7.273
 3561POPC   C1B47659  28.155   4.996   6.210
 3561POPC   C2B47660  28.042   5.145   6.623
 3561POPC   C3B47661  28.163   4.897   6.981
 3561POPC   C4B47662  28.077   4.909   7.433
 3562POPC   NC347663  11.710  16.129   5.084
 3562POPC   PO447664  12.107  15.744   5.403
 3562POPC   GL147665  12.229  15.863   5.836
 3562POPC   GL247666  12.169  16.221   5.816
 3562POPC   C1A47667  12.033  15.917   6.251
 3562POPC   D2A47668  12.128  16.041   6.677
 3562POPC   C3A47669  11.995  15.824   7.038
 3562POPC   C4A47670  11.686  16.127   7.122
 3562POPC   C1B47671  12.455  16.215   6.171
 3562POPC   C2B47672  12.565  16.281   6.611
 3562POPC   C3B47673  12.544  15.987   6.986
 3562POPC   C4B47674  12.417  15.838   7.406
 3563POPC   NC347675   1.701  37.452   5.102
 3563POPC   PO447676   2.228  37.801   5.303
 3563POPC   GL147677   2.060  37.788   5.747
 3563POPC   GL247678   1.984  37.473   5.764
 3563POPC   C1A47679   1.813  37.702   6.192
 3563POPC   D2A47680   1.907  37.751   6.636
 3563POPC   C3A47681   1.818  37.588   7.072
 3563POPC   C4A47682   1.941  37.594   7.542
 3563POPC   C1B47683   2.292  37.535   6.114
 3563POPC   C2B47684   2.363  37.524   6.516
 3563POPC   C3B47685   2.312  37.613   6.933
 3563POPC   C4B47686   2.386  37.398   7.310
 3564POPC   NC347687  33.860   7.766   5.353
 3564POPC   PO447688  34.003   7.052   5.549
 3564POPC   GL147689  33.931   7.429   5.727
 3564POPC   GL247690  33.672   7.351   5.910
 3564POPC   C1A47691  34.005   7.611   6.167
 3564POPC   D2A47692  33.756   7.568   6.542
 3564POPC   C3A47693  33.939   7.472   6.914
 3564POPC   C4A47694  33.931   7.180   7.248
 3564POPC   C1B47695  33.357   7.300   6.230
 3564POPC   C2B47696  33.244   7.461   6.606
 3564POPC   C3B47697  33.437   7.456   7.002
 3564POPC   C4B47698  33.480   7.298   7.420
 3565POPC   NC347699  19.995  20.886   5.606
 3565POPC   PO447700  19.772  20.169   5.643
 3565POPC   GL147701  19.960  20.458   5.897
 3565POPC   GL247702  19.658  20.699   5.935
 3565POPC   C1A47703  20.005  20.590   6.308
 3565POPC   D2A47704  19.607  20.561   6.556
 3565POPC   C3A47705  19.708  20.646   6.958
 3565POPC   C4A47706  20.000  20.398   7.199
 3565POPC   C1B47707  19.675  20.982   6.293
 3565POPC   C2B47708  20.008  20.970   6.660
 3565POPC   C3B47709  20.040  20.999   7.124
 3565POPC   C4B47710  19.602  21.162   7.130
 3566POPC   NC347711  38.235  44.359   5.481
 3566POPC   PO447712  38.747  44.587   5.241
 3566POPC   GL147713  38.602  44.653   5.676
 3566POPC   GL247714  38.510  44.977   5.679
 3566POPC   C1A47715  38.486  44.540   6.133
 3566POPC   D2A47716  38.203  44.623   6.507
 3566POPC   C3A47717  38.268  44.476   6.927
 3566POPC   C4A47718  38.548  44.287   7.178
 3566POPC   C1B47719  38.820  44.949   6.033
 3566POPC   C2B47720  38.840  44.901   6.467
 3566POPC   C3B47721  38.540  44.908   6.800
 3566POPC   C4B47722  38.426  44.897   7.227
 3567POPC   NC347723  23.456  22.561   5.367
 3567POPC   PO447724  23.784  23.091   5.147
 3567POPC   GL147725  23.679  23.012   5.638
 3567POPC   GL247726  23.431  22.771   5.826
 3567POPC   C1A47727  23.836  23.084   6.077
 3567POPC   D2A47728  23.990  23.137   6.522
 3567POPC   C3A47729  23.789  22.829   6.796
 3567POPC   C4A47730  23.927  22.621   7.169
 3567POPC   C1B47731  23.318  23.139   6.061
 3567POPC   C2B47732  23.466  23.131   6.464
 3567POPC   C3B47733  23.274  23.018   6.822
 3567POPC   C4B47734  23.438  22.892   7.197
 3568POPC   NC347735  37.668  44.671   5.312
 3568POPC   PO447736  37.867  44.108   5.542
 3568POPC   GL147737  37.783  44.487   5.783
 3568POPC   GL247738  38.081  44.705   5.818
 3568POPC   C1A47739  37.779  44.601   6.225
 3568POPC   D2A47740  37.647  44.419   6.628
 3568POPC   C3A47741  37.761  44.437   7.049
 3568POPC   C4A47742  37.552  44.771   7.228
 3568POPC   C1B47743  38.244  45.000   6.127
 3568POPC   C2B47744  38.140   0.134   6.553
 3568POPC   C3B47745  37.984  44.914   6.917
 3568POPC   C4B47746  37.937   0.076   7.332
 3569POPC   NC347747  34.391  38.559   5.045
 3569POPC   PO447748  34.924  38.873   5.484
 3569POPC   GL147749  34.752  38.459   5.742
 3569POPC   GL247750  34.417  38.328   5.772
 3569POPC   C1A47751  34.772  38.244   6.168
 3569POPC   D2A47752  34.617  38.440   6.569
 3569POPC   C3A47753  34.900  38.530   6.902
 3569POPC   C4A47754  34.935  38.779   7.269
 3569POPC   C1B47755  34.248  38.276   6.200
 3569POPC   C2B47756  34.206  38.177   6.681
 3569POPC   C3B47757  34.345  38.427   7.046
 3569POPC   C4B47758  34.479  38.591   7.471
 3570POPC   NC347759  38.443  35.825   5.315
 3570POPC   PO447760  38.767  36.408   5.446
 3570POPC   GL147761  38.528  36.136   5.767
 3570POPC   GL247762  38.410  35.809   5.825
 3570POPC   C1A47763  38.253  36.193   6.152
 3570POPC   D2A47764  38.312  36.399   6.563
 3570POPC   C3A47765  38.427  36.321   6.997
 3570POPC   C4A47766  38.638  36.282   7.384
 3570POPC   C1B47767  38.620  35.854   6.246
 3570POPC   C2B47768  38.432  35.862   6.683
 3570POPC   C3B47769  38.644  35.849   7.094
 3570POPC   C4B47770  38.816  35.830   7.539
 3571POPC   NC347771  32.539  31.824   5.379
 3571POPC   PO447772  32.033  31.359   5.542
 3571POPC   GL147773  32.169  31.733   5.758
 3571POPC   GL247774  32.458  31.589   5.819
 3571POPC   C1A47775  32.264  31.858   6.200
 3571POPC   D2A47776  32.517  31.800   6.578
 3571POPC   C3A47777  32.289  31.612   6.918
 3571POPC   C4A47778  32.232  31.722   7.329
 3571POPC   C1B47779  32.348  31.326   6.152
 3571POPC   C2B47780  32.226  31.187   6.540
 3571POPC   C3B47781  32.445  31.127   6.899
 3571POPC   C4B47782  32.203  31.197   7.280
 3572POPC   NC347783  32.236  15.730   5.424
 3572POPC   PO447784  31.766  15.352   5.478
 3572POPC   GL147785  31.974  15.518   5.856
 3572POPC   GL247786  32.344  15.534   5.885
 3572POPC   C1A47787  32.037  15.371   6.295
 3572POPC   D2A47788  32.209  15.043   6.571
 3572POPC   C3A47789  32.170  15.142   7.021
 3572POPC   C4A47790  32.033  15.474   7.300
 3572POPC   C1B47791  32.529  15.497   6.306
 3572POPC   C2B47792  32.380  15.503   6.709
 3572POPC   C3B47793  32.528  15.500   7.098
 3572POPC   C4B47794  32.681  15.100   7.258
 3573POPC   NC347795   3.310   7.383   5.050
 3573POPC   PO447796   2.753   7.503   5.370
 3573POPC   GL147797   2.540   7.302   5.730
 3573POPC   GL247798   2.832   7.457   5.869
 3573POPC   C1A47799   2.534   7.265   6.211
 3573POPC   D2A47800   2.621   7.525   6.563
 3573POPC   C3A47801   2.507   7.354   6.986
 3573POPC   C4A47802   2.548   7.073   7.356
 3573POPC   C1B47803   3.050   7.401   6.223
 3573POPC   C2B47804   3.130   7.582   6.566
 3573POPC   C3B47805   2.976   7.603   6.942
 3573POPC   C4B47806   2.948   7.438   7.315
 3574POPC   NC347807   6.862  13.162   5.440
 3574POPC   PO447808   6.322  12.771   5.477
 3574POPC   GL147809   6.549  12.929   5.810
 3574POPC   GL247810   6.268  13.133   5.836
 3574POPC   C1A47811   6.784  12.839   6.220
 3574POPC   D2A47812   6.788  12.715   6.684
 3574POPC   C3A47813   6.954  13.008   7.024
 3574POPC   C4A47814   7.065  13.158   7.472
 3574POPC   C1B47815   6.232  12.916   6.218
 3574POPC   C2B47816   6.184  12.826   6.644
 3574POPC   C3B47817   6.446  13.028   6.940
 3574POPC   C4B47818   6.568  12.919   7.355
 3575POPC   NC347819  40.331   2.220   5.444
 3575POPC   PO447820  39.804   1.754   5.248
 3575POPC   GL147821  40.006   1.976   5.698
 3575POPC   GL247822  40.194   1.686   5.782
 3575POPC   C1A47823  40.036   1.984   6.202
 3575POPC   D2A47824  39.907   2.211   6.606
 3575POPC   C3A47825  39.937   1.981   7.012
 3575POPC   C4A47826  40.311   2.033   7.240
 3575POPC   C1B47827  40.258   1.494   6.199
 3575POPC   C2B47828  40.375   1.549   6.651
 3575POPC   C3B47829  40.198   1.493   7.072
 3575POPC   C4B47830  40.001   1.636   7.465
 3576POPC   NC347831   8.678   5.095   5.380
 3576POPC   PO447832   9.285   5.465   5.412
 3576POPC   GL147833   8.985   5.336   5.838
 3576POPC   GL247834   8.782   5.010   5.867
 3576POPC   C1A47835   8.872   5.215   6.334
 3576POPC   D2A47836   9.202   5.257   6.664
 3576POPC   C3A47837   9.183   5.224   7.101
 3576POPC   C4A47838   8.886   5.138   7.444
 3576POPC   C1B47839   9.162   4.879   6.092
 3576POPC   C2B47840   9.169   4.743   6.502
 3576POPC   C3B47841   8.938   4.828   6.839
 3576POPC   C4B47842   9.064   4.743   7.228
 3577POPC   NC347843  44.355  37.037   5.445
 3577POPC   PO447844  44.818  36.620   5.197
 3577POPC   GL147845  44.890  36.658   5.714
 3577POPC   GL247846  44.695  36.968   5.799
 3577POPC   C1A47847  44.981  36.872   6.171
 3577POPC   D2A47848  44.798  37.155   6.474
 3577POPC   C3A47849  44.859  37.038   6.874
 3577POPC   C4A47850   0.083  36.794   7.151
 3577POPC   C1B47851  44.445  37.209   6.109
 3577POPC   C2B47852  44.270  37.105   6.539
 3577POPC   C3B47853  44.349  37.178   6.994
 3577POPC   C4B47854  44.610  36.974   7.310
 3578POPC   NC347855   4.927  37.112   5.478
 3578POPC   PO447856   5.380  36.585   5.439
 3578POPC   GL147857   5.187  36.772   5.817
 3578POPC   GL247858   4.838  36.908   5.930
 3578POPC   C1A47859   5.272  36.713   6.281
 3578POPC   D2A47860   5.186  36.825   6.722
 3578POPC   C3A47861   5.421  36.678   7.103
 3578POPC   C4A47862   5.317  36.867   7.530
 3578POPC   C1B47863   4.573  37.240   6.204
 3578POPC   C2B47864   4.486  37.138   6.622
 3578POPC   C3B47865   4.776  37.131   6.940
 3578POPC   C4B47866   4.941  36.787   7.164
 3579POPC   NC347867  13.196  15.661   5.296
 3579POPC   PO447868  13.798  15.767   5.431
 3579POPC   GL147869  13.509  15.824   5.774
 3579POPC   GL247870  13.301  15.538   5.833
 3579POPC   C1A47871  13.647  16.051   6.162
 3579POPC   D2A47872  13.865  16.014   6.558
 3579POPC   C3A47873  13.581  16.062   6.919
 3579POPC   C4A47874  13.360  16.208   7.324
 3579POPC   C1B47875  13.680  15.516   6.137
 3579POPC   C2B47876  13.861  15.475   6.577
 3579POPC   C3B47877  13.869  15.641   7.003
 3579POPC   C4B47878  13.476  15.703   7.256
 3580POPC   NC347879   1.983  14.423   5.316
 3580POPC   PO447880   1.878  15.041   5.332
 3580POPC   GL147881   1.969  14.731   5.733
 3580POPC   GL247882   2.069  14.346   5.800
 3580POPC   C1A47883   1.970  14.674   6.213
 3580POPC   D2A47884   2.081  14.860   6.635
 3580POPC   C3A47885   1.944  14.596   6.998
 3580POPC   C4A47886   1.619  14.281   7.140
 3580POPC   C1B47887   2.172  14.019   6.097
 3580POPC   C2B47888   2.291  14.157   6.500
 3580POPC   C3B47889   2.192  14.118   6.909
 3580POPC   C4B47890   2.259  14.247   7.300
 3581POPC   NC347891  33.801  44.083   5.437
 3581POPC   PO447892  33.237  44.364   5.398
 3581POPC   GL147893  33.554  44.461   5.746
 3581POPC   GL247894  33.915  44.404   5.821
 3581POPC   C1A47895  33.584  44.500   6.213
 3581POPC   D2A47896  33.820  44.459   6.589
 3581POPC   C3A47897  33.675  44.609   6.997
 3581POPC   C4A47898  33.933  44.849   7.264
 3581POPC   C1B47899  34.088  44.258   6.199
 3581POPC   C2B47900  34.239  44.135   6.616
 3581POPC   C3B47901  34.171  44.396   6.983
 3581POPC   C4B47902  33.882  44.254   7.301
 3582POPC   NC347903  30.438   1.504   5.332
 3582POPC   PO447904  30.244   0.913   5.287
 3582POPC   GL147905  30.462   1.076   5.657
 3582POPC   GL247906  30.848   1.110   5.674
 3582POPC   C1A47907  30.584   1.141   6.104
 3582POPC   D2A47908  30.669   0.932   6.491
 3582POPC   C3A47909  30.640   1.162   6.883
 3582POPC   C4A47910  30.607   1.595   7.059
 3582POPC   C1B47911  31.071   1.005   6.123
 3582POPC   C2B47912  31.151   1.084   6.617
 3582POPC   C3B47913  31.110   1.345   7.038
 3582POPC   C4B47914  30.976   1.558   7.433
 3583POPC   NC347915  28.390  10.533   5.568
 3583POPC   PO447916  29.070  10.443   5.448
 3583POPC   GL147917  29.124  10.129   5.776
 3583POPC   GL247918  28.787  10.179   5.824
 3583POPC   C1A47919  29.307  10.080   6.199
 3583POPC   D2A47920  29.326  10.287   6.633
 3583POPC   C3A47921  29.027  10.189   6.971
 3583POPC   C4A47922  28.831  10.247   7.385
 3583POPC   C1B47923  28.880  10.354   6.235
 3583POPC   C2B47924  28.905  10.593   6.635
 3583POPC   C3B47925  28.888  10.683   7.087
 3583POPC   C4B47926  28.764  10.746   7.538
 3584POPC   NC347927  24.716  35.020   5.484
 3584POPC   PO447928  24.162  35.390   5.406
 3584POPC   GL147929  24.441  35.381   5.785
 3584POPC   GL247930  24.746  35.208   5.950
 3584POPC   C1A47931  24.361  35.387   6.231
 3584POPC   D2A47932  24.613  35.349   6.585
 3584POPC   C3A47933  24.367  35.317   6.968
 3584POPC   C4A47934  24.319  35.182   7.412
 3584POPC   C1B47935  24.769  35.649   6.127
 3584POPC   C2B47936  24.716  35.854   6.533
 3584POPC   C3B47937  24.690  35.753   6.941
 3584POPC   C4B47938  24.685  35.506   7.305
 3585POPC   NC347939  16.294  26.238   5.518
 3585POPC   PO447940  15.923  25.782   5.188
 3585POPC   GL147941  15.909  25.916   5.675
 3585POPC   GL247942  15.832  26.272   5.791
 3585POPC   C1A47943  16.088  25.968   6.151
 3585POPC   D2A47944  16.202  25.812   6.604
 3585POPC   C3A47945  16.073  25.923   7.039
 3585POPC   C4A47946  15.743  25.866   7.359
 3585POPC   C1B47947  15.832  26.423   6.232
 3585POPC   C2B47948  15.919  26.291   6.650
 3585POPC   C3B47949  15.715  26.296   7.037
 3585POPC   C4B47950  15.892  26.318   7.474
 3586POPC   NC347951  18.044  19.264   5.447
 3586POPC   PO447952  18.649  18.961   5.371
 3586POPC   GL147953  18.416  18.975   5.781
 3586POPC   GL247954  18.321  19.261   5.864
 3586POPC   C1A47955  18.301  18.890   6.221
 3586POPC   D2A47956  18.139  18.810   6.634
 3586POPC   C3A47957  17.872  19.069   6.869
 3586POPC   C4A47958  18.025  19.019   7.257
 3586POPC   C1B47959  18.305  19.410   6.258
 3586POPC   C2B47960  18.335  19.259   6.663
 3586POPC   C3B47961  18.252  19.421   7.063
 3586POPC   C4B47962  18.302  19.614   7.474
 3587POPC   NC347963  44.731  32.177   5.464
 3587POPC   PO447964  44.236  31.735   5.555
 3587POPC   GL147965  44.381  32.094   5.869
 3587POPC   GL247966  44.691  32.343   5.950
 3587POPC   C1A47967  44.447  32.139   6.340
 3587POPC   D2A47968  44.504  31.905   6.739
 3587POPC   C3A47969  44.610  32.129   7.131
 3587POPC   C4A47970  44.453  32.523   7.275
 3587POPC   C1B47971  44.930  32.299   6.389
 3587POPC   C2B47972   0.009  32.016   6.769
 3587POPC   C3B47973   0.114  32.034   7.219
 3587POPC   C4B47974   0.320  32.379   7.441
 3588POPC   NC347975  14.267  35.615   5.240
 3588POPC   PO447976  14.755  35.798   5.610
 3588POPC   GL147977  14.447  35.524   5.828
 3588POPC   GL247978  14.133  35.440   5.787
 3588POPC   C1A47979  14.382  35.171   6.171
 3588POPC   D2A47980  14.624  35.092   6.583
 3588POPC   C3A47981  14.402  35.122   6.969
 3588POPC   C4A47982  14.037  35.350   7.049
 3588POPC   C1B47983  14.190  35.638   6.227
 3588POPC   C2B47984  14.290  35.504   6.598
 3588POPC   C3B47985  14.602  35.593   6.838
 3588POPC   C4B47986  14.547  35.522   7.249
 3589POPC   NC347987  38.981  20.048   5.354
 3589POPC   PO447988  39.318  19.395   5.339
 3589POPC   GL147989  39.344  19.627   5.760
 3589POPC   GL247990  39.082  19.889   5.825
 3589POPC   C1A47991  39.197  19.554   6.205
 3589POPC   D2A47992  39.053  19.705   6.589
 3589POPC   C3A47993  39.201  19.524   6.940
 3589POPC   C4A47994  39.389  19.847   7.140
 3589POPC   C1B47995  38.907  20.054   6.217
 3589POPC   C2B47996  38.714  20.079   6.634
 3589POPC   C3B47997  38.839  19.910   7.027
 3589POPC   C4B47998  38.880  20.223   7.290
 3590POPC   NC347999  33.398  33.832   5.345
 3590POPC   PO448000  32.722  33.935   5.492
 3590POPC   GL148001  33.068  33.704   5.796
 3590POPC   GL248002  33.113  33.315   5.833
 3590POPC   C1A48003  33.150  33.695   6.291
 3590POPC   D2A48004  33.212  33.825   6.754
 3590POPC   C3A48005  32.858  33.841   7.073
 3590POPC   C4A48006  32.794  33.682   7.506
 3590POPC   C1B48007  32.889  33.250   6.255
 3590POPC   C2B48008  32.912  33.324   6.741
 3590POPC   C3B48009  33.139  33.412   7.180
 3590POPC   C4B48010  33.011  33.221   7.611
 3591POPC   NC348011  22.532  10.351   5.626
 3591POPC   PO448012  21.972   9.767   5.319
 3591POPC   GL148013  21.843   9.831   5.731
 3591POPC   GL248014  22.182   9.983   5.872
 3591POPC   C1A48015  21.681   9.720   6.147
 3591POPC   D2A48016  21.898   9.834   6.525
 3591POPC   C3A48017  22.102   9.582   6.840
 3591POPC   C4A48018  21.960   9.582   7.263
 3591POPC   C1B48019  22.521   9.993   6.253
 3591POPC   C2B48020  22.612   9.852   6.711
 3591POPC   C3B48021  22.369   9.948   7.102
 3591POPC   C4B48022  22.364  10.293   7.355
 3592POPC   NC348023  31.623  43.634   5.606
 3592POPC   PO448024  31.452  42.885   5.484
 3592POPC   GL148025  31.523  42.979   5.863
 3592POPC   GL248026  31.358  43.254   5.833
 3592POPC   C1A48027  31.435  42.802   6.255
 3592POPC   D2A48028  31.434  43.074   6.588
 3592POPC   C3A48029  31.539  42.907   6.970
 3592POPC   C4A48030  31.307  42.871   7.329
 3592POPC   C1B48031  31.520  43.425   6.203
 3592POPC   C2B48032  31.738  43.467   6.584
 3592POPC   C3B48033  31.569  43.508   6.972
 3592POPC   C4B48034  31.455  43.343   7.334
 3593POPC   NC348035  17.792  35.858   5.357
 3593POPC   PO448036  17.150  36.224   5.475
 3593POPC   GL148037  17.378  36.256   5.835
 3593POPC   GL248038  17.619  35.973   5.832
 3593POPC   C1A48039  17.175  36.367   6.217
 3593POPC   D2A48040  16.965  36.331   6.618
 3593POPC   C3A48041  17.098  35.986   6.876
 3593POPC   C4A48042  17.352  36.058   7.233
 3593POPC   C1B48043  17.554  35.879   6.273
 3593POPC   C2B48044  17.617  35.936   6.728
 3593POPC   C3B48045  17.869  36.002   7.100
 3593POPC   C4B48046  17.773  36.044   7.531
 3594POPC   NC348047  24.121  39.448   5.203
 3594POPC   PO448048  23.617  39.696   5.589
 3594POPC   GL148049  23.554  39.309   5.781
 3594POPC   GL248050  23.878  39.237   5.779
 3594POPC   C1A48051  23.400  39.180   6.168
 3594POPC   D2A48052  23.646  39.264   6.525
 3594POPC   C3A48053  23.574  39.070   6.896
 3594POPC   C4A48054  23.696  39.122   7.313
 3594POPC   C1B48055  23.864  38.941   6.129
 3594POPC   C2B48056  23.975  38.804   6.541
 3594POPC   C3B48057  24.043  38.884   6.975
 3594POPC   C4B48058  24.146  38.892   7.408
 3595POPC   NC348059  43.172  39.688   5.544
 3595POPC   PO448060  42.826  40.229   5.481
 3595POPC   GL148061  42.994  40.126   5.868
 3595POPC   GL248062  42.866  39.812   5.932
 3595POPC   C1A48063  43.251  40.169   6.234
 3595POPC   D2A48064  43.454  40.066   6.621
 3595POPC   C3A48065  43.330  40.330   6.917
 3595POPC   C4A48066  43.069  40.254   7.268
 3595POPC   C1B48067  42.726  39.598   6.307
 3595POPC   C2B48068  42.745  39.695   6.732
 3595POPC   C3B48069  43.052  39.895   6.903
 3595POPC   C4B48070  43.361  39.857   7.192
 3596POPC   NC348071  23.301  34.647   5.076
 3596POPC   PO448072  22.619  34.752   5.445
 3596POPC   GL148073  22.560  34.530   5.852
 3596POPC   GL248074  22.882  34.430   5.927
 3596POPC   C1A48075  22.553  34.417   6.313
 3596POPC   D2A48076  22.903  34.441   6.622
 3596POPC   C3A48077  22.757  34.321   7.049
 3596POPC   C4A48078  22.615  34.569   7.415
 3596POPC   C1B48079  23.262  34.383   6.139
 3596POPC   C2B48080  23.422  34.567   6.513
 3596POPC   C3B48081  23.259  34.754   6.885
 3596POPC   C4B48082  23.124  34.588   7.261
 3597POPC   NC348083  36.305  27.001   5.426
 3597POPC   PO448084  36.124  26.372   5.517
 3597POPC   GL148085  36.158  26.716   5.820
 3597POPC   GL248086  35.920  27.041   5.760
 3597POPC   C1A48087  36.402  26.764   6.204
 3597POPC   D2A48088  36.426  27.003   6.612
 3597POPC   C3A48089  36.258  26.831   7.027
 3597POPC   C4A48090  36.441  26.536   7.323
 3597POPC   C1B48091  35.950  26.985   6.215
 3597POPC   C2B48092  36.004  26.688   6.567
 3597POPC   C3B48093  35.758  26.727   6.938
 3597POPC   C4B48094  35.825  27.062   7.230
 3598POPC   NC348095   0.149  19.440   5.556
 3598POPC   PO448096   0.484  18.848   5.311
 3598POPC   GL148097   0.432  18.781   5.773
 3598POPC   GL248098   0.441  19.119   5.909
 3598POPC   C1A48099   0.303  18.688   6.227
 3598POPC   D2A48100   0.279  18.936   6.621
 3598POPC   C3A48101   0.302  18.739   7.024
 3598POPC   C4A48102   0.412  18.891   7.413
 3598POPC   C1B48103   0.507  19.303   6.326
 3598POPC   C2B48104   0.581  19.450   6.765
 3598POPC   C3B48105   0.629  19.328   7.198
 3598POPC   C4B48106   0.576  19.284   7.674
 3599POPC   NC348107  29.493   5.688   5.534
 3599POPC   PO448108  28.935   6.082   5.405
 3599POPC   GL148109  29.026   5.801   5.794
 3599POPC   GL248110  28.775   5.535   5.926
 3599POPC   C1A48111  29.293   5.725   6.191
 3599POPC   D2A48112  29.519   5.586   6.585
 3599POPC   C3A48113  29.261   5.736   6.958
 3599POPC   C4A48114  29.301   6.104   7.213
 3599POPC   C1B48115  28.786   5.884   6.229
 3599POPC   C2B48116  28.941   5.996   6.626
 3599POPC   C3B48117  28.799   5.930   7.030
 3599POPC   C4B48118  28.964   5.771   7.401
 3600POPC   NC348119  15.304   4.642   5.536
 3600POPC   PO448120  14.908   4.162   5.405
 3600POPC   GL148121  15.062   4.252   5.845
 3600POPC   GL248122  15.408   4.130   5.916
 3600POPC   C1A48123  15.059   4.134   6.296
 3600POPC   D2A48124  15.040   4.324   6.721
 3600POPC   C3A48125  15.156   4.179   7.131
 3600POPC   C4A48126  14.934   4.038   7.492
 3600POPC   C1B48127  15.431   4.500   6.206
 3600POPC   C2B48128  15.457   4.615   6.651
 3600POPC   C3B48129  15.536   4.568   7.103
 3600POPC   C4B48130  15.353   4.463   7.532
 3601POPC   NC348131   5.174  36.182   5.363
 3601POPC   PO448132   4.626  35.766   5.691
 3601POPC   GL148133   4.945  35.971   5.921
 3601POPC   GL248134   5.286  36.030   5.866
 3601POPC   C1A48135   4.942  36.409   6.053
 3601POPC   D2A48136   4.816  36.527   6.502
 3601POPC   C3A48137   5.051  36.344   6.871
 3601POPC   C4A48138   5.078  36.310   7.331
 3601POPC   C1B48139   5.163  36.094   6.371
 3601POPC   C2B48140   4.890  35.874   6.682
 3601POPC   C3B48141   4.937  35.627   7.069
 3601POPC   C4B48142   4.975  35.775   7.534
 3602POPC   NC348143  40.529   7.945   5.409
 3602POPC   PO448144  40.871   8.535   5.536
 3602POPC   GL148145  40.814   8.206   5.823
 3602POPC   GL248146  40.453   8.236   5.846
 3602POPC   C1A48147  41.026   8.280   6.235
 3602POPC   D2A48148  40.862   8.396   6.651
 3602POPC   C3A48149  41.212   8.408   6.954
 3602POPC   C4A48150  41.256   8.500   7.393
 3602POPC   C1B48151  40.575   8.075   6.263
 3602POPC   C2B48152  40.718   7.879   6.630
 3602POPC   C3B48153  40.842   8.023   7.012
 3602POPC   C4B48154  40.645   7.805   7.280
 3603POPC   NC348155  42.019  17.691   5.137
 3603POPC   PO448156  42.668  17.537   5.337
 3603POPC   GL148157  42.515  17.461   5.778
 3603POPC   GL248158  42.331  17.756   5.890
 3603POPC   C1A48159  42.413  17.414   6.241
 3603POPC   D2A48160  42.295  17.609   6.637
 3603POPC   C3A48161  42.064  17.312   6.940
 3603POPC   C4A48162  42.207  17.093   7.347
 3603POPC   C1B48163  42.647  17.881   6.271
 3603POPC   C2B48164  42.748  17.892   6.731
 3603POPC   C3B48165  42.546  17.672   7.078
 3603POPC   C4B48166  42.096  17.751   7.213
 3604POPC   NC348167  18.924  33.014   5.349
 3604POPC   PO448168  19.504  33.002   5.242
 3604POPC   GL148169  19.348  32.999   5.699
 3604POPC   GL248170  19.214  33.293   5.831
 3604POPC   C1A48171  19.236  32.828   6.134
 3604POPC   D2A48172  19.225  33.043   6.536
 3604POPC   C3A48173  19.168  32.869   6.953
 3604POPC   C4A48174  19.436  32.961   7.300
 3604POPC   C1B48175  19.013  33.398   6.213
 3604POPC   C2B48176  19.068  33.508   6.661
 3604POPC   C3B48177  18.978  33.369   7.096
 3604POPC   C4B48178  18.742  33.429   7.491
 3605POPC   NC348179  15.429  16.445   5.410
 3605POPC   PO448180  15.033  16.972   5.534
 3605POPC   GL148181  14.981  16.788   5.899
 3605POPC   GL248182  15.093  16.450   5.799
 3605POPC   C1A48183  15.028  16.939   6.332
 3605POPC   D2A48184  14.995  16.887   6.784
 3605POPC   C3A48185  15.249  17.035   7.109
 3605POPC   C4A48186  15.344  16.754   7.474
 3605POPC   C1B48187  14.989  16.406   6.233
 3605POPC   C2B48188  14.890  16.391   6.661
 3605POPC   C3B48189  15.191  16.483   7.028
 3605POPC   C4B48190  15.601  16.337   7.219
 3606POPC   NC348191  26.948  32.036   5.190
 3606POPC   PO448192  27.027  32.680   5.178
 3606POPC   GL148193  26.998  32.594   5.747
 3606POPC   GL248194  26.713  32.445   5.963
 3606POPC   C1A48195  27.113  32.569   6.233
 3606POPC   D2A48196  26.882  32.456   6.634
 3606POPC   C3A48197  27.009  32.307   7.056
 3606POPC   C4A48198  26.857  32.433   7.484
 3606POPC   C1B48199  26.863  32.105   6.253
 3606POPC   C2B48200  26.928  31.884   6.638
 3606POPC   C3B48201  26.795  31.836   7.060
 3606POPC   C4B48202  26.940  31.912   7.494
 3607POPC   NC348203  32.736  23.359   5.334
 3607POPC   PO448204  32.655  22.706   5.442
 3607POPC   GL148205  32.973  22.819   5.761
 3607POPC   GL248206  33.115  23.123   5.645
 3607POPC   C1A48207  33.042  22.783   6.223
 3607POPC   D2A48208  32.908  22.870   6.650
 3607POPC   C3A48209  33.141  22.847   7.016
 3607POPC   C4A48210  32.959  22.676   7.366
 3607POPC   C1B48211  32.911  23.286   6.065
 3607POPC   C2B48212  32.734  23.328   6.528
 3607POPC   C3B48213  32.704  23.209   6.992
 3607POPC   C4B48214  32.983  23.188   7.354
 3608POPC   NC348215  37.998  25.178   5.181
 3608POPC   PO448216  37.415  25.292   5.463
 3608POPC   GL148217  37.734  25.327   5.703
 3608POPC   GL248218  37.869  25.035   5.648
 3608POPC   C1A48219  37.678  25.360   6.150
 3608POPC   D2A48220  37.321  25.240   6.431
 3608POPC   C3A48221  37.346  25.431   6.828
 3608POPC   C4A48222  37.532  25.174   7.145
 3608POPC   C1B48223  38.050  25.023   6.056
 3608POPC   C2B48224  37.926  25.073   6.522
 3608POPC   C3B48225  38.061  25.071   6.985
 3608POPC   C4B48226  37.910  25.079   7.462
 3609POPC   NC348227  24.216   1.113   5.493
 3609POPC   PO448228  24.702   1.425   5.107
 3609POPC   GL148229  24.695   1.210   5.588
 3609POPC   GL248230  24.574   1.450   5.826
 3609POPC   C1A48231  24.494   1.004   6.063
 3609POPC   D2A48232  24.136   1.048   6.430
 3609POPC   C3A48233  24.208   1.026   6.906
 3609POPC   C4A48234  24.346   0.887   7.340
 3609POPC   C1B48235  24.336   1.473   6.241
 3609POPC   C2B48236  24.438   1.588   6.698
 3609POPC   C3B48237  24.718   1.416   7.031
 3609POPC   C4B48238  24.753   1.292   7.489
 3610POPC   NC348239  14.612  16.721   5.511
 3610POPC   PO448240  13.937  16.546   5.504
 3610POPC   GL148241  14.244  16.495   5.839
 3610POPC   GL248242  14.311  16.831   5.896
 3610POPC   C1A48243  14.483  16.512   6.251
 3610POPC   D2A48244  14.522  16.806   6.606
 3610POPC   C3A48245  14.559  16.715   7.059
 3610POPC   C4A48246  14.842  16.641   7.435
 3610POPC   C1B48247  14.161  16.966   6.276
 3610POPC   C2B48248  13.935  17.077   6.645
 3610POPC   C3B48249  13.825  16.937   7.048
 3610POPC   C4B48250  14.105  16.799   7.347
 3611POPC   NC348251  36.038  27.972   5.420
 3611POPC   PO448252  35.872  28.670   5.304
 3611POPC   GL148253  35.890  28.385   5.673
 3611POPC   GL248254  36.168  28.231   5.843
 3611POPC   C1A48255  35.846  28.501   6.117
 3611POPC   D2A48256  35.939  28.564   6.533
 3611POPC   C3A48257  36.147  28.619   6.912
 3611POPC   C4A48258  35.881  28.393   7.192
 3611POPC   C1B48259  36.342  28.348   6.231
 3611POPC   C2B48260  36.381  28.246   6.652
 3611POPC   C3B48261  36.379  28.192   7.095
 3611POPC   C4B48262  36.754  28.236   7.321
 3612POPC   NC348263   4.040  31.312   5.205
 3612POPC   PO448264   4.581  31.384   5.300
 3612POPC   GL148265   4.676  31.330   5.776
 3612POPC   GL248266   4.734  31.656   5.892
 3612POPC   C1A48267   4.637  31.301   6.264
 3612POPC   D2A48268   4.674  31.428   6.735
 3612POPC   C3A48269   4.394  31.414   7.105
 3612POPC   C4A48270   4.295  31.689   7.460
 3612POPC   C1B48271   4.883  31.755   6.319
 3612POPC   C2B48272   4.880  31.947   6.733
 3612POPC   C3B48273   4.720  31.811   7.125
 3612POPC   C4B48274   4.784  31.613   7.501
 3613POPC   NC348275  28.023   3.697   5.435
 3613POPC   PO448276  28.678   3.598   5.455
 3613POPC   GL148277  28.412   3.588   5.801
 3613POPC   GL248278  28.130   3.308   5.799
 3613POPC   C1A48279  28.433   3.574   6.245
 3613POPC   D2A48280  28.141   3.348   6.493
 3613POPC   C3A48281  28.250   3.277   6.914
 3613POPC   C4A48282  28.346   3.591   7.220
 3613POPC   C1B48283  27.982   3.665   6.068
 3613POPC   C2B48284  28.012   3.840   6.473
 3613POPC   C3B48285  27.982   3.706   6.895
 3613POPC   C4B48286  27.838   3.957   7.197
 3614POPC   NC348287  12.289  26.492   5.513
 3614POPC   PO448288  11.857  27.000   5.377
 3614POPC   GL148289  11.773  26.846   5.780
 3614POPC   GL248290  12.006  26.599   5.944
 3614POPC   C1A48291  11.754  27.001   6.185
 3614POPC   D2A48292  11.921  26.788   6.509
 3614POPC   C3A48293  11.887  26.808   6.959
 3614POPC   C4A48294  11.796  26.405   7.175
 3614POPC   C1B48295  12.260  26.957   6.134
 3614POPC   C2B48296  12.373  27.189   6.535
 3614POPC   C3B48297  12.551  27.075   6.953
 3614POPC   C4B48298  12.391  27.044   7.366
 3615POPC   NC348299  27.338  44.314   5.305
 3615POPC   PO448300  27.770  44.783   5.465
 3615POPC   GL148301  27.455  44.630   5.717
 3615POPC   GL248302  27.546  44.341   5.821
 3615POPC   C1A48303  27.303  44.691   6.131
 3615POPC   D2A48304  27.300  44.413   6.478
 3615POPC   C3A48305  27.310  44.591   6.891
 3615POPC   C4A48306  27.344  44.797   7.280
 3615POPC   C1B48307  27.771  44.514   6.180
 3615POPC   C2B48308  27.692  44.785   6.538
 3615POPC   C3B48309  27.806  44.719   6.962
 3615POPC   C4B48310  27.677  44.409   7.267
 3616POPC   NC348311  32.921  38.574   5.530
 3616POPC   PO448312  33.437  38.107   5.493
 3616POPC   GL148313  33.175  38.292   5.883
 3616POPC   GL248314  33.152  38.688   5.976
 3616POPC   C1A48315  33.163  38.360   6.361
 3616POPC   D2A48316  33.229  38.459   6.812
 3616POPC   C3A48317  33.015  38.229   7.147
 3616POPC   C4A48318  33.141  38.027   7.552
 3616POPC   C1B48319  32.759  38.680   6.235
 3616POPC   C2B48320  32.805  38.703   6.677
 3616POPC   C3B48321  32.885  38.720   7.128
 3616POPC   C4B48322  33.032  38.530   7.550
 3617POPC   NC348323  30.380  28.521   5.317
 3617POPC   PO448324  29.743  28.272   5.327
 3617POPC   GL148325  29.926  28.189   5.752
 3617POPC   GL248326  29.618  28.015   5.875
 3617POPC   C1A48327  30.018  28.136   6.217
 3617POPC   D2A48328  29.838  28.086   6.662
 3617POPC   C3A48329  29.887  28.402   7.012
 3617POPC   C4A48330  29.862  28.534   7.445
 3617POPC   C1B48331  29.501  28.321   6.248
 3617POPC   C2B48332  29.472  28.480   6.703
 3617POPC   C3B48333  29.393  28.203   7.036
 3617POPC   C4B48334  29.500  28.187   7.493
 3618POPC   NC348335  34.297  31.788   5.434
 3618POPC   PO448336  34.548  32.457   5.361
 3618POPC   GL148337  34.542  32.314   5.824
 3618POPC   GL248338  34.511  31.955   5.927
 3618POPC   C1A48339  34.473  32.263   6.317
 3618POPC   D2A48340  34.753  32.071   6.601
 3618POPC   C3A48341  34.785  32.241   7.002
 3618POPC   C4A48342  34.497  32.121   7.285
 3618POPC   C1B48343  34.178  31.860   6.237
 3618POPC   C2B48344  34.195  31.966   6.647
 3618POPC   C3B48345  34.058  32.029   7.039
 3618POPC   C4B48346  34.022  32.026   7.479
 3619POPC   NC348347  21.803  25.543   5.401
 3619POPC   PO448348  22.069  25.021   5.612
 3619POPC   GL148349  22.125  25.414   5.844
 3619POPC   GL248350  22.417  25.630   5.729
 3619POPC   C1A48351  21.994  25.466   6.293
 3619POPC   D2A48352  22.137  25.224   6.671
 3619POPC   C3A48353  22.072  25.266   7.134
 3619POPC   C4A48354  22.322  25.115   7.515
 3619POPC   C1B48355  22.358  25.806   6.135
 3619POPC   C2B48356  22.364  25.688   6.565
 3619POPC   C3B48357  22.458  25.573   6.986
 3619POPC   C4B48358  22.277  25.638   7.410
 3620POPC   NC348359   0.471  18.377   5.372
 3620POPC   PO448360   0.602  17.775   5.188
 3620POPC   GL148361   0.377  17.964   5.643
 3620POPC   GL248362   0.475  18.259   5.892
 3620POPC   C1A48363   0.158  17.929   6.087
 3620POPC   D2A48364   0.259  18.186   6.466
 3620POPC   C3A48365   0.162  18.238   6.914
 3620POPC   C4A48366   0.242  17.960   7.244
 3620POPC   C1B48367   0.708  18.339   6.274
 3620POPC   C2B48368   0.612  18.471   6.709
 3620POPC   C3B48369   0.624  18.323   7.157
 3620POPC   C4B48370   0.720  18.532   7.554
 3621POPC   NC348371  28.751   8.115   5.416
 3621POPC   PO448372  29.398   8.058   5.235
 3621POPC   GL148373  29.276   7.998   5.657
 3621POPC   GL248374  29.118   8.329   5.701
 3621POPC   C1A48375  29.357   7.941   6.112
 3621POPC   D2A48376  29.138   8.038   6.497
 3621POPC   C3A48377  29.035   7.975   6.913
 3621POPC   C4A48378  29.359   8.014   7.200
 3621POPC   C1B48379  29.018   8.386   6.129
 3621POPC   C2B48380  28.888   8.499   6.540
 3621POPC   C3B48381  28.870   8.658   6.930
 3621POPC   C4B48382  28.963   8.378   7.226
 3622POPC   NC348383   7.426  17.765   5.290
 3622POPC   PO448384   7.824  17.668   5.781
 3622POPC   GL148385   7.375  17.529   5.797
 3622POPC   GL248386   7.251  17.156   5.751
 3622POPC   C1A48387   7.314  17.663   6.231
 3622POPC   D2A48388   7.617  17.794   6.548
 3622POPC   C3A48389   7.344  17.799   6.899
 3622POPC   C4A48390   7.194  17.814   7.313
 3622POPC   C1B48391   7.469  17.164   6.164
 3622POPC   C2B48392   7.503  17.299   6.590
 3622POPC   C3B48393   7.603  17.352   7.002
 3622POPC   C4B48394   7.463  17.172   7.350
 3623POPC   NC348395  16.259   6.823   5.232
 3623POPC   PO448396  15.959   6.167   5.290
 3623POPC   GL148397  15.952   6.417   5.668
 3623POPC   GL248398  16.034   6.784   5.684
 3623POPC   C1A48399  15.976   6.423   6.127
 3623POPC   D2A48400  16.019   6.674   6.507
 3623POPC   C3A48401  15.911   6.458   6.883
 3623POPC   C4A48402  16.173   6.198   7.096
 3623POPC   C1B48403  16.025   6.997   6.087
 3623POPC   C2B48404  15.733   7.091   6.431
 3623POPC   C3B48405  15.859   7.017   6.868
 3623POPC   C4B48406  15.602   6.806   7.149
 3624POPC   NC348407  18.444  30.434   5.223
 3624POPC   PO448408  18.432  29.785   5.335
 3624POPC   GL148409  18.332  29.787   5.792
 3624POPC   GL248410  18.432  30.151   5.763
 3624POPC   C1A48411  18.122  29.584   6.228
 3624POPC   D2A48412  18.102  29.424   6.717
 3624POPC   C3A48413  18.015  29.713   7.087
 3624POPC   C4A48414  18.044  29.888   7.520
 3624POPC   C1B48415  18.384  30.090   6.216
 3624POPC   C2B48416  18.358  29.853   6.585
 3624POPC   C3B48417  18.521  29.690   6.925
 3624POPC   C4B48418  18.515  29.853   7.309
 3625POPC   NC348419  11.946  22.516   5.375
 3625POPC   PO448420  12.249  21.865   5.423
 3625POPC   GL148421  12.079  22.092   5.782
 3625POPC   GL248422  12.224  22.368   5.763
 3625POPC   C1A48423  12.199  22.085   6.207
 3625POPC   D2A48424  12.298  21.970   6.621
 3625POPC   C3A48425  12.049  22.160   6.928
 3625POPC   C4A48426  11.826  21.915   7.210
 3625POPC   C1B48427  12.462  22.526   6.101
 3625POPC   C2B48428  12.319  22.484   6.513
 3625POPC   C3B48429  12.361  22.577   6.917
 3625POPC   C4B48430  12.255  22.481   7.335
 3626POPC   NC348431   4.055  10.331   5.558
 3626POPC   PO448432   4.649  10.220   5.359
 3626POPC   GL148433   4.533  10.254   5.812
 3626POPC   GL248434   4.578  10.560   5.947
 3626POPC   C1A48435   4.310  10.282   6.260
 3626POPC   D2A48436   3.964  10.275   6.576
 3626POPC   C3A48437   4.023  10.497   6.985
 3626POPC   C4A48438   4.194  10.847   7.140
 3626POPC   C1B48439   4.692  10.763   6.313
 3626POPC   C2B48440   4.439  10.684   6.647
 3626POPC   C3B48441   4.571  10.498   6.992
 3626POPC   C4B48442   4.665  10.803   7.304
 3627POPC   NC348443  30.541  39.654   5.337
 3627POPC   PO448444  30.710  38.919   5.350
 3627POPC   GL148445  30.707  39.037   5.810
 3627POPC   GL248446  30.661  39.412   5.844
 3627POPC   C1A48447  30.863  39.104   6.238
 3627POPC   D2A48448  30.816  39.388   6.568
 3627POPC   C3A48449  30.822  39.136   6.923
 3627POPC   C4A48450  30.718  39.212   7.348
 3627POPC   C1B48451  30.378  39.230   6.190
 3627POPC   C2B48452  30.389  39.106   6.651
 3627POPC   C3B48453  30.347  38.974   7.091
 3627POPC   C4B48454  30.267  38.996   7.535
 3628POPC   NC348455  13.528  38.265   5.447
 3628POPC   PO448456  13.928  38.711   5.200
 3628POPC   GL148457  13.601  38.728   5.639
 3628POPC   GL248458  13.679  38.375   5.900
 3628POPC   C1A48459  13.437  38.751   6.091
 3628POPC   D2A48460  13.348  38.373   6.368
 3628POPC   C3A48461  13.450  38.398   6.809
 3628POPC   C4A48462  13.668  38.632   7.102
 3628POPC   C1B48463  13.857  38.470   6.305
 3628POPC   C2B48464  14.006  38.502   6.730
 3628POPC   C3B48465  14.154  38.520   7.153
 3628POPC   C4B48466  14.011  38.552   7.563
 3629POPC   NC348467   5.716  10.693   5.549
 3629POPC   PO448468   6.286  10.487   5.778
 3629POPC   GL148469   5.910  10.227   5.896
 3629POPC   GL248470   5.563  10.415   5.971
 3629POPC   C1A48471   5.921  10.247   6.350
 3629POPC   D2A48472   6.083  10.660   6.511
 3629POPC   C3A48473   6.101  10.680   6.942
 3629POPC   C4A48474   6.103  10.366   7.270
 3629POPC   C1B48475   5.432  10.399   6.414
 3629POPC   C2B48476   5.523  10.104   6.717
 3629POPC   C3B48477   5.640  10.378   7.060
 3629POPC   C4B48478   5.460  10.493   7.460
 3630POPC   NC348479   4.534  16.211   5.691
 3630POPC   PO448480   4.301  16.716   5.279
 3630POPC   GL148481   4.459  16.719   5.711
 3630POPC   GL248482   4.695  16.983   5.811
 3630POPC   C1A48483   4.393  16.712   6.163
 3630POPC   D2A48484   4.132  16.807   6.528
 3630POPC   C3A48485   4.288  16.755   6.967
 3630POPC   C4A48486   4.323  16.571   7.382
 3630POPC   C1B48487   4.822  16.988   6.260
 3630POPC   C2B48488   4.750  16.897   6.738
 3630POPC   C3B48489   4.898  16.990   7.199
 3630POPC   C4B48490   4.755  16.807   7.652
 3631POPC   NC348491  11.167  44.835   5.522
 3631POPC   PO448492  11.607  44.286   5.471
 3631POPC   GL148493  11.359  44.396   5.820
 3631POPC   GL248494  11.453  44.756   5.961
 3631POPC   C1A48495  11.112  44.462   6.193
 3631POPC   D2A48496  11.236  44.787   6.485
 3631POPC   C3A48497  11.341  44.574   6.834
 3631POPC   C4A48498  11.091  44.371   7.125
 3631POPC   C1B48499  11.634  44.486   6.309
 3631POPC   C2B48500  11.737  44.228   6.690
 3631POPC   C3B48501  11.681  44.363   7.146
 3631POPC   C4B48502  11.744  44.602   7.509
 3632POPC   NC348503  23.824  33.315   5.514
 3632POPC   PO448504  23.504  32.723   5.541
 3632POPC   GL148505  23.606  33.007   5.872
 3632POPC   GL248506  23.499  33.369   5.889
 3632POPC   C1A48507  23.609  32.938   6.289
 3632POPC   D2A48508  23.825  33.087   6.641
 3632POPC   C3A48509  23.810  32.819   7.035
 3632POPC   C4A48510  23.749  32.698   7.509
 3632POPC   C1B48511  23.445  33.416   6.314
 3632POPC   C2B48512  23.292  33.166   6.644
 3632POPC   C3B48513  23.473  33.214   7.016
 3632POPC   C4B48514  23.411  33.086   7.394
 3633POPC   NC348515  14.629  43.187   5.395
 3633POPC   PO448516  13.957  43.465   5.296
 3633POPC   GL148517  14.081  43.365   5.827
 3633POPC   GL248518  14.365  43.071   5.842
 3633POPC   C1A48519  14.295  43.376   6.230
 3633POPC   D2A48520  14.305  43.074   6.555
 3633POPC   C3A48521  14.322  43.241   6.976
 3633POPC   C4A48522  14.278  42.861   7.212
 3633POPC   C1B48523  14.646  42.749   6.031
 3633POPC   C2B48524  14.604  42.633   6.465
 3633POPC   C3B48525  14.689  42.896   6.861
 3633POPC   C4B48526  14.751  42.980   7.317
 3634POPC   NC348527  38.190  33.599   5.050
 3634POPC   PO448528  38.699  33.845   5.418
 3634POPC   GL148529  38.546  33.762   5.802
 3634POPC   GL248530  38.550  33.412   5.746
 3634POPC   C1A48531  38.535  33.935   6.211
 3634POPC   D2A48532  38.589  33.762   6.587
 3634POPC   C3A48533  38.737  34.021   6.923
 3634POPC   C4A48534  38.565  34.070   7.336
 3634POPC   C1B48535  38.556  33.371   6.176
 3634POPC   C2B48536  38.255  33.379   6.478
 3634POPC   C3B48537  38.240  33.522   6.884
 3634POPC   C4B48538  38.461  33.556   7.274
 3635POPC   NC348539  27.905   8.784   5.705
 3635POPC   PO448540  27.587   8.341   5.262
 3635POPC   GL148541  27.598   8.372   5.743
 3635POPC   GL248542  27.331   8.592   5.878
 3635POPC   C1A48543  27.778   8.087   6.122
 3635POPC   D2A48544  27.826   7.860   6.531
 3635POPC   C3A48545  27.755   8.091   6.885
 3635POPC   C4A48546  27.536   8.092   7.266
 3635POPC   C1B48547  27.275   8.169   6.077
 3635POPC   C2B48548  27.336   8.069   6.523
 3635POPC   C3B48549  27.166   8.162   6.939
 3635POPC   C4B48550  27.028   8.001   7.340
 3636POPC   NC348551   7.985  18.010   5.499
 3636POPC   PO448552   8.490  18.484   5.512
 3636POPC   GL148553   8.236  18.538   5.883
 3636POPC   GL248554   8.202  18.181   5.916
 3636POPC   C1A48555   8.231  18.477   6.359
 3636POPC   D2A48556   7.972  18.553   6.750
 3636POPC   C3A48557   8.059  18.397   7.188
 3636POPC   C4A48558   8.229  18.361   7.650
 3636POPC   C1B48559   8.162  17.934   6.275
 3636POPC   C2B48560   8.055  18.062   6.656
 3636POPC   C3B48561   8.315  17.971   6.963
 3636POPC   C4B48562   8.247  17.929   7.363
 3637POPC   NC348563  18.340   2.179   5.306
 3637POPC   PO448564  17.919   1.609   5.270
 3637POPC   GL148565  17.923   1.806   5.750
 3637POPC   GL248566  18.060   2.170   5.742
 3637POPC   C1A48567  18.201   1.815   6.170
 3637POPC   D2A48568  18.282   1.707   6.600
 3637POPC   C3A48569  18.472   1.966   6.957
 3637POPC   C4A48570  18.480   1.817   7.384
 3637POPC   C1B48571  18.159   2.327   6.148
 3637POPC   C2B48572  18.086   2.182   6.574
 3637POPC   C3B48573  17.972   1.960   6.961
 3637POPC   C4B48574  18.081   2.162   7.342
 3638POPC   NC348575  24.424   0.154   5.300
 3638POPC   PO448576  24.376   0.793   5.182
 3638POPC   GL148577  24.424   0.622   5.670
 3638POPC   GL248578  24.656   0.336   5.730
 3638POPC   C1A48579  24.497   0.501   6.164
 3638POPC   D2A48580  24.401   0.660   6.583
 3638POPC   C3A48581  24.337   0.480   6.964
 3638POPC   C4A48582  24.649   0.384   7.238
 3638POPC   C1B48583  24.733   0.064   6.087
 3638POPC   C2B48584  24.934   0.171   6.489
 3638POPC   C3B48585  24.927   0.050   6.936
 3638POPC   C4B48586  25.139   0.005   7.350
 3639POPC   NC348587   1.465  36.773   5.436
 3639POPC   PO448588   1.294  37.444   5.327
 3639POPC   GL148589   1.127  37.131   5.613
 3639POPC   GL248590   1.418  37.124   5.796
 3639POPC   C1A48591   0.974  37.088   6.068
 3639POPC   D2A48592   1.041  37.189   6.519
 3639POPC   C3A48593   0.998  36.948   6.876
 3639POPC   C4A48594   1.130  36.797   7.266
 3639POPC   C1B48595   1.507  36.880   6.148
 3639POPC   C2B48596   1.488  36.922   6.565
 3639POPC   C3B48597   1.518  37.000   6.972
 3639POPC   C4B48598   1.643  36.690   7.279
 3640POPC   NC348599  11.094   3.465   5.297
 3640POPC   PO448600  11.751   3.723   5.432
 3640POPC   GL148601  11.564   3.420   5.752
 3640POPC   GL248602  11.177   3.342   5.798
 3640POPC   C1A48603  11.485   3.318   6.194
 3640POPC   D2A48604  11.198   3.499   6.512
 3640POPC   C3A48605  11.261   3.368   6.903
 3640POPC   C4A48606  11.140   3.506   7.292
 3640POPC   C1B48607  11.014   3.141   6.211
 3640POPC   C2B48608  10.871   3.106   6.660
 3640POPC   C3B48609  10.842   3.104   7.134
 3640POPC   C4B48610  10.928   3.140   7.602
 3641POPC   NC348611  30.464  23.432   5.350
 3641POPC   PO448612  30.776  24.006   5.582
 3641POPC   GL148613  30.577  23.683   5.806
 3641POPC   GL248614  30.447  23.948   5.962
 3641POPC   C1A48615  30.600  23.520   6.239
 3641POPC   D2A48616  30.768  23.375   6.642
 3641POPC   C3A48617  30.588  23.569   7.011
 3641POPC   C4A48618  30.650  23.620   7.449
 3641POPC   C1B48619  30.799  24.017   6.287
 3641POPC   C2B48620  30.994  23.835   6.664
 3641POPC   C3B48621  30.985  23.870   7.129
 3641POPC   C4B48622  30.580  24.082   7.226
 3642POPC   NC348623  13.499  41.854   5.331
 3642POPC   PO448624  13.780  41.251   5.396
 3642POPC   GL148625  13.913  41.383   5.771
 3642POPC   GL248626  13.822  41.717   5.790
 3642POPC   C1A48627  13.774  41.319   6.172
 3642POPC   D2A48628  13.717  41.531   6.544
 3642POPC   C3A48629  13.572  41.347   6.881
 3642POPC   C4A48630  13.699  41.458   7.234
 3642POPC   C1B48631  13.494  41.760   6.134
 3642POPC   C2B48632  13.264  41.809   6.556
 3642POPC   C3B48633  13.454  41.834   6.974
 3642POPC   C4B48634  13.415  41.798   7.439
 3643POPC   NC348635   9.915  20.063   5.537
 3643POPC   PO448636  10.386  19.711   5.155
 3643POPC   GL148637  10.318  19.704   5.630
 3643POPC   GL248638  10.145  19.390   5.699
 3643POPC   C1A48639  10.561  19.796   6.048
 3643POPC   D2A48640  10.559  20.025   6.474
 3643POPC   C3A48641  10.608  19.917   6.920
 3643POPC   C4A48642  10.238  20.014   7.223
 3643POPC   C1B48643  10.259  19.402   6.171
 3643POPC   C2B48644  10.174  19.635   6.567
 3643POPC   C3B48645  10.269  19.546   7.018
 3643POPC   C4B48646  10.327  19.350   7.432
 3644POPC   NC348647  34.612  44.558   5.457
 3644POPC   PO448648  34.889   0.125   5.428
 3644POPC   GL148649  34.591  44.948   5.787
 3644POPC   GL248650  34.421  44.603   5.931
 3644POPC   C1A48651  34.614  44.962   6.240
 3644POPC   D2A48652  34.823  44.796   6.615
 3644POPC   C3A48653  34.530  44.832   6.974
 3644POPC   C4A48654  34.412  44.989   7.402
 3644POPC   C1B48655  34.805  44.484   6.167
 3644POPC   C2B48656  34.843  44.270   6.568
 3644POPC   C3B48657  34.899  44.422   6.960
 3644POPC   C4B48658  34.651  44.468   7.292
 3645POPC   NC348659  31.435  33.072   5.322
 3645POPC   PO448660  31.804  32.577   5.529
 3645POPC   GL148661  31.608  32.894   5.794
 3645POPC   GL248662  31.277  33.079   5.823
 3645POPC   C1A48663  31.580  33.000   6.225
 3645POPC   D2A48664  31.620  32.757   6.594
 3645POPC   C3A48665  31.847  32.995   6.902
 3645POPC   C4A48666  31.908  33.217   7.269
 3645POPC   C1B48667  31.054  32.989   6.211
 3645POPC   C2B48668  31.229  33.114   6.594
 3645POPC   C3B48669  31.329  32.966   6.985
 3645POPC   C4B48670  31.241  33.192   7.323
 3646POPC   NC348671  36.390  29.057   5.500
 3646POPC   PO448672  36.790  28.728   5.119
 3646POPC   GL148673  36.858  28.956   5.646
 3646POPC   GL248674  36.595  29.224   5.904
 3646POPC   C1A48675  37.021  29.092   6.106
 3646POPC   D2A48676  37.213  29.338   6.461
 3646POPC   C3A48677  37.241  29.205   6.904
 3646POPC   C4A48678  37.021  28.862   7.169
 3646POPC   C1B48679  36.595  29.224   6.352
 3646POPC   C2B48680  36.757  29.105   6.780
 3646POPC   C3B48681  36.682  29.226   7.207
 3646POPC   C4B48682  36.735  29.244   7.696
 3647POPC   NC348683  26.252  24.821   5.444
 3647POPC   PO448684  25.787  24.384   5.470
 3647POPC   GL148685  25.920  24.678   5.809
 3647POPC   GL248686  26.308  24.675   5.928
 3647POPC   C1A48687  25.877  24.741   6.250
 3647POPC   D2A48688  26.079  24.781   6.648
 3647POPC   C3A48689  25.856  24.543   6.955
 3647POPC   C4A48690  25.921  24.298   7.352
 3647POPC   C1B48691  26.263  24.386   6.290
 3647POPC   C2B48692  26.303  24.331   6.744
 3647POPC   C3B48693  26.325  24.548   7.139
 3647POPC   C4B48694  26.189  24.897   7.295
 3648POPC   NC348695  18.744   0.588   5.475
 3648POPC   PO448696  19.346   0.548   5.765
 3648POPC   GL148697  18.931   0.467   5.918
 3648POPC   GL248698  18.804   0.169   5.821
 3648POPC   C1A48699  18.724   0.446   6.303
 3648POPC   D2A48700  19.041   0.529   6.607
 3648POPC   C3A48701  18.997   0.692   7.010
 3648POPC   C4A48702  19.308   0.835   7.303
 3648POPC   C1B48703  19.129   0.115   6.208
 3648POPC   C2B48704  19.007   0.017   6.623
 3648POPC   C3B48705  19.051   0.150   7.030
 3648POPC   C4B48706  19.368   0.336   7.230
 3649POPC   NC348707  16.452  37.897   5.377
 3649POPC   PO448708  16.736  37.339   5.392
 3649POPC   GL148709  16.778  37.513   5.800
 3649POPC   GL248710  17.105  37.665   5.736
 3649POPC   C1A48711  16.712  37.720   6.230
 3649POPC   D2A48712  16.609  37.607   6.699
 3649POPC   C3A48713  16.671  37.819   7.137
 3649POPC   C4A48714  16.456  37.641   7.552
 3649POPC   C1B48715  17.203  37.576   6.170
 3649POPC   C2B48716  17.082  37.745   6.587
 3649POPC   C3B48717  17.051  37.486   6.956
 3649POPC   C4B48718  17.017  37.469   7.383
 3650POPC   NC348719  10.681  43.017   5.445
 3650POPC   PO448720  10.148  43.406   5.285
 3650POPC   GL148721  10.378  43.420   5.691
 3650POPC   GL248722  10.765  43.403   5.773
 3650POPC   C1A48723  10.297  43.432   6.140
 3650POPC   D2A48724  10.101  43.268   6.537
 3650POPC   C3A48725  10.276  43.302   6.978
 3650POPC   C4A48726  10.481  43.190   7.381
 3650POPC   C1B48727  10.746  43.171   6.157
 3650POPC   C2B48728  10.610  43.115   6.597
 3650POPC   C3B48729  10.818  43.116   7.009
 3650POPC   C4B48730  10.929  42.936   7.418
 3651POPC   NC348731  37.073  18.954   5.360
 3651POPC   PO448732  36.890  19.640   5.461
 3651POPC   GL148733  36.950  19.279   5.730
 3651POPC   GL248734  37.183  18.974   5.863
 3651POPC   C1A48735  36.720  19.117   6.075
 3651POPC   D2A48736  36.701  19.186   6.529
 3651POPC   C3A48737  36.595  18.846   6.818
 3651POPC   C4A48738  36.760  18.900   7.210
 3651POPC   C1B48739  37.095  18.847   6.311
 3651POPC   C2B48740  37.108  18.911   6.762
 3651POPC   C3B48741  37.238  18.721   7.144
 3651POPC   C4B48742  37.099  18.748   7.577
 3652POPC   NC348743  10.927   0.208   5.119
 3652POPC   PO448744  10.341   0.521   5.366
 3652POPC   GL148745  10.365   0.332   5.791
 3652POPC   GL248746  10.105   0.116   5.927
 3652POPC   C1A48747  10.698   0.308   6.127
 3652POPC   D2A48748  10.811   0.130   6.569
 3652POPC   C3A48749  10.848   0.429   6.925
 3652POPC   C4A48750  10.716   0.529   7.355
 3652POPC   C1B48751  10.262   0.180   6.343
 3652POPC   C2B48752  10.477   0.543   6.555
 3652POPC   C3B48753  10.388   0.708   6.970
 3652POPC   C4B48754  10.203   0.492   7.285
 3653POPC   NC348755  36.906  31.840   5.442
 3653POPC   PO448756  36.572  31.336   5.423
 3653POPC   GL148757  36.635  31.603   5.794
 3653POPC   GL248758  37.008  31.533   5.826
 3653POPC   C1A48759  36.719  31.542   6.236
 3653POPC   D2A48760  37.011  31.382   6.497
 3653POPC   C3A48761  36.805  31.476   6.873
 3653POPC   C4A48762  37.008  31.404   7.262
 3653POPC   C1B48763  37.218  31.773   6.140
 3653POPC   C2B48764  37.448  31.697   6.501
 3653POPC   C3B48765  37.295  31.601   6.885
 3653POPC   C4B48766  37.327  31.816   7.263
 3654POPC   NC348767  44.887   6.840   5.314
 3654POPC   PO448768   0.290   6.531   5.641
 3654POPC   GL148769   0.318   6.551   6.035
 3654POPC   GL248770   0.616   6.739   6.018
 3654POPC   C1A48771   0.352   6.701   6.449
 3654POPC   D2A48772   0.276   7.039   6.728
 3654POPC   C3A48773   0.563   6.920   7.056
 3654POPC   C4A48774   0.368   6.640   7.350
 3654POPC   C1B48775   0.710   6.332   6.271
 3654POPC   C2B48776   0.596   6.269   6.639
 3654POPC   C3B48777   0.636   6.375   7.021
 3654POPC   C4B48778   0.610   6.180   7.431
 3655POPC   NC348779  28.093  20.824   5.396
 3655POPC   PO448780  27.410  20.747   5.394
 3655POPC   GL148781  27.617  20.711   5.803
 3655POPC   GL248782  27.608  20.335   5.847
 3655POPC   C1A48783  27.657  20.888   6.238
 3655POPC   D2A48784  27.692  21.094   6.663
 3655POPC   C3A48785  27.705  20.842   7.034
 3655POPC   C4A48786  27.872  20.506   7.287
 3655POPC   C1B48787  27.365  20.471   6.214
 3655POPC   C2B48788  27.472  20.593   6.636
 3655POPC   C3B48789  27.386  20.426   7.029
 3655POPC   C4B48790  27.375  20.514   7.436
 3656POPC   NC348791  11.516  18.343   5.409
 3656POPC   PO448792  10.916  17.992   5.374
 3656POPC   GL148793  11.254  18.000   5.696
 3656POPC   GL248794  11.218  18.331   5.848
 3656POPC   C1A48795  11.404  17.951   6.124
 3656POPC   D2A48796  11.216  18.135   6.495
 3656POPC   C3A48797  11.286  17.999   6.915
 3656POPC   C4A48798  11.358  18.259   7.293
 3656POPC   C1B48799  11.594  18.430   6.117
 3656POPC   C2B48800  11.660  18.438   6.565
 3656POPC   C3B48801  11.442  18.615   6.936
 3656POPC   C4B48802  11.556  18.765   7.355
 3657POPC   NC348803  12.289  36.098   5.435
 3657POPC   PO448804  11.587  36.068   5.641
 3657POPC   GL148805  11.958  36.242   5.825
 3657POPC   GL248806  12.076  35.917   5.842
 3657POPC   C1A48807  12.086  36.342   6.234
 3657POPC   D2A48808  12.194  36.298   6.654
 3657POPC   C3A48809  12.100  36.120   7.023
 3657POPC   C4A48810  12.144  36.328   7.399
 3657POPC   C1B48811  12.308  35.881   6.194
 3657POPC   C2B48812  12.488  35.896   6.590
 3657POPC   C3B48813  12.448  35.725   6.962
 3657POPC   C4B48814  12.647  35.855   7.327
 3658POPC   NC348815  19.410  30.618   5.339
 3658POPC   PO448816  18.684  30.819   5.333
 3658POPC   GL148817  19.021  30.677   5.679
 3658POPC   GL248818  19.241  30.919   5.886
 3658POPC   C1A48819  19.222  30.414   6.054
 3658POPC   D2A48820  19.253  30.200   6.500
 3658POPC   C3A48821  19.296  30.456   6.895
 3658POPC   C4A48822  19.153  30.690   7.277
 3658POPC   C1B48823  19.247  30.843   6.398
 3658POPC   C2B48824  19.033  30.935   6.823
 3658POPC   C3B48825  18.702  30.916   7.178
 3658POPC   C4B48826  18.588  31.184   7.539
 3659POPC   NC348827  34.196  40.190   5.664
 3659POPC   PO448828  33.808  39.798   5.300
 3659POPC   GL148829  33.721  39.680   5.779
 3659POPC   GL248830  33.987  39.854   5.955
 3659POPC   C1A48831  33.720  39.602   6.260
 3659POPC   D2A48832  33.735  39.907   6.564
 3659POPC   C3A48833  33.761  39.659   6.881
 3659POPC   C4A48834  33.681  39.678   7.311
 3659POPC   C1B48835  34.131  40.125   6.313
 3659POPC   C2B48836  34.087  40.321   6.710
 3659POPC   C3B48837  33.880  40.158   7.060
 3659POPC   C4B48838  34.143  39.797   7.171
 3660POPC   NC348839  20.968  27.875   5.584
 3660POPC   PO448840  20.453  28.317   5.452
 3660POPC   GL148841  20.347  28.398   5.852
 3660POPC   GL248842  20.244  28.043   5.907
 3660POPC   C1A48843  20.623  28.440   6.246
 3660POPC   D2A48844  20.788  28.124   6.568
 3660POPC   C3A48845  21.038  28.275   6.923
 3660POPC   C4A48846  20.845  28.536   7.249
 3660POPC   C1B48847  20.326  28.059   6.352
 3660POPC   C2B48848  20.338  28.275   6.757
 3660POPC   C3B48849  20.345  28.400   7.212
 3660POPC   C4B48850  20.225  28.607   7.654
 3661POPC   NC348851  29.657   4.785   5.578
 3661POPC   PO448852  29.956   4.291   5.178
 3661POPC   GL148853  29.913   4.340   5.674
 3661POPC   GL248854  30.148   4.629   5.705
 3661POPC   C1A48855  29.713   4.393   6.134
 3661POPC   D2A48856  29.807   4.199   6.536
 3661POPC   C3A48857  29.610   4.185   6.933
 3661POPC   C4A48858  29.902   4.184   7.265
 3661POPC   C1B48859  30.194   4.533   6.149
 3661POPC   C2B48860  30.052   4.640   6.573
 3661POPC   C3B48861  30.229   4.527   6.982
 3661POPC   C4B48862  30.230   4.527   7.447
 3662POPC   NC348863   9.690   9.524   5.456
 3662POPC   PO448864   9.559  10.128   5.529
 3662POPC   GL148865   9.614   9.877   5.861
 3662POPC   GL248866   9.941   9.757   5.910
 3662POPC   C1A48867   9.465   9.596   6.151
 3662POPC   D2A48868   9.233   9.664   6.530
 3662POPC   C3A48869   9.447   9.838   6.886
 3662POPC   C4A48870   9.665   9.657   7.221
 3662POPC   C1B48871   9.954   9.587   6.336
 3662POPC   C2B48872   9.945   9.593   6.783
 3662POPC   C3B48873  10.159   9.629   7.142
 3662POPC   C4B48874  10.039   9.599   7.590
 3663POPC   NC348875  13.027  11.449   5.257
 3663POPC   PO448876  12.485  11.138   5.337
 3663POPC   GL148877  12.764  11.270   5.694
 3663POPC   GL248878  12.993  10.958   5.706
 3663POPC   C1A48879  12.621  11.326   6.159
 3663POPC   D2A48880  12.553  11.092   6.560
 3663POPC   C3A48881  12.733  11.294   6.916
 3663POPC   C4A48882  12.588  11.472   7.283
 3663POPC   C1B48883  13.118  11.194   6.076
 3663POPC   C2B48884  13.027  11.365   6.486
 3663POPC   C3B48885  13.244  11.278   6.906
 3663POPC   C4B48886  13.088  11.409   7.286
 3664POPC   NC348887  42.157   6.108   5.559
 3664POPC   PO448888  42.072   5.421   5.338
 3664POPC   GL148889  42.071   5.652   5.770
 3664POPC   GL248890  42.401   5.855   5.917
 3664POPC   C1A48891  42.087   5.589   6.227
 3664POPC   D2A48892  42.326   5.767   6.576
 3664POPC   C3A48893  42.163   5.776   6.967
 3664POPC   C4A48894  42.087   6.171   7.201
 3664POPC   C1B48895  42.164   6.115   6.234
 3664POPC   C2B48896  42.097   6.219   6.678
 3664POPC   C3B48897  42.513   6.150   6.921
 3664POPC   C4B48898  42.655   6.303   7.320
 3665POPC   NC348899  31.084  23.707   5.755
 3665POPC   PO448900  31.470  23.764   5.297
 3665POPC   GL148901  31.588  23.592   5.727
 3665POPC   GL248902  31.607  23.915   5.890
 3665POPC   C1A48903  31.621  23.485   6.184
 3665POPC   D2A48904  31.583  23.348   6.630
 3665POPC   C3A48905  31.281  23.472   6.939
 3665POPC   C4A48906  31.536  23.717   7.200
 3665POPC   C1B48907  31.420  23.978   6.302
 3665POPC   C2B48908  31.465  23.963   6.760
 3665POPC   C3B48909  31.546  24.214   7.108
 3665POPC   C4B48910  31.340  24.102   7.468
 3666POPC   NC348911  23.142  15.354   5.300
 3666POPC   PO448912  22.750  14.958   5.736
 3666POPC   GL148913  23.122  15.176   5.899
 3666POPC   GL248914  23.295  15.511   5.801
 3666POPC   C1A48915  23.126  15.138   6.367
 3666POPC   D2A48916  22.864  15.112   6.780
 3666POPC   C3A48917  23.022  14.983   7.168
 3666POPC   C4A48918  23.137  14.792   7.565
 3666POPC   C1B48919  23.308  15.630   6.257
 3666POPC   C2B48920  23.157  15.535   6.667
 3666POPC   C3B48921  23.090  15.508   7.085
 3666POPC   C4B48922  22.678  15.373   7.228
 3667POPC   NC348923  39.417   1.514   5.394
 3667POPC   PO448924  39.036   1.008   5.220
 3667POPC   GL148925  39.057   1.209   5.649
 3667POPC   GL248926  39.389   1.101   5.730
 3667POPC   C1A48927  39.066   1.225   6.146
 3667POPC   D2A48928  39.279   1.249   6.596
 3667POPC   C3A48929  39.184   1.408   7.049
 3667POPC   C4A48930  39.420   1.424   7.495
 3667POPC   C1B48931  39.459   0.917   6.139
 3667POPC   C2B48932  39.463   0.760   6.563
 3667POPC   C3B48933  39.641   0.884   6.955
 3667POPC   C4B48934  39.341   0.948   7.273
 3668POPC   NC348935  29.917   3.219   5.473
 3668POPC   PO448936  29.701   2.617   5.409
 3668POPC   GL148937  29.881   2.778   5.805
 3668POPC   GL248938  30.197   2.890   5.782
 3668POPC   C1A48939  29.928   2.597   6.235
 3668POPC   D2A48940  30.119   2.491   6.633
 3668POPC   C3A48941  29.960   2.492   7.059
 3668POPC   C4A48942  30.010   2.745   7.431
 3668POPC   C1B48943  30.188   3.052   6.189
 3668POPC   C2B48944  30.035   3.039   6.605
 3668POPC   C3B48945  30.194   2.972   7.000
 3668POPC   C4B48946  30.165   3.216   7.353
 3669POPC   NC348947  36.310  28.717   5.128
 3669POPC   PO448948  36.044  29.331   5.403
 3669POPC   GL148949  36.029  29.084   5.832
 3669POPC   GL248950  36.205  28.743   5.830
 3669POPC   C1A48951  36.130  28.969   6.284
 3669POPC   D2A48952  36.251  29.125   6.707
 3669POPC   C3A48953  36.128  29.090   7.123
 3669POPC   C4A48954  36.286  29.170   7.504
 3669POPC   C1B48955  36.593  28.752   6.069
 3669POPC   C2B48956  36.597  28.710   6.503
 3669POPC   C3B48957  36.674  28.584   6.925
 3669POPC   C4B48958  36.515  28.730   7.329
 3670POPC   NC348959  38.387  21.772   5.439
 3670POPC   PO448960  38.778  21.230   5.376
 3670POPC   GL148961  38.582  21.198   5.775
 3670POPC   GL248962  38.519  21.551   5.899
 3670POPC   C1A48963  38.454  21.123   6.209
 3670POPC   D2A48964  38.350  21.384   6.573
 3670POPC   C3A48965  38.409  21.207   6.984
 3670POPC   C4A48966  38.207  21.193   7.367
 3670POPC   C1B48967  38.766  21.529   6.270
 3670POPC   C2B48968  38.795  21.612   6.700
 3670POPC   C3B48969  38.479  21.705   6.998
 3670POPC   C4B48970  38.491  21.602   7.422
 3671POPC   NC348971  28.748  29.356   5.479
 3671POPC   PO448972  28.260  28.978   5.392
 3671POPC   GL148973  28.442  29.028   5.765
 3671POPC   GL248974  28.124  29.020   5.890
 3671POPC   C1A48975  28.535  29.175   6.199
 3671POPC   D2A48976  28.663  28.997   6.576
 3671POPC   C3A48977  28.592  29.271   6.883
 3671POPC   C4A48978  28.511  29.414   7.239
 3671POPC   C1B48979  28.048  28.940   6.281
 3671POPC   C2B48980  28.173  29.198   6.604
 3671POPC   C3B48981  27.995  29.270   6.973
 3671POPC   C4B48982  28.208  29.008   7.214
 3672POPC   NC348983   4.938   9.221   5.422
 3672POPC   PO448984   5.243   8.634   5.242
 3672POPC   GL148985   5.160   8.817   5.684
 3672POPC   GL248986   4.805   8.758   5.750
 3672POPC   C1A48987   5.161   9.145   6.055
 3672POPC   D2A48988   5.101   9.146   6.525
 3672POPC   C3A48989   5.330   9.196   6.904
 3672POPC   C4A48990   5.103   9.233   7.288
 3672POPC   C1B48991   4.968   8.631   6.166
 3672POPC   C2B48992   5.172   8.626   6.608
 3672POPC   C3B48993   5.081   8.754   7.049
 3672POPC   C4B48994   4.711   8.648   7.275
 3673POPC   NC348995  37.632  18.697   5.639
 3673POPC   PO448996  37.424  19.227   5.455
 3673POPC   GL148997  37.647  19.192   5.852
 3673POPC   GL248998  37.973  19.015   5.848
 3673POPC   C1A48999  37.503  19.189   6.284
 3673POPC   D2A49000  37.649  19.235   6.707
 3673POPC   C3A49001  37.390  19.225   7.074
 3673POPC   C4A49002  37.455  19.127   7.527
 3673POPC   C1B49003  37.969  18.996   6.307
 3673POPC   C2B49004  38.018  18.891   6.747
 3673POPC   C3B49005  37.851  18.972   7.159
 3673POPC   C4B49006  37.991  19.110   7.561
 3674POPC   NC349007   9.487   0.783   5.477
 3674POPC   PO449008   9.743   0.137   5.222
 3674POPC   GL149009   9.860   0.444   5.581
 3674POPC   GL249010   9.993   0.795   5.638
 3674POPC   C1A49011   9.769   0.490   6.050
 3674POPC   D2A49012   9.772   0.311   6.483
 3674POPC   C3A49013   9.843   0.497   6.901
 3674POPC   C4A49014   9.656   0.416   7.324
 3674POPC   C1B49015  10.205   0.739   6.073
 3674POPC   C2B49016  10.038   0.805   6.500
 3674POPC   C3B49017   9.969   0.984   6.918
 3674POPC   C4B49018   9.889   0.867   7.362
 3675POPC   NC349019   3.139   8.206   5.285
 3675POPC   PO449020   2.660   8.492   5.488
 3675POPC   GL149021   2.997   8.343   5.761
 3675POPC   GL249022   2.984   7.953   5.748
 3675POPC   C1A49023   2.931   8.411   6.196
 3675POPC   D2A49024   2.577   8.354   6.440
 3675POPC   C3A49025   2.615   8.432   6.878
 3675POPC   C4A49026   2.509   8.256   7.269
 3675POPC   C1B49027   2.874   7.895   6.215
 3675POPC   C2B49028   2.938   8.061   6.654
 3675POPC   C3B49029   2.962   8.074   7.117
 3675POPC   C4B49030   3.231   7.870   7.432
 3676POPC   NC349031   3.310  10.233   5.447
 3676POPC   PO449032   3.487  10.981   5.434
 3676POPC   GL149033   3.685  10.646   5.766
 3676POPC   GL249034   4.047  10.676   5.920
 3676POPC   C1A49035   3.624  10.309   6.125
 3676POPC   D2A49036   3.384  10.179   6.519
 3676POPC   C3A49037   3.574  10.235   6.906
 3676POPC   C4A49038   3.495  10.503   7.214
 3676POPC   C1B49039   3.826  10.768   6.295
 3676POPC   C2B49040   3.665  10.728   6.712
 3676POPC   C3B49041   3.704  10.956   7.095
 3676POPC   C4B49042   3.922  11.131   7.473
 3677POPC   NC349043  37.895   4.383   5.385
 3677POPC   PO449044  37.486   3.872   5.566
 3677POPC   GL149045  37.710   4.218   5.840
 3677POPC   GL249046  37.646   4.602   5.822
 3677POPC   C1A49047  37.961   4.325   6.219
 3677POPC   D2A49048  38.142   4.105   6.577
 3677POPC   C3A49049  38.037   4.210   7.010
 3677POPC   C4A49050  38.013   3.995   7.418
 3677POPC   C1B49051  37.492   4.523   6.264
 3677POPC   C2B49052  37.707   4.547   6.687
 3677POPC   C3B49053  37.678   4.573   7.155
 3677POPC   C4B49054  37.585   4.489   7.599
 3678POPC   NC349055  11.708   4.184   5.587
 3678POPC   PO449056  11.108   4.500   5.446
 3678POPC   GL149057  11.002   4.170   5.745
 3678POPC   GL249058  11.163   3.848   5.680
 3678POPC   C1A49059  11.102   4.211   6.172
 3678POPC   D2A49060  11.022   4.002   6.559
 3678POPC   C3A49061  11.053   4.334   6.862
 3678POPC   C4A49062  11.240   4.348   7.251
 3678POPC   C1B49063  11.391   3.803   6.097
 3678POPC   C2B49064  11.538   3.867   6.555
 3678POPC   C3B49065  11.331   3.890   6.983
 3678POPC   C4B49066  11.541   3.845   7.394
 3679POPC   NC349067  35.933  24.004   5.659
 3679POPC   PO449068  36.615  23.783   5.407
 3679POPC   GL149069  36.360  23.745   5.794
 3679POPC   GL249070  36.203  23.447   5.848
 3679POPC   C1A49071  36.118  23.808   6.234
 3679POPC   D2A49072  35.875  23.733   6.613
 3679POPC   C3A49073  36.123  23.803   6.990
 3679POPC   C4A49074  36.175  24.041   7.384
 3679POPC   C1B49075  35.854  23.361   6.175
 3679POPC   C2B49076  35.643  23.289   6.569
 3679POPC   C3B49077  35.875  23.339   6.957
 3679POPC   C4B49078  35.837  23.127   7.321
 3680POPC   NC349079   1.378   9.636   5.411
 3680POPC   PO449080   1.288   9.063   4.996
 3680POPC   GL149081   1.248   8.997   5.535
 3680POPC   GL249082   1.499   9.198   5.682
 3680POPC   C1A49083   1.236   8.922   6.065
 3680POPC   D2A49084   1.309   8.861   6.549
 3680POPC   C3A49085   1.073   8.953   6.952
 3680POPC   C4A49086   1.133   8.839   7.413
 3680POPC   C1B49087   1.561   9.300   6.102
 3680POPC   C2B49088   1.548   9.296   6.516
 3680POPC   C3B49089   1.540   9.431   6.912
 3680POPC   C4B49090   1.450   9.182   7.226
 3681POPC   NC349091  22.154  10.171   5.364
 3681POPC   PO449092  22.370  10.782   5.647
 3681POPC   GL149093  22.124  10.517   5.887
 3681POPC   GL249094  22.099  10.788   6.079
 3681POPC   C1A49095  22.078  10.271   6.271
 3681POPC   D2A49096  22.222  10.196   6.681
 3681POPC   C3A49097  22.292  10.571   6.903
 3681POPC   C4A49098  22.286  10.783   7.280
 3681POPC   C1B49099  21.801  10.683   6.342
 3681POPC   C2B49100  21.815  10.498   6.747
 3681POPC   C3B49101  21.883  10.447   7.214
 3681POPC   C4B49102  21.881  10.543   7.697
 3682POPC   NC349103  20.873   8.704   5.383
 3682POPC   PO449104  21.232   9.213   5.353
 3682POPC   GL149105  21.373   8.982   5.678
 3682POPC   GL249106  21.077   9.032   5.839
 3682POPC   C1A49107  21.594   9.074   6.061
 3682POPC   D2A49108  21.672   9.294   6.446
 3682POPC   C3A49109  21.493   9.098   6.806
 3682POPC   C4A49110  21.502   8.826   7.156
 3682POPC   C1B49111  21.170   8.869   6.274
 3682POPC   C2B49112  21.214   8.680   6.697
 3682POPC   C3B49113  21.036   8.625   7.126
 3682POPC   C4B49114  21.187   8.662   7.564
 3683POPC   NC349115  14.322  21.788   5.420
 3683POPC   PO449116  14.124  22.390   5.559
 3683POPC   GL149117  14.227  22.099   5.850
 3683POPC   GL249118  14.581  22.054   5.855
 3683POPC   C1A49119  14.271  22.200   6.273
 3683POPC   D2A49120  14.558  22.063   6.553
 3683POPC   C3A49121  14.306  22.134   6.908
 3683POPC   C4A49122  14.426  22.231   7.329
 3683POPC   C1B49123  14.717  22.432   6.146
 3683POPC   C2B49124  14.854  22.481   6.594
 3683POPC   C3B49125  14.809  22.227   6.968
 3683POPC   C4B49126  14.654  21.817   7.134
 3684POPC   NC349127   8.621  30.168   5.351
 3684POPC   PO449128   8.077  29.844   5.563
 3684POPC   GL149129   8.289  29.659   5.853
 3684POPC   GL249130   8.634  29.697   5.791
 3684POPC   C1A49131   8.226  29.661   6.252
 3684POPC   D2A49132   8.220  29.902   6.572
 3684POPC   C3A49133   8.046  29.733   6.893
 3684POPC   C4A49134   8.180  29.777   7.262
 3684POPC   C1B49135   8.542  30.064   6.100
 3684POPC   C2B49136   8.612  30.234   6.532
 3684POPC   C3B49137   8.564  30.027   6.931
 3684POPC   C4B49138   8.742  29.895   7.289
 3685POPC   NC349139  33.026  44.734   5.258
 3685POPC   PO449140  32.505  44.448   5.488
 3685POPC   GL149141  32.879  44.526   5.811
 3685POPC   GL249142  33.124  44.243   5.918
 3685POPC   C1A49143  33.072  44.659   6.232
 3685POPC   D2A49144  32.945  44.809   6.658
 3685POPC   C3A49145  33.186  44.857   7.066
 3685POPC   C4A49146  32.991   0.114   7.422
 3685POPC   C1B49147  32.782  44.230   6.233
 3685POPC   C2B49148  32.672  44.360   6.652
 3685POPC   C3B49149  32.878  44.449   7.032
 3685POPC   C4B49150  33.291  44.335   7.213
 3686POPC   NC349151  35.731  13.060   5.309
 3686POPC   PO449152  36.127  12.587   5.151
 3686POPC   GL149153  36.111  12.765   5.556
 3686POPC   GL249154  36.211  12.523   5.792
 3686POPC   C1A49155  35.893  12.913   5.949
 3686POPC   D2A49156  35.792  12.861   6.388
 3686POPC   C3A49157  35.788  13.061   6.779
 3686POPC   C4A49158  36.113  13.135   7.100
 3686POPC   C1B49159  36.274  12.677   6.220
 3686POPC   C2B49160  36.330  12.618   6.674
 3686POPC   C3B49161  36.036  12.622   7.000
 3686POPC   C4B49162  36.057  12.636   7.452
 3687POPC   NC349163  26.393  23.873   5.157
 3687POPC   PO449164  26.924  23.932   5.531
 3687POPC   GL149165  26.932  23.591   5.864
 3687POPC   GL249166  26.655  23.316   5.869
 3687POPC   C1A49167  27.181  23.666   6.250
 3687POPC   D2A49168  27.066  23.868   6.623
 3687POPC   C3A49169  27.142  23.682   7.009
 3687POPC   C4A49170  26.995  23.895   7.363
 3687POPC   C1B49171  26.738  23.406   6.316
 3687POPC   C2B49172  26.710  23.503   6.747
 3687POPC   C3B49173  26.662  23.894   6.959
 3687POPC   C4B49174  26.328  24.042   7.166
 3688POPC   NC349175   8.397  15.229   5.456
 3688POPC   PO449176   8.545  14.576   5.499
 3688POPC   GL149177   8.494  14.880   5.852
 3688POPC   GL249178   8.324  15.199   5.957
 3688POPC   C1A49179   8.380  14.798   6.270
 3688POPC   D2A49180   8.093  14.756   6.598
 3688POPC   C3A49181   8.298  14.835   6.967
 3688POPC   C4A49182   8.117  14.899   7.331
 3688POPC   C1B49183   8.021  15.180   6.301
 3688POPC   C2B49184   8.121  15.305   6.714
 3688POPC   C3B49185   8.034  15.352   7.148
 3688POPC   C4B49186   8.263  15.353   7.549
 3689POPC   NC349187  19.526  43.736   5.343
 3689POPC   PO449188  20.219  43.986   5.333
 3689POPC   GL149189  20.001  43.980   5.713
 3689POPC   GL249190  19.896  43.626   5.713
 3689POPC   C1A49191  19.971  43.980   6.161
 3689POPC   D2A49192  19.849  44.142   6.578
 3689POPC   C3A49193  19.927  43.870   6.895
 3689POPC   C4A49194  19.903  44.030   7.275
 3689POPC   C1B49195  19.619  43.559   6.041
 3689POPC   C2B49196  19.634  43.706   6.436
 3689POPC   C3B49197  19.484  43.626   6.817
 3689POPC   C4B49198  19.615  43.615   7.229
 3690POPC   NC349199  25.280  12.249   5.047
 3690POPC   PO449200  25.486  11.829   5.464
 3690POPC   GL149201  25.240  12.011   5.795
 3690POPC   GL249202  25.048  12.365   5.778
 3690POPC   C1A49203  25.495  11.965   6.169
 3690POPC   D2A49204  25.481  11.751   6.554
 3690POPC   C3A49205  25.240  11.949   6.878
 3690POPC   C4A49206  25.361  11.977   7.289
 3690POPC   C1B49207  24.892  12.344   6.235
 3690POPC   C2B49208  24.866  12.358   6.720
 3690POPC   C3B49209  25.063  12.372   7.164
 3690POPC   C4B49210  25.361  12.442   7.513
 3691POPC   NC349211  36.367  43.786   5.472
 3691POPC   PO449212  35.729  43.802   5.505
 3691POPC   GL149213  35.822  43.934   5.887
 3691POPC   GL249214  36.142  43.712   5.933
 3691POPC   C1A49215  35.937  43.989   6.301
 3691POPC   D2A49216  36.202  43.800   6.590
 3691POPC   C3A49217  35.997  43.859   6.953
 3691POPC   C4A49218  35.842  44.217   7.199
 3691POPC   C1B49219  36.502  43.590   6.213
 3691POPC   C2B49220  36.510  43.338   6.603
 3691POPC   C3B49221  36.464  43.553   6.986
 3691POPC   C4B49222  36.449  43.858   7.291
 3692POPC   NC349223   8.027  31.993   5.475
 3692POPC   PO449224   7.889  31.343   5.400
 3692POPC   GL149225   8.184  31.414   5.743
 3692POPC   GL249226   8.037  31.675   5.867
 3692POPC   C1A49227   8.109  31.223   6.158
 3692POPC   D2A49228   7.862  31.384   6.471
 3692POPC   C3A49229   7.965  31.386   6.890
 3692POPC   C4A49230   8.252  31.243   7.178
 3692POPC   C1B49231   8.047  31.804   6.245
 3692POPC   C2B49232   8.265  31.781   6.558
 3692POPC   C3B49233   8.230  31.827   6.923
 3692POPC   C4B49234   8.230  31.751   7.255
 3693POPC   NC349235  28.831  26.364   5.600
 3693POPC   PO449236  29.384  26.603   5.621
 3693POPC   GL149237  29.075  26.788   5.847
 3693POPC   GL249238  29.264  27.076   5.914
 3693POPC   C1A49239  28.836  26.757   6.224
 3693POPC   D2A49240  29.010  26.645   6.625
 3693POPC   C3A49241  29.006  26.796   7.006
 3693POPC   C4A49242  29.377  26.699   7.268
 3693POPC   C1B49243  29.310  26.999   6.356
 3693POPC   C2B49244  29.310  27.264   6.732
 3693POPC   C3B49245  29.382  27.204   7.167
 3693POPC   C4B49246  29.056  27.057   7.429
 3694POPC   NC349247   6.478  13.839   4.967
 3694POPC   PO449248   6.875  13.575   5.258
 3694POPC   GL149249   6.693  13.463   5.784
 3694POPC   GL249250   6.387  13.643   5.864
 3694POPC   C1A49251   6.588  13.307   6.204
 3694POPC   D2A49252   6.737  13.444   6.604
 3694POPC   C3A49253   6.457  13.553   6.948
 3694POPC   C4A49254   6.683  13.405   7.270
 3694POPC   C1B49255   6.644  13.812   6.196
 3694POPC   C2B49256   6.736  14.033   6.536
 3694POPC   C3B49257   6.874  13.852   6.900
 3694POPC   C4B49258   6.733  13.895   7.277
 3695POPC   NC349259  36.554  30.903   5.547
 3695POPC   PO449260  36.901  30.410   5.242
 3695POPC   GL149261  36.964  30.569   5.659
 3695POPC   GL249262  37.180  30.360   5.830
 3695POPC   C1A49263  37.090  30.858   6.031
 3695POPC   D2A49264  37.194  30.885   6.499
 3695POPC   C3A49265  36.942  30.998   6.858
 3695POPC   C4A49266  36.976  30.902   7.279
 3695POPC   C1B49267  36.813  30.452   6.146
 3695POPC   C2B49268  36.764  30.616   6.561
 3695POPC   C3B49269  36.938  30.496   6.976
 3695POPC   C4B49270  36.663  30.492   7.360
 3696POPC   NC349271   3.140  15.067   5.521
 3696POPC   PO449272   3.629  15.550   5.242
 3696POPC   GL149273   3.642  15.232   5.657
 3696POPC   GL249274   3.375  15.206   5.931
 3696POPC   C1A49275   3.818  15.309   6.120
 3696POPC   D2A49276   3.585  15.355   6.512
 3696POPC   C3A49277   3.762  15.334   6.919
 3696POPC   C4A49278   3.879  15.513   7.289
 3696POPC   C1B49279   3.122  15.360   6.261
 3696POPC   C2B49280   3.082  15.162   6.643
 3696POPC   C3B49281   3.186  15.198   7.060
 3696POPC   C4B49282   3.139  15.433   7.434
 3697POPC   NC349283  31.549  28.643   5.487
 3697POPC   PO449284  30.989  28.255   5.539
 3697POPC   GL149285  31.267  28.382   5.857
 3697POPC   GL249286  31.599  28.210   5.834
 3697POPC   C1A49287  31.305  28.221   6.273
 3697POPC   D2A49288  31.515  28.281   6.670
 3697POPC   C3A49289  31.366  28.181   7.083
 3697POPC   C4A49290  31.196  28.348   7.488
 3697POPC   C1B49291  31.745  28.481   6.186
 3697POPC   C2B49292  31.935  28.595   6.597
 3697POPC   C3B49293  31.820  28.517   7.028
 3697POPC   C4B49294  31.721  28.357   7.432
 3698POPC   NC349295  18.646  28.732   5.547
 3698POPC   PO449296  19.095  29.295   5.573
 3698POPC   GL149297  19.090  28.962   5.846
 3698POPC   GL249298  18.763  28.976   6.020
 3698POPC   C1A49299  19.225  28.868   6.247
 3698POPC   D2A49300  18.933  28.924   6.586
 3698POPC   C3A49301  19.081  28.973   7.016
 3698POPC   C4A49302  18.768  28.813   7.286
 3698POPC   C1B49303  19.015  29.338   6.285
 3698POPC   C2B49304  19.006  29.424   6.751
 3698POPC   C3B49305  18.989  29.586   7.119
 3698POPC   C4B49306  18.833  29.341   7.420
 3699POPC   NC349307  26.610   3.027   5.504
 3699POPC   PO449308  26.973   2.476   5.563
 3699POPC   GL149309  26.819   2.722   5.886
 3699POPC   GL249310  26.989   3.010   5.829
 3699POPC   C1A49311  26.793   2.751   6.321
 3699POPC   D2A49312  26.845   2.944   6.689
 3699POPC   C3A49313  26.647   2.668   6.932
 3699POPC   C4A49314  26.491   2.575   7.307
 3699POPC   C1B49315  26.950   3.213   6.224
 3699POPC   C2B49316  27.161   3.362   6.580
 3699POPC   C3B49317  27.272   3.085   6.913
 3699POPC   C4B49318  26.937   2.952   7.239
 3700POPC   NC349319   1.340  19.938   5.345
 3700POPC   PO449320   0.895  20.393   5.574
 3700POPC   GL149321   1.138  20.076   5.844
 3700POPC   GL249322   1.281  19.716   5.801
 3700POPC   C1A49323   1.030  19.855   6.255
 3700POPC   D2A49324   1.035  19.444   6.517
 3700POPC   C3A49325   1.057  19.559   6.959
 3700POPC   C4A49326   1.180  19.987   7.067
 3700POPC   C1B49327   1.467  19.590   6.220
 3700POPC   C2B49328   1.404  19.805   6.644
 3700POPC   C3B49329   1.553  19.651   7.104
 3700POPC   C4B49330   1.519  19.647   7.615
 3701POPC   NC349331  22.847   1.503   5.372
 3701POPC   PO449332  23.228   1.987   5.651
 3701POPC   GL149333  22.987   1.862   5.939
 3701POPC   GL249334  22.686   1.755   5.814
 3701POPC   C1A49335  22.903   1.680   6.307
 3701POPC   D2A49336  22.930   1.965   6.631
 3701POPC   C3A49337  23.305   2.123   6.786
 3701POPC   C4A49338  23.112   2.044   7.140
 3701POPC   C1B49339  22.581   2.088   6.172
 3701POPC   C2B49340  22.491   2.262   6.600
 3701POPC   C3B49341  22.574   2.099   7.004
 3701POPC   C4B49342  22.656   2.365   7.345
 3702POPC   NC349343   0.288  14.054   5.383
 3702POPC   PO449344   0.630  14.584   5.263
 3702POPC   GL149345   0.544  14.462   5.705
 3702POPC   GL249346   0.215  14.360   5.778
 3702POPC   C1A49347   0.678  14.323   6.126
 3702POPC   D2A49348   0.559  14.206   6.569
 3702POPC   C3A49349   0.715  14.399   6.975
 3702POPC   C4A49350   0.591  14.333   7.426
 3702POPC   C1B49351   0.151  14.258   6.213
 3702POPC   C2B49352   0.042  14.305   6.652
 3702POPC   C3B49353   0.207  14.428   7.040
 3702POPC   C4B49354   0.127  14.625   7.428
 3703POPC   NC349355  36.316  12.218   5.378
 3703POPC   PO449356  35.891  11.717   5.583
 3703POPC   GL149357  36.022  12.033   5.806
 3703POPC   GL249358  36.367  12.033   5.845
 3703POPC   C1A49359  35.877  12.287   6.117
 3703POPC   D2A49360  35.909  12.398   6.516
 3703POPC   C3A49361  35.923  12.126   6.814
 3703POPC   C4A49362  35.838  12.186   7.218
 3703POPC   C1B49363  36.346  12.176   6.231
 3703POPC   C2B49364  36.408  12.098   6.621
 3703POPC   C3B49365  36.683  12.254   6.901
 3703POPC   C4B49366  36.338  12.228   7.162
 3704POPC   NC349367  20.399  34.817   5.590
 3704POPC   PO449368  20.912  34.418   5.337
 3704POPC   GL149369  20.728  34.460   5.766
 3704POPC   GL249370  20.703  34.793   5.993
 3704POPC   C1A49371  20.521  34.337   6.154
 3704POPC   D2A49372  20.672  34.426   6.555
 3704POPC   C3A49373  20.451  34.404   6.925
 3704POPC   C4A49374  20.639  34.290   7.296
 3704POPC   C1B49375  20.864  34.892   6.416
 3704POPC   C2B49376  20.714  34.868   6.857
 3704POPC   C3B49377  20.898  34.789   7.278
 3704POPC   C4B49378  20.913  35.004   7.712
 3705POPC   NC349379  36.734  21.388   5.320
 3705POPC   PO449380  37.284  21.100   5.607
 3705POPC   GL149381  36.930  21.238   5.803
 3705POPC   GL249382  36.820  21.566   5.808
 3705POPC   C1A49383  36.918  21.280   6.248
 3705POPC   D2A49384  37.177  21.253   6.628
 3705POPC   C3A49385  36.876  21.198   6.974
 3705POPC   C4A49386  36.499  21.081   7.173
 3705POPC   C1B49387  37.080  21.747   6.171
 3705POPC   C2B49388  37.120  21.962   6.574
 3705POPC   C3B49389  37.067  21.671   6.913
 3705POPC   C4B49390  36.936  21.646   7.301
 3706POPC   NC349391  43.337  38.702   5.535
 3706POPC   PO449392  43.824  39.058   5.279
 3706POPC   GL149393  43.718  39.070   5.730
 3706POPC   GL249394  44.044  38.917   5.799
 3706POPC   C1A49395  43.713  39.372   6.150
 3706POPC   D2A49396  43.820  39.514   6.611
 3706POPC   C3A49397  44.130  39.481   7.007
 3706POPC   C4A49398  44.093  39.512   7.505
 3706POPC   C1B49399  43.889  38.909   6.184
 3706POPC   C2B49400  43.692  39.002   6.538
 3706POPC   C3B49401  43.823  38.887   6.928
 3706POPC   C4B49402  43.945  39.065   7.276
 3707POPC   NC349403  24.016  21.020   5.563
 3707POPC   PO449404  23.358  21.332   5.550
 3707POPC   GL149405  23.743  21.470   5.781
 3707POPC   GL249406  23.770  21.195   5.969
 3707POPC   C1A49407  23.939  21.627   6.210
 3707POPC   D2A49408  23.742  21.679   6.633
 3707POPC   C3A49409  23.820  21.721   7.080
 3707POPC   C4A49410  23.853  21.570   7.503
 3707POPC   C1B49411  23.951  21.131   6.364
 3707POPC   C2B49412  23.697  21.180   6.709
 3707POPC   C3B49413  23.757  21.167   7.142
 3707POPC   C4B49414  24.107  20.872   7.094
 3708POPC   NC349415  42.095   8.325   5.488
 3708POPC   PO449416  42.726   7.925   5.474
 3708POPC   GL149417  42.410   8.083   5.789
 3708POPC   GL249418  42.265   8.400   5.962
 3708POPC   C1A49419  42.338   7.951   6.184
 3708POPC   D2A49420  42.188   7.971   6.583
 3708POPC   C3A49421  42.519   8.126   6.826
 3708POPC   C4A49422  42.447   8.072   7.247
 3708POPC   C1B49423  42.105   8.422   6.344
 3708POPC   C2B49424  42.279   8.586   6.693
 3708POPC   C3B49425  42.240   8.596   7.097
 3708POPC   C4B49426  42.456   8.791   7.377
 3709POPC   NC349427   9.986  11.907   5.550
 3709POPC   PO449428   9.313  11.727   5.501
 3709POPC   GL149429   9.550  11.946   5.817
 3709POPC   GL249430   9.738  11.659   5.950
 3709POPC   C1A49431   9.816  12.083   6.211
 3709POPC   D2A49432   9.856  11.990   6.630
 3709POPC   C3A49433   9.876  12.327   6.894
 3709POPC   C4A49434  10.083  12.318   7.266
 3709POPC   C1B49435   9.405  11.743   6.250
 3709POPC   C2B49436   9.333  11.811   6.644
 3709POPC   C3B49437   9.446  12.028   6.978
 3709POPC   C4B49438   9.678  12.018   7.326
 3710POPC   NC349439  13.296  26.813   5.112
 3710POPC   PO449440  12.713  26.685   5.424
 3710POPC   GL149441  12.618  26.792   5.797
 3710POPC   GL249442  12.801  26.486   5.899
 3710POPC   C1A49443  12.780  26.929   6.187
 3710POPC   D2A49444  12.884  27.132   6.550
 3710POPC   C3A49445  13.043  26.889   6.887
 3710POPC   C4A49446  13.006  27.099   7.280
 3710POPC   C1B49447  12.471  26.506   6.209
 3710POPC   C2B49448  12.386  26.661   6.627
 3710POPC   C3B49449  12.356  26.584   7.071
 3710POPC   C4B49450  12.748  26.680   7.246
 3711POPC   NC349451  27.537  28.151   5.230
 3711POPC   PO449452  27.394  28.650   5.602
 3711POPC   GL149453  27.660  28.488   5.925
 3711POPC   GL249454  27.814  28.191   5.821
 3711POPC   C1A49455  27.611  28.435   6.386
 3711POPC   D2A49456  27.300  28.638   6.721
 3711POPC   C3A49457  27.322  28.549   7.142
 3711POPC   C4A49458  27.659  28.436   7.427
 3711POPC   C1B49459  28.093  28.311   6.171
 3711POPC   C2B49460  28.104  28.463   6.600
 3711POPC   C3B49461  27.745  28.361   6.868
 3711POPC   C4B49462  27.582  28.063   7.090
 3712POPC   NC349463  17.891  20.017   5.496
 3712POPC   PO449464  18.413  19.555   5.367
 3712POPC   GL149465  18.386  19.760   5.770
 3712POPC   GL249466  18.034  19.667   5.827
 3712POPC   C1A49467  18.268  19.922   6.207
 3712POPC   D2A49468  18.107  20.088   6.601
 3712POPC   C3A49469  18.229  19.923   7.009
 3712POPC   C4A49470  18.504  20.059   7.362
 3712POPC   C1B49471  17.829  19.625   6.203
 3712POPC   C2B49472  17.964  19.584   6.621
 3712POPC   C3B49473  17.782  19.619   7.004
 3712POPC   C4B49474  17.814  19.516   7.437
 3713POPC   NC349475  44.259  21.758   5.509
 3713POPC   PO449476  43.629  21.935   5.553
 3713POPC   GL149477  43.771  21.589   5.819
 3713POPC   GL249478  44.020  21.327   5.688
 3713POPC   C1A49479  43.995  21.540   6.213
 3713POPC   D2A49480  44.165  21.504   6.633
 3713POPC   C3A49481  43.952  21.696   6.962
 3713POPC   C4A49482  43.782  21.624   7.357
 3713POPC   C1B49483  44.105  21.045   6.043
 3713POPC   C2B49484  44.040  21.033   6.492
 3713POPC   C3B49485  43.832  21.176   6.889
 3713POPC   C4B49486  44.060  21.231   7.268
 3714POPC   NC349487  11.674  25.198   5.541
 3714POPC   PO449488  11.143  25.550   5.784
 3714POPC   GL149489  11.211  25.193   5.945
 3714POPC   GL249490  11.538  25.219   6.022
 3714POPC   C1A49491  11.204  25.209   6.396
 3714POPC   D2A49492  11.060  24.952   6.663
 3714POPC   C3A49493  11.187  25.111   7.019
 3714POPC   C4A49494  11.364  25.023   7.354
 3714POPC   C1B49495  11.578  25.564   6.301
 3714POPC   C2B49496  11.761  25.687   6.701
 3714POPC   C3B49497  11.594  25.432   7.019
 3714POPC   C4B49498  11.718  25.366   7.418
 3715POPC   NC349499  32.686  36.956   5.404
 3715POPC   PO449500  33.265  37.284   5.245
 3715POPC   GL149501  33.036  37.130   5.721
 3715POPC   GL249502  32.732  37.163   5.882
 3715POPC   C1A49503  33.044  36.883   6.152
 3715POPC   D2A49504  33.170  36.984   6.598
 3715POPC   C3A49505  32.949  36.757   6.957
 3715POPC   C4A49506  33.208  36.610   7.304
 3715POPC   C1B49507  32.805  37.372   6.260
 3715POPC   C2B49508  33.058  37.496   6.614
 3715POPC   C3B49509  32.963  37.270   7.008
 3715POPC   C4B49510  32.543  37.332   7.209
 3716POPC   NC349511   6.673  13.892   5.542
 3716POPC   PO449512   6.619  14.536   5.325
 3716POPC   GL149513   6.575  14.413   5.747
 3716POPC   GL249514   6.312  14.620   5.833
 3716POPC   C1A49515   6.845  14.371   6.140
 3716POPC   D2A49516   7.089  14.443   6.529
 3716POPC   C3A49517   6.831  14.384   6.895
 3716POPC   C4A49518   6.662  14.396   7.293
 3716POPC   C1B49519   6.282  14.756   6.220
 3716POPC   C2B49520   6.515  14.661   6.564
 3716POPC   C3B49521   6.339  14.594   6.961
 3716POPC   C4B49522   6.368  14.815   7.367
 3717POPC   NC349523  44.416  35.408   5.412
 3717POPC   PO449524  44.984  35.752   5.491
 3717POPC   GL149525  44.663  35.602   5.814
 3717POPC   GL249526  44.765  35.283   5.841
 3717POPC   C1A49527  44.520  35.444   6.250
 3717POPC   D2A49528  44.671  35.314   6.661
 3717POPC   C3A49529  44.475  35.363   7.054
 3717POPC   C4A49530  44.673  35.428   7.450
 3717POPC   C1B49531  44.975  35.204   6.252
 3717POPC   C2B49532   0.136  35.136   6.726
 3717POPC   C3B49533  44.998  35.052   7.186
 3717POPC   C4B49534  44.973  35.089   7.669
 3718POPC   NC349535  17.438  44.659   5.400
 3718POPC   PO449536  18.076   0.022   5.424
 3718POPC   GL149537  17.894  44.806   5.828
 3718POPC   GL249538  17.570  44.586   5.875
 3718POPC   C1A49539  17.742  44.833   6.290
 3718POPC   D2A49540  17.483   0.021   6.629
 3718POPC   C3A49541  17.690  44.897   7.024
 3718POPC   C4A49542  17.832  44.464   7.124
 3718POPC   C1B49543  17.478  44.390   6.273
 3718POPC   C2B49544  17.581  44.506   6.680
 3718POPC   C3B49545  17.354  44.481   7.031
 3718POPC   C4B49546  16.970  44.419   7.071
 3719POPC   NC349547  44.023  40.178   5.413
 3719POPC   PO449548  43.616  39.570   5.496
 3719POPC   GL149549  43.559  39.821   5.845
 3719POPC   GL249550  43.492  40.150   5.753
 3719POPC   C1A49551  43.718  39.894   6.229
 3719POPC   D2A49552  43.973  40.021   6.569
 3719POPC   C3A49553  43.812  39.892   6.959
 3719POPC   C4A49554  44.090  39.961   7.256
 3719POPC   C1B49555  43.694  40.400   6.084
 3719POPC   C2B49556  43.759  40.507   6.515
 3719POPC   C3B49557  43.879  40.393   6.930
 3719POPC   C4B49558  43.657  40.271   7.301
 3720POPC   NC349559  16.670  21.669   5.483
 3720POPC   PO449560  16.994  21.129   5.441
 3720POPC   GL149561  16.861  21.305   5.818
 3720POPC   GL249562  16.981  21.624   5.901
 3720POPC   C1A49563  16.834  21.244   6.242
 3720POPC   D2A49564  16.923  21.375   6.619
 3720POPC   C3A49565  16.627  21.232   6.890
 3720POPC   C4A49566  16.869  21.328   7.202
 3720POPC   C1B49567  16.718  21.741   6.264
 3720POPC   C2B49568  16.498  21.661   6.625
 3720POPC   C3B49569  16.542  21.718   7.066
 3720POPC   C4B49570  16.950  21.862   7.176
 3721POPC   NC349571  29.679  24.037   5.213
 3721POPC   PO449572  30.019  24.619   5.358
 3721POPC   GL149573  29.828  24.525   5.759
 3721POPC   GL249574  30.147  24.447   5.891
 3721POPC   C1A49575  29.732  24.477   6.225
 3721POPC   D2A49576  29.973  24.535   6.631
 3721POPC   C3A49577  29.691  24.469   6.980
 3721POPC   C4A49578  29.318  24.350   7.179
 3721POPC   C1B49579  30.126  24.160   6.252
 3721POPC   C2B49580  30.275  24.061   6.657
 3721POPC   C3B49581  30.136  24.234   7.044
 3721POPC   C4B49582  30.092  24.503   7.424
 3722POPC   NC349583  22.384  40.649   5.548
 3722POPC   PO449584  22.054  41.239   5.516
 3722POPC   GL149585  22.009  40.946   5.820
 3722POPC   GL249586  21.890  40.574   5.721
 3722POPC   C1A49587  22.164  41.034   6.233
 3722POPC   D2A49588  22.343  40.714   6.527
 3722POPC   C3A49589  22.300  40.838   6.947
 3722POPC   C4A49590  22.502  40.717   7.307
 3722POPC   C1B49591  21.940  40.589   6.187
 3722POPC   C2B49592  21.808  40.838   6.550
 3722POPC   C3B49593  21.792  40.749   6.988
 3722POPC   C4B49594  22.023  40.634   7.391
 3723POPC   NC349595  27.484  26.569   5.373
 3723POPC   PO449596  27.678  25.954   5.394
 3723POPC   GL149597  27.757  25.970   5.779
 3723POPC   GL249598  27.752  26.338   5.770
 3723POPC   C1A49599  27.752  25.727   6.157
 3723POPC   D2A49600  27.385  25.722   6.465
 3723POPC   C3A49601  27.388  25.901   6.920
 3723POPC   C4A49602  27.721  25.865   7.258
 3723POPC   C1B49603  27.588  26.199   6.190
 3723POPC   C2B49604  27.743  26.070   6.599
 3723POPC   C3B49605  27.750  26.307   6.999
 3723POPC   C4B49606  27.439  26.319   7.361
 3724POPC   NC349607  44.091  22.727   5.335
 3724POPC   PO449608  43.429  22.653   5.393
 3724POPC   GL149609  43.738  22.861   5.740
 3724POPC   GL249610  44.083  22.700   5.841
 3724POPC   C1A49611  43.877  22.994   6.183
 3724POPC   D2A49612  43.646  23.046   6.534
 3724POPC   C3A49613  43.872  23.103   6.952
 3724POPC   C4A49614  43.761  23.180   7.398
 3724POPC   C1B49615  44.154  22.538   6.246
 3724POPC   C2B49616  44.209  22.842   6.577
 3724POPC   C3B49617  44.165  22.679   6.975
 3724POPC   C4B49618  43.922  22.717   7.315
 3725POPC   NC349619  31.335   2.674   5.340
 3725POPC   PO449620  31.845   2.490   5.523
 3725POPC   GL149621  31.463   2.572   5.828
 3725POPC   GL249622  31.222   2.876   5.823
 3725POPC   C1A49623  31.293   2.587   6.282
 3725POPC   D2A49624  31.325   2.449   6.747
 3725POPC   C3A49625  31.332   2.761   7.081
 3725POPC   C4A49626  31.615   2.920   7.410
 3725POPC   C1B49627  31.352   3.099   6.255
 3725POPC   C2B49628  31.383   3.178   6.737
 3725POPC   C3B49629  31.265   3.262   7.186
 3725POPC   C4B49630  31.295   3.228   7.657
 3726POPC   NC349631  34.329  14.851   5.407
 3726POPC   PO449632  34.996  14.720   5.460
 3726POPC   GL149633  34.630  14.567   5.737
 3726POPC   GL249634  34.454  14.209   5.744
 3726POPC   C1A49635  34.533  14.523   6.159
 3726POPC   D2A49636  34.699  14.620   6.548
 3726POPC   C3A49637  34.539  14.561   6.981
 3726POPC   C4A49638  34.876  14.351   7.250
 3726POPC   C1B49639  34.307  14.072   6.171
 3726POPC   C2B49640  34.314  14.215   6.628
 3726POPC   C3B49641  34.433  14.081   7.073
 3726POPC   C4B49642  34.402  14.354   7.462
 3727POPC   NC349643  18.893  29.694   5.436
 3727POPC   PO449644  19.366  30.142   5.328
 3727POPC   GL149645  19.243  29.979   5.697
 3727POPC   GL249646  18.943  30.146   5.708
 3727POPC   C1A49647  19.330  29.857   6.114
 3727POPC   D2A49648  19.378  29.680   6.526
 3727POPC   C3A49649  19.388  29.901   6.933
 3727POPC   C4A49650  19.390  29.756   7.392
 3727POPC   C1B49651  18.829  29.886   6.073
 3727POPC   C2B49652  18.866  29.847   6.525
 3727POPC   C3B49653  18.879  30.067   6.940
 3727POPC   C4B49654  19.136  30.176   7.293
 3728POPC   NC349655  41.674  39.265   5.298
 3728POPC   PO449656  41.138  39.430   5.667
 3728POPC   GL149657  41.491  39.153   5.799
 3728POPC   GL249658  41.826  39.219   5.772
 3728POPC   C1A49659  41.681  38.972   6.186
 3728POPC   D2A49660  41.540  39.154   6.556
 3728POPC   C3A49661  41.656  39.016   6.932
 3728POPC   C4A49662  41.443  38.931   7.310
 3728POPC   C1B49663  41.732  39.494   6.136
 3728POPC   C2B49664  41.904  39.507   6.563
 3728POPC   C3B49665  41.769  39.530   6.985
 3728POPC   C4B49666  41.809  39.740   7.371
 3729POPC   NC349667   3.644  43.203   5.263
 3729POPC   PO449668   3.196  43.611   5.431
 3729POPC   GL149669   3.427  43.322   5.729
 3729POPC   GL249670   3.453  42.956   5.764
 3729POPC   C1A49671   3.633  43.311   6.152
 3729POPC   D2A49672   3.501  43.270   6.600
 3729POPC   C3A49673   3.453  43.489   7.003
 3729POPC   C4A49674   3.268  43.445   7.410
 3729POPC   C1B49675   3.671  42.804   6.180
 3729POPC   C2B49676   3.566  42.774   6.640
 3729POPC   C3B49677   3.476  42.962   7.053
 3729POPC   C4B49678   3.713  43.200   7.362
 3730POPC   NC349679   2.681  36.434   5.219
 3730POPC   PO449680   3.134  35.911   5.191
 3730POPC   GL149681   2.895  36.109   5.589
 3730POPC   GL249682   2.699  36.441   5.725
 3730POPC   C1A49683   2.859  36.104   6.065
 3730POPC   D2A49684   2.846  36.234   6.498
 3730POPC   C3A49685   2.667  35.927   6.772
 3730POPC   C4A49686   2.538  35.941   7.187
 3730POPC   C1B49687   2.524  36.508   6.162
 3730POPC   C2B49688   2.400  36.495   6.595
 3730POPC   C3B49689   2.642  36.406   6.957
 3730POPC   C4B49690   2.595  36.412   7.387
 3731POPC   NC349691  32.058  43.116   5.402
 3731POPC   PO449692  32.466  43.733   5.495
 3731POPC   GL149693  32.316  43.338   5.801
 3731POPC   GL249694  31.933  43.291   5.858
 3731POPC   C1A49695  32.430  43.106   6.184
 3731POPC   D2A49696  32.734  42.934   6.513
 3731POPC   C3A49697  32.615  42.950   6.941
 3731POPC   C4A49698  32.423  43.233   7.185
 3731POPC   C1B49699  31.875  43.076   6.241
 3731POPC   C2B49700  31.884  42.836   6.568
 3731POPC   C3B49701  32.049  43.008   6.903
 3731POPC   C4B49702  31.921  43.135   7.282
 3732POPC   NC349703  13.949   2.135   5.567
 3732POPC   PO449704  14.567   1.896   5.659
 3732POPC   GL149705  14.285   1.966   5.965
 3732POPC   GL249706  13.992   1.740   5.917
 3732POPC   C1A49707  14.468   1.949   6.371
 3732POPC   D2A49708  14.466   2.179   6.744
 3732POPC   C3A49709  14.613   1.885   7.042
 3732POPC   C4A49710  14.610   1.919   7.483
 3732POPC   C1B49711  13.987   1.775   6.379
 3732POPC   C2B49712  14.125   1.804   6.812
 3732POPC   C3B49713  14.152   1.705   7.260
 3732POPC   C4B49714  14.178   1.856   7.713
 3733POPC   NC349715  44.256  23.598   5.042
 3733POPC   PO449716  43.810  23.974   5.406
 3733POPC   GL149717  43.913  23.688   5.783
 3733POPC   GL249718  43.981  23.312   5.769
 3733POPC   C1A49719  44.095  23.550   6.196
 3733POPC   D2A49720  43.941  23.442   6.567
 3733POPC   C3A49721  44.005  23.666   6.921
 3733POPC   C4A49722  44.186  23.690   7.327
 3733POPC   C1B49723  43.599  23.407   6.090
 3733POPC   C2B49724  43.371  23.481   6.485
 3733POPC   C3B49725  43.528  23.487   6.895
 3733POPC   C4B49726  43.661  23.641   7.278
 3734POPC   NC349727  42.820   8.387   5.559
 3734POPC   PO449728  43.389   8.405   5.355
 3734POPC   GL149729  43.226   8.108   5.734
 3734POPC   GL249730  42.886   8.046   5.946
 3734POPC   C1A49731  43.310   8.029   6.183
 3734POPC   D2A49732  43.016   8.048   6.524
 3734POPC   C3A49733  43.136   8.217   6.916
 3734POPC   C4A49734  42.953   8.004   7.235
 3734POPC   C1B49735  42.684   8.363   6.265
 3734POPC   C2B49736  42.809   8.545   6.688
 3734POPC   C3B49737  42.748   8.467   7.141
 3734POPC   C4B49738  42.704   8.290   7.611
 3735POPC   NC349739  12.401  25.246   5.606
 3735POPC   PO449740  13.010  25.262   5.580
 3735POPC   GL149741  12.776  25.071   5.918
 3735POPC   GL249742  13.057  24.945   6.056
 3735POPC   C1A49743  12.651  25.152   6.371
 3735POPC   D2A49744  12.636  24.903   6.758
 3735POPC   C3A49745  12.576  25.201   7.086
 3735POPC   C4A49746  12.777  25.424   7.419
 3735POPC   C1B49747  13.079  25.394   6.207
 3735POPC   C2B49748  13.188  25.539   6.594
 3735POPC   C3B49749  13.077  25.416   7.000
 3735POPC   C4B49750  13.294  25.371   7.391
 3736POPC   NC349751  39.450  38.900   5.306
 3736POPC   PO449752  39.025  39.425   5.473
 3736POPC   GL149753  39.341  39.253   5.753
 3736POPC   GL249754  39.332  38.903   5.863
 3736POPC   C1A49755  39.378  39.354   6.191
 3736POPC   D2A49756  39.191  39.294   6.593
 3736POPC   C3A49757  39.382  39.376   6.995
 3736POPC   C4A49758  39.287  39.254   7.403
 3736POPC   C1B49759  39.095  38.876   6.283
 3736POPC   C2B49760  38.798  38.955   6.658
 3736POPC   C3B49761  38.720  38.845   7.108
 3736POPC   C4B49762  38.968  38.884   7.498
 3737POPC   NC349763  33.369  39.698   5.394
 3737POPC   PO449764  32.912  40.239   5.356
 3737POPC   GL149765  33.114  40.039   5.727
 3737POPC   GL249766  33.491  40.129   5.673
 3737POPC   C1A49767  32.924  39.838   6.146
 3737POPC   D2A49768  32.763  39.568   6.530
 3737POPC   C3A49769  32.854  39.777   6.961
 3737POPC   C4A49770  32.888  40.237   7.145
 3737POPC   C1B49771  33.446  39.993   6.106
 3737POPC   C2B49772  33.244  40.070   6.506
 3737POPC   C3B49773  33.373  40.028   6.937
 3737POPC   C4B49774  33.234  39.947   7.335
 3738POPC   NC349775  27.915  24.622   5.094
 3738POPC   PO449776  27.661  24.524   5.593
 3738POPC   GL149777  27.539  24.516   5.940
 3738POPC   GL249778  27.772  24.273   6.083
 3738POPC   C1A49779  27.613  24.677   6.320
 3738POPC   D2A49780  27.752  24.432   6.671
 3738POPC   C3A49781  27.553  24.628   7.036
 3738POPC   C4A49782  27.646  24.785   7.450
 3738POPC   C1B49783  27.352  24.190   6.263
 3738POPC   C2B49784  27.230  24.371   6.631
 3738POPC   C3B49785  27.221  24.235   7.053
 3738POPC   C4B49786  27.136  24.584   7.346
 3739POPC   NC349787  21.241  27.137   5.208
 3739POPC   PO449788  21.397  27.715   5.488
 3739POPC   GL149789  21.429  27.657   5.854
 3739POPC   GL249790  21.482  27.344   5.850
 3739POPC   C1A49791  21.208  27.621   6.220
 3739POPC   D2A49792  21.211  27.858   6.562
 3739POPC   C3A49793  21.116  27.613   6.894
 3739POPC   C4A49794  21.162  27.700   7.294
 3739POPC   C1B49795  21.679  27.336   6.219
 3739POPC   C2B49796  21.627  27.556   6.589
 3739POPC   C3B49797  21.590  27.432   6.995
 3739POPC   C4B49798  21.628  27.472   7.423
 3740POPC   NC349799   0.997  14.386   5.482
 3740POPC   PO449800   1.720  14.081   5.509
 3740POPC   GL149801   1.409  14.272   5.795
 3740POPC   GL249802   1.089  14.086   5.898
 3740POPC   C1A49803   1.250  14.521   6.144
 3740POPC   D2A49804   0.988  14.532   6.499
 3740POPC   C3A49805   1.226  14.464   6.844
 3740POPC   C4A49806   1.129  14.648   7.217
 3740POPC   C1B49807   1.099  14.036   6.340
 3740POPC   C2B49808   1.002  14.011   6.767
 3740POPC   C3B49809   1.085  14.116   7.205
 3740POPC   C4B49810   1.020  14.105   7.639
 3741POPC   NC349811  34.905  34.231   5.491
 3741POPC   PO449812  35.379  33.642   5.555
 3741POPC   GL149813  35.575  33.713   5.937
 3741POPC   GL249814  35.507  34.045   6.014
 3741POPC   C1A49815  35.402  33.708   6.364
 3741POPC   D2A49816  35.210  33.436   6.647
 3741POPC   C3A49817  35.172  33.397   7.083
 3741POPC   C4A49818  35.472  33.560   7.385
 3741POPC   C1B49819  35.157  34.156   6.292
 3741POPC   C2B49820  35.047  33.938   6.652
 3741POPC   C3B49821  35.253  33.884   7.020
 3741POPC   C4B49822  35.063  33.908   7.415
 3742POPC   NC349823  30.597  21.797   5.471
 3742POPC   PO449824  30.859  21.149   5.567
 3742POPC   GL149825  30.725  21.485   5.855
 3742POPC   GL249826  30.949  21.818   5.846
 3742POPC   C1A49827  30.505  21.458   6.248
 3742POPC   D2A49828  30.313  21.608   6.627
 3742POPC   C3A49829  30.540  21.459   6.978
 3742POPC   C4A49830  30.439  21.429   7.387
 3742POPC   C1B49831  31.013  21.642   6.249
 3742POPC   C2B49832  30.921  21.449   6.633
 3742POPC   C3B49833  31.020  21.628   7.032
 3742POPC   C4B49834  30.862  21.716   7.415
 3743POPC   NC349835  16.180  12.014   5.567
 3743POPC   PO449836  15.767  11.536   5.537
 3743POPC   GL149837  15.846  11.760   5.893
 3743POPC   GL249838  16.172  11.634   5.897
 3743POPC   C1A49839  15.934  11.941   6.310
 3743POPC   D2A49840  16.173  12.113   6.657
 3743POPC   C3A49841  15.909  12.156   6.976
 3743POPC   C4A49842  15.713  11.891   7.265
 3743POPC   C1B49843  16.283  11.517   6.285
 3743POPC   C2B49844  16.120  11.583   6.685
 3743POPC   C3B49845  16.173  11.728   7.098
 3743POPC   C4B49846  16.250  11.886   7.528
 3744POPC   NC349847  34.082  12.943   5.422
 3744POPC   PO449848  33.484  12.939   5.375
 3744POPC   GL149849  33.706  12.970   5.809
 3744POPC   GL249850  34.009  12.767   5.889
 3744POPC   C1A49851  33.769  12.956   6.301
 3744POPC   D2A49852  33.986  12.930   6.735
 3744POPC   C3A49853  33.718  12.973   7.123
 3744POPC   C4A49854  33.556  12.959   7.574
 3744POPC   C1B49855  34.266  12.820   6.268
 3744POPC   C2B49856  34.364  12.568   6.631
 3744POPC   C3B49857  34.128  12.506   7.040
 3744POPC   C4B49858  33.996  12.728   7.456
 3745POPC   NC349859  41.122  43.386   5.349
 3745POPC   PO449860  41.510  43.931   5.240
 3745POPC   GL149861  41.648  43.934   5.724
 3745POPC   GL249862  41.877  43.621   5.783
 3745POPC   C1A49863  41.481  43.844   6.185
 3745POPC   D2A49864  41.219  43.809   6.612
 3745POPC   C3A49865  41.460  43.890   7.037
 3745POPC   C4A49866  41.390  44.048   7.488
 3745POPC   C1B49867  41.993  43.859   6.171
 3745POPC   C2B49868  41.988  43.934   6.620
 3745POPC   C3B49869  41.908  44.186   6.983
 3745POPC   C4B49870  41.869  44.017   7.403
 3746POPC   NC349871  37.905  28.435   5.406
 3746POPC   PO449872  37.294  28.604   5.363
 3746POPC   GL149873  37.548  28.498   5.769
 3746POPC   GL249874  37.861  28.706   5.817
 3746POPC   C1A49875  37.711  28.432   6.207
 3746POPC   D2A49876  37.553  28.452   6.621
 3746POPC   C3A49877  37.804  28.353   6.995
 3746POPC   C4A49878  37.977  27.961   7.170
 3746POPC   C1B49879  37.983  28.899   6.177
 3746POPC   C2B49880  38.107  28.741   6.551
 3746POPC   C3B49881  38.283  28.820   6.927
 3746POPC   C4B49882  37.954  28.862   7.191
 3747POPC   NC349883   9.065   4.175   5.424
 3747POPC   PO449884   8.627   4.641   5.524
 3747POPC   GL149885   8.983   4.511   5.790
 3747POPC   GL249886   8.879   4.146   5.899
 3747POPC   C1A49887   9.248   4.368   6.151
 3747POPC   D2A49888   9.051   4.194   6.522
 3747POPC   C3A49889   9.156   4.367   6.905
 3747POPC   C4A49890   9.020   4.256   7.332
 3747POPC   C1B49891   8.708   4.447   6.214
 3747POPC   C2B49892   8.512   4.348   6.596
 3747POPC   C3B49893   8.659   4.425   6.989
 3747POPC   C4B49894   8.568   4.743   7.281
 3748POPC   NC349895  30.049  17.057   5.344
 3748POPC   PO449896  29.993  17.696   5.368
 3748POPC   GL149897  29.873  17.434   5.697
 3748POPC   GL249898  30.199  17.354   5.825
 3748POPC   C1A49899  29.800  17.453   6.129
 3748POPC   D2A49900  29.947  17.579   6.521
 3748POPC   C3A49901  29.814  17.363   6.860
 3748POPC   C4A49902  29.850  17.314   7.276
 3748POPC   C1B49903  30.279  17.701   6.162
 3748POPC   C2B49904  30.434  17.721   6.602
 3748POPC   C3B49905  30.214  17.637   7.002
 3748POPC   C4B49906  30.235  17.577   7.456
 3749POPC   NC349907  32.185  22.718   5.428
 3749POPC   PO449908  31.882  23.337   5.379
 3749POPC   GL149909  32.027  23.076   5.769
 3749POPC   GL249910  31.889  22.713   5.840
 3749POPC   C1A49911  32.300  23.220   6.123
 3749POPC   D2A49912  32.050  23.274   6.459
 3749POPC   C3A49913  32.211  23.298   6.875
 3749POPC   C4A49914  32.018  23.506   7.218
 3749POPC   C1B49915  32.271  22.705   6.123
 3749POPC   C2B49916  32.383  22.887   6.544
 3749POPC   C3B49917  32.292  22.737   6.958
 3749POPC   C4B49918  32.401  22.568   7.343
 3750POPC   NC349919   0.132  35.315   5.483
 3750POPC   PO449920   0.756  35.523   5.569
 3750POPC   GL149921   0.458  35.429   5.901
 3750POPC   GL249922   0.169  35.586   5.933
 3750POPC   C1A49923   0.437  35.356   6.354
 3750POPC   D2A49924   0.662  35.194   6.715
 3750POPC   C3A49925   0.542  35.360   7.115
 3750POPC   C4A49926   0.665  35.482   7.559
 3750POPC   C1B49927  44.999  35.727   6.286
 3750POPC   C2B49928   0.065  35.790   6.701
 3750POPC   C3B49929   0.012  35.535   7.028
 3750POPC   C4B49930   0.166  35.514   7.409
 3751POPC   NC349931   8.630  20.859   5.036
 3751POPC   PO449932   8.091  20.658   5.320
 3751POPC   GL149933   8.276  20.510   5.734
 3751POPC   GL249934   8.624  20.648   5.816
 3751POPC   C1A49935   8.231  20.433   6.187
 3751POPC   D2A49936   8.177  20.704   6.558
 3751POPC   C3A49937   8.362  20.640   6.953
 3751POPC   C4A49938   8.121  20.492   7.305
 3751POPC   C1B49939   8.511  20.890   6.198
 3751POPC   C2B49940   8.629  21.012   6.627
 3751POPC   C3B49941   8.496  21.155   7.049
 3751POPC   C4B49942   8.419  20.877   7.428
 3752POPC   NC349943  37.604  10.703   5.374
 3752POPC   PO449944  37.357  10.047   5.367
 3752POPC   GL149945  37.414  10.376   5.726
 3752POPC   GL249946  37.768  10.404   5.823
 3752POPC   C1A49947  37.416  10.565   6.162
 3752POPC   D2A49948  37.480  10.305   6.580
 3752POPC   C3A49949  37.574  10.491   6.991
 3752POPC   C4A49950  37.302  10.527   7.319
 3752POPC   C1B49951  37.871  10.431   6.290
 3752POPC   C2B49952  38.020  10.371   6.698
 3752POPC   C3B49953  38.076  10.497   7.100
 3752POPC   C4B49954  37.905  10.899   7.169
 3753POPC   NC349955  28.306  38.897   5.539
 3753POPC   PO449956  28.647  39.493   5.393
 3753POPC   GL149957  28.368  39.438   5.792
 3753POPC   GL249958  28.521  39.128   5.942
 3753POPC   C1A49959  28.264  39.408   6.280
 3753POPC   D2A49960  28.468  39.128   6.623
 3753POPC   C3A49961  28.280  39.135   7.024
 3753POPC   C4A49962  28.066  39.410   7.292
 3753POPC   C1B49963  28.320  38.801   6.225
 3753POPC   C2B49964  28.522  38.594   6.570
 3753POPC   C3B49965  28.710  38.732   6.944
 3753POPC   C4B49966  28.610  38.920   7.338
 3754POPC   NC349967  43.666  31.164   5.429
 3754POPC   PO449968  44.136  30.752   5.403
 3754POPC   GL149969  44.000  30.792   5.826
 3754POPC   GL249970  43.755  30.576   5.876
 3754POPC   C1A49971  44.075  30.618   6.265
 3754POPC   D2A49972  44.125  30.932   6.556
 3754POPC   C3A49973  44.074  30.864   6.966
 3754POPC   C4A49974  44.086  30.442   7.091
 3754POPC   C1B49975  43.637  30.854   6.244
 3754POPC   C2B49976  43.629  30.843   6.690
 3754POPC   C3B49977  43.617  30.586   7.062
 3754POPC   C4B49978  43.539  30.713   7.477
 3755POPC   NC349979  14.962   9.373   5.088
 3755POPC   PO449980  15.242   9.882   5.450
 3755POPC   GL149981  15.199   9.784   5.869
 3755POPC   GL249982  14.836   9.892   5.889
 3755POPC   C1A49983  15.391   9.581   6.221
 3755POPC   D2A49984  15.226   9.415   6.623
 3755POPC   C3A49985  15.393   9.611   7.026
 3755POPC   C4A49986  15.625   9.610   7.453
 3755POPC   C1B49987  14.891   9.676   6.287
 3755POPC   C2B49988  14.983   9.871   6.686
 3755POPC   C3B49989  14.971   9.871   7.114
 3755POPC   C4B49990  15.134   9.763   7.523
 3756POPC   NC349991  33.895  10.837   5.382
 3756POPC   PO449992  33.740  10.276   5.595
 3756POPC   GL149993  33.864  10.642   5.890
 3756POPC   GL249994  34.205  10.768   5.830
 3756POPC   C1A49995  33.847  10.614   6.353
 3756POPC   D2A49996  34.002  10.472   6.747
 3756POPC   C3A49997  33.668  10.465   7.069
 3756POPC   C4A49998  33.377  10.816   7.207
 3756POPC   C1B49999  34.346  10.648   6.237
 3756POPC   C2B50000  34.507  10.796   6.640
 3756POPC   C3B50001  34.398  10.728   7.072
 3756POPC   C4B50002  34.159  10.389   7.213
 3757POPC   NC350003  35.217  31.819   5.455
 3757POPC   PO450004  35.221  31.192   5.389
 3757POPC   GL150005  35.470  31.417   5.713
 3757POPC   GL250006  35.232  31.596   5.913
 3757POPC   C1A50007  35.701  31.538   6.114
 3757POPC   D2A50008  35.471  31.493   6.482
 3757POPC   C3A50009  35.524  31.532   6.894
 3757POPC   C4A50010  35.271  31.335   7.193
 3757POPC   C1B50011  35.101  31.810   6.282
 3757POPC   C2B50012  35.230  31.916   6.694
 3757POPC   C3B50013  35.049  31.807   7.072
 3757POPC   C4B50014  34.779  31.701   7.369
 3758POPC   NC350015  14.543  13.507   5.514
 3758POPC   PO450016  14.364  14.118   5.528
 3758POPC   GL150017  14.157  13.825   5.768
 3758POPC   GL250018  14.475  13.792   5.938
 3758POPC   C1A50019  14.067  13.758   6.217
 3758POPC   D2A50020  14.378  13.723   6.563
 3758POPC   C3A50021  14.158  13.737   6.951
 3758POPC   C4A50022  14.196  13.951   7.335
 3758POPC   C1B50023  14.434  13.373   6.139
 3758POPC   C2B50024  14.504  13.186   6.519
 3758POPC   C3B50025  14.446  13.319   6.909
 3758POPC   C4B50026  14.444  13.496   7.310
 3759POPC   NC350027  25.420  33.256   5.418
 3759POPC   PO450028  24.817  33.002   5.202
 3759POPC   GL150029  25.002  33.100   5.686
 3759POPC   GL250030  25.350  32.934   5.799
 3759POPC   C1A50031  25.120  33.168   6.179
 3759POPC   D2A50032  25.236  32.940   6.593
 3759POPC   C3A50033  25.214  33.038   7.053
 3759POPC   C4A50034  25.124  33.098   7.514
 3759POPC   C1B50035  25.563  32.860   6.194
 3759POPC   C2B50036  25.784  32.767   6.564
 3759POPC   C3B50037  25.604  32.703   6.944
 3759POPC   C4B50038  25.404  32.690   7.369
 3760POPC   NC350039  34.474  39.964   5.264
 3760POPC   PO450040  34.158  39.503   5.608
 3760POPC   GL150041  34.508  39.786   5.804
 3760POPC   GL250042  34.889  39.851   5.819
 3760POPC   C1A50043  34.604  39.942   6.261
 3760POPC   D2A50044  34.418  39.882   6.717
 3760POPC   C3A50045  34.543  40.106   7.131
 3760POPC   C4A50046  34.625  40.218   7.587
 3760POPC   C1B50047  35.042  39.675   6.221
 3760POPC   C2B50048  34.949  39.877   6.645
 3760POPC   C3B50049  34.961  39.804   7.096
 3760POPC   C4B50050  34.947  39.847   7.536
 3761POPC   NC350051  31.827  27.762   5.352
 3761POPC   PO450052  31.229  27.503   5.622
 3761POPC   GL150053  31.473  27.708   5.957
 3761POPC   GL250054  31.807  27.726   5.868
 3761POPC   C1A50055  31.556  27.789   6.411
 3761POPC   D2A50056  31.243  27.801   6.755
 3761POPC   C3A50057  31.307  27.497   7.102
 3761POPC   C4A50058  31.269  27.470   7.585
 3761POPC   C1B50059  31.976  28.017   6.180
 3761POPC   C2B50060  31.980  28.070   6.649
 3761POPC   C3B50061  31.724  27.807   6.958
 3761POPC   C4B50062  31.750  27.508   7.337
 3762POPC   NC350063  43.266  22.248   5.596
 3762POPC   PO450064  43.213  21.751   5.133
 3762POPC   GL150065  43.158  21.763   5.649
 3762POPC   GL250066  42.892  22.027   5.857
 3762POPC   C1A50067  43.205  21.721   6.127
 3762POPC   D2A50068  43.114  21.688   6.579
 3762POPC   C3A50069  43.236  22.059   6.819
 3762POPC   C4A50070  43.479  21.993   7.174
 3762POPC   C1B50071  43.040  22.408   6.161
 3762POPC   C2B50072  43.250  22.541   6.509
 3762POPC   C3B50073  43.093  22.565   6.868
 3762POPC   C4B50074  43.103  22.394   7.233
 3763POPC   NC350075  32.013  32.762   5.174
 3763POPC   PO450076  32.210  32.197   5.226
 3763POPC   GL150077  32.206  32.253   5.677
 3763POPC   GL250078  31.900  32.189   5.891
 3763POPC   C1A50079  32.385  32.354   6.077
 3763POPC   D2A50080  32.431  32.318   6.524
 3763POPC   C3A50081  32.183  32.116   6.844
 3763POPC   C4A50082  32.090  32.217   7.278
 3763POPC   C1B50083  31.958  32.235   6.352
 3763POPC   C2B50084  31.721  32.260   6.697
 3763POPC   C3B50085  31.733  32.512   7.056
 3763POPC   C4B50086  31.626  32.826   7.378
 3764POPC   NC350087  42.817  34.113   5.433
 3764POPC   PO450088  43.427  33.829   5.355
 3764POPC   GL150089  43.172  33.854   5.762
 3764POPC   GL250090  42.858  33.663   5.835
 3764POPC   C1A50091  43.250  33.674   6.189
 3764POPC   D2A50092  43.024  33.659   6.582
 3764POPC   C3A50093  43.317  33.688   6.904
 3764POPC   C4A50094  43.341  33.675   7.327
 3764POPC   C1B50095  42.824  33.955   6.197
 3764POPC   C2B50096  42.773  34.148   6.625
 3764POPC   C3B50097  42.868  33.932   7.011
 3764POPC   C4B50098  42.890  33.468   7.117
 3765POPC   NC350099  33.661  18.106   5.306
 3765POPC   PO450100  34.062  18.562   5.448
 3765POPC   GL150101  33.745  18.432   5.742
 3765POPC   GL250102  33.740  18.055   5.836
 3765POPC   C1A50103  33.703  18.379   6.205
 3765POPC   D2A50104  33.809  18.089   6.562
 3765POPC   C3A50105  33.656  18.335   6.916
 3765POPC   C4A50106  33.955  18.505   7.202
 3765POPC   C1B50107  33.462  17.914   6.198
 3765POPC   C2B50108  33.318  17.996   6.625
 3765POPC   C3B50109  33.495  17.857   6.978
 3765POPC   C4B50110  33.712  18.007   7.307
 3766POPC   NC350111  38.190  41.066   5.074
 3766POPC   PO450112  38.560  41.468   5.361
 3766POPC   GL150113  38.473  41.595   5.755
 3766POPC   GL250114  38.300  41.283   5.810
 3766POPC   C1A50115  38.425  41.688   6.210
 3766POPC   D2A50116  38.631  41.528   6.596
 3766POPC   C3A50117  38.615  41.715   6.989
 3766POPC   C4A50118  38.522  41.570   7.357
 3766POPC   C1B50119  38.006  41.345   6.141
 3766POPC   C2B50120  38.075  41.482   6.559
 3766POPC   C3B50121  38.194  41.422   6.967
 3766POPC   C4B50122  37.964  41.404   7.325
 3767POPC   NC350123  40.062   4.859   5.529
 3767POPC   PO450124  40.328   5.275   5.082
 3767POPC   GL150125  40.131   5.328   5.673
 3767POPC   GL250126  40.343   5.289   5.948
 3767POPC   C1A50127  39.799   5.117   6.058
 3767POPC   D2A50128  39.776   4.719   6.355
 3767POPC   C3A50129  39.769   4.720   6.804
 3767POPC   C4A50130  39.664   4.993   7.147
 3767POPC   C1B50131  40.265   5.000   6.219
 3767POPC   C2B50132  40.000   5.135   6.531
 3767POPC   C3B50133  40.098   5.124   6.898
 3767POPC   C4B50134  40.105   5.268   7.256
 3768POPC   NC350135  23.851  16.271   5.512
 3768POPC   PO450136  23.726  16.940   5.367
 3768POPC   GL150137  23.750  16.731   5.768
 3768POPC   GL250138  23.443  16.845   5.848
 3768POPC   C1A50139  23.774  16.519   6.196
 3768POPC   D2A50140  23.941  16.619   6.624
 3768POPC   C3A50141  23.870  16.867   6.986
 3768POPC   C4A50142  23.932  16.865   7.447
 3768POPC   C1B50143  23.586  16.968   6.242
 3768POPC   C2B50144  23.466  16.881   6.653
 3768POPC   C3B50145  23.320  17.185   6.922
 3768POPC   C4B50146  23.639  17.268   7.234
 3769POPC   NC350147  18.253  17.691   5.292
 3769POPC   PO450148  17.721  17.786   5.562
 3769POPC   GL150149  17.996  17.748   5.904
 3769POPC   GL250150  18.327  17.639   5.832
 3769POPC   C1A50151  18.068  17.657   6.338
 3769POPC   D2A50152  18.311  17.833   6.667
 3769POPC   C3A50153  18.494  17.677   7.050
 3769POPC   C4A50154  18.581  17.823   7.488
 3769POPC   C1B50155  18.507  17.430   6.233
 3769POPC   C2B50156  18.381  17.316   6.673
 3769POPC   C3B50157  18.197  17.261   7.098
 3769POPC   C4B50158  18.139  17.237   7.561
 3770POPC   NC350159   8.930  14.087   5.531
 3770POPC   PO450160   8.846  13.441   5.502
 3770POPC   GL150161   9.060  13.651   5.803
 3770POPC   GL250162   8.877  13.921   6.016
 3770POPC   C1A50163   9.123  13.464   6.179
 3770POPC   D2A50164   8.885  13.551   6.513
 3770POPC   C3A50165   9.052  13.352   6.859
 3770POPC   C4A50166   9.001  13.504   7.267
 3770POPC   C1B50167   9.327  13.934   6.148
 3770POPC   C2B50168   9.455  13.736   6.514
 3770POPC   C3B50169   9.247  13.813   6.891
 3770POPC   C4B50170   9.334  13.919   7.295
 3771POPC   NC350171  34.978  32.510   5.552
 3771POPC   PO450172  35.563  32.125   5.518
 3771POPC   GL150173  35.360  32.093   5.911
 3771POPC   GL250174  35.013  32.071   5.854
 3771POPC   C1A50175  35.427  32.232   6.334
 3771POPC   D2A50176  35.705  32.524   6.572
 3771POPC   C3A50177  35.757  32.337   6.972
 3771POPC   C4A50178  35.496  32.029   7.129
 3771POPC   C1B50179  34.952  32.334   6.179
 3771POPC   C2B50180  35.140  32.628   6.424
 3771POPC   C3B50181  35.249  32.430   6.813
 3771POPC   C4B50182  35.210  32.483   7.251
 3772POPC   NC350183  40.851  40.882   5.402
 3772POPC   PO450184  40.571  40.379   5.143
 3772POPC   GL150185  40.666  40.475   5.646
 3772POPC   GL250186  40.453  40.389   5.903
 3772POPC   C1A50187  40.698  40.778   6.087
 3772POPC   D2A50188  40.862  41.067   6.455
 3772POPC   C3A50189  40.751  40.933   6.881
 3772POPC   C4A50190  40.848  40.746   7.287
 3772POPC   C1B50191  40.470  40.337   6.330
 3772POPC   C2B50192  40.389  40.627   6.657
 3772POPC   C3B50193  40.433  40.559   7.060
 3772POPC   C4B50194  40.611  40.301   7.361
 3773POPC   NC350195  24.442  37.999   5.359
 3773POPC   PO450196  24.059  37.564   5.090
 3773POPC   GL150197  24.513  37.541   5.526
 3773POPC   GL250198  24.738  37.275   5.703
 3773POPC   C1A50199  24.476  37.573   6.042
 3773POPC   D2A50200  24.671  37.725   6.448
 3773POPC   C3A50201  24.389  37.640   6.801
 3773POPC   C4A50202  24.264  37.788   7.198
 3773POPC   C1B50203  24.878  37.270   6.169
 3773POPC   C2B50204  24.758  37.245   6.619
 3773POPC   C3B50205  24.826  37.476   7.008
 3773POPC   C4B50206  24.574  37.410   7.387
 3774POPC   NC350207  24.009  20.182   5.428
 3774POPC   PO450208  23.557  20.685   5.285
 3774POPC   GL150209  23.550  20.795   5.711
 3774POPC   GL250210  23.746  20.488   5.767
 3774POPC   C1A50211  23.628  20.744   6.187
 3774POPC   D2A50212  23.893  20.629   6.553
 3774POPC   C3A50213  23.657  20.712   6.915
 3774POPC   C4A50214  23.681  20.690   7.360
 3774POPC   C1B50215  23.863  20.267   6.160
 3774POPC   C2B50216  23.904  19.999   6.544
 3774POPC   C3B50217  23.836  20.233   6.914
 3774POPC   C4B50218  23.702  20.163   7.316
 3775POPC   NC350219   2.513  10.514   5.357
 3775POPC   PO450220   3.030  10.250   5.084
 3775POPC   GL150221   2.981  10.579   5.565
 3775POPC   GL250222   2.727  10.811   5.717
 3775POPC   C1A50223   2.870  10.470   6.075
 3775POPC   D2A50224   2.570  10.496   6.470
 3775POPC   C3A50225   2.702  10.537   6.933
 3775POPC   C4A50226   2.601  10.302   7.326
 3775POPC   C1B50227   2.551  10.914   6.141
 3775POPC   C2B50228   2.653  11.004   6.608
 3775POPC   C3B50229   2.568  11.057   7.065
 3775POPC   C4B50230   2.542  10.790   7.418
 3776POPC   NC350231  36.227  31.633   5.409
 3776POPC   PO450232  36.079  30.946   5.434
 3776POPC   GL150233  36.123  31.056   5.859
 3776POPC   GL250234  36.163  31.428   5.891
 3776POPC   C1A50235  36.036  31.154   6.303
 3776POPC   D2A50236  35.984  31.461   6.607
 3776POPC   C3A50237  36.185  31.336   6.978
 3776POPC   C4A50238  36.545  31.189   7.212
 3776POPC   C1B50239  36.250  31.737   6.249
 3776POPC   C2B50240  36.443  31.794   6.684
 3776POPC   C3B50241  36.463  31.713   7.170
 3776POPC   C4B50242  36.229  31.740   7.518
 3777POPC   NC350243   4.031  15.478   5.454
 3777POPC   PO450244   4.529  15.121   5.310
 3777POPC   GL150245   4.386  15.248   5.753
 3777POPC   GL250246   4.100  15.029   5.819
 3777POPC   C1A50247   4.437  15.103   6.194
 3777POPC   D2A50248   4.567  14.929   6.576
 3777POPC   C3A50249   4.473  15.128   6.957
 3777POPC   C4A50250   4.350  15.319   7.343
 3777POPC   C1B50251   4.010  14.839   6.272
 3777POPC   C2B50252   4.045  14.897   6.745
 3777POPC   C3B50253   4.033  14.973   7.208
 3777POPC   C4B50254   3.984  15.165   7.658
 3778POPC   NC350255  35.654  19.729   5.426
 3778POPC   PO450256  36.275  20.032   5.475
 3778POPC   GL150257  36.238  19.917   5.884
 3778POPC   GL250258  35.871  19.934   5.841
 3778POPC   C1A50259  36.419  19.877   6.311
 3778POPC   D2A50260  36.232  19.663   6.661
 3778POPC   C3A50261  36.394  19.797   7.041
 3778POPC   C4A50262  36.733  19.785   7.274
 3778POPC   C1B50263  35.893  19.799   6.255
 3778POPC   C2B50264  35.689  19.890   6.610
 3778POPC   C3B50265  35.888  19.834   6.996
 3778POPC   C4B50266  36.039  19.772   7.412
 3779POPC   NC350267  22.438  44.638   5.471
 3779POPC   PO450268  21.825  44.630   5.313
 3779POPC   GL150269  21.992  44.632   5.797
 3779POPC   GL250270  22.300  44.848   5.889
 3779POPC   C1A50271  22.056  44.691   6.298
 3779POPC   D2A50272  22.269  44.823   6.674
 3779POPC   C3A50273  22.222  44.671   7.092
 3779POPC   C4A50274  22.091  44.892   7.442
 3779POPC   C1B50275  22.533  44.607   6.148
 3779POPC   C2B50276  22.700  44.558   6.534
 3779POPC   C3B50277  22.633  44.404   6.934
 3779POPC   C4B50278  22.765  44.508   7.318
 3780POPC   NC350279  17.198  10.715   5.048
 3780POPC   PO450280  17.675  10.397   5.442
 3780POPC   GL150281  17.579  10.349   5.897
 3780POPC   GL250282  17.421  10.043   5.955
 3780POPC   C1A50283  17.514  10.677   6.220
 3780POPC   D2A50284  17.738  10.784   6.579
 3780POPC   C3A50285  17.623  10.588   6.950
 3780POPC   C4A50286  17.480  10.607   7.352
 3780POPC   C1B50287  17.170  10.314   6.249
 3780POPC   C2B50288  17.222  10.468   6.648
 3780POPC   C3B50289  17.224  10.280   7.059
 3780POPC   C4B50290  17.307  10.133   7.478
 3781POPC   NC350291  42.437  43.944   5.261
 3781POPC   PO450292  42.266  43.346   5.372
 3781POPC   GL150293  42.444  43.631   5.702
 3781POPC   GL250294  42.303  43.960   5.758
 3781POPC   C1A50295  42.437  43.576   6.165
 3781POPC   D2A50296  42.484  43.758   6.575
 3781POPC   C3A50297  42.435  43.576   6.993
 3781POPC   C4A50298  42.300  43.928   7.189
 3781POPC   C1B50299  42.453  44.104   6.181
 3781POPC   C2B50300  42.498  44.357   6.560
 3781POPC   C3B50301  42.452  44.369   7.003
 3781POPC   C4B50302  42.649  44.240   7.396
 3782POPC   NC350303  14.386  22.732   5.325
 3782POPC   PO450304  14.067  23.294   5.496
 3782POPC   GL150305  14.226  22.958   5.801
 3782POPC   GL250306  14.612  22.872   5.779
 3782POPC   C1A50307  14.226  22.738   6.225
 3782POPC   D2A50308  14.141  22.555   6.645
 3782POPC   C3A50309  14.466  22.608   6.973
 3782POPC   C4A50310  14.472  22.727   7.401
 3782POPC   C1B50311  14.578  23.102   6.180
 3782POPC   C2B50312  14.574  22.940   6.611
 3782POPC   C3B50313  14.495  23.115   7.072
 3782POPC   C4B50314  14.303  23.164   7.573
 3783POPC   NC350315  37.999   8.158   5.173
 3783POPC   PO450316  37.574   7.825   5.452
 3783POPC   GL150317  37.773   7.895   5.813
 3783POPC   GL250318  37.724   8.232   5.852
 3783POPC   C1A50319  37.700   7.884   6.225
 3783POPC   D2A50320  37.742   8.191   6.529
 3783POPC   C3A50321  37.819   8.002   6.901
 3783POPC   C4A50322  37.736   8.200   7.260
 3783POPC   C1B50323  37.821   8.558   6.183
 3783POPC   C2B50324  38.011   8.634   6.593
 3783POPC   C3B50325  38.217   8.520   6.994
 3783POPC   C4B50326  38.118   8.521   7.415
 3784POPC   NC350327  20.662  39.679   5.134
 3784POPC   PO450328  20.977  40.252   5.151
 3784POPC   GL150329  21.002  40.139   5.642
 3784POPC   GL250330  20.893  39.813   5.809
 3784POPC   C1A50331  20.965  40.221   6.124
 3784POPC   D2A50332  20.969  39.949   6.523
 3784POPC   C3A50333  20.812  40.113   6.903
 3784POPC   C4A50334  20.442  40.076   7.113
 3784POPC   C1B50335  20.589  39.837   6.174
 3784POPC   C2B50336  20.478  39.838   6.634
 3784POPC   C3B50337  20.681  39.621   7.018
 3784POPC   C4B50338  20.418  39.635   7.419
 3785POPC   NC350339   9.187   6.738   5.394
 3785POPC   PO450340   8.716   6.254   5.465
 3785POPC   GL150341   8.974   6.339   5.800
 3785POPC   GL250342   8.856   6.672   5.781
 3785POPC   C1A50343   9.090   6.507   6.197
 3785POPC   D2A50344   9.044   6.864   6.451
 3785POPC   C3A50345   8.962   6.728   6.867
 3785POPC   C4A50346   9.200   6.517   7.176
 3785POPC   C1B50347   8.567   6.502   6.119
 3785POPC   C2B50348   8.680   6.440   6.552
 3785POPC   C3B50349   8.511   6.438   6.960
 3785POPC   C4B50350   8.706   6.608   7.309
 3786POPC   NC350351  23.276  16.882   5.366
 3786POPC   PO450352  22.702  16.590   5.368
 3786POPC   GL150353  22.955  16.664   5.770
 3786POPC   GL250354  22.933  17.017   5.773
 3786POPC   C1A50355  23.170  16.637   6.230
 3786POPC   D2A50356  23.196  16.451   6.669
 3786POPC   C3A50357  22.815  16.326   6.879
 3786POPC   C4A50358  22.663  16.446   7.285
 3786POPC   C1B50359  22.771  16.963   6.194
 3786POPC   C2B50360  22.853  16.830   6.643
 3786POPC   C3B50361  23.020  16.768   7.059
 3786POPC   C4B50362  23.436  16.762   7.206
 3787POPC   NC350363  12.296  34.234   5.314
 3787POPC   PO450364  11.789  34.712   5.359
 3787POPC   GL150365  11.882  34.633   5.787
 3787POPC   GL250366  11.605  34.440   5.910
 3787POPC   C1A50367  12.137  34.819   6.135
 3787POPC   D2A50368  12.350  34.914   6.544
 3787POPC   C3A50369  12.184  34.729   6.916
 3787POPC   C4A50370  11.853  34.518   7.176
 3787POPC   C1B50371  11.808  34.414   6.271
 3787POPC   C2B50372  11.935  34.357   6.668
 3787POPC   C3B50373  12.193  34.182   7.001
 3787POPC   C4B50374  12.296  34.296   7.412
 3788POPC   NC350375  19.848  40.146   5.478
 3788POPC   PO450376  20.283  39.573   5.390
 3788POPC   GL150377  20.100  39.787   5.800
 3788POPC   GL250378  19.742  39.905   5.919
 3788POPC   C1A50379  20.108  39.985   6.233
 3788POPC   D2A50380  20.125  40.204   6.583
 3788POPC   C3A50381  20.003  39.930   6.897
 3788POPC   C4A50382  20.020  39.956   7.359
 3788POPC   C1B50383  19.559  40.063   6.290
 3788POPC   C2B50384  19.628  40.231   6.700
 3788POPC   C3B50385  19.594  40.130   7.118
 3788POPC   C4B50386  19.393  40.291   7.440
 3789POPC   NC350387   5.059  14.013   5.457
 3789POPC   PO450388   5.466  13.401   5.440
 3789POPC   GL150389   5.210  13.620   5.783
 3789POPC   GL250390   4.883  13.829   5.891
 3789POPC   C1A50391   5.286  13.749   6.212
 3789POPC   D2A50392   5.268  13.554   6.613
 3789POPC   C3A50393   5.474  13.780   6.931
 3789POPC   C4A50394   5.134  13.713   7.168
 3789POPC   C1B50395   4.648  13.852   6.277
 3789POPC   C2B50396   4.818  13.828   6.694
 3789POPC   C3B50397   4.673  13.940   7.091
 3789POPC   C4B50398   4.887  14.014   7.466
 3790POPC   NC350399  21.179  10.379   5.434
 3790POPC   PO450400  21.857  10.536   5.435
 3790POPC   GL150401  21.621  10.634   5.816
 3790POPC   GL250402  21.313  10.822   5.726
 3790POPC   C1A50403  21.398  10.408   6.171
 3790POPC   D2A50404  21.342  10.605   6.586
 3790POPC   C3A50405  21.381  10.388   6.975
 3790POPC   C4A50406  21.077  10.313   7.296
 3790POPC   C1B50407  21.367  10.912   6.178
 3790POPC   C2B50408  21.591  11.059   6.589
 3790POPC   C3B50409  21.564  10.865   7.010
 3790POPC   C4B50410  21.461  10.645   7.397
 3791POPC   NC350411  12.535   2.753   5.513
 3791POPC   PO450412  13.139   2.851   5.252
 3791POPC   GL150413  13.012   2.674   5.706
 3791POPC   GL250414  12.771   2.907   5.913
 3791POPC   C1A50415  12.958   2.537   6.167
 3791POPC   D2A50416  12.893   2.871   6.472
 3791POPC   C3A50417  13.106   2.826   6.856
 3791POPC   C4A50418  13.045   2.593   7.237
 3791POPC   C1B50419  12.480   2.680   6.202
 3791POPC   C2B50420  12.390   2.814   6.607
 3791POPC   C3B50421  12.619   2.711   6.930
 3791POPC   C4B50422  12.425   2.593   7.241
 3792POPC   NC350423  38.904  28.392   5.382
 3792POPC   PO450424  38.271  28.554   5.153
 3792POPC   GL150425  38.349  28.550   5.653
 3792POPC   GL250426  38.657  28.517   5.813
 3792POPC   C1A50427  38.242  28.455   6.137
 3792POPC   D2A50428  38.070  28.222   6.526
 3792POPC   C3A50429  38.310  28.234   6.913
 3792POPC   C4A50430  38.240  28.476   7.299
 3792POPC   C1B50431  38.743  28.437   6.242
 3792POPC   C2B50432  38.557  28.524   6.585
 3792POPC   C3B50433  38.763  28.471   6.948
 3792POPC   C4B50434  38.775  28.465   7.337
 3793POPC   NC350435  12.980   6.076   5.586
 3793POPC   PO450436  12.356   5.829   5.506
 3793POPC   GL150437  12.569   5.874   5.864
 3793POPC   GL250438  12.826   5.635   5.772
 3793POPC   C1A50439  12.764   5.956   6.273
 3793POPC   D2A50440  12.734   6.046   6.718
 3793POPC   C3A50441  13.033   6.116   7.036
 3793POPC   C4A50442  12.706   5.940   7.286
 3793POPC   C1B50443  13.049   5.532   6.146
 3793POPC   C2B50444  13.136   5.698   6.540
 3793POPC   C3B50445  12.977   5.625   6.924
 3793POPC   C4B50446  13.143   5.660   7.289
 3794POPC   NC350447  39.429  18.915   5.337
 3794POPC   PO450448  38.879  18.745   5.630
 3794POPC   GL150449  39.177  19.045   5.756
 3794POPC   GL250450  38.962  19.291   5.835
 3794POPC   C1A50451  39.431  19.101   6.119
 3794POPC   D2A50452  39.324  18.934   6.535
 3794POPC   C3A50453  39.488  19.079   6.934
 3794POPC   C4A50454  39.423  18.931   7.358
 3794POPC   C1B50455  38.911  19.073   6.224
 3794POPC   C2B50456  38.918  19.211   6.644
 3794POPC   C3B50457  38.999  19.007   7.030
 3794POPC   C4B50458  38.937  19.069   7.452
 3795POPC   NC350459  13.124   1.186   5.400
 3795POPC   PO450460  12.543   1.455   5.678
 3795POPC   GL150461  12.860   1.255   5.859
 3795POPC   GL250462  13.020   0.925   5.858
 3795POPC   C1A50463  12.768   1.109   6.286
 3795POPC   D2A50464  13.015   0.993   6.615
 3795POPC   C3A50465  12.791   0.993   6.988
 3795POPC   C4A50466  12.729   1.349   7.238
 3795POPC   C1B50467  13.260   1.180   6.162
 3795POPC   C2B50468  13.299   1.445   6.528
 3795POPC   C3B50469  13.201   1.367   6.948
 3795POPC   C4B50470  13.197   1.092   7.281
 3796POPC   NC350471  30.351  33.541   5.696
 3796POPC   PO450472  29.869  33.609   5.200
 3796POPC   GL150473  29.870  33.788   5.650
 3796POPC   GL250474  29.515  33.894   5.745
 3796POPC   C1A50475  29.824  33.600   6.097
 3796POPC   D2A50476  29.903  33.465   6.541
 3796POPC   C3A50477  30.219  33.684   6.830
 3796POPC   C4A50478  30.059  33.670   7.252
 3796POPC   C1B50479  29.704  34.094   6.125
 3796POPC   C2B50480  29.890  34.029   6.529
 3796POPC   C3B50481  29.752  33.836   6.872
 3796POPC   C4B50482  29.564  33.788   7.219
 3797POPC   NC350483  15.498  24.634   5.336
 3797POPC   PO450484  16.139  24.439   5.366
 3797POPC   GL150485  15.937  24.623   5.706
 3797POPC   GL250486  16.263  24.751   5.774
 3797POPC   C1A50487  15.831  24.385   6.100
 3797POPC   D2A50488  15.937  24.466   6.535
 3797POPC   C3A50489  15.738  24.372   6.933
 3797POPC   C4A50490  15.875  24.493   7.334
 3797POPC   C1B50491  16.345  24.412   6.102
 3797POPC   C2B50492  16.416  24.306   6.564
 3797POPC   C3B50493  16.243  24.507   6.970
 3797POPC   C4B50494  16.364  24.595   7.433
 3798POPC   NC350495   3.920  11.174   5.442
 3798POPC   PO450496   4.428  10.716   5.496
 3798POPC   GL150497   4.294  11.101   5.786
 3798POPC   GL250498   4.530  11.407   5.821
 3798POPC   C1A50499   4.274  11.034   6.229
 3798POPC   D2A50500   4.086  11.072   6.639
 3798POPC   C3A50501   4.416  11.224   6.894
 3798POPC   C4A50502   4.433  11.265   7.331
 3798POPC   C1B50503   4.576  11.599   6.241
 3798POPC   C2B50504   4.443  11.690   6.670
 3798POPC   C3B50505   4.623  11.703   7.091
 3798POPC   C4B50506   4.543  11.717   7.544
 3799POPC   NC350507  20.151  25.515   5.270
 3799POPC   PO450508  20.651  25.059   5.385
 3799POPC   GL150509  20.665  25.215   5.759
 3799POPC   GL250510  20.482  25.488   5.724
 3799POPC   C1A50511  20.789  25.117   6.161
 3799POPC   D2A50512  20.844  24.885   6.527
 3799POPC   C3A50513  20.662  25.102   6.870
 3799POPC   C4A50514  20.701  25.083   7.313
 3799POPC   C1B50515  20.242  25.273   6.034
 3799POPC   C2B50516  20.324  25.180   6.447
 3799POPC   C3B50517  20.158  25.197   6.864
 3799POPC   C4B50518  20.287  25.361   7.264
 3800POPC   NC350519  12.348  19.589   5.503
 3800POPC   PO450520  11.935  20.130   5.431
 3800POPC   GL150521  11.905  19.846   5.755
 3800POPC   GL250522  12.245  19.989   5.849
 3800POPC   C1A50523  12.025  19.663   6.163
 3800POPC   D2A50524  12.251  19.780   6.522
 3800POPC   C3A50525  12.096  19.669   6.927
 3800POPC   C4A50526  12.367  19.591   7.271
 3800POPC   C1B50527  11.945  20.192   6.163
 3800POPC   C2B50528  11.900  20.121   6.621
 3800POPC   C3B50529  11.882  20.116   7.058
 3800POPC   C4B50530  12.017  19.925   7.429
 3801POPC   NC350531  34.241  42.540   5.527
 3801POPC   PO450532  34.285  41.844   5.590
 3801POPC   GL150533  34.486  42.192   5.802
 3801POPC   GL250534  34.844  42.205   5.825
 3801POPC   C1A50535  34.512  42.394   6.204
 3801POPC   D2A50536  34.368  42.278   6.609
 3801POPC   C3A50537  34.551  42.468   6.960
 3801POPC   C4A50538  34.475  42.377   7.395
 3801POPC   C1B50539  35.012  42.400   6.218
 3801POPC   C2B50540  34.945  42.285   6.635
 3801POPC   C3B50541  35.006  42.193   7.064
 3801POPC   C4B50542  34.937  42.543   7.301
 3802POPC   NC350543  43.809   8.226   5.339
 3802POPC   PO450544  44.375   8.508   5.486
 3802POPC   GL150545  44.114   8.200   5.822
 3802POPC   GL250546  43.736   8.077   5.828
 3802POPC   C1A50547  43.982   8.083   6.286
 3802POPC   D2A50548  44.115   8.136   6.733
 3802POPC   C3A50549  43.948   7.915   7.116
 3802POPC   C4A50550  43.970   8.166   7.518
 3802POPC   C1B50551  43.618   8.428   6.117
 3802POPC   C2B50552  43.445   8.424   6.544
 3802POPC   C3B50553  43.651   8.303   6.926
 3802POPC   C4B50554  43.484   8.135   7.290
 3803POPC   NC350555   3.153  15.520   5.217
 3803POPC   PO450556   2.738  14.969   5.263
 3803POPC   GL150557   2.676  15.052   5.718
 3803POPC   GL250558   2.833  15.369   5.812
 3803POPC   C1A50559   2.780  14.995   6.180
 3803POPC   D2A50560   2.566  15.062   6.584
 3803POPC   C3A50561   2.730  14.997   6.987
 3803POPC   C4A50562   2.793  15.048   7.432
 3803POPC   C1B50563   2.594  15.477   6.185
 3803POPC   C2B50564   2.707  15.554   6.618
 3803POPC   C3B50565   2.821  15.585   7.049
 3803POPC   C4B50566   2.700  15.702   7.460
 3804POPC   NC350567  30.399  16.443   5.521
 3804POPC   PO450568  29.756  16.652   5.366
 3804POPC   GL150569  29.840  16.907   5.779
 3804POPC   GL250570  29.962  16.614   5.938
 3804POPC   C1A50571  30.048  17.025   6.213
 3804POPC   D2A50572  30.015  16.731   6.561
 3804POPC   C3A50573  29.917  16.875   6.987
 3804POPC   C4A50574  30.031  16.875   7.440
 3804POPC   C1B50575  29.600  16.756   6.212
 3804POPC   C2B50576  29.506  16.727   6.654
 3804POPC   C3B50577  29.539  16.509   7.047
 3804POPC   C4B50578  29.717  16.466   7.461
 3805POPC   NC350579  27.158  41.937   5.396
 3805POPC   PO450580  26.531  42.339   5.427
 3805POPC   GL150581  26.783  42.128   5.691
 3805POPC   GL250582  26.974  42.413   5.803
 3805POPC   C1A50583  26.711  41.976   6.104
 3805POPC   D2A50584  26.917  42.006   6.480
 3805POPC   C3A50585  26.718  42.227   6.804
 3805POPC   C4A50586  26.819  42.310   7.218
 3805POPC   C1B50587  26.907  42.440   6.220
 3805POPC   C2B50588  27.172  42.465   6.568
 3805POPC   C3B50589  27.113  42.645   6.974
 3805POPC   C4B50590  27.211  42.579   7.428
 3806POPC   NC350591  23.270  13.630   5.446
 3806POPC   PO450592  22.820  13.163   5.152
 3806POPC   GL150593  22.835  13.411   5.613
 3806POPC   GL250594  22.864  13.789   5.736
 3806POPC   C1A50595  22.907  13.446   6.109
 3806POPC   D2A50596  23.009  13.643   6.546
 3806POPC   C3A50597  22.826  13.567   6.974
 3806POPC   C4A50598  22.626  13.607   7.411
 3806POPC   C1B50599  23.206  13.893   6.088
 3806POPC   C2B50600  23.377  14.002   6.546
 3806POPC   C3B50601  23.187  13.950   6.980
 3806POPC   C4B50602  23.047  13.885   7.433
 3807POPC   NC350603  31.117  37.825   5.581
 3807POPC   PO450604  30.507  38.106   5.428
 3807POPC   GL150605  30.549  37.810   5.756
 3807POPC   GL250606  30.764  37.507   5.752
 3807POPC   C1A50607  30.736  37.909   6.157
 3807POPC   D2A50608  30.915  37.864   6.584
 3807POPC   C3A50609  30.651  37.960   6.933
 3807POPC   C4A50610  30.601  37.735   7.288
 3807POPC   C1B50611  30.514  37.427   6.120
 3807POPC   C2B50612  30.531  37.281   6.505
 3807POPC   C3B50613  30.560  37.425   6.887
 3807POPC   C4B50614  30.847  37.252   7.143
 3808POPC   NC350615  11.795  27.462   5.380
 3808POPC   PO450616  11.204  27.536   5.482
 3808POPC   GL150617  11.335  27.554   5.869
 3808POPC   GL250618  11.642  27.376   5.868
 3808POPC   C1A50619  11.102  27.686   6.237
 3808POPC   D2A50620  11.136  27.859   6.628
 3808POPC   C3A50621  11.056  27.791   7.048
 3808POPC   C4A50622  11.239  27.738   7.450
 3808POPC   C1B50623  11.630  27.635   6.262
 3808POPC   C2B50624  11.629  27.797   6.655
 3808POPC   C3B50625  11.604  27.628   7.065
 3808POPC   C4B50626  11.755  27.626   7.480
 3809POPC   NC350627  14.606   8.526   5.465
 3809POPC   PO450628  14.001   8.359   5.337
 3809POPC   GL150629  14.184   8.444   5.787
 3809POPC   GL250630  14.535   8.430   5.959
 3809POPC   C1A50631  14.132   8.314   6.222
 3809POPC   D2A50632  14.341   8.297   6.584
 3809POPC   C3A50633  14.268   7.966   6.806
 3809POPC   C4A50634  14.230   8.033   7.218
 3809POPC   C1B50635  14.806   8.357   6.319
 3809POPC   C2B50636  14.791   8.098   6.693
 3809POPC   C3B50637  14.690   8.189   7.065
 3809POPC   C4B50638  14.518   8.569   7.174
 3810POPC   NC350639   6.881   0.475   5.163
 3810POPC   PO450640   6.374   0.050   5.374
 3810POPC   GL150641   6.576   0.106   5.788
 3810POPC   GL250642   6.949   0.164   5.750
 3810POPC   C1A50643   6.531   0.243   6.245
 3810POPC   D2A50644   6.499   0.441   6.668
 3810POPC   C3A50645   6.500   0.212   7.067
 3810POPC   C4A50646   6.292   0.165   7.465
 3810POPC   C1B50647   7.066   0.198   6.207
 3810POPC   C2B50648   6.980   0.227   6.680
 3810POPC   C3B50649   6.945   0.418   7.099
 3810POPC   C4B50650   6.846   0.178   7.489
 3811POPC   NC350651  17.515  41.401   5.555
 3811POPC   PO450652  18.002  41.945   5.644
 3811POPC   GL150653  17.681  41.724   5.949
 3811POPC   GL250654  17.612  41.337   6.049
 3811POPC   C1A50655  17.528  41.718   6.389
 3811POPC   D2A50656  17.372  41.366   6.622
 3811POPC   C3A50657  17.224  41.375   7.046
 3811POPC   C4A50658  17.311  41.461   7.463
 3811POPC   C1B50659  17.145  41.421   6.158
 3811POPC   C2B50660  17.006  41.771   6.440
 3811POPC   C3B50661  17.187  41.855   6.863
 3811POPC   C4B50662  17.403  41.931   7.283
 3812POPC   NC350663  44.332  31.267   5.511
 3812POPC   PO450664  43.682  31.607   5.330
 3812POPC   GL150665  43.585  31.545   5.762
 3812POPC   GL250666  43.469  31.873   5.710
 3812POPC   C1A50667  43.758  31.365   6.200
 3812POPC   D2A50668  43.830  31.331   6.681
 3812POPC   C3A50669  44.078  31.647   6.887
 3812POPC   C4A50670  44.402  31.681   7.210
 3812POPC   C1B50671  43.744  31.879   6.096
 3812POPC   C2B50672  43.566  31.778   6.490
 3812POPC   C3B50673  43.456  31.638   6.867
 3812POPC   C4B50674  43.707  31.783   7.188
 3813POPC   NC350675   5.843  36.429   5.440
 3813POPC   PO450676   5.476  35.827   5.406
 3813POPC   GL150677   5.813  35.805   5.682
 3813POPC   GL250678   5.823  36.110   5.858
 3813POPC   C1A50679   6.042  35.676   6.038
 3813POPC   D2A50680   6.059  35.811   6.467
 3813POPC   C3A50681   6.036  35.838   6.917
 3813POPC   C4A50682   5.836  36.132   7.189
 3813POPC   C1B50683   5.618  35.879   6.217
 3813POPC   C2B50684   5.547  35.874   6.670
 3813POPC   C3B50685   5.340  35.944   7.063
 3813POPC   C4B50686   5.463  35.932   7.492
 3814POPC   NC350687  34.089  33.814   5.330
 3814POPC   PO450688  33.562  33.480   5.608
 3814POPC   GL150689  33.597  33.893   5.813
 3814POPC   GL250690  33.973  33.982   5.834
 3814POPC   C1A50691  33.584  33.969   6.243
 3814POPC   D2A50692  33.686  33.670   6.547
 3814POPC   C3A50693  33.674  33.724   7.004
 3814POPC   C4A50694  33.998  34.026   7.153
 3814POPC   C1B50695  34.132  33.672   6.162
 3814POPC   C2B50696  33.978  33.269   6.365
 3814POPC   C3B50697  33.973  33.311   6.796
 3814POPC   C4B50698  34.143  33.533   7.139
 3815POPC   NC350699  20.116  41.890   5.449
 3815POPC   PO450700  19.693  41.322   5.609
 3815POPC   GL150701  19.954  41.569   5.798
 3815POPC   GL250702  19.728  41.866   5.797
 3815POPC   C1A50703  20.268  41.511   6.110
 3815POPC   D2A50704  20.326  41.699   6.479
 3815POPC   C3A50705  20.346  41.462   6.827
 3815POPC   C4A50706  20.220  41.619   7.195
 3815POPC   C1B50707  19.803  41.737   6.243
 3815POPC   C2B50708  19.877  41.434   6.564
 3815POPC   C3B50709  19.774  41.551   6.975
 3815POPC   C4B50710  19.768  41.895   7.244
 3816POPC   NC350711  27.661  40.424   5.405
 3816POPC   PO450712  27.754  39.785   5.187
 3816POPC   GL150713  27.804  39.856   5.676
 3816POPC   GL250714  27.671  40.168   5.876
 3816POPC   C1A50715  27.800  39.753   6.152
 3816POPC   D2A50716  27.663  39.943   6.580
 3816POPC   C3A50717  27.791  39.800   7.010
 3816POPC   C4A50718  27.846  40.108   7.330
 3816POPC   C1B50719  27.322  40.102   6.212
 3816POPC   C2B50720  27.140  40.010   6.619
 3816POPC   C3B50721  27.341  40.076   7.013
 3816POPC   C4B50722  27.289  39.852   7.350
 3817POPC   NC350723  14.805  20.636   5.163
 3817POPC   PO450724  15.525  20.223   5.250
 3817POPC   GL150725  15.462  20.322   5.759
 3817POPC   GL250726  15.159  20.561   5.829
 3817POPC   C1A50727  15.451  20.520   6.225
 3817POPC   D2A50728  15.216  20.628   6.611
 3817POPC   C3A50729  15.304  20.452   7.002
 3817POPC   C4A50730  15.423  20.769   7.288
 3817POPC   C1B50731  14.946  20.669   6.167
 3817POPC   C2B50732  14.740  20.472   6.505
 3817POPC   C3B50733  14.731  20.507   6.924
 3817POPC   C4B50734  14.924  20.648   7.297
 3818POPC   NC350735  25.689  10.823   5.063
 3818POPC   PO450736  26.335  10.789   5.380
 3818POPC   GL150737  26.246  10.569   5.804
 3818POPC   GL250738  25.909  10.443   5.836
 3818POPC   C1A50739  26.347  10.473   6.243
 3818POPC   D2A50740  26.107  10.703   6.550
 3818POPC   C3A50741  26.141  10.606   6.958
 3818POPC   C4A50742  26.300  10.217   7.071
 3818POPC   C1B50743  25.844  10.315   6.252
 3818POPC   C2B50744  26.002  10.209   6.648
 3818POPC   C3B50745  25.794  10.241   7.064
 3818POPC   C4B50746  25.656  10.584   7.326
 3819POPC   NC350747   0.467  24.781   5.390
 3819POPC   PO450748   0.698  25.468   5.270
 3819POPC   GL150749   0.530  25.242   5.653
 3819POPC   GL250750   0.233  25.210   5.834
 3819POPC   C1A50751   0.601  25.331   6.128
 3819POPC   D2A50752   0.386  25.258   6.512
 3819POPC   C3A50753   0.561  25.086   6.900
 3819POPC   C4A50754   0.785  25.230   7.236
 3819POPC   C1B50755   0.107  25.538   6.143
 3819POPC   C2B50756  44.962  25.541   6.579
 3819POPC   C3B50757   0.051  25.201   6.892
 3819POPC   C4B50758   0.240  25.234   7.279
 3820POPC   NC350759  44.529  12.628   5.103
 3820POPC   PO450760  44.902  12.368   5.602
 3820POPC   GL150761  44.757  12.661   5.894
 3820POPC   GL250762  44.594  12.998   5.839
 3820POPC   C1A50763  44.663  12.726   6.327
 3820POPC   D2A50764  44.375  12.517   6.612
 3820POPC   C3A50765  44.520  12.586   7.012
 3820POPC   C4A50766  44.603  12.890   7.331
 3820POPC   C1B50767  44.347  13.120   6.234
 3820POPC   C2B50768  44.313  13.111   6.715
 3820POPC   C3B50769  44.133  12.932   7.115
 3820POPC   C4B50770  44.176  13.036   7.588
 3821POPC   NC350771   4.714  22.700   5.316
 3821POPC   PO450772   5.177  22.448   5.576
 3821POPC   GL150773   4.913  22.750   5.860
 3821POPC   GL250774   5.151  23.008   5.975
 3821POPC   C1A50775   4.788  22.920   6.323
 3821POPC   D2A50776   5.026  23.049   6.736
 3821POPC   C3A50777   4.913  22.820   7.147
 3821POPC   C4A50778   4.743  22.778   7.572
 3821POPC   C1B50779   5.249  22.694   6.312
 3821POPC   C2B50780   5.391  22.677   6.753
 3821POPC   C3B50781   5.399  22.930   7.143
 3821POPC   C4B50782   5.405  22.882   7.607
 3822POPC   NC350783  42.905  35.755   5.617
 3822POPC   PO450784  42.833  36.379   5.459
 3822POPC   GL150785  43.051  36.363   5.852
 3822POPC   GL250786  43.211  36.046   5.917
 3822POPC   C1A50787  43.106  36.377   6.301
 3822POPC   D2A50788  43.124  36.145   6.655
 3822POPC   C3A50789  42.984  36.250   7.033
 3822POPC   C4A50790  43.108  36.057   7.427
 3822POPC   C1B50791  42.837  35.948   6.235
 3822POPC   C2B50792  42.602  35.960   6.631
 3822POPC   C3B50793  42.531  35.957   7.087
 3822POPC   C4B50794  42.653  35.790   7.510
 3823POPC   NC350795  31.200  18.189   5.109
 3823POPC   PO450796  31.708  18.461   5.454
 3823POPC   GL150797  31.606  18.278   5.833
 3823POPC   GL250798  31.383  18.033   5.665
 3823POPC   C1A50799  31.483  18.465   6.254
 3823POPC   D2A50800  31.481  18.282   6.675
 3823POPC   C3A50801  31.529  18.597   6.947
 3823POPC   C4A50802  31.264  18.765   7.223
 3823POPC   C1B50803  31.241  18.039   6.113
 3823POPC   C2B50804  31.017  18.077   6.526
 3823POPC   C3B50805  31.006  18.008   6.961
 3823POPC   C4B50806  31.297  18.230   7.229
 3824POPC   NC350807   6.942  21.386   5.347
 3824POPC   PO450808   7.413  20.875   5.281
 3824POPC   GL150809   7.364  21.227   5.656
 3824POPC   GL250810   7.686  21.280   5.852
 3824POPC   C1A50811   7.273  21.287   6.148
 3824POPC   D2A50812   7.503  21.326   6.574
 3824POPC   C3A50813   7.520  20.987   6.895
 3824POPC   C4A50814   7.242  20.941   7.279
 3824POPC   C1B50815   7.760  21.558   6.190
 3824POPC   C2B50816   7.811  21.748   6.602
 3824POPC   C3B50817   7.710  21.741   7.042
 3824POPC   C4B50818   7.611  21.352   7.239
 3825POPC   NC350819  10.047  29.022   5.280
 3825POPC   PO450820   9.553  29.444   5.465
 3825POPC   GL150821   9.656  29.094   5.784
 3825POPC   GL250822  10.013  28.994   5.821
 3825POPC   C1A50823   9.697  29.068   6.240
 3825POPC   D2A50824   9.808  29.362   6.560
 3825POPC   C3A50825  10.139  29.314   6.854
 3825POPC   C4A50826  10.146  28.975   7.172
 3825POPC   C1B50827  10.194  28.968   6.280
 3825POPC   C2B50828   9.978  28.860   6.684
 3825POPC   C3B50829   9.662  29.053   6.970
 3825POPC   C4B50830   9.532  28.885   7.359
 3826POPC   NC350831  15.993  42.537   5.293
 3826POPC   PO450832  15.962  43.204   5.325
 3826POPC   GL150833  15.962  43.096   5.729
 3826POPC   GL250834  16.133  42.778   5.770
 3826POPC   C1A50835  16.076  43.273   6.122
 3826POPC   D2A50836  15.916  43.166   6.537
 3826POPC   C3A50837  16.174  43.042   6.878
 3826POPC   C4A50838  15.938  43.046   7.249
 3826POPC   C1B50839  15.870  42.804   6.143
 3826POPC   C2B50840  15.552  42.754   6.453
 3826POPC   C3B50841  15.683  42.799   6.872
 3826POPC   C4B50842  15.522  42.719   7.290
 3827POPC   NC350843   7.543  41.569   5.152
 3827POPC   PO450844   7.456  41.383   5.577
 3827POPC   GL150845   7.272  41.619   5.956
 3827POPC   GL250846   7.037  41.916   5.894
 3827POPC   C1A50847   7.341  41.552   6.411
 3827POPC   D2A50848   7.521  41.241   6.682
 3827POPC   C3A50849   7.615  41.396   7.090
 3827POPC   C4A50850   7.492  41.324   7.516
 3827POPC   C1B50851   7.134  42.009   6.349
 3827POPC   C2B50852   7.068  41.861   6.783
 3827POPC   C3B50853   7.307  41.861   7.188
 3827POPC   C4B50854   7.348  41.875   7.657
 3828POPC   NC350855  25.475  40.612   5.199
 3828POPC   PO450856  24.756  40.753   5.313
 3828POPC   GL150857  25.135  40.821   5.612
 3828POPC   GL250858  25.330  40.505   5.711
 3828POPC   C1A50859  25.358  40.923   6.039
 3828POPC   D2A50860  25.247  40.942   6.507
 3828POPC   C3A50861  25.440  41.020   6.901
 3828POPC   C4A50862  25.215  40.956   7.281
 3828POPC   C1B50863  24.999  40.571   6.045
 3828POPC   C2B50864  24.982  40.516   6.507
 3828POPC   C3B50865  25.023  40.567   6.936
 3828POPC   C4B50866  24.943  40.530   7.372
 3829POPC   NC350867  27.096  20.411   5.371
 3829POPC   PO450868  26.625  20.923   5.405
 3829POPC   GL150869  26.879  20.721   5.728
 3829POPC   GL250870  26.984  20.376   5.854
 3829POPC   C1A50871  26.942  20.776   6.170
 3829POPC   D2A50872  26.963  20.545   6.554
 3829POPC   C3A50873  26.980  20.754   6.938
 3829POPC   C4A50874  26.877  20.678   7.364
 3829POPC   C1B50875  26.928  20.134   6.232
 3829POPC   C2B50876  26.706  20.118   6.625
 3829POPC   C3B50877  26.916  20.239   6.990
 3829POPC   C4B50878  27.042  20.141   7.401
 3830POPC   NC350879  21.735  38.233   5.470
 3830POPC   PO450880  21.294  38.714   5.145
 3830POPC   GL150881  21.317  38.607   5.647
 3830POPC   GL250882  21.197  38.270   5.746
 3830POPC   C1A50883  21.278  38.666   6.150
 3830POPC   D2A50884  21.422  38.513   6.563
 3830POPC   C3A50885  21.300  38.577   7.003
 3830POPC   C4A50886  21.545  38.495   7.362
 3830POPC   C1B50887  21.322  38.149   6.168
 3830POPC   C2B50888  21.102  38.147   6.557
 3830POPC   C3B50889  21.242  38.058   6.948
 3830POPC   C4B50890  21.143  38.122   7.376
 3831POPC   NC350891   0.700   6.366   5.660
 3831POPC   PO450892   1.256   6.671   5.426
 3831POPC   GL150893   1.098   6.845   5.814
 3831POPC   GL250894   1.087   6.529   5.940
 3831POPC   C1A50895   1.026   6.896   6.271
 3831POPC   D2A50896   1.037   6.585   6.562
 3831POPC   C3A50897   1.131   6.655   6.974
 3831POPC   C4A50898   0.900   6.656   7.360
 3831POPC   C1B50899   1.431   6.574   6.222
 3831POPC   C2B50900   1.552   6.522   6.655
 3831POPC   C3B50901   1.525   6.280   7.031
 3831POPC   C4B50902   1.393   6.501   7.392
 3832POPC   NC350903  31.131  25.192   5.466
 3832POPC   PO450904  30.484  25.271   5.421
 3832POPC   GL150905  30.569  25.309   5.857
 3832POPC   GL250906  30.929  25.338   5.917
 3832POPC   C1A50907  30.418  25.227   6.287
 3832POPC   D2A50908  30.508  24.972   6.636
 3832POPC   C3A50909  30.400  25.181   6.978
 3832POPC   C4A50910  30.628  25.285   7.334
 3832POPC   C1B50911  30.895  25.365   6.367
 3832POPC   C2B50912  30.860  25.343   6.774
 3832POPC   C3B50913  30.974  25.570   7.093
 3832POPC   C4B50914  31.173  25.290   7.363
 3833POPC   NC350915  38.104  27.080   5.184
 3833POPC   PO450916  38.547  26.609   5.440
 3833POPC   GL150917  38.616  26.674   5.902
 3833POPC   GL250918  38.308  26.523   6.117
 3833POPC   C1A50919  38.715  26.704   6.348
 3833POPC   D2A50920  38.460  26.580   6.708
 3833POPC   C3A50921  38.686  26.730   7.079
 3833POPC   C4A50922  38.784  27.168   7.145
 3833POPC   C1B50923  38.229  26.936   6.363
 3833POPC   C2B50924  38.294  27.224   6.739
 3833POPC   C3B50925  38.278  27.019   7.142
 3833POPC   C4B50926  38.177  26.588   7.155
 3834POPC   NC350927  35.966  38.112   5.531
 3834POPC   PO450928  35.630  38.750   5.635
 3834POPC   GL150929  35.928  38.713   5.983
 3834POPC   GL250930  36.117  38.412   5.924
 3834POPC   C1A50931  36.055  38.609   6.410
 3834POPC   D2A50932  36.401  38.581   6.690
 3834POPC   C3A50933  36.362  38.819   7.077
 3834POPC   C4A50934  36.629  38.793   7.422
 3834POPC   C1B50935  35.904  38.140   6.256
 3834POPC   C2B50936  36.110  38.150   6.686
 3834POPC   C3B50937  36.080  38.382   7.078
 3834POPC   C4B50938  36.012  38.341   7.520
 3835POPC   NC350939  41.012   3.038   5.430
 3835POPC   PO450940  40.753   2.420   5.425
 3835POPC   GL150941  40.899   2.670   5.762
 3835POPC   GL250942  40.608   2.916   5.726
 3835POPC   C1A50943  40.942   2.569   6.188
 3835POPC   D2A50944  40.848   2.443   6.614
 3835POPC   C3A50945  41.042   2.620   6.964
 3835POPC   C4A50946  40.940   2.867   7.307
 3835POPC   C1B50947  40.730   3.042   6.131
 3835POPC   C2B50948  40.578   2.852   6.500
 3835POPC   C3B50949  40.587   2.924   6.945
 3835POPC   C4B50950  40.472   2.974   7.382
 3836POPC   NC350951  35.184  22.081   5.377
 3836POPC   PO450952  35.605  22.599   5.466
 3836POPC   GL150953  35.416  22.273   5.778
 3836POPC   GL250954  35.044  22.158   5.854
 3836POPC   C1A50955  35.409  22.117   6.199
 3836POPC   D2A50956  35.600  22.015   6.584
 3836POPC   C3A50957  35.358  22.206   6.895
 3836POPC   C4A50958  35.512  22.162   7.276
 3836POPC   C1B50959  34.964  21.842   6.206
 3836POPC   C2B50960  35.104  21.722   6.627
 3836POPC   C3B50961  34.971  21.853   7.052
 3836POPC   C4B50962  34.934  22.287   7.220
 3837POPC   NC350963   9.626  24.127   5.425
 3837POPC   PO450964   9.314  23.557   5.330
 3837POPC   GL150965   9.627  23.693   5.713
 3837POPC   GL250966   9.945  23.909   5.753
 3837POPC   C1A50967   9.810  23.612   6.170
 3837POPC   D2A50968   9.876  23.443   6.645
 3837POPC   C3A50969   9.799  23.669   7.061
 3837POPC   C4A50970   9.798  23.544   7.525
 3837POPC   C1B50971   9.966  24.127   6.153
 3837POPC   C2B50972   9.852  23.974   6.546
 3837POPC   C3B50973   9.915  24.143   6.912
 3837POPC   C4B50974   9.979  24.073   7.295
 3838POPC   NC350975  13.323  21.643   5.307
 3838POPC   PO450976  13.939  21.421   5.395
 3838POPC   GL150977  13.628  21.372   5.738
 3838POPC   GL250978  13.240  21.339   5.739
 3838POPC   C1A50979  13.761  21.392   6.158
 3838POPC   D2A50980  13.685  21.567   6.534
 3838POPC   C3A50981  13.903  21.318   6.807
 3838POPC   C4A50982  13.904  21.292   7.260
 3838POPC   C1B50983  13.259  21.302   6.214
 3838POPC   C2B50984  13.416  21.147   6.638
 3838POPC   C3B50985  13.434  21.394   7.030
 3838POPC   C4B50986  13.061  21.382   7.298
 3839POPC   NC350987   1.463  42.479   5.458
 3839POPC   PO450988   0.841  42.169   5.297
 3839POPC   GL150989   1.096  42.298   5.727
 3839POPC   GL250990   1.010  42.590   5.916
 3839POPC   C1A50991   1.313  42.257   6.165
 3839POPC   D2A50992   1.472  42.173   6.607
 3839POPC   C3A50993   1.132  42.081   6.903
 3839POPC   C4A50994   1.071  42.084   7.340
 3839POPC   C1B50995   1.314  42.797   6.154
 3839POPC   C2B50996   1.166  42.843   6.568
 3839POPC   C3B50997   1.108  42.601   6.925
 3839POPC   C4B50998   1.351  42.634   7.271
 3840POPC   NC350999   3.983  29.198   5.492
 3840POPC   PO451000   4.730  29.264   5.434
 3840POPC   GL151001   4.531  29.308   5.825
 3840POPC   GL251002   4.717  29.018   5.906
 3840POPC   C1A51003   4.635  29.350   6.284
 3840POPC   D2A51004   4.702  29.094   6.664
 3840POPC   C3A51005   4.319  29.059   6.931
 3840POPC   C4A51006   4.201  29.370   7.269
 3840POPC   C1B51007   4.706  28.742   6.278
 3840POPC   C2B51008   4.581  28.600   6.712
 3840POPC   C3B51009   4.712  28.777   7.108
 3840POPC   C4B51010   4.398  28.924   7.421
 3841POPC   NC351011  17.025  27.868   5.497
 3841POPC   PO451012  17.693  27.642   5.521
 3841POPC   GL151013  17.478  27.596   5.853
 3841POPC   GL251014  17.390  27.933   5.851
 3841POPC   C1A51015  17.513  27.410   6.263
 3841POPC   D2A51016  17.447  27.218   6.672
 3841POPC   C3A51017  17.495  27.471   7.050
 3841POPC   C4A51018  17.208  27.829   7.254
 3841POPC   C1B51019  17.707  27.900   6.199
 3841POPC   C2B51020  17.665  27.747   6.605
 3841POPC   C3B51021  17.601  27.947   6.973
 3841POPC   C4B51022  17.819  27.924   7.322
 3842POPC   NC351023  24.140   2.781   5.449
 3842POPC   PO451024  24.593   3.241   5.441
 3842POPC   GL151025  24.559   2.944   5.831
 3842POPC   GL251026  24.213   2.828   5.938
 3842POPC   C1A51027  24.591   2.754   6.264
 3842POPC   D2A51028  24.678   2.805   6.713
 3842POPC   C3A51029  24.545   2.464   7.017
 3842POPC   C4A51030  24.461   2.580   7.456
 3842POPC   C1B51031  24.162   3.029   6.326
 3842POPC   C2B51032  24.262   3.104   6.764
 3842POPC   C3B51033  24.454   3.006   7.175
 3842POPC   C4B51034  24.310   3.036   7.625
 3843POPC   NC351035  25.828   8.266   5.500
 3843POPC   PO451036  26.375   7.878   5.524
 3843POPC   GL151037  26.175   8.102   5.852
 3843POPC   GL251038  26.295   8.443   5.733
 3843POPC   C1A51039  25.940   8.096   6.282
 3843POPC   D2A51040  25.791   8.125   6.754
 3843POPC   C3A51041  25.771   7.827   7.105
 3843POPC   C4A51042  26.033   7.749   7.476
 3843POPC   C1B51043  26.322   8.470   6.184
 3843POPC   C2B51044  26.062   8.556   6.545
 3843POPC   C3B51045  26.068   8.496   6.979
 3843POPC   C4B51046  26.003   8.616   7.406
 3844POPC   NC351047  33.495  43.571   4.993
 3844POPC   PO451048  33.965  43.631   5.412
 3844POPC   GL151049  33.781  43.728   5.796
 3844POPC   GL251050  34.095  43.912   5.827
 3844POPC   C1A51051  33.611  43.985   6.100
 3844POPC   D2A51052  33.777  43.948   6.503
 3844POPC   C3A51053  33.594  44.093   6.858
 3844POPC   C4A51054  33.541  43.890   7.186
 3844POPC   C1B51055  34.142  43.731   6.206
 3844POPC   C2B51056  34.153  43.601   6.632
 3844POPC   C3B51057  34.031  43.837   6.982
 3844POPC   C4B51058  33.982  43.744   7.408
 3845POPC   NC351059  28.636  30.091   5.260
 3845POPC   PO451060  28.098  30.033   5.514
 3845POPC   GL151061  28.478  29.906   5.747
 3845POPC   GL251062  28.480  29.554   5.873
 3845POPC   C1A51063  28.429  29.940   6.206
 3845POPC   D2A51064  28.493  29.639   6.544
 3845POPC   C3A51065  28.607  29.881   6.913
 3845POPC   C4A51066  28.374  30.207   7.139
 3845POPC   C1B51067  28.115  29.521   6.195
 3845POPC   C2B51068  28.009  29.709   6.634
 3845POPC   C3B51069  28.156  29.744   7.042
 3845POPC   C4B51070  28.124  29.624   7.465
 3846POPC   NC351071  42.865  23.950   5.361
 3846POPC   PO451072  42.767  23.258   5.347
 3846POPC   GL151073  42.862  23.539   5.715
 3846POPC   GL251074  42.607  23.766   5.781
 3846POPC   C1A51075  42.977  23.401   6.157
 3846POPC   D2A51076  42.799  23.467   6.586
 3846POPC   C3A51077  43.031  23.406   6.951
 3846POPC   C4A51078  43.263  23.331   7.314
 3846POPC   C1B51079  42.634  23.781   6.217
 3846POPC   C2B51080  42.824  23.992   6.567
 3846POPC   C3B51081  43.179  23.867   6.790
 3846POPC   C4B51082  43.219  23.847   7.211
 3847POPC   NC351083   0.324  27.602   5.489
 3847POPC   PO451084   0.055  27.035   5.765
 3847POPC   GL151085   0.176  27.454   5.960
 3847POPC   GL251086   0.520  27.614   5.957
 3847POPC   C1A51087   0.203  27.597   6.385
 3847POPC   D2A51088  44.978  27.629   6.754
 3847POPC   C3A51089   0.201  27.536   7.130
 3847POPC   C4A51090   0.638  27.435   7.320
 3847POPC   C1B51091   0.704  27.576   6.349
 3847POPC   C2B51092   0.579  27.600   6.792
 3847POPC   C3B51093   0.588  27.901   7.148
 3847POPC   C4B51094   0.671  27.904   7.619
 3848POPC   NC351095  39.005  17.405   5.285
 3848POPC   PO451096  39.317  17.851   5.542
 3848POPC   GL151097  39.020  17.633   5.784
 3848POPC   GL251098  39.198  17.329   5.786
 3848POPC   C1A51099  39.028  17.544   6.227
 3848POPC   D2A51100  39.065  17.732   6.646
 3848POPC   C3A51101  39.242  17.657   7.067
 3848POPC   C4A51102  39.142  17.510   7.471
 3848POPC   C1B51103  39.406  17.207   6.230
 3848POPC   C2B51104  39.359  17.293   6.702
 3848POPC   C3B51105  39.468  17.210   7.175
 3848POPC   C4B51106  39.542  17.224   7.644
 3849POPC   NC351107  21.810  27.385   5.482
 3849POPC   PO451108  21.403  26.733   5.371
 3849POPC   GL151109  21.202  26.936   5.720
 3849POPC   GL251110  21.515  26.842   5.896
 3849POPC   C1A51111  21.169  27.113   6.159
 3849POPC   D2A51112  21.319  27.163   6.564
 3849POPC   C3A51113  21.209  26.925   6.905
 3849POPC   C4A51114  21.193  27.174   7.277
 3849POPC   C1B51115  21.418  26.702   6.310
 3849POPC   C2B51116  21.651  26.525   6.635
 3849POPC   C3B51117  21.566  26.577   7.032
 3849POPC   C4B51118  21.640  26.966   7.191
 3850POPC   NC351119  37.442   6.033   5.388
 3850POPC   PO451120  37.995   5.661   5.551
 3850POPC   GL151121  37.713   5.892   5.825
 3850POPC   GL251122  37.452   5.641   5.839
 3850POPC   C1A51123  37.836   6.060   6.256
 3850POPC   D2A51124  37.908   5.811   6.647
 3850POPC   C3A51125  37.891   6.002   7.059
 3850POPC   C4A51126  37.688   6.053   7.496
 3850POPC   C1B51127  37.374   5.890   6.224
 3850POPC   C2B51128  37.427   6.051   6.661
 3850POPC   C3B51129  37.400   5.879   7.075
 3850POPC   C4B51130  37.643   5.500   7.135
 3851POPC   NC351131   2.309  15.139   5.222
 3851POPC   PO451132   1.811  15.587   5.405
 3851POPC   GL151133   1.881  15.375   5.774
 3851POPC   GL251134   2.190  15.194   5.745
 3851POPC   C1A51135   1.762  15.405   6.205
 3851POPC   D2A51136   1.570  15.345   6.601
 3851POPC   C3A51137   1.859  15.231   6.921
 3851POPC   C4A51138   1.923  15.346   7.325
 3851POPC   C1B51139   2.210  15.141   6.193
 3851POPC   C2B51140   2.203  15.417   6.572
 3851POPC   C3B51141   2.353  15.341   7.011
 3851POPC   C4B51142   2.274  14.926   7.236
 3852POPC   NC351143   3.626  20.934   5.350
 3852POPC   PO451144   4.196  20.649   5.368
 3852POPC   GL151145   3.819  20.587   5.680
 3852POPC   GL251146   3.683  20.868   5.858
 3852POPC   C1A51147   3.598  20.407   6.034
 3852POPC   D2A51148   3.732  20.343   6.456
 3852POPC   C3A51149   3.442  20.323   6.783
 3852POPC   C4A51150   3.498  20.443   7.200
 3852POPC   C1B51151   3.620  20.836   6.328
 3852POPC   C2B51152   3.522  20.852   6.758
 3852POPC   C3B51153   3.322  20.940   7.165
 3852POPC   C4B51154   3.293  21.048   7.624
 3853POPC   NC351155  28.336  28.080   5.360
 3853POPC   PO451156  28.476  27.481   5.330
 3853POPC   GL151157  28.498  27.737   5.730
 3853POPC   GL251158  28.152  27.798   5.767
 3853POPC   C1A51159  28.454  27.632   6.195
 3853POPC   D2A51160  28.279  27.448   6.587
 3853POPC   C3A51161  28.466  27.596   6.975
 3853POPC   C4A51162  28.459  27.430   7.388
 3853POPC   C1B51163  27.951  27.807   6.174
 3853POPC   C2B51164  28.077  27.933   6.601
 3853POPC   C3B51165  28.008  27.798   7.040
 3853POPC   C4B51166  28.020  28.089   7.386
 3854POPC   NC351167  28.960   7.328   4.848
 3854POPC   PO451168  29.271   7.416   5.445
 3854POPC   GL151169  29.305   7.468   5.836
 3854POPC   GL251170  29.211   7.124   5.884
 3854POPC   C1A51171  29.095   7.506   6.213
 3854POPC   D2A51172  28.995   7.527   6.618
 3854POPC   C3A51173  29.322   7.550   6.908
 3854POPC   C4A51174  29.080   7.548   7.252
 3854POPC   C1B51175  29.436   7.132   6.282
 3854POPC   C2B51176  29.509   7.089   6.729
 3854POPC   C3B51177  29.293   7.087   7.134
 3854POPC   C4B51178  29.409   6.916   7.525
 3855POPC   NC351179  44.089   9.680   5.390
 3855POPC   PO451180  43.901  10.267   5.509
 3855POPC   GL151181  43.828   9.914   5.806
 3855POPC   GL251182  44.149   9.770   5.907
 3855POPC   C1A51183  43.643   9.710   6.184
 3855POPC   D2A51184  43.676   9.874   6.617
 3855POPC   C3A51185  43.527   9.789   7.043
 3855POPC   C4A51186  43.628  10.074   7.423
 3855POPC   C1B51187  44.076  10.001   6.301
 3855POPC   C2B51188  44.189   9.910   6.757
 3855POPC   C3B51189  44.017   9.856   7.182
 3855POPC   C4B51190  44.099   9.681   7.605
 3856POPC   NC351191  41.906  43.112   5.493
 3856POPC   PO451192  41.320  42.958   5.367
 3856POPC   GL151193  41.456  43.146   5.764
 3856POPC   GL251194  41.742  42.961   5.943
 3856POPC   C1A51195  41.435  43.325   6.197
 3856POPC   D2A51196  41.619  43.528   6.582
 3856POPC   C3A51197  41.409  43.385   6.971
 3856POPC   C4A51198  41.663  43.116   7.215
 3856POPC   C1B51199  41.380  42.791   6.145
 3856POPC   C2B51200  41.306  42.593   6.549
 3856POPC   C3B51201  41.489  42.668   6.966
 3856POPC   C4B51202  41.403  42.720   7.407
 3857POPC   NC351203  12.134   3.846   5.177
 3857POPC   PO451204  12.086   4.473   5.467
 3857POPC   GL151205  12.172   4.162   5.827
 3857POPC   GL251206  12.516   4.149   5.915
 3857POPC   C1A51207  12.001   3.949   6.232
 3857POPC   D2A51208  12.054   3.860   6.701
 3857POPC   C3A51209  11.804   4.132   7.035
 3857POPC   C4A51210  11.883   4.217   7.514
 3857POPC   C1B51211  12.355   4.330   6.317
 3857POPC   C2B51212  12.232   4.356   6.780
 3857POPC   C3B51213  12.284   4.335   7.236
 3857POPC   C4B51214  12.263   4.547   7.667
 3858POPC   NC351215  35.435  12.584   4.953
 3858POPC   PO451216  35.294  13.194   5.361
 3858POPC   GL151217  35.435  12.968   5.716
 3858POPC   GL251218  35.606  12.626   5.613
 3858POPC   C1A51219  35.402  13.078   6.151
 3858POPC   D2A51220  35.151  13.135   6.516
 3858POPC   C3A51221  35.271  12.970   6.921
 3858POPC   C4A51222  35.116  12.735   7.251
 3858POPC   C1B51223  35.482  12.582   6.060
 3858POPC   C2B51224  35.357  12.609   6.497
 3858POPC   C3B51225  35.544  12.529   6.892
 3858POPC   C4B51226  35.619  12.770   7.276
 3859POPC   NC351227   3.365  36.299   5.259
 3859POPC   PO451228   3.983  36.356   5.477
 3859POPC   GL151229   3.737  36.171   5.832
 3859POPC   GL251230   3.417  36.044   5.705
 3859POPC   C1A51231   3.680  36.063   6.313
 3859POPC   D2A51232   3.855  35.940   6.764
 3859POPC   C3A51233   3.665  36.051   7.186
 3859POPC   C4A51234   3.564  36.220   7.600
 3859POPC   C1B51235   3.272  36.395   5.996
 3859POPC   C2B51236   3.290  36.475   6.457
 3859POPC   C3B51237   3.363  36.192   6.793
 3859POPC   C4B51238   3.100  35.971   7.097
 3860POPC   NC351239  39.206  21.430   5.330
 3860POPC   PO451240  39.450  20.872   5.553
 3860POPC   GL151241  39.161  21.129   5.830
 3860POPC   GL251242  39.035  21.476   5.810
 3860POPC   C1A51243  39.050  21.089   6.269
 3860POPC   D2A51244  38.771  21.048   6.619
 3860POPC   C3A51245  38.923  21.227   6.987
 3860POPC   C4A51246  39.109  21.247   7.344
 3860POPC   C1B51247  39.268  21.596   6.197
 3860POPC   C2B51248  39.271  21.413   6.620
 3860POPC   C3B51249  39.311  21.584   7.004
 3860POPC   C4B51250  38.966  21.719   7.217
 3861POPC   NC351251  17.863  24.011   5.486
 3861POPC   PO451252  18.491  23.609   5.299
 3861POPC   GL151253  18.416  23.620   5.762
 3861POPC   GL251254  18.076  23.727   5.898
 3861POPC   C1A51255  18.542  23.555   6.210
 3861POPC   D2A51256  18.680  23.466   6.654
 3861POPC   C3A51257  18.639  23.632   7.091
 3861POPC   C4A51258  18.606  23.674   7.566
 3861POPC   C1B51259  18.125  23.801   6.364
 3861POPC   C2B51260  18.164  23.692   6.832
 3861POPC   C3B51261  18.214  23.851   7.279
 3861POPC   C4B51262  18.064  23.986   7.702
 3862POPC   NC351263  13.128  40.960   5.498
 3862POPC   PO451264  12.553  40.814   5.270
 3862POPC   GL151265  12.670  40.818   5.741
 3862POPC   GL251266  12.955  40.608   5.852
 3862POPC   C1A51267  12.857  41.007   6.137
 3862POPC   D2A51268  12.738  41.238   6.438
 3862POPC   C3A51269  12.775  41.058   6.800
 3862POPC   C4A51270  12.821  41.047   7.254
 3862POPC   C1B51271  12.615  40.573   6.202
 3862POPC   C2B51272  12.633  40.510   6.664
 3862POPC   C3B51273  12.859  40.611   7.023
 3862POPC   C4B51274  12.832  40.559   7.462
 3863POPC   NC351275  42.123  10.189   5.148
 3863POPC   PO451276  42.743  10.185   5.408
 3863POPC   GL151277  42.327  10.220   5.648
 3863POPC   GL251278  42.220  10.547   5.612
 3863POPC   C1A51279  42.318  10.222   6.119
 3863POPC   D2A51280  42.634  10.415   6.431
 3863POPC   C3A51281  42.532  10.511   6.848
 3863POPC   C4A51282  42.538  10.275   7.177
 3863POPC   C1B51283  42.301  10.739   6.043
 3863POPC   C2B51284  42.198  10.728   6.493
 3863POPC   C3B51285  42.058  10.722   6.900
 3863POPC   C4B51286  42.068  10.436   7.215
 3864POPC   NC351287  40.328  25.407   5.438
 3864POPC   PO451288  39.806  25.758   5.426
 3864POPC   GL151289  39.771  25.389   5.717
 3864POPC   GL251290  40.082  25.286   5.857
 3864POPC   C1A51291  39.678  25.361   6.181
 3864POPC   D2A51292  39.672  25.546   6.603
 3864POPC   C3A51293  39.895  25.328   6.956
 3864POPC   C4A51294  39.933  25.361   7.414
 3864POPC   C1B51295  40.221  25.000   6.152
 3864POPC   C2B51296  40.076  25.018   6.555
 3864POPC   C3B51297  40.250  24.874   6.907
 3864POPC   C4B51298  40.365  25.143   7.243
 3865POPC   NC351299  20.520  27.014   5.341
 3865POPC   PO451300  20.807  26.389   5.535
 3865POPC   GL151301  20.484  26.586   5.755
 3865POPC   GL251302  20.686  26.885   5.790
 3865POPC   C1A51303  20.392  26.472   6.201
 3865POPC   D2A51304  20.666  26.422   6.573
 3865POPC   C3A51305  20.504  26.641   6.937
 3865POPC   C4A51306  20.797  26.765   7.231
 3865POPC   C1B51307  20.827  26.738   6.177
 3865POPC   C2B51308  20.586  26.908   6.508
 3865POPC   C3B51309  20.349  27.152   6.757
 3865POPC   C4B51310  20.351  27.100   7.204
 3866POPC   NC351311   9.129  34.850   5.309
 3866POPC   PO451312   8.658  34.400   5.590
 3866POPC   GL151313   8.881  34.684   5.763
 3866POPC   GL251314   9.204  34.509   5.720
 3866POPC   C1A51315   8.841  34.676   6.209
 3866POPC   D2A51316   8.994  34.699   6.635
 3866POPC   C3A51317   8.746  34.575   6.977
 3866POPC   C4A51318   8.845  34.534   7.414
 3866POPC   C1B51319   9.234  34.246   6.108
 3866POPC   C2B51320   9.126  34.203   6.564
 3866POPC   C3B51321   9.226  34.370   6.986
 3866POPC   C4B51322   9.246  34.160   7.369
 3867POPC   NC351323   9.376  33.365   5.576
 3867POPC   PO451324   8.930  32.904   5.252
 3867POPC   GL151325   9.089  32.946   5.653
 3867POPC   GL251326   9.424  32.867   5.681
 3867POPC   C1A51327   9.034  33.072   6.084
 3867POPC   D2A51328   8.761  32.979   6.439
 3867POPC   C3A51329   8.873  33.008   6.887
 3867POPC   C4A51330   8.692  32.833   7.270
 3867POPC   C1B51331   9.423  32.732   6.093
 3867POPC   C2B51332   9.245  32.813   6.485
 3867POPC   C3B51333   9.244  32.648   6.880
 3867POPC   C4B51334   9.407  32.763   7.243
 3868POPC   NC351335   8.241  24.426   5.086
 3868POPC   PO451336   8.167  24.938   5.460
 3868POPC   GL151337   8.165  24.688   5.857
 3868POPC   GL251338   7.994  24.360   5.830
 3868POPC   C1A51339   8.399  24.449   6.210
 3868POPC   D2A51340   8.474  24.125   6.572
 3868POPC   C3A51341   8.410  24.312   6.999
 3868POPC   C4A51342   8.341  24.651   7.279
 3868POPC   C1B51343   7.879  24.546   6.246
 3868POPC   C2B51344   8.065  24.500   6.654
 3868POPC   C3B51345   7.899  24.475   7.075
 3868POPC   C4B51346   7.607  24.375   7.406
 3869POPC   NC351347  16.862  43.905   5.085
 3869POPC   PO451348  16.458  43.587   5.558
 3869POPC   GL151349  16.566  43.975   5.832
 3869POPC   GL251350  16.760  43.716   6.044
 3869POPC   C1A51351  16.794  44.191   6.189
 3869POPC   D2A51352  16.722  43.935   6.546
 3869POPC   C3A51353  16.710  43.997   6.991
 3869POPC   C4A51354  16.478  43.945   7.385
 3869POPC   C1B51355  17.038  43.478   6.342
 3869POPC   C2B51356  17.074  43.632   6.772
 3869POPC   C3B51357  17.073  43.517   7.201
 3869POPC   C4B51358  16.889  43.502   7.622
 3870POPC   NC351359  37.881  43.694   5.318
 3870POPC   PO451360  37.394  44.243   5.263
 3870POPC   GL151361  37.414  44.090   5.768
 3870POPC   GL251362  37.628  43.738   5.807
 3870POPC   C1A51363  37.399  43.928   6.226
 3870POPC   D2A51364  37.254  43.835   6.635
 3870POPC   C3A51365  37.425  44.028   6.993
 3870POPC   C4A51366  37.512  43.920   7.418
 3870POPC   C1B51367  37.890  43.836   6.206
 3870POPC   C2B51368  37.812  43.937   6.646
 3870POPC   C3B51369  37.846  43.755   7.047
 3870POPC   C4B51370  37.933  43.591   7.442
 3871POPC   NC351371  20.827   1.541   5.552
 3871POPC   PO451372  21.429   1.316   5.309
 3871POPC   GL151373  21.249   1.271   5.713
 3871POPC   GL251374  21.107   0.963   5.677
 3871POPC   C1A51375  21.387   1.383   6.141
 3871POPC   D2A51376  21.682   1.329   6.488
 3871POPC   C3A51377  21.443   1.442   6.816
 3871POPC   C4A51378  21.371   1.502   7.222
 3871POPC   C1B51379  21.080   0.977   6.139
 3871POPC   C2B51380  21.335   0.981   6.513
 3871POPC   C3B51381  21.598   0.959   6.877
 3871POPC   C4B51382  21.419   0.824   7.257
 3872POPC   NC351383  24.063  31.711   5.241
 3872POPC   PO451384  23.495  31.299   5.203
 3872POPC   GL151385  23.715  31.437   5.606
 3872POPC   GL251386  23.526  31.229   5.823
 3872POPC   C1A51387  23.813  31.534   6.095
 3872POPC   D2A51388  23.801  31.696   6.537
 3872POPC   C3A51389  23.803  31.549   6.989
 3872POPC   C4A51390  23.712  31.815   7.358
 3872POPC   C1B51391  23.578  31.090   6.237
 3872POPC   C2B51392  23.728  31.174   6.660
 3872POPC   C3B51393  23.562  31.044   7.084
 3872POPC   C4B51394  23.490  31.052   7.547
 3873POPC   NC351395  30.375  38.547   5.423
 3873POPC   PO451396  30.941  38.028   5.208
 3873POPC   GL151397  30.873  38.275   5.712
 3873POPC   GL251398  30.484  38.317   5.866
 3873POPC   C1A51399  30.824  38.519   6.160
 3873POPC   D2A51400  30.986  38.721   6.563
 3873POPC   C3A51401  30.941  38.513   6.952
 3873POPC   C4A51402  30.763  38.720   7.289
 3873POPC   C1B51403  30.324  38.218   6.240
 3873POPC   C2B51404  30.550  38.341   6.602
 3873POPC   C3B51405  30.439  38.427   7.015
 3873POPC   C4B51406  30.269  38.121   7.289
 3874POPC   NC351407  25.844  13.881   5.566
 3874POPC   PO451408  26.242  13.620   5.070
 3874POPC   GL151409  26.243  13.615   5.634
 3874POPC   GL251410  25.937  13.485   5.880
 3874POPC   C1A51411  26.337  13.672   6.102
 3874POPC   D2A51412  26.050  13.674   6.449
 3874POPC   C3A51413  26.156  13.547   6.821
 3874POPC   C4A51414  26.282  13.638   7.190
 3874POPC   C1B51415  25.614  13.677   6.177
 3874POPC   C2B51416  25.501  13.725   6.588
 3874POPC   C3B51417  25.679  13.690   6.967
 3874POPC   C4B51418  25.819  13.764   7.369
 3875POPC   NC351419  19.885   4.001   5.428
 3875POPC   PO451420  20.038   4.606   5.450
 3875POPC   GL151421  19.899   4.335   5.849
 3875POPC   GL251422  20.087   3.992   5.891
 3875POPC   C1A51423  19.638   4.434   6.263
 3875POPC   D2A51424  19.433   4.262   6.647
 3875POPC   C3A51425  19.649   4.460   7.005
 3875POPC   C4A51426  19.449   4.723   7.295
 3875POPC   C1B51427  19.782   3.962   6.220
 3875POPC   C2B51428  19.805   3.930   6.647
 3875POPC   C3B51429  19.931   4.020   7.083
 3875POPC   C4B51430  20.005   4.081   7.544
 3876POPC   NC351431  10.558  41.866   5.441
 3876POPC   PO451432  10.557  42.544   5.400
 3876POPC   GL151433  10.647  42.462   5.848
 3876POPC   GL251434  10.960  42.653   5.892
 3876POPC   C1A51435  10.464  42.302   6.289
 3876POPC   D2A51436  10.657  42.106   6.680
 3876POPC   C3A51437  10.549  42.256   7.110
 3876POPC   C4A51438  10.465  42.705   7.232
 3876POPC   C1B51439  10.793  42.691   6.311
 3876POPC   C2B51440  10.666  42.619   6.732
 3876POPC   C3B51441  10.942  42.584   7.067
 3876POPC   C4B51442  10.877  42.428   7.487
 3877POPC   NC351443  10.026  10.190   5.528
 3877POPC   PO451444   9.696  10.805   5.472
 3877POPC   GL151445   9.901  10.640   5.827
 3877POPC   GL251446   9.572  10.506   5.924
 3877POPC   C1A51447   9.839  10.786   6.275
 3877POPC   D2A51448   9.584  10.886   6.645
 3877POPC   C3A51449   9.748  10.765   7.056
 3877POPC   C4A51450  10.072  10.521   7.225
 3877POPC   C1B51451   9.815  10.251   6.179
 3877POPC   C2B51452   9.797  10.027   6.549
 3877POPC   C3B51453   9.903  10.084   6.985
 3877POPC   C4B51454   9.714  10.138   7.375
 3878POPC   NC351455  28.672  17.162   5.338
 3878POPC   PO451456  28.111  16.499   5.505
 3878POPC   GL151457  28.411  16.669   5.760
 3878POPC   GL251458  28.655  16.481   5.939
 3878POPC   C1A51459  28.337  16.848   6.160
 3878POPC   D2A51460  28.179  16.642   6.540
 3878POPC   C3A51461  28.403  16.723   6.921
 3878POPC   C4A51462  28.245  17.037   7.170
 3878POPC   C1B51463  28.670  16.515   6.404
 3878POPC   C2B51464  28.728  16.324   6.814
 3878POPC   C3B51465  28.688  16.432   7.268
 3878POPC   C4B51466  28.752  16.453   7.743
 3879POPC   NC351467  40.475  31.439   5.328
 3879POPC   PO451468  40.018  31.123   5.634
 3879POPC   GL151469  40.435  31.209   5.821
 3879POPC   GL251470  40.375  31.569   5.902
 3879POPC   C1A51471  40.611  31.307   6.242
 3879POPC   D2A51472  40.317  31.564   6.488
 3879POPC   C3A51473  40.156  31.342   6.837
 3879POPC   C4A51474  40.510  31.221   7.083
 3879POPC   C1B51475  39.954  31.570   6.100
 3879POPC   C2B51476  39.800  31.639   6.512
 3879POPC   C3B51477  39.735  31.636   6.942
 3879POPC   C4B51478  39.680  31.949   7.242
 3880POPC   NC351479   4.449   8.782   5.343
 3880POPC   PO451480   3.946   9.051   5.655
 3880POPC   GL151481   4.308   8.916   5.893
 3880POPC   GL251482   4.560   9.194   5.830
 3880POPC   C1A51483   4.262   8.844   6.358
 3880POPC   D2A51484   4.277   9.112   6.698
 3880POPC   C3A51485   4.241   8.864   7.071
 3880POPC   C4A51486   4.225   9.254   7.268
 3880POPC   C1B51487   4.696   9.043   6.238
 3880POPC   C2B51488   4.705   8.840   6.666
 3880POPC   C3B51489   4.688   9.100   7.037
 3880POPC   C4B51490   4.633   9.093   7.520
 3881POPC   NC351491  43.128  44.288   5.523
 3881POPC   PO451492  42.862  44.946   5.414
 3881POPC   GL151493  42.857  44.691   5.780
 3881POPC   GL251494  42.678  44.352   5.785
 3881POPC   C1A51495  43.223  44.731   6.084
 3881POPC   D2A51496  43.482  44.833   6.455
 3881POPC   C3A51497  43.395  44.763   6.903
 3881POPC   C4A51498  43.330  44.909   7.333
 3881POPC   C1B51499  42.913  44.337   6.157
 3881POPC   C2B51500  42.975  44.584   6.505
 3881POPC   C3B51501  43.009  44.413   6.870
 3881POPC   C4B51502  42.961  44.591   7.216
 3882POPC   NC351503  16.479  26.794   5.312
 3882POPC   PO451504  17.087  26.918   5.509
 3882POPC   GL151505  16.917  26.726   5.838
 3882POPC   GL251506  16.582  26.628   5.801
 3882POPC   C1A51507  16.706  26.873   6.243
 3882POPC   D2A51508  16.822  27.050   6.657
 3882POPC   C3A51509  16.635  26.799   6.991
 3882POPC   C4A51510  16.788  26.678   7.384
 3882POPC   C1B51511  16.352  26.493   6.195
 3882POPC   C2B51512  16.331  26.589   6.625
 3882POPC   C3B51513  16.466  26.307   6.970
 3882POPC   C4B51514  16.413  26.352   7.425
 3883POPC   NC351515  22.323  21.081   5.160
 3883POPC   PO451516  21.822  21.487   5.136
 3883POPC   GL151517  22.033  21.525   5.589
 3883POPC   GL251518  22.326  21.357   5.737
 3883POPC   C1A51519  21.949  21.498   6.056
 3883POPC   D2A51520  22.004  21.229   6.436
 3883POPC   C3A51521  21.907  21.346   6.841
 3883POPC   C4A51522  21.860  21.270   7.244
 3883POPC   C1B51523  22.444  21.372   6.198
 3883POPC   C2B51524  22.453  21.244   6.678
 3883POPC   C3B51525  22.362  21.363   7.124
 3883POPC   C4B51526  22.566  21.356   7.538
 3884POPC   NC351527   2.363   9.922   5.374
 3884POPC   PO451528   1.764   9.667   5.168
 3884POPC   GL151529   1.833   9.866   5.565
 3884POPC   GL251530   2.126   9.957   5.802
 3884POPC   C1A51531   1.709   9.766   5.981
 3884POPC   D2A51532   1.898   9.635   6.362
 3884POPC   C3A51533   1.860   9.823   6.772
 3884POPC   C4A51534   1.921   9.615   7.184
 3884POPC   C1B51535   2.383  10.104   6.150
 3884POPC   C2B51536   2.331   9.866   6.528
 3884POPC   C3B51537   2.349   9.650   6.900
 3884POPC   C4B51538   2.399   9.824   7.298
 3885POPC   NC351539   9.509  22.517   5.441
 3885POPC   PO451540   9.942  22.000   5.477
 3885POPC   GL151541   9.657  22.144   5.843
 3885POPC   GL251542   9.442  22.448   5.928
 3885POPC   C1A51543   9.571  22.134   6.298
 3885POPC   D2A51544   9.777  21.984   6.651
 3885POPC   C3A51545   9.665  22.157   7.053
 3885POPC   C4A51546   9.788  22.098   7.494
 3885POPC   C1B51547   9.865  22.520   6.173
 3885POPC   C2B51548   9.869  22.520   6.619
 3885POPC   C3B51549  10.058  22.668   6.987
 3885POPC   C4B51550  10.077  22.524   7.453
 3886POPC   NC351551  27.393  43.470   5.571
 3886POPC   PO451552  27.683  43.981   5.204
 3886POPC   GL151553  27.670  43.882   5.669
 3886POPC   GL251554  27.920  43.638   5.700
 3886POPC   C1A51555  27.641  43.983   6.182
 3886POPC   D2A51556  27.722  44.198   6.647
 3886POPC   C3A51557  27.637  43.954   7.039
 3886POPC   C4A51558  27.304  43.669   7.222
 3886POPC   C1B51559  27.979  43.566   6.164
 3886POPC   C2B51560  27.991  43.735   6.604
 3886POPC   C3B51561  28.116  43.787   7.046
 3886POPC   C4B51562  27.980  43.952   7.449
 3887POPC   NC351563  31.879  18.887   5.337
 3887POPC   PO451564  32.497  19.153   5.452
 3887POPC   GL151565  32.225  18.968   5.732
 3887POPC   GL251566  32.202  18.611   5.623
 3887POPC   C1A51567  32.312  19.112   6.152
 3887POPC   D2A51568  32.145  19.213   6.553
 3887POPC   C3A51569  32.357  19.213   6.948
 3887POPC   C4A51570  32.177  19.246   7.358
 3887POPC   C1B51571  32.153  18.603   6.082
 3887POPC   C2B51572  32.379  18.711   6.468
 3887POPC   C3B51573  32.485  18.694   6.890
 3887POPC   C4B51574  32.313  18.692   7.266
 3888POPC   NC351575   6.453   5.854   5.249
 3888POPC   PO451576   6.760   5.276   5.478
 3888POPC   GL151577   6.798   5.300   5.869
 3888POPC   GL251578   6.571   5.051   5.968
 3888POPC   C1A51579   6.717   5.455   6.254
 3888POPC   D2A51580   6.876   5.373   6.644
 3888POPC   C3A51581   6.595   5.331   6.981
 3888POPC   C4A51582   6.741   5.147   7.333
 3888POPC   C1B51583   6.801   4.944   6.365
 3888POPC   C2B51584   6.762   4.876   6.826
 3888POPC   C3B51585   6.446   4.781   7.141
 3888POPC   C4B51586   6.040   4.909   7.307
 3889POPC   NC351587  37.735  40.636   5.398
 3889POPC   PO451588  37.972  41.304   5.400
 3889POPC   GL151589  37.738  41.020   5.750
 3889POPC   GL251590  37.475  40.691   5.830
 3889POPC   C1A51591  37.704  40.911   6.202
 3889POPC   D2A51592  37.953  40.870   6.553
 3889POPC   C3A51593  37.811  41.072   6.924
 3889POPC   C4A51594  37.489  40.937   7.186
 3889POPC   C1B51595  37.496  40.437   6.247
 3889POPC   C2B51596  37.665  40.465   6.699
 3889POPC   C3B51597  37.593  40.326   7.127
 3889POPC   C4B51598  37.221  40.499   7.317
 3890POPC   NC351599  39.799  19.485   5.467
 3890POPC   PO451600  40.028  20.126   5.476
 3890POPC   GL151601  40.013  20.004   5.896
 3890POPC   GL251602  40.074  19.652   5.886
 3890POPC   C1A51603  40.046  19.916   6.334
 3890POPC   D2A51604  40.192  19.977   6.737
 3890POPC   C3A51605  39.855  20.022   6.974
 3890POPC   C4A51606  39.882  20.208   7.302
 3890POPC   C1B51607  39.718  19.552   6.141
 3890POPC   C2B51608  39.573  19.685   6.564
 3890POPC   C3B51609  39.738  19.538   6.938
 3890POPC   C4B51610  40.171  19.567   7.107
 3891POPC   NC351611  27.353  10.090   5.157
 3891POPC   PO451612  27.154  10.707   5.319
 3891POPC   GL151613  27.284  10.408   5.658
 3891POPC   GL251614  27.591  10.577   5.774
 3891POPC   C1A51615  27.387  10.295   6.133
 3891POPC   D2A51616  27.525  10.518   6.509
 3891POPC   C3A51617  27.360  10.485   6.940
 3891POPC   C4A51618  27.286  10.836   7.208
 3891POPC   C1B51619  27.897  10.375   6.053
 3891POPC   C2B51620  27.999  10.228   6.459
 3891POPC   C3B51621  27.840  10.293   6.867
 3891POPC   C4B51622  27.667  10.209   7.256
 3892POPC   NC351623  44.993  16.054   5.546
 3892POPC   PO451624  44.349  15.811   5.418
 3892POPC   GL151625  44.473  16.026   5.783
 3892POPC   GL251626  44.712  15.767   5.875
 3892POPC   C1A51627  44.448  16.026   6.256
 3892POPC   D2A51628  44.725  16.126   6.605
 3892POPC   C3A51629  44.596  16.256   7.014
 3892POPC   C4A51630  44.957  16.336   7.311
 3892POPC   C1B51631  44.952  15.771   6.245
 3892POPC   C2B51632  44.800  15.626   6.627
 3892POPC   C3B51633  44.513  15.738   6.917
 3892POPC   C4B51634  44.780  15.831   7.213
 3893POPC   NC351635  38.372   0.339   5.343
 3893POPC   PO451636  39.010   0.265   5.471
 3893POPC   GL151637  38.707   0.435   5.826
 3893POPC   GL251638  38.331   0.437   5.843
 3893POPC   C1A51639  38.590   0.340   6.284
 3893POPC   D2A51640  38.770   0.371   6.686
 3893POPC   C3A51641  38.525   0.397   7.048
 3893POPC   C4A51642  38.691   0.432   7.455
 3893POPC   C1B51643  38.092   0.527   6.232
 3893POPC   C2B51644  37.920   0.628   6.624
 3893POPC   C3B51645  38.025   0.430   6.987
 3893POPC   C4B51646  38.120   0.528   7.435
 3894POPC   NC351647   3.258  42.517   5.546
 3894POPC   PO451648   3.756  42.153   5.332
 3894POPC   GL151649   3.636  42.398   5.845
 3894POPC   GL251650   3.251  42.568   6.028
 3894POPC   C1A51651   3.539  42.305   6.327
 3894POPC   D2A51652   3.453  41.916   6.537
 3894POPC   C3A51653   3.310  41.972   6.937
 3894POPC   C4A51654   3.585  41.939   7.258
 3894POPC   C1B51655   3.121  42.617   6.453
 3894POPC   C2B51656   3.194  42.504   6.880
 3894POPC   C3B51657   3.532  42.455   7.127
 3894POPC   C4B51658   3.666  42.715   7.510
 3895POPC   NC351659  41.841  21.679   5.532
 3895POPC   PO451660  41.932  20.957   5.520
 3895POPC   GL151661  41.747  21.203   5.830
 3895POPC   GL251662  41.422  21.086   5.922
 3895POPC   C1A51663  41.731  21.430   6.227
 3895POPC   D2A51664  41.720  21.288   6.666
 3895POPC   C3A51665  41.742  21.573   7.023
 3895POPC   C4A51666  41.392  21.587   7.274
 3895POPC   C1B51667  41.414  20.996   6.351
 3895POPC   C2B51668  41.163  21.106   6.698
 3895POPC   C3B51669  41.288  21.123   7.110
 3895POPC   C4B51670  41.713  21.042   7.122
 3896POPC   NC351671  36.297  11.537   5.704
 3896POPC   PO451672  36.202  10.865   5.478
 3896POPC   GL151673  36.031  11.081   5.892
 3896POPC   GL251674  35.810  11.387   5.935
 3896POPC   C1A51675  35.969  11.190   6.360
 3896POPC   D2A51676  35.847  11.214   6.789
 3896POPC   C3A51677  36.181  11.245   7.073
 3896POPC   C4A51678  36.167  11.312   7.501
 3896POPC   C1B51679  35.922  11.728   6.263
 3896POPC   C2B51680  36.101  11.660   6.688
 3896POPC   C3B51681  35.904  11.680   7.108
 3896POPC   C4B51682  35.825  11.693   7.555
 3897POPC   NC351683  15.157  38.141   5.390
 3897POPC   PO451684  15.069  37.440   5.448
 3897POPC   GL151685  15.199  37.613   5.800
 3897POPC   GL251686  15.107  37.969   5.874
 3897POPC   C1A51687  15.230  37.597   6.207
 3897POPC   D2A51688  15.041  37.518   6.569
 3897POPC   C3A51689  15.287  37.797   6.819
 3897POPC   C4A51690  15.513  37.876   7.194
 3897POPC   C1B51691  14.842  37.934   6.283
 3897POPC   C2B51692  14.778  37.892   6.762
 3897POPC   C3B51693  14.988  37.974   7.196
 3897POPC   C4B51694  15.307  38.182   7.530
 3898POPC   NC351695   7.189  23.914   5.521
 3898POPC   PO451696   7.640  23.461   5.481
 3898POPC   GL151697   7.492  23.621   5.891
 3898POPC   GL251698   7.696  23.898   5.954
 3898POPC   C1A51699   7.399  23.726   6.367
 3898POPC   D2A51700   7.222  23.524   6.744
 3898POPC   C3A51701   7.122  23.710   7.150
 3898POPC   C4A51702   7.375  23.869   7.502
 3898POPC   C1B51703   7.849  23.547   6.253
 3898POPC   C2B51704   7.743  23.426   6.697
 3898POPC   C3B51705   7.603  23.559   7.099
 3898POPC   C4B51706   7.607  23.394   7.511
 3899POPC   NC351707  22.900  11.929   5.467
 3899POPC   PO451708  23.445  12.408   5.490
 3899POPC   GL151709  23.213  12.115   5.836
 3899POPC   GL251710  22.814  12.081   5.940
 3899POPC   C1A51711  23.157  11.808   6.207
 3899POPC   D2A51712  23.043  11.658   6.625
 3899POPC   C3A51713  23.098  11.852   7.021
 3899POPC   C4A51714  22.935  11.801   7.374
 3899POPC   C1B51715  22.691  11.977   6.355
 3899POPC   C2B51716  22.841  12.167   6.729
 3899POPC   C3B51717  22.738  12.217   7.155
 3899POPC   C4B51718  22.474  12.367   7.514
 3900POPC   NC351719  35.672  33.219   5.422
 3900POPC   PO451720  35.033  32.969   5.428
 3900POPC   GL151721  35.285  33.161   5.742
 3900POPC   GL251722  35.306  32.825   5.905
 3900POPC   C1A51723  35.499  33.246   6.149
 3900POPC   D2A51724  35.461  32.999   6.521
 3900POPC   C3A51725  35.568  33.126   6.919
 3900POPC   C4A51726  35.537  33.047   7.330
 3900POPC   C1B51727  35.002  33.069   6.145
 3900POPC   C2B51728  34.895  33.069   6.556
 3900POPC   C3B51729  35.090  32.913   6.909
 3900POPC   C4B51730  35.027  32.948   7.344
 3901POPC   NC351731  30.187  26.033   5.135
 3901POPC   PO451732  29.907  25.813   5.713
 3901POPC   GL151733  30.197  26.043   5.921
 3901POPC   GL251734  29.955  26.271   5.966
 3901POPC   C1A51735  30.196  26.026   6.377
 3901POPC   D2A51736  30.109  26.127   6.810
 3901POPC   C3A51737  29.775  25.925   6.972
 3901POPC   C4A51738  29.906  25.800   7.362
 3901POPC   C1B51739  29.626  26.155   6.260
 3901POPC   C2B51740  29.491  26.396   6.597
 3901POPC   C3B51741  29.696  26.456   6.953
 3901POPC   C4B51742  29.706  26.274   7.326
 3902POPC   NC351743  16.588  33.881   5.041
 3902POPC   PO451744  16.696  34.448   5.354
 3902POPC   GL151745  16.711  34.164   5.645
 3902POPC   GL251746  16.425  34.263   5.843
 3902POPC   C1A51747  16.743  33.893   6.005
 3902POPC   D2A51748  16.805  33.898   6.445
 3902POPC   C3A51749  16.868  33.776   6.865
 3902POPC   C4A51750  16.913  34.061   7.185
 3902POPC   C1B51751  16.352  34.101   6.301
 3902POPC   C2B51752  16.442  34.047   6.782
 3902POPC   C3B51753  16.416  34.024   7.253
 3902POPC   C4B51754  16.282  34.197   7.680
 3903POPC   NC351755   6.163  30.042   5.267
 3903POPC   PO451756   5.654  29.621   5.296
 3903POPC   GL151757   5.538  29.694   5.759
 3903POPC   GL251758   5.865  29.777   5.867
 3903POPC   C1A51759   5.596  29.503   6.209
 3903POPC   D2A51760   5.900  29.655   6.533
 3903POPC   C3A51761   5.757  29.722   6.972
 3903POPC   C4A51762   5.710  30.018   7.304
 3903POPC   C1B51763   6.032  30.065   6.180
 3903POPC   C2B51764   6.277  29.999   6.534
 3903POPC   C3B51765   6.301  29.742   6.891
 3903POPC   C4B51766   6.162  29.764   7.292
 3904POPC   NC351767  19.136  21.362   5.422
 3904POPC   PO451768  19.574  21.921   5.414
 3904POPC   GL151769  19.441  21.596   5.731
 3904POPC   GL251770  19.063  21.601   5.856
 3904POPC   C1A51771  19.417  21.426   6.169
 3904POPC   D2A51772  19.093  21.533   6.479
 3904POPC   C3A51773  19.238  21.460   6.895
 3904POPC   C4A51774  19.196  21.526   7.344
 3904POPC   C1B51775  18.669  21.564   6.066
 3904POPC   C2B51776  18.571  21.626   6.503
 3904POPC   C3B51777  18.719  21.478   6.893
 3904POPC   C4B51778  18.562  21.441   7.293
 3905POPC   NC351779  43.647  28.160   5.393
 3905POPC   PO451780  43.794  28.822   5.206
 3905POPC   GL151781  43.713  28.576   5.697
 3905POPC   GL251782  44.010  28.401   5.837
 3905POPC   C1A51783  43.802  28.720   6.171
 3905POPC   D2A51784  43.874  28.432   6.535
 3905POPC   C3A51785  43.860  28.524   6.986
 3905POPC   C4A51786  43.901  28.496   7.421
 3905POPC   C1B51787  43.694  28.202   6.087
 3905POPC   C2B51788  43.481  28.108   6.475
 3905POPC   C3B51789  43.715  28.032   6.824
 3905POPC   C4B51790  43.628  28.113   7.227
 3906POPC   NC351791  19.895   9.976   5.201
 3906POPC   PO451792  19.511   9.786   5.751
 3906POPC   GL151793  19.800  10.003   5.949
 3906POPC   GL251794  20.103  10.044   5.732
 3906POPC   C1A51795  19.714  10.100   6.377
 3906POPC   D2A51796  19.448   9.755   6.559
 3906POPC   C3A51797  19.537   9.670   6.990
 3906POPC   C4A51798  19.872   9.872   7.203
 3906POPC   C1B51799  20.245   9.899   6.157
 3906POPC   C2B51800  20.089   9.840   6.590
 3906POPC   C3B51801  20.325   9.823   6.960
 3906POPC   C4B51802  20.317   9.619   7.327
 3907POPC   NC351803   5.038  33.785   5.420
 3907POPC   PO451804   5.650  33.944   5.343
 3907POPC   GL151805   5.406  33.908   5.784
 3907POPC   GL251806   5.319  33.570   5.850
 3907POPC   C1A51807   5.235  33.944   6.236
 3907POPC   D2A51808   5.077  33.803   6.671
 3907POPC   C3A51809   5.121  34.007   7.080
 3907POPC   C4A51810   4.925  34.059   7.498
 3907POPC   C1B51811   5.261  33.443   6.315
 3907POPC   C2B51812   5.458  33.417   6.748
 3907POPC   C3B51813   5.248  33.497   7.165
 3907POPC   C4B51814   5.181  33.466   7.638
 3908POPC   NC351815  36.384  41.995   5.523
 3908POPC   PO451816  36.292  42.632   5.427
 3908POPC   GL151817  36.300  42.542   5.881
 3908POPC   GL251818  36.188  42.187   5.948
 3908POPC   C1A51819  35.969  42.573   6.245
 3908POPC   D2A51820  35.816  42.897   6.562
 3908POPC   C3A51821  35.937  42.818   7.037
 3908POPC   C4A51822  36.270  42.617   7.313
 3908POPC   C1B51823  36.528  42.200   6.219
 3908POPC   C2B51824  36.644  42.401   6.586
 3908POPC   C3B51825  36.366  42.314   6.921
 3908POPC   C4B51826  36.456  42.151   7.332
 3909POPC   NC351827  10.884  30.814   5.395
 3909POPC   PO451828  11.435  30.489   5.263
 3909POPC   GL151829  11.239  30.597   5.704
 3909POPC   GL251830  11.140  30.969   5.812
 3909POPC   C1A51831  11.142  30.608   6.174
 3909POPC   D2A51832  11.051  30.681   6.608
 3909POPC   C3A51833  11.296  30.614   6.962
 3909POPC   C4A51834  11.376  30.714   7.369
 3909POPC   C1B51835  11.244  31.128   6.252
 3909POPC   C2B51836  11.441  31.063   6.682
 3909POPC   C3B51837  11.721  30.962   7.048
 3909POPC   C4B51838  11.858  30.775   7.472
 3910POPC   NC351839   5.341  43.234   5.353
 3910POPC   PO451840   4.802  42.990   5.155
 3910POPC   GL151841   4.902  43.130   5.602
 3910POPC   GL251842   5.135  42.890   5.713
 3910POPC   C1A51843   5.011  43.221   6.083
 3910POPC   D2A51844   5.177  43.385   6.509
 3910POPC   C3A51845   5.182  43.142   6.913
 3910POPC   C4A51846   5.293  43.283   7.328
 3910POPC   C1B51847   5.412  42.896   6.071
 3910POPC   C2B51848   5.465  42.950   6.503
 3910POPC   C3B51849   5.453  42.709   6.860
 3910POPC   C4B51850   5.467  42.815   7.276
 3911POPC   NC351851   7.701   5.264   5.420
 3911POPC   PO451852   8.288   4.991   5.144
 3911POPC   GL151853   8.263   5.075   5.662
 3911POPC   GL251854   7.981   5.191   5.857
 3911POPC   C1A51855   8.409   5.280   6.112
 3911POPC   D2A51856   8.415   5.363   6.581
 3911POPC   C3A51857   8.657   5.232   6.930
 3911POPC   C4A51858   8.423   5.229   7.305
 3911POPC   C1B51859   7.910   5.388   6.286
 3911POPC   C2B51860   7.952   5.513   6.724
 3911POPC   C3B51861   7.976   5.346   7.138
 3911POPC   C4B51862   8.025   5.240   7.620
 3912POPC   NC351863  26.103  14.045   5.116
 3912POPC   PO451864  26.014  14.652   5.300
 3912POPC   GL151865  26.062  14.395   5.688
 3912POPC   GL251866  26.168  14.090   5.866
 3912POPC   C1A51867  26.036  14.552   6.114
 3912POPC   D2A51868  26.220  14.539   6.523
 3912POPC   C3A51869  26.039  14.552   6.899
 3912POPC   C4A51870  25.756  14.663   7.177
 3912POPC   C1B51871  25.895  14.085   6.196
 3912POPC   C2B51872  25.841  14.127   6.627
 3912POPC   C3B51873  26.026  14.053   7.004
 3912POPC   C4B51874  26.033  14.295   7.366
 3913POPC   NC351875   6.501  44.585   5.417
 3913POPC   PO451876   7.174  44.717   5.552
 3913POPC   GL151877   6.833  44.666   5.859
 3913POPC   GL251878   6.611  44.371   5.853
 3913POPC   C1A51879   6.491  44.743   6.186
 3913POPC   D2A51880   6.338  44.885   6.606
 3913POPC   C3A51881   6.472  44.720   7.022
 3913POPC   C4A51882   6.921  44.782   7.124
 3913POPC   C1B51883   6.807  44.336   6.240
 3913POPC   C2B51884   6.728  44.506   6.629
 3913POPC   C3B51885   6.730  44.280   6.994
 3913POPC   C4B51886   6.478  44.280   7.330
 3914POPC   NC351887  18.490  37.986   5.465
 3914POPC   PO451888  18.462  38.697   5.382
 3914POPC   GL151889  18.250  38.674   5.787
 3914POPC   GL251890  18.314  38.320   5.813
 3914POPC   C1A51891  18.129  38.599   6.211
 3914POPC   D2A51892  18.409  38.585   6.548
 3914POPC   C3A51893  18.355  38.486   6.936
 3914POPC   C4A51894  17.997  38.544   7.154
 3914POPC   C1B51895  18.444  38.170   6.226
 3914POPC   C2B51896  18.238  38.072   6.635
 3914POPC   C3B51897  18.162  38.054   7.096
 3914POPC   C4B51898  18.145  37.970   7.595
 3915POPC   NC351899  36.804  40.374   5.145
 3915POPC   PO451900  37.201  40.861   5.436
 3915POPC   GL151901  36.969  40.908   5.817
 3915POPC   GL251902  36.632  41.043   5.836
 3915POPC   C1A51903  37.071  40.779   6.212
 3915POPC   D2A51904  37.335  40.847   6.567
 3915POPC   C3A51905  37.080  40.782   6.915
 3915POPC   C4A51906  36.994  41.074   7.235
 3915POPC   C1B51907  36.525  40.874   6.210
 3915POPC   C2B51908  36.629  40.611   6.544
 3915POPC   C3B51909  36.440  40.537   6.935
 3915POPC   C4B51910  36.709  40.586   7.273
 3916POPC   NC351911  27.929   8.638   5.194
 3916POPC   PO451912  27.482   8.994   5.565
 3916POPC   GL151913  27.554   9.071   5.964
 3916POPC   GL251914  27.877   9.283   5.900
 3916POPC   C1A51915  27.330   8.897   6.322
 3916POPC   D2A51916  27.187   8.590   6.646
 3916POPC   C3A51917  27.323   8.805   7.049
 3916POPC   C4A51918  27.506   9.210   7.207
 3916POPC   C1B51919  27.725   9.382   6.319
 3916POPC   C2B51920  27.671   9.162   6.722
 3916POPC   C3B51921  27.878   8.854   6.991
 3916POPC   C4B51922  27.985   8.709   7.405
 3917POPC   NC351923   8.062   7.707   5.442
 3917POPC   PO451924   8.404   7.139   5.350
 3917POPC   GL151925   8.332   7.375   5.745
 3917POPC   GL251926   7.979   7.313   5.827
 3917POPC   C1A51927   8.347   7.440   6.217
 3917POPC   D2A51928   8.159   7.319   6.612
 3917POPC   C3A51929   8.241   7.486   7.043
 3917POPC   C4A51930   8.471   7.876   7.128
 3917POPC   C1B51931   8.092   6.986   6.142
 3917POPC   C2B51932   8.031   6.825   6.563
 3917POPC   C3B51933   7.816   7.062   6.865
 3917POPC   C4B51934   7.914   7.147   7.271
 3918POPC   NC351935  35.284   9.298   5.436
 3918POPC   PO451936  35.645   8.706   5.700
 3918POPC   GL151937  35.401   8.995   5.809
 3918POPC   GL251938  35.681   9.259   5.751
 3918POPC   C1A51939  35.174   8.948   6.194
 3918POPC   D2A51940  35.395   8.879   6.573
 3918POPC   C3A51941  35.215   9.030   6.931
 3918POPC   C4A51942  35.232   8.789   7.254
 3918POPC   C1B51943  35.621   9.201   6.196
 3918POPC   C2B51944  35.777   9.329   6.557
 3918POPC   C3B51945  35.687   9.167   6.900
 3918POPC   C4B51946  35.532   9.245   7.269
 3919POPC   NC351947  37.010  30.016   5.477
 3919POPC   PO451948  36.691  29.399   5.429
 3919POPC   GL151949  36.778  29.690   5.802
 3919POPC   GL251950  37.132  29.807   5.921
 3919POPC   C1A51951  36.687  29.772   6.239
 3919POPC   D2A51952  36.769  29.600   6.660
 3919POPC   C3A51953  36.987  29.637   7.049
 3919POPC   C4A51954  36.786  29.680   7.440
 3919POPC   C1B51955  37.159  30.102   6.260
 3919POPC   C2B51956  36.847  30.120   6.596
 3919POPC   C3B51957  36.691  30.046   7.006
 3919POPC   C4B51958  36.990  30.112   7.346
 3920POPC   NC351959  27.300  24.254   5.481
 3920POPC   PO451960  26.666  24.579   5.380
 3920POPC   GL151961  26.846  24.697   5.718
 3920POPC   GL251962  26.671  25.014   5.690
 3920POPC   C1A51963  26.933  24.493   6.138
 3920POPC   D2A51964  26.748  24.253   6.483
 3920POPC   C3A51965  26.778  24.450   6.888
 3920POPC   C4A51966  26.731  24.306   7.292
 3920POPC   C1B51967  26.715  24.971   6.116
 3920POPC   C2B51968  26.590  24.755   6.479
 3920POPC   C3B51969  26.519  24.933   6.863
 3920POPC   C4B51970  26.734  24.889   7.211
 3921POPC   NC351971  11.562   0.929   5.387
 3921POPC   PO451972  11.337   0.242   5.358
 3921POPC   GL151973  11.173   0.300   5.762
 3921POPC   GL251974  11.379   0.582   5.871
 3921POPC   C1A51975  11.196   0.199   6.195
 3921POPC   D2A51976  11.302   0.287   6.621
 3921POPC   C3A51977  11.199   0.046   6.969
 3921POPC   C4A51978  11.195   0.300   7.314
 3921POPC   C1B51979  11.638   0.474   6.250
 3921POPC   C2B51980  11.670   0.650   6.645
 3921POPC   C3B51981  11.632   0.390   7.003
 3921POPC   C4B51982  11.560   0.657   7.323
 3922POPC   NC351983  26.762   8.023   5.312
 3922POPC   PO451984  26.648   8.664   5.369
 3922POPC   GL151985  26.820   8.459   5.788
 3922POPC   GL251986  26.697   8.112   5.847
 3922POPC   C1A51987  26.843   8.351   6.263
 3922POPC   D2A51988  26.619   8.486   6.614
 3922POPC   C3A51989  26.672   8.270   7.002
 3922POPC   C4A51990  26.681   8.363   7.434
 3922POPC   C1B51991  26.472   7.975   6.251
 3922POPC   C2B51992  26.297   8.095   6.654
 3922POPC   C3B51993  26.245   8.020   7.090
 3922POPC   C4B51994  26.548   7.866   7.384
 3923POPC   NC351995  27.953  17.670   4.994
 3923POPC   PO451996  27.526  17.360   5.412
 3923POPC   GL151997  27.443  17.597   5.755
 3923POPC   GL251998  27.175  17.392   5.852
 3923POPC   C1A51999  27.686  17.793   6.127
 3923POPC   D2A52000  27.833  17.598   6.507
 3923POPC   C3A52001  27.691  17.750   6.898
 3923POPC   C4A52002  27.546  17.634   7.262
 3923POPC   C1B52003  27.480  17.335   6.204
 3923POPC   C2B52004  27.380  17.385   6.655
 3923POPC   C3B52005  27.237  17.283   7.067
 3923POPC   C4B52006  27.334  17.045   7.457
 3924POPC   NC352007  33.731  20.973   5.412
 3924POPC   PO452008  33.544  20.347   5.326
 3924POPC   GL152009  33.758  20.509   5.697
 3924POPC   GL252010  33.613  20.815   5.872
 3924POPC   C1A52011  33.894  20.418   6.125
 3924POPC   D2A52012  33.703  20.330   6.555
 3924POPC   C3A52013  33.988  20.370   6.950
 3924POPC   C4A52014  34.103  20.671   7.297
 3924POPC   C1B52015  33.606  20.793   6.313
 3924POPC   C2B52016  33.891  20.817   6.668
 3924POPC   C3B52017  33.684  20.783   7.052
 3924POPC   C4B52018  33.312  21.000   7.203
 3925POPC   NC352019  20.218  41.206   5.521
 3925POPC   PO452020  20.090  40.546   5.507
 3925POPC   GL152021  19.894  40.777   5.808
 3925POPC   GL252022  19.639  40.483   5.840
 3925POPC   C1A52023  20.097  40.945   6.187
 3925POPC   D2A52024  20.147  40.707   6.578
 3925POPC   C3A52025  20.092  40.930   6.945
 3925POPC   C4A52026  20.313  41.138   7.238
 3925POPC   C1B52027  19.741  40.558   6.281
 3925POPC   C2B52028  19.607  40.772   6.680
 3925POPC   C3B52029  19.700  40.616   7.069
 3925POPC   C4B52030  20.050  40.402   7.048
 3926POPC   NC352031   5.821  30.851   5.528
 3926POPC   PO452032   6.139  31.399   5.313
 3926POPC   GL152033   6.076  31.685   5.675
 3926POPC   GL252034   5.710  31.728   5.659
 3926POPC   C1A52035   6.158  31.652   6.143
 3926POPC   D2A52036   6.140  31.328   6.481
 3926POPC   C3A52037   6.000  31.518   6.865
 3926POPC   C4A52038   6.073  31.553   7.300
 3926POPC   C1B52039   5.701  31.421   6.013
 3926POPC   C2B52040   5.638  31.418   6.469
 3926POPC   C3B52041   5.536  31.255   6.865
 3926POPC   C4B52042   5.585  31.503   7.194
 3927POPC   NC352043   1.169   0.744   5.470
 3927POPC   PO452044   1.419   0.196   5.468
 3927POPC   GL152045   1.271   0.322   5.871
 3927POPC   GL252046   0.945   0.285   5.978
 3927POPC   C1A52047   1.377   0.331   6.338
 3927POPC   D2A52048   1.413   0.258   6.828
 3927POPC   C3A52049   1.100   0.498   7.017
 3927POPC   C4A52050   1.085   0.938   7.081
 3927POPC   C1B52051   0.859   0.398   6.409
 3927POPC   C2B52052   0.724   0.185   6.759
 3927POPC   C3B52053   0.976  44.992   7.048
 3927POPC   C4B52054   1.174   0.151   7.414
 3928POPC   NC352055  14.046  43.058   5.462
 3928POPC   PO452056  13.375  42.999   5.379
 3928POPC   GL152057  13.629  43.133   5.740
 3928POPC   GL252058  13.618  42.800   5.834
 3928POPC   C1A52059  13.873  43.064   6.171
 3928POPC   D2A52060  13.785  42.885   6.559
 3928POPC   C3A52061  13.878  43.031   6.927
 3928POPC   C4A52062  13.913  43.174   7.349
 3928POPC   C1B52063  13.458  42.690   6.217
 3928POPC   C2B52064  13.282  42.852   6.593
 3928POPC   C3B52065  13.462  42.686   6.948
 3928POPC   C4B52066  13.662  42.749   7.293
 3929POPC   NC352067  32.031  39.491   5.638
 3929POPC   PO452068  32.347  38.976   5.316
 3929POPC   GL152069  32.411  39.013   5.760
 3929POPC   GL252070  32.072  38.966   5.857
 3929POPC   C1A52071  32.395  39.235   6.182
 3929POPC   D2A52072  32.478  39.104   6.608
 3929POPC   C3A52073  32.435  39.397   6.958
 3929POPC   C4A52074  32.351  39.379   7.428
 3929POPC   C1B52075  32.187  38.775   6.274
 3929POPC   C2B52076  32.005  38.886   6.695
 3929POPC   C3B52077  32.094  39.026   7.121
 3929POPC   C4B52078  32.198  38.888   7.538
 3930POPC   NC352079  10.149   0.027   5.412
 3930POPC   PO452080  10.795  44.798   5.267
 3930POPC   GL152081  10.665  44.890   5.736
 3930POPC   GL252082  10.363  44.696   5.785
 3930POPC   C1A52083  10.684  44.770   6.218
 3930POPC   D2A52084  10.822  44.533   6.637
 3930POPC   C3A52085  10.743  44.742   7.029
 3930POPC   C4A52086  10.510   0.090   7.180
 3930POPC   C1B52087  10.212  44.530   6.169
 3930POPC   C2B52088  10.303  44.618   6.593
 3930POPC   C3B52089  10.331  44.373   6.962
 3930POPC   C4B52090  10.321  44.588   7.358
 3931POPC   NC352091  28.712  42.635   5.156
 3931POPC   PO452092  28.188  42.258   5.390
 3931POPC   GL152093  28.342  42.232   5.783
 3931POPC   GL252094  28.494  42.544   5.730
 3931POPC   C1A52095  28.342  42.084   6.200
 3931POPC   D2A52096  28.208  42.308   6.559
 3931POPC   C3A52097  28.261  42.131   6.955
 3931POPC   C4A52098  28.539  42.302   7.263
 3931POPC   C1B52099  28.352  42.609   6.140
 3931POPC   C2B52100  28.471  42.757   6.525
 3931POPC   C3B52101  28.405  42.669   6.936
 3931POPC   C4B52102  28.572  42.820   7.311
 3932POPC   NC352103  21.924  29.037   5.398
 3932POPC   PO452104  22.555  29.275   5.233
 3932POPC   GL152105  22.285  29.311   5.663
 3932POPC   GL252106  22.208  28.950   5.814
 3932POPC   C1A52107  22.230  29.408   6.124
 3932POPC   D2A52108  22.258  29.540   6.556
 3932POPC   C3A52109  22.069  29.360   6.923
 3932POPC   C4A52110  22.325  29.450   7.294
 3932POPC   C1B52111  22.054  28.815   6.237
 3932POPC   C2B52112  21.931  28.860   6.699
 3932POPC   C3B52113  22.043  28.805   7.135
 3932POPC   C4B52114  21.899  28.519   7.459
 3933POPC   NC352115  25.030   3.150   5.585
 3933POPC   PO452116  25.464   2.756   5.383
 3933POPC   GL152117  25.480   2.878   5.834
 3933POPC   GL252118  25.152   2.916   6.022
 3933POPC   C1A52119  25.578   2.687   6.260
 3933POPC   D2A52120  25.591   2.441   6.676
 3933POPC   C3A52121  25.449   2.635   7.071
 3933POPC   C4A52122  25.305   2.986   7.357
 3933POPC   C1B52123  25.072   2.623   6.359
 3933POPC   C2B52124  25.058   2.478   6.768
 3933POPC   C3B52125  24.937   2.721   7.161
 3933POPC   C4B52126  24.964   2.553   7.596
 3934POPC   NC352127   9.086  20.349   4.845
 3934POPC   PO452128   9.086  20.685   5.409
 3934POPC   GL152129   9.188  20.783   5.826
 3934POPC   GL252130   9.136  20.446   5.892
 3934POPC   C1A52131   9.013  20.812   6.255
 3934POPC   D2A52132   9.074  20.698   6.690
 3934POPC   C3A52133   8.855  20.794   7.052
 3934POPC   C4A52134   8.903  21.047   7.401
 3934POPC   C1B52135   9.176  20.311   6.319
 3934POPC   C2B52136   9.130  19.988   6.607
 3934POPC   C3B52137   9.339  20.107   6.971
 3934POPC   C4B52138   9.236  20.435   7.259
 3935POPC   NC352139  38.260  21.109   5.277
 3935POPC   PO452140  38.470  20.441   5.410
 3935POPC   GL152141  38.432  20.381   5.892
 3935POPC   GL252142  38.793  20.361   5.823
 3935POPC   C1A52143  38.372  20.440   6.386
 3935POPC   D2A52144  38.311  20.802   6.680
 3935POPC   C3A52145  38.293  20.739   7.155
 3935POPC   C4A52146  38.156  20.787   7.654
 3935POPC   C1B52147  38.768  20.674   6.147
 3935POPC   C2B52148  38.918  20.541   6.517
 3935POPC   C3B52149  38.737  20.552   6.903
 3935POPC   C4B52150  38.794  20.803   7.242
 3936POPC   NC352151   8.609  44.384   5.625
 3936POPC   PO452152   8.524  44.973   5.378
 3936POPC   GL152153   8.792  44.855   5.757
 3936POPC   GL252154   9.164  44.846   5.820
 3936POPC   C1A52155   8.845  44.781   6.215
 3936POPC   D2A52156   8.813  44.967   6.626
 3936POPC   C3A52157   8.705  44.724   7.011
 3936POPC   C4A52158   8.883  44.757   7.443
 3936POPC   C1B52159   9.317  44.583   6.182
 3936POPC   C2B52160   9.098  44.517   6.582
 3936POPC   C3B52161   9.188  44.595   7.002
 3936POPC   C4B52162   9.496  44.382   7.197
 3937POPC   NC352163  25.566   9.247   5.471
 3937POPC   PO452164  24.933   8.990   5.333
 3937POPC   GL152165  25.152   9.011   5.750
 3937POPC   GL252166  25.489   8.883   5.819
 3937POPC   C1A52167  25.260   9.106   6.192
 3937POPC   D2A52168  25.221   9.179   6.619
 3937POPC   C3A52169  25.204   8.930   6.968
 3937POPC   C4A52170  25.123   9.093   7.358
 3937POPC   C1B52171  25.713   8.819   6.211
 3937POPC   C2B52172  25.651   8.856   6.660
 3937POPC   C3B52173  25.677   8.819   7.090
 3937POPC   C4B52174  25.503   8.785   7.469
 3938POPC   NC352175  22.744  22.552   5.466
 3938POPC   PO452176  23.220  22.991   5.404
 3938POPC   GL152177  22.944  22.951   5.772
 3938POPC   GL252178  22.914  22.654   5.947
 3938POPC   C1A52179  22.799  23.115   6.168
 3938POPC   D2A52180  22.722  22.986   6.607
 3938POPC   C3A52181  22.730  23.285   6.944
 3938POPC   C4A52182  23.024  23.199   7.231
 3938POPC   C1B52183  23.114  22.729   6.360
 3938POPC   C2B52184  22.992  22.581   6.799
 3938POPC   C3B52185  22.926  22.656   7.271
 3938POPC   C4B52186  22.874  22.471   7.749
 3939POPC   NC352187  34.900  30.141   5.448
 3939POPC   PO452188  34.445  30.693   5.557
 3939POPC   GL152189  34.726  30.751   5.871
 3939POPC   GL252190  34.967  30.541   5.769
 3939POPC   C1A52191  34.801  30.851   6.311
 3939POPC   D2A52192  34.592  31.096   6.636
 3939POPC   C3A52193  34.437  30.794   6.912
 3939POPC   C4A52194  34.514  30.761   7.333
 3939POPC   C1B52195  34.807  30.349   6.170
 3939POPC   C2B52196  34.729  30.238   6.607
 3939POPC   C3B52197  34.749  30.398   7.029
 3939POPC   C4B52198  34.961  30.540   7.417
 3940POPC   NC352199  23.625  42.703   5.306
 3940POPC   PO452200  23.733  43.409   5.423
 3940POPC   GL152201  23.716  43.214   5.799
 3940POPC   GL252202  24.034  43.157   5.874
 3940POPC   C1A52203  23.578  43.080   6.201
 3940POPC   D2A52204  23.761  43.048   6.602
 3940POPC   C3A52205  23.470  43.008   6.929
 3940POPC   C4A52206  23.610  43.076   7.316
 3940POPC   C1B52207  23.901  43.469   6.223
 3940POPC   C2B52208  23.938  43.555   6.666
 3940POPC   C3B52209  24.008  43.297   7.031
 3940POPC   C4B52210  23.927  43.488   7.433
 3941POPC   NC352211  41.121  21.819   5.482
 3941POPC   PO452212  41.093  22.379   5.035
 3941POPC   GL152213  40.878  22.296   5.502
 3941POPC   GL252214  41.055  22.582   5.640
 3941POPC   C1A52215  40.810  22.120   5.986
 3941POPC   D2A52216  40.721  21.902   6.401
 3941POPC   C3A52217  40.712  21.973   6.865
 3941POPC   C4A52218  40.608  22.099   7.310
 3941POPC   C1B52219  40.939  22.598   6.067
 3941POPC   C2B52220  40.864  22.429   6.519
 3941POPC   C3B52221  40.941  22.417   6.987
 3941POPC   C4B52222  41.357  22.451   7.212
 3942POPC   NC352223  29.032   0.676   5.422
 3942POPC   PO452224  29.314   0.110   5.251
 3942POPC   GL152225  29.385   0.275   5.703
 3942POPC   GL252226  29.057   0.327   5.802
 3942POPC   C1A52227  29.441   0.468   6.158
 3942POPC   D2A52228  29.264   0.711   6.489
 3942POPC   C3A52229  29.364   0.688   6.918
 3942POPC   C4A52230  29.340   0.554   7.353
 3942POPC   C1B52231  29.161   0.051   6.142
 3942POPC   C2B52232  29.183   0.201   6.560
 3942POPC   C3B52233  29.072   0.279   6.989
 3942POPC   C4B52234  29.317   0.053   7.282
 3943POPC   NC352235   0.457  25.863   5.216
 3943POPC   PO452236   0.540  26.431   5.489
 3943POPC   GL152237   0.260  26.119   5.720
 3943POPC   GL252238   0.321  25.726   5.697
 3943POPC   C1A52239   0.170  26.184   6.177
 3943POPC   D2A52240   0.496  26.291   6.520
 3943POPC   C3A52241   0.527  26.080   6.925
 3943POPC   C4A52242   0.148  26.009   7.154
 3943POPC   C1B52243   0.528  25.840   6.078
 3943POPC   C2B52244   0.407  25.779   6.506
 3943POPC   C3B52245   0.391  25.587   6.920
 3943POPC   C4B52246   0.499  25.673   7.349
 3944POPC   NC352247  18.871  10.821   5.271
 3944POPC   PO452248  19.224  10.871   5.891
 3944POPC   GL152249  19.030  11.228   6.049
 3944POPC   GL252250  18.732  11.317   5.893
 3944POPC   C1A52251  19.047  11.353   6.472
 3944POPC   D2A52252  19.254  11.076   6.775
 3944POPC   C3A52253  19.236  11.264   7.183
 3944POPC   C4A52254  19.266  11.074   7.583
 3944POPC   C1B52255  18.591  11.131   6.306
 3944POPC   C2B52256  18.780  10.874   6.639
 3944POPC   C3B52257  18.863  10.922   7.091
 3944POPC   C4B52258  18.687  11.056   7.489
 3945POPC   NC352259  32.718  27.357   5.439
 3945POPC   PO452260  32.103  27.461   5.141
 3945POPC   GL152261  32.226  27.509   5.618
 3945POPC   GL252262  32.491  27.685   5.854
 3945POPC   C1A52263  32.126  27.389   6.057
 3945POPC   D2A52264  32.033  27.586   6.466
 3945POPC   C3A52265  32.061  27.424   6.883
 3945POPC   C4A52266  32.230  27.591   7.228
 3945POPC   C1B52267  32.558  27.458   6.303
 3945POPC   C2B52268  32.558  27.388   6.777
 3945POPC   C3B52269  32.721  27.609   7.144
 3945POPC   C4B52270  32.566  27.856   7.503
 3946POPC   NC352271   2.254  21.975   5.388
 3946POPC   PO452272   1.611  22.126   5.552
 3946POPC   GL152273   1.934  22.075   5.866
 3946POPC   GL252274   2.301  22.073   5.884
 3946POPC   C1A52275   1.950  22.123   6.307
 3946POPC   D2A52276   1.698  21.846   6.549
 3946POPC   C3A52277   1.748  21.948   6.938
 3946POPC   C4A52278   1.560  21.899   7.313
 3946POPC   C1B52279   2.405  21.859   6.269
 3946POPC   C2B52280   2.187  21.832   6.680
 3946POPC   C3B52281   2.248  22.067   7.089
 3946POPC   C4B52282   2.256  22.381   7.443
 3947POPC   NC352283  35.729  23.053   5.514
 3947POPC   PO452284  35.088  23.382   5.500
 3947POPC   GL152285  35.284  23.115   5.849
 3947POPC   GL252286  35.252  22.754   5.825
 3947POPC   C1A52287  35.276  22.987   6.318
 3947POPC   D2A52288  35.206  23.093   6.780
 3947POPC   C3A52289  35.177  22.723   7.032
 3947POPC   C4A52290  35.212  22.647   7.465
 3947POPC   C1B52291  35.583  22.610   6.132
 3947POPC   C2B52292  35.566  22.612   6.572
 3947POPC   C3B52293  35.643  22.877   6.905
 3947POPC   C4B52294  35.660  22.651   7.248
 3948POPC   NC352295  20.026   2.361   5.367
 3948POPC   PO452296  19.441   2.412   5.429
 3948POPC   GL152297  19.731   2.570   5.750
 3948POPC   GL252298  19.758   2.943   5.740
 3948POPC   C1A52299  19.775   2.629   6.185
 3948POPC   D2A52300  19.653   2.894   6.513
 3948POPC   C3A52301  19.667   2.675   6.902
 3948POPC   C4A52302  19.493   2.780   7.307
 3948POPC   C1B52303  20.149   2.912   5.994
 3948POPC   C2B52304  20.146   3.046   6.431
 3948POPC   C3B52305  20.020   3.036   6.852
 3948POPC   C4B52306  20.013   2.861   7.250
 3949POPC   NC352307  11.198  15.349   5.445
 3949POPC   PO452308  11.214  14.672   5.399
 3949POPC   GL152309  11.330  14.932   5.761
 3949POPC   GL252310  10.997  14.889   5.920
 3949POPC   C1A52311  11.664  15.006   6.109
 3949POPC   D2A52312  11.570  15.228   6.483
 3949POPC   C3A52313  11.316  15.093   6.804
 3949POPC   C4A52314  11.569  15.040   7.190
 3949POPC   C1B52315  11.155  15.230   6.181
 3949POPC   C2B52316  11.117  15.585   6.498
 3949POPC   C3B52317  10.974  15.545   6.929
 3949POPC   C4B52318  11.120  15.270   7.249
 3950POPC   NC352319   6.059  19.564   5.497
 3950POPC   PO452320   5.943  20.242   5.437
 3950POPC   GL152321   5.938  19.983   5.795
 3950POPC   GL252322   5.680  19.766   5.763
 3950POPC   C1A52323   6.003  19.713   6.179
 3950POPC   D2A52324   6.160  19.552   6.589
 3950POPC   C3A52325   6.009  19.744   6.962
 3950POPC   C4A52326   5.929  19.595   7.371
 3950POPC   C1B52327   5.502  19.579   6.133
 3950POPC   C2B52328   5.654  19.634   6.555
 3950POPC   C3B52329   5.493  19.582   6.959
 3950POPC   C4B52330   5.497  19.825   7.312
 3951POPC   NC352331  16.492  15.108   4.918
 3951POPC   PO452332  15.923  15.077   5.227
 3951POPC   GL152333  15.924  15.041   5.717
 3951POPC   GL252334  15.591  15.064   5.865
 3951POPC   C1A52335  15.969  15.273   6.154
 3951POPC   D2A52336  15.812  15.479   6.558
 3951POPC   C3A52337  15.905  15.367   6.996
 3951POPC   C4A52338  16.040  15.640   7.382
 3951POPC   C1B52339  15.683  14.870   6.280
 3951POPC   C2B52340  15.611  15.021   6.706
 3951POPC   C3B52341  15.585  14.992   7.144
 3951POPC   C4B52342  15.601  15.353   7.398
 3952POPC   NC352343   7.190   4.951   5.448
 3952POPC   PO452344   7.329   5.544   5.278
 3952POPC   GL152345   7.298   5.379   5.754
 3952POPC   GL252346   7.490   5.089   5.860
 3952POPC   C1A52347   7.199   5.265   6.223
 3952POPC   D2A52348   7.258   5.008   6.608
 3952POPC   C3A52349   7.172   5.161   7.000
 3952POPC   C4A52350   7.497   5.286   7.237
 3952POPC   C1B52351   7.687   4.921   6.241
 3952POPC   C2B52352   7.769   5.023   6.693
 3952POPC   C3B52353   7.602   4.829   7.078
 3952POPC   C4B52354   7.659   4.869   7.535
 3953POPC   NC352355  36.229  34.895   5.286
 3953POPC   PO452356  35.721  34.573   5.684
 3953POPC   GL152357  36.147  34.659   5.798
 3953POPC   GL252358  36.275  34.308   5.748
 3953POPC   C1A52359  36.142  34.870   6.217
 3953POPC   D2A52360  36.056  34.570   6.570
 3953POPC   C3A52361  35.771  34.636   6.911
 3953POPC   C4A52362  35.752  34.494   7.359
 3953POPC   C1B52363  36.416  34.415   6.197
 3953POPC   C2B52364  36.543  34.774   6.522
 3953POPC   C3B52365  36.333  34.862   6.918
 3953POPC   C4B52366  36.210  34.522   7.168
 3954POPC   NC352367  42.705  16.987   5.320
 3954POPC   PO452368  43.371  16.838   5.197
 3954POPC   GL152369  43.440  16.667   5.635
 3954POPC   GL252370  43.096  16.699   5.673
 3954POPC   C1A52371  43.420  16.827   6.081
 3954POPC   D2A52372  43.279  17.159   6.388
 3954POPC   C3A52373  43.180  17.019   6.822
 3954POPC   C4A52374  43.250  16.904   7.244
 3954POPC   C1B52375  43.005  16.543   6.095
 3954POPC   C2B52376  43.205  16.595   6.505
 3954POPC   C3B52377  43.311  16.510   6.931
 3954POPC   C4B52378  43.105  16.402   7.315
 3955POPC   NC352379  29.580   8.476   5.363
 3955POPC   PO452380  30.037   8.075   5.467
 3955POPC   GL152381  29.777   8.066   5.838
 3955POPC   GL252382  29.584   8.365   5.889
 3955POPC   C1A52383  29.851   8.068   6.310
 3955POPC   D2A52384  29.649   8.117   6.738
 3955POPC   C3A52385  29.871   8.065   7.143
 3955POPC   C4A52386  29.716   7.852   7.536
 3955POPC   C1B52387  29.472   8.405   6.342
 3955POPC   C2B52388  29.338   8.506   6.770
 3955POPC   C3B52389  29.582   8.496   7.124
 3955POPC   C4B52390  30.009   8.582   7.149
 3956POPC   NC352391  11.775  21.818   5.497
 3956POPC   PO452392  11.421  21.354   5.192
 3956POPC   GL152393  11.329  21.633   5.687
 3956POPC   GL252394  11.623  21.665   5.970
 3956POPC   C1A52395  11.154  21.507   6.125
 3956POPC   D2A52396  11.288  21.609   6.551
 3956POPC   C3A52397  11.225  21.361   6.922
 3956POPC   C4A52398  11.249  21.198   7.334
 3956POPC   C1B52399  11.624  21.298   6.274
 3956POPC   C2B52400  11.495  21.051   6.612
 3956POPC   C3B52401  11.595  20.977   7.021
 3956POPC   C4B52402  11.666  20.921   7.455
 3957POPC   NC352403  30.142   6.304   5.622
 3957POPC   PO452404  30.676   6.704   5.394
 3957POPC   GL152405  30.827   6.656   5.810
 3957POPC   GL252406  30.538   6.489   5.877
 3957POPC   C1A52407  30.761   6.729   6.252
 3957POPC   D2A52408  30.655   6.492   6.604
 3957POPC   C3A52409  30.745   6.729   6.971
 3957POPC   C4A52410  30.796   6.942   7.341
 3957POPC   C1B52411  30.415   6.234   6.221
 3957POPC   C2B52412  30.167   6.300   6.606
 3957POPC   C3B52413  30.237   6.291   7.054
 3957POPC   C4B52414  30.262   6.254   7.539
 3958POPC   NC352415  39.982   0.312   5.461
 3958POPC   PO452416  39.744   0.921   5.392
 3958POPC   GL152417  39.792   0.715   5.812
 3958POPC   GL252418  40.128   0.579   5.872
 3958POPC   C1A52419  39.887   0.687   6.288
 3958POPC   D2A52420  40.172   0.543   6.596
 3958POPC   C3A52421  40.002   0.485   7.018
 3958POPC   C4A52422  40.205   0.168   7.283
 3958POPC   C1B52423  39.950   0.193   6.107
 3958POPC   C2B52424  39.740  44.989   6.469
 3958POPC   C3B52425  39.830   0.024   6.911
 3958POPC   C4B52426  39.692   0.100   7.330
 3959POPC   NC352427   1.318  43.409   5.252
 3959POPC   PO452428   1.139  42.838   5.491
 3959POPC   GL152429   1.131  43.191   5.760
 3959POPC   GL252430   1.471  43.357   5.765
 3959POPC   C1A52431   0.997  43.184   6.178
 3959POPC   D2A52432   1.073  43.353   6.593
 3959POPC   C3A52433   0.856  43.126   6.908
 3959POPC   C4A52434   0.936  42.929   7.276
 3959POPC   C1B52435   1.516  43.285   6.214
 3959POPC   C2B52436   1.584  43.131   6.609
 3959POPC   C3B52437   1.378  43.097   7.009
 3959POPC   C4B52438   1.390  43.391   7.347
 3960POPC   NC352439  17.980  34.296   5.237
 3960POPC   PO452440  18.466  34.699   5.463
 3960POPC   GL152441  18.380  34.729   5.868
 3960POPC   GL252442  18.050  34.763   5.855
 3960POPC   C1A52443  18.461  34.633   6.299
 3960POPC   D2A52444  18.401  34.820   6.696
 3960POPC   C3A52445  18.431  34.664   7.114
 3960POPC   C4A52446  18.439  34.684   7.608
 3960POPC   C1B52447  17.957  34.525   6.202
 3960POPC   C2B52448  18.107  34.402   6.608
 3960POPC   C3B52449  17.955  34.485   7.012
 3960POPC   C4B52450  17.985  34.705   7.382
 3961POPC   NC352451  40.235  38.742   5.390
 3961POPC   PO452452  39.604  38.559   5.570
 3961POPC   GL152453  39.876  38.436   5.886
 3961POPC   GL252454  40.210  38.372   5.794
 3961POPC   C1A52455  39.869  38.644   6.277
 3961POPC   D2A52456  39.910  38.910   6.657
 3961POPC   C3A52457  39.774  38.740   7.068
 3961POPC   C4A52458  40.118  38.510   7.195
 3961POPC   C1B52459  40.336  38.438   6.223
 3961POPC   C2B52460  40.089  38.289   6.583
 3961POPC   C3B52461  40.211  38.097   6.937
 3961POPC   C4B52462  40.530  38.194   7.185
 3962POPC   NC352463  12.853  36.637   5.593
 3962POPC   PO452464  12.941  35.969   5.543
 3962POPC   GL152465  12.918  36.219   5.863
 3962POPC   GL252466  12.549  36.224   5.870
 3962POPC   C1A52467  13.101  36.296   6.262
 3962POPC   D2A52468  12.893  36.214   6.630
 3962POPC   C3A52469  13.064  36.072   6.978
 3962POPC   C4A52470  13.067  36.235   7.370
 3962POPC   C1B52471  12.601  36.452   6.256
 3962POPC   C2B52472  12.584  36.594   6.683
 3962POPC   C3B52473  12.585  36.292   7.069
 3962POPC   C4B52474  12.619  36.346   7.576
 3963POPC   NC352475  10.055  18.732   5.103
 3963POPC   PO452476   9.520  18.428   5.511
 3963POPC   GL152477   9.626  18.042   5.715
 3963POPC   GL252478   9.939  17.914   5.585
 3963POPC   C1A52479   9.712  18.140   6.155
 3963POPC   D2A52480   9.782  18.408   6.515
 3963POPC   C3A52481   9.603  18.311   6.929
 3963POPC   C4A52482   9.885  18.478   7.221
 3963POPC   C1B52483  10.134  17.891   5.979
 3963POPC   C2B52484  10.095  17.856   6.427
 3963POPC   C3B52485  10.012  18.027   6.824
 3963POPC   C4B52486  10.197  18.070   7.212
 3964POPC   NC352487   0.878  10.784   5.446
 3964POPC   PO452488   0.347  10.513   5.502
 3964POPC   GL152489   0.372  10.646   5.880
 3964POPC   GL252490   0.687  10.556   5.916
 3964POPC   C1A52491   0.438  10.844   6.270
 3964POPC   D2A52492   0.320  10.988   6.671
 3964POPC   C3A52493   0.372  10.636   6.929
 3964POPC   C4A52494   0.180  10.435   7.256
 3964POPC   C1B52495   0.754  10.278   6.289
 3964POPC   C2B52496   0.687  10.271   6.756
 3964POPC   C3B52497   0.691  10.283   7.216
 3964POPC   C4B52498   0.786  10.627   7.517
 3965POPC   NC352499  43.591  14.231   5.460
 3965POPC   PO452500  44.070  14.603   5.422
 3965POPC   GL152501  44.142  14.403   5.838
 3965POPC   GL252502  43.790  14.275   5.968
 3965POPC   C1A52503  44.210  14.332   6.298
 3965POPC   D2A52504  43.921  14.388   6.651
 3965POPC   C3A52505  43.979  14.264   7.075
 3965POPC   C4A52506  44.054  14.602   7.385
 3965POPC   C1B52507  43.499  14.279   6.364
 3965POPC   C2B52508  43.450  14.229   6.842
 3965POPC   C3B52509  43.522  14.174   7.306
 3965POPC   C4B52510  43.510  14.484   7.610
 3966POPC   NC352511  30.288  40.620   5.284
 3966POPC   PO452512  29.775  41.033   5.407
 3966POPC   GL152513  30.001  40.818   5.700
 3966POPC   GL252514  29.978  40.465   5.656
 3966POPC   C1A52515  29.934  40.869   6.125
 3966POPC   D2A52516  29.738  40.764   6.513
 3966POPC   C3A52517  29.862  40.913   6.932
 3966POPC   C4A52518  29.649  40.625   7.217
 3966POPC   C1B52519  30.253  40.474   6.016
 3966POPC   C2B52520  30.214  40.604   6.451
 3966POPC   C3B52521  30.043  40.448   6.848
 3966POPC   C4B52522  30.163  40.533   7.253
 3967POPC   NC352523  23.496  14.261   5.210
 3967POPC   PO452524  24.093  14.429   5.359
 3967POPC   GL152525  23.753  14.462   5.673
 3967POPC   GL252526  23.500  14.183   5.719
 3967POPC   C1A52527  23.736  14.723   6.061
 3967POPC   D2A52528  24.033  14.731   6.416
 3967POPC   C3A52529  23.888  14.756   6.859
 3967POPC   C4A52530  23.943  14.473   7.207
 3967POPC   C1B52531  23.590  14.242   6.144
 3967POPC   C2B52532  23.548  14.513   6.503
 3967POPC   C3B52533  23.476  14.416   6.932
 3967POPC   C4B52534  23.561  14.120   7.266
 3968POPC   NC352535  41.378  31.027   5.429
 3968POPC   PO452536  40.873  30.689   5.184
 3968POPC   GL152537  40.824  30.702   5.651
 3968POPC   GL252538  41.093  30.509   5.811
 3968POPC   C1A52539  40.775  30.804   6.131
 3968POPC   D2A52540  40.942  30.776   6.557
 3968POPC   C3A52541  40.772  30.803   6.976
 3968POPC   C4A52542  40.957  30.608   7.340
 3968POPC   C1B52543  40.675  30.329   5.976
 3968POPC   C2B52544  40.507  30.243   6.368
 3968POPC   C3B52545  40.545  30.436   6.724
 3968POPC   C4B52546  40.506  30.408   7.158
 3969POPC   NC352547  18.686  34.328   5.598
 3969POPC   PO452548  19.295  34.216   5.356
 3969POPC   GL152549  19.205  34.562   5.723
 3969POPC   GL252550  18.898  34.734   5.793
 3969POPC   C1A52551  19.254  34.802   6.141
 3969POPC   D2A52552  19.144  34.998   6.536
 3969POPC   C3A52553  19.186  34.839   6.959
 3969POPC   C4A52554  18.865  34.890   7.266
 3969POPC   C1B52555  18.921  34.436   6.184
 3969POPC   C2B52556  18.876  34.553   6.609
 3969POPC   C3B52557  18.935  34.398   6.990
 3969POPC   C4B52558  18.777  34.397   7.378
 3970POPC   NC352559  23.981  36.513   5.453
 3970POPC   PO452560  23.563  35.974   5.272
 3970POPC   GL152561  23.568  35.941   5.721
 3970POPC   GL252562  23.895  36.096   5.882
 3970POPC   C1A52563  23.507  35.873   6.170
 3970POPC   D2A52564  23.842  36.018   6.476
 3970POPC   C3A52565  23.722  36.064   6.900
 3970POPC   C4A52566  23.499  35.762   7.111
 3970POPC   C1B52567  24.125  36.383   6.183
 3970POPC   C2B52568  24.015  36.488   6.612
 3970POPC   C3B52569  24.079  36.406   7.061
 3970POPC   C4B52570  24.028  36.461   7.552
 3971POPC   NC352571  21.970  22.662   5.519
 3971POPC   PO452572  22.166  21.983   5.385
 3971POPC   GL152573  22.203  22.181   5.786
 3971POPC   GL252574  22.311  21.859   5.888
 3971POPC   C1A52575  22.062  22.396   6.195
 3971POPC   D2A52576  22.087  22.604   6.622
 3971POPC   C3A52577  22.040  22.264   6.927
 3971POPC   C4A52578  22.160  22.240   7.341
 3971POPC   C1B52579  22.213  21.875   6.299
 3971POPC   C2B52580  22.222  21.736   6.710
 3971POPC   C3B52581  22.420  21.877   7.062
 3971POPC   C4B52582  22.353  21.800   7.498
 3972POPC   NC352583  26.776  29.836   5.556
 3972POPC   PO452584  26.678  30.430   5.418
 3972POPC   GL152585  26.695  30.266   5.822
 3972POPC   GL252586  26.350  30.275   5.838
 3972POPC   C1A52587  26.887  30.050   6.206
 3972POPC   D2A52588  27.070  29.749   6.467
 3972POPC   C3A52589  27.010  29.905   6.866
 3972POPC   C4A52590  26.870  29.870   7.269
 3972POPC   C1B52591  26.368  30.005   6.202
 3972POPC   C2B52592  26.564  29.912   6.598
 3972POPC   C3B52593  26.429  29.914   7.004
 3972POPC   C4B52594  26.428  30.097   7.427
 3973POPC   NC352595   6.657  18.027   5.310
 3973POPC   PO452596   6.595  18.620   5.259
 3973POPC   GL152597   6.465  18.384   5.667
 3973POPC   GL252598   6.418  18.004   5.786
 3973POPC   C1A52599   6.632  18.467   6.079
 3973POPC   D2A52600   6.897  18.361   6.478
 3973POPC   C3A52601   6.785  18.396   6.953
 3973POPC   C4A52602   6.569  18.718   7.245
 3973POPC   C1B52603   6.621  17.975   6.202
 3973POPC   C2B52604   6.570  18.017   6.658
 3973POPC   C3B52605   6.695  17.871   7.066
 3973POPC   C4B52606   6.358  17.719   7.288
 3974POPC   NC352607  43.253   0.276   5.429
 3974POPC   PO452608  42.710   0.533   5.670
 3974POPC   GL152609  43.096   0.492   5.896
 3974POPC   GL252610  43.386   0.684   5.766
 3974POPC   C1A52611  43.156   0.219   6.272
 3974POPC   D2A52612  43.096   0.101   6.715
 3974POPC   C3A52613  42.898   0.156   7.123
 3974POPC   C4A52614  43.045   0.308   7.503
 3974POPC   C1B52615  43.475   0.620   6.230
 3974POPC   C2B52616  43.233   0.600   6.639
 3974POPC   C3B52617  43.271   0.541   7.107
 3974POPC   C4B52618  43.296   0.747   7.552
 3975POPC   NC352619   0.916  41.721   5.460
 3975POPC   PO452620   1.469  41.398   5.186
 3975POPC   GL152621   1.313  41.399   5.639
 3975POPC   GL252622   0.981  41.191   5.667
 3975POPC   C1A52623   1.508  41.476   6.096
 3975POPC   D2A52624   1.364  41.577   6.557
 3975POPC   C3A52625   1.505  41.744   6.992
 3975POPC   C4A52626   1.588  41.813   7.489
 3975POPC   C1B52627   1.036  41.295   6.119
 3975POPC   C2B52628   0.998  41.218   6.599
 3975POPC   C3B52629   1.003  41.264   7.084
 3975POPC   C4B52630   0.847  41.123   7.524
 3976POPC   NC352631  37.581  17.248   5.310
 3976POPC   PO452632  37.166  17.762   5.244
 3976POPC   GL152633  37.395  17.573   5.639
 3976POPC   GL252634  37.706  17.698   5.780
 3976POPC   C1A52635  37.412  17.442   6.090
 3976POPC   D2A52636  37.303  17.480   6.543
 3976POPC   C3A52637  37.516  17.477   6.908
 3976POPC   C4A52638  37.599  17.799   7.156
 3976POPC   C1B52639  37.874  17.565   6.260
 3976POPC   C2B52640  37.948  17.692   6.705
 3976POPC   C3B52641  37.994  17.436   7.090
 3976POPC   C4B52642  38.117  17.284   7.509
 3977POPC   NC352643  27.938  16.042   5.445
 3977POPC   PO452644  27.217  15.683   5.389
 3977POPC   GL152645  27.524  15.780   5.678
 3977POPC   GL252646  27.544  16.110   5.768
 3977POPC   C1A52647  27.604  15.744   6.116
 3977POPC   D2A52648  27.395  15.805   6.509
 3977POPC   C3A52649  27.482  15.754   6.934
 3977POPC   C4A52650  27.623  15.647   7.337
 3977POPC   C1B52651  27.428  16.211   6.198
 3977POPC   C2B52652  27.487  16.291   6.669
 3977POPC   C3B52653  27.574  16.201   7.141
 3977POPC   C4B52654  27.551  16.076   7.595
 3978POPC   NC352655   6.874  27.953   5.619
 3978POPC   PO452656   7.148  28.488   5.239
 3978POPC   GL152657   6.913  28.596   5.687
 3978POPC   GL252658   6.600  28.388   5.773
 3978POPC   C1A52659   6.811  28.742   6.116
 3978POPC   D2A52660   6.598  28.648   6.521
 3978POPC   C3A52661   6.825  28.732   6.920
 3978POPC   C4A52662   6.847  28.407   7.245
 3978POPC   C1B52663   6.352  28.311   6.186
 3978POPC   C2B52664   6.272  28.208   6.650
 3978POPC   C3B52665   6.363  28.267   7.109
 3978POPC   C4B52666   6.438  28.350   7.571
 3979POPC   NC352667   7.269  20.443   5.381
 3979POPC   PO452668   7.739  20.750   5.789
 3979POPC   GL152669   7.409  20.841   5.981
 3979POPC   GL252670   7.107  20.786   5.781
 3979POPC   C1A52671   7.477  20.845   6.392
 3979POPC   D2A52672   7.594  20.463   6.579
 3979POPC   C3A52673   7.815  20.549   6.919
 3979POPC   C4A52674   7.681  20.725   7.316
 3979POPC   C1B52675   6.957  20.865   6.240
 3979POPC   C2B52676   7.085  20.801   6.699
 3979POPC   C3B52677   7.288  20.519   6.997
 3979POPC   C4B52678   7.152  20.461   7.424
 3980POPC   NC352679  14.160  12.527   5.087
 3980POPC   PO452680  14.278  13.115   5.459
 3980POPC   GL152681  14.462  12.808   5.760
 3980POPC   GL252682  14.802  12.880   5.793
 3980POPC   C1A52683  14.314  12.638   6.161
 3980POPC   D2A52684  14.514  12.486   6.532
 3980POPC   C3A52685  14.467  12.779   6.831
 3980POPC   C4A52686  14.404  12.923   7.216
 3980POPC   C1B52687  14.763  12.849   6.239
 3980POPC   C2B52688  14.939  12.868   6.656
 3980POPC   C3B52689  14.873  13.069   7.059
 3980POPC   C4B52690  14.809  12.990   7.491
 3981POPC   NC352691  31.007  41.301   5.421
 3981POPC   PO452692  30.518  41.692   5.347
 3981POPC   GL152693  30.499  41.584   5.764
 3981POPC   GL252694  30.688  41.294   5.831
 3981POPC   C1A52695  30.529  41.719   6.184
 3981POPC   D2A52696  30.538  41.467   6.527
 3981POPC   C3A52697  30.563  41.691   6.890
 3981POPC   C4A52698  30.706  41.613   7.288
 3981POPC   C1B52699  30.987  41.523   6.095
 3981POPC   C2B52700  30.994  41.736   6.485
 3981POPC   C3B52701  31.064  41.667   6.917
 3981POPC   C4B52702  31.180  41.425   7.274
 3982POPC   NC352703  32.512  32.624   5.436
 3982POPC   PO452704  32.130  33.194   5.239
 3982POPC   GL152705  32.085  33.100   5.689
 3982POPC   GL252706  32.185  32.779   5.791
 3982POPC   C1A52707  32.108  33.167   6.168
 3982POPC   D2A52708  32.424  33.200   6.514
 3982POPC   C3A52709  32.355  33.111   6.967
 3982POPC   C4A52710  32.395  33.369   7.369
 3982POPC   C1B52711  31.971  32.683   6.154
 3982POPC   C2B52712  32.141  32.736   6.555
 3982POPC   C3B52713  32.278  32.600   6.946
 3982POPC   C4B52714  32.130  32.756   7.293
 3983POPC   NC352715  13.949  19.414   5.127
 3983POPC   PO452716  13.417  19.322   5.514
 3983POPC   GL152717  13.447  19.135   5.878
 3983POPC   GL252718  13.693  18.899   5.792
 3983POPC   C1A52719  13.330  19.006   6.285
 3983POPC   D2A52720  13.620  19.012   6.629
 3983POPC   C3A52721  13.469  19.084   7.007
 3983POPC   C4A52722  13.718  19.089   7.323
 3983POPC   C1B52723  13.891  19.040   6.197
 3983POPC   C2B52724  13.969  19.396   6.501
 3983POPC   C3B52725  13.827  19.482   6.919
 3983POPC   C4B52726  14.084  19.426   7.265
 3984POPC   NC352727  13.532   3.090   5.310
 3984POPC   PO452728  13.719   2.469   5.336
 3984POPC   GL152729  13.787   2.726   5.680
 3984POPC   GL252730  13.483   2.879   5.769
 3984POPC   C1A52731  13.920   2.867   6.089
 3984POPC   D2A52732  14.030   2.655   6.469
 3984POPC   C3A52733  13.869   2.823   6.857
 3984POPC   C4A52734  13.965   2.626   7.239
 3984POPC   C1B52735  13.436   2.700   6.166
 3984POPC   C2B52736  13.333   2.455   6.524
 3984POPC   C3B52737  13.466   2.467   6.943
 3984POPC   C4B52738  13.486   2.836   7.213
 3985POPC   NC352739   6.588  30.382   5.556
 3985POPC   PO452740   6.964  30.963   5.382
 3985POPC   GL152741   6.944  30.780   5.808
 3985POPC   GL252742   6.844  30.475   5.985
 3985POPC   C1A52743   6.747  30.912   6.208
 3985POPC   D2A52744   6.446  30.900   6.534
 3985POPC   C3A52745   6.673  30.911   6.878
 3985POPC   C4A52746   6.694  30.830   7.302
 3985POPC   C1B52747   6.394  30.506   6.191
 3985POPC   C2B52748   6.128  30.496   6.561
 3985POPC   C3B52749   6.250  30.629   7.022
 3985POPC   C4B52750   6.164  30.339   7.420
 3986POPC   NC352751  31.028  30.162   5.567
 3986POPC   PO452752  30.516  29.704   5.445
 3986POPC   GL152753  30.634  29.918   5.842
 3986POPC   GL252754  30.930  29.733   5.824
 3986POPC   C1A52755  30.618  30.071   6.299
 3986POPC   D2A52756  30.882  30.229   6.671
 3986POPC   C3A52757  30.692  30.098   7.055
 3986POPC   C4A52758  30.723  29.943   7.454
 3986POPC   C1B52759  31.047  29.817   6.222
 3986POPC   C2B52760  30.886  29.725   6.629
 3986POPC   C3B52761  30.872  29.614   7.045
 3986POPC   C4B52762  30.526  29.506   7.265
 3987POPC   NC352763   8.681  36.608   5.409
 3987POPC   PO452764   8.869  36.004   5.322
 3987POPC   GL152765   9.050  35.950   5.745
 3987POPC   GL252766   8.745  35.834   5.893
 3987POPC   C1A52767   9.156  36.038   6.195
 3987POPC   D2A52768   8.943  36.139   6.603
 3987POPC   C3A52769   9.116  36.147   7.006
 3987POPC   C4A52770   9.272  35.880   7.267
 3987POPC   C1B52771   8.630  36.176   6.196
 3987POPC   C2B52772   8.556  36.459   6.579
 3987POPC   C3B52773   8.633  36.321   7.008
 3987POPC   C4B52774   8.732  35.937   7.289
 3988POPC   NC352775  31.963  41.595   5.426
 3988POPC   PO452776  31.428  41.295   5.223
 3988POPC   GL152777  31.433  41.470   5.698
 3988POPC   GL252778  31.263  41.186   5.832
 3988POPC   C1A52779  31.461  41.734   6.147
 3988POPC   D2A52780  31.505  41.640   6.634
 3988POPC   C3A52781  31.488  41.891   7.066
 3988POPC   C4A52782  31.488  41.732   7.529
 3988POPC   C1B52783  31.429  41.224   6.209
 3988POPC   C2B52784  31.615  41.085   6.544
 3988POPC   C3B52785  31.441  41.141   6.940
 3988POPC   C4B52786  31.689  41.310   7.294
 3989POPC   NC352787   9.338  44.915   5.333
 3989POPC   PO452788   9.929  44.625   5.530
 3989POPC   GL152789   9.754  44.737   5.898
 3989POPC   GL252790   9.632   0.028   5.743
 3989POPC   C1A52791   9.786  44.763   6.350
 3989POPC   D2A52792   9.618  44.546   6.700
 3989POPC   C3A52793   9.899  44.642   7.051
 3989POPC   C4A52794   9.808  44.644   7.501
 3989POPC   C1B52795   9.445   0.097   6.149
 3989POPC   C2B52796   9.339  44.976   6.550
 3989POPC   C3B52797   9.596   0.017   6.886
 3989POPC   C4B52798   9.471  44.932   7.261
 3990POPC   NC352799  41.237  29.339   5.504
 3990POPC   PO452800  41.528  28.765   5.235
 3990POPC   GL152801  41.603  28.950   5.668
 3990POPC   GL252802  41.717  29.259   5.746
 3990POPC   C1A52803  41.597  28.904   6.136
 3990POPC   D2A52804  41.565  29.134   6.549
 3990POPC   C3A52805  41.633  28.861   6.920
 3990POPC   C4A52806  41.378  28.775   7.265
 3990POPC   C1B52807  41.435  29.397   6.112
 3990POPC   C2B52808  41.112  29.527   6.412
 3990POPC   C3B52809  41.175  29.546   6.853
 3990POPC   C4B52810  41.436  29.301   7.141
 3991POPC   NC352811  11.654  34.252   5.440
 3991POPC   PO452812  12.091  33.796   5.159
 3991POPC   GL152813  11.935  33.764   5.634
 3991POPC   GL252814  11.979  34.092   5.800
 3991POPC   C1A52815  12.006  33.633   6.128
 3991POPC   D2A52816  12.130  33.825   6.589
 3991POPC   C3A52817  12.051  33.685   7.058
 3991POPC   C4A52818  12.299  33.790   7.463
 3991POPC   C1B52819  11.632  33.960   6.081
 3991POPC   C2B52820  11.637  33.886   6.530
 3991POPC   C3B52821  11.683  34.049   6.968
 3991POPC   C4B52822  11.842  34.045   7.430
 3992POPC   NC352823  29.675   7.733   5.417
 3992POPC   PO452824  29.994   7.097   5.352
 3992POPC   GL152825  29.958   7.354   5.708
 3992POPC   GL252826  29.710   7.150   5.813
 3992POPC   C1A52827  29.745   7.587   6.073
 3992POPC   D2A52828  29.611   7.636   6.497
 3992POPC   C3A52829  29.993   7.746   6.758
 3992POPC   C4A52830  30.199   7.677   7.162
 3992POPC   C1B52831  29.940   7.115   6.186
 3992POPC   C2B52832  29.984   7.264   6.601
 3992POPC   C3B52833  29.840   7.328   7.036
 3992POPC   C4B52834  29.892   7.082   7.386
 3993POPC   NC352835  21.220  34.043   5.292
 3993POPC   PO452836  21.749  33.504   5.356
 3993POPC   GL152837  21.577  33.821   5.680
 3993POPC   GL252838  21.219  33.803   5.729
 3993POPC   C1A52839  21.493  34.110   6.056
 3993POPC   D2A52840  21.532  33.937   6.468
 3993POPC   C3A52841  21.380  34.087   6.844
 3993POPC   C4A52842  21.401  33.825   7.199
 3993POPC   C1B52843  21.272  33.619   6.132
 3993POPC   C2B52844  21.075  33.378   6.446
 3993POPC   C3B52845  21.142  33.519   6.851
 3993POPC   C4B52846  21.153  33.353   7.247
 3994POPC   NC352847   9.349  33.057   5.120
 3994POPC   PO452848   9.826  33.252   5.528
 3994POPC   GL152849   9.835  33.070   5.900
 3994POPC   GL252850   9.548  33.234   6.056
 3994POPC   C1A52851   9.916  32.808   6.231
 3994POPC   D2A52852   9.721  32.921   6.587
 3994POPC   C3A52853   9.768  32.623   6.908
 3994POPC   C4A52854   9.897  32.714   7.358
 3994POPC   C1B52855   9.303  33.311   6.448
 3994POPC   C2B52856   9.358  33.178   6.854
 3994POPC   C3B52857   9.717  33.118   7.070
 3994POPC   C4B52858   9.713  33.311   7.403
 3995POPC   NC352859  13.312  14.419   5.287
 3995POPC   PO452860  12.639  14.539   5.565
 3995POPC   GL152861  12.822  14.297   5.864
 3995POPC   GL252862  13.133  14.201   5.705
 3995POPC   C1A52863  12.848  14.350   6.324
 3995POPC   D2A52864  12.952  14.546   6.736
 3995POPC   C3A52865  12.656  14.555   7.103
 3995POPC   C4A52866  12.646  14.221   7.426
 3995POPC   C1B52867  13.221  14.070   6.117
 3995POPC   C2B52868  13.233  14.089   6.573
 3995POPC   C3B52869  12.996  14.069   6.991
 3995POPC   C4B52870  13.263  14.032   7.378
 3996POPC   NC352871  31.955  36.330   5.130
 3996POPC   PO452872  31.518  35.830   5.363
 3996POPC   GL152873  31.591  35.967   5.797
 3996POPC   GL252874  31.467  36.288   5.883
 3996POPC   C1A52875  31.746  36.031   6.250
 3996POPC   D2A52876  31.524  36.032   6.650
 3996POPC   C3A52877  31.721  36.054   7.012
 3996POPC   C4A52878  31.545  36.045   7.362
 3996POPC   C1B52879  31.235  36.155   6.240
 3996POPC   C2B52880  31.088  36.329   6.649
 3996POPC   C3B52881  31.173  36.315   7.108
 3996POPC   C4B52882  31.030  36.525   7.512
 3997POPC   NC352883   5.939  33.567   5.299
 3997POPC   PO452884   6.347  34.204   5.186
 3997POPC   GL152885   6.106  33.967   5.598
 3997POPC   GL252886   5.857  33.712   5.764
 3997POPC   C1A52887   6.121  33.951   6.091
 3997POPC   D2A52888   6.071  33.810   6.519
 3997POPC   C3A52889   6.146  34.065   6.877
 3997POPC   C4A52890   6.102  33.838   7.253
 3997POPC   C1B52891   5.687  33.689   6.199
 3997POPC   C2B52892   5.583  33.892   6.618
 3997POPC   C3B52893   5.621  33.847   7.081
 3997POPC   C4B52894   5.422  33.896   7.508
 3998POPC   NC352895  11.537  16.819   5.425
 3998POPC   PO452896  11.021  16.414   5.545
 3998POPC   GL152897  11.140  16.675   5.889
 3998POPC   GL252898  11.176  17.049   5.813
 3998POPC   C1A52899  10.982  16.633   6.306
 3998POPC   D2A52900  11.071  16.386   6.653
 3998POPC   C3A52901  11.304  16.518   7.006
 3998POPC   C4A52902  10.983  16.581   7.296
 3998POPC   C1B52903  11.343  16.991   6.246
 3998POPC   C2B52904  11.279  16.932   6.694
 3998POPC   C3B52905  11.474  17.051   7.100
 3998POPC   C4B52906  11.640  17.066   7.544
 3999POPC   NC352907  41.665  10.876   5.306
 3999POPC   PO452908  41.804  11.415   5.364
 3999POPC   GL152909  41.778  11.176   5.783
 3999POPC   GL252910  41.824  10.826   5.792
 3999POPC   C1A52911  41.852  11.060   6.247
 3999POPC   D2A52912  41.752  11.306   6.613
 3999POPC   C3A52913  41.735  11.105   7.023
 3999POPC   C4A52914  41.749  11.245   7.459
 3999POPC   C1B52915  41.464  10.767   6.089
 3999POPC   C2B52916  41.345  10.987   6.508
 3999POPC   C3B52917  41.232  10.962   6.971
 3999POPC   C4B52918  40.836  10.987   7.257
 4000POPC   NC352919  35.470  20.516   5.258
 4000POPC   PO452920  34.928  20.887   5.481
 4000POPC   GL152921  35.174  20.588   5.758
 4000POPC   GL252922  35.451  20.324   5.742
 4000POPC   C1A52923  35.333  20.656   6.175
 4000POPC   D2A52924  35.463  20.884   6.505
 4000POPC   C3A52925  35.378  20.740   6.900
 4000POPC   C4A52926  35.664  20.667   7.214
 4000POPC   C1B52927  35.604  20.228   6.151
 4000POPC   C2B52928  35.694  20.418   6.554
 4000POPC   C3B52929  35.568  20.250   6.949
 4000POPC   C4B52930  35.680  20.133   7.348
 4001POPC   NC352931  34.926  25.878   5.467
 4001POPC   PO452932  34.197  25.664   5.535
 4001POPC   GL152933  34.507  25.867   5.798
 4001POPC   GL252934  34.800  25.648   5.886
 4001POPC   C1A52935  34.651  26.048   6.185
 4001POPC   D2A52936  34.776  25.858   6.566
 4001POPC   C3A52937  34.656  26.096   6.945
 4001POPC   C4A52938  34.521  26.216   7.347
 4001POPC   C1B52939  34.967  25.409   6.206
 4001POPC   C2B52940  34.877  25.339   6.627
 4001POPC   C3B52941  34.813  25.588   7.003
 4001POPC   C4B52942  34.747  25.746   7.414
 4002POPC   NC352943   0.103   7.527   5.308
 4002POPC   PO452944  44.555   7.160   5.387
 4002POPC   GL152945  44.771   7.193   5.769
 4002POPC   GL252946  44.959   6.884   5.861
 4002POPC   C1A52947  44.794   7.433   6.174
 4002POPC   D2A52948   0.102   7.564   6.490
 4002POPC   C3A52949   0.021   7.456   6.924
 4002POPC   C4A52950  44.684   7.436   7.230
 4002POPC   C1B52951  44.624   6.944   6.184
 4002POPC   C2B52952  44.560   7.148   6.574
 4002POPC   C3B52953  44.728   7.020   6.948
 4002POPC   C4B52954   0.063   7.016   7.214
 4003POPC   NC352955   9.107  28.792   5.531
 4003POPC   PO452956   9.034  28.144   5.432
 4003POPC   GL152957   8.923  28.373   5.750
 4003POPC   GL252958   9.273  28.416   5.823
 4003POPC   C1A52959   8.918  28.398   6.175
 4003POPC   D2A52960   9.091  28.413   6.554
 4003POPC   C3A52961   8.844  28.271   6.843
 4003POPC   C4A52962   8.770  28.497   7.197
 4003POPC   C1B52963   9.329  28.730   6.157
 4003POPC   C2B52964   9.467  28.744   6.595
 4003POPC   C3B52965   9.217  28.682   6.981
 4003POPC   C4B52966   9.236  28.488   7.385
 4004POPC   NC352967  32.190   2.208   5.568
 4004POPC   PO452968  32.581   1.815   5.579
 4004POPC   GL152969  32.345   1.908   5.962
 4004POPC   GL252970  32.042   1.774   5.813
 4004POPC   C1A52971  32.264   2.101   6.401
 4004POPC   D2A52972  32.213   2.024   6.887
 4004POPC   C3A52973  32.586   1.866   7.135
 4004POPC   C4A52974  32.672   1.501   7.415
 4004POPC   C1B52975  31.891   1.801   6.234
 4004POPC   C2B52976  31.948   1.596   6.630
 4004POPC   C3B52977  31.836   1.539   7.054
 4004POPC   C4B52978  32.180   1.621   7.291
 4005POPC   NC352979  25.002  39.860   5.436
 4005POPC   PO452980  25.550  40.148   5.272
 4005POPC   GL152981  25.412  39.989   5.759
 4005POPC   GL252982  25.061  40.068   5.895
 4005POPC   C1A52983  25.555  39.775   6.185
 4005POPC   D2A52984  25.647  39.999   6.600
 4005POPC   C3A52985  25.253  40.115   6.773
 4005POPC   C4A52986  25.142  40.112   7.192
 4005POPC   C1B52987  25.319  40.227   6.237
 4005POPC   C2B52988  25.523  40.506   6.526
 4005POPC   C3B52989  25.514  40.504   6.975
 4005POPC   C4B52990  25.437  40.497   7.431
 4006POPC   NC352991  28.078   9.587   5.382
 4006POPC   PO452992  28.486  10.107   5.406
 4006POPC   GL152993  28.458   9.794   5.756
 4006POPC   GL252994  28.498   9.440   5.783
 4006POPC   C1A52995  28.335   9.792   6.204
 4006POPC   D2A52996  28.028   9.720   6.527
 4006POPC   C3A52997  28.155   9.649   6.926
 4006POPC   C4A52998  28.178  10.032   7.156
 4006POPC   C1B52999  28.593   9.346   6.222
 4006POPC   C2B53000  28.591   9.554   6.646
 4006POPC   C3B53001  28.633   9.803   7.050
 4006POPC   C4B53002  28.499   9.859   7.513
 4007POPC   NC353003  38.766   4.494   5.365
 4007POPC   PO453004  38.300   4.108   5.277
 4007POPC   GL153005  38.430   4.084   5.715
 4007POPC   GL253006  38.638   4.336   5.853
 4007POPC   C1A53007  38.457   3.910   6.129
 4007POPC   D2A53008  38.768   3.993   6.460
 4007POPC   C3A53009  38.578   4.094   6.843
 4007POPC   C4A53010  38.549   4.069   7.271
 4007POPC   C1B53011  38.464   4.399   6.284
 4007POPC   C2B53012  38.315   4.588   6.651
 4007POPC   C3B53013  38.424   4.533   7.062
 4007POPC   C4B53014  38.148   4.588   7.361
 4008POPC   NC353015  26.444   7.402   5.447
 4008POPC   PO453016  25.831   7.186   5.443
 4008POPC   GL153017  26.078   7.430   5.834
 4008POPC   GL253018  26.411   7.582   5.929
 4008POPC   C1A53019  26.096   7.535   6.327
 4008POPC   D2A53020  26.123   7.240   6.717
 4008POPC   C3A53021  25.855   7.306   7.116
 4008POPC   C4A53022  25.895   7.271   7.582
 4008POPC   C1B53023  26.604   7.456   6.324
 4008POPC   C2B53024  26.472   7.615   6.713
 4008POPC   C3B53025  26.319   7.503   7.108
 4008POPC   C4B53026  26.281   7.066   7.290
 4009POPC   NC353027   9.205  12.324   5.440
 4009POPC   PO453028   8.566  11.969   5.404
 4009POPC   GL153029   8.745  12.227   5.708
 4009POPC   GL253030   9.018  12.006   5.820
 4009POPC   C1A53031   8.844  12.367   6.135
 4009POPC   D2A53032   8.955  12.132   6.520
 4009POPC   C3A53033   8.856  12.179   6.940
 4009POPC   C4A53034   9.135  12.330   7.225
 4009POPC   C1B53035   8.858  11.787   6.182
 4009POPC   C2B53036   8.849  11.634   6.637
 4009POPC   C3B53037   9.080  11.646   7.057
 4009POPC   C4B53038   9.260  11.768   7.442
 4010POPC   NC353039  15.526  13.489   5.330
 4010POPC   PO453040  14.941  13.752   5.513
 4010POPC   GL153041  14.959  13.938   5.921
 4010POPC   GL253042  15.273  14.099   5.914
 4010POPC   C1A53043  14.834  13.693   6.307
 4010POPC   D2A53044  14.949  13.409   6.662
 4010POPC   C3A53045  14.905  13.608   7.070
 4010POPC   C4A53046  14.744  13.933   7.360
 4010POPC   C1B53047  15.306  13.901   6.344
 4010POPC   C2B53048  15.333  13.747   6.781
 4010POPC   C3B53049  15.454  13.531   7.154
 4010POPC   C4B53050  15.640  13.728   7.528
 4011POPC   NC353051  28.813  44.011   5.677
 4011POPC   PO453052  29.288  43.786   5.265
 4011POPC   GL153053  29.256  43.739   5.730
 4011POPC   GL253054  29.362  44.043   5.771
 4011POPC   C1A53055  29.206  43.709   6.217
 4011POPC   D2A53056  29.314  43.648   6.680
 4011POPC   C3A53057  29.096  43.940   6.999
 4011POPC   C4A53058  28.956  43.988   7.453
 4011POPC   C1B53059  29.525  44.104   6.147
 4011POPC   C2B53060  29.328  44.144   6.538
 4011POPC   C3B53061  29.577  44.058   6.897
 4011POPC   C4B53062  29.501  44.110   7.293
 4012POPC   NC353063  40.210  42.458   5.426
 4012POPC   PO453064  40.071  41.890   5.662
 4012POPC   GL153065  40.195  42.232   5.911
 4012POPC   GL253066  39.995  42.538   5.915
 4012POPC   C1A53067  40.165  42.264   6.349
 4012POPC   D2A53068  39.985  42.311   6.743
 4012POPC   C3A53069  40.121  42.110   7.110
 4012POPC   C4A53070  39.882  41.894   7.417
 4012POPC   C1B53071  39.854  42.662   6.346
 4012POPC   C2B53072  40.028  42.828   6.749
 4012POPC   C3B53073  40.020  42.603   7.165
 4012POPC   C4B53074  40.011  42.644   7.609
 4013POPC   NC353075  38.382  43.230   5.116
 4013POPC   PO453076  38.513  42.827   5.620
 4013POPC   GL153077  38.255  43.013   5.893
 4013POPC   GL253078  38.278  43.345   5.736
 4013POPC   C1A53079  38.457  43.017   6.295
 4013POPC   D2A53080  38.328  43.041   6.701
 4013POPC   C3A53081  38.676  43.090   6.935
 4013POPC   C4A53082  38.590  42.987   7.341
 4013POPC   C1B53083  38.244  43.469   6.188
 4013POPC   C2B53084  38.133  43.518   6.648
 4013POPC   C3B53085  38.298  43.428   7.090
 4013POPC   C4B53086  38.366  43.363   7.582
 4014POPC   NC353087  18.450  41.996   5.517
 4014POPC   PO453088  18.078  42.461   5.147
 4014POPC   GL153089  18.186  42.510   5.622
 4014POPC   GL253090  18.496  42.470   5.795
 4014POPC   C1A53091  18.044  42.448   6.077
 4014POPC   D2A53092  18.278  42.261   6.420
 4014POPC   C3A53093  18.161  42.211   6.818
 4014POPC   C4A53094  18.080  41.914   7.123
 4014POPC   C1B53095  18.463  42.689   6.217
 4014POPC   C2B53096  18.313  42.764   6.655
 4014POPC   C3B53097  18.403  42.722   7.102
 4014POPC   C4B53098  18.334  42.322   7.273
 4015POPC   NC353099  34.747  17.342   5.354
 4015POPC   PO453100  34.119  17.661   5.441
 4015POPC   GL153101  34.357  17.525   5.826
 4015POPC   GL253102  34.723  17.440   5.850
 4015POPC   C1A53103  34.465  17.598   6.267
 4015POPC   D2A53104  34.277  17.381   6.598
 4015POPC   C3A53105  34.423  17.429   6.991
 4015POPC   C4A53106  34.587  17.759   7.137
 4015POPC   C1B53107  34.908  17.294   6.226
 4015POPC   C2B53108  34.830  17.389   6.636
 4015POPC   C3B53109  34.846  17.133   6.980
 4015POPC   C4B53110  34.816  17.360   7.351
 4016POPC   NC353111  20.592  27.950   5.222
 4016POPC   PO453112  20.833  27.352   5.265
 4016POPC   GL153113  20.640  27.490   5.672
 4016POPC   GL253114  20.954  27.397   5.797
 4016POPC   C1A53115  20.644  27.738   6.123
 4016POPC   D2A53116  20.402  27.595   6.519
 4016POPC   C3A53117  20.554  27.661   6.936
 4016POPC   C4A53118  20.695  27.998   7.194
 4016POPC   C1B53119  20.687  27.251   6.142
 4016POPC   C2B53120  20.842  27.347   6.547
 4016POPC   C3B53121  20.797  27.213   6.970
 4016POPC   C4B53122  20.731  27.372   7.399
 4017POPC   NC353123  15.604   5.443   5.678
 4017POPC   PO453124  15.275   5.874   5.270
 4017POPC   GL153125  15.235   5.805   5.740
 4017POPC   GL253126  15.105   5.442   5.822
 4017POPC   C1A53127  15.076   5.980   6.151
 4017POPC   D2A53128  15.213   5.941   6.584
 4017POPC   C3A53129  14.979   5.796   6.936
 4017POPC   C4A53130  15.239   5.910   7.295
 4017POPC   C1B53131  15.327   5.545   6.220
 4017POPC   C2B53132  15.599   5.568   6.548
 4017POPC   C3B53133  15.430   5.563   6.946
 4017POPC   C4B53134  15.617   5.576   7.320
 4018POPC   NC353135  33.141  30.602   5.323
 4018POPC   PO453136  32.589  30.606   5.593
 4018POPC   GL153137  32.904  30.737   5.879
 4018POPC   GL253138  33.099  30.993   5.677
 4018POPC   C1A53139  32.909  30.832   6.349
 4018POPC   D2A53140  32.720  30.676   6.756
 4018POPC   C3A53141  33.040  30.506   7.051
 4018POPC   C4A53142  33.456  30.688   7.099
 4018POPC   C1B53143  33.127  31.271   6.039
 4018POPC   C2B53144  33.262  31.254   6.468
 4018POPC   C3B53145  33.114  31.028   6.836
 4018POPC   C4B53146  32.839  30.959   7.181
 4019POPC   NC353147  36.546  32.733   5.449
 4019POPC   PO453148  36.475  32.024   5.427
 4019POPC   GL153149  36.723  32.137   5.813
 4019POPC   GL253150  36.897  32.472   5.778
 4019POPC   C1A53151  36.797  32.054   6.245
 4019POPC   D2A53152  36.980  31.894   6.603
 4019POPC   C3A53153  36.858  31.982   7.016
 4019POPC   C4A53154  36.997  32.198   7.377
 4019POPC   C1B53155  36.775  32.567   6.221
 4019POPC   C2B53156  36.658  32.369   6.655
 4019POPC   C3B53157  36.722  32.487   7.086
 4019POPC   C4B53158  36.642  32.605   7.558
 4020POPC   NC353159  34.680  32.866   5.162
 4020POPC   PO453160  34.425  33.446   5.449
 4020POPC   GL153161  34.592  33.225   5.821
 4020POPC   GL253162  34.625  32.859   5.733
 4020POPC   C1A53163  34.481  33.203   6.275
 4020POPC   D2A53164  34.413  33.057   6.720
 4020POPC   C3A53165  34.675  33.228   7.067
 4020POPC   C4A53166  34.510  33.396   7.457
 4020POPC   C1B53167  34.629  32.725   6.173
 4020POPC   C2B53168  34.689  32.614   6.626
 4020POPC   C3B53169  34.635  32.724   7.062
 4020POPC   C4B53170  34.665  32.581   7.460
 4021POPC   NC353171  31.852  33.928   5.627
 4021POPC   PO453172  31.369  33.486   5.532
 4021POPC   GL153173  31.484  33.675   5.893
 4021POPC   GL253174  31.724  33.406   5.913
 4021POPC   C1A53175  31.346  33.982   6.257
 4021POPC   D2A53176  31.403  34.228   6.663
 4021POPC   C3A53177  31.337  33.947   7.051
 4021POPC   C4A53178  31.229  33.979   7.516
 4021POPC   C1B53179  31.642  33.506   6.342
 4021POPC   C2B53180  31.682  33.781   6.679
 4021POPC   C3B53181  31.561  33.487   6.999
 4021POPC   C4B53182  31.547  33.592   7.416
 4022POPC   NC353183  33.484  41.150   5.585
 4022POPC   PO453184  33.870  40.476   5.518
 4022POPC   GL153185  34.030  40.696   5.845
 4022POPC   GL253186  33.725  40.854   5.906
 4022POPC   C1A53187  33.968  40.630   6.294
 4022POPC   D2A53188  33.821  40.884   6.610
 4022POPC   C3A53189  33.904  40.717   6.983
 4022POPC   C4A53190  34.289  40.567   7.180
 4022POPC   C1B53191  33.455  41.004   6.245
 4022POPC   C2B53192  33.469  41.247   6.619
 4022POPC   C3B53193  33.414  41.126   7.043
 4022POPC   C4B53194  33.502  40.954   7.445
 4023POPC   NC353195  44.521  14.597   5.442
 4023POPC   PO453196  44.843  13.974   5.503
 4023POPC   GL153197  44.733  14.169   5.906
 4023POPC   GL253198  44.760  14.552   5.882
 4023POPC   C1A53199  44.685  14.046   6.356
 4023POPC   D2A53200  44.528  14.276   6.717
 4023POPC   C3A53201  44.717  14.259   7.112
 4023POPC   C4A53202  44.363  14.193   7.420
 4023POPC   C1B53203  44.701  14.548   6.304
 4023POPC   C2B53204  44.834  14.773   6.640
 4023POPC   C3B53205  44.809  14.787   7.060
 4023POPC   C4B53206  44.577  14.645   7.389
 4024POPC   NC353207  36.035  37.200   5.359
 4024POPC   PO453208  36.324  36.637   5.227
 4024POPC   GL153209  36.130  36.679   5.647
 4024POPC   GL253210  36.266  36.995   5.766
 4024POPC   C1A53211  35.943  36.738   6.068
 4024POPC   D2A53212  36.161  36.843   6.468
 4024POPC   C3A53213  36.073  36.845   6.906
 4024POPC   C4A53214  35.866  36.992   7.242
 4024POPC   C1B53215  36.363  37.204   6.158
 4024POPC   C2B53216  36.568  37.141   6.564
 4024POPC   C3B53217  36.436  37.201   6.980
 4024POPC   C4B53218  36.579  36.972   7.353
 4025POPC   NC353219   0.900  20.701   5.232
 4025POPC   PO453220   1.509  20.346   5.186
 4025POPC   GL153221   1.389  20.513   5.661
 4025POPC   GL253222   1.154  20.786   5.749
 4025POPC   C1A53223   1.278  20.471   6.150
 4025POPC   D2A53224   1.139  20.284   6.558
 4025POPC   C3A53225   1.372  20.460   6.909
 4025POPC   C4A53226   1.271  20.442   7.328
 4025POPC   C1B53227   1.055  20.931   6.178
 4025POPC   C2B53228   1.186  20.817   6.589
 4025POPC   C3B53229   1.080  20.905   7.029
 4025POPC   C4B53230   1.000  20.822   7.477
 4026POPC   NC353231  20.806  21.605   5.405
 4026POPC   PO453232  20.271  21.261   5.571
 4026POPC   GL153233  20.524  21.458   5.837
 4026POPC   GL253234  20.776  21.198   5.821
 4026POPC   C1A53235  20.491  21.490   6.265
 4026POPC   D2A53236  20.424  21.289   6.647
 4026POPC   C3A53237  20.533  21.528   6.995
 4026POPC   C4A53238  20.552  21.593   7.428
 4026POPC   C1B53239  20.972  21.372   6.192
 4026POPC   C2B53240  20.942  21.449   6.635
 4026POPC   C3B53241  20.983  21.233   7.021
 4026POPC   C4B53242  20.943  21.284   7.474
 4027POPC   NC353243  16.819   8.935   5.383
 4027POPC   PO453244  16.218   8.944   5.265
 4027POPC   GL153245  16.419   8.901   5.730
 4027POPC   GL253246  16.782   8.812   5.866
 4027POPC   C1A53247  16.383   8.669   6.140
 4027POPC   D2A53248  16.562   8.769   6.540
 4027POPC   C3A53249  16.431   8.594   6.922
 4027POPC   C4A53250  16.557   8.669   7.324
 4027POPC   C1B53251  16.894   9.011   6.227
 4027POPC   C2B53252  17.037   9.113   6.641
 4027POPC   C3B53253  17.048   9.250   7.084
 4027POPC   C4B53254  16.927   8.998   7.425
 4028POPC   NC353255  12.076  25.865   5.222
 4028POPC   PO453256  11.774  26.414   5.463
 4028POPC   GL153257  12.017  26.103   5.730
 4028POPC   GL253258  12.216  25.782   5.739
 4028POPC   C1A53259  12.181  26.094   6.154
 4028POPC   D2A53260  11.988  26.267   6.534
 4028POPC   C3A53261  12.148  26.079   6.912
 4028POPC   C4A53262  12.230  26.136   7.335
 4028POPC   C1B53263  12.468  25.644   6.149
 4028POPC   C2B53264  12.467  25.622   6.654
 4028POPC   C3B53265  12.504  25.735   7.126
 4028POPC   C4B53266  12.620  25.878   7.598
 4029POPC   NC353267  39.551  43.207   5.445
 4029POPC   PO453268  38.945  42.943   5.314
 4029POPC   GL153269  39.075  43.033   5.799
 4029POPC   GL253270  39.344  43.262   5.911
 4029POPC   C1A53271  38.981  43.163   6.256
 4029POPC   D2A53272  39.032  42.891   6.610
 4029POPC   C3A53273  39.249  42.927   6.964
 4029POPC   C4A53274  39.081  42.990   7.340
 4029POPC   C1B53275  39.637  43.462   6.169
 4029POPC   C2B53276  39.453  43.626   6.549
 4029POPC   C3B53277  39.140  43.396   6.775
 4029POPC   C4B53278  39.306  43.415   7.186
 4030POPC   NC353279   4.208   7.051   5.107
 4030POPC   PO453280   4.550   7.126   5.649
 4030POPC   GL153281   4.514   7.427   5.960
 4030POPC   GL253282   4.209   7.514   5.818
 4030POPC   C1A53283   4.498   7.714   6.332
 4030POPC   D2A53284   4.589   7.858   6.770
 4030POPC   C3A53285   4.506   7.527   7.078
 4030POPC   C4A53286   4.373   7.288   7.475
 4030POPC   C1B53287   4.086   7.370   6.247
 4030POPC   C2B53288   4.211   7.400   6.684
 4030POPC   C3B53289   3.990   7.328   7.085
 4030POPC   C4B53290   3.951   6.978   7.399
 4031POPC   NC353291   0.248  21.842   5.630
 4031POPC   PO453292   0.207  22.317   5.200
 4031POPC   GL153293   0.408  22.293   5.747
 4031POPC   GL253294   0.553  22.041   5.983
 4031POPC   C1A53295   0.317  22.438   6.202
 4031POPC   D2A53296   0.044  22.404   6.570
 4031POPC   C3A53297   0.242  22.196   6.904
 4031POPC   C4A53298   0.217  22.458   7.248
 4031POPC   C1B53299   0.757  21.935   6.343
 4031POPC   C2B53300   0.769  22.057   6.739
 4031POPC   C3B53301   0.736  22.351   7.038
 4031POPC   C4B53302   0.560  22.106   7.305
 4032POPC   NC353303  29.040  19.557   5.401
 4032POPC   PO453304  29.190  20.193   5.562
 4032POPC   GL153305  29.049  19.832   5.855
 4032POPC   GL253306  28.995  19.437   5.873
 4032POPC   C1A53307  29.127  19.838   6.284
 4032POPC   D2A53308  29.475  19.868   6.559
 4032POPC   C3A53309  29.322  20.056   6.913
 4032POPC   C4A53310  28.893  20.142   7.076
 4032POPC   C1B53311  28.752  19.468   6.232
 4032POPC   C2B53312  28.821  19.645   6.646
 4032POPC   C3B53313  29.044  19.589   7.027
 4032POPC   C4B53314  28.934  19.699   7.434
 4033POPC   NC353315  29.982  35.045   5.451
 4033POPC   PO453316  29.793  35.663   5.343
 4033POPC   GL153317  29.806  35.438   5.735
 4033POPC   GL253318  30.171  35.513   5.771
 4033POPC   C1A53319  29.955  35.186   6.122
 4033POPC   D2A53320  30.058  35.299   6.558
 4033POPC   C3A53321  29.940  35.171   6.985
 4033POPC   C4A53322  30.036  35.387   7.393
 4033POPC   C1B53323  29.952  35.741   6.113
 4033POPC   C2B53324  29.999  35.820   6.542
 4033POPC   C3B53325  29.868  35.663   6.891
 4033POPC   C4B53326  29.822  35.818   7.230
 4034POPC   NC353327  40.885   0.741   5.429
 4034POPC   PO453328  40.413   0.160   5.420
 4034POPC   GL153329  40.592   0.430   5.732
 4034POPC   GL253330  40.911   0.379   5.856
 4034POPC   C1A53331  40.548   0.514   6.201
 4034POPC   D2A53332  40.737   0.508   6.610
 4034POPC   C3A53333  40.519   0.550   7.004
 4034POPC   C4A53334  40.613   0.493   7.440
 4034POPC   C1B53335  40.993   0.170   6.265
 4034POPC   C2B53336  41.092   0.148   6.709
 4034POPC   C3B53337  41.010   0.323   7.124
 4034POPC   C4B53338  40.961   0.188   7.594
 4035POPC   NC353339  33.344  32.077   5.347
 4035POPC   PO453340  32.743  32.235   5.506
 4035POPC   GL153341  32.928  32.265   5.893
 4035POPC   GL253342  33.284  32.344   5.865
 4035POPC   C1A53343  32.849  32.129   6.300
 4035POPC   D2A53344  32.915  32.325   6.678
 4035POPC   C3A53345  32.659  32.203   6.970
 4035POPC   C4A53346  32.705  31.914   7.243
 4035POPC   C1B53347  33.296  32.386   6.339
 4035POPC   C2B53348  33.376  32.154   6.738
 4035POPC   C3B53349  33.148  32.260   7.148
 4035POPC   C4B53350  33.372  32.394   7.518
 4036POPC   NC353351  25.870  27.084   5.080
 4036POPC   PO453352  26.196  26.523   5.316
 4036POPC   GL153353  26.168  26.593   5.751
 4036POPC   GL253354  26.489  26.447   5.832
 4036POPC   C1A53355  26.170  26.900   6.127
 4036POPC   D2A53356  26.330  27.115   6.530
 4036POPC   C3A53357  26.089  27.049   6.892
 4036POPC   C4A53358  26.003  26.971   7.323
 4036POPC   C1B53359  26.236  26.407   6.208
 4036POPC   C2B53360  26.195  26.616   6.597
 4036POPC   C3B53361  26.053  26.553   7.009
 4036POPC   C4B53362  26.308  26.387   7.320
 4037POPC   NC353363  43.701  41.867   5.499
 4037POPC   PO453364  44.065  41.317   5.206
 4037POPC   GL153365  43.931  41.452   5.714
 4037POPC   GL253366  43.652  41.610   5.928
 4037POPC   C1A53367  44.065  41.453   6.175
 4037POPC   D2A53368  44.239  41.647   6.541
 4037POPC   C3A53369  44.059  41.504   6.921
 4037POPC   C4A53370  44.111  41.656   7.305
 4037POPC   C1B53371  43.636  41.891   6.227
 4037POPC   C2B53372  43.768  41.832   6.637
 4037POPC   C3B53373  43.681  41.937   7.036
 4037POPC   C4B53374  43.648  41.914   7.469
 4038POPC   NC353375  27.802  13.309   4.960
 4038POPC   PO453376  27.190  13.353   5.296
 4038POPC   GL153377  27.215  13.404   5.794
 4038POPC   GL253378  27.245  13.167   6.099
 4038POPC   C1A53379  27.265  13.648   6.223
 4038POPC   D2A53380  27.307  13.423   6.657
 4038POPC   C3A53381  27.508  13.540   7.032
 4038POPC   C4A53382  27.620  13.596   7.428
 4038POPC   C1B53383  27.658  13.345   6.293
 4038POPC   C2B53384  27.865  13.342   6.704
 4038POPC   C3B53385  27.969  13.285   7.166
 4038POPC   C4B53386  28.185  13.029   7.500
 4039POPC   NC353387  10.635  36.968   5.344
 4039POPC   PO453388  10.568  36.363   5.251
 4039POPC   GL153389  10.809  36.605   5.656
 4039POPC   GL253390  10.816  36.961   5.818
 4039POPC   C1A53391  10.784  36.565   6.139
 4039POPC   D2A53392  10.522  36.787   6.465
 4039POPC   C3A53393  10.540  36.678   6.937
 4039POPC   C4A53394  10.222  36.782   7.281
 4039POPC   C1B53395  10.917  37.103   6.242
 4039POPC   C2B53396  10.942  36.955   6.676
 4039POPC   C3B53397  10.785  37.113   7.062
 4039POPC   C4B53398  10.438  37.388   7.212
 4040POPC   NC353399  14.649  19.239   5.467
 4040POPC   PO453400  14.026  19.013   5.371
 4040POPC   GL153401  14.244  18.962   5.787
 4040POPC   GL253402  14.361  19.283   5.915
 4040POPC   C1A53403  14.391  18.923   6.252
 4040POPC   D2A53404  14.400  19.141   6.650
 4040POPC   C3A53405  14.080  19.041   6.879
 4040POPC   C4A53406  14.223  18.949   7.231
 4040POPC   C1B53407  14.681  19.362   6.290
 4040POPC   C2B53408  14.780  19.475   6.761
 4040POPC   C3B53409  14.586  19.343   7.178
 4040POPC   C4B53410  14.489  19.461   7.646
 4041POPC   NC353411   5.351  19.041   5.355
 4041POPC   PO453412   5.018  18.420   5.485
 4041POPC   GL153413   5.011  18.854   5.746
 4041POPC   GL253414   5.252  19.177   5.834
 4041POPC   C1A53415   4.866  19.063   6.159
 4041POPC   D2A53416   5.071  19.128   6.596
 4041POPC   C3A53417   4.881  19.102   7.043
 4041POPC   C4A53418   5.148  19.404   7.290
 4041POPC   C1B53419   5.357  18.924   6.206
 4041POPC   C2B53420   5.349  18.695   6.608
 4041POPC   C3B53421   5.344  18.897   7.003
 4041POPC   C4B53422   5.500  18.666   7.323
 4042POPC   NC353423  44.671   1.712   5.160
 4042POPC   PO453424  44.226   2.096   5.453
 4042POPC   GL153425  44.384   2.049   5.888
 4042POPC   GL253426  44.709   2.196   5.871
 4042POPC   C1A53427  44.597   1.853   6.283
 4042POPC   D2A53428  44.882   1.834   6.671
 4042POPC   C3A53429  44.684   1.893   7.072
 4042POPC   C4A53430  44.293   2.065   7.140
 4042POPC   C1B53431  44.692   2.347   6.311
 4042POPC   C2B53432  44.552   2.243   6.716
 4042POPC   C3B53433  44.896   2.350   6.990
 4042POPC   C4B53434   0.179   2.178   7.354
 4043POPC   NC353435  11.599  33.349   5.534
 4043POPC   PO453436  11.129  32.813   5.495
 4043POPC   GL153437  11.238  33.039   5.835
 4043POPC   GL253438  10.900  33.069   5.976
 4043POPC   C1A53439  11.341  33.159   6.256
 4043POPC   D2A53440  11.452  32.898   6.600
 4043POPC   C3A53441  11.532  33.124   6.988
 4043POPC   C4A53442  11.676  32.779   7.231
 4043POPC   C1B53443  10.874  33.096   6.447
 4043POPC   C2B53444  11.052  33.088   6.862
 4043POPC   C3B53445  11.173  32.931   7.287
 4043POPC   C4B53446  10.996  32.931   7.748
 4044POPC   NC353447  12.217  33.369   5.282
 4044POPC   PO453448  11.845  32.954   5.550
 4044POPC   GL153449  11.759  33.087   5.965
 4044POPC   GL253450  11.627  32.770   6.094
 4044POPC   C1A53451  11.844  33.183   6.417
 4044POPC   D2A53452  11.972  32.973   6.819
 4044POPC   C3A53453  11.993  33.168   7.232
 4044POPC   C4A53454  11.887  33.008   7.673
 4044POPC   C1B53455  11.951  32.649   6.418
 4044POPC   C2B53456  12.259  32.566   6.784
 4044POPC   C3B53457  12.187  32.657   7.246
 4044POPC   C4B53458  12.211  32.599   7.710
 4045POPC   NC353459  40.174  21.930   5.180
 4045POPC   PO453460  40.019  22.500   5.441
 4045POPC   GL153461  40.136  22.287   5.794
 4045POPC   GL253462  40.408  22.068   5.665
 4045POPC   C1A53463  39.981  22.300   6.243
 4045POPC   D2A53464  39.925  22.568   6.638
 4045POPC   C3A53465  39.850  22.354   7.044
 4045POPC   C4A53466  40.123  22.272   7.414
 4045POPC   C1B53467  40.313  21.907   6.090
 4045POPC   C2B53468  40.185  21.824   6.532
 4045POPC   C3B53469  40.199  21.942   6.989
 4045POPC   C4B53470  40.235  21.762   7.423
 4046POPC   NC353471  31.790  29.952   4.955
 4046POPC   PO453472  31.354  29.810   5.458
 4046POPC   GL153473  31.427  29.962   5.865
 4046POPC   GL253474  31.731  29.782   5.873
 4046POPC   C1A53475  31.433  30.127   6.304
 4046POPC   D2A53476  31.375  29.829   6.625
 4046POPC   C3A53477  31.252  30.026   7.016
 4046POPC   C4A53478  31.574  30.313   7.204
 4046POPC   C1B53479  31.776  29.773   6.292
 4046POPC   C2B53480  31.941  30.017   6.571
 4046POPC   C3B53481  31.760  29.909   6.945
 4046POPC   C4B53482  31.680  29.813   7.367
 4047POPC   NC353483  19.904  42.909   5.160
 4047POPC   PO453484  19.808  42.230   5.322
 4047POPC   GL153485  19.865  42.363   5.738
 4047POPC   GL253486  19.535  42.521   5.803
 4047POPC   C1A53487  19.779  42.244   6.191
 4047POPC   D2A53488  19.683  42.071   6.628
 4047POPC   C3A53489  19.898  42.310   6.953
 4047POPC   C4A53490  20.218  42.347   7.280
 4047POPC   C1B53491  19.469  42.642   6.254
 4047POPC   C2B53492  19.462  42.530   6.711
 4047POPC   C3B53493  19.433  42.279   7.123
 4047POPC   C4B53494  19.331  42.458   7.563
 4048POPC   NC353495   7.276   9.375   5.525
 4048POPC   PO453496   7.623   8.742   5.378
 4048POPC   GL153497   7.563   8.969   5.744
 4048POPC   GL253498   7.238   8.880   5.857
 4048POPC   C1A53499   7.616   9.112   6.159
 4048POPC   D2A53500   7.856   9.180   6.535
 4048POPC   C3A53501   7.631   8.888   6.801
 4048POPC   C4A53502   7.450   8.997   7.176
 4048POPC   C1B53503   7.075   8.946   6.279
 4048POPC   C2B53504   7.096   8.946   6.723
 4048POPC   C3B53505   6.959   9.080   7.104
 4048POPC   C4B53506   7.060   8.888   7.502
 4049POPC   NC353507   4.685   6.305   5.415
 4049POPC   PO453508   5.047   5.716   5.414
 4049POPC   GL153509   5.242   5.776   5.831
 4049POPC   GL253510   5.293   5.469   5.960
 4049POPC   C1A53511   5.254   6.056   6.193
 4049POPC   D2A53512   5.354   6.101   6.662
 4049POPC   C3A53513   5.043   6.174   7.047
 4049POPC   C4A53514   5.133   6.085   7.505
 4049POPC   C1B53515   5.146   5.588   6.357
 4049POPC   C2B53516   5.106   5.622   6.785
 4049POPC   C3B53517   4.816   5.706   7.087
 4049POPC   C4B53518   4.948   5.635   7.470
 4050POPC   NC353519  41.627  32.463   5.590
 4050POPC   PO453520  41.335  31.828   5.538
 4050POPC   GL153521  41.543  31.938   5.876
 4050POPC   GL253522  41.846  32.095   5.867
 4050POPC   C1A53523  41.398  32.016   6.270
 4050POPC   D2A53524  41.395  32.297   6.592
 4050POPC   C3A53525  41.511  32.126   6.929
 4050POPC   C4A53526  41.294  32.253   7.242
 4050POPC   C1B53527  41.838  32.282   6.326
 4050POPC   C2B53528  41.810  32.608   6.684
 4050POPC   C3B53529  41.691  32.557   7.134
 4050POPC   C4B53530  41.767  32.169   7.381
 4051POPC   NC353531   2.640   8.953   5.427
 4051POPC   PO453532   3.038   9.418   5.454
 4051POPC   GL153533   3.036   9.129   5.792
 4051POPC   GL253534   2.691   9.107   5.918
 4051POPC   C1A53535   3.075   8.937   6.205
 4051POPC   D2A53536   2.811   8.798   6.548
 4051POPC   C3A53537   2.933   8.870   6.973
 4051POPC   C4A53538   3.007   9.056   7.368
 4051POPC   C1B53539   2.447   8.770   6.143
 4051POPC   C2B53540   2.281   8.753   6.571
 4051POPC   C3B53541   2.424   8.933   6.905
 4051POPC   C4B53542   2.535   8.764   7.269
 4052POPC   NC353543  32.010  44.739   5.509
 4052POPC   PO453544  31.670  44.106   5.545
 4052POPC   GL153545  31.942  44.341   5.879
 4052POPC   GL253546  32.321  44.330   5.945
 4052POPC   C1A53547  32.014  44.558   6.287
 4052POPC   D2A53548  32.155  44.376   6.689
 4052POPC   C3A53549  32.203  44.608   7.065
 4052POPC   C4A53550  31.898  44.963   7.195
 4052POPC   C1B53551  32.515  44.658   6.236
 4052POPC   C2B53552  32.431  44.834   6.659
 4052POPC   C3B53553  32.630  44.888   7.083
 4052POPC   C4B53554  32.571  44.619   7.453
 4053POPC   NC353555  24.887  43.762   5.337
 4053POPC   PO453556  25.249  44.375   5.359
 4053POPC   GL153557  25.023  44.199   5.710
 4053POPC   GL253558  25.133  43.884   5.799
 4053POPC   C1A53559  24.927  44.203   6.164
 4053POPC   D2A53560  24.970  43.971   6.553
 4053POPC   C3A53561  25.199  44.105   6.911
 4053POPC   C4A53562  25.028  44.111   7.273
 4053POPC   C1B53563  25.321  43.798   6.213
 4053POPC   C2B53564  25.401  43.689   6.664
 4053POPC   C3B53565  25.469  43.694   7.124
 4053POPC   C4B53566  25.545  43.372   7.431
 4054POPC   NC353567  43.302  38.155   5.099
 4054POPC   PO453568  42.902  38.674   5.346
 4054POPC   GL153569  42.908  38.532   5.778
 4054POPC   GL253570  43.196  38.278   5.805
 4054POPC   C1A53571  42.954  38.632   6.214
 4054POPC   D2A53572  43.078  38.720   6.638
 4054POPC   C3A53573  42.963  38.413   6.963
 4054POPC   C4A53574  43.145  38.457   7.401
 4054POPC   C1B53575  43.254  38.167   6.243
 4054POPC   C2B53576  43.331  38.004   6.646
 4054POPC   C3B53577  43.343  38.084   7.079
 4054POPC   C4B53578  43.327  37.967   7.533
 4055POPC   NC353579   7.956  43.940   5.368
 4055POPC   PO453580   8.588  44.177   5.210
 4055POPC   GL153581   8.468  43.894   5.632
 4055POPC   GL253582   8.145  43.830   5.811
 4055POPC   C1A53583   8.498  43.935   6.135
 4055POPC   D2A53584   8.216  44.066   6.504
 4055POPC   C3A53585   8.288  43.867   6.884
 4055POPC   C4A53586   8.311  43.941   7.323
 4055POPC   C1B53587   8.071  43.664   6.221
 4055POPC   C2B53588   7.846  43.711   6.609
 4055POPC   C3B53589   7.871  43.659   7.059
 4055POPC   C4B53590   8.055  43.517   7.432
 4056POPC   NC353591   1.204   6.036   5.171
 4056POPC   PO453592   0.618   5.938   5.479
 4056POPC   GL153593   0.865   5.909   5.827
 4056POPC   GL253594   1.170   6.069   5.714
 4056POPC   C1A53595   1.104   5.627   6.061
 4056POPC   D2A53596   1.278   5.504   6.463
 4056POPC   C3A53597   1.143   5.657   6.833
 4056POPC   C4A53598   1.358   5.774   7.129
 4056POPC   C1B53599   1.189   6.109   6.182
 4056POPC   C2B53600   1.372   6.042   6.555
 4056POPC   C3B53601   1.083   6.156   6.819
 4056POPC   C4B53602   1.054   6.170   7.217
 4057POPC   NC353603   1.455   5.305   5.338
 4057POPC   PO453604   0.839   5.142   5.314
 4057POPC   GL153605   0.937   5.239   5.736
 4057POPC   GL253606   0.813   4.928   5.828
 4057POPC   C1A53607   1.164   5.123   6.145
 4057POPC   D2A53608   1.137   4.949   6.582
 4057POPC   C3A53609   1.262   5.171   6.950
 4057POPC   C4A53610   1.503   5.087   7.350
 4057POPC   C1B53611   0.775   4.809   6.245
 4057POPC   C2B53612   0.616   4.879   6.630
 4057POPC   C3B53613   0.820   4.866   7.015
 4057POPC   C4B53614   1.141   4.701   7.276
 4058POPC   NC353615  24.778  24.815   5.321
 4058POPC   PO453616  24.361  24.226   5.476
 4058POPC   GL153617  24.557  24.358   5.834
 4058POPC   GL253618  24.615  24.722   5.807
 4058POPC   C1A53619  24.398  24.428   6.232
 4058POPC   D2A53620  24.121  24.434   6.554
 4058POPC   C3A53621  24.334  24.318   6.916
 4058POPC   C4A53622  24.461  24.548   7.271
 4058POPC   C1B53623  24.790  24.765   6.225
 4058POPC   C2B53624  24.643  24.684   6.645
 4058POPC   C3B53625  24.827  24.817   6.998
 4058POPC   C4B53626  24.837  25.061   7.360
 4059POPC   NC353627   4.521  38.146   5.453
 4059POPC   PO453628   4.777  37.536   5.542
 4059POPC   GL153629   4.918  37.448   5.910
 4059POPC   GL253630   5.202  37.270   5.925
 4059POPC   C1A53631   4.995  37.657   6.283
 4059POPC   D2A53632   4.755  37.573   6.633
 4059POPC   C3A53633   4.916  37.646   7.052
 4059POPC   C4A53634   5.325  37.717   7.227
 4059POPC   C1B53635   5.059  37.168   6.354
 4059POPC   C2B53636   5.214  37.338   6.749
 4059POPC   C3B53637   5.420  37.208   7.139
 4059POPC   C4B53638   5.439  37.371   7.601
 4060POPC   NC353639  16.844   4.271   5.303
 4060POPC   PO453640  16.297   4.375   5.612
 4060POPC   GL153641  16.680   4.462   5.784
 4060POPC   GL253642  16.775   4.136   5.781
 4060POPC   C1A53643  16.825   4.470   6.205
 4060POPC   D2A53644  16.952   4.433   6.628
 4060POPC   C3A53645  16.768   4.666   6.983
 4060POPC   C4A53646  16.420   4.541   7.245
 4060POPC   C1B53647  16.836   3.963   6.183
 4060POPC   C2B53648  16.721   3.914   6.604
 4060POPC   C3B53649  16.674   4.160   6.998
 4060POPC   C4B53650  16.887   4.258   7.390
 4061POPC   NC353651  16.834  20.656   5.386
 4061POPC   PO453652  16.459  20.139   5.597
 4061POPC   GL153653  16.728  20.399   5.832
 4061POPC   GL253654  17.061  20.370   5.725
 4061POPC   C1A53655  16.803  20.736   6.118
 4061POPC   D2A53656  16.582  20.861   6.501
 4061POPC   C3A53657  16.769  20.740   6.884
 4061POPC   C4A53658  16.694  20.851   7.277
 4061POPC   C1B53659  17.148  20.337   6.143
 4061POPC   C2B53660  16.924  20.412   6.509
 4061POPC   C3B53661  17.064  20.326   6.925
 4061POPC   C4B53662  16.853  20.346   7.278
 4062POPC   NC353663  37.045  44.518   5.398
 4062POPC   PO453664  36.708   0.116   5.472
 4062POPC   GL153665  36.861  44.768   5.791
 4062POPC   GL253666  37.235  44.654   5.861
 4062POPC   C1A53667  36.825  44.606   6.213
 4062POPC   D2A53668  37.023  44.801   6.589
 4062POPC   C3A53669  36.793  44.678   6.960
 4062POPC   C4A53670  36.827  44.769   7.392
 4062POPC   C1B53671  37.291  44.426   6.259
 4062POPC   C2B53672  37.135  44.329   6.701
 4062POPC   C3B53673  37.168  44.410   7.191
 4062POPC   C4B53674  37.088  44.292   7.635
 4063POPC   NC353675  20.780  37.828   5.336
 4063POPC   PO453676  20.372  37.313   5.268
 4063POPC   GL153677  20.435  37.634   5.671
 4063POPC   GL253678  20.738  37.846   5.828
 4063POPC   C1A53679  20.401  37.564   6.130
 4063POPC   D2A53680  20.210  37.409   6.533
 4063POPC   C3A53681  20.408  37.589   6.915
 4063POPC   C4A53682  20.502  37.534   7.361
 4063POPC   C1B53683  20.774  37.878   6.272
 4063POPC   C2B53684  20.841  37.747   6.697
 4063POPC   C3B53685  20.772  37.885   7.112
 4063POPC   C4B53686  20.695  37.979   7.552
 4064POPC   NC353687  29.845  38.995   5.126
 4064POPC   PO453688  30.106  39.527   5.162
 4064POPC   GL153689  29.877  39.349   5.536
 4064POPC   GL253690  30.129  39.460   5.764
 4064POPC   C1A53691  29.811  39.080   5.946
 4064POPC   D2A53692  29.916  39.123   6.401
 4064POPC   C3A53693  29.664  39.202   6.770
 4064POPC   C4A53694  29.804  39.072   7.207
 4064POPC   C1B53695  30.234  39.718   6.120
 4064POPC   C2B53696  30.251  39.586   6.551
 4064POPC   C3B53697  30.103  39.424   6.942
 4064POPC   C4B53698  30.281  39.482   7.339
 4065POPC   NC353699  30.827  31.013   5.565
 4065POPC   PO453700  30.638  30.411   5.636
 4065POPC   GL153701  30.974  30.613   5.890
 4065POPC   GL253702  31.008  30.290   6.051
 4065POPC   C1A53703  30.936  31.007   6.225
 4065POPC   D2A53704  30.497  31.127   6.461
 4065POPC   C3A53705  30.418  31.119   6.940
 4065POPC   C4A53706  30.633  30.982   7.341
 4065POPC   C1B53707  30.732  30.562   6.318
 4065POPC   C2B53708  30.828  30.761   6.693
 4065POPC   C3B53709  30.611  30.598   7.018
 4065POPC   C4B53710  30.710  30.487   7.436
 4066POPC   NC353711  37.147  43.864   5.398
 4066POPC   PO453712  36.609  44.276   5.465
 4066POPC   GL153713  36.884  44.149   5.800
 4066POPC   GL253714  36.789  43.786   5.807
 4066POPC   C1A53715  36.907  44.067   6.260
 4066POPC   D2A53716  36.730  43.827   6.592
 4066POPC   C3A53717  36.826  44.010   6.946
 4066POPC   C4A53718  37.016  43.902   7.315
 4066POPC   C1B53719  37.033  43.577   6.136
 4066POPC   C2B53720  37.006  43.399   6.544
 4066POPC   C3B53721  36.986  43.530   6.952
 4066POPC   C4B53722  37.387  43.528   7.106
 4067POPC   NC353723  44.227   6.423   5.440
 4067POPC   PO453724  44.880   6.386   5.189
 4067POPC   GL153725  44.738   6.447   5.651
 4067POPC   GL253726  44.487   6.750   5.713
 4067POPC   C1A53727  44.780   6.446   6.133
 4067POPC   D2A53728  44.851   6.670   6.561
 4067POPC   C3A53729  44.773   6.501   6.989
 4067POPC   C4A53730  44.875   6.566   7.424
 4067POPC   C1B53731  44.266   6.589   6.088
 4067POPC   C2B53732  44.365   6.491   6.507
 4067POPC   C3B53733  44.302   6.738   6.862
 4067POPC   C4B53734  44.423   6.773   7.279
 4068POPC   NC353735  13.004  39.454   5.543
 4068POPC   PO453736  12.422  38.992   5.516
 4068POPC   GL153737  12.612  39.142   5.860
 4068POPC   GL253738  12.941  38.983   5.743
 4068POPC   C1A53739  12.558  39.028   6.306
 4068POPC   D2A53740  12.844  39.249   6.603
 4068POPC   C3A53741  12.774  39.308   7.023
 4068POPC   C4A53742  12.822  38.960   7.270
 4068POPC   C1B53743  13.035  39.038   6.171
 4068POPC   C2B53744  13.132  38.815   6.552
 4068POPC   C3B53745  13.290  38.962   6.950
 4068POPC   C4B53746  13.233  39.261   7.251
 4069POPC   NC353747  38.396  24.592   5.236
 4069POPC   PO453748  38.436  24.195   5.700
 4069POPC   GL153749  38.617  24.409   5.995
 4069POPC   GL253750  38.444  24.705   5.889
 4069POPC   C1A53751  38.566  24.209   6.387
 4069POPC   D2A53752  38.658  24.050   6.787
 4069POPC   C3A53753  38.442  24.245   7.117
 4069POPC   C4A53754  38.652  24.449   7.435
 4069POPC   C1B53755  38.250  24.627   6.292
 4069POPC   C2B53756  38.413  24.615   6.682
 4069POPC   C3B53757  38.533  24.778   7.039
 4069POPC   C4B53758  38.243  24.732   7.343
 4070POPC   NC353759  40.423   3.828   5.597
 4070POPC   PO453760  39.864   3.556   5.344
 4070POPC   GL153761  40.048   3.501   5.767
 4070POPC   GL253762  40.039   3.820   5.952
 4070POPC   C1A53763  40.022   3.369   6.207
 4070POPC   D2A53764  39.959   3.618   6.582
 4070POPC   C3A53765  40.159   3.513   6.982
 4070POPC   C4A53766  39.879   3.467   7.289
 4070POPC   C1B53767  40.268   3.946   6.323
 4070POPC   C2B53768  40.338   3.938   6.776
 4070POPC   C3B53769  40.342   3.970   7.257
 4070POPC   C4B53770  40.359   4.009   7.742
 4071POPC   NC353771  20.412  10.810   5.392
 4071POPC   PO453772  20.616  11.446   5.313
 4071POPC   GL153773  20.609  11.243   5.698
 4071POPC   GL253774  20.336  11.073   5.838
 4071POPC   C1A53775  20.641  11.392   6.120
 4071POPC   D2A53776  20.612  11.156   6.486
 4071POPC   C3A53777  20.736  11.364   6.847
 4071POPC   C4A53778  20.688  11.259   7.247
 4071POPC   C1B53779  20.176  11.206   6.248
 4071POPC   C2B53780  20.138  11.090   6.704
 4071POPC   C3B53781  20.163  11.166   7.178
 4071POPC   C4B53782  19.937  11.179   7.606
 4072POPC   NC353783  19.479  26.676   5.660
 4072POPC   PO453784  20.019  26.773   5.236
 4072POPC   GL153785  20.129  26.970   5.668
 4072POPC   GL253786  19.826  27.063   5.818
 4072POPC   C1A53787  20.243  26.982   6.128
 4072POPC   D2A53788  19.995  26.858   6.517
 4072POPC   C3A53789  19.918  26.981   6.947
 4072POPC   C4A53790  20.054  26.677   7.264
 4072POPC   C1B53791  19.628  27.095   6.218
 4072POPC   C2B53792  19.489  27.032   6.622
 4072POPC   C3B53793  19.382  27.077   7.033
 4072POPC   C4B53794  19.580  26.848   7.315
 4073POPC   NC353795  37.730  38.185   5.407
 4073POPC   PO453796  37.307  38.797   5.471
 4073POPC   GL153797  37.607  38.533   5.782
 4073POPC   GL253798  37.941  38.306   5.840
 4073POPC   C1A53799  37.634  38.402   6.233
 4073POPC   D2A53800  37.674  38.651   6.614
 4073POPC   C3A53801  37.835  38.505   6.999
 4073POPC   C4A53802  37.551  38.260   7.240
 4073POPC   C1B53803  38.140  38.114   6.168
 4073POPC   C2B53804  37.999  38.181   6.572
 4073POPC   C3B53805  37.767  37.987   6.872
 4073POPC   C4B53806  38.028  38.066   7.258
 4074POPC   NC353807  34.760  13.250   5.433
 4074POPC   PO453808  34.440  12.648   5.327
 4074POPC   GL153809  34.508  12.720   5.789
 4074POPC   GL253810  34.552  13.065   5.891
 4074POPC   C1A53811  34.737  12.637   6.212
 4074POPC   D2A53812  34.875  12.734   6.649
 4074POPC   C3A53813  34.660  12.651   7.036
 4074POPC   C4A53814  34.467  12.540   7.403
 4074POPC   C1B53815  34.677  13.136   6.331
 4074POPC   C2B53816  34.490  13.063   6.746
 4074POPC   C3B53817  34.302  12.989   7.155
 4074POPC   C4B53818  34.416  12.979   7.611
 4075POPC   NC353819  28.476  31.734   5.409
 4075POPC   PO453820  28.262  31.019   5.457
 4075POPC   GL153821  28.383  31.352   5.755
 4075POPC   GL253822  28.613  31.198   6.012
 4075POPC   C1A53823  28.328  31.640   6.116
 4075POPC   D2A53824  28.509  31.570   6.526
 4075POPC   C3A53825  28.290  31.652   6.901
 4075POPC   C4A53826  28.407  31.652   7.303
 4075POPC   C1B53827  28.214  31.143   6.221
 4075POPC   C2B53828  28.158  31.220   6.633
 4075POPC   C3B53829  28.437  31.176   6.958
 4075POPC   C4B53830  28.137  31.234   7.247
 4076POPC   NC353831  19.154  44.536   5.351
 4076POPC   PO453832  19.046   0.256   5.348
 4076POPC   GL153833  19.198  44.868   5.748
 4076POPC   GL253834  18.959  44.599   5.834
 4076POPC   C1A53835  19.289  44.617   6.187
 4076POPC   D2A53836  18.990  44.507   6.546
 4076POPC   C3A53837  19.085  44.606   6.983
 4076POPC   C4A53838  19.015  44.345   7.341
 4076POPC   C1B53839  18.749  44.789   6.187
 4076POPC   C2B53840  18.509   0.009   6.524
 4076POPC   C3B53841  18.613  44.893   6.956
 4076POPC   C4B53842  18.730  44.759   7.383
 4077POPC   NC353843  23.842  30.965   5.291
 4077POPC   PO453844  23.538  30.305   5.296
 4077POPC   GL153845  23.602  30.368   5.752
 4077POPC   GL253846  23.680  30.736   5.816
 4077POPC   C1A53847  23.624  30.432   6.221
 4077POPC   D2A53848  23.607  30.688   6.586
 4077POPC   C3A53849  23.408  30.511   6.941
 4077POPC   C4A53850  23.646  30.330   7.269
 4077POPC   C1B53851  24.014  30.850   6.145
 4077POPC   C2B53852  24.118  30.830   6.592
 4077POPC   C3B53853  23.940  30.691   6.991
 4077POPC   C4B53854  23.880  30.756   7.454
 4078POPC   NC353855  33.558  18.874   5.353
 4078POPC   PO453856  33.641  19.442   5.669
 4078POPC   GL153857  33.951  19.218   5.845
 4078POPC   GL253858  33.707  18.954   5.926
 4078POPC   C1A53859  34.053  19.328   6.259
 4078POPC   D2A53860  33.798  19.245   6.628
 4078POPC   C3A53861  33.816  19.384   7.025
 4078POPC   C4A53862  34.001  19.025   7.190
 4078POPC   C1B53863  33.450  19.207   6.255
 4078POPC   C2B53864  33.317  19.068   6.686
 4078POPC   C3B53865  33.483  18.929   7.092
 4078POPC   C4B53866  33.531  19.207   7.422
 4079POPC   NC353867  13.537  23.074   4.923
 4079POPC   PO453868  13.327  22.958   5.506
 4079POPC   GL153869  13.624  22.923   5.856
 4079POPC   GL253870  13.787  23.231   5.941
 4079POPC   C1A53871  13.708  22.684   6.260
 4079POPC   D2A53872  13.672  22.806   6.695
 4079POPC   C3A53873  13.737  22.473   6.992
 4079POPC   C4A53874  13.492  22.591   7.333
 4079POPC   C1B53875  13.887  23.164   6.350
 4079POPC   C2B53876  14.107  23.079   6.712
 4079POPC   C3B53877  14.042  22.876   7.087
 4079POPC   C4B53878  13.844  22.976   7.443
 4080POPC   NC353879  33.754  17.295   5.455
 4080POPC   PO453880  33.428  17.794   5.538
 4080POPC   GL153881  33.621  17.558   5.862
 4080POPC   GL253882  33.398  17.269   5.825
 4080POPC   C1A53883  33.917  17.632   6.231
 4080POPC   D2A53884  33.813  17.571   6.685
 4080POPC   C3A53885  34.050  17.773   7.025
 4080POPC   C4A53886  34.210  17.932   7.453
 4080POPC   C1B53887  33.611  17.228   6.241
 4080POPC   C2B53888  33.889  17.053   6.553
 4080POPC   C3B53889  33.850  17.129   6.978
 4080POPC   C4B53890  33.472  17.116   7.235
 4081POPC   NC353891  38.065  16.783   5.505
 4081POPC   PO453892  37.453  16.804   5.271
 4081POPC   GL153893  37.513  16.915   5.719
 4081POPC   GL253894  37.714  16.661   5.851
 4081POPC   C1A53895  37.427  16.942   6.181
 4081POPC   D2A53896  37.652  17.114   6.565
 4081POPC   C3A53897  37.577  16.958   7.015
 4081POPC   C4A53898  37.802  16.871   7.434
 4081POPC   C1B53899  37.336  16.458   6.007
 4081POPC   C2B53900  37.274  16.424   6.466
 4081POPC   C3B53901  37.469  16.359   6.900
 4081POPC   C4B53902  37.460  16.474   7.355
 4082POPC   NC353903   5.637   8.081   5.684
 4082POPC   PO453904   6.162   8.424   5.576
 4082POPC   GL153905   6.028   8.320   5.921
 4082POPC   GL253906   6.120   8.002   5.922
 4082POPC   C1A53907   5.854   8.486   6.269
 4082POPC   D2A53908   5.628   8.382   6.602
 4082POPC   C3A53909   5.870   8.332   6.927
 4082POPC   C4A53910   6.101   8.686   7.106
 4082POPC   C1B53911   5.848   7.988   6.308
 4082POPC   C2B53912   5.646   7.873   6.706
 4082POPC   C3B53913   5.438   7.813   7.123
 4082POPC   C4B53914   5.559   7.975   7.542
 4083POPC   NC353915  38.710  29.988   5.398
 4083POPC   PO453916  38.251  29.545   5.146
 4083POPC   GL153917  38.367  29.670   5.627
 4083POPC   GL253918  38.286  30.044   5.744
 4083POPC   C1A53919  38.615  29.711   6.057
 4083POPC   D2A53920  38.542  29.566   6.500
 4083POPC   C3A53921  38.627  29.771   6.922
 4083POPC   C4A53922  38.321  29.764   7.243
 4083POPC   C1B53923  38.473  30.230   6.132
 4083POPC   C2B53924  38.485  30.103   6.564
 4083POPC   C3B53925  38.372  30.238   7.002
 4083POPC   C4B53926  38.221  30.412   7.402
 4084POPC   NC353927  44.757  22.135   5.259
 4084POPC   PO453928   0.063  22.651   5.640
 4084POPC   GL153929  44.892  22.264   5.844
 4084POPC   GL253930  44.548  22.157   5.755
 4084POPC   C1A53931  44.692  22.208   6.271
 4084POPC   D2A53932  44.518  22.441   6.648
 4084POPC   C3A53933  44.756  22.397   7.035
 4084POPC   C4A53934  44.901  22.011   7.263
 4084POPC   C1B53935  44.354  21.888   6.109
 4084POPC   C2B53936  44.256  21.992   6.527
 4084POPC   C3B53937  44.439  21.979   6.949
 4084POPC   C4B53938  44.429  22.192   7.366
 4085POPC   NC353939  34.439   8.781   5.576
 4085POPC   PO453940  35.062   8.893   5.408
 4085POPC   GL153941  34.923   9.193   5.814
 4085POPC   GL253942  34.593   9.183   5.894
 4085POPC   C1A53943  34.811   9.268   6.327
 4085POPC   D2A53944  34.827   8.959   6.638
 4085POPC   C3A53945  34.733   8.973   7.097
 4085POPC   C4A53946  34.860   8.958   7.546
 4085POPC   C1B53947  34.510   8.870   6.222
 4085POPC   C2B53948  34.328   8.843   6.606
 4085POPC   C3B53949  34.287   8.700   6.991
 4085POPC   C4B53950  34.240   9.041   7.218
 4086POPC   NC353951   4.086  21.589   5.467
 4086POPC   PO453952   3.476  21.807   5.382
 4086POPC   GL153953   3.484  21.374   5.621
 4086POPC   GL253954   3.795  21.357   5.824
 4086POPC   C1A53955   3.311  21.165   6.040
 4086POPC   D2A53956   3.201  21.199   6.512
 4086POPC   C3A53957   3.457  21.396   6.875
 4086POPC   C4A53958   3.468  21.784   7.201
 4086POPC   C1B53959   3.988  21.153   6.198
 4086POPC   C2B53960   4.012  21.097   6.670
 4086POPC   C3B53961   3.816  21.080   7.089
 4086POPC   C4B53962   3.634  21.354   7.408
 4087POPC   NC353963  38.857   7.334   5.134
 4087POPC   PO453964  39.352   7.521   5.542
 4087POPC   GL153965  39.358   7.334   5.875
 4087POPC   GL253966  39.658   7.464   5.973
 4087POPC   C1A53967  39.189   7.420   6.249
 4087POPC   D2A53968  38.905   7.456   6.565
 4087POPC   C3A53969  39.105   7.481   6.933
 4087POPC   C4A53970  39.089   7.111   7.134
 4087POPC   C1B53971  39.660   7.125   6.255
 4087POPC   C2B53972  39.409   7.161   6.625
 4087POPC   C3B53973  39.557   7.266   7.006
 4087POPC   C4B53974  39.504   7.683   7.248
 4088POPC   NC353975  31.035  32.704   5.551
 4088POPC   PO453976  30.546  32.169   5.416
 4088POPC   GL153977  30.821  32.288   5.731
 4088POPC   GL253978  30.590  32.555   5.758
 4088POPC   C1A53979  30.906  32.421   6.165
 4088POPC   D2A53980  30.714  32.234   6.534
 4088POPC   C3A53981  30.844  32.416   6.927
 4088POPC   C4A53982  30.794  32.314   7.376
 4088POPC   C1B53983  30.396  32.309   6.097
 4088POPC   C2B53984  30.201  32.307   6.510
 4088POPC   C3B53985  30.342  32.199   6.944
 4088POPC   C4B53986  30.409  31.976   7.342
 4089POPC   NC353987  31.705  29.430   5.498
 4089POPC   PO453988  31.167  28.958   5.467
 4089POPC   GL153989  31.413  29.073   5.825
 4089POPC   GL253990  31.328  29.428   5.822
 4089POPC   C1A53991  31.405  28.905   6.274
 4089POPC   D2A53992  31.202  28.726   6.673
 4089POPC   C3A53993  31.341  28.690   7.120
 4089POPC   C4A53994  31.271  28.895   7.523
 4089POPC   C1B53995  31.392  29.441   6.236
 4089POPC   C2B53996  31.621  29.277   6.562
 4089POPC   C3B53997  31.536  29.132   6.948
 4089POPC   C4B53998  31.372  29.527   7.031
 4090POPC   NC353999  37.087  12.214   5.512
 4090POPC   PO454000  36.613  11.776   5.476
 4090POPC   GL154001  36.869  11.942   5.884
 4090POPC   GL254002  37.247  11.998   5.954
 4090POPC   C1A54003  36.833  12.051   6.338
 4090POPC   D2A54004  36.785  11.739   6.719
 4090POPC   C3A54005  36.933  11.870   7.144
 4090POPC   C4A54006  37.017  12.281   7.414
 4090POPC   C1B54007  37.289  11.841   6.371
 4090POPC   C2B54008  37.183  12.067   6.734
 4090POPC   C3B54009  37.380  12.143   7.085
 4090POPC   C4B54010  37.408  11.793   7.302
 4091POPC   NC354011  18.503  22.465   5.460
 4091POPC   PO454012  17.964  22.043   5.361
 4091POPC   GL154013  18.213  22.077   5.742
 4091POPC   GL254014  18.130  22.393   5.808
 4091POPC   C1A54015  18.353  21.943   6.151
 4091POPC   D2A54016  18.205  21.980   6.571
 4091POPC   C3A54017  18.292  21.764   6.944
 4091POPC   C4A54018  18.329  21.975   7.325
 4091POPC   C1B54019  18.450  22.429   6.125
 4091POPC   C2B54020  18.629  22.306   6.524
 4091POPC   C3B54021  18.502  22.238   6.925
 4091POPC   C4B54022  18.501  22.497   7.293
 4092POPC   NC354023  14.230  35.935   5.665
 4092POPC   PO454024  14.654  36.148   5.200
 4092POPC   GL154025  14.630  36.277   5.693
 4092POPC   GL254026  14.576  36.000   6.018
 4092POPC   C1A54027  14.713  36.467   6.092
 4092POPC   D2A54028  14.543  36.595   6.513
 4092POPC   C3A54029  14.665  36.500   6.929
 4092POPC   C4A54030  14.280  36.473   7.127
 4092POPC   C1B54031  14.315  36.155   6.318
 4092POPC   C2B54032  14.396  36.105   6.733
 4092POPC   C3B54033  14.441  35.999   7.146
 4092POPC   C4B54034  14.087  35.807   7.285
 4093POPC   NC354035  25.079  22.429   5.553
 4093POPC   PO454036  25.089  21.834   5.238
 4093POPC   GL154037  25.375  22.003   5.676
 4093POPC   GL254038  25.600  22.302   5.748
 4093POPC   C1A54039  25.463  21.869   6.143
 4093POPC   D2A54040  25.684  21.735   6.531
 4093POPC   C3A54041  25.565  21.767   6.974
 4093POPC   C4A54042  25.250  21.991   7.190
 4093POPC   C1B54043  25.364  22.368   6.157
 4093POPC   C2B54044  25.248  22.197   6.580
 4093POPC   C3B54045  25.172  22.411   6.965
 4093POPC   C4B54046  25.393  22.420   7.424
 4094POPC   NC354047   8.384  13.488   5.379
 4094POPC   PO454048   7.809  13.908   5.391
 4094POPC   GL154049   8.041  13.628   5.725
 4094POPC   GL254050   8.449  13.678   5.828
 4094POPC   C1A54051   8.129  13.413   6.132
 4094POPC   D2A54052   8.359  13.471   6.541
 4094POPC   C3A54053   8.183  13.628   6.913
 4094POPC   C4A54054   8.074  13.354   7.241
 4094POPC   C1B54055   8.350  13.873   6.207
 4094POPC   C2B54056   8.496  13.953   6.608
 4094POPC   C3B54057   8.703  13.770   6.933
 4094POPC   C4B54058   8.531  13.745   7.308
 4095POPC   NC354059  26.094  42.527   5.426
 4095POPC   PO454060  25.963  41.886   5.289
 4095POPC   GL154061  25.906  42.108   5.749
 4095POPC   GL254062  25.768  42.450   5.846
 4095POPC   C1A54063  26.134  42.244   6.153
 4095POPC   D2A54064  26.249  42.533   6.507
 4095POPC   C3A54065  26.176  42.356   6.927
 4095POPC   C4A54066  26.346  42.027   7.162
 4095POPC   C1B54067  25.731  42.558   6.294
 4095POPC   C2B54068  25.814  42.697   6.740
 4095POPC   C3B54069  25.713  42.561   7.138
 4095POPC   C4B54070  25.890  42.238   7.350
 4096POPC   NC354071   5.895  34.308   5.243
 4096POPC   PO454072   5.598  34.862   5.174
 4096POPC   GL154073   5.779  34.686   5.604
 4096POPC   GL254074   5.724  34.315   5.710
 4096POPC   C1A54075   5.914  34.660   6.071
 4096POPC   D2A54076   5.890  34.855   6.505
 4096POPC   C3A54077   6.065  34.660   6.891
 4096POPC   C4A54078   6.069  34.750   7.349
 4096POPC   C1B54079   5.665  34.207   6.124
 4096POPC   C2B54080   5.854  34.319   6.503
 4096POPC   C3B54081   5.651  34.335   6.901
 4096POPC   C4B54082   5.868  34.289   7.264
 4097POPC   NC354083  36.536   6.835   5.601
 4097POPC   PO454084  37.091   6.367   5.422
 4097POPC   GL154085  36.927   6.547   5.779
 4097POPC   GL254086  37.252   6.562   5.905
 4097POPC   C1A54087  36.909   6.739   6.220
 4097POPC   D2A54088  37.054   6.857   6.656
 4097POPC   C3A54089  36.781   6.655   6.955
 4097POPC   C4A54090  36.528   6.695   7.366
 4097POPC   C1B54091  37.439   6.425   6.301
 4097POPC   C2B54092  37.458   6.575   6.738
 4097POPC   C3B54093  37.227   6.601   7.161
 4097POPC   C4B54094  37.185   6.217   7.436
 4098POPC   NC354095  26.079   0.024   5.415
 4098POPC   PO454096  26.094  44.341   5.433
 4098POPC   GL154097  25.841  44.562   5.739
 4098POPC   GL254098  25.879  44.918   5.872
 4098POPC   C1A54099  25.870  44.482   6.185
 4098POPC   D2A54100  25.907  44.694   6.573
 4098POPC   C3A54101  25.947  44.504   6.989
 4098POPC   C4A54102  25.891  44.787   7.338
 4098POPC   C1B54103  26.307  44.765   6.046
 4098POPC   C2B54104  26.509  44.772   6.472
 4098POPC   C3B54105  26.307  44.891   6.844
 4098POPC   C4B54106  26.390  44.885   7.263
 4099POPC   NC354107  21.789  41.605   5.617
 4099POPC   PO454108  22.406  41.786   5.354
 4099POPC   GL154109  22.307  41.654   5.760
 4099POPC   GL254110  22.411  41.319   5.866
 4099POPC   C1A54111  22.181  41.754   6.179
 4099POPC   D2A54112  22.387  41.764   6.578
 4099POPC   C3A54113  22.087  41.759   6.891
 4099POPC   C4A54114  22.123  41.618   7.287
 4099POPC   C1B54115  22.584  41.424   6.229
 4099POPC   C2B54116  22.570  41.198   6.595
 4099POPC   C3B54117  22.468  41.365   6.977
 4099POPC   C4B54118  22.482  41.230   7.405
 4100POPC   NC354119  10.977  13.261   5.422
 4100POPC   PO454120  11.444  13.703   5.307
 4100POPC   GL154121  11.268  13.576   5.739
 4100POPC   GL254122  11.018  13.842   5.878
 4100POPC   C1A54123  11.373  13.634   6.200
 4100POPC   D2A54124  11.161  13.789   6.575
 4100POPC   C3A54125  11.228  13.637   7.016
 4100POPC   C4A54126  11.565  13.543   7.291
 4100POPC   C1B54127  10.769  13.967   6.268
 4100POPC   C2B54128  10.728  13.992   6.750
 4100POPC   C3B54129  10.831  13.924   7.155
 4100POPC   C4B54130  11.018  13.764   7.526
 4101POPC   NC354131   7.461  31.168   5.462
 4101POPC   PO454132   7.054  31.634   5.583
 4101POPC   GL154133   7.507  31.627   5.767
 4101POPC   GL254134   7.671  31.297   5.910
 4101POPC   C1A54135   7.549  31.705   6.204
 4101POPC   D2A54136   7.378  31.500   6.553
 4101POPC   C3A54137   7.470  31.549   6.964
 4101POPC   C4A54138   7.185  31.847   7.103
 4101POPC   C1B54139   7.290  31.146   6.164
 4101POPC   C2B54140   7.055  31.114   6.576
 4101POPC   C3B54141   7.130  31.127   7.031
 4101POPC   C4B54142   7.179  30.948   7.451
 4102POPC   NC354143  36.329  16.951   5.330
 4102POPC   PO454144  35.698  16.678   5.339
 4102POPC   GL154145  36.054  16.783   5.721
 4102POPC   GL254146  36.210  17.128   5.781
 4102POPC   C1A54147  36.163  16.687   6.161
 4102POPC   D2A54148  35.970  16.403   6.487
 4102POPC   C3A54149  36.145  16.325   6.891
 4102POPC   C4A54150  36.271  16.511   7.236
 4102POPC   C1B54151  35.949  17.154   6.123
 4102POPC   C2B54152  35.872  17.085   6.555
 4102POPC   C3B54153  36.067  16.885   6.918
 4102POPC   C4B54154  36.286  17.020   7.296
 4103POPC   NC354155  35.032  21.371   5.382
 4103POPC   PO454156  35.614  21.794   5.298
 4103POPC   GL154157  35.511  21.765   5.785
 4103POPC   GL254158  35.198  21.557   5.849
 4103POPC   C1A54159  35.504  21.612   6.255
 4103POPC   D2A54160  35.627  21.407   6.653
 4103POPC   C3A54161  35.490  21.686   6.969
 4103POPC   C4A54162  35.341  21.672   7.359
 4103POPC   C1B54163  35.227  21.194   6.170
 4103POPC   C2B54164  35.103  21.204   6.634
 4103POPC   C3B54165  35.182  21.244   7.093
 4103POPC   C4B54166  35.064  21.253   7.549
 4104POPC   NC354167  26.339   9.020   5.324
 4104POPC   PO454168  25.736   8.722   5.427
 4104POPC   GL154169  26.030   8.896   5.777
 4104POPC   GL254170  26.225   9.218   5.784
 4104POPC   C1A54171  26.219   8.970   6.221
 4104POPC   D2A54172  26.407   8.954   6.630
 4104POPC   C3A54173  26.091   9.032   6.913
 4104POPC   C4A54174  26.105   9.098   7.354
 4104POPC   C1B54175  25.839   9.295   6.060
 4104POPC   C2B54176  25.676   9.325   6.460
 4104POPC   C3B54177  25.628   9.307   6.910
 4104POPC   C4B54178  25.639   9.269   7.329
 4105POPC   NC354179  21.904  17.760   5.291
 4105POPC   PO454180  22.251  17.310   5.405
 4105POPC   GL154181  22.460  17.437   5.761
 4105POPC   GL254182  22.266  17.740   5.795
 4105POPC   C1A54183  22.485  17.390   6.196
 4105POPC   D2A54184  22.294  17.568   6.526
 4105POPC   C3A54185  22.334  17.444   6.900
 4105POPC   C4A54186  22.562  17.694   7.131
 4105POPC   C1B54187  21.981  17.696   6.156
 4105POPC   C2B54188  21.900  17.917   6.571
 4105POPC   C3B54189  21.816  17.895   7.026
 4105POPC   C4B54190  21.902  17.536   7.295
 4106POPC   NC354191  37.989  35.587   5.578
 4106POPC   PO454192  37.375  35.254   5.375
 4106POPC   GL154193  37.509  35.329   5.785
 4106POPC   GL254194  37.480  35.671   5.719
 4106POPC   C1A54195  37.601  35.209   6.222
 4106POPC   D2A54196  37.988  35.208   6.452
 4106POPC   C3A54197  38.037  35.534   6.751
 4106POPC   C4A54198  37.896  35.627   7.159
 4106POPC   C1B54199  37.694  35.724   6.135
 4106POPC   C2B54200  37.570  35.613   6.542
 4106POPC   C3B54201  37.418  35.564   6.938
 4106POPC   C4B54202  37.491  35.304   7.278
 4107POPC   NC354203  10.058  12.836   5.639
 4107POPC   PO454204   9.435  12.712   5.560
 4107POPC   GL154205   9.621  12.745   5.915
 4107POPC   GL254206   9.754  12.427   5.856
 4107POPC   C1A54207   9.780  12.656   6.327
 4107POPC   D2A54208   9.763  12.961   6.646
 4107POPC   C3A54209   9.937  12.833   7.016
 4107POPC   C4A54210   9.704  13.014   7.322
 4107POPC   C1B54211   9.373  12.328   6.121
 4107POPC   C2B54212   9.437  12.317   6.549
 4107POPC   C3B54213   9.438  12.590   6.895
 4107POPC   C4B54214   9.592  12.531   7.308
 4108POPC   NC354215  41.754   0.367   5.396
 4108POPC   PO454216  41.117   0.332   5.391
 4108POPC   GL154217  41.375   0.571   5.722
 4108POPC   GL254218  41.662   0.813   5.646
 4108POPC   C1A54219  41.450   0.403   6.160
 4108POPC   D2A54220  41.605   0.168   6.537
 4108POPC   C3A54221  41.491   0.403   6.915
 4108POPC   C4A54222  41.469   0.385   7.351
 4108POPC   C1B54223  41.785   0.775   6.075
 4108POPC   C2B54224  41.757   0.658   6.517
 4108POPC   C3B54225  41.931   0.658   6.944
 4108POPC   C4B54226  41.847   0.731   7.376
 4109POPC   NC354227  40.790  37.079   5.498
 4109POPC   PO454228  41.153  36.691   5.145
 4109POPC   GL154229  41.076  36.675   5.705
 4109POPC   GL254230  40.725  36.769   5.896
 4109POPC   C1A54231  41.088  36.826   6.203
 4109POPC   D2A54232  40.666  36.827   6.489
 4109POPC   C3A54233  40.691  36.662   6.922
 4109POPC   C4A54234  41.046  36.806   7.153
 4109POPC   C1B54235  40.717  37.193   6.131
 4109POPC   C2B54236  40.714  37.346   6.558
 4109POPC   C3B54237  40.646  37.195   7.013
 4109POPC   C4B54238  40.599  37.321   7.471
 4110POPC   NC354239  23.959  30.150   5.400
 4110POPC   PO454240  23.640  29.579   5.264
 4110POPC   GL154241  23.502  29.862   5.615
 4110POPC   GL254242  23.823  29.812   5.762
 4110POPC   C1A54243  23.422  29.966   6.085
 4110POPC   D2A54244  23.247  29.874   6.532
 4110POPC   C3A54245  23.491  29.948   6.927
 4110POPC   C4A54246  23.748  29.621   7.104
 4110POPC   C1B54247  23.960  30.061   6.107
 4110POPC   C2B54248  23.845  30.005   6.549
 4110POPC   C3B54249  24.015  30.065   6.985
 4110POPC   C4B54250  24.175  30.363   7.311
 4111POPC   NC354251  10.448  17.908   5.318
 4111POPC   PO454252  10.792  17.285   5.415
 4111POPC   GL154253  10.575  17.503   5.703
 4111POPC   GL254254  10.227  17.468   5.670
 4111POPC   C1A54255  10.632  17.372   6.128
 4111POPC   D2A54256  10.521  17.574   6.516
 4111POPC   C3A54257  10.619  17.408   6.910
 4111POPC   C4A54258  10.608  17.760   7.141
 4111POPC   C1B54259  10.136  17.404   6.131
 4111POPC   C2B54260  10.223  17.173   6.499
 4111POPC   C3B54261  10.280  17.036   6.922
 4111POPC   C4B54262  10.288  17.313   7.306
 4112POPC   NC354263  10.708  12.180   5.256
 4112POPC   PO454264  10.098  12.358   5.490
 4112POPC   GL154265  10.403  12.129   5.717
 4112POPC   GL254266  10.698  12.219   5.794
 4112POPC   C1A54267  10.360  12.077   6.157
 4112POPC   D2A54268  10.253  12.339   6.517
 4112POPC   C3A54269  10.360  12.120   6.887
 4112POPC   C4A54270  10.458  11.940   7.291
 4112POPC   C1B54271  10.879  12.222   6.212
 4112POPC   C2B54272  10.786  12.371   6.630
 4112POPC   C3B54273  10.855  12.128   6.999
 4112POPC   C4B54274  11.177  12.116   7.293
 4113POPC   NC354275   7.571  43.370   5.409
 4113POPC   PO454276   7.255  42.855   5.499
 4113POPC   GL154277   7.354  43.188   5.838
 4113POPC   GL254278   7.170  43.502   5.795
 4113POPC   C1A54279   7.521  43.160   6.280
 4113POPC   D2A54280   7.514  42.806   6.564
 4113POPC   C3A54281   7.534  42.900   6.985
 4113POPC   C4A54282   7.673  43.230   7.249
 4113POPC   C1B54283   7.029  43.333   6.208
 4113POPC   C2B54284   7.107  43.124   6.620
 4113POPC   C3B54285   7.237  43.329   6.998
 4113POPC   C4B54286   7.089  43.514   7.376
 4114POPC   NC354287  42.817  18.696   5.361
 4114POPC   PO454288  42.220  19.116   5.397
 4114POPC   GL154289  42.228  18.974   5.804
 4114POPC   GL254290  42.511  18.745   5.781
 4114POPC   C1A54291  42.151  19.158   6.210
 4114POPC   D2A54292  42.245  19.331   6.602
 4114POPC   C3A54293  42.161  19.096   6.960
 4114POPC   C4A54294  41.961  19.279   7.254
 4114POPC   C1B54295  42.683  18.965   6.137
 4114POPC   C2B54296  42.664  19.032   6.587
 4114POPC   C3B54297  42.673  19.138   7.026
 4114POPC   C4B54298  42.579  18.859   7.370
 4115POPC   NC354299  30.195  41.350   5.269
 4115POPC   PO454300  29.703  41.763   5.353
 4115POPC   GL154301  29.798  41.581   5.746
 4115POPC   GL254302  30.048  41.329   5.750
 4115POPC   C1A54303  29.770  41.711   6.147
 4115POPC   D2A54304  29.954  41.647   6.543
 4115POPC   C3A54305  29.741  41.413   6.844
 4115POPC   C4A54306  29.829  41.423   7.255
 4115POPC   C1B54307  30.147  41.365   6.157
 4115POPC   C2B54308  30.106  41.150   6.539
 4115POPC   C3B54309  30.224  41.324   6.925
 4115POPC   C4B54310  30.355  41.215   7.306
 4116POPC   NC354311  27.833  28.788   5.501
 4116POPC   PO454312  27.411  29.345   5.512
 4116POPC   GL154313  27.364  29.227   5.887
 4116POPC   GL254314  27.606  29.006   5.920
 4116POPC   C1A54315  27.413  29.427   6.231
 4116POPC   D2A54316  27.708  29.334   6.485
 4116POPC   C3A54317  27.448  29.251   6.782
 4116POPC   C4A54318  27.183  29.483   7.098
 4116POPC   C1B54319  27.473  28.916   6.324
 4116POPC   C2B54320  27.767  28.849   6.689
 4116POPC   C3B54321  27.736  28.844   7.106
 4116POPC   C4B54322  27.424  29.058   7.227
 4117POPC   NC354323   3.148  39.167   5.313
 4117POPC   PO454324   2.568  39.442   5.167
 4117POPC   GL154325   2.695  39.186   5.639
 4117POPC   GL254326   2.910  38.890   5.680
 4117POPC   C1A54327   2.706  39.372   6.073
 4117POPC   D2A54328   2.660  39.613   6.448
 4117POPC   C3A54329   2.845  39.523   6.875
 4117POPC   C4A54330   2.701  39.337   7.256
 4117POPC   C1B54331   2.665  38.855   6.053
 4117POPC   C2B54332   2.738  39.030   6.462
 4117POPC   C3B54333   2.746  38.951   6.884
 4117POPC   C4B54334   2.547  38.828   7.250
 4118POPC   NC354335  25.012  17.469   5.390
 4118POPC   PO454336  25.690  17.625   5.322
 4118POPC   GL154337  25.381  17.704   5.705
 4118POPC   GL254338  25.027  17.678   5.855
 4118POPC   C1A54339  25.405  17.705   6.186
 4118POPC   D2A54340  25.091  17.592   6.492
 4118POPC   C3A54341  25.263  17.680   6.859
 4118POPC   C4A54342  25.430  17.635   7.231
 4118POPC   C1B54343  25.167  17.258   6.074
 4118POPC   C2B54344  25.323  17.138   6.483
 4118POPC   C3B54345  25.277  17.184   6.941
 4118POPC   C4B54346  25.400  17.154   7.355
 4119POPC   NC354347  20.442  19.277   5.362
 4119POPC   PO454348  20.926  18.841   5.403
 4119POPC   GL154349  20.675  18.972   5.766
 4119POPC   GL254350  20.805  19.310   5.713
 4119POPC   C1A54351  20.575  18.898   6.233
 4119POPC   D2A54352  20.852  18.845   6.657
 4119POPC   C3A54353  20.723  18.905   7.077
 4119POPC   C4A54354  20.285  18.894   7.114
 4119POPC   C1B54355  20.858  19.334   6.144
 4119POPC   C2B54356  20.636  19.294   6.555
 4119POPC   C3B54357  20.511  19.355   6.951
 4119POPC   C4B54358  20.771  19.357   7.321
 4120POPC   NC354359  41.204  42.516   5.518
 4120POPC   PO454360  41.719  42.049   5.486
 4120POPC   GL154361  41.567  42.338   5.864
 4120POPC   GL254362  41.188  42.341   5.995
 4120POPC   C1A54363  41.752  42.441   6.287
 4120POPC   D2A54364  41.909  42.372   6.739
 4120POPC   C3A54365  41.682  42.206   7.132
 4120POPC   C4A54366  41.696  42.178   7.602
 4120POPC   C1B54367  41.364  42.103   6.327
 4120POPC   C2B54368  41.513  41.929   6.712
 4120POPC   C3B54369  41.323  41.841   7.108
 4120POPC   C4B54370  41.245  41.954   7.515
 4121POPC   NC354371  22.613  41.348   5.409
 4121POPC   PO454372  22.832  40.672   5.415
 4121POPC   GL154373  22.753  40.943   5.719
 4121POPC   GL254374  23.013  40.779   5.874
 4121POPC   C1A54375  22.636  40.919   6.147
 4121POPC   D2A54376  22.913  40.761   6.441
 4121POPC   C3A54377  22.801  40.804   6.858
 4121POPC   C4A54378  22.980  40.776   7.274
 4121POPC   C1B54379  23.100  40.390   6.094
 4121POPC   C2B54380  23.210  40.207   6.480
 4121POPC   C3B54381  23.128  40.407   6.866
 4121POPC   C4B54382  23.388  40.499   7.250
 4122POPC   NC354383  15.342  10.990   5.558
 4122POPC   PO454384  14.894  11.502   5.425
 4122POPC   GL154385  15.029  11.327   5.800
 4122POPC   GL254386  15.389  11.411   5.864
 4122POPC   C1A54387  15.054  11.204   6.232
 4122POPC   D2A54388  15.231  11.376   6.613
 4122POPC   C3A54389  15.112  11.218   6.989
 4122POPC   C4A54390  14.908  11.451   7.280
 4122POPC   C1B54391  15.516  11.608   6.251
 4122POPC   C2B54392  15.567  11.786   6.682
 4122POPC   C3B54393  15.326  11.672   7.055
 4122POPC   C4B54394  15.411  11.361   7.389
 4123POPC   NC354395  28.830  44.415   5.212
 4123POPC   PO454396  28.371  43.986   5.519
 4123POPC   GL154397  28.322  43.899   5.910
 4123POPC   GL254398  28.048  44.148   5.895
 4123POPC   C1A54399  28.448  43.759   6.331
 4123POPC   D2A54400  28.465  43.993   6.729
 4123POPC   C3A54401  28.614  43.797   7.118
 4123POPC   C4A54402  28.467  43.777   7.553
 4123POPC   C1B54403  28.109  44.146   6.307
 4123POPC   C2B54404  28.174  44.415   6.610
 4123POPC   C3B54405  28.117  44.302   7.025
 4123POPC   C4B54406  28.393  44.225   7.341
 4124POPC   NC354407  15.294  40.449   5.180
 4124POPC   PO454408  14.958  40.913   5.503
 4124POPC   GL154409  15.163  40.677   5.806
 4124POPC   GL254410  15.401  40.410   5.718
 4124POPC   C1A54411  15.201  40.860   6.232
 4124POPC   D2A54412  14.971  40.983   6.599
 4124POPC   C3A54413  15.135  40.882   7.012
 4124POPC   C4A54414  15.378  40.903   7.410
 4124POPC   C1B54415  15.339  40.377   6.196
 4124POPC   C2B54416  15.379  40.588   6.626
 4124POPC   C3B54417  15.529  40.531   7.042
 4124POPC   C4B54418  15.162  40.415   7.248
 4125POPC   NC354419  21.413   1.782   5.288
 4125POPC   PO454420  21.784   2.366   5.369
 4125POPC   GL154421  21.466   2.139   5.664
 4125POPC   GL254422  21.402   1.771   5.789
 4125POPC   C1A54423  21.561   2.106   6.127
 4125POPC   D2A54424  21.486   1.830   6.485
 4125POPC   C3A54425  21.412   1.946   6.922
 4125POPC   C4A54426  21.664   2.133   7.240
 4125POPC   C1B54427  21.110   1.850   6.146
 4125POPC   C2B54428  20.954   1.862   6.581
 4125POPC   C3B54429  20.944   1.690   7.017
 4125POPC   C4B54430  21.140   1.911   7.384
 4126POPC   NC354431   0.851   8.782   5.270
 4126POPC   PO454432   0.221   9.024   5.353
 4126POPC   GL154433   0.460   9.228   5.707
 4126POPC   GL254434   0.171   9.234   5.884
 4126POPC   C1A54435   0.652   9.073   6.128
 4126POPC   D2A54436   0.806   8.830   6.511
 4126POPC   C3A54437   0.594   8.692   6.921
 4126POPC   C4A54438   0.660   8.907   7.313
 4126POPC   C1B54439   0.354   9.489   6.169
 4126POPC   C2B54440   0.600   9.397   6.520
 4126POPC   C3B54441   0.602   9.210   6.901
 4126POPC   C4B54442   0.221   9.110   7.161
 4127POPC   NC354443  40.946  27.688   5.236
 4127POPC   PO454444  40.468  27.380   5.558
 4127POPC   GL154445  40.619  27.659   5.857
 4127POPC   GL254446  40.937  27.723   5.772
 4127POPC   C1A54447  40.687  27.697   6.282
 4127POPC   D2A54448  40.871  27.818   6.664
 4127POPC   C3A54449  40.576  27.671   6.962
 4127POPC   C4A54450  40.641  27.383   7.261
 4127POPC   C1B54451  41.012  27.354   6.083
 4127POPC   C2B54452  41.164  27.337   6.544
 4127POPC   C3B54453  41.101  27.456   7.003
 4127POPC   C4B54454  41.084  27.266   7.446
 4128POPC   NC354455   6.536  41.921   5.521
 4128POPC   PO454456   6.488  42.537   5.378
 4128POPC   GL154457   6.575  42.627   5.802
 4128POPC   GL254458   6.656  42.287   5.868
 4128POPC   C1A54459   6.479  42.562   6.245
 4128POPC   D2A54460   6.331  42.622   6.611
 4128POPC   C3A54461   6.447  42.516   7.046
 4128POPC   C4A54462   6.461  42.160   7.278
 4128POPC   C1B54463   6.642  42.093   6.283
 4128POPC   C2B54464   6.659  42.186   6.719
 4128POPC   C3B54465   6.924  42.281   7.077
 4128POPC   C4B54466   7.266  42.367   7.374
 4129POPC   NC354467  14.386  38.777   5.391
 4129POPC   PO454468  14.451  39.424   5.242
 4129POPC   GL154469  14.298  39.308   5.664
 4129POPC   GL254470  14.591  39.360   5.828
 4129POPC   C1A54471  14.162  39.425   6.123
 4129POPC   D2A54472  13.983  39.437   6.569
 4129POPC   C3A54473  14.208  39.362   6.956
 4129POPC   C4A54474  14.230  39.007   7.247
 4129POPC   C1B54475  14.607  39.166   6.227
 4129POPC   C2B54476  14.644  39.283   6.647
 4129POPC   C3B54477  14.691  39.523   7.016
 4129POPC   C4B54478  14.603  39.356   7.371
 4130POPC   NC354479  32.985  26.519   5.393
 4130POPC   PO454480  33.189  27.109   5.371
 4130POPC   GL154481  32.921  26.928   5.732
 4130POPC   GL254482  33.070  26.609   5.880
 4130POPC   C1A54483  32.672  26.827   6.136
 4130POPC   D2A54484  32.758  26.648   6.541
 4130POPC   C3A54485  32.808  26.933   6.863
 4130POPC   C4A54486  33.029  26.899   7.241
 4130POPC   C1B54487  33.189  26.788   6.274
 4130POPC   C2B54488  33.301  26.565   6.658
 4130POPC   C3B54489  33.202  26.451   7.090
 4130POPC   C4B54490  33.356  26.572   7.514
 4131POPC   NC354491  27.837  31.236   5.351
 4131POPC   PO454492  27.312  31.726   5.230
 4131POPC   GL154493  27.629  31.659   5.613
 4131POPC   GL254494  27.435  31.817   5.880
 4131POPC   C1A54495  27.815  31.429   6.022
 4131POPC   D2A54496  27.670  31.291   6.467
 4131POPC   C3A54497  27.738  31.395   6.911
 4131POPC   C4A54498  27.477  31.421   7.288
 4131POPC   C1B54499  27.805  31.919   6.138
 4131POPC   C2B54500  27.970  31.733   6.504
 4131POPC   C3B54501  27.857  31.894   6.915
 4131POPC   C4B54502  27.879  31.740   7.295
 4132POPC   NC354503   3.519  12.846   5.301
 4132POPC   PO454504   3.044  13.175   5.650
 4132POPC   GL154505   3.338  12.976   5.942
 4132POPC   GL254506   3.505  12.704   5.780
 4132POPC   C1A54507   3.443  12.852   6.375
 4132POPC   D2A54508   3.822  12.918   6.670
 4132POPC   C3A54509   3.738  12.957   7.116
 4132POPC   C4A54510   3.341  12.954   7.378
 4132POPC   C1B54511   3.777  12.569   6.103
 4132POPC   C2B54512   3.706  12.444   6.524
 4132POPC   C3B54513   3.484  12.561   6.894
 4132POPC   C4B54514   3.459  12.273   7.214
 4133POPC   NC354515  34.529  39.269   5.463
 4133POPC   PO454516  34.051  38.860   5.256
 4133POPC   GL154517  34.392  38.829   5.653
 4133POPC   GL254518  34.390  39.113   5.898
 4133POPC   C1A54519  34.525  38.713   6.132
 4133POPC   D2A54520  34.451  39.012   6.492
 4133POPC   C3A54521  34.539  38.927   6.940
 4133POPC   C4A54522  34.544  39.094   7.379
 4133POPC   C1B54523  34.551  39.429   6.172
 4133POPC   C2B54524  34.736  39.429   6.568
 4133POPC   C3B54525  34.593  39.459   6.963
 4133POPC   C4B54526  34.546  39.597   7.373
 4134POPC   NC354527  11.397  26.818   5.403
 4134POPC   PO454528  10.897  26.345   5.649
 4134POPC   GL154529  11.285  26.592   5.846
 4134POPC   GL254530  11.288  26.976   5.890
 4134POPC   C1A54531  11.543  26.537   6.196
 4134POPC   D2A54532  11.491  26.486   6.644
 4134POPC   C3A54533  11.324  26.838   6.872
 4134POPC   C4A54534  11.458  26.873   7.278
 4134POPC   C1B54535  11.309  27.213   6.268
 4134POPC   C2B54536  11.330  27.377   6.681
 4134POPC   C3B54537  11.182  27.298   7.097
 4134POPC   C4B54538  10.962  26.979   7.309
 4135POPC   NC354539   7.477  44.382   5.472
 4135POPC   PO454540   7.328  43.760   5.371
 4135POPC   GL154541   7.618  43.765   5.723
 4135POPC   GL254542   7.707  44.080   5.799
 4135POPC   C1A54543   7.562  43.648   6.144
 4135POPC   D2A54544   7.333  43.591   6.535
 4135POPC   C3A54545   7.416  43.821   6.901
 4135POPC   C4A54546   7.150  43.994   7.163
 4135POPC   C1B54547   7.789  44.103   6.206
 4135POPC   C2B54548   7.609  44.187   6.567
 4135POPC   C3B54549   7.795  44.352   6.913
 4135POPC   C4B54550   7.694  44.112   7.253
 4136POPC   NC354551  16.740  18.696   5.105
 4136POPC   PO454552  16.823  19.296   5.411
 4136POPC   GL154553  16.818  19.116   5.805
 4136POPC   GL254554  16.758  18.800   5.699
 4136POPC   C1A54555  16.999  18.937   6.177
 4136POPC   D2A54556  16.985  19.029   6.611
 4136POPC   C3A54557  16.648  19.019   6.909
 4136POPC   C4A54558  16.885  19.013   7.272
 4136POPC   C1B54559  16.497  18.797   6.051
 4136POPC   C2B54560  16.539  18.733   6.474
 4136POPC   C3B54561  16.396  18.554   6.822
 4136POPC   C4B54562  16.501  18.556   7.210
 4137POPC   NC354563  17.247  10.570   5.591
 4137POPC   PO454564  16.725  10.281   5.249
 4137POPC   GL154565  16.737  10.573   5.658
 4137POPC   GL254566  16.530  10.365   5.820
 4137POPC   C1A54567  16.817  10.677   6.124
 4137POPC   D2A54568  16.685  10.632   6.574
 4137POPC   C3A54569  16.896  10.649   7.000
 4137POPC   C4A54570  16.935  10.597   7.446
 4137POPC   C1B54571  16.637  10.217   6.224
 4137POPC   C2B54572  16.842  10.107   6.579
 4137POPC   C3B54573  16.684  10.190   6.943
 4137POPC   C4B54574  16.825  10.108   7.303
 4138POPC   NC354575  20.992  41.581   5.181
 4138POPC   PO454576  20.546  41.838   5.570
 4138POPC   GL154577  20.738  41.563   5.860
 4138POPC   GL254578  20.692  41.889   6.054
 4138POPC   C1A54579  20.778  41.470   6.311
 4138POPC   D2A54580  20.797  41.856   6.585
 4138POPC   C3A54581  20.945  41.755   6.976
 4138POPC   C4A54582  20.738  41.430   7.208
 4138POPC   C1B54583  20.245  42.044   6.104
 4138POPC   C2B54584  20.182  42.190   6.517
 4138POPC   C3B54585  20.337  42.015   6.905
 4138POPC   C4B54586  20.602  41.946   7.291
 4139POPC   NC354587   3.852  11.762   5.237
 4139POPC   PO454588   3.729  12.420   5.317
 4139POPC   GL154589   3.640  12.205   5.736
 4139POPC   GL254590   3.452  11.916   5.790
 4139POPC   C1A54591   3.708  12.057   6.189
 4139POPC   D2A54592   3.523  11.965   6.588
 4139POPC   C3A54593   3.704  11.870   6.981
 4139POPC   C4A54594   3.551  11.820   7.399
 4139POPC   C1B54595   3.176  11.900   6.170
 4139POPC   C2B54596   3.144  11.642   6.538
 4139POPC   C3B54597   3.163  11.840   6.970
 4139POPC   C4B54598   3.064  11.634   7.349
 4140POPC   NC354599  17.299  21.495   5.469
 4140POPC   PO454600  17.949  21.282   5.468
 4140POPC   GL154601  17.672  21.295   5.835
 4140POPC   GL254602  17.520  21.627   5.901
 4140POPC   C1A54603  17.732  21.184   6.266
 4140POPC   D2A54604  17.652  20.979   6.635
 4140POPC   C3A54605  17.655  21.173   7.054
 4140POPC   C4A54606  17.330  21.215   7.399
 4140POPC   C1B54607  17.313  21.506   6.262
 4140POPC   C2B54608  17.429  21.421   6.651
 4140POPC   C3B54609  17.296  21.542   7.021
 4140POPC   C4B54610  17.449  21.725   7.405
 4141POPC   NC354611  10.268  23.086   5.536
 4141POPC   PO454612  10.679  22.678   5.373
 4141POPC   GL154613  10.659  22.815   5.780
 4141POPC   GL254614  10.982  22.660   5.851
 4141POPC   C1A54615  10.395  22.741   6.151
 4141POPC   D2A54616  10.384  22.518   6.558
 4141POPC   C3A54617  10.524  22.802   6.889
 4141POPC   C4A54618  10.340  22.931   7.308
 4141POPC   C1B54619  10.978  23.038   6.138
 4141POPC   C2B54620  10.722  23.120   6.503
 4141POPC   C3B54621  10.961  23.033   6.882
 4141POPC   C4B54622  10.839  22.863   7.302
 4142POPC   NC354623  39.663  30.873   5.498
 4142POPC   PO454624  40.250  30.551   5.208
 4142POPC   GL154625  40.093  30.583   5.696
 4142POPC   GL254626  39.856  30.766   5.947
 4142POPC   C1A54627  40.294  30.688   6.146
 4142POPC   D2A54628  40.421  30.923   6.547
 4142POPC   C3A54629  40.228  30.804   6.951
 4142POPC   C4A54630  39.984  30.636   7.311
 4142POPC   C1B54631  39.907  31.076   6.295
 4142POPC   C2B54632  39.657  31.160   6.658
 4142POPC   C3B54633  39.764  31.033   7.041
 4142POPC   C4B54634  40.071  31.129   7.348
 4143POPC   NC354635  37.644   9.712   5.247
 4143POPC   PO454636  37.992   9.295   5.631
 4143POPC   GL154637  37.657   9.543   5.740
 4143POPC   GL254638  37.793   9.890   5.720
 4143POPC   C1A54639  37.478   9.524   6.145
 4143POPC   D2A54640  37.352   9.761   6.493
 4143POPC   C3A54641  37.513   9.633   6.859
 4143POPC   C4A54642  37.457   9.677   7.247
 4143POPC   C1B54643  37.695   9.983   6.165
 4143POPC   C2B54644  37.866   9.900   6.591
 4143POPC   C3B54645  37.794  10.034   7.030
 4143POPC   C4B54646  37.664  10.100   7.443
 4144POPC   NC354647  16.001  18.421   5.495
 4144POPC   PO454648  16.301  17.950   5.434
 4144POPC   GL154649  16.045  18.021   5.811
 4144POPC   GL254650  15.692  18.016   5.716
 4144POPC   C1A54651  15.844  18.289   6.144
 4144POPC   D2A54652  15.953  18.367   6.566
 4144POPC   C3A54653  15.750  18.474   6.938
 4144POPC   C4A54654  16.031  18.331   7.233
 4144POPC   C1B54655  15.644  17.819   6.133
 4144POPC   C2B54656  15.649  17.708   6.598
 4144POPC   C3B54657  15.802  17.939   6.963
 4144POPC   C4B54658  15.673  17.960   7.381
 4145POPC   NC354659  44.741  15.572   5.401
 4145POPC   PO454660  44.855  14.917   5.427
 4145POPC   GL154661  44.746  15.184   5.766
 4145POPC   GL254662  44.462  14.972   5.865
 4145POPC   C1A54663  44.651  15.338   6.203
 4145POPC   D2A54664  44.548  15.190   6.642
 4145POPC   C3A54665  44.766  15.302   7.042
 4145POPC   C4A54666  44.522  15.423   7.414
 4145POPC   C1B54667  44.300  14.856   6.283
 4145POPC   C2B54668  44.316  14.743   6.742
 4145POPC   C3B54669  44.334  15.004   7.138
 4145POPC   C4B54670  44.296  15.001   7.623
 4146POPC   NC354671  38.535  22.686   5.398
 4146POPC   PO454672  38.719  23.272   5.361
 4146POPC   GL154673  38.398  23.150   5.689
 4146POPC   GL254674  38.376  22.798   5.857
 4146POPC   C1A54675  38.196  23.216   6.105
 4146POPC   D2A54676  38.307  23.305   6.557
 4146POPC   C3A54677  38.415  22.988   6.894
 4146POPC   C4A54678  38.608  23.080   7.324
 4146POPC   C1B54679  38.712  22.583   6.127
 4146POPC   C2B54680  38.621  22.416   6.522
 4146POPC   C3B54681  38.738  22.572   6.890
 4146POPC   C4B54682  38.544  22.595   7.227
 4147POPC   NC354683  27.126  30.545   5.482
 4147POPC   PO454684  26.617  31.059   5.500
 4147POPC   GL154685  26.727  30.787   5.809
 4147POPC   GL254686  26.407  30.774   5.986
 4147POPC   C1A54687  26.869  30.909   6.212
 4147POPC   D2A54688  26.565  30.914   6.552
 4147POPC   C3A54689  26.706  30.850   6.964
 4147POPC   C4A54690  27.075  30.697   7.131
 4147POPC   C1B54691  26.619  30.475   6.264
 4147POPC   C2B54692  26.850  30.367   6.643
 4147POPC   C3B54693  26.722  30.333   7.075
 4147POPC   C4B54694  26.668  30.562   7.490
 4148POPC   NC354695   8.173  27.217   5.268
 4148POPC   PO454696   8.348  26.556   5.383
 4148POPC   GL154697   8.218  26.689   5.795
 4148POPC   GL254698   8.205  27.045   5.754
 4148POPC   C1A54699   8.284  26.540   6.230
 4148POPC   D2A54700   8.407  26.462   6.659
 4148POPC   C3A54701   8.312  26.696   7.047
 4148POPC   C4A54702   8.191  26.574   7.468
 4148POPC   C1B54703   8.181  27.079   6.224
 4148POPC   C2B54704   8.132  26.996   6.678
 4148POPC   C3B54705   7.955  27.077   7.116
 4148POPC   C4B54706   8.175  27.114   7.528
 4149POPC   NC354707  28.337  22.273   5.235
 4149POPC   PO454708  28.199  21.715   5.471
 4149POPC   GL154709  28.452  22.049   5.696
 4149POPC   GL254710  28.609  22.387   5.647
 4149POPC   C1A54711  28.399  22.217   6.122
 4149POPC   D2A54712  28.251  21.932   6.470
 4149POPC   C3A54713  28.184  22.020   6.921
 4149POPC   C4A54714  28.315  21.830   7.342
 4149POPC   C1B54715  28.807  22.554   6.004
 4149POPC   C2B54716  28.788  22.446   6.450
 4149POPC   C3B54717  28.760  22.545   6.899
 4149POPC   C4B54718  28.617  22.197   7.175
 4150POPC   NC354719   6.286  20.536   5.562
 4150POPC   PO454720   6.915  20.259   5.619
 4150POPC   GL154721   6.678  20.521   5.913
 4150POPC   GL254722   6.542  20.876   5.884
 4150POPC   C1A54723   6.619  20.459   6.334
 4150POPC   D2A54724   6.580  20.713   6.660
 4150POPC   C3A54725   6.783  20.552   7.039
 4150POPC   C4A54726   6.780  20.986   7.100
 4150POPC   C1B54727   6.207  20.733   6.206
 4150POPC   C2B54728   6.100  20.553   6.628
 4150POPC   C3B54729   6.288  20.544   7.036
 4150POPC   C4B54730   6.271  20.411   7.460
 4151POPC   NC354731   9.614  31.588   5.379
 4151POPC   PO454732   9.544  30.954   5.262
 4151POPC   GL154733   9.487  31.142   5.740
 4151POPC   GL254734   9.594  31.515   5.871
 4151POPC   C1A54735   9.624  31.134   6.210
 4151POPC   D2A54736   9.440  31.132   6.657
 4151POPC   C3A54737   9.580  31.360   7.069
 4151POPC   C4A54738   9.888  31.291   7.440
 4151POPC   C1B54739   9.894  31.580   6.216
 4151POPC   C2B54740  10.035  31.736   6.603
 4151POPC   C3B54741  10.049  31.579   7.017
 4151POPC   C4B54742   9.769  31.780   7.326
 4152POPC   NC354743  36.778  40.482   5.640
 4152POPC   PO454744  37.216  40.098   5.248
 4152POPC   GL154745  37.161  39.996   5.725
 4152POPC   GL254746  36.828  39.802   5.793
 4152POPC   C1A54747  37.061  40.058   6.201
 4152POPC   D2A54748  36.963  39.851   6.618
 4152POPC   C3A54749  37.136  40.014   7.031
 4152POPC   C4A54750  37.013  40.068   7.467
 4152POPC   C1B54751  36.549  40.012   6.113
 4152POPC   C2B54752  36.456  40.111   6.548
 4152POPC   C3B54753  36.645  40.083   6.959
 4152POPC   C4B54754  36.538  40.106   7.367
 4153POPC   NC354755   2.307  27.871   5.485
 4153POPC   PO454756   1.748  27.821   5.483
 4153POPC   GL154757   1.737  27.616   5.883
 4153POPC   GL254758   2.096  27.617   5.994
 4153POPC   C1A54759   1.701  27.695   6.336
 4153POPC   D2A54760   2.021  27.783   6.655
 4153POPC   C3A54761   1.880  27.748   7.086
 4153POPC   C4A54762   2.104  27.815   7.474
 4153POPC   C1B54763   2.014  27.309   6.354
 4153POPC   C2B54764   1.946  27.297   6.820
 4153POPC   C3B54765   2.171  27.352   7.226
 4153POPC   C4B54766   2.553  27.595   7.280
 4154POPC   NC354767   2.483  37.408   5.333
 4154POPC   PO454768   3.121  37.721   5.440
 4154POPC   GL154769   2.895  37.884   5.792
 4154POPC   GL254770   2.579  37.723   5.731
 4154POPC   C1A54771   2.667  37.863   6.212
 4154POPC   D2A54772   2.510  38.023   6.616
 4154POPC   C3A54773   2.788  38.044   6.945
 4154POPC   C4A54774   2.736  37.759   7.252
 4154POPC   C1B54775   2.831  37.415   6.014
 4154POPC   C2B54776   2.804  37.260   6.425
 4154POPC   C3B54777   2.719  37.334   6.853
 4154POPC   C4B54778   2.883  37.234   7.260
 4155POPC   NC354779  14.484  44.839   5.418
 4155POPC   PO454780  13.988  44.421   5.587
 4155POPC   GL154781  14.208  44.664   5.891
 4155POPC   GL254782  14.569  44.692   5.892
 4155POPC   C1A54783  14.181  44.712   6.343
 4155POPC   D2A54784  13.885  44.868   6.633
 4155POPC   C3A54785  14.031  44.686   7.007
 4155POPC   C4A54786  14.342  44.698   7.305
 4155POPC   C1B54787  14.714  44.713   6.320
 4155POPC   C2B54788  14.542  44.711   6.735
 4155POPC   C3B54789  14.738  44.902   7.073
 4155POPC   C4B54790  14.850  44.926   7.484
 4156POPC   NC354791  43.081   5.768   5.384
 4156POPC   PO454792  42.608   6.250   5.513
 4156POPC   GL154793  42.918   6.049   5.810
 4156POPC   GL254794  42.882   5.662   5.837
 4156POPC   C1A54795  43.038   6.045   6.267
 4156POPC   D2A54796  42.854   5.789   6.609
 4156POPC   C3A54797  42.879   5.736   7.047
 4156POPC   C4A54798  42.993   5.947   7.419
 4156POPC   C1B54799  43.132   5.547   6.183
 4156POPC   C2B54800  43.364   5.699   6.549
 4156POPC   C3B54801  43.369   5.554   6.984
 4156POPC   C4B54802  43.344   5.580   7.445
 4157POPC   NC354803   6.833  15.744   5.267
 4157POPC   PO454804   6.725  16.372   5.395
 4157POPC   GL154805   6.725  16.106   5.800
 4157POPC   GL254806   6.416  16.116   5.957
 4157POPC   C1A54807   6.810  15.966   6.245
 4157POPC   D2A54808   6.954  16.125   6.634
 4157POPC   C3A54809   6.749  15.974   6.970
 4157POPC   C4A54810   6.901  15.706   7.218
 4157POPC   C1B54811   6.246  16.206   6.346
 4157POPC   C2B54812   6.428  16.283   6.740
 4157POPC   C3B54813   6.243  16.089   7.092
 4157POPC   C4B54814   6.356  15.699   7.204
 4158POPC   NC354815  30.457  36.660   5.444
 4158POPC   PO454816  30.353  37.370   5.478
 4158POPC   GL154817  30.438  37.069   5.770
 4158POPC   GL254818  30.787  36.981   5.740
 4158POPC   C1A54819  30.434  36.880   6.174
 4158POPC   D2A54820  30.200  36.900   6.576
 4158POPC   C3A54821  30.466  36.920   6.902
 4158POPC   C4A54822  30.547  36.723   7.246
 4158POPC   C1B54823  30.916  37.082   6.165
 4158POPC   C2B54824  30.844  36.823   6.541
 4158POPC   C3B54825  30.978  36.763   6.960
 4158POPC   C4B54826  31.233  36.931   7.269
 4159POPC   NC354827  18.516   0.149   5.315
 4159POPC   PO454828  18.275   0.704   5.500
 4159POPC   GL154829  18.421   0.572   5.872
 4159POPC   GL254830  18.299   0.243   5.845
 4159POPC   C1A54831  18.230   0.677   6.252
 4159POPC   D2A54832  17.962   0.726   6.584
 4159POPC   C3A54833  18.209   0.633   6.919
 4159POPC   C4A54834  18.597   0.396   6.862
 4159POPC   C1B54835  18.104   0.185   6.249
 4159POPC   C2B54836  17.985   0.202   6.695
 4159POPC   C3B54837  18.136   0.164   7.128
 4159POPC   C4B54838  18.209   0.080   7.583
 4160POPC   NC354839  17.242  26.485   5.423
 4160POPC   PO454840  17.219  25.776   5.307
 4160POPC   GL154841  17.397  25.937   5.684
 4160POPC   GL254842  17.714  25.805   5.841
 4160POPC   C1A54843  17.316  26.122   6.091
 4160POPC   D2A54844  17.153  26.135   6.533
 4160POPC   C3A54845  17.411  26.116   6.884
 4160POPC   C4A54846  17.419  25.975   7.287
 4160POPC   C1B54847  17.821  25.588   6.232
 4160POPC   C2B54848  17.748  25.790   6.636
 4160POPC   C3B54849  17.867  25.861   7.048
 4160POPC   C4B54850  17.908  25.544   7.348
 4161POPC   NC354851  43.467  39.306   5.154
 4161POPC   PO454852  42.845  39.234   5.389
 4161POPC   GL154853  43.059  39.069   5.801
 4161POPC   GL254854  43.296  39.329   5.860
 4161POPC   C1A54855  43.183  39.107   6.294
 4161POPC   D2A54856  42.910  39.224   6.664
 4161POPC   C3A54857  43.027  39.313   7.117
 4161POPC   C4A54858  43.118  39.008   7.464
 4161POPC   C1B54859  43.254  39.629   6.208
 4161POPC   C2B54860  43.293  39.556   6.614
 4161POPC   C3B54861  43.465  39.277   6.894
 4161POPC   C4B54862  43.659  39.458   7.211
 4162POPC   NC354863   5.010  21.736   5.452
 4162POPC   PO454864   4.958  20.988   5.352
 4162POPC   GL154865   5.068  21.261   5.705
 4162POPC   GL254866   5.373  21.416   5.740
 4162POPC   C1A54867   5.077  21.338   6.173
 4162POPC   D2A54868   4.908  21.229   6.577
 4162POPC   C3A54869   5.124  21.208   6.969
 4162POPC   C4A54870   5.041  21.518   7.331
 4162POPC   C1B54871   5.440  21.703   6.108
 4162POPC   C2B54872   5.208  21.766   6.508
 4162POPC   C3B54873   5.327  21.705   6.946
 4162POPC   C4B54874   5.431  21.845   7.371
 4163POPC   NC354875  16.241   2.935   5.441
 4163POPC   PO454876  15.679   2.625   5.198
 4163POPC   GL154877  15.846   2.589   5.638
 4163POPC   GL254878  16.183   2.454   5.734
 4163POPC   C1A54879  15.775   2.791   6.059
 4163POPC   D2A54880  15.952   3.000   6.449
 4163POPC   C3A54881  15.924   2.757   6.829
 4163POPC   C4A54882  15.613   2.881   7.109
 4163POPC   C1B54883  16.272   2.680   6.142
 4163POPC   C2B54884  16.413   2.792   6.579
 4163POPC   C3B54885  16.287   3.123   6.880
 4163POPC   C4B54886  16.095   3.029   7.269
 4164POPC   NC354887  23.120  36.004   5.440
 4164POPC   PO454888  22.420  35.871   5.425
 4164POPC   GL154889  22.697  36.035   5.790
 4164POPC   GL254890  23.033  36.230   5.879
 4164POPC   C1A54891  22.879  35.855   6.183
 4164POPC   D2A54892  23.007  35.680   6.571
 4164POPC   C3A54893  23.007  35.905   6.965
 4164POPC   C4A54894  22.738  35.883   7.311
 4164POPC   C1B54895  22.775  36.382   6.225
 4164POPC   C2B54896  22.854  36.594   6.623
 4164POPC   C3B54897  23.158  36.509   6.926
 4164POPC   C4B54898  23.069  36.325   7.284
 4165POPC   NC354899  10.032  42.360   5.282
 4165POPC   PO454900   9.423  42.190   5.380
 4165POPC   GL154901   9.667  42.416   5.713
 4165POPC   GL254902  10.065  42.532   5.742
 4165POPC   C1A54903   9.547  42.685   6.115
 4165POPC   D2A54904   9.410  42.766   6.575
 4165POPC   C3A54905   9.640  42.556   6.943
 4165POPC   C4A54906   9.551  42.318   7.340
 4165POPC   C1B54907   9.963  42.388   6.125
 4165POPC   C2B54908   9.852  42.313   6.507
 4165POPC   C3B54909  10.139  42.411   6.822
 4165POPC   C4B54910  10.059  42.368   7.236
 4166POPC   NC354911  34.214  11.432   5.450
 4166POPC   PO454912  33.694  11.242   5.343
 4166POPC   GL154913  33.895  11.173   5.781
 4166POPC   GL254914  33.611  11.183   5.992
 4166POPC   C1A54915  34.032  11.071   6.246
 4166POPC   D2A54916  34.037  10.986   6.743
 4166POPC   C3A54917  33.999  11.316   7.117
 4166POPC   C4A54918  33.898  11.345   7.578
 4166POPC   C1B54919  33.560  11.047   6.438
 4166POPC   C2B54920  33.573  11.151   6.877
 4166POPC   C3B54921  33.492  11.341   7.270
 4166POPC   C4B54922  33.434  11.569   7.671
 4167POPC   NC354923  13.645   8.646   5.239
 4167POPC   PO454924  13.730   9.314   5.456
 4167POPC   GL154925  13.671   9.103   5.806
 4167POPC   GL254926  13.869   8.835   5.677
 4167POPC   C1A54927  13.454   9.107   6.218
 4167POPC   D2A54928  13.506   8.817   6.536
 4167POPC   C3A54929  13.730   8.901   6.913
 4167POPC   C4A54930  13.550   8.840   7.307
 4167POPC   C1B54931  13.816   8.711   6.120
 4167POPC   C2B54932  14.014   8.705   6.535
 4167POPC   C3B54933  14.052   8.503   6.946
 4167POPC   C4B54934  14.051   8.744   7.305
 4168POPC   NC354935  12.363  21.385   5.415
 4168POPC   PO454936  11.682  21.287   5.631
 4168POPC   GL154937  12.070  21.235   5.808
 4168POPC   GL254938  12.172  21.589   5.849
 4168POPC   C1A54939  12.175  21.253   6.231
 4168POPC   D2A54940  12.007  21.576   6.482
 4168POPC   C3A54941  11.718  21.492   6.836
 4168POPC   C4A54942  11.781  21.399   7.273
 4168POPC   C1B54943  12.469  21.659   6.180
 4168POPC   C2B54944  12.497  21.483   6.607
 4168POPC   C3B54945  12.212  21.554   6.980
 4168POPC   C4B54946  12.334  21.492   7.410
 4169POPC   NC354947  28.962  21.034   5.190
 4169POPC   PO454948  29.212  21.605   5.423
 4169POPC   GL154949  29.012  21.550   5.790
 4169POPC   GL254950  28.911  21.244   5.687
 4169POPC   C1A54951  29.068  21.571   6.213
 4169POPC   D2A54952  29.305  21.415   6.523
 4169POPC   C3A54953  29.152  21.587   6.868
 4169POPC   C4A54954  29.262  21.472   7.238
 4169POPC   C1B54955  29.182  21.107   6.043
 4169POPC   C2B54956  29.086  20.936   6.470
 4169POPC   C3B54957  29.053  21.061   6.903
 4169POPC   C4B54958  29.315  20.953   7.226
 4170POPC   NC354959  24.194  13.576   5.418
 4170POPC   PO454960  23.652  13.829   5.261
 4170POPC   GL154961  23.812  13.791   5.691
 4170POPC   GL254962  24.087  14.031   5.709
 4170POPC   C1A54963  23.704  13.729   6.144
 4170POPC   D2A54964  23.885  13.689   6.565
 4170POPC   C3A54965  23.628  13.695   6.940
 4170POPC   C4A54966  23.279  13.486   7.181
 4170POPC   C1B54967  24.077  14.112   6.176
 4170POPC   C2B54968  23.939  14.224   6.621
 4170POPC   C3B54969  24.043  14.014   7.004
 4170POPC   C4B54970  24.192  13.584   6.984
 4171POPC   NC354971  24.580  16.934   5.344
 4171POPC   PO454972  24.329  16.296   5.335
 4171POPC   GL154973  24.248  16.513   5.746
 4171POPC   GL254974  24.520  16.308   5.856
 4171POPC   C1A54975  24.283  16.640   6.230
 4171POPC   D2A54976  24.385  16.869   6.672
 4171POPC   C3A54977  24.343  16.704   7.096
 4171POPC   C4A54978  24.441  16.949   7.461
 4171POPC   C1B54979  24.734  16.370   6.227
 4171POPC   C2B54980  24.792  16.567   6.615
 4171POPC   C3B54981  24.784  16.433   7.063
 4171POPC   C4B54982  24.776  16.581   7.503
 4172POPC   NC354983   0.468  22.647   5.418
 4172POPC   PO454984   0.298  23.308   5.327
 4172POPC   GL154985   0.280  23.136   5.762
 4172POPC   GL254986   0.581  23.037   5.747
 4172POPC   C1A54987   0.165  23.012   6.189
 4172POPC   D2A54988   0.330  22.824   6.572
 4172POPC   C3A54989   0.216  22.965   6.985
 4172POPC   C4A54990   0.428  22.910   7.400
 4172POPC   C1B54991   0.657  22.832   6.121
 4172POPC   C2B54992   0.826  22.886   6.541
 4172POPC   C3B54993   0.741  22.890   6.975
 4172POPC   C4B54994   0.871  23.135   7.329
 4173POPC   NC354995  43.075  13.795   5.278
 4173POPC   PO454996  43.143  14.323   5.451
 4173POPC   GL154997  43.293  14.006   5.805
 4173POPC   GL254998  43.306  13.634   5.818
 4173POPC   C1A54999  43.156  13.895   6.241
 4173POPC   D2A55000  43.276  13.766   6.663
 4173POPC   C3A55001  43.129  13.905   7.085
 4173POPC   C4A55002  43.023  14.069   7.488
 4173POPC   C1B55003  43.402  13.410   6.247
 4173POPC   C2B55004  43.607  13.389   6.682
 4173POPC   C3B55005  43.334  13.423   7.075
 4173POPC   C4B55006  43.272  13.179   7.458
 4174POPC   NC355007  20.502  36.868   5.357
 4174POPC   PO455008  20.875  37.426   5.520
 4174POPC   GL155009  20.613  37.164   5.773
 4174POPC   GL255010  20.753  36.834   5.803
 4174POPC   C1A55011  20.626  37.105   6.217
 4174POPC   D2A55012  20.713  37.263   6.592
 4174POPC   C3A55013  20.519  37.095   6.940
 4174POPC   C4A55014  20.771  37.131   7.321
 4174POPC   C1B55015  20.598  36.594   6.154
 4174POPC   C2B55016  20.694  36.719   6.566
 4174POPC   C3B55017  20.515  36.580   6.910
 4174POPC   C4B55018  20.413  36.754   7.312
 4175POPC   NC355019  35.690  10.785   5.596
 4175POPC   PO455020  35.336  11.280   5.200
 4175POPC   GL155021  35.410  11.210   5.653
 4175POPC   GL255022  35.296  11.457   5.835
 4175POPC   C1A55023  35.475  11.058   6.124
 4175POPC   D2A55024  35.345  11.133   6.575
 4175POPC   C3A55025  35.439  10.999   6.994
 4175POPC   C4A55026  35.712  11.180   7.324
 4175POPC   C1B55027  35.434  11.543   6.266
 4175POPC   C2B55028  35.581  11.614   6.663
 4175POPC   C3B55029  35.421  11.523   7.074
 4175POPC   C4B55030  35.349  11.801   7.426
 4176POPC   NC355031  43.742  19.797   5.237
 4176POPC   PO455032  44.236  20.170   5.414
 4176POPC   GL155033  44.012  19.821   5.693
 4176POPC   GL255034  43.646  19.730   5.743
 4176POPC   C1A55035  44.071  19.574   6.085
 4176POPC   D2A55036  43.973  19.446   6.519
 4176POPC   C3A55037  44.041  19.768   6.834
 4176POPC   C4A55038  44.071  19.789   7.274
 4176POPC   C1B55039  43.555  19.662   6.204
 4176POPC   C2B55040  43.543  19.681   6.675
 4176POPC   C3B55041  43.590  19.681   7.125
 4176POPC   C4B55042  43.630  19.869   7.561
 4177POPC   NC355043  27.748  21.792   5.603
 4177POPC   PO455044  27.412  22.304   5.285
 4177POPC   GL155045  27.623  22.357   5.685
 4177POPC   GL255046  27.995  22.283   5.694
 4177POPC   C1A55047  27.434  22.304   6.101
 4177POPC   D2A55048  27.490  22.450   6.507
 4177POPC   C3A55049  27.381  22.245   6.890
 4177POPC   C4A55050  27.588  22.316   7.245
 4177POPC   C1B55051  27.893  22.083   6.144
 4177POPC   C2B55052  27.752  21.997   6.610
 4177POPC   C3B55053  27.727  21.854   7.076
 4177POPC   C4B55054  27.884  22.020   7.515
 4178POPC   NC355055  20.021  28.154   5.462
 4178POPC   PO455056  19.535  28.642   5.681
 4178POPC   GL155057  19.803  28.365   5.865
 4178POPC   GL255058  19.714  28.029   5.827
 4178POPC   C1A55059  20.012  28.421   6.225
 4178POPC   D2A55060  19.838  28.351   6.600
 4178POPC   C3A55061  19.955  28.582   6.914
 4178POPC   C4A55062  19.869  28.559   7.307
 4178POPC   C1B55063  19.852  27.928   6.233
 4178POPC   C2B55064  19.979  27.871   6.659
 4178POPC   C3B55065  19.980  28.051   7.070
 4178POPC   C4B55066  19.638  28.127   7.350
 4179POPC   NC355067  36.694   6.069   5.344
 4179POPC   PO455068  37.194   5.576   5.372
 4179POPC   GL155069  36.962   5.784   5.673
 4179POPC   GL255070  37.140   6.048   5.804
 4179POPC   C1A55071  36.860   5.728   6.114
 4179POPC   D2A55072  36.969   5.845   6.534
 4179POPC   C3A55073  36.822   5.681   6.900
 4179POPC   C4A55074  36.917   5.802   7.286
 4179POPC   C1B55075  36.995   6.223   6.167
 4179POPC   C2B55076  36.997   6.360   6.568
 4179POPC   C3B55077  37.010   6.187   6.950
 4179POPC   C4B55078  36.707   6.253   7.259
 4180POPC   NC355079  16.148   8.543   5.475
 4180POPC   PO455080  15.800   7.939   5.442
 4180POPC   GL155081  15.926   8.174   5.793
 4180POPC   GL255082  16.264   8.219   5.857
 4180POPC   C1A55083  15.916   8.420   6.176
 4180POPC   D2A55084  15.853   8.567   6.570
 4180POPC   C3A55085  16.006   8.317   6.866
 4180POPC   C4A55086  15.784   8.307   7.206
 4180POPC   C1B55087  16.084   7.929   6.220
 4180POPC   C2B55088  16.063   7.835   6.677
 4180POPC   C3B55089  16.040   7.849   7.125
 4180POPC   C4B55090  16.364   7.698   7.338
 4181POPC   NC355091  40.957  35.380   5.244
 4181POPC   PO455092  41.602  35.379   5.447
 4181POPC   GL155093  41.579  35.226   5.868
 4181POPC   GL255094  41.305  35.330   6.122
 4181POPC   C1A55095  41.802  35.326   6.231
 4181POPC   D2A55096  41.775  35.394   6.641
 4181POPC   C3A55097  41.772  35.043   6.909
 4181POPC   C4A55098  41.770  35.336   7.244
 4181POPC   C1B55099  41.017  35.752   6.232
 4181POPC   C2B55100  41.167  35.948   6.580
 4181POPC   C3B55101  41.307  35.560   6.795
 4181POPC   C4B55102  41.253  35.398   7.209
 4182POPC   NC355103  11.028  36.416   5.171
 4182POPC   PO455104  10.635  35.843   5.432
 4182POPC   GL155105  10.718  35.990   5.816
 4182POPC   GL255106  10.496  36.229   5.776
 4182POPC   C1A55107  10.678  36.064   6.258
 4182POPC   D2A55108  10.495  35.853   6.557
 4182POPC   C3A55109  10.521  35.997   6.921
 4182POPC   C4A55110  10.382  35.804   7.276
 4182POPC   C1B55111  10.277  36.350   6.135
 4182POPC   C2B55112  10.319  36.331   6.569
 4182POPC   C3B55113  10.145  36.341   6.961
 4182POPC   C4B55114  10.397  36.312   7.307
 4183POPC   NC355115  27.674  33.930   5.307
 4183POPC   PO455116  27.297  33.405   5.484
 4183POPC   GL155117  27.664  33.605   5.689
 4183POPC   GL255118  27.441  33.866   5.768
 4183POPC   C1A55119  27.804  33.750   6.085
 4183POPC   D2A55120  27.760  33.849   6.486
 4183POPC   C3A55121  27.852  33.735   6.878
 4183POPC   C4A55122  27.698  33.833   7.300
 4183POPC   C1B55123  27.394  34.073   6.168
 4183POPC   C2B55124  27.452  34.250   6.600
 4183POPC   C3B55125  27.281  34.082   7.019
 4183POPC   C4B55126  26.994  34.240   7.369
 4184POPC   NC355127  42.609  25.643   5.459
 4184POPC   PO455128  42.402  26.314   5.244
 4184POPC   GL155129  42.338  26.089   5.617
 4184POPC   GL255130  42.040  26.157   5.811
 4184POPC   C1A55131  42.445  25.952   6.020
 4184POPC   D2A55132  42.408  25.913   6.428
 4184POPC   C3A55133  42.706  25.965   6.727
 4184POPC   C4A55134  42.460  25.957   7.094
 4184POPC   C1B55135  42.027  26.397   6.182
 4184POPC   C2B55136  42.249  26.388   6.558
 4184POPC   C3B55137  42.123  26.321   6.963
 4184POPC   C4B55138  41.931  26.520   7.277
 4185POPC   NC355139   0.206   0.366   5.301
 4185POPC   PO455140   0.798   0.500   5.526
 4185POPC   GL155141   0.449   0.333   5.800
 4185POPC   GL255142   0.094   0.213   5.798
 4185POPC   C1A55143   0.375   0.306   6.256
 4185POPC   D2A55144   0.337   0.597   6.612
 4185POPC   C3A55145   0.581   0.622   6.991
 4185POPC   C4A55146   0.713   0.362   7.316
 4185POPC   C1B55147   0.048  44.919   6.197
 4185POPC   C2B55148   0.284  44.928   6.617
 4185POPC   C3B55149   0.264   0.204   6.992
 4185POPC   C4B55150  44.926   0.216   7.276
 4186POPC   NC355151  43.982   4.729   5.378
 4186POPC   PO455152  43.624   5.285   5.540
 4186POPC   GL155153  43.770   4.970   5.857
 4186POPC   GL255154  44.107   4.837   5.876
 4186POPC   C1A55155  43.848   4.918   6.305
 4186POPC   D2A55156  44.066   5.085   6.661
 4186POPC   C3A55157  43.951   4.959   7.057
 4186POPC   C4A55158  43.842   5.198   7.446
 4186POPC   C1B55159  44.328   5.017   6.210
 4186POPC   C2B55160  44.514   4.866   6.589
 4186POPC   C3B55161  44.440   4.740   6.999
 4186POPC   C4B55162  44.289   4.928   7.425
 4187POPC   NC355163  21.462  18.638   5.472
 4187POPC   PO455164  20.942  18.267   5.483
 4187POPC   GL155165  21.164  18.444   5.819
 4187POPC   GL255166  21.287  18.121   5.935
 4187POPC   C1A55167  21.492  18.530   6.145
 4187POPC   D2A55168  21.502  18.242   6.488
 4187POPC   C3A55169  21.618  18.412   6.867
 4187POPC   C4A55170  21.802  18.360   7.248
 4187POPC   C1B55171  21.025  18.293   6.287
 4187POPC   C2B55172  21.038  18.359   6.725
 4187POPC   C3B55173  21.227  18.112   7.027
 4187POPC   C4B55174  21.414  18.045   7.409
 4188POPC   NC355175   1.453  44.099   5.427
 4188POPC   PO455176   0.939  43.739   5.233
 4188POPC   GL155177   1.146  43.739   5.665
 4188POPC   GL255178   1.171  44.061   5.847
 4188POPC   C1A55179   1.171  43.641   6.141
 4188POPC   D2A55180   1.479  43.662   6.552
 4188POPC   C3A55181   1.383  43.758   6.964
 4188POPC   C4A55182   0.998  43.601   7.092
 4188POPC   C1B55183   1.379  44.069   6.245
 4188POPC   C2B55184   1.486  44.171   6.647
 4188POPC   C3B55185   1.613  44.250   7.048
 4188POPC   C4B55186   1.594  44.067   7.437
 4189POPC   NC355187  28.014  23.625   5.165
 4189POPC   PO455188  28.621  23.322   5.435
 4189POPC   GL155189  28.638  23.599   5.807
 4189POPC   GL255190  28.380  23.889   5.810
 4189POPC   C1A55191  28.560  23.669   6.254
 4189POPC   D2A55192  28.742  23.886   6.609
 4189POPC   C3A55193  28.553  23.774   7.012
 4189POPC   C4A55194  28.500  23.678   7.447
 4189POPC   C1B55195  28.217  24.042   6.237
 4189POPC   C2B55196  28.083  23.914   6.654
 4189POPC   C3B55197  28.026  24.015   7.085
 4189POPC   C4B55198  28.312  24.183   7.374
 4190POPC   NC355199  10.001  29.478   5.625
 4190POPC   PO455200   9.992  30.166   5.300
 4190POPC   GL155201   9.956  29.985   5.743
 4190POPC   GL255202   9.620  29.813   5.852
 4190POPC   C1A55203   9.836  30.147   6.178
 4190POPC   D2A55204   9.566  30.291   6.531
 4190POPC   C3A55205   9.604  30.163   6.956
 4190POPC   C4A55206   9.566  30.095   7.378
 4190POPC   C1B55207   9.532  29.776   6.317
 4190POPC   C2B55208   9.863  29.853   6.657
 4190POPC   C3B55209   9.761  29.639   7.069
 4190POPC   C4B55210   9.778  29.676   7.534
 4191POPC   NC355211  42.958  17.871   5.143
 4191POPC   PO455212  43.292  18.423   5.383
 4191POPC   GL155213  43.200  18.463   5.767
 4191POPC   GL255214  42.882  18.366   5.756
 4191POPC   C1A55215  43.272  18.347   6.193
 4191POPC   D2A55216  43.529  18.427   6.567
 4191POPC   C3A55217  43.414  18.321   6.999
 4191POPC   C4A55218  43.454  18.595   7.348
 4191POPC   C1B55219  42.732  18.407   6.152
 4191POPC   C2B55220  42.900  18.361   6.559
 4191POPC   C3B55221  42.747  18.578   6.908
 4191POPC   C4B55222  42.951  18.382   7.231
 4192POPC   NC355223  43.241   7.771   5.342
 4192POPC   PO455224  42.919   7.163   5.390
 4192POPC   GL155225  43.008   7.522   5.724
 4192POPC   GL255226  43.395   7.614   5.808
 4192POPC   C1A55227  43.017   7.577   6.175
 4192POPC   D2A55228  43.202   7.326   6.517
 4192POPC   C3A55229  42.970   7.221   6.898
 4192POPC   C4A55230  42.939   7.363   7.313
 4192POPC   C1B55231  43.662   7.666   6.192
 4192POPC   C2B55232  43.575   7.887   6.594
 4192POPC   C3B55233  43.250   7.721   6.865
 4192POPC   C4B55234  43.333   7.661   7.267
 4193POPC   NC355235  15.198   0.024   5.501
 4193POPC   PO455236  14.807  44.473   5.431
 4193POPC   GL155237  15.062  44.589   5.814
 4193POPC   GL255238  15.072  44.922   5.987
 4193POPC   C1A55239  15.113  44.382   6.207
 4193POPC   D2A55240  15.284  44.399   6.638
 4193POPC   C3A55241  14.952  44.455   6.958
 4193POPC   C4A55242  14.781  44.426   7.384
 4193POPC   C1B55243  15.457  44.792   6.232
 4193POPC   C2B55244  15.704  44.954   6.559
 4193POPC   C3B55245  15.474  44.833   6.894
 4193POPC   C4B55246  15.273  44.727   7.272
 4194POPC   NC355247  43.562   0.939   5.350
 4194POPC   PO455248  44.246   1.183   5.400
 4194POPC   GL155249  43.876   1.256   5.699
 4194POPC   GL255250  43.489   1.349   5.649
 4194POPC   C1A55251  43.977   1.311   6.138
 4194POPC   D2A55252  44.174   1.120   6.494
 4194POPC   C3A55253  43.942   1.234   6.861
 4194POPC   C4A55254  44.104   1.167   7.265
 4194POPC   C1B55255  43.506   1.106   6.034
 4194POPC   C2B55256  43.676   1.032   6.443
 4194POPC   C3B55257  43.619   0.838   6.845
 4194POPC   C4B55258  43.645   0.990   7.234
 4195POPC   NC355259  16.173  16.626   5.465
 4195POPC   PO455260  16.782  16.610   5.421
 4195POPC   GL155261  16.554  16.763   5.788
 4195POPC   GL255262  16.446  17.101   5.845
 4195POPC   C1A55263  16.519  16.729   6.222
 4195POPC   D2A55264  16.706  16.943   6.555
 4195POPC   C3A55265  16.596  16.855   6.979
 4195POPC   C4A55266  16.858  16.880   7.348
 4195POPC   C1B55267  16.310  17.193   6.298
 4195POPC   C2B55268  16.390  17.280   6.753
 4195POPC   C3B55269  16.148  17.099   7.090
 4195POPC   C4B55270  16.339  16.875   7.419
 4196POPC   NC355271  18.276  21.687   5.405
 4196POPC   PO455272  18.709  21.176   5.449
 4196POPC   GL155273  18.367  21.220   5.798
 4196POPC   GL255274  18.155  21.544   5.864
 4196POPC   C1A55275  18.267  21.264   6.265
 4196POPC   D2A55276  18.161  21.062   6.662
 4196POPC   C3A55277  18.153  21.269   7.051
 4196POPC   C4A55278  18.148  21.199   7.511
 4196POPC   C1B55279  17.923  21.656   6.214
 4196POPC   C2B55280  17.932  21.530   6.621
 4196POPC   C3B55281  17.777  21.697   6.977
 4196POPC   C4B55282  17.946  21.653   7.364
 4197POPC   NC355283   6.768  33.050   5.512
 4197POPC   PO455284   6.144  32.798   5.506
 4197POPC   GL155285   6.453  32.783   5.840
 4197POPC   GL255286   6.505  33.144   5.938
 4197POPC   C1A55287   6.614  32.800   6.283
 4197POPC   D2A55288   6.534  33.172   6.522
 4197POPC   C3A55289   6.378  33.091   6.948
 4197POPC   C4A55290   6.512  32.730   7.169
 4197POPC   C1B55291   6.909  33.227   6.147
 4197POPC   C2B55292   7.093  33.057   6.499
 4197POPC   C3B55293   6.876  32.975   6.860
 4197POPC   C4B55294   6.797  33.146   7.252
 4198POPC   NC355295  17.972   6.817   5.322
 4198POPC   PO455296  18.503   6.437   5.417
 4198POPC   GL155297  18.294   6.648   5.756
 4198POPC   GL255298  18.469   6.942   5.862
 4198POPC   C1A55299  18.267   6.544   6.225
 4198POPC   D2A55300  18.026   6.394   6.627
 4198POPC   C3A55301  18.239   6.426   7.032
 4198POPC   C4A55302  18.486   6.780   7.193
 4198POPC   C1B55303  18.049   6.988   6.039
 4198POPC   C2B55304  17.983   6.909   6.464
 4198POPC   C3B55305  18.009   6.884   6.897
 4198POPC   C4B55306  17.998   6.939   7.332
 4199POPC   NC355307   4.675  17.876   5.663
 4199POPC   PO455308   4.418  18.360   5.235
 4199POPC   GL155309   4.371  18.319   5.690
 4199POPC   GL255310   4.671  18.450   5.878
 4199POPC   C1A55311   4.246  18.248   6.122
 4199POPC   D2A55312   4.531  18.296   6.476
 4199POPC   C3A55313   4.354  18.217   6.872
 4199POPC   C4A55314   4.618  18.135   7.230
 4199POPC   C1B55315   4.459  18.740   6.218
 4199POPC   C2B55316   4.303  18.764   6.673
 4199POPC   C3B55317   4.442  18.648   7.123
 4199POPC   C4B55318   4.369  18.456   7.582
 4200POPC   NC355319  13.838  27.573   5.472
 4200POPC   PO455320  14.454  27.337   5.326
 4200POPC   GL155321  14.401  27.448   5.764
 4200POPC   GL255322  14.088  27.314   5.841
 4200POPC   C1A55323  14.559  27.537   6.198
 4200POPC   D2A55324  14.524  27.489   6.658
 4200POPC   C3A55325  14.425  27.770   7.005
 4200POPC   C4A55326  14.651  27.943   7.366
 4200POPC   C1B55327  14.044  27.615   6.181
 4200POPC   C2B55328  14.043  27.751   6.636
 4200POPC   C3B55329  13.928  27.912   7.066
 4200POPC   C4B55330  14.134  27.968   7.460
 4201POPC   NC355331   1.351   7.966   5.553
 4201POPC   PO455332   0.871   8.587   5.687
 4201POPC   GL155333   1.151   8.414   5.966
 4201POPC   GL255334   1.423   8.182   5.994
 4201POPC   C1A55335   1.141   8.364   6.387
 4201POPC   D2A55336   1.282   8.399   6.770
 4201POPC   C3A55337   1.033   8.466   7.089
 4201POPC   C4A55338   1.080   8.142   7.316
 4201POPC   C1B55339   1.329   7.850   6.265
 4201POPC   C2B55340   1.463   7.647   6.670
 4201POPC   C3B55341   1.423   7.794   7.101
 4201POPC   C4B55342   1.248   7.697   7.502
 4202POPC   NC355343  17.917   3.039   5.592
 4202POPC   PO455344  18.333   2.722   5.147
 4202POPC   GL155345  18.346   2.710   5.642
 4202POPC   GL255346  18.702   2.816   5.726
 4202POPC   C1A55347  18.318   2.820   6.118
 4202POPC   D2A55348  18.366   2.622   6.553
 4202POPC   C3A55349  18.214   2.544   6.991
 4202POPC   C4A55350  17.999   2.857   7.233
 4202POPC   C1B55351  18.835   2.895   6.164
 4202POPC   C2B55352  18.760   2.997   6.613
 4202POPC   C3B55353  18.520   3.030   7.013
 4202POPC   C4B55354  18.525   2.836   7.420
 4203POPC   NC355355   9.892  27.180   5.452
 4203POPC   PO455356   9.516  27.664   5.349
 4203POPC   GL155357   9.730  27.686   5.769
 4203POPC   GL255358   9.433  27.857   5.925
 4203POPC   C1A55359  10.040  27.474   6.128
 4203POPC   D2A55360   9.962  27.297   6.557
 4203POPC   C3A55361  10.194  27.413   6.958
 4203POPC   C4A55362  10.238  27.766   7.255
 4203POPC   C1B55363   9.729  27.830   6.265
 4203POPC   C2B55364   9.904  27.822   6.680
 4203POPC   C3B55365   9.759  27.863   7.083
 4203POPC   C4B55366   9.423  27.770   7.358
 4204POPC   NC355367  32.525   5.701   5.522
 4204POPC   PO455368  31.978   5.775   5.406
 4204POPC   GL155369  32.119   5.853   5.832
 4204POPC   GL255370  32.418   6.048   5.888
 4204POPC   C1A55371  32.024   6.098   6.200
 4204POPC   D2A55372  32.203   6.312   6.542
 4204POPC   C3A55373  32.016   6.138   6.885
 4204POPC   C4A55374  32.209   5.963   7.225
 4204POPC   C1B55375  32.438   5.829   6.306
 4204POPC   C2B55376  32.470   5.902   6.758
 4204POPC   C3B55377  32.573   5.641   7.127
 4204POPC   C4B55378  32.840   5.733   7.488
 4205POPC   NC355379  21.443   0.842   5.276
 4205POPC   PO455380  20.862   0.493   5.316
 4205POPC   GL155381  21.247   0.485   5.619
 4205POPC   GL255382  21.190   0.250   5.917
 4205POPC   C1A55383  21.458   0.663   6.001
 4205POPC   D2A55384  21.250   0.490   6.390
 4205POPC   C3A55385  21.340   0.506   6.853
 4205POPC   C4A55386  21.213   0.346   7.281
 4205POPC   C1B55387  21.593   0.150   6.144
 4205POPC   C2B55388  21.756   0.009   6.580
 4205POPC   C3B55389  21.575   0.030   7.020
 4205POPC   C4B55390  21.709   0.252   7.403
 4206POPC   NC355391  16.202  41.099   5.080
 4206POPC   PO455392  15.828  40.592   5.306
 4206POPC   GL155393  15.917  40.594   5.751
 4206POPC   GL255394  15.655  40.810   5.958
 4206POPC   C1A55395  15.956  40.471   6.165
 4206POPC   D2A55396  15.857  40.687   6.522
 4206POPC   C3A55397  16.062  40.644   6.912
 4206POPC   C4A55398  15.900  40.750   7.325
 4206POPC   C1B55399  15.599  41.180   6.220
 4206POPC   C2B55400  15.440  41.191   6.633
 4206POPC   C3B55401  15.656  41.016   6.964
 4206POPC   C4B55402  15.788  41.227   7.359
 4207POPC   NC355403  38.245  29.053   5.200
 4207POPC   PO455404  38.861  28.851   5.394
 4207POPC   GL155405  38.649  29.025   5.768
 4207POPC   GL255406  38.271  29.056   5.739
 4207POPC   C1A55407  38.512  28.896   6.191
 4207POPC   D2A55408  38.596  29.058   6.578
 4207POPC   C3A55409  38.766  29.012   6.974
 4207POPC   C4A55410  38.718  29.381   7.263
 4207POPC   C1B55411  38.237  29.332   6.103
 4207POPC   C2B55412  38.117  29.259   6.542
 4207POPC   C3B55413  38.315  29.343   6.913
 4207POPC   C4B55414  38.259  29.235   7.288
 4208POPC   NC355415  19.579   3.346   5.436
 4208POPC   PO455416  20.115   3.609   5.416
 4208POPC   GL155417  19.945   3.478   5.796
 4208POPC   GL255418  19.663   3.666   5.837
 4208POPC   C1A55419  19.787   3.273   6.155
 4208POPC   D2A55420  19.715   3.422   6.563
 4208POPC   C3A55421  19.977   3.531   6.899
 4208POPC   C4A55422  19.852   3.362   7.269
 4208POPC   C1B55423  19.408   3.627   6.215
 4208POPC   C2B55424  19.299   3.757   6.602
 4208POPC   C3B55425  19.485   3.705   6.988
 4208POPC   C4B55426  19.568   3.849   7.386
 4209POPC   NC355427  11.973   7.309   5.521
 4209POPC   PO455428  12.651   7.414   5.472
 4209POPC   GL155429  12.387   7.450   5.832
 4209POPC   GL255430  12.201   7.112   5.935
 4209POPC   C1A55431  12.309   7.497   6.253
 4209POPC   D2A55432  12.271   7.212   6.595
 4209POPC   C3A55433  12.184   7.398   6.990
 4209POPC   C4A55434  12.195   7.707   7.304
 4209POPC   C1B55435  11.937   6.926   6.275
 4209POPC   C2B55436  11.768   6.750   6.674
 4209POPC   C3B55437  11.858   6.895   7.116
 4209POPC   C4B55438  11.966   7.229   7.417
 4210POPC   NC355439  19.635  24.006   5.443
 4210POPC   PO455440  20.049  23.508   5.284
 4210POPC   GL155441  19.977  23.835   5.743
 4210POPC   GL255442  19.590  23.720   5.849
 4210POPC   C1A55443  19.890  23.820   6.253
 4210POPC   D2A55444  20.103  23.599   6.599
 4210POPC   C3A55445  20.000  23.678   7.006
 4210POPC   C4A55446  19.886  24.037   7.227
 4210POPC   C1B55447  19.358  23.354   6.002
 4210POPC   C2B55448  19.411  23.319   6.427
 4210POPC   C3B55449  19.585  23.499   6.775
 4210POPC   C4B55450  19.546  23.351   7.208
 4211POPC   NC355451  17.085  39.765   5.400
 4211POPC   PO455452  17.482  40.270   5.393
 4211POPC   GL155453  17.304  40.092   5.769
 4211POPC   GL255454  17.054  40.327   5.914
 4211POPC   C1A55455  17.517  40.130   6.177
 4211POPC   D2A55456  17.531  39.918   6.567
 4211POPC   C3A55457  17.583  40.208   6.901
 4211POPC   C4A55458  17.786  40.193   7.301
 4211POPC   C1B55459  17.049  39.980   6.226
 4211POPC   C2B55460  16.991  39.651   6.546
 4211POPC   C3B55461  17.242  39.631   6.879
 4211POPC   C4B55462  17.411  39.836   7.213
 4212POPC   NC355463   4.328  41.942   5.048
 4212POPC   PO455464   4.096  41.425   5.328
 4212POPC   GL155465   4.228  41.364   5.777
 4212POPC   GL255466   4.504  41.529   5.760
 4212POPC   C1A55467   4.332  41.309   6.215
 4212POPC   D2A55468   4.243  41.567   6.593
 4212POPC   C3A55469   4.516  41.612   6.981
 4212POPC   C4A55470   4.490  41.323   7.371
 4212POPC   C1B55471   4.527  41.811   6.106
 4212POPC   C2B55472   4.481  42.010   6.502
 4212POPC   C3B55473   4.202  42.019   6.843
 4212POPC   C4B55474   4.160  41.887   7.252
 4213POPC   NC355475  16.991   8.070   5.220
 4213POPC   PO455476  16.626   8.500   5.499
 4213POPC   GL155477  16.759   8.146   5.738
 4213POPC   GL255478  17.015   8.312   5.830
 4213POPC   C1A55479  16.596   7.989   6.146
 4213POPC   D2A55480  16.395   8.241   6.497
 4213POPC   C3A55481  16.485   8.074   6.915
 4213POPC   C4A55482  16.741   8.120   7.286
 4213POPC   C1B55483  16.841   8.439   6.209
 4213POPC   C2B55484  17.025   8.580   6.555
 4213POPC   C3B55485  16.934   8.455   6.940
 4213POPC   C4B55486  17.057   8.512   7.339
 4214POPC   NC355487  44.682   0.989   5.302
 4214POPC   PO455488  44.729   0.307   5.390
 4214POPC   GL155489  44.590   0.202   5.808
 4214POPC   GL255490  44.454   0.554   5.832
 4214POPC   C1A55491  44.744   0.318   6.201
 4214POPC   D2A55492  44.924   0.263   6.572
 4214POPC   C3A55493  44.884   0.544   6.858
 4214POPC   C4A55494  44.560   0.498   7.087
 4214POPC   C1B55495  44.251   0.361   6.189
 4214POPC   C2B55496  44.383   0.363   6.628
 4214POPC   C3B55497  44.129   0.253   6.999
 4214POPC   C4B55498  43.851   0.010   7.267
 4215POPC   NC355499  22.021  35.693   5.185
 4215POPC   PO455500  21.855  36.291   5.217
 4215POPC   GL155501  21.952  36.090   5.614
 4215POPC   GL255502  21.875  36.382   5.828
 4215POPC   C1A55503  22.148  35.968   6.063
 4215POPC   D2A55504  22.439  35.888   6.455
 4215POPC   C3A55505  22.442  36.062   6.903
 4215POPC   C4A55506  22.210  36.030   7.311
 4215POPC   C1B55507  22.036  36.442   6.250
 4215POPC   C2B55508  22.006  36.237   6.670
 4215POPC   C3B55509  21.779  36.332   7.035
 4215POPC   C4B55510  21.808  36.326   7.496
 4216POPC   NC355511   8.385   0.781   5.563
 4216POPC   PO455512   8.294   1.441   5.421
 4216POPC   GL155513   8.412   1.293   5.839
 4216POPC   GL255514   8.170   1.037   5.958
 4216POPC   C1A55515   8.360   1.408   6.290
 4216POPC   D2A55516   8.438   1.315   6.713
 4216POPC   C3A55517   8.117   1.384   7.006
 4216POPC   C4A55518   8.221   1.353   7.427
 4216POPC   C1B55519   8.484   0.908   6.258
 4216POPC   C2B55520   8.493   0.808   6.712
 4216POPC   C3B55521   8.446   0.982   7.135
 4216POPC   C4B55522   8.515   0.999   7.598
 4217POPC   NC355523  13.772   7.188   5.011
 4217POPC   PO455524  13.464   7.625   5.495
 4217POPC   GL155525  13.656   7.490   5.873
 4217POPC   GL255526  13.606   7.149   5.984
 4217POPC   C1A55527  13.798   7.527   6.287
 4217POPC   D2A55528  13.812   7.820   6.616
 4217POPC   C3A55529  13.906   7.624   7.018
 4217POPC   C4A55530  14.048   7.260   7.213
 4217POPC   C1B55531  13.323   7.351   6.282
 4217POPC   C2B55532  13.494   7.396   6.715
 4217POPC   C3B55533  13.575   7.123   7.074
 4217POPC   C4B55534  13.328   7.024   7.464
 4218POPC   NC355535  14.213   5.502   5.510
 4218POPC   PO455536  14.652   5.017   5.352
 4218POPC   GL155537  14.427   5.005   5.766
 4218POPC   GL255538  14.273   5.283   5.963
 4218POPC   C1A55539  14.419   4.805   6.181
 4218POPC   D2A55540  14.237   4.944   6.584
 4218POPC   C3A55541  14.533   4.939   6.932
 4218POPC   C4A55542  14.678   4.993   7.345
 4218POPC   C1B55543  14.504   5.327   6.331
 4218POPC   C2B55544  14.353   5.448   6.721
 4218POPC   C3B55545  14.359   5.378   7.139
 4218POPC   C4B55546  14.650   5.595   7.313
 4219POPC   NC355547  31.079  39.203   5.489
 4219POPC   PO455548  31.651  39.336   5.447
 4219POPC   GL155549  31.594  39.236   5.864
 4219POPC   GL255550  31.272  39.068   5.951
 4219POPC   C1A55551  31.573  39.335   6.284
 4219POPC   D2A55552  31.313  39.208   6.595
 4219POPC   C3A55553  31.651  39.254   6.879
 4219POPC   C4A55554  31.719  39.328   7.313
 4219POPC   C1B55555  31.144  39.516   6.095
 4219POPC   C2B55556  31.177  39.751   6.498
 4219POPC   C3B55557  31.251  39.593   6.933
 4219POPC   C4B55558  31.244  39.167   7.185
 4220POPC   NC355559  23.875  12.633   5.509
 4220POPC   PO455560  23.409  13.157   5.599
 4220POPC   GL155561  23.535  12.781   5.874
 4220POPC   GL255562  23.918  12.782   5.987
 4220POPC   C1A55563  23.572  12.648   6.320
 4220POPC   D2A55564  23.297  12.651   6.669
 4220POPC   C3A55565  23.545  12.717   7.017
 4220POPC   C4A55566  23.875  12.478   7.188
 4220POPC   C1B55567  23.739  13.136   6.237
 4220POPC   C2B55568  23.540  13.135   6.649
 4220POPC   C3B55569  23.667  13.198   7.047
 4220POPC   C4B55570  24.011  13.177   7.231
 4221POPC   NC355571  18.581  20.735   5.403
 4221POPC   PO455572  18.029  20.454   5.578
 4221POPC   GL155573  18.254  20.692   5.824
 4221POPC   GL255574  18.550  20.440   5.819
 4221POPC   C1A55575  18.081  20.787   6.231
 4221POPC   D2A55576  17.939  20.571   6.622
 4221POPC   C3A55577  18.016  20.714   7.045
 4221POPC   C4A55578  18.064  20.331   7.282
 4221POPC   C1B55579  18.637  20.743   6.149
 4221POPC   C2B55580  18.458  20.653   6.557
 4221POPC   C3B55581  18.428  20.407   6.917
 4221POPC   C4B55582  18.557  20.561   7.299
 4222POPC   NC355583   4.986   8.229   5.188
 4222POPC   PO455584   5.231   7.857   5.681
 4222POPC   GL155585   5.166   8.274   5.811
 4222POPC   GL255586   4.832   8.250   5.686
 4222POPC   C1A55587   5.290   8.256   6.253
 4222POPC   D2A55588   5.177   8.066   6.654
 4222POPC   C3A55589   5.337   8.296   7.015
 4222POPC   C4A55590   5.192   8.358   7.426
 4222POPC   C1B55591   4.793   8.126   6.142
 4222POPC   C2B55592   4.735   8.335   6.520
 4222POPC   C3B55593   4.827   8.327   6.913
 4222POPC   C4B55594   4.929   7.995   7.156
 4223POPC   NC355595  28.353   8.116   4.947
 4223POPC   PO455596  28.071   8.329   5.528
 4223POPC   GL155597  28.264   8.057   5.827
 4223POPC   GL255598  28.622   8.119   5.919
 4223POPC   C1A55599  28.269   7.877   6.250
 4223POPC   D2A55600  28.326   7.886   6.710
 4223POPC   C3A55601  28.346   8.215   7.008
 4223POPC   C4A55602  28.029   8.198   7.306
 4223POPC   C1B55603  28.467   8.431   6.245
 4223POPC   C2B55604  28.402   8.647   6.687
 4223POPC   C3B55605  28.425   8.706   7.151
 4223POPC   C4B55606  28.417   8.443   7.504
 4224POPC   NC355607  44.014   5.550   5.650
 4224POPC   PO455608  44.078   6.073   5.161
 4224POPC   GL155609  43.682   5.953   5.580
 4224POPC   GL255610  43.426   5.684   5.770
 4224POPC   C1A55611  43.647   5.965   6.110
 4224POPC   D2A55612  43.906   6.086   6.497
 4224POPC   C3A55613  43.696   5.963   6.863
 4224POPC   C4A55614  43.727   5.847   7.261
 4224POPC   C1B55615  43.633   5.448   6.172
 4224POPC   C2B55616  43.865   5.556   6.548
 4224POPC   C3B55617  43.893   5.460   6.976
 4224POPC   C4B55618  44.146   5.565   7.325
 4225POPC   NC355619  39.317   0.646   5.325
 4225POPC   PO455620  39.627   0.057   5.304
 4225POPC   GL155621  39.490   0.283   5.724
 4225POPC   GL255622  39.243   0.583   5.810
 4225POPC   C1A55623  39.477   0.375   6.195
 4225POPC   D2A55624  39.264   0.261   6.574
 4225POPC   C3A55625  39.412   0.406   6.999
 4225POPC   C4A55626  39.227   0.311   7.423
 4225POPC   C1B55627  39.014   0.641   6.200
 4225POPC   C2B55628  38.935   0.850   6.570
 4225POPC   C3B55629  38.892   0.789   7.025
 4225POPC   C4B55630  38.877   1.127   7.346
 4226POPC   NC355631  44.948  42.845   5.420
 4226POPC   PO455632  44.360  43.113   5.425
 4226POPC   GL155633  44.558  43.146   5.826
 4226POPC   GL255634  44.470  42.821   5.837
 4226POPC   C1A55635  44.730  43.346   6.232
 4226POPC   D2A55636  44.816  43.543   6.656
 4226POPC   C3A55637  44.677  43.336   7.040
 4226POPC   C4A55638  44.296  43.156   7.176
 4226POPC   C1B55639  44.621  42.819   6.256
 4226POPC   C2B55640  44.748  43.011   6.643
 4226POPC   C3B55641  44.890  42.825   7.035
 4226POPC   C4B55642  44.627  42.772   7.369
 4227POPC   NC355643  36.490   7.742   5.086
 4227POPC   PO455644  36.199   8.136   5.473
 4227POPC   GL155645  36.331   8.224   5.879
 4227POPC   GL255646  36.334   8.602   5.930
 4227POPC   C1A55647  36.322   8.022   6.293
 4227POPC   D2A55648  36.084   7.880   6.670
 4227POPC   C3A55649  36.249   8.080   7.034
 4227POPC   C4A55650  36.211   8.528   7.181
 4227POPC   C1B55651  36.021   8.432   6.232
 4227POPC   C2B55652  36.032   8.399   6.690
 4227POPC   C3B55653  35.695   8.593   6.924
 4227POPC   C4B55654  35.757   8.797   7.273
 4228POPC   NC355655  32.017   6.230   5.481
 4228POPC   PO455656  32.247   6.795   5.255
 4228POPC   GL155657  32.193   6.739   5.674
 4228POPC   GL255658  32.458   6.987   5.713
 4228POPC   C1A55659  32.076   6.588   6.098
 4228POPC   D2A55660  32.025   6.801   6.502
 4228POPC   C3A55661  32.003   6.639   6.916
 4228POPC   C4A55662  32.307   6.453   7.182
 4228POPC   C1B55663  32.375   7.006   6.157
 4228POPC   C2B55664  32.551   6.768   6.518
 4228POPC   C3B55665  32.548   6.909   6.955
 4228POPC   C4B55666  32.194   7.074   7.164
 4229POPC   NC355667  23.708   0.255   5.415
 4229POPC   PO455668  23.781   0.944   5.506
 4229POPC   GL155669  23.639   0.649   5.798
 4229POPC   GL255670  23.941   0.486   5.806
 4229POPC   C1A55671  23.568   0.378   6.163
 4229POPC   D2A55672  23.596   0.126   6.538
 4229POPC   C3A55673  23.328   0.235   6.885
 4229POPC   C4A55674  23.485   0.232   7.333
 4229POPC   C1B55675  24.017   0.575   6.235
 4229POPC   C2B55676  23.878   0.639   6.637
 4229POPC   C3B55677  23.813   0.400   6.966
 4229POPC   C4B55678  23.977   0.516   7.345
 4230POPC   NC355679  22.213   1.205   5.449
 4230POPC   PO455680  21.852   0.629   5.319
 4230POPC   GL155681  21.757   0.982   5.683
 4230POPC   GL255682  21.757   1.381   5.706
 4230POPC   C1A55683  21.962   1.146   6.099
 4230POPC   D2A55684  22.220   1.290   6.466
 4230POPC   C3A55685  22.102   1.174   6.872
 4230POPC   C4A55686  22.258   1.076   7.274
 4230POPC   C1B55687  21.819   1.657   6.111
 4230POPC   C2B55688  21.969   1.715   6.594
 4230POPC   C3B55689  21.865   1.636   7.045
 4230POPC   C4B55690  21.782   1.233   7.278
 4231POPC   NC355691  19.496   0.196   5.509
 4231POPC   PO455692  19.865   0.889   5.443
 4231POPC   GL155693  19.829   0.640   5.863
 4231POPC   GL255694  19.961   0.348   5.732
 4231POPC   C1A55695  19.633   0.510   6.328
 4231POPC   D2A55696  19.502   0.306   6.722
 4231POPC   C3A55697  19.811   0.436   7.039
 4231POPC   C4A55698  20.147   0.429   7.318
 4231POPC   C1B55699  20.073   0.293   6.186
 4231POPC   C2B55700  20.010   0.180   6.646
 4231POPC   C3B55701  20.069  44.973   7.090
 4231POPC   C4B55702  20.254   0.015   7.583
 4232POPC   NC355703  30.497  32.736   5.245
 4232POPC   PO455704  30.978  33.128   5.406
 4232POPC   GL155705  30.754  33.039   5.809
 4232POPC   GL255706  30.796  33.340   5.872
 4232POPC   C1A55707  30.507  32.832   6.161
 4232POPC   D2A55708  30.530  32.718   6.594
 4232POPC   C3A55709  30.821  32.936   6.866
 4232POPC   C4A55710  30.874  32.825   7.275
 4232POPC   C1B55711  30.595  33.317   6.285
 4232POPC   C2B55712  30.457  33.256   6.721
 4232POPC   C3B55713  30.476  33.345   7.187
 4232POPC   C4B55714  30.393  33.506   7.633
 4233POPC   NC355715  29.537  42.211   5.343
 4233POPC   PO455716  28.837  42.203   5.114
 4233POPC   GL155717  28.966  42.427   5.606
 4233POPC   GL255718  28.842  42.188   5.898
 4233POPC   C1A55719  29.224  42.445   6.079
 4233POPC   D2A55720  29.199  42.283   6.553
 4233POPC   C3A55721  29.416  42.328   6.955
 4233POPC   C4A55722  29.495  42.199   7.390
 4233POPC   C1B55723  28.756  42.324   6.318
 4233POPC   C2B55724  28.707  42.292   6.746
 4233POPC   C3B55725  28.973  42.087   7.054
 4233POPC   C4B55726  28.983  42.139   7.462
 4234POPC   NC355727   5.191  12.344   5.458
 4234POPC   PO455728   4.556  12.095   5.187
 4234POPC   GL155729   4.877  11.963   5.597
 4234POPC   GL255730   4.900  12.239   5.835
 4234POPC   C1A55731   5.025  11.844   6.104
 4234POPC   D2A55732   4.932  11.834   6.575
 4234POPC   C3A55733   5.123  11.676   6.972
 4234POPC   C4A55734   5.077  11.873   7.404
 4234POPC   C1B55735   5.123  12.417   6.173
 4234POPC   C2B55736   5.169  12.288   6.593
 4234POPC   C3B55737   4.993  12.182   6.996
 4234POPC   C4B55738   4.941  12.372   7.415
 4235POPC   NC355739  21.712  28.066   5.489
 4235POPC   PO455740  21.045  28.312   5.419
 4235POPC   GL155741  21.297  28.190   5.788
 4235POPC   GL255742  21.594  28.379   5.885
 4235POPC   C1A55743  21.135  28.250   6.201
 4235POPC   D2A55744  21.125  28.589   6.497
 4235POPC   C3A55745  21.472  28.546   6.792
 4235POPC   C4A55746  21.423  28.479   7.230
 4235POPC   C1B55747  21.586  28.007   6.172
 4235POPC   C2B55748  21.700  28.053   6.580
 4235POPC   C3B55749  21.522  27.962   6.966
 4235POPC   C4B55750  21.691  28.039   7.337
 4236POPC   NC355751  42.165  18.651   5.385
 4236POPC   PO455752  42.627  18.204   5.332
 4236POPC   GL155753  42.356  18.256   5.738
 4236POPC   GL255754  42.056  18.486   5.859
 4236POPC   C1A55755  42.235  18.149   6.176
 4236POPC   D2A55756  42.405  18.262   6.543
 4236POPC   C3A55757  42.271  18.086   6.875
 4236POPC   C4A55758  42.465  18.150   7.243
 4236POPC   C1B55759  42.259  18.658   6.229
 4236POPC   C2B55760  42.160  18.685   6.673
 4236POPC   C3B55761  42.246  18.582   7.102
 4236POPC   C4B55762  42.242  18.512   7.566
 4237POPC   NC355763  42.564  38.915   5.590
 4237POPC   PO455764  42.175  38.366   5.465
 4237POPC   GL155765  42.367  38.504   5.823
 4237POPC   GL255766  42.169  38.821   5.879
 4237POPC   C1A55767  42.549  38.303   6.193
 4237POPC   D2A55768  42.407  38.354   6.616
 4237POPC   C3A55769  42.459  38.128   6.987
 4237POPC   C4A55770  42.600  38.346   7.342
 4237POPC   C1B55771  42.194  38.694   6.271
 4237POPC   C2B55772  42.069  38.764   6.649
 4237POPC   C3B55773  42.274  38.642   7.015
 4237POPC   C4B55774  41.984  38.808   7.255
 4238POPC   NC355775  16.338   6.044   5.025
 4238POPC   PO455776  16.830   5.675   5.326
 4238POPC   GL155777  16.702   5.606   5.755
 4238POPC   GL255778  17.037   5.567   5.797
 4238POPC   C1A55779  16.533   5.782   6.186
 4238POPC   D2A55780  16.697   6.028   6.590
 4238POPC   C3A55781  16.614   5.957   7.058
 4238POPC   C4A55782  16.337   5.858   7.448
 4238POPC   C1B55783  17.046   5.817   6.176
 4238POPC   C2B55784  17.173   5.859   6.598
 4238POPC   C3B55785  17.098   6.070   6.968
 4238POPC   C4B55786  17.074   5.801   7.292
 4239POPC   NC355787  44.192  32.901   5.596
 4239POPC   PO455788  43.709  32.563   5.362
 4239POPC   GL155789  43.667  32.844   5.745
 4239POPC   GL255790  43.744  33.201   5.695
 4239POPC   C1A55791  43.811  32.850   6.200
 4239POPC   D2A55792  44.035  33.194   6.479
 4239POPC   C3A55793  44.160  33.037   6.917
 4239POPC   C4A55794  43.981  32.653   7.129
 4239POPC   C1B55795  43.617  33.313   6.110
 4239POPC   C2B55796  43.526  33.361   6.558
 4239POPC   C3B55797  43.788  33.413   6.929
 4239POPC   C4B55798  43.842  33.160   7.324
 4240POPC   NC355799  20.997  41.938   5.602
 4240POPC   PO455800  21.450  41.497   5.310
 4240POPC   GL155801  21.284  41.545   5.740
 4240POPC   GL255802  21.191  41.278   5.974
 4240POPC   C1A55803  21.310  41.757   6.157
 4240POPC   D2A55804  21.234  41.571   6.549
 4240POPC   C3A55805  21.455  41.708   6.905
 4240POPC   C4A55806  21.319  41.713   7.355
 4240POPC   C1B55807  21.620  41.293   6.218
 4240POPC   C2B55808  21.963  41.381   6.539
 4240POPC   C3B55809  21.970  41.240   6.956
 4240POPC   C4B55810  21.678  41.388   7.223
 4241POPC   NC355811   0.047  16.596   5.244
 4241POPC   PO455812   0.649  16.489   5.520
 4241POPC   GL155813   0.571  16.710   5.865
 4241POPC   GL255814   0.312  16.998   5.807
 4241POPC   C1A55815   0.739  16.600   6.261
 4241POPC   D2A55816   0.482  16.614   6.636
 4241POPC   C3A55817   0.696  16.473   7.005
 4241POPC   C4A55818   0.500  16.387   7.385
 4241POPC   C1B55819   0.560  17.087   6.212
 4241POPC   C2B55820   0.776  17.034   6.580
 4241POPC   C3B55821   0.591  16.999   6.968
 4241POPC   C4B55822   0.371  17.305   7.193
 4242POPC   NC355823  13.820   7.152   5.530
 4242POPC   PO455824  13.579   6.557   5.292
 4242POPC   GL155825  13.660   6.450   5.700
 4242POPC   GL255826  13.812   6.719   5.797
 4242POPC   C1A55827  13.606   6.391   6.139
 4242POPC   D2A55828  13.579   6.577   6.552
 4242POPC   C3A55829  13.486   6.373   6.936
 4242POPC   C4A55830  13.641   6.627   7.259
 4242POPC   C1B55831  13.937   6.797   6.218
 4242POPC   C2B55832  14.172   6.908   6.579
 4242POPC   C3B55833  14.074   6.784   6.998
 4242POPC   C4B55834  14.104   6.804   7.435
 4243POPC   NC355835  37.821  29.716   5.030
 4243POPC   PO455836  37.465  30.024   5.538
 4243POPC   GL155837  37.647  29.931   5.933
 4243POPC   GL255838  37.904  29.689   5.875
 4243POPC   C1A55839  37.631  29.906   6.377
 4243POPC   D2A55840  37.276  29.839   6.667
 4243POPC   C3A55841  37.387  29.970   7.049
 4243POPC   C4A55842  37.496  29.647   7.309
 4243POPC   C1B55843  38.135  29.816   6.249
 4243POPC   C2B55844  38.110  29.756   6.685
 4243POPC   C3B55845  37.877  29.830   7.017
 4243POPC   C4B55846  37.894  30.008   7.419
 4244POPC   NC355847  12.667  35.732   5.258
 4244POPC   PO455848  13.154  35.370   5.480
 4244POPC   GL155849  12.840  35.454   5.808
 4244POPC   GL255850  12.586  35.716   5.799
 4244POPC   C1A55851  12.855  35.382   6.246
 4244POPC   D2A55852  12.598  35.395   6.600
 4244POPC   C3A55853  12.585  35.138   6.953
 4244POPC   C4A55854  12.552  35.352   7.310
 4244POPC   C1B55855  12.810  35.875   6.201
 4244POPC   C2B55856  13.018  35.731   6.577
 4244POPC   C3B55857  12.955  35.534   6.983
 4244POPC   C4B55858  13.149  35.710   7.339
 4245POPC   NC355859   0.634  11.672   5.201
 4245POPC   PO455860   0.356  12.225   5.268
 4245POPC   GL155861   0.364  12.107   5.682
 4245POPC   GL255862   0.624  11.888   5.734
 4245POPC   C1A55863   0.172  12.016   6.083
 4245POPC   D2A55864   0.263  12.249   6.439
 4245POPC   C3A55865   0.344  12.024   6.800
 4245POPC   C4A55866   0.460  11.873   7.182
 4245POPC   C1B55867   0.670  12.132   6.127
 4245POPC   C2B55868   0.786  12.209   6.590
 4245POPC   C3B55869   0.685  12.351   7.048
 4245POPC   C4B55870   0.660  12.202   7.492
 4246POPC   NC355871  39.877  22.949   5.309
 4246POPC   PO455872  40.501  23.102   5.294
 4246POPC   GL155873  40.230  23.046   5.696
 4246POPC   GL255874  39.899  23.182   5.775
 4246POPC   C1A55875  40.111  22.843   6.117
 4246POPC   D2A55876  40.364  22.823   6.519
 4246POPC   C3A55877  40.231  22.968   6.918
 4246POPC   C4A55878  40.039  22.790   7.258
 4246POPC   C1B55879  39.716  23.314   6.191
 4246POPC   C2B55880  39.676  23.307   6.655
 4246POPC   C3B55881  39.873  23.327   7.069
 4246POPC   C4B55882  39.989  23.295   7.517
 4247POPC   NC355883  14.567  26.068   5.175
 4247POPC   PO455884  14.053  25.638   5.351
 4247POPC   GL155885  14.419  25.876   5.640
 4247POPC   GL255886  14.220  25.903   5.887
 4247POPC   C1A55887  14.593  26.125   6.112
 4247POPC   D2A55888  14.357  26.095   6.513
 4247POPC   C3A55889  14.280  26.165   6.956
 4247POPC   C4A55890  14.517  26.219   7.311
 4247POPC   C1B55891  14.603  25.645   6.065
 4247POPC   C2B55892  14.636  25.635   6.509
 4247POPC   C3B55893  14.477  25.696   6.924
 4247POPC   C4B55894  14.560  25.731   7.368
 4248POPC   NC355895   7.014  32.084   5.436
 4248POPC   PO455896   7.720  32.324   5.300
 4248POPC   GL155897   7.406  32.381   5.652
 4248POPC   GL255898   7.249  32.680   5.714
 4248POPC   C1A55899   7.269  32.215   6.069
 4248POPC   D2A55900   7.190  32.019   6.495
 4248POPC   C3A55901   7.446  32.214   6.824
 4248POPC   C4A55902   7.391  32.306   7.229
 4248POPC   C1B55903   7.096  32.723   6.103
 4248POPC   C2B55904   7.209  32.549   6.505
 4248POPC   C3B55905   7.299  32.701   6.910
 4248POPC   C4B55906   7.023  32.691   7.266
 4249POPC   NC355907  39.692   7.836   5.357
 4249POPC   PO455908  40.186   8.330   5.414
 4249POPC   GL155909  39.922   8.260   5.811
 4249POPC   GL255910  39.901   7.895   5.824
 4249POPC   C1A55911  39.771   8.346   6.280
 4249POPC   D2A55912  39.764   8.056   6.664
 4249POPC   C3A55913  39.839   8.158   7.112
 4249POPC   C4A55914  39.935   8.459   7.461
 4249POPC   C1B55915  40.099   7.984   6.188
 4249POPC   C2B55916  40.219   7.831   6.568
 4249POPC   C3B55917  40.302   7.988   6.960
 4249POPC   C4B55918  40.150   7.826   7.352
 4250POPC   NC355919  38.998   7.874   5.541
 4250POPC   PO455920  38.381   8.014   5.375
 4250POPC   GL155921  38.220   8.248   5.706
 4250POPC   GL255922  38.565   8.257   5.876
 4250POPC   C1A55923  38.137   8.147   6.134
 4250POPC   D2A55924  38.446   8.168   6.418
 4250POPC   C3A55925  38.316   8.055   6.824
 4250POPC   C4A55926  38.216   8.019   7.269
 4250POPC   C1B55927  38.831   8.492   6.196
 4250POPC   C2B55928  39.031   8.664   6.589
 4250POPC   C3B55929  38.904   8.409   6.924
 4250POPC   C4B55930  38.644   8.224   7.164
 4251POPC   NC355931   5.580   7.477   5.472
 4251POPC   PO455932   4.991   7.569   5.243
 4251POPC   GL155933   5.069   7.345   5.694
 4251POPC   GL255934   5.406   7.258   5.896
 4251POPC   C1A55935   5.006   7.449   6.154
 4251POPC   D2A55936   5.256   7.562   6.505
 4251POPC   C3A55937   5.039   7.588   6.872
 4251POPC   C4A55938   5.007   7.494   7.290
 4251POPC   C1B55939   5.407   7.077   6.341
 4251POPC   C2B55940   5.275   7.115   6.801
 4251POPC   C3B55941   5.289   7.049   7.274
 4251POPC   C4B55942   5.250   6.882   7.722
 4252POPC   NC355943  31.427  42.383   5.459
 4252POPC   PO455944  32.005  42.038   5.562
 4252POPC   GL155945  31.661  42.144   5.866
 4252POPC   GL255946  31.688  42.502   5.871
 4252POPC   C1A55947  31.357  42.269   6.227
 4252POPC   D2A55948  31.207  42.164   6.673
 4252POPC   C3A55949  31.292  42.400   7.077
 4252POPC   C4A55950  31.311  42.425   7.549
 4252POPC   C1B55951  31.873  42.416   6.251
 4252POPC   C2B55952  31.683  42.363   6.638
 4252POPC   C3B55953  31.817  42.417   7.034
 4252POPC   C4B55954  31.767  42.652   7.365
 4253POPC   NC355955  15.663   9.854   5.217
 4253POPC   PO455956  16.163   9.497   5.512
 4253POPC   GL155957  15.935   9.755   5.824
 4253POPC   GL255958  15.675  10.011   5.715
 4253POPC   C1A55959  16.087   9.872   6.241
 4253POPC   D2A55960  15.957  10.111   6.608
 4253POPC   C3A55961  15.846   9.833   6.907
 4253POPC   C4A55962  16.097   9.586   7.184
 4253POPC   C1B55963  15.650  10.147   6.150
 4253POPC   C2B55964  15.465   9.993   6.533
 4253POPC   C3B55965  15.385  10.153   6.922
 4253POPC   C4B55966  15.641  10.104   7.278
 4254POPC   NC355967  15.981  35.688   5.111
 4254POPC   PO455968  15.525  35.484   5.609
 4254POPC   GL155969  15.720  35.511   6.021
 4254POPC   GL255970  15.986  35.262   5.911
 4254POPC   C1A55971  15.891  35.422   6.452
 4254POPC   D2A55972  16.088  35.062   6.665
 4254POPC   C3A55973  15.936  35.182   7.061
 4254POPC   C4A55974  15.772  35.593   7.070
 4254POPC   C1B55975  16.253  35.505   6.132
 4254POPC   C2B55976  16.437  35.464   6.507
 4254POPC   C3B55977  16.389  35.394   6.905
 4254POPC   C4B55978  16.284  35.528   7.275
 4255POPC   NC355979  41.405   9.262   5.378
 4255POPC   PO455980  41.793   8.821   5.275
 4255POPC   GL155981  41.580   8.885   5.704
 4255POPC   GL255982  41.675   9.208   5.819
 4255POPC   C1A55983  41.439   8.966   6.181
 4255POPC   D2A55984  41.480   9.200   6.609
 4255POPC   C3A55985  41.483   8.864   6.939
 4255POPC   C4A55986  41.789   8.785   7.281
 4255POPC   C1B55987  41.830   9.320   6.253
 4255POPC   C2B55988  41.835   9.598   6.646
 4255POPC   C3B55989  41.809   9.563   7.094
 4255POPC   C4B55990  41.569   9.267   7.234
 4256POPC   NC355991  35.456  14.678   5.481
 4256POPC   PO455992  35.481  15.364   5.405
 4256POPC   GL155993  35.332  15.353   5.794
 4256POPC   GL255994  35.188  15.022   5.835
 4256POPC   C1A55995  35.488  15.377   6.201
 4256POPC   D2A55996  35.269  15.311   6.588
 4256POPC   C3A55997  35.472  15.163   6.913
 4256POPC   C4A55998  35.608  15.128   7.318
 4256POPC   C1B55999  35.288  14.923   6.227
 4256POPC   C2B56000  35.183  14.813   6.607
 4256POPC   C3B56001  35.001  14.757   6.940
 4256POPC   C4B56002  35.278  14.773   7.220
 4257POPC   NC356003  16.865  22.364   5.576
 4257POPC   PO456004  16.354  21.989   5.542
 4257POPC   GL156005  16.537  22.122   5.915
 4257POPC   GL256006  16.901  22.123   6.012
 4257POPC   C1A56007  16.541  22.351   6.297
 4257POPC   D2A56008  16.780  22.162   6.625
 4257POPC   C3A56009  16.638  22.230   7.044
 4257POPC   C4A56010  16.704  22.393   7.472
 4257POPC   C1B56011  17.042  22.480   6.278
 4257POPC   C2B56012  16.881  22.702   6.666
 4257POPC   C3B56013  16.837  22.746   7.137
 4257POPC   C4B56014  17.065  22.738   7.582
 4258POPC   NC356015   3.740  41.694   5.436
 4258POPC   PO456016   3.099  41.345   5.316
 4258POPC   GL156017   3.390  41.393   5.649
 4258POPC   GL256018   3.734  41.256   5.698
 4258POPC   C1A56019   3.467  41.574   6.076
 4258POPC   D2A56020   3.383  41.377   6.486
 4258POPC   C3A56021   3.554  41.514   6.893
 4258POPC   C4A56022   3.377  41.467   7.296
 4258POPC   C1B56023   3.819  41.221   6.175
 4258POPC   C2B56024   3.908  41.173   6.653
 4258POPC   C3B56025   4.041  41.424   7.053
 4258POPC   C4B56026   3.845  41.568   7.457
 4259POPC   NC356027  16.001  17.607   5.375
 4259POPC   PO456028  15.973  17.019   5.595
 4259POPC   GL156029  15.862  17.376   5.832
 4259POPC   GL256030  16.162  17.530   5.859
 4259POPC   C1A56031  15.849  17.381   6.266
 4259POPC   D2A56032  15.871  17.201   6.657
 4259POPC   C3A56033  15.688  17.373   7.015
 4259POPC   C4A56034  15.797  17.477   7.440
 4259POPC   C1B56035  16.249  17.737   6.233
 4259POPC   C2B56036  16.148  17.701   6.653
 4259POPC   C3B56037  16.155  17.606   7.083
 4259POPC   C4B56038  16.184  17.842   7.439
 4260POPC   NC356039  25.471  44.798   5.404
 4260POPC   PO456040  24.842  44.989   5.415
 4260POPC   GL156041  24.999  44.720   5.799
 4260POPC   GL256042  25.359  44.702   5.874
 4260POPC   C1A56043  25.049  44.695   6.274
 4260POPC   D2A56044  24.925  44.477   6.649
 4260POPC   C3A56045  24.969  44.579   7.095
 4260POPC   C4A56046  25.031  44.552   7.565
 4260POPC   C1B56047  25.415  44.298   6.038
 4260POPC   C2B56048  25.380  44.290   6.469
 4260POPC   C3B56049  25.436  44.560   6.832
 4260POPC   C4B56050  25.454  44.494   7.272
 4261POPC   NC356051  28.817   1.463   5.370
 4261POPC   PO456052  29.374   1.106   5.177
 4261POPC   GL156053  29.144   1.158   5.625
 4261POPC   GL256054  29.209   1.449   5.776
 4261POPC   C1A56055  29.237   1.076   6.114
 4261POPC   D2A56056  29.306   1.200   6.559
 4261POPC   C3A56057  29.000   1.039   6.857
 4261POPC   C4A56058  29.197   1.041   7.256
 4261POPC   C1B56059  29.210   1.596   6.236
 4261POPC   C2B56060  28.921   1.533   6.585
 4261POPC   C3B56061  29.089   1.520   6.987
 4261POPC   C4B56062  29.357   1.521   7.320
 4262POPC   NC356063  13.417  10.666   5.365
 4262POPC   PO456064  13.898  10.558   5.778
 4262POPC   GL156065  13.555  10.423   5.982
 4262POPC   GL256066  13.234  10.541   5.917
 4262POPC   C1A56067  13.695  10.395   6.390
 4262POPC   D2A56068  13.941  10.635   6.615
 4262POPC   C3A56069  13.872  10.448   6.949
 4262POPC   C4A56070  13.786  10.478   7.330
 4262POPC   C1B56071  13.190  10.423   6.367
 4262POPC   C2B56072  13.376  10.525   6.797
 4262POPC   C3B56073  13.301  10.508   7.250
 4262POPC   C4B56074  13.422  10.571   7.714
 4263POPC   NC356075  21.877  19.500   5.582
 4263POPC   PO456076  22.313  19.927   5.432
 4263POPC   GL156077  22.336  19.973   5.880
 4263POPC   GL256078  22.365  20.313   5.825
 4263POPC   C1A56079  22.212  19.837   6.297
 4263POPC   D2A56080  21.818  19.820   6.512
 4263POPC   C3A56081  21.851  19.638   6.933
 4263POPC   C4A56082  22.196  19.610   7.259
 4263POPC   C1B56083  22.009  20.283   6.155
 4263POPC   C2B56084  22.083  20.289   6.612
 4263POPC   C3B56085  22.180  20.041   6.987
 4263POPC   C4B56086  22.523  20.070   7.306
 4264POPC   NC356087  11.686   9.820   5.369
 4264POPC   PO456088  11.101   9.446   5.452
 4264POPC   GL156089  11.451   9.513   5.766
 4264POPC   GL256090  11.488   9.886   5.824
 4264POPC   C1A56091  11.333   9.387   6.189
 4264POPC   D2A56092  11.119   9.370   6.600
 4264POPC   C3A56093  11.219   9.663   6.953
 4264POPC   C4A56094  10.997   9.775   7.325
 4264POPC   C1B56095  11.644   9.842   6.211
 4264POPC   C2B56096  11.499   9.898   6.592
 4264POPC   C3B56097  11.676   9.892   6.971
 4264POPC   C4B56098  11.453   9.995   7.314
 4265POPC   NC356099  15.597   3.693   5.541
 4265POPC   PO456100  16.197   3.380   5.598
 4265POPC   GL156101  15.821   3.343   5.838
 4265POPC   GL256102  15.829   3.687   6.013
 4265POPC   C1A56103  15.584   3.273   6.203
 4265POPC   D2A56104  15.747   3.558   6.525
 4265POPC   C3A56105  15.758   3.327   6.886
 4265POPC   C4A56106  15.621   3.445   7.289
 4265POPC   C1B56107  16.133   3.926   6.295
 4265POPC   C2B56108  16.247   4.066   6.691
 4265POPC   C3B56109  15.989   3.827   6.928
 4265POPC   C4B56110  16.104   3.529   7.198
 4266POPC   NC356111  23.296  20.202   5.237
 4266POPC   PO456112  23.868  19.756   5.329
 4266POPC   GL156113  23.636  19.980   5.710
 4266POPC   GL256114  23.941  19.883   5.846
 4266POPC   C1A56115  23.559  19.850   6.173
 4266POPC   D2A56116  23.517  19.612   6.553
 4266POPC   C3A56117  23.503  19.851   6.920
 4266POPC   C4A56118  23.261  19.908   7.280
 4266POPC   C1B56119  24.081  19.645   6.190
 4266POPC   C2B56120  24.000  19.415   6.568
 4266POPC   C3B56121  23.955  19.597   6.937
 4266POPC   C4B56122  23.911  19.701   7.336
 4267POPC   NC356123   1.122  25.261   5.238
 4267POPC   PO456124   0.932  24.658   5.441
 4267POPC   GL156125   1.011  25.044   5.709
 4267POPC   GL256126   0.994  25.433   5.729
 4267POPC   C1A56127   1.073  25.152   6.160
 4267POPC   D2A56128   0.904  25.302   6.573
 4267POPC   C3A56129   1.077  25.000   6.896
 4267POPC   C4A56130   1.348  25.088   7.243
 4267POPC   C1B56131   0.999  25.662   6.165
 4267POPC   C2B56132   0.903  25.842   6.595
 4267POPC   C3B56133   0.897  25.704   7.036
 4267POPC   C4B56134   1.014  25.604   7.490
 4268POPC   NC356135  33.488  34.828   5.361
 4268POPC   PO456136  33.764  34.163   5.401
 4268POPC   GL156137  33.648  34.487   5.729
 4268POPC   GL256138  33.444  34.406   5.998
 4268POPC   C1A56139  33.824  34.763   6.091
 4268POPC   D2A56140  34.014  34.740   6.518
 4268POPC   C3A56141  33.768  34.640   6.895
 4268POPC   C4A56142  33.865  34.651   7.317
 4268POPC   C1B56143  33.589  34.453   6.422
 4268POPC   C2B56144  33.651  34.164   6.764
 4268POPC   C3B56145  33.543  34.248   7.215
 4268POPC   C4B56146  33.454  34.483   7.637
 4269POPC   NC356147  43.144  22.995   5.269
 4269POPC   PO456148  42.838  22.445   5.502
 4269POPC   GL156149  43.099  22.729   5.766
 4269POPC   GL256150  42.975  23.047   5.772
 4269POPC   C1A56151  43.293  22.933   6.156
 4269POPC   D2A56152  43.102  23.038   6.571
 4269POPC   C3A56153  43.367  22.989   6.936
 4269POPC   C4A56154  43.380  22.832   7.326
 4269POPC   C1B56155  42.771  22.890   6.146
 4269POPC   C2B56156  42.699  22.698   6.524
 4269POPC   C3B56157  42.644  22.752   6.950
 4269POPC   C4B56158  42.920  22.960   7.180
 4270POPC   NC356159   4.419  43.286   5.254
 4270POPC   PO456160   3.890  42.897   5.515
 4270POPC   GL156161   4.253  43.031   5.669
 4270POPC   GL256162   4.505  42.787   5.533
 4270POPC   C1A56163   4.184  43.048   6.130
 4270POPC   D2A56164   4.065  42.869   6.530
 4270POPC   C3A56165   3.935  43.136   6.866
 4270POPC   C4A56166   4.224  43.140   7.222
 4270POPC   C1B56167   4.636  42.871   5.957
 4270POPC   C2B56168   4.602  42.932   6.426
 4270POPC   C3B56169   4.602  42.913   6.913
 4270POPC   C4B56170   4.732  43.269   7.175
 4271POPC   NC356171  14.612  11.032   5.419
 4271POPC   PO456172  14.121  11.498   5.519
 4271POPC   GL156173  14.495  11.424   5.809
 4271POPC   GL256174  14.572  11.110   5.923
 4271POPC   C1A56175  14.638  11.528   6.243
 4271POPC   D2A56176  14.721  11.310   6.642
 4271POPC   C3A56177  14.444  11.410   6.977
 4271POPC   C4A56178  14.472  11.726   7.278
 4271POPC   C1B56179  14.253  11.027   6.253
 4271POPC   C2B56180  14.110  11.111   6.683
 4271POPC   C3B56181  14.111  11.003   7.122
 4271POPC   C4B56182  14.222  11.291   7.450
 4272POPC   NC356183  35.095   6.682   5.452
 4272POPC   PO456184  35.737   6.526   5.387
 4272POPC   GL156185  35.577   6.678   5.802
 4272POPC   GL256186  35.242   6.828   5.918
 4272POPC   C1A56187  35.632   6.784   6.263
 4272POPC   D2A56188  35.507   6.928   6.699
 4272POPC   C3A56189  35.545   6.622   7.016
 4272POPC   C4A56190  35.255   6.382   7.254
 4272POPC   C1B56191  35.219   7.110   6.286
 4272POPC   C2B56192  35.005   7.074   6.682
 4272POPC   C3B56193  35.090   6.868   7.088
 4272POPC   C4B56194  34.809   6.602   7.387
 4273POPC   NC356195   7.083  22.059   5.263
 4273POPC   PO456196   7.533  21.629   5.360
 4273POPC   GL156197   7.467  21.764   5.796
 4273POPC   GL256198   7.233  22.066   5.801
 4273POPC   C1A56199   7.655  22.054   6.107
 4273POPC   D2A56200   7.658  22.220   6.506
 4273POPC   C3A56201   7.378  22.047   6.771
 4273POPC   C4A56202   7.433  22.189   7.174
 4273POPC   C1B56203   7.225  22.312   6.221
 4273POPC   C2B56204   7.261  22.538   6.649
 4273POPC   C3B56205   7.234  22.680   7.111
 4273POPC   C4B56206   7.133  22.511   7.516
 4274POPC   NC356207  21.442  33.077   5.283
 4274POPC   PO456208  20.901  33.014   5.560
 4274POPC   GL156209  21.243  32.950   5.745
 4274POPC   GL256210  21.373  33.304   5.731
 4274POPC   C1A56211  21.283  32.968   6.167
 4274POPC   D2A56212  21.584  32.926   6.492
 4274POPC   C3A56213  21.341  33.018   6.850
 4274POPC   C4A56214  21.463  32.950   7.271
 4274POPC   C1B56215  21.661  33.296   6.097
 4274POPC   C2B56216  21.578  33.432   6.540
 4274POPC   C3B56217  21.663  33.403   6.988
 4274POPC   C4B56218  21.613  33.415   7.439
 4275POPC   NC356219  15.518  17.143   5.525
 4275POPC   PO456220  15.805  16.593   5.209
 4275POPC   GL156221  15.777  16.581   5.754
 4275POPC   GL256222  15.508  16.765   5.863
 4275POPC   C1A56223  16.003  16.733   6.188
 4275POPC   D2A56224  16.195  16.809   6.637
 4275POPC   C3A56225  16.136  16.569   7.045
 4275POPC   C4A56226  16.006  16.493   7.500
 4275POPC   C1B56227  15.549  16.936   6.285
 4275POPC   C2B56228  15.530  16.805   6.728
 4275POPC   C3B56229  15.718  16.845   7.137
 4275POPC   C4B56230  15.862  16.981   7.546
 4276POPC   NC356231  36.423  19.567   5.555
 4276POPC   PO456232  36.112  19.045   5.455
 4276POPC   GL156233  36.203  19.199   5.853
 4276POPC   GL256234  35.943  19.432   5.870
 4276POPC   C1A56235  36.313  19.376   6.245
 4276POPC   D2A56236  36.203  19.151   6.637
 4276POPC   C3A56237  36.377  19.274   7.028
 4276POPC   C4A56238  36.257  19.008   7.360
 4276POPC   C1B56239  35.822  19.292   6.304
 4276POPC   C2B56240  35.765  19.401   6.739
 4276POPC   C3B56241  35.882  19.344   7.173
 4276POPC   C4B56242  35.927  19.318   7.645
 4277POPC   NC356243  42.208  25.057   5.461
 4277POPC   PO456244  42.776  25.241   5.290
 4277POPC   GL156245  42.761  25.274   5.773
 4277POPC   GL256246  42.433  25.223   5.868
 4277POPC   C1A56247  42.674  25.518   6.194
 4277POPC   D2A56248  42.530  25.477   6.662
 4277POPC   C3A56249  42.644  25.133   6.929
 4277POPC   C4A56250  42.574  24.912   7.298
 4277POPC   C1B56251  42.241  25.250   6.244
 4277POPC   C2B56252  42.249  24.998   6.605
 4277POPC   C3B56253  42.151  24.982   7.018
 4277POPC   C4B56254  41.866  24.910   7.307
 4278POPC   NC356255  33.559  14.638   5.352
 4278POPC   PO456256  34.185  14.387   5.362
 4278POPC   GL156257  34.107  14.579   5.807
 4278POPC   GL256258  33.937  14.275   5.889
 4278POPC   C1A56259  34.053  14.557   6.303
 4278POPC   D2A56260  33.878  14.612   6.727
 4278POPC   C3A56261  34.021  14.382   7.108
 4278POPC   C4A56262  33.910  14.233   7.576
 4278POPC   C1B56263  33.819  14.103   6.320
 4278POPC   C2B56264  33.741  14.119   6.768
 4278POPC   C3B56265  33.745  13.953   7.188
 4278POPC   C4B56266  33.729  13.692   7.558
 4279POPC   NC356267  30.683  43.830   5.328
 4279POPC   PO456268  30.535  43.267   5.368
 4279POPC   GL156269  30.445  43.612   5.741
 4279POPC   GL256270  30.712  43.891   5.818
 4279POPC   C1A56271  30.451  43.737   6.210
 4279POPC   D2A56272  30.655  43.634   6.590
 4279POPC   C3A56273  30.454  43.716   6.979
 4279POPC   C4A56274  30.529  43.561   7.392
 4279POPC   C1B56275  30.675  44.239   6.106
 4279POPC   C2B56276  30.643  44.252   6.530
 4279POPC   C3B56277  30.604  44.268   6.975
 4279POPC   C4B56278  30.704  44.038   7.344
 4280POPC   NC356279  41.485  41.651   5.442
 4280POPC   PO456280  41.005  42.104   5.556
 4280POPC   GL156281  41.335  41.872   5.869
 4280POPC   GL256282  41.730  41.837   5.949
 4280POPC   C1A56283  41.377  41.594   6.239
 4280POPC   D2A56284  41.187  41.514   6.629
 4280POPC   C3A56285  41.410  41.368   6.976
 4280POPC   C4A56286  41.779  41.561   7.169
 4280POPC   C1B56287  41.861  41.461   6.216
 4280POPC   C2B56288  41.688  41.239   6.550
 4280POPC   C3B56289  41.809  41.074   6.936
 4280POPC   C4B56290  42.083  41.125   7.225
 4281POPC   NC356291   7.304   0.117   5.357
 4281POPC   PO456292   7.832  44.620   5.290
 4281POPC   GL156293   7.654  44.725   5.764
 4281POPC   GL256294   7.419  44.458   5.971
 4281POPC   C1A56295   7.493  44.914   6.142
 4281POPC   D2A56296   7.501  44.694   6.533
 4281POPC   C3A56297   7.431  44.871   6.936
 4281POPC   C4A56298   7.728  44.745   7.237
 4281POPC   C1B56299   7.252  44.061   6.184
 4281POPC   C2B56300   7.048  44.040   6.602
 4281POPC   C3B56301   7.200  44.388   6.833
 4281POPC   C4B56302   7.337  44.456   7.214
 4282POPC   NC356303   6.898  16.840   5.406
 4282POPC   PO456304   6.352  17.163   5.467
 4282POPC   GL156305   6.550  16.936   5.797
 4282POPC   GL256306   6.472  16.590   5.782
 4282POPC   C1A56307   6.592  16.994   6.223
 4282POPC   D2A56308   6.512  17.128   6.605
 4282POPC   C3A56309   6.585  16.898   6.961
 4282POPC   C4A56310   6.823  16.878   7.326
 4282POPC   C1B56311   6.665  16.480   6.196
 4282POPC   C2B56312   6.802  16.632   6.567
 4282POPC   C3B56313   6.904  16.512   6.963
 4282POPC   C4B56314   6.576  16.450   7.239
 4283POPC   NC356315   8.128  44.814   5.583
 4283POPC   PO456316   8.194   0.457   5.276
 4283POPC   GL156317   8.265   0.314   5.727
 4283POPC   GL256318   8.577   0.328   5.801
 4283POPC   C1A56319   8.145   0.512   6.173
 4283POPC   D2A56320   7.930   0.504   6.608
 4283POPC   C3A56321   8.152   0.569   7.012
 4283POPC   C4A56322   8.224   0.495   7.453
 4283POPC   C1B56323   8.480   0.142   6.238
 4283POPC   C2B56324   8.378   0.248   6.678
 4283POPC   C3B56325   8.497   0.194   7.136
 4283POPC   C4B56326   8.650   0.223   7.571
 4284POPC   NC356327  41.890  28.492   5.349
 4284POPC   PO456328  42.454  27.978   5.258
 4284POPC   GL156329  42.256  27.931   5.674
 4284POPC   GL256330  42.050  28.217   5.777
 4284POPC   C1A56331  42.417  27.998   6.102
 4284POPC   D2A56332  42.493  28.345   6.382
 4284POPC   C3A56333  42.360  28.251   6.780
 4284POPC   C4A56334  42.189  28.101   7.137
 4284POPC   C1B56335  42.008  28.431   6.192
 4284POPC   C2B56336  42.074  28.697   6.582
 4284POPC   C3B56337  42.049  28.583   7.020
 4284POPC   C4B56338  42.057  28.667   7.457
 4285POPC   NC356339   1.288  40.991   5.282
 4285POPC   PO456340   1.121  40.419   5.291
 4285POPC   GL156341   1.167  40.681   5.710
 4285POPC   GL256342   1.387  40.954   5.879
 4285POPC   C1A56343   1.283  40.529   6.144
 4285POPC   D2A56344   1.303  40.210   6.466
 4285POPC   C3A56345   1.202  40.252   6.899
 4285POPC   C4A56346   1.107  40.426   7.311
 4285POPC   C1B56347   1.400  40.992   6.329
 4285POPC   C2B56348   1.432  40.702   6.648
 4285POPC   C3B56349   1.186  40.781   6.957
 4285POPC   C4B56350   1.267  40.905   7.338
 4286POPC   NC356351  38.452  26.195   5.234
 4286POPC   PO456352  38.090  25.626   5.332
 4286POPC   GL156353  38.342  25.907   5.683
 4286POPC   GL256354  38.534  26.195   5.737
 4286POPC   C1A56355  38.284  26.004   6.151
 4286POPC   D2A56356  38.106  26.194   6.551
 4286POPC   C3A56357  38.282  26.065   6.949
 4286POPC   C4A56358  38.676  25.753   7.007
 4286POPC   C1B56359  38.731  26.232   6.146
 4286POPC   C2B56360  38.681  26.072   6.554
 4286POPC   C3B56361  38.761  26.243   6.944
 4286POPC   C4B56362  38.568  26.292   7.314
 4287POPC   NC356363  41.410  16.220   5.107
 4287POPC   PO456364  41.278  16.789   5.220
 4287POPC   GL156365  41.427  17.024   5.662
 4287POPC   GL256366  41.775  17.168   5.733
 4287POPC   C1A56367  41.491  17.032   6.171
 4287POPC   D2A56368  41.686  17.271   6.552
 4287POPC   C3A56369  41.517  17.079   6.948
 4287POPC   C4A56370  41.408  16.656   7.138
 4287POPC   C1B56371  41.992  17.117   6.173
 4287POPC   C2B56372  41.980  16.865   6.601
 4287POPC   C3B56373  41.912  16.786   7.062
 4287POPC   C4B56374  41.709  16.974   7.432
 4288POPC   NC356375  43.227  19.498   5.374
 4288POPC   PO456376  43.378  20.085   5.222
 4288POPC   GL156377  43.219  20.000   5.657
 4288POPC   GL256378  43.024  19.713   5.805
 4288POPC   C1A56379  43.245  20.060   6.121
 4288POPC   D2A56380  43.091  19.743   6.437
 4288POPC   C3A56381  43.100  19.843   6.890
 4288POPC   C4A56382  43.269  20.059   7.265
 4288POPC   C1B56383  42.746  19.963   6.106
 4288POPC   C2B56384  42.738  20.091   6.540
 4288POPC   C3B56385  42.603  20.008   6.978
 4288POPC   C4B56386  42.798  19.701   7.292
 4289POPC   NC356387  36.543  17.710   5.118
 4289POPC   PO456388  36.937  17.374   5.529
 4289POPC   GL156389  36.933  17.476   5.903
 4289POPC   GL256390  36.592  17.539   5.928
 4289POPC   C1A56391  36.968  17.239   6.262
 4289POPC   D2A56392  36.871  17.281   6.692
 4289POPC   C3A56393  37.108  17.200   7.027
 4289POPC   C4A56394  37.106  17.424   7.379
 4289POPC   C1B56395  36.626  17.613   6.376
 4289POPC   C2B56396  36.557  17.646   6.817
 4289POPC   C3B56397  36.624  17.381   7.153
 4289POPC   C4B56398  36.543  17.324   7.604
 4290POPC   NC356399  32.433  42.192   5.475
 4290POPC   PO456400  32.452  42.889   5.477
 4290POPC   GL156401  32.367  42.577   5.820
 4290POPC   GL256402  32.118  42.778   5.935
 4290POPC   C1A56403  32.373  42.196   6.143
 4290POPC   D2A56404  32.385  42.053   6.613
 4290POPC   C3A56405  32.400  42.170   7.102
 4290POPC   C4A56406  32.581  42.383   7.518
 4290POPC   C1B56407  32.321  42.649   6.355
 4290POPC   C2B56408  32.247  42.542   6.781
 4290POPC   C3B56409  32.259  42.674   7.233
 4290POPC   C4B56410  32.134  42.850   7.669
 4291POPC   NC356411  16.188  39.211   5.519
 4291POPC   PO456412  16.934  39.309   5.372
 4291POPC   GL156413  16.749  39.379   5.741
 4291POPC   GL256414  16.582  39.065   5.822
 4291POPC   C1A56415  16.915  39.308   6.149
 4291POPC   D2A56416  16.777  39.059   6.513
 4291POPC   C3A56417  16.735  39.296   6.898
 4291POPC   C4A56418  16.963  39.459   7.259
 4291POPC   C1B56419  16.404  39.283   6.228
 4291POPC   C2B56420  16.278  39.158   6.650
 4291POPC   C3B56421  16.359  38.933   7.046
 4291POPC   C4B56422  16.309  39.096   7.465
 4292POPC   NC356423  16.176  19.096   5.516
 4292POPC   PO456424  15.598  18.601   5.586
 4292POPC   GL156425  15.711  18.941   5.780
 4292POPC   GL256426  16.018  18.756   5.884
 4292POPC   C1A56427  15.658  19.316   6.016
 4292POPC   D2A56428  15.799  19.301   6.443
 4292POPC   C3A56429  15.613  19.141   6.801
 4292POPC   C4A56430  15.846  19.304   7.146
 4292POPC   C1B56431  15.805  18.799   6.282
 4292POPC   C2B56432  16.017  18.865   6.678
 4292POPC   C3B56433  16.082  18.849   7.115
 4292POPC   C4B56434  16.376  19.050   7.366
 4293POPC   NC356435  27.828  41.202   5.501
 4293POPC   PO456436  27.387  40.772   5.221
 4293POPC   GL156437  27.408  40.855   5.676
 4293POPC   GL256438  27.359  41.217   5.776
 4293POPC   C1A56439  27.419  40.598   6.063
 4293POPC   D2A56440  27.287  40.526   6.496
 4293POPC   C3A56441  27.628  40.440   6.786
 4293POPC   C4A56442  27.585  40.582   7.183
 4293POPC   C1B56443  27.602  41.088   6.156
 4293POPC   C2B56444  27.731  40.887   6.559
 4293POPC   C3B56445  27.667  41.047   7.005
 4293POPC   C4B56446  27.667  41.364   7.377
 4294POPC   NC356447  40.732  23.426   5.514
 4294POPC   PO456448  40.604  24.058   5.464
 4294POPC   GL156449  40.750  23.805   5.850
 4294POPC   GL256450  41.106  23.705   5.794
 4294POPC   C1A56451  40.796  23.462   6.177
 4294POPC   D2A56452  40.684  23.350   6.609
 4294POPC   C3A56453  40.857  23.654   6.895
 4294POPC   C4A56454  40.722  23.974   7.177
 4294POPC   C1B56455  41.179  23.871   6.229
 4294POPC   C2B56456  41.310  23.867   6.710
 4294POPC   C3B56457  41.225  23.855   7.184
 4294POPC   C4B56458  41.073  24.028   7.578
 4295POPC   NC356459  41.165  26.110   5.412
 4295POPC   PO456460  40.578  25.786   5.450
 4295POPC   GL156461  40.565  26.037   5.823
 4295POPC   GL256462  40.836  26.292   5.813
 4295POPC   C1A56463  40.753  25.976   6.238
 4295POPC   D2A56464  41.059  25.863   6.561
 4295POPC   C3A56465  40.904  25.949   6.982
 4295POPC   C4A56466  40.649  26.136   7.321
 4295POPC   C1B56467  41.090  26.376   6.204
 4295POPC   C2B56468  40.985  26.454   6.658
 4295POPC   C3B56469  41.071  26.413   7.109
 4295POPC   C4B56470  41.016  26.357   7.596
 4296POPC   NC356471  13.054  16.592   5.355
 4296POPC   PO456472  12.625  17.053   5.386
 4296POPC   GL156473  12.890  16.869   5.744
 4296POPC   GL256474  12.802  16.503   5.810
 4296POPC   C1A56475  13.032  16.852   6.166
 4296POPC   D2A56476  12.957  17.088   6.543
 4296POPC   C3A56477  12.958  16.962   6.944
 4296POPC   C4A56478  12.649  16.964   7.222
 4296POPC   C1B56479  12.948  16.341   6.211
 4296POPC   C2B56480  13.010  16.534   6.616
 4296POPC   C3B56481  12.804  16.480   7.031
 4296POPC   C4B56482  12.984  16.587   7.405
 4297POPC   NC356483  18.428   7.869   5.471
 4297POPC   PO456484  18.264   7.168   5.415
 4297POPC   GL156485  18.280   7.424   5.831
 4297POPC   GL256486  18.427   7.743   5.969
 4297POPC   C1A56487  18.302   7.377   6.296
 4297POPC   D2A56488  18.073   7.387   6.695
 4297POPC   C3A56489  18.324   7.276   7.040
 4297POPC   C4A56490  18.252   7.383   7.429
 4297POPC   C1B56491  18.134   7.891   6.319
 4297POPC   C2B56492  17.948   7.902   6.741
 4297POPC   C3B56493  18.133   7.766   7.125
 4297POPC   C4B56494  17.945   7.752   7.566
 4298POPC   NC356495  27.009  37.937   5.259
 4298POPC   PO456496  26.549  38.311   5.511
 4298POPC   GL156497  26.703  38.476   5.882
 4298POPC   GL256498  26.985  38.273   5.905
 4298POPC   C1A56499  26.502  38.516   6.304
 4298POPC   D2A56500  26.658  38.377   6.695
 4298POPC   C3A56501  26.614  38.600   7.054
 4298POPC   C4A56502  26.712  38.401   7.429
 4298POPC   C1B56503  27.022  38.516   6.301
 4298POPC   C2B56504  27.167  38.516   6.722
 4298POPC   C3B56505  27.140  38.513   7.150
 4298POPC   C4B56506  27.197  38.279   7.539
 4299POPC   NC356507  27.873  42.668   5.464
 4299POPC   PO456508  27.250  42.379   5.367
 4299POPC   GL156509  27.436  42.221   5.733
 4299POPC   GL256510  27.599  42.490   5.885
 4299POPC   C1A56511  27.315  42.091   6.149
 4299POPC   D2A56512  27.422  41.921   6.557
 4299POPC   C3A56513  27.237  42.109   6.925
 4299POPC   C4A56514  27.518  42.224   7.211
 4299POPC   C1B56515  27.623  42.533   6.331
 4299POPC   C2B56516  27.724  42.326   6.732
 4299POPC   C3B56517  27.924  42.515   7.087
 4299POPC   C4B56518  27.584  42.790   7.148
 4300POPC   NC356519  39.057   5.451   5.353
 4300POPC   PO456520  39.661   5.105   5.430
 4300POPC   GL156521  39.311   5.139   5.723
 4300POPC   GL256522  39.364   5.516   5.744
 4300POPC   C1A56523  39.134   4.990   6.143
 4300POPC   D2A56524  39.304   4.875   6.555
 4300POPC   C3A56525  39.088   4.909   6.947
 4300POPC   C4A56526  38.912   5.285   7.132
 4300POPC   C1B56527  39.370   5.424   6.172
 4300POPC   C2B56528  39.505   5.343   6.553
 4300POPC   C3B56529  39.372   5.368   6.949
 4300POPC   C4B56530  39.641   5.508   7.246
 4301POPC   NC356531  34.600  35.786   5.112
 4301POPC   PO456532  34.758  36.286   5.480
 4301POPC   GL156533  34.629  36.183   5.853
 4301POPC   GL256534  34.519  35.887   5.721
 4301POPC   C1A56535  34.686  36.269   6.286
 4301POPC   D2A56536  34.531  36.544   6.577
 4301POPC   C3A56537  34.437  36.265   6.900
 4301POPC   C4A56538  34.357  36.031   7.263
 4301POPC   C1B56539  34.640  35.768   6.159
 4301POPC   C2B56540  34.581  35.852   6.600
 4301POPC   C3B56541  34.780  35.810   6.963
 4301POPC   C4B56542  34.805  35.814   7.361
 4302POPC   NC356543  32.063  21.764   5.705
 4302POPC   PO456544  31.933  22.339   5.415
 4302POPC   GL156545  32.166  22.276   5.787
 4302POPC   GL256546  31.865  22.192   5.944
 4302POPC   C1A56547  32.466  22.215   6.137
 4302POPC   D2A56548  32.664  22.447   6.498
 4302POPC   C3A56549  32.605  22.309   6.928
 4302POPC   C4A56550  32.402  22.029   7.199
 4302POPC   C1B56551  32.006  22.029   6.322
 4302POPC   C2B56552  32.131  22.124   6.752
 4302POPC   C3B56553  31.975  22.297   7.148
 4302POPC   C4B56554  31.796  22.054   7.497
 4303POPC   NC356555  24.483  14.194   5.361
 4303POPC   PO456556  25.016  14.663   5.365
 4303POPC   GL156557  24.774  14.463   5.703
 4303POPC   GL256558  24.803  14.101   5.766
 4303POPC   C1A56559  24.464  14.449   6.037
 4303POPC   D2A56560  24.565  14.596   6.450
 4303POPC   C3A56561  24.345  14.500   6.803
 4303POPC   C4A56562  24.338  14.794   7.142
 4303POPC   C1B56563  24.928  14.268   6.161
 4303POPC   C2B56564  24.823  14.167   6.571
 4303POPC   C3B56565  24.826  14.337   6.968
 4303POPC   C4B56566  24.459  14.325   7.267
 4304POPC   NC356567  22.618  26.848   4.897
 4304POPC   PO456568  22.090  27.041   5.350
 4304POPC   GL156569  22.267  26.849   5.732
 4304POPC   GL256570  22.011  27.051   5.889
 4304POPC   C1A56571  22.424  26.731   6.150
 4304POPC   D2A56572  22.312  26.859   6.580
 4304POPC   C3A56573  22.602  26.958   6.898
 4304POPC   C4A56574  22.561  26.813   7.262
 4304POPC   C1B56575  21.899  26.867   6.273
 4304POPC   C2B56576  21.805  27.053   6.676
 4304POPC   C3B56577  22.093  27.088   7.005
 4304POPC   C4B56578  22.090  26.633   7.112
 4305POPC   NC356579  43.536  22.085   5.132
 4305POPC   PO456580  44.262  22.172   5.281
 4305POPC   GL156581  44.042  22.186   5.730
 4305POPC   GL256582  43.726  22.363   5.766
 4305POPC   C1A56583  43.873  22.062   6.164
 4305POPC   D2A56584  43.710  22.043   6.592
 4305POPC   C3A56585  43.981  22.203   6.903
 4305POPC   C4A56586  43.953  22.111   7.304
 4305POPC   C1B56587  43.637  22.537   6.166
 4305POPC   C2B56588  43.764  22.564   6.608
 4305POPC   C3B56589  43.576  22.480   7.010
 4305POPC   C4B56590  43.561  22.391   7.469
 4306POPC   NC356591   6.235  17.604   5.429
 4306POPC   PO456592   6.950  17.670   5.295
 4306POPC   GL156593   6.785  17.407   5.673
 4306POPC   GL256594   6.457  17.463   5.879
 4306POPC   C1A56595   6.909  17.372   6.118
 4306POPC   D2A56596   6.877  17.600   6.533
 4306POPC   C3A56597   6.796  17.390   6.924
 4306POPC   C4A56598   7.002  17.352   7.286
 4306POPC   C1B56599   6.402  17.540   6.328
 4306POPC   C2B56600   6.321  17.579   6.762
 4306POPC   C3B56601   6.294  17.285   7.077
 4306POPC   C4B56602   6.524  17.257   7.469
 4307POPC   NC356603  12.108  24.291   5.561
 4307POPC   PO456604  12.055  24.933   5.638
 4307POPC   GL156605  12.010  24.618   5.940
 4307POPC   GL256606  11.948  24.237   6.017
 4307POPC   C1A56607  12.202  24.575   6.321
 4307POPC   D2A56608  12.412  24.421   6.664
 4307POPC   C3A56609  12.239  24.503   7.060
 4307POPC   C4A56610  12.594  24.520   7.289
 4307POPC   C1B56611  11.713  24.423   6.297
 4307POPC   C2B56612  11.840  24.550   6.688
 4307POPC   C3B56613  11.770  24.277   7.020
 4307POPC   C4B56614  11.829  24.388   7.428
 4308POPC   NC356615  26.303  18.042   5.425
 4308POPC   PO456616  26.899  18.346   5.517
 4308POPC   GL156617  26.756  18.378   5.900
 4308POPC   GL256618  26.500  18.157   5.874
 4308POPC   C1A56619  26.716  18.529   6.321
 4308POPC   D2A56620  26.879  18.719   6.691
 4308POPC   C3A56621  26.655  18.522   7.021
 4308POPC   C4A56622  26.698  18.312   7.426
 4308POPC   C1B56623  26.693  17.992   6.246
 4308POPC   C2B56624  26.836  18.080   6.650
 4308POPC   C3B56625  26.669  17.979   7.040
 4308POPC   C4B56626  26.599  17.701   7.381
 4309POPC   NC356627  26.887  31.463   5.436
 4309POPC   PO456628  27.057  32.111   5.626
 4309POPC   GL156629  26.894  31.766   5.862
 4309POPC   GL256630  26.771  31.381   5.925
 4309POPC   C1A56631  27.100  31.614   6.233
 4309POPC   D2A56632  26.920  31.330   6.532
 4309POPC   C3A56633  27.133  31.294   6.911
 4309POPC   C4A56634  27.030  31.162   7.311
 4309POPC   C1B56635  26.583  31.655   6.262
 4309POPC   C2B56636  26.493  31.569   6.683
 4309POPC   C3B56637  26.623  31.363   7.053
 4309POPC   C4B56638  26.664  31.468   7.518
 4310POPC   NC356639  26.306  33.807   5.307
 4310POPC   PO456640  25.824  33.484   5.530
 4310POPC   GL156641  26.055  33.703   5.819
 4310POPC   GL256642  25.803  33.732   6.048
 4310POPC   C1A56643  26.294  33.832   6.155
 4310POPC   D2A56644  26.323  33.669   6.566
 4310POPC   C3A56645  26.012  33.581   6.889
 4310POPC   C4A56646  26.030  33.831   7.238
 4310POPC   C1B56647  25.805  33.813   6.468
 4310POPC   C2B56648  25.512  33.719   6.787
 4310POPC   C3B56649  25.535  33.931   7.162
 4310POPC   C4B56650  25.632  33.884   7.601
 4311POPC   NC356651  44.142  24.975   5.624
 4311POPC   PO456652  43.648  25.159   5.213
 4311POPC   GL156653  43.735  25.213   5.786
 4311POPC   GL256654  43.743  24.932   6.015
 4311POPC   C1A56655  43.973  25.346   6.197
 4311POPC   D2A56656  44.077  25.543   6.597
 4311POPC   C3A56657  43.904  25.351   6.940
 4311POPC   C4A56658  43.935  25.471   7.351
 4311POPC   C1B56659  44.042  24.809   6.299
 4311POPC   C2B56660  44.276  24.908   6.636
 4311POPC   C3B56661  44.253  25.023   7.062
 4311POPC   C4B56662  43.886  24.980   7.296
 4312POPC   NC356663  34.907  11.303   5.352
 4312POPC   PO456664  34.360  10.974   5.378
 4312POPC   GL156665  34.585  11.118   5.726
 4312POPC   GL256666  34.931  11.046   5.792
 4312POPC   C1A56667  34.523  11.117   6.166
 4312POPC   D2A56668  34.356  11.340   6.539
 4312POPC   C3A56669  34.473  11.221   6.952
 4312POPC   C4A56670  34.542  11.542   7.228
 4312POPC   C1B56671  35.003  11.247   6.184
 4312POPC   C2B56672  34.844  11.195   6.579
 4312POPC   C3B56673  34.956  11.385   6.934
 4312POPC   C4B56674  35.013  11.381   7.373
 4313POPC   NC356675  22.388  43.640   5.455
 4313POPC   PO456676  21.822  44.031   5.597
 4313POPC   GL156677  22.194  43.943   5.802
 4313POPC   GL256678  22.384  44.242   5.792
 4313POPC   C1A56679  22.378  43.735   6.157
 4313POPC   D2A56680  22.168  43.783   6.547
 4313POPC   C3A56681  22.405  43.772   6.903
 4313POPC   C4A56682  22.292  43.697   7.299
 4313POPC   C1B56683  22.215  44.212   6.229
 4313POPC   C2B56684  22.206  44.298   6.664
 4313POPC   C3B56685  22.082  44.152   7.070
 4313POPC   C4B56686  22.305  44.242   7.427
 4314POPC   NC356687  11.479   6.525   5.596
 4314POPC   PO456688  11.108   7.075   5.411
 4314POPC   GL156689  11.215   6.890   5.826
 4314POPC   GL256690  11.149   6.508   5.960
 4314POPC   C1A56691  11.410   6.851   6.238
 4314POPC   D2A56692  11.166   6.776   6.597
 4314POPC   C3A56693  11.341   6.920   6.968
 4314POPC   C4A56694  11.418   6.711   7.339
 4314POPC   C1B56695  10.883   6.263   6.228
 4314POPC   C2B56696  10.807   6.350   6.660
 4314POPC   C3B56697  11.085   6.452   6.975
 4314POPC   C4B56698  10.956   6.520   7.353
 4315POPC   NC356699  44.923  40.380   5.405
 4315POPC   PO456700  44.451  39.955   5.432
 4315POPC   GL156701  44.795  39.874   5.770
 4315POPC   GL256702   0.123  40.004   5.716
 4315POPC   C1A56703  44.808  39.909   6.255
 4315POPC   D2A56704  44.539  40.148   6.581
 4315POPC   C3A56705  44.496  39.909   6.953
 4315POPC   C4A56706  44.833  39.736   7.145
 4315POPC   C1B56707   0.107  40.293   6.100
 4315POPC   C2B56708  44.979  40.440   6.537
 4315POPC   C3B56709  44.884  40.276   6.971
 4315POPC   C4B56710  44.887  40.147   7.431
 4316POPC   NC356711  40.006  37.480   5.339
 4316POPC   PO456712  40.340  38.036   5.141
 4316POPC   GL156713  40.230  37.879   5.644
 4316POPC   GL256714  39.961  37.648   5.818
 4316POPC   C1A56715  40.135  37.970   6.148
 4316POPC   D2A56716  40.121  37.740   6.570
 4316POPC   C3A56717  39.911  37.715   7.033
 4316POPC   C4A56718  40.282  37.714   7.330
 4316POPC   C1B56719  39.736  37.498   6.206
 4316POPC   C2B56720  39.726  37.422   6.654
 4316POPC   C3B56721  39.612  37.242   7.044
 4316POPC   C4B56722  39.751  37.335   7.454
 4317POPC   NC356723  38.834  19.252   5.345
 4317POPC   PO456724  38.702  18.621   5.158
 4317POPC   GL156725  38.399  18.840   5.563
 4317POPC   GL256726  38.441  19.221   5.681
 4317POPC   C1A56727  38.423  18.891   6.065
 4317POPC   D2A56728  38.433  19.127   6.460
 4317POPC   C3A56729  38.508  18.986   6.850
 4317POPC   C4A56730  38.362  19.026   7.222
 4317POPC   C1B56731  38.214  19.417   6.064
 4317POPC   C2B56732  38.058  19.501   6.488
 4317POPC   C3B56733  38.135  19.376   6.926
 4317POPC   C4B56734  38.275  19.511   7.356
 4318POPC   NC356735  44.999  37.002   5.357
 4318POPC   PO456736   0.658  37.121   5.405
 4318POPC   GL156737   0.600  36.849   5.753
 4318POPC   GL256738   0.288  36.990   5.796
 4318POPC   C1A56739   0.459  36.665   6.155
 4318POPC   D2A56740   0.244  36.671   6.552
 4318POPC   C3A56741   0.523  36.735   6.884
 4318POPC   C4A56742   0.610  36.844   7.291
 4318POPC   C1B56743   0.464  37.157   6.218
 4318POPC   C2B56744   0.315  37.173   6.654
 4318POPC   C3B56745   0.317  37.257   7.111
 4318POPC   C4B56746   0.494  37.310   7.552
 4319POPC   NC356747  18.021  36.741   5.116
 4319POPC   PO456748  18.422  37.233   5.199
 4319POPC   GL156749  18.250  37.031   5.563
 4319POPC   GL256750  18.478  37.136   5.803
 4319POPC   C1A56751  18.172  36.755   5.930
 4319POPC   D2A56752  18.008  36.753   6.370
 4319POPC   C3A56753  18.186  36.806   6.782
 4319POPC   C4A56754  18.020  36.847   7.205
 4319POPC   C1B56755  18.676  37.275   6.189
 4319POPC   C2B56756  18.451  37.165   6.527
 4319POPC   C3B56757  18.303  37.288   6.920
 4319POPC   C4B56758  18.385  37.193   7.322
 4320POPC   NC356759  36.787   9.198   5.275
 4320POPC   PO456760  37.248   8.768   5.386
 4320POPC   GL156761  37.041   8.842   5.786
 4320POPC   GL256762  37.064   9.176   5.743
 4320POPC   C1A56763  36.798   8.800   6.197
 4320POPC   D2A56764  36.844   8.995   6.629
 4320POPC   C3A56765  37.093   8.740   6.934
 4320POPC   C4A56766  37.309   8.756   7.329
 4320POPC   C1B56767  37.099   9.204   6.196
 4320POPC   C2B56768  37.327   9.231   6.590
 4320POPC   C3B56769  37.237   9.226   7.055
 4320POPC   C4B56770  37.265   9.239   7.524
 4321POPC   NC356771  29.775   0.853   5.274
 4321POPC   PO456772  30.078   0.159   5.429
 4321POPC   GL156773  29.886   0.404   5.775
 4321POPC   GL256774  29.991   0.748   5.797
 4321POPC   C1A56775  29.957   0.463   6.256
 4321POPC   D2A56776  29.679   0.381   6.638
 4321POPC   C3A56777  29.790   0.479   7.102
 4321POPC   C4A56778  29.917   0.494   7.578
 4321POPC   C1B56779  29.738   0.911   6.196
 4321POPC   C2B56780  29.764   0.899   6.647
 4321POPC   C3B56781  29.651   1.109   7.014
 4321POPC   C4B56782  29.690   0.908   7.388
 4322POPC   NC356783   1.862  24.859   5.057
 4322POPC   PO456784   2.172  24.426   5.124
 4322POPC   GL156785   2.172  24.371   5.633
 4322POPC   GL256786   1.864  24.220   5.791
 4322POPC   C1A56787   2.168  24.465   6.129
 4322POPC   D2A56788   1.986  24.623   6.559
 4322POPC   C3A56789   2.040  24.503   7.019
 4322POPC   C4A56790   1.878  24.435   7.439
 4322POPC   C1B56791   1.890  24.047   6.231
 4322POPC   C2B56792   1.939  24.115   6.683
 4322POPC   C3B56793   1.774  24.046   7.123
 4322POPC   C4B56794   1.942  23.937   7.551
 4323POPC   NC356795  15.839  28.641   5.015
 4323POPC   PO456796  16.267  28.182   5.308
 4323POPC   GL156797  16.298  28.185   5.795
 4323POPC   GL256798  16.010  28.031   5.960
 4323POPC   C1A56799  16.201  28.450   6.206
 4323POPC   D2A56800  16.221  28.474   6.690
 4323POPC   C3A56801  15.905  28.576   7.033
 4323POPC   C4A56802  15.887  28.862   7.401
 4323POPC   C1B56803  16.315  27.970   6.297
 4323POPC   C2B56804  16.203  27.965   6.732
 4323POPC   C3B56805  16.014  28.089   7.119
 4323POPC   C4B56806  15.752  28.007   7.484
 4324POPC   NC356807  10.877  29.433   5.365
 4324POPC   PO456808  10.438  28.978   5.504
 4324POPC   GL156809  10.517  28.980   5.888
 4324POPC   GL256810  10.404  29.317   5.928
 4324POPC   C1A56811  10.807  28.964   6.186
 4324POPC   D2A56812  10.912  29.193   6.543
 4324POPC   C3A56813  10.636  29.105   6.880
 4324POPC   C4A56814  10.688  29.028   7.283
 4324POPC   C1B56815  10.284  29.502   6.321
 4324POPC   C2B56816  10.569  29.558   6.656
 4324POPC   C3B56817  10.549  29.571   7.110
 4324POPC   C4B56818  10.184  29.457   7.347
 4325POPC   NC356819  42.450  33.183   5.435
 4325POPC   PO456820  41.915  32.826   5.679
 4325POPC   GL156821  42.147  33.185   5.895
 4325POPC   GL256822  42.531  33.256   5.923
 4325POPC   C1A56823  42.288  32.988   6.292
 4325POPC   D2A56824  42.309  32.536   6.473
 4325POPC   C3A56825  42.370  32.607   6.892
 4325POPC   C4A56826  42.089  32.858   7.116
 4325POPC   C1B56827  42.677  33.344   6.334
 4325POPC   C2B56828  42.460  33.287   6.729
 4325POPC   C3B56829  42.521  33.101   7.114
 4325POPC   C4B56830  42.563  33.289   7.496
 4326POPC   NC356831  15.741  36.370   5.191
 4326POPC   PO456832  15.930  36.930   5.438
 4326POPC   GL156833  15.906  36.779   5.801
 4326POPC   GL256834  15.545  36.789   5.794
 4326POPC   C1A56835  16.182  36.858   6.191
 4326POPC   D2A56836  16.101  36.706   6.638
 4326POPC   C3A56837  16.387  36.851   6.983
 4326POPC   C4A56838  16.270  37.044   7.397
 4326POPC   C1B56839  15.678  36.886   6.223
 4326POPC   C2B56840  15.838  37.139   6.568
 4326POPC   C3B56841  15.841  37.018   6.995
 4326POPC   C4B56842  15.519  36.755   7.170
 4327POPC   NC356843   2.940  40.133   5.172
 4327POPC   PO456844   2.993  39.547   5.525
 4327POPC   GL156845   2.750  39.891   5.666
 4327POPC   GL256846   2.976  40.165   5.724
 4327POPC   C1A56847   2.605  39.996   6.091
 4327POPC   D2A56848   2.700  40.138   6.482
 4327POPC   C3A56849   2.539  39.952   6.850
 4327POPC   C4A56850   2.569  40.144   7.225
 4327POPC   C1B56851   3.096  39.889   6.098
 4327POPC   C2B56852   3.109  39.821   6.536
 4327POPC   C3B56853   3.030  40.083   6.900
 4327POPC   C4B56854   3.192  40.235   7.278
 4328POPC   NC356855  33.458  40.513   5.310
 4328POPC   PO456856  33.050  41.024   5.458
 4328POPC   GL156857  32.938  40.790   5.788
 4328POPC   GL256858  33.256  40.591   5.801
 4328POPC   C1A56859  33.004  40.763   6.227
 4328POPC   D2A56860  33.191  40.800   6.641
 4328POPC   C3A56861  32.915  40.725   6.977
 4328POPC   C4A56862  33.013  40.929   7.321
 4328POPC   C1B56863  33.472  40.492   6.212
 4328POPC   C2B56864  33.579  40.434   6.667
 4328POPC   C3B56865  33.409  40.552   7.091
 4328POPC   C4B56866  33.266  40.463   7.524
 4329POPC   NC356867  25.819  29.657   5.364
 4329POPC   PO456868  25.983  30.289   5.438
 4329POPC   GL156869  25.870  30.040   5.796
 4329POPC   GL256870  26.136  29.802   5.772
 4329POPC   C1A56871  25.764  30.076   6.248
 4329POPC   D2A56872  26.029  29.968   6.636
 4329POPC   C3A56873  25.924  29.921   7.102
 4329POPC   C4A56874  25.921  30.156   7.505
 4329POPC   C1B56875  25.999  29.640   6.192
 4329POPC   C2B56876  26.246  29.500   6.531
 4329POPC   C3B56877  26.173  29.447   6.967
 4329POPC   C4B56878  26.252  29.609   7.390
 4330POPC   NC356879   0.835  19.049   5.544
 4330POPC   PO456880   1.458  18.845   5.538
 4330POPC   GL156881   1.222  18.783   5.911
 4330POPC   GL256882   0.913  18.590   5.857
 4330POPC   C1A56883   1.326  18.953   6.327
 4330POPC   D2A56884   1.480  18.824   6.745
 4330POPC   C3A56885   1.231  19.051   7.005
 4330POPC   C4A56886   1.306  19.285   7.340
 4330POPC   C1B56887   0.798  18.857   6.219
 4330POPC   C2B56888   0.803  18.975   6.657
 4330POPC   C3B56889   0.808  18.794   7.066
 4330POPC   C4B56890   0.922  18.978   7.432
 4331POPC   NC356891  15.615  39.588   5.509
 4331POPC   PO456892  14.973  39.375   5.452
 4331POPC   GL156893  15.065  39.199   5.911
 4331POPC   GL256894  15.372  39.044   5.958
 4331POPC   C1A56895  15.049  39.369   6.343
 4331POPC   D2A56896  15.136  39.388   6.763
 4331POPC   C3A56897  14.947  39.101   7.032
 4331POPC   C4A56898  15.108  39.350   7.331
 4331POPC   C1B56899  15.485  39.468   6.148
 4331POPC   C2B56900  15.519  39.677   6.571
 4331POPC   C3B56901  15.492  39.593   7.075
 4331POPC   C4B56902  15.414  39.654   7.576
 4332POPC   NC356903  26.556  11.163   5.201
 4332POPC   PO456904  27.135  11.388   5.378
 4332POPC   GL156905  26.875  11.122   5.619
 4332POPC   GL256906  26.660  11.411   5.671
 4332POPC   C1A56907  26.875  11.154   6.072
 4332POPC   D2A56908  26.894  11.280   6.512
 4332POPC   C3A56909  27.125  11.293   6.902
 4332POPC   C4A56910  27.037  11.309   7.351
 4332POPC   C1B56911  26.457  11.479   6.113
 4332POPC   C2B56912  26.456  11.509   6.590
 4332POPC   C3B56913  26.657  11.470   7.013
 4332POPC   C4B56914  26.449  11.400   7.422
 4333POPC   NC356915  43.007  30.634   5.222
 4333POPC   PO456916  42.427  30.819   5.626
 4333POPC   GL156917  42.434  30.522   5.916
 4333POPC   GL256918  42.107  30.405   5.885
 4333POPC   C1A56919  42.552  30.600   6.359
 4333POPC   D2A56920  42.771  30.831   6.677
 4333POPC   C3A56921  42.516  31.105   6.909
 4333POPC   C4A56922  42.388  30.984   7.347
 4333POPC   C1B56923  42.064  30.795   6.152
 4333POPC   C2B56924  42.165  30.902   6.571
 4333POPC   C3B56925  42.218  30.675   6.942
 4333POPC   C4B56926  41.910  30.590   7.231
 4334POPC   NC356927  39.669  24.013   5.330
 4334POPC   PO456928  39.148  23.745   5.516
 4334POPC   GL156929  38.968  23.778   5.895
 4334POPC   GL256930  38.928  23.408   5.826
 4334POPC   C1A56931  39.095  23.913   6.312
 4334POPC   D2A56932  39.509  23.743   6.439
 4334POPC   C3A56933  39.557  23.749   6.884
 4334POPC   C4A56934  39.271  23.815   7.242
 4334POPC   C1B56935  39.109  23.387   6.253
 4334POPC   C2B56936  39.159  23.470   6.690
 4334POPC   C3B56937  39.336  23.326   7.063
 4334POPC   C4B56938  39.001  23.395   7.310
 4335POPC   NC356939   1.458  39.443   5.519
 4335POPC   PO456940   1.107  38.922   5.487
 4335POPC   GL156941   1.029  39.149   5.815
 4335POPC   GL256942   1.028  39.515   5.872
 4335POPC   C1A56943   0.856  39.152   6.198
 4335POPC   D2A56944   0.880  39.367   6.553
 4335POPC   C3A56945   0.871  39.068   6.865
 4335POPC   C4A56946   1.060  39.173   7.226
 4335POPC   C1B56947   1.373  39.316   6.153
 4335POPC   C2B56948   1.751  39.475   6.374
 4335POPC   C3B56949   1.823  39.401   6.805
 4335POPC   C4B56950   1.535  39.322   7.155
 4336POPC   NC356951  11.033  24.442   5.447
 4336POPC   PO456952  11.536  24.775   5.325
 4336POPC   GL156953  11.530  24.761   5.781
 4336POPC   GL256954  11.494  24.420   5.817
 4336POPC   C1A56955  11.374  24.774   6.216
 4336POPC   D2A56956  11.321  24.534   6.592
 4336POPC   C3A56957  11.436  24.660   6.988
 4336POPC   C4A56958  11.342  24.510   7.390
 4336POPC   C1B56959  11.209  24.264   6.125
 4336POPC   C2B56960  11.135  24.075   6.518
 4336POPC   C3B56961  11.220  24.182   6.964
 4336POPC   C4B56962  11.438  24.015   7.331
 4337POPC   NC356963  38.286  23.462   5.275
 4337POPC   PO456964  38.462  24.126   5.133
 4337POPC   GL156965  38.536  23.728   5.588
 4337POPC   GL256966  38.197  23.708   5.704
 4337POPC   C1A56967  38.537  23.591   6.068
 4337POPC   D2A56968  38.703  23.631   6.484
 4337POPC   C3A56969  38.667  23.498   6.919
 4337POPC   C4A56970  38.733  23.820   7.240
 4337POPC   C1B56971  38.053  23.722   6.117
 4337POPC   C2B56972  37.966  23.715   6.530
 4337POPC   C3B56973  38.198  23.701   6.904
 4337POPC   C4B56974  38.213  23.353   7.165
 4338POPC   NC356975  27.947  25.174   5.398
 4338POPC   PO456976  28.542  24.943   5.373
 4338POPC   GL156977  28.374  25.139   5.807
 4338POPC   GL256978  28.017  25.342   5.881
 4338POPC   C1A56979  28.529  25.042   6.241
 4338POPC   D2A56980  28.705  25.062   6.677
 4338POPC   C3A56981  28.412  25.061   7.017
 4338POPC   C4A56982  28.444  25.189   7.435
 4338POPC   C1B56983  28.235  25.494   6.209
 4338POPC   C2B56984  28.307  25.378   6.613
 4338POPC   C3B56985  28.129  25.532   6.979
 4338POPC   C4B56986  28.159  25.611   7.402
 4339POPC   NC356987   0.550  15.016   5.468
 4339POPC   PO456988   0.152  15.610   5.614
 4339POPC   GL156989   0.283  15.241   5.857
 4339POPC   GL256990   0.196  14.872   5.801
 4339POPC   C1A56991   0.508  15.072   6.223
 4339POPC   D2A56992   0.608  15.286   6.619
 4339POPC   C3A56993   0.683  15.173   7.063
 4339POPC   C4A56994   0.616  14.819   7.320
 4339POPC   C1B56995  44.983  14.953   6.163
 4339POPC   C2B56996   0.081  15.227   6.487
 4339POPC   C3B56997   0.211  15.062   6.854
 4339POPC   C4B56998   0.201  15.102   7.254
 4340POPC   NC356999  38.024  24.186   5.477
 4340POPC   PO457000  37.797  23.539   5.386
 4340POPC   GL157001  37.677  23.746   5.782
 4340POPC   GL257002  37.361  23.904   5.841
 4340POPC   C1A57003  37.561  23.586   6.210
 4340POPC   D2A57004  37.380  23.618   6.628
 4340POPC   C3A57005  37.684  23.640   6.966
 4340POPC   C4A57006  37.756  23.438   7.366
 4340POPC   C1B57007  37.438  24.101   6.244
 4340POPC   C2B57008  37.621  24.081   6.642
 4340POPC   C3B57009  37.425  24.118   7.014
 4340POPC   C4B57010  37.422  23.863   7.346
 4341POPC   NC357011  44.828  43.831   5.542
 4341POPC   PO457012  44.204  43.891   5.396
 4341POPC   GL157013  44.373  43.937   5.857
 4341POPC   GL257014  44.691  44.111   5.952
 4341POPC   C1A57015  44.478  43.836   6.336
 4341POPC   D2A57016  44.762  44.047   6.674
 4341POPC   C3A57017  44.703  43.902   7.119
 4341POPC   C4A57018  44.839  44.027   7.532
 4341POPC   C1B57019  44.404  44.348   6.214
 4341POPC   C2B57020  44.286  44.254   6.623
 4341POPC   C3B57021  44.439  44.344   7.034
 4341POPC   C4B57022  44.443  44.368   7.505
 4342POPC   NC357023   3.994   8.603   5.620
 4342POPC   PO457024   3.467   8.525   5.312
 4342POPC   GL157025   3.492   8.552   5.806
 4342POPC   GL257026   3.505   8.903   5.877
 4342POPC   C1A57027   3.402   8.566   6.310
 4342POPC   D2A57028   3.338   8.882   6.659
 4342POPC   C3A57029   3.411   8.776   7.134
 4342POPC   C4A57030   3.399   8.800   7.616
 4342POPC   C1B57031   3.772   8.890   6.264
 4342POPC   C2B57032   3.844   8.865   6.707
 4342POPC   C3B57033   3.784   9.120   7.077
 4342POPC   C4B57034   3.661   9.242   7.529
 4343POPC   NC357035  21.101  23.155   5.475
 4343POPC   PO457036  21.612  22.761   5.125
 4343POPC   GL157037  21.458  22.808   5.601
 4343POPC   GL257038  21.126  22.696   5.752
 4343POPC   C1A57039  21.396  23.003   6.062
 4343POPC   D2A57040  21.253  22.976   6.527
 4343POPC   C3A57041  21.394  23.028   6.976
 4343POPC   C4A57042  21.506  23.043   7.415
 4343POPC   C1B57043  20.922  22.770   6.172
 4343POPC   C2B57044  20.838  22.704   6.617
 4343POPC   C3B57045  21.144  22.579   6.946
 4343POPC   C4B57046  21.273  22.610   7.426
 4344POPC   NC357047   6.843  33.994   5.307
 4344POPC   PO457048   6.497  33.462   5.480
 4344POPC   GL157049   6.599  33.872   5.745
 4344POPC   GL257050   6.525  34.240   5.661
 4344POPC   C1A57051   6.823  33.931   6.131
 4344POPC   D2A57052   6.846  33.620   6.499
 4344POPC   C3A57053   6.478  33.597   6.818
 4344POPC   C4A57054   6.453  33.489   7.270
 4344POPC   C1B57055   6.436  34.324   6.074
 4344POPC   C2B57056   6.481  34.086   6.460
 4344POPC   C3B57057   6.760  34.029   6.798
 4344POPC   C4B57058   6.586  33.971   7.177
 4345POPC   NC357059  28.656  35.851   5.417
 4345POPC   PO457060  28.433  36.514   5.475
 4345POPC   GL157061  28.292  36.395   5.870
 4345POPC   GL257062  28.394  36.020   5.861
 4345POPC   C1A57063  28.449  36.363   6.296
 4345POPC   D2A57064  28.406  36.083   6.649
 4345POPC   C3A57065  28.515  36.228   7.043
 4345POPC   C4A57066  28.093  36.267   7.114
 4345POPC   C1B57067  28.660  35.891   6.215
 4345POPC   C2B57068  28.753  35.698   6.640
 4345POPC   C3B57069  28.538  35.674   7.051
 4345POPC   C4B57070  28.618  35.554   7.523
 4346POPC   NC357071   8.752   3.196   5.081
 4346POPC   PO457072   9.125   3.714   5.422
 4346POPC   GL157073   9.103   3.593   5.847
 4346POPC   GL257074   8.740   3.624   5.893
 4346POPC   C1A57075   9.075   3.680   6.291
 4346POPC   D2A57076   9.111   3.527   6.693
 4346POPC   C3A57077   9.065   3.838   6.994
 4346POPC   C4A57078   9.114   3.767   7.420
 4346POPC   C1B57079   8.649   3.370   6.272
 4346POPC   C2B57080   8.724   3.165   6.698
 4346POPC   C3B57081   8.733   3.428   7.099
 4346POPC   C4B57082   8.654   3.313   7.542
 4347POPC   NC357083  26.238  25.637   5.259
 4347POPC   PO457084  25.892  25.107   5.421
 4347POPC   GL157085  26.176  25.166   5.803
 4347POPC   GL257086  26.386  25.443   5.732
 4347POPC   C1A57087  26.241  25.105   6.261
 4347POPC   D2A57088  25.976  25.298   6.570
 4347POPC   C3A57089  25.919  25.159   6.968
 4347POPC   C4A57090  25.636  25.239   7.262
 4347POPC   C1B57091  26.573  25.476   6.146
 4347POPC   C2B57092  26.411  25.588   6.572
 4347POPC   C3B57093  26.388  25.423   6.996
 4347POPC   C4B57094  26.139  25.487   7.375
 4348POPC   NC357095  41.312   6.219   5.455
 4348POPC   PO457096  40.732   6.632   5.495
 4348POPC   GL157097  40.990   6.677   5.833
 4348POPC   GL257098  41.061   6.332   5.898
 4348POPC   C1A57099  40.920   6.963   6.177
 4348POPC   D2A57100  40.922   6.856   6.587
 4348POPC   C3A57101  40.727   7.053   6.901
 4348POPC   C4A57102  40.627   6.827   7.263
 4348POPC   C1B57103  40.818   6.437   6.278
 4348POPC   C2B57104  40.589   6.437   6.684
 4348POPC   C3B57105  40.707   6.296   7.106
 4348POPC   C4B57106  40.986   6.366   7.466
 4349POPC   NC357107  40.078  40.280   5.603
 4349POPC   PO457108  39.982  40.882   5.394
 4349POPC   GL157109  40.089  40.753   5.784
 4349POPC   GL257110  39.784  40.605   5.843
 4349POPC   C1A57111  40.139  40.730   6.219
 4349POPC   D2A57112  40.038  41.092   6.481
 4349POPC   C3A57113  40.267  41.177   6.857
 4349POPC   C4A57114  40.107  40.923   7.160
 4349POPC   C1B57115  39.647  40.874   6.176
 4349POPC   C2B57116  39.637  40.756   6.596
 4349POPC   C3B57117  39.885  40.544   6.910
 4349POPC   C4B57118  39.725  40.608   7.309
 4350POPC   NC357119  43.601  18.075   5.343
 4350POPC   PO457120  44.089  18.529   5.310
 4350POPC   GL157121  43.747  18.442   5.667
 4350POPC   GL257122  43.755  18.109   5.834
 4350POPC   C1A57123  43.762  18.546   6.123
 4350POPC   D2A57124  44.050  18.514   6.493
 4350POPC   C3A57125  43.919  18.467   6.937
 4350POPC   C4A57126  44.131  18.522   7.337
 4350POPC   C1B57127  43.682  18.024   6.266
 4350POPC   C2B57128  43.975  17.954   6.613
 4350POPC   C3B57129  44.191  18.009   7.009
 4350POPC   C4B57130  43.929  17.829   7.361
 4351POPC   NC357131  15.352  11.689   5.399
 4351POPC   PO457132  15.386  12.372   5.393
 4351POPC   GL157133  15.346  12.070   5.742
 4351POPC   GL257134  14.968  12.053   5.701
 4351POPC   C1A57135  15.424  12.101   6.202
 4351POPC   D2A57136  15.491  12.300   6.617
 4351POPC   C3A57137  15.369  12.181   7.013
 4351POPC   C4A57138  15.390  12.260   7.449
 4351POPC   C1B57139  15.049  11.775   6.055
 4351POPC   C2B57140  15.059  11.849   6.502
 4351POPC   C3B57141  14.867  11.793   6.898
 4351POPC   C4B57142  14.926  12.052   7.260
 4352POPC   NC357143  44.209  38.673   5.376
 4352POPC   PO457144  43.622  38.309   5.429
 4352POPC   GL157145  43.921  38.412   5.728
 4352POPC   GL257146  43.652  38.555   5.906
 4352POPC   C1A57147  44.088  38.449   6.138
 4352POPC   D2A57148  44.023  38.581   6.554
 4352POPC   C3A57149  44.293  38.506   6.884
 4352POPC   C4A57150  44.150  38.598   7.302
 4352POPC   C1B57151  43.475  38.616   6.295
 4352POPC   C2B57152  43.523  38.488   6.712
 4352POPC   C3B57153  43.796  38.380   7.010
 4352POPC   C4B57154  43.678  38.317   7.402
 4353POPC   NC357155   5.967   0.241   5.486
 4353POPC   PO457156   5.496   0.452   5.633
 4353POPC   GL157157   5.834   0.350   5.971
 4353POPC   GL257158   6.083   0.042   5.971
 4353POPC   C1A57159   6.030   0.354   6.390
 4353POPC   D2A57160   6.056   0.236   6.827
 4353POPC   C3A57161   6.107   0.542   7.144
 4353POPC   C4A57162   5.964   0.573   7.570
 4353POPC   C1B57163   5.875  44.862   6.366
 4353POPC   C2B57164   5.604   0.069   6.708
 4353POPC   C3B57165   5.659   0.262   7.157
 4353POPC   C4B57166   5.786   0.045   7.559
 4354POPC   NC357167  42.720   9.397   5.643
 4354POPC   PO457168  42.202   9.734   5.277
 4354POPC   GL157169  42.319   9.715   5.742
 4354POPC   GL257170  42.658   9.871   5.837
 4354POPC   C1A57171  42.274   9.633   6.200
 4354POPC   D2A57172  42.273   9.317   6.531
 4354POPC   C3A57173  42.285   9.517   6.930
 4354POPC   C4A57174  42.169   9.919   7.112
 4354POPC   C1B57175  42.699   9.905   6.307
 4354POPC   C2B57176  42.506   9.967   6.732
 4354POPC   C3B57177  42.658   9.800   7.168
 4354POPC   C4B57178  42.633   9.688   7.627
 4355POPC   NC357179   6.982  19.808   5.519
 4355POPC   PO457180   6.434  19.461   5.255
 4355POPC   GL157181   6.484  19.718   5.717
 4355POPC   GL257182   6.434  20.080   5.785
 4355POPC   C1A57183   6.520  19.706   6.213
 4355POPC   D2A57184   6.642  19.388   6.569
 4355POPC   C3A57185   6.678  19.623   6.952
 4355POPC   C4A57186   6.935  20.018   7.046
 4355POPC   C1B57187   6.204  20.190   6.196
 4355POPC   C2B57188   6.345  20.092   6.650
 4355POPC   C3B57189   6.404  20.047   7.106
 4355POPC   C4B57190   6.337  19.870   7.513
 4356POPC   NC357191  38.625  39.383   5.252
 4356POPC   PO457192  37.931  39.400   5.276
 4356POPC   GL157193  38.253  39.268   5.653
 4356POPC   GL257194  38.638  39.178   5.735
 4356POPC   C1A57195  38.326  39.362   6.120
 4356POPC   D2A57196  38.334  39.090   6.478
 4356POPC   C3A57197  38.385  39.192   6.911
 4356POPC   C4A57198  38.105  38.988   7.178
 4356POPC   C1B57199  38.839  39.299   6.148
 4356POPC   C2B57200  38.694  39.458   6.547
 4356POPC   C3B57201  38.848  39.431   6.954
 4356POPC   C4B57202  38.727  39.300   7.346
 4357POPC   NC357203  10.998   7.525   5.485
 4357POPC   PO457204  10.281   7.304   5.396
 4357POPC   GL157205  10.553   7.457   5.740
 4357POPC   GL257206  10.802   7.207   5.832
 4357POPC   C1A57207  10.613   7.502   6.204
 4357POPC   D2A57208  10.378   7.776   6.490
 4357POPC   C3A57209  10.359   7.798   6.951
 4357POPC   C4A57210  10.646   7.578   7.279
 4357POPC   C1B57211  10.409   7.057   6.054
 4357POPC   C2B57212  10.277   7.225   6.464
 4357POPC   C3B57213  10.496   7.319   6.849
 4357POPC   C4B57214  10.200   7.365   7.208
 4358POPC   NC357215   6.349  16.087   5.457
 4358POPC   PO457216   5.739  16.204   5.383
 4358POPC   GL157217   5.923  16.084   5.788
 4358POPC   GL257218   6.111  15.742   5.823
 4358POPC   C1A57219   5.751  16.021   6.205
 4358POPC   D2A57220   5.513  16.185   6.581
 4358POPC   C3A57221   5.752  16.001   6.925
 4358POPC   C4A57222   5.771  16.078   7.361
 4358POPC   C1B57223   6.374  15.684   6.216
 4358POPC   C2B57224   6.291  15.753   6.662
 4358POPC   C3B57225   5.980  15.523   6.908
 4358POPC   C4B57226   5.712  15.587   7.255
 4359POPC   NC357227  33.821  39.321   5.343
 4359POPC   PO457228  33.179  39.300   5.239
 4359POPC   GL157229  33.475  39.248   5.694
 4359POPC   GL257230  33.862  39.108   5.785
 4359POPC   C1A57231  33.522  39.047   6.134
 4359POPC   D2A57232  33.653  39.166   6.550
 4359POPC   C3A57233  33.434  38.984   6.887
 4359POPC   C4A57234  33.663  39.183   7.176
 4359POPC   C1B57235  34.041  39.233   6.212
 4359POPC   C2B57236  34.155  39.459   6.567
 4359POPC   C3B57237  34.121  39.306   6.975
 4359POPC   C4B57238  34.088  39.335   7.418
 4360POPC   NC357239  35.685  18.927   5.326
 4360POPC   PO457240  35.295  19.498   5.242
 4360POPC   GL157241  35.315  19.178   5.611
 4360POPC   GL257242  35.257  18.781   5.643
 4360POPC   C1A57243  35.466  19.050   6.040
 4360POPC   D2A57244  35.366  19.144   6.499
 4360POPC   C3A57245  35.461  19.050   6.945
 4360POPC   C4A57246  35.396  19.272   7.333
 4360POPC   C1B57247  35.038  18.743   6.059
 4360POPC   C2B57248  35.027  18.759   6.503
 4360POPC   C3B57249  35.011  18.774   6.951
 4360POPC   C4B57250  35.085  18.602   7.358
 4361POPC   NC357251  41.701  27.583   5.487
 4361POPC   PO457252  41.161  27.251   5.264
 4361POPC   GL157253  41.354  27.261   5.710
 4361POPC   GL257254  41.422  27.615   5.900
 4361POPC   C1A57255  41.511  27.181   6.141
 4361POPC   D2A57256  41.666  27.502   6.433
 4361POPC   C3A57257  41.609  27.357   6.861
 4361POPC   C4A57258  41.528  27.450   7.293
 4361POPC   C1B57259  41.223  27.793   6.269
 4361POPC   C2B57260  41.389  27.870   6.681
 4361POPC   C3B57261  41.385  27.894   7.123
 4361POPC   C4B57262  41.564  27.896   7.554
 4362POPC   NC357263  34.136  36.250   5.396
 4362POPC   PO457264  33.486  36.045   5.366
 4362POPC   GL157265  33.577  36.132   5.816
 4362POPC   GL257266  33.901  36.315   5.839
 4362POPC   C1A57267  33.708  36.136   6.274
 4362POPC   D2A57268  33.570  36.009   6.684
 4362POPC   C3A57269  33.659  36.300   6.984
 4362POPC   C4A57270  33.764  36.325   7.395
 4362POPC   C1B57271  34.188  36.337   6.183
 4362POPC   C2B57272  34.031  36.389   6.610
 4362POPC   C3B57273  34.074  36.589   7.023
 4362POPC   C4B57274  34.255  36.502   7.413
 4363POPC   NC357275   9.916   6.547   5.170
 4363POPC   PO457276   9.393   6.300   5.503
 4363POPC   GL157277   9.468   6.593   5.816
 4363POPC   GL257278   9.700   6.806   5.623
 4363POPC   C1A57279   9.545   6.704   6.256
 4363POPC   D2A57280   9.459   6.641   6.687
 4363POPC   C3A57281   9.832   6.585   6.918
 4363POPC   C4A57282   9.669   6.673   7.253
 4363POPC   C1B57283   9.984   6.765   6.003
 4363POPC   C2B57284  10.007   6.801   6.480
 4363POPC   C3B57285  10.243   6.880   6.893
 4363POPC   C4B57286  10.114   6.886   7.329
 4364POPC   NC357287  12.037  44.364   5.666
 4364POPC   PO457288  12.342  44.964   5.461
 4364POPC   GL157289  12.331  44.768   5.887
 4364POPC   GL257290  12.533  44.447   5.877
 4364POPC   C1A57291  12.039  44.834   6.264
 4364POPC   D2A57292  11.767   0.063   6.587
 4364POPC   C3A57293  11.760  44.864   7.003
 4364POPC   C4A57294  12.143  44.693   7.222
 4364POPC   C1B57295  12.333  44.407   6.306
 4364POPC   C2B57296  12.446  44.492   6.763
 4364POPC   C3B57297  12.423  44.272   7.166
 4364POPC   C4B57298  12.107  44.254   7.508
 4365POPC   NC357299  27.366  19.280   5.711
 4365POPC   PO457300  27.787  19.530   5.260
 4365POPC   GL157301  27.777  19.632   5.714
 4365POPC   GL257302  27.437  19.796   5.789
 4365POPC   C1A57303  27.743  19.536   6.174
 4365POPC   D2A57304  27.777  19.754   6.564
 4365POPC   C3A57305  28.000  19.647   6.934
 4365POPC   C4A57306  27.762  19.584   7.300
 4365POPC   C1B57307  27.474  19.978   6.204
 4365POPC   C2B57308  27.304  20.093   6.605
 4365POPC   C3B57309  27.328  19.900   7.003
 4365POPC   C4B57310  27.534  20.032   7.377
 4366POPC   NC357311  38.041  20.329   5.552
 4366POPC   PO457312  37.804  21.007   5.336
 4366POPC   GL157313  37.832  20.747   5.707
 4366POPC   GL257314  38.195  20.829   5.735
 4366POPC   C1A57315  37.584  20.615   6.089
 4366POPC   D2A57316  37.220  20.525   6.374
 4366POPC   C3A57317  37.256  20.714   6.801
 4366POPC   C4A57318  37.445  20.629   7.197
 4366POPC   C1B57319  38.059  20.806   6.173
 4366POPC   C2B57320  37.837  20.648   6.530
 4366POPC   C3B57321  37.965  20.432   6.878
 4366POPC   C4B57322  37.909  20.465   7.301
 4367POPC   NC357323   6.208  42.865   5.527
 4367POPC   PO457324   5.512  42.757   5.382
 4367POPC   GL157325   5.733  43.045   5.721
 4367POPC   GL257326   5.925  43.366   5.756
 4367POPC   C1A57327   5.861  43.103   6.185
 4367POPC   D2A57328   5.993  42.999   6.573
 4367POPC   C3A57329   5.805  43.083   6.958
 4367POPC   C4A57330   5.997  42.907   7.326
 4367POPC   C1B57331   6.126  43.522   6.163
 4367POPC   C2B57332   6.257  43.434   6.621
 4367POPC   C3B57333   6.158  43.451   7.083
 4367POPC   C4B57334   5.892  43.524   7.453
 4368POPC   NC357335  21.777  35.570   5.647
 4368POPC   PO457336  22.269  35.316   5.260
 4368POPC   GL157337  22.197  35.263   5.730
 4368POPC   GL257338  21.889  35.130   5.898
 4368POPC   C1A57339  22.292  35.435   6.166
 4368POPC   D2A57340  22.591  35.373   6.535
 4368POPC   C3A57341  22.465  35.265   6.979
 4368POPC   C4A57342  22.489  35.438   7.429
 4368POPC   C1B57343  21.771  35.345   6.271
 4368POPC   C2B57344  21.973  35.662   6.543
 4368POPC   C3B57345  22.115  35.638   6.970
 4368POPC   C4B57346  21.986  35.404   7.353
 4369POPC   NC357347  11.272   5.619   5.268
 4369POPC   PO457348  11.332   6.237   5.270
 4369POPC   GL157349  11.290   6.026   5.713
 4369POPC   GL257350  11.142   5.682   5.749
 4369POPC   C1A57351  11.407   6.104   6.166
 4369POPC   D2A57352  11.336   6.299   6.537
 4369POPC   C3A57353  11.369   6.028   6.878
 4369POPC   C4A57354  11.303   6.128   7.299
 4369POPC   C1B57355  11.056   5.721   6.168
 4369POPC   C2B57356  10.976   5.863   6.571
 4369POPC   C3B57357  11.027   5.666   6.958
 4369POPC   C4B57358  11.412   5.617   7.209
 4370POPC   NC357359  20.709  39.382   5.592
 4370POPC   PO457360  20.338  38.889   5.379
 4370POPC   GL157361  20.272  39.179   5.788
 4370POPC   GL257362  20.594  39.212   6.028
 4370POPC   C1A57363  20.215  39.458   6.181
 4370POPC   D2A57364  20.540  39.365   6.509
 4370POPC   C3A57365  20.529  39.093   6.817
 4370POPC   C4A57366  20.451  39.147   7.236
 4370POPC   C1B57367  20.945  39.474   6.218
 4370POPC   C2B57368  21.073  39.232   6.528
 4370POPC   C3B57369  21.053  39.240   6.954
 4370POPC   C4B57370  21.276  39.028   7.282
 4371POPC   NC357371  39.579  34.846   5.594
 4371POPC   PO457372  38.903  34.563   5.465
 4371POPC   GL157373  39.137  34.671   5.812
 4371POPC   GL257374  39.409  34.416   5.844
 4371POPC   C1A57375  39.175  34.738   6.258
 4371POPC   D2A57376  39.126  35.046   6.612
 4371POPC   C3A57377  39.147  34.705   6.885
 4371POPC   C4A57378  39.510  34.648   7.085
 4371POPC   C1B57379  39.030  34.229   6.064
 4371POPC   C2B57380  38.869  34.267   6.469
 4371POPC   C3B57381  39.194  34.228   6.764
 4371POPC   C4B57382  39.187  34.248   7.202
 4372POPC   NC357383   5.027  35.722   5.477
 4372POPC   PO457384   4.819  35.073   5.399
 4372POPC   GL157385   4.985  35.306   5.772
 4372POPC   GL257386   5.341  35.491   5.797
 4372POPC   C1A57387   4.941  35.186   6.196
 4372POPC   D2A57388   4.703  35.388   6.526
 4372POPC   C3A57389   4.721  35.187   6.915
 4372POPC   C4A57390   4.862  34.920   7.240
 4372POPC   C1B57391   5.185  35.615   6.207
 4372POPC   C2B57392   5.220  35.461   6.633
 4372POPC   C3B57393   5.244  35.200   7.006
 4372POPC   C4B57394   5.144  35.303   7.435
 4373POPC   NC357395  38.917   8.549   5.227
 4373POPC   PO457396  39.278   7.971   5.196
 4373POPC   GL157397  39.426   8.083   5.702
 4373POPC   GL257398  39.310   7.842   5.953
 4373POPC   C1A57399  39.296   8.311   6.121
 4373POPC   D2A57400  39.243   8.183   6.571
 4373POPC   C3A57401  39.405   8.398   6.953
 4373POPC   C4A57402  39.443   8.332   7.407
 4373POPC   C1B57403  38.928   7.906   6.234
 4373POPC   C2B57404  38.806   7.941   6.681
 4373POPC   C3B57405  38.699   7.747   7.041
 4373POPC   C4B57406  39.084   7.962   7.189
 4374POPC   NC357407  29.638  26.179   5.576
 4374POPC   PO457408  28.933  25.922   5.512
 4374POPC   GL157409  28.998  25.967   5.902
 4374POPC   GL257410  29.242  26.201   5.888
 4374POPC   C1A57411  29.211  25.796   6.242
 4374POPC   D2A57412  29.456  25.771   6.603
 4374POPC   C3A57413  29.213  25.755   6.976
 4374POPC   C4A57414  29.399  25.853   7.346
 4374POPC   C1B57415  29.093  26.308   6.260
 4374POPC   C2B57416  29.068  26.120   6.643
 4374POPC   C3B57417  29.212  26.260   7.051
 4374POPC   C4B57418  28.938  26.078   7.346
 4375POPC   NC357419  41.542  36.547   5.340
 4375POPC   PO457420  41.342  37.099   5.624
 4375POPC   GL157421  41.533  36.900   5.950
 4375POPC   GL257422  41.657  36.580   5.843
 4375POPC   C1A57423  41.568  36.957   6.384
 4375POPC   D2A57424  41.281  36.887   6.701
 4375POPC   C3A57425  41.536  36.841   7.046
 4375POPC   C4A57426  41.557  37.151   7.336
 4375POPC   C1B57427  41.954  36.674   6.190
 4375POPC   C2B57428  41.973  36.743   6.658
 4375POPC   C3B57429  42.002  36.647   7.101
 4375POPC   C4B57430  41.860  36.800   7.528
 4376POPC   NC357431  16.424   5.955   5.532
 4376POPC   PO457432  16.684   6.567   5.284
 4376POPC   GL157433  16.835   6.711   5.735
 4376POPC   GL257434  16.522   6.871   5.834
 4376POPC   C1A57435  16.740   6.559   6.204
 4376POPC   D2A57436  16.482   6.492   6.603
 4376POPC   C3A57437  16.649   6.473   7.029
 4376POPC   C4A57438  16.743   6.738   7.391
 4376POPC   C1B57439  16.537   7.070   6.236
 4376POPC   C2B57440  16.637   7.182   6.646
 4376POPC   C3B57441  16.397   6.926   6.885
 4376POPC   C4B57442  16.211   6.729   7.191
 4377POPC   NC357443  17.877   7.453   5.505
 4377POPC   PO457444  17.301   7.769   5.394
 4377POPC   GL157445  17.407   7.423   5.752
 4377POPC   GL257446  17.313   7.049   5.794
 4377POPC   C1A57447  17.302   7.423   6.193
 4377POPC   D2A57448  17.210   7.633   6.590
 4377POPC   C3A57449  17.385   7.513   6.999
 4377POPC   C4A57450  17.797   7.391   7.174
 4377POPC   C1B57451  17.549   6.984   6.177
 4377POPC   C2B57452  17.585   7.200   6.596
 4377POPC   C3B57453  17.511   7.004   6.995
 4377POPC   C4B57454  17.483   7.033   7.409
 4378POPC   NC357455  17.866  28.108   5.594
 4378POPC   PO457456  17.209  28.445   5.465
 4378POPC   GL157457  17.283  28.435   5.901
 4378POPC   GL257458  17.644  28.389   6.000
 4378POPC   C1A57459  17.281  28.184   6.266
 4378POPC   D2A57460  17.550  28.243   6.560
 4378POPC   C3A57461  17.271  28.323   6.872
 4378POPC   C4A57462  17.387  28.375   7.266
 4378POPC   C1B57463  17.920  28.615   6.308
 4378POPC   C2B57464  17.905  28.590   6.718
 4378POPC   C3B57465  17.965  28.274   6.926
 4378POPC   C4B57466  17.910  28.441   7.302
 4379POPC   NC357467  35.770  26.269   5.231
 4379POPC   PO457468  36.347  25.896   5.423
 4379POPC   GL157469  36.418  25.972   5.848
 4379POPC   GL257470  36.276  25.636   5.893
 4379POPC   C1A57471  36.296  26.213   6.237
 4379POPC   D2A57472  36.029  26.109   6.616
 4379POPC   C3A57473  36.104  26.313   7.006
 4379POPC   C4A57474  36.080  26.115   7.433
 4379POPC   C1B57475  36.224  25.708   6.313
 4379POPC   C2B57476  36.508  25.863   6.615
 4379POPC   C3B57477  36.400  25.898   7.029
 4379POPC   C4B57478  36.327  25.689   7.380
 4380POPC   NC357479  38.058  41.764   5.440
 4380POPC   PO457480  37.337  41.763   5.213
 4380POPC   GL157481  37.505  41.575   5.624
 4380POPC   GL257482  37.676  41.824   5.814
 4380POPC   C1A57483  37.457  41.337   6.038
 4380POPC   D2A57484  37.590  41.301   6.500
 4380POPC   C3A57485  37.295  41.303   6.854
 4380POPC   C4A57486  37.381  41.423   7.311
 4380POPC   C1B57487  37.686  41.743   6.237
 4380POPC   C2B57488  37.494  41.784   6.635
 4380POPC   C3B57489  37.693  41.621   6.947
 4380POPC   C4B57490  37.703  41.830   7.328
 4381POPC   NC357491  28.006  24.231   5.640
 4381POPC   PO457492  28.606  24.227   5.404
 4381POPC   GL157493  28.689  24.328   5.762
 4381POPC   GL257494  28.449  24.610   5.807
 4381POPC   C1A57495  28.733  24.162   6.151
 4381POPC   D2A57496  28.577  24.363   6.488
 4381POPC   C3A57497  28.434  24.261   6.875
 4381POPC   C4A57498  28.573  24.585   7.169
 4381POPC   C1B57499  28.211  24.568   6.211
 4381POPC   C2B57500  28.226  24.695   6.668
 4381POPC   C3B57501  28.061  24.553   7.078
 4381POPC   C4B57502  28.139  24.678   7.495
 4382POPC   NC357503  21.009  11.216   5.377
 4382POPC   PO457504  21.615  11.411   5.461
 4382POPC   GL157505  21.460  11.312   5.859
 4382POPC   GL257506  21.755  11.152   5.981
 4382POPC   C1A57507  21.205  11.376   6.259
 4382POPC   D2A57508  21.089  11.071   6.580
 4382POPC   C3A57509  21.206  11.220   6.946
 4382POPC   C4A57510  21.129  11.002   7.272
 4382POPC   C1B57511  21.729  11.495   6.265
 4382POPC   C2B57512  21.589  11.551   6.702
 4382POPC   C3B57513  21.662  11.366   7.112
 4382POPC   C4B57514  21.715  11.443   7.557
 4383POPC   NC357515  12.702  41.947   5.468
 4383POPC   PO457516  12.798  41.280   5.556
 4383POPC   GL157517  13.029  41.631   5.750
 4383POPC   GL257518  13.374  41.493   5.692
 4383POPC   C1A57519  12.913  41.812   6.173
 4383POPC   D2A57520  12.742  41.710   6.605
 4383POPC   C3A57521  12.806  41.879   7.005
 4383POPC   C4A57522  12.911  41.856   7.411
 4383POPC   C1B57523  13.261  41.310   6.090
 4383POPC   C2B57524  13.222  41.295   6.515
 4383POPC   C3B57525  13.072  41.452   6.905
 4383POPC   C4B57526  13.171  41.393   7.309
 4384POPC   NC357527   2.980  13.601   5.495
 4384POPC   PO457528   3.664  13.718   5.362
 4384POPC   GL157529   3.818  13.717   5.788
 4384POPC   GL257530   3.880  14.083   5.906
 4384POPC   C1A57531   3.627  13.425   6.146
 4384POPC   D2A57532   3.382  13.331   6.553
 4384POPC   C3A57533   3.498  13.534   6.946
 4384POPC   C4A57534   3.588  13.400   7.363
 4384POPC   C1B57535   3.489  13.915   6.107
 4384POPC   C2B57536   3.599  13.813   6.517
 4384POPC   C3B57537   3.900  13.848   6.852
 4384POPC   C4B57538   3.751  13.924   7.263
 4385POPC   NC357539  18.073  39.820   5.475
 4385POPC   PO457540  18.425  40.446   5.425
 4385POPC   GL157541  18.274  40.195   5.776
 4385POPC   GL257542  17.889  40.156   5.816
 4385POPC   C1A57543  18.235  40.080   6.214
 4385POPC   D2A57544  17.980  40.205   6.557
 4385POPC   C3A57545  18.191  40.250   6.935
 4385POPC   C4A57546  18.238  39.989   7.304
 4385POPC   C1B57547  17.859  39.759   6.113
 4385POPC   C2B57548  17.999  39.701   6.542
 4385POPC   C3B57549  17.912  39.817   6.937
 4385POPC   C4B57550  17.869  39.634   7.303
 4386POPC   NC357551  27.427  25.592   5.536
 4386POPC   PO457552  27.553  24.974   5.232
 4386POPC   GL157553  27.636  25.009   5.749
 4386POPC   GL257554  27.947  24.840   5.875
 4386POPC   C1A57555  27.584  25.234   6.171
 4386POPC   D2A57556  27.794  25.436   6.564
 4386POPC   C3A57557  27.472  25.391   6.881
 4386POPC   C4A57558  27.306  25.560   7.295
 4386POPC   C1B57559  28.015  25.024   6.306
 4386POPC   C2B57560  27.793  24.956   6.702
 4386POPC   C3B57561  27.906  25.039   7.090
 4386POPC   C4B57562  27.750  25.336   7.294
 4387POPC   NC357563  17.528   1.798   5.413
 4387POPC   PO457564  17.599   2.466   5.424
 4387POPC   GL157565  17.556   2.185   5.802
 4387POPC   GL257566  17.298   1.957   5.863
 4387POPC   C1A57567  17.711   1.983   6.192
 4387POPC   D2A57568  17.591   2.056   6.624
 4387POPC   C3A57569  17.465   1.906   7.041
 4387POPC   C4A57570  17.592   1.942   7.479
 4387POPC   C1B57571  17.245   2.239   6.231
 4387POPC   C2B57572  17.294   2.450   6.668
 4387POPC   C3B57573  17.178   2.346   7.115
 4387POPC   C4B57574  17.202   2.258   7.550
 4388POPC   NC357575  10.815  23.542   5.580
 4388POPC   PO457576  10.193  23.545   5.479
 4388POPC   GL157577  10.398  23.663   5.837
 4388POPC   GL257578  10.563  23.352   6.000
 4388POPC   C1A57579  10.315  23.766   6.216
 4388POPC   D2A57580  10.353  23.500   6.501
 4388POPC   C3A57581  10.258  23.737   6.857
 4388POPC   C4A57582  10.540  23.938   7.102
 4388POPC   C1B57583  10.823  23.688   6.222
 4388POPC   C2B57584  10.732  23.821   6.627
 4388POPC   C3B57585  10.722  23.498   6.874
 4388POPC   C4B57586  10.685  23.332   7.219
 4389POPC   NC357587  37.623  39.846   5.370
 4389POPC   PO457588  38.043  40.344   5.586
 4389POPC   GL157589  37.731  40.131   5.832
 4389POPC   GL257590  38.012  39.938   5.987
 4389POPC   C1A57591  37.544  39.900   6.195
 4389POPC   D2A57592  37.456  40.009   6.605
 4389POPC   C3A57593  37.596  39.810   6.966
 4389POPC   C4A57594  37.484  39.884   7.401
 4389POPC   C1B57595  37.946  40.175   6.375
 4389POPC   C2B57596  38.015  40.086   6.811
 4389POPC   C3B57597  38.000  39.974   7.246
 4389POPC   C4B57598  37.840  40.186   7.619
 4390POPC   NC357599   8.882  43.801   5.271
 4390POPC   PO457600   9.103  44.437   5.539
 4390POPC   GL157601   9.151  44.130   5.887
 4390POPC   GL257602   9.350  43.827   5.748
 4390POPC   C1A57603   8.966  44.048   6.331
 4390POPC   D2A57604   8.758  43.823   6.700
 4390POPC   C3A57605   8.802  44.016   7.117
 4390POPC   C4A57606   9.079  44.256   7.436
 4390POPC   C1B57607   9.234  43.623   6.155
 4390POPC   C2B57608   9.167  43.541   6.606
 4390POPC   C3B57609   9.190  43.658   7.069
 4390POPC   C4B57610   9.152  43.650   7.547
 4391POPC   NC357611  29.643  21.519   5.588
 4391POPC   PO457612  30.277  21.438   5.388
 4391POPC   GL157613  30.197  21.384   5.812
 4391POPC   GL257614  30.250  21.736   5.873
 4391POPC   C1A57615  30.051  21.211   6.219
 4391POPC   D2A57616  29.847  21.279   6.628
 4391POPC   C3A57617  30.072  21.284   7.018
 4391POPC   C4A57618  30.114  21.025   7.425
 4391POPC   C1B57619  29.978  21.724   6.231
 4391POPC   C2B57620  29.695  21.768   6.578
 4391POPC   C3B57621  29.697  21.668   7.017
 4391POPC   C4B57622  30.054  21.804   7.244
 4392POPC   NC357623  31.183  44.183   5.582
 4392POPC   PO457624  31.638  44.601   5.273
 4392POPC   GL157625  31.555  44.676   5.744
 4392POPC   GL257626  31.441  44.429   5.936
 4392POPC   C1A57627  31.548  44.872   6.195
 4392POPC   D2A57628  31.732  44.829   6.639
 4392POPC   C3A57629  31.423  44.853   6.987
 4392POPC   C4A57630  31.412   0.007   7.417
 4392POPC   C1B57631  31.546  44.390   6.356
 4392POPC   C2B57632  31.610  44.350   6.786
 4392POPC   C3B57633  31.731  44.486   7.164
 4392POPC   C4B57634  31.547  44.521   7.518
 4393POPC   NC357635  12.792  22.998   5.386
 4393POPC   PO457636  13.261  23.445   5.193
 4393POPC   GL157637  13.036  23.304   5.709
 4393POPC   GL257638  12.969  22.867   5.828
 4393POPC   C1A57639  12.845  23.193   6.156
 4393POPC   D2A57640  12.511  22.998   6.404
 4393POPC   C3A57641  12.666  23.011   6.819
 4393POPC   C4A57642  12.657  22.851   7.215
 4393POPC   C1B57643  13.223  22.836   6.198
 4393POPC   C2B57644  13.164  22.945   6.603
 4393POPC   C3B57645  13.189  22.904   7.027
 4393POPC   C4B57646  13.005  23.227   7.238
 4394POPC   NC357647  14.591  37.325   5.509
 4394POPC   PO457648  14.122  37.759   5.440
 4394POPC   GL157649  14.328  37.867   5.850
 4394POPC   GL257650  14.663  37.729   5.827
 4394POPC   C1A57651  14.366  37.713   6.306
 4394POPC   D2A57652  14.079  37.573   6.671
 4394POPC   C3A57653  14.163  37.734   7.097
 4394POPC   C4A57654  14.497  37.803   7.402
 4394POPC   C1B57655  14.763  37.425   6.143
 4394POPC   C2B57656  14.543  37.258   6.519
 4394POPC   C3B57657  14.558  37.426   6.923
 4394POPC   C4B57658  14.977  37.493   7.064
 4395POPC   NC357659  21.377  24.695   5.313
 4395POPC   PO457660  21.648  24.139   5.401
 4395POPC   GL157661  21.559  24.415   5.777
 4395POPC   GL257662  21.519  24.784   5.778
 4395POPC   C1A57663  21.680  24.577   6.244
 4395POPC   D2A57664  21.824  24.541   6.705
 4395POPC   C3A57665  21.511  24.331   6.984
 4395POPC   C4A57666  21.079  24.384   7.166
 4395POPC   C1B57667  21.240  24.816   6.158
 4395POPC   C2B57668  21.307  24.655   6.601
 4395POPC   C3B57669  21.459  24.837   7.004
 4395POPC   C4B57670  21.175  24.909   7.332
 4396POPC   NC357671   9.379  17.658   5.376
 4396POPC   PO457672   8.799  17.538   5.597
 4396POPC   GL157673   8.951  17.686   5.935
 4396POPC   GL257674   9.278  17.676   5.888
 4396POPC   C1A57675   8.998  17.766   6.340
 4396POPC   D2A57676   8.902  17.544   6.682
 4396POPC   C3A57677   8.819  17.860   6.924
 4396POPC   C4A57678   8.761  17.865   7.294
 4396POPC   C1B57679   9.272  17.322   6.176
 4396POPC   C2B57680   9.298  17.191   6.630
 4396POPC   C3B57681   9.309  17.445   7.023
 4396POPC   C4B57682   9.295  17.895   7.164
 4397POPC   NC357683  21.412  40.159   5.310
 4397POPC   PO457684  21.066  39.574   5.359
 4397POPC   GL157685  21.395  39.766   5.701
 4397POPC   GL257686  21.506  40.149   5.815
 4397POPC   C1A57687  21.332  39.853   6.177
 4397POPC   D2A57688  21.457  40.075   6.593
 4397POPC   C3A57689  21.288  40.014   7.000
 4397POPC   C4A57690  21.197  39.660   7.217
 4397POPC   C1B57691  21.785  40.118   6.210
 4397POPC   C2B57692  21.881  40.328   6.662
 4397POPC   C3B57693  21.717  40.257   7.093
 4397POPC   C4B57694  21.566  39.963   7.442
 4398POPC   NC357695  33.329  19.534   5.340
 4398POPC   PO457696  32.832  20.011   5.376
 4398POPC   GL157697  33.065  20.013   5.734
 4398POPC   GL257698  33.010  19.653   5.737
 4398POPC   C1A57699  32.913  20.036   6.159
 4398POPC   D2A57700  32.674  19.834   6.517
 4398POPC   C3A57701  32.886  19.822   6.917
 4398POPC   C4A57702  33.145  20.111   7.149
 4398POPC   C1B57703  33.239  19.667   6.119
 4398POPC   C2B57704  33.222  19.853   6.532
 4398POPC   C3B57705  33.326  19.557   6.851
 4398POPC   C4B57706  33.444  19.681   7.251
 4399POPC   NC357707  40.860   4.723   5.501
 4399POPC   PO457708  40.751   4.060   5.361
 4399POPC   GL157709  40.807   4.212   5.726
 4399POPC   GL257710  41.015   3.961   5.820
 4399POPC   C1A57711  40.667   4.411   6.082
 4399POPC   D2A57712  40.605   4.293   6.497
 4399POPC   C3A57713  40.807   4.536   6.759
 4399POPC   C4A57714  40.802   4.531   7.174
 4399POPC   C1B57715  40.802   3.923   6.181
 4399POPC   C2B57716  40.814   3.820   6.601
 4399POPC   C3B57717  40.787   4.050   6.972
 4399POPC   C4B57718  41.131   4.144   7.184
 4400POPC   NC357719  41.624   5.643   5.195
 4400POPC   PO457720  41.706   6.073   5.636
 4400POPC   GL157721  41.502   6.054   5.968
 4400POPC   GL257722  41.262   5.834   5.854
 4400POPC   C1A57723  41.685   5.933   6.348
 4400POPC   D2A57724  41.619   6.011   6.765
 4400POPC   C3A57725  41.325   6.117   7.117
 4400POPC   C4A57726  41.655   6.240   7.462
 4400POPC   C1B57727  41.215   5.714   6.315
 4400POPC   C2B57728  41.544   5.500   6.595
 4400POPC   C3B57729  41.743   5.450   6.994
 4400POPC   C4B57730  41.715   5.811   7.208
 4401POPC   NC357731  31.247  18.560   5.618
 4401POPC   PO457732  31.503  19.174   5.345
 4401POPC   GL157733  31.682  19.156   5.752
 4401POPC   GL257734  31.724  18.796   5.831
 4401POPC   C1A57735  31.418  19.249   6.118
 4401POPC   D2A57736  31.121  19.285   6.458
 4401POPC   C3A57737  31.256  19.081   6.816
 4401POPC   C4A57738  31.538  19.183   7.161
 4401POPC   C1B57739  31.820  18.956   6.224
 4401POPC   C2B57740  31.705  18.965   6.624
 4401POPC   C3B57741  31.942  18.929   6.964
 4401POPC   C4B57742  31.820  18.771   7.328
 4402POPC   NC357743  25.334  31.115   5.662
 4402POPC   PO457744  24.974  31.576   5.407
 4402POPC   GL157745  25.214  31.652   5.780
 4402POPC   GL257746  25.584  31.654   5.763
 4402POPC   C1A57747  25.304  31.569   6.215
 4402POPC   D2A57748  25.208  31.635   6.636
 4402POPC   C3A57749  25.255  31.264   6.899
 4402POPC   C4A57750  25.127  31.296   7.305
 4402POPC   C1B57751  25.776  31.400   6.121
 4402POPC   C2B57752  25.645  31.331   6.528
 4402POPC   C3B57753  25.665  31.568   6.865
 4402POPC   C4B57754  25.638  31.381   7.264
 4403POPC   NC357755  25.136  13.913   5.435
 4403POPC   PO457756  25.606  13.505   5.495
 4403POPC   GL157757  25.295  13.503   5.845
 4403POPC   GL257758  24.971  13.552   5.809
 4403POPC   C1A57759  25.085  13.742   6.262
 4403POPC   D2A57760  24.943  13.698   6.689
 4403POPC   C3A57761  25.187  13.792   7.051
 4403POPC   C4A57762  25.263  13.541   7.397
 4403POPC   C1B57763  25.061  13.243   6.206
 4403POPC   C2B57764  25.245  13.286   6.606
 4403POPC   C3B57765  25.063  13.256   7.004
 4403POPC   C4B57766  24.863  13.191   7.384
 4404POPC   NC357767  42.666   3.449   5.196
 4404POPC   PO457768  43.311   3.545   5.529
 4404POPC   GL157769  43.325   3.780   5.877
 4404POPC   GL257770  42.990   3.837   5.915
 4404POPC   C1A57771  43.384   3.609   6.299
 4404POPC   D2A57772  43.167   3.407   6.628
 4404POPC   C3A57773  43.275   3.534   7.034
 4404POPC   C4A57774  43.165   3.757   7.375
 4404POPC   C1B57775  42.852   3.701   6.310
 4404POPC   C2B57776  42.850   3.774   6.758
 4404POPC   C3B57777  42.769   3.536   7.111
 4404POPC   C4B57778  42.502   3.409   7.429
 4405POPC   NC357779  36.951   0.513   5.403
 4405POPC   PO457780  37.313  44.940   5.433
 4405POPC   GL157781  37.171   0.187   5.800
 4405POPC   GL257782  37.244   0.546   5.859
 4405POPC   C1A57783  37.173   0.165   6.261
 4405POPC   D2A57784  37.093   0.317   6.718
 4405POPC   C3A57785  36.878   0.233   7.158
 4405POPC   C4A57786  36.929   0.195   7.659
 4405POPC   C1B57787  37.048   0.670   6.286
 4405POPC   C2B57788  36.921   0.825   6.721
 4405POPC   C3B57789  36.764   0.750   7.136
 4405POPC   C4B57790  36.560   0.520   7.484
 4406POPC   NC357791  20.925  30.477   5.134
 4406POPC   PO457792  20.595  31.004   5.512
 4406POPC   GL157793  20.571  30.756   5.853
 4406POPC   GL257794  20.415  30.437   5.696
 4406POPC   C1A57795  20.575  30.862   6.294
 4406POPC   D2A57796  20.887  30.935   6.612
 4406POPC   C3A57797  20.698  30.842   6.992
 4406POPC   C4A57798  20.878  30.713   7.364
 4406POPC   C1B57799  20.565  30.355   6.168
 4406POPC   C2B57800  20.694  30.454   6.584
 4406POPC   C3B57801  20.666  30.339   6.998
 4406POPC   C4B57802  20.706  30.076   7.309
 4407POPC   NC357803  30.384   0.513   5.452
 4407POPC   PO457804  30.812  44.989   5.390
 4407POPC   GL157805  30.703   0.139   5.834
 4407POPC   GL257806  30.357   0.242   5.919
 4407POPC   C1A57807  30.705   0.456   6.206
 4407POPC   D2A57808  30.486   0.471   6.609
 4407POPC   C3A57809  30.708   0.284   6.957
 4407POPC   C4A57810  30.845   0.626   7.234
 4407POPC   C1B57811  30.260   0.077   6.374
 4407POPC   C2B57812  30.143   0.183   6.838
 4407POPC   C3B57813  30.287   0.455   7.193
 4407POPC   C4B57814  30.475   0.361   7.581
 4408POPC   NC357815  12.950   3.658   5.417
 4408POPC   PO457816  12.508   3.218   5.519
 4408POPC   GL157817  12.743   3.410   5.906
 4408POPC   GL257818  12.935   3.718   5.907
 4408POPC   C1A57819  12.829   3.397   6.397
 4408POPC   D2A57820  12.766   3.238   6.840
 4408POPC   C3A57821  12.890   3.499   7.209
 4408POPC   C4A57822  12.801   3.852   7.454
 4408POPC   C1B57823  13.229   3.658   6.247
 4408POPC   C2B57824  13.126   3.675   6.714
 4408POPC   C3B57825  13.314   3.778   7.105
 4408POPC   C4B57826  13.304   3.739   7.579
 4409POPC   NC357827  11.358  39.457   5.329
 4409POPC   PO457828  11.428  38.894   5.546
 4409POPC   GL157829  11.575  39.218   5.793
 4409POPC   GL257830  11.418  39.553   5.827
 4409POPC   C1A57831  11.657  39.360   6.228
 4409POPC   D2A57832  11.509  39.515   6.634
 4409POPC   C3A57833  11.419  39.232   7.006
 4409POPC   C4A57834  11.547  38.815   7.141
 4409POPC   C1B57835  11.153  39.416   6.212
 4409POPC   C2B57836  11.014  39.362   6.674
 4409POPC   C3B57837  10.941  39.365   7.131
 4409POPC   C4B57838  11.228  39.507   7.459
 4410POPC   NC357839  18.426   4.402   5.409
 4410POPC   PO457840  17.763   4.263   5.258
 4410POPC   GL157841  18.018   4.178   5.685
 4410POPC   GL257842  18.395   4.159   5.830
 4410POPC   C1A57843  18.063   3.977   6.123
 4410POPC   D2A57844  18.407   3.892   6.399
 4410POPC   C3A57845  18.427   4.028   6.846
 4410POPC   C4A57846  18.238   4.297   7.190
 4410POPC   C1B57847  18.567   4.388   6.150
 4410POPC   C2B57848  18.604   4.596   6.535
 4410POPC   C3B57849  18.646   4.495   6.952
 4410POPC   C4B57850  18.550   4.669   7.342
 4411POPC   NC357851  26.241  35.730   5.290
 4411POPC   PO457852  25.838  35.233   5.356
 4411POPC   GL157853  26.012  35.189   5.739
 4411POPC   GL257854  26.117  35.518   5.754
 4411POPC   C1A57855  25.935  35.275   6.177
 4411POPC   D2A57856  26.167  35.164   6.526
 4411POPC   C3A57857  25.986  35.199   6.900
 4411POPC   C4A57858  25.945  35.539   7.175
 4411POPC   C1B57859  26.367  35.528   6.130
 4411POPC   C2B57860  26.341  35.672   6.557
 4411POPC   C3B57861  26.427  35.478   6.937
 4411POPC   C4B57862  26.425  35.643   7.336
 4412POPC   NC357863   7.349  14.035   5.417
 4412POPC   PO457864   7.702  14.650   5.360
 4412POPC   GL157865   7.552  14.544   5.738
 4412POPC   GL257866   7.712  14.226   5.794
 4412POPC   C1A57867   7.470  14.660   6.167
 4412POPC   D2A57868   7.636  14.406   6.504
 4412POPC   C3A57869   7.515  14.558   6.860
 4412POPC   C4A57870   7.222  14.559   7.163
 4412POPC   C1B57871   7.399  14.154   6.129
 4412POPC   C2B57872   7.266  13.968   6.515
 4412POPC   C3B57873   7.302  14.098   6.928
 4412POPC   C4B57874   7.578  14.161   7.242
 4413POPC   NC357875  24.575  26.235   4.981
 4413POPC   PO457876  24.346  26.163   5.563
 4413POPC   GL157877  24.374  26.214   5.940
 4413POPC   GL257878  24.743  26.226   5.937
 4413POPC   C1A57879  24.471  26.074   6.351
 4413POPC   D2A57880  24.534  26.130   6.797
 4413POPC   C3A57881  24.218  25.891   7.013
 4413POPC   C4A57882  24.070  25.968   7.409
 4413POPC   C1B57883  24.791  25.778   6.067
 4413POPC   C2B57884  24.771  25.676   6.524
 4413POPC   C3B57885  24.910  25.806   6.953
 4413POPC   C4B57886  24.659  25.968   7.287
 4414POPC   NC357887  21.989  42.022   5.342
 4414POPC   PO457888  22.261  42.714   5.345
 4414POPC   GL157889  22.112  42.455   5.683
 4414POPC   GL257890  21.776  42.550   5.813
 4414POPC   C1A57891  22.282  42.381   6.086
 4414POPC   D2A57892  22.389  42.266   6.482
 4414POPC   C3A57893  22.209  42.371   6.865
 4414POPC   C4A57894  22.260  42.125   7.210
 4414POPC   C1B57895  21.831  42.156   6.080
 4414POPC   C2B57896  21.906  42.070   6.508
 4414POPC   C3B57897  21.730  42.181   6.899
 4414POPC   C4B57898  21.747  41.950   7.247
 4415POPC   NC357899  29.537  36.543   5.583
 4415POPC   PO457900  29.031  36.123   5.332
 4415POPC   GL157901  28.955  36.043   5.802
 4415POPC   GL257902  28.794  36.346   5.886
 4415POPC   C1A57903  29.159  35.834   6.223
 4415POPC   D2A57904  29.462  35.684   6.554
 4415POPC   C3A57905  29.366  35.833   6.984
 4415POPC   C4A57906  28.990  35.778   7.221
 4415POPC   C1B57907  29.062  36.347   6.226
 4415POPC   C2B57908  28.891  36.220   6.594
 4415POPC   C3B57909  29.035  36.227   6.981
 4415POPC   C4B57910  29.310  36.510   7.148
 4416POPC   NC357911  19.990  21.630   5.532
 4416POPC   PO457912  19.559  21.092   5.565
 4416POPC   GL157913  19.846  21.304   5.891
 4416POPC   GL257914  19.841  21.714   5.999
 4416POPC   C1A57915  20.001  21.354   6.295
 4416POPC   D2A57916  19.711  21.414   6.621
 4416POPC   C3A57917  20.002  21.453   6.901
 4416POPC   C4A57918  20.082  21.525   7.287
 4416POPC   C1B57919  19.616  21.873   6.352
 4416POPC   C2B57920  19.679  21.927   6.781
 4416POPC   C3B57921  19.631  21.686   7.149
 4416POPC   C4B57922  19.617  21.683   7.611
 4417POPC   NC357923  44.234  28.919   5.109
 4417POPC   PO457924  43.724  29.206   5.599
 4417POPC   GL157925  43.891  29.226   5.966
 4417POPC   GL257926  44.168  29.375   5.792
 4417POPC   C1A57927  43.734  29.204   6.401
 4417POPC   D2A57928  43.946  28.938   6.697
 4417POPC   C3A57929  44.029  28.997   7.149
 4417POPC   C4A57930  43.765  28.971   7.533
 4417POPC   C1B57931  44.213  29.519   6.230
 4417POPC   C2B57932  44.410  29.645   6.612
 4417POPC   C3B57933  44.436  29.606   7.028
 4417POPC   C4B57934  44.173  29.463   7.363
 4418POPC   NC357935  26.288  36.363   5.559
 4418POPC   PO457936  25.815  35.979   5.316
 4418POPC   GL157937  25.933  35.997   5.750
 4418POPC   GL257938  26.029  36.309   5.966
 4418POPC   C1A57939  26.004  35.871   6.193
 4418POPC   D2A57940  26.090  36.155   6.537
 4418POPC   C3A57941  26.010  35.983   6.944
 4418POPC   C4A57942  26.044  35.977   7.417
 4418POPC   C1B57943  26.262  36.585   6.236
 4418POPC   C2B57944  26.425  36.601   6.630
 4418POPC   C3B57945  26.273  36.414   6.956
 4418POPC   C4B57946  26.028  36.457   7.297
 4419POPC   NC357947  34.468  21.912   5.292
 4419POPC   PO457948  34.868  22.453   5.395
 4419POPC   GL157949  34.556  22.293   5.754
 4419POPC   GL257950  34.444  21.950   5.807
 4419POPC   C1A57951  34.538  22.218   6.253
 4419POPC   D2A57952  34.698  22.194   6.725
 4419POPC   C3A57953  34.444  22.384   7.099
 4419POPC   C4A57954  34.346  22.408   7.557
 4419POPC   C1B57955  34.461  21.721   6.194
 4419POPC   C2B57956  34.581  21.686   6.616
 4419POPC   C3B57957  34.448  21.853   7.029
 4419POPC   C4B57958  34.583  21.984   7.453
 4420POPC   NC357959  10.246   1.836   5.300
 4420POPC   PO457960  10.847   2.166   5.144
 4420POPC   GL157961  10.650   2.171   5.578
 4420POPC   GL257962  10.622   1.844   5.700
 4420POPC   C1A57963  10.565   2.215   6.056
 4420POPC   D2A57964  10.573   2.012   6.479
 4420POPC   C3A57965  10.308   2.129   6.831
 4420POPC   C4A57966  10.393   2.175   7.259
 4420POPC   C1B57967  10.845   1.751   6.113
 4420POPC   C2B57968  10.952   1.663   6.569
 4420POPC   C3B57969  10.696   1.754   6.933
 4420POPC   C4B57970  10.630   1.584   7.338
 4421POPC   NC357971  24.837  21.593   5.531
 4421POPC   PO457972  24.175  21.447   5.480
 4421POPC   GL157973  24.271  21.327   5.917
 4421POPC   GL257974  24.627  21.346   5.909
 4421POPC   C1A57975  24.447  21.285   6.361
 4421POPC   D2A57976  24.391  21.053   6.688
 4421POPC   C3A57977  24.157  21.348   6.886
 4421POPC   C4A57978  24.251  21.306   7.290
 4421POPC   C1B57979  24.460  21.748   6.160
 4421POPC   C2B57980  24.370  21.748   6.623
 4421POPC   C3B57981  24.632  21.533   6.952
 4421POPC   C4B57982  24.788  21.639   7.401
 4422POPC   NC357983  11.838  44.072   5.131
 4422POPC   PO457984  12.351  44.019   5.528
 4422POPC   GL157985  12.260  43.992   5.947
 4422POPC   GL257986  11.951  44.126   6.095
 4422POPC   C1A57987  12.387  43.882   6.322
 4422POPC   D2A57988  12.245  44.018   6.692
 4422POPC   C3A57989  12.357  43.711   6.969
 4422POPC   C4A57990  12.328  43.804   7.369
 4422POPC   C1B57991  11.877  43.767   6.332
 4422POPC   C2B57992  11.818  43.686   6.760
 4422POPC   C3B57993  11.917  43.931   7.104
 4422POPC   C4B57994  11.825  43.829   7.524
 4423POPC   NC357995   9.566  21.706   5.564
 4423POPC   PO457996   9.950  21.187   5.362
 4423POPC   GL157997   9.824  21.326   5.778
 4423POPC   GL257998  10.005  21.646   5.854
 4423POPC   C1A57999   9.671  21.128   6.159
 4423POPC   D2A58000   9.865  21.061   6.567
 4423POPC   C3A58001   9.650  21.133   6.923
 4423POPC   C4A58002   9.769  21.101   7.336
 4423POPC   C1B58003   9.691  21.640   6.213
 4423POPC   C2B58004   9.515  21.528   6.619
 4423POPC   C3B58005   9.708  21.628   7.025
 4423POPC   C4B58006   9.750  21.588   7.447
 4424POPC   NC358007  43.262  16.364   5.261
 4424POPC   PO458008  42.669  16.541   5.411
 4424POPC   GL158009  42.934  16.213   5.712
 4424POPC   GL258010  43.309  16.200   5.766
 4424POPC   C1A58011  43.057  16.043   6.177
 4424POPC   D2A58012  43.291  16.082   6.602
 4424POPC   C3A58013  43.152  15.963   7.040
 4424POPC   C4A58014  43.017  15.830   7.470
 4424POPC   C1B58015  43.512  16.325   6.190
 4424POPC   C2B58016  43.701  16.385   6.628
 4424POPC   C3B58017  43.642  16.128   7.008
 4424POPC   C4B58018  43.485  16.088   7.432
 4425POPC   NC358019  20.296  11.789   5.334
 4425POPC   PO458020  20.320  12.357   5.602
 4425POPC   GL158021  20.418  11.959   5.859
 4425POPC   GL258022  20.251  11.610   5.804
 4425POPC   C1A58023  20.616  11.889   6.296
 4425POPC   D2A58024  20.502  12.047   6.728
 4425POPC   C3A58025  20.794  11.901   7.054
 4425POPC   C4A58026  20.781  11.723   7.453
 4425POPC   C1B58027  20.156  11.713   6.227
 4425POPC   C2B58028  20.344  11.570   6.604
 4425POPC   C3B58029  20.362  11.648   7.052
 4425POPC   C4B58030  20.321  11.953   7.405
 4426POPC   NC358031  12.479  10.353   5.365
 4426POPC   PO458032  12.041  10.833   5.516
 4426POPC   GL158033  11.992  10.704   5.882
 4426POPC   GL258034  12.168  10.416   5.791
 4426POPC   C1A58035  11.810  10.721   6.268
 4426POPC   D2A58036  12.062  10.575   6.595
 4426POPC   C3A58037  12.040  10.727   7.018
 4426POPC   C4A58038  12.461  10.743   7.165
 4426POPC   C1B58039  11.962  10.222   6.117
 4426POPC   C2B58040  12.005  10.060   6.540
 4426POPC   C3B58041  12.055  10.224   6.967
 4426POPC   C4B58042  11.968  10.051   7.387
 4427POPC   NC358043  26.987  24.977   5.203
 4427POPC   PO458044  26.778  25.572   5.439
 4427POPC   GL158045  26.976  25.424   5.787
 4427POPC   GL258046  27.160  25.157   5.651
 4427POPC   C1A58047  27.071  25.352   6.211
 4427POPC   D2A58048  26.802  25.229   6.551
 4427POPC   C3A58049  26.946  25.393   6.909
 4427POPC   C4A58050  26.824  25.393   7.293
 4427POPC   C1B58051  27.216  24.904   6.004
 4427POPC   C2B58052  27.144  24.862   6.432
 4427POPC   C3B58053  27.098  24.859   6.856
 4427POPC   C4B58054  27.251  25.059   7.216
 4428POPC   NC358055  34.783  27.885   5.357
 4428POPC   PO458056  34.841  27.191   5.529
 4428POPC   GL158057  34.567  27.407   5.831
 4428POPC   GL258058  34.530  27.774   5.820
 4428POPC   C1A58059  34.443  27.511   6.256
 4428POPC   D2A58060  34.716  27.531   6.606
 4428POPC   C3A58061  34.568  27.406   6.995
 4428POPC   C4A58062  34.440  27.657   7.350
 4428POPC   C1B58063  34.820  27.856   6.209
 4428POPC   C2B58064  35.054  27.927   6.594
 4428POPC   C3B58065  34.831  27.923   7.009
 4428POPC   C4B58066  34.788  28.029   7.435
 4429POPC   NC358067   7.148   3.272   5.502
 4429POPC   PO458068   6.923   2.684   5.472
 4429POPC   GL158069   7.318   2.615   5.758
 4429POPC   GL258070   7.585   2.901   5.775
 4429POPC   C1A58071   7.586   2.586   6.168
 4429POPC   D2A58072   7.657   2.708   6.625
 4429POPC   C3A58073   7.340   2.818   6.939
 4429POPC   C4A58074   7.267   2.904   7.366
 4429POPC   C1B58075   7.667   3.090   6.227
 4429POPC   C2B58076   7.650   3.228   6.698
 4429POPC   C3B58077   7.505   3.377   7.149
 4429POPC   C4B58078   7.317   3.353   7.599
 4430POPC   NC358079  28.224  27.090   5.276
 4430POPC   PO458080  28.396  26.499   5.506
 4430POPC   GL158081  28.215  26.790   5.798
 4430POPC   GL258082  28.133  27.194   5.763
 4430POPC   C1A58083  28.310  26.618   6.208
 4430POPC   D2A58084  28.104  26.431   6.539
 4430POPC   C3A58085  28.258  26.599   6.890
 4430POPC   C4A58086  28.103  26.731   7.288
 4430POPC   C1B58087  28.348  27.131   6.161
 4430POPC   C2B58088  28.517  26.978   6.558
 4430POPC   C3B58089  28.441  27.075   6.976
 4430POPC   C4B58090  28.574  26.917   7.356
 4431POPC   NC358091   5.354  16.277   5.122
 4431POPC   PO458092   4.905  16.474   5.616
 4431POPC   GL158093   5.160  16.764   5.804
 4431POPC   GL258094   5.178  16.499   6.063
 4431POPC   C1A58095   5.384  16.927   6.172
 4431POPC   D2A58096   5.191  16.741   6.522
 4431POPC   C3A58097   5.263  16.721   6.939
 4431POPC   C4A58098   5.521  16.957   7.233
 4431POPC   C1B58099   4.823  16.419   6.297
 4431POPC   C2B58100   4.913  16.353   6.712
 4431POPC   C3B58101   4.766  16.512   7.097
 4431POPC   C4B58102   5.099  16.571   7.392
 4432POPC   NC358103   6.447   9.487   5.264
 4432POPC   PO458104   6.862   9.096   5.595
 4432POPC   GL158105   6.574   9.125   5.920
 4432POPC   GL258106   6.317   9.256   5.741
 4432POPC   C1A58107   6.554   8.961   6.343
 4432POPC   D2A58108   6.698   8.578   6.610
 4432POPC   C3A58109   6.639   8.673   7.037
 4432POPC   C4A58110   6.436   9.096   7.079
 4432POPC   C1B58111   6.163   9.412   6.129
 4432POPC   C2B58112   6.246   9.336   6.568
 4432POPC   C3B58113   6.180   9.556   6.960
 4432POPC   C4B58114   6.330   9.524   7.358
 4433POPC   NC358115  26.945   6.355   5.474
 4433POPC   PO458116  26.775   6.995   5.526
 4433POPC   GL158117  26.957   6.817   5.903
 4433POPC   GL258118  27.170   6.450   5.922
 4433POPC   C1A58119  26.713   6.953   6.306
 4433POPC   D2A58120  26.661   7.113   6.765
 4433POPC   C3A58121  26.696   6.813   7.141
 4433POPC   C4A58122  26.418   6.553   7.432
 4433POPC   C1B58123  26.919   6.493   6.296
 4433POPC   C2B58124  26.669   6.542   6.665
 4433POPC   C3B58125  26.686   6.308   7.051
 4433POPC   C4B58126  26.843   6.275   7.502
 4434POPC   NC358127  21.820  21.942   5.081
 4434POPC   PO458128  21.170  21.918   5.433
 4434POPC   GL158129  21.389  22.059   5.808
 4434POPC   GL258130  21.754  21.935   5.873
 4434POPC   C1A58131  21.170  22.311   6.126
 4434POPC   D2A58132  21.045  22.232   6.542
 4434POPC   C3A58133  21.365  22.107   6.836
 4434POPC   C4A58134  21.228  22.135   7.249
 4434POPC   C1B58135  21.625  22.134   6.296
 4434POPC   C2B58136  21.560  22.521   6.580
 4434POPC   C3B58137  21.648  22.583   7.036
 4434POPC   C4B58138  21.687  22.333   7.437
 4435POPC   NC358139  37.226  33.334   5.029
 4435POPC   PO458140  37.013  32.867   5.405
 4435POPC   GL158141  36.848  32.996   5.800
 4435POPC   GL258142  36.993  33.300   5.832
 4435POPC   C1A58143  36.779  33.104   6.242
 4435POPC   D2A58144  36.994  33.034   6.615
 4435POPC   C3A58145  36.749  33.119   6.975
 4435POPC   C4A58146  36.951  32.888   7.270
 4435POPC   C1B58147  37.275  33.248   6.215
 4435POPC   C2B58148  37.260  33.486   6.623
 4435POPC   C3B58149  37.247  33.270   7.030
 4435POPC   C4B58150  37.076  33.358   7.421
 4436POPC   NC358151  11.214  21.160   5.554
 4436POPC   PO458152  11.390  20.520   5.453
 4436POPC   GL158153  11.301  20.739   5.821
 4436POPC   GL258154  11.032  20.528   5.988
 4436POPC   C1A58155  11.195  20.961   6.196
 4436POPC   D2A58156  11.116  20.691   6.534
 4436POPC   C3A58157  11.081  20.865   6.928
 4436POPC   C4A58158  11.222  20.690   7.312
 4436POPC   C1B58159  11.416  20.326   6.089
 4436POPC   C2B58160  11.469  20.305   6.485
 4436POPC   C3B58161  11.423  20.435   6.905
 4436POPC   C4B58162  11.384  20.206   7.264
 4437POPC   NC358163   6.475  34.662   5.298
 4437POPC   PO458164   6.985  34.380   5.526
 4437POPC   GL158165   6.931  34.448   5.930
 4437POPC   GL258166   6.685  34.714   5.856
 4437POPC   C1A58167   6.828  34.461   6.361
 4437POPC   D2A58168   6.589  34.502   6.720
 4437POPC   C3A58169   6.891  34.456   7.053
 4437POPC   C4A58170   6.956  34.692   7.403
 4437POPC   C1B58171   6.403  34.805   6.240
 4437POPC   C2B58172   6.433  34.976   6.657
 4437POPC   C3B58173   6.530  34.876   7.081
 4437POPC   C4B58174   6.418  34.439   7.198
 4438POPC   NC358175  13.717  40.152   5.490
 4438POPC   PO458176  13.486  39.503   5.489
 4438POPC   GL158177  13.792  39.750   5.827
 4438POPC   GL258178  13.811  40.147   5.972
 4438POPC   C1A58179  13.725  39.755   6.273
 4438POPC   D2A58180  13.382  39.870   6.518
 4438POPC   C3A58181  13.478  40.023   6.914
 4438POPC   C4A58182  13.786  40.178   7.179
 4438POPC   C1B58183  13.543  40.337   6.292
 4438POPC   C2B58184  13.550  40.499   6.715
 4438POPC   C3B58185  13.363  40.493   7.118
 4438POPC   C4B58186  13.352  40.431   7.544
 4439POPC   NC358187  30.534  42.180   5.416
 4439POPC   PO458188  29.937  42.481   5.212
 4439POPC   GL158189  29.965  42.266   5.638
 4439POPC   GL258190  30.144  41.955   5.703
 4439POPC   C1A58191  29.683  42.193   6.017
 4439POPC   D2A58192  29.680  42.094   6.488
 4439POPC   C3A58193  29.898  42.357   6.774
 4439POPC   C4A58194  29.873  42.520   7.177
 4439POPC   C1B58195  30.162  42.067   6.173
 4439POPC   C2B58196  30.276  42.032   6.632
 4439POPC   C3B58197  30.038  41.860   7.013
 4439POPC   C4B58198  30.213  41.714   7.418
 4440POPC   NC358199  43.407  42.755   5.451
 4440POPC   PO458200  42.997  43.250   5.360
 4440POPC   GL158201  43.200  43.170   5.729
 4440POPC   GL258202  43.006  42.950   5.855
 4440POPC   C1A58203  43.292  43.293   6.181
 4440POPC   D2A58204  43.242  43.321   6.655
 4440POPC   C3A58205  43.348  43.009   6.990
 4440POPC   C4A58206  43.146  43.091   7.366
 4440POPC   C1B58207  43.299  42.780   6.164
 4440POPC   C2B58208  43.089  42.832   6.570
 4440POPC   C3B58209  42.893  42.768   6.991
 4440POPC   C4B58210  42.956  42.568   7.402
 4441POPC   NC358211  10.878  32.390   5.399
 4441POPC   PO458212  10.279  31.999   5.444
 4441POPC   GL158213  10.613  32.084   5.761
 4441POPC   GL258214  10.388  32.289   5.867
 4441POPC   C1A58215  10.792  32.194   6.221
 4441POPC   D2A58216  10.970  32.117   6.673
 4441POPC   C3A58217  10.705  32.327   7.021
 4441POPC   C4A58218  10.599  32.203   7.449
 4441POPC   C1B58219  10.336  32.460   6.226
 4441POPC   C2B58220  10.470  32.537   6.616
 4441POPC   C3B58221  10.256  32.555   7.015
 4441POPC   C4B58222  10.404  32.679   7.405
 4442POPC   NC358223  10.760  10.187   5.461
 4442POPC   PO458224  10.234   9.710   5.496
 4442POPC   GL158225  10.484   9.778   5.826
 4442POPC   GL258226  10.412  10.119   5.862
 4442POPC   C1A58227  10.625   9.610   6.232
 4442POPC   D2A58228  10.448   9.485   6.634
 4442POPC   C3A58229  10.660   9.502   7.049
 4442POPC   C4A58230  10.534   9.697   7.474
 4442POPC   C1B58231  10.254   9.991   6.255
 4442POPC   C2B58232  10.309   9.980   6.687
 4442POPC   C3B58233  10.488  10.025   7.090
 4442POPC   C4B58234  10.211  10.073   7.431
 4443POPC   NC358235  44.833   8.484   5.410
 4443POPC   PO458236   0.164   7.951   5.438
 4443POPC   GL158237  44.763   8.021   5.739
 4443POPC   GL258238  44.668   8.365   5.884
 4443POPC   C1A58239  44.581   7.956   6.187
 4443POPC   D2A58240  44.596   7.695   6.577
 4443POPC   C3A58241  44.723   7.884   6.970
 4443POPC   C4A58242  44.455   7.886   7.343
 4443POPC   C1B58243  44.779   8.509   6.302
 4443POPC   C2B58244  44.639   8.580   6.742
 4443POPC   C3B58245  44.459   8.335   7.087
 4443POPC   C4B58246  44.476   8.348   7.547
 4444POPC   NC358247  38.298  20.125   5.098
 4444POPC   PO458248  38.679  19.692   5.377
 4444POPC   GL158249  38.552  19.910   5.739
 4444POPC   GL258250  38.627  19.663   5.899
 4444POPC   C1A58251  38.398  19.945   6.247
 4444POPC   D2A58252  38.181  19.995   6.677
 4444POPC   C3A58253  38.397  20.189   7.061
 4444POPC   C4A58254  38.475  19.966   7.474
 4444POPC   C1B58255  38.685  19.532   6.287
 4444POPC   C2B58256  38.552  19.582   6.705
 4444POPC   C3B58257  38.699  19.414   7.094
 4444POPC   C4B58258  38.800  19.567   7.507
 4445POPC   NC358259  33.652  35.616   5.381
 4445POPC   PO458260  33.943  34.930   5.455
 4445POPC   GL158261  33.770  35.255   5.785
 4445POPC   GL258262  33.513  35.548   5.862
 4445POPC   C1A58263  33.766  35.282   6.247
 4445POPC   D2A58264  33.585  35.011   6.587
 4445POPC   C3A58265  33.639  35.128   7.043
 4445POPC   C4A58266  33.978  35.175   7.349
 4445POPC   C1B58267  33.929  35.753   5.972
 4445POPC   C2B58268  34.141  35.851   6.357
 4445POPC   C3B58269  34.089  35.899   6.817
 4445POPC   C4B58270  33.880  35.843   7.219
 4446POPC   NC358271  34.739  41.830   5.478
 4446POPC   PO458272  34.791  41.095   5.510
 4446POPC   GL158273  34.542  41.398   5.779
 4446POPC   GL258274  34.666  41.730   5.956
 4446POPC   C1A58275  34.429  41.393   6.219
 4446POPC   D2A58276  34.653  41.244   6.594
 4446POPC   C3A58277  34.576  41.428   7.005
 4446POPC   C4A58278  34.200  41.603   7.140
 4446POPC   C1B58279  34.941  41.855   6.295
 4446POPC   C2B58280  34.846  41.788   6.748
 4446POPC   C3B58281  34.589  41.933   7.135
 4446POPC   C4B58282  34.763  41.988   7.560
 4447POPC   NC358283   5.898  35.441   5.296
 4447POPC   PO458284   6.388  35.029   5.555
 4447POPC   GL158285   6.104  35.102   5.890
 4447POPC   GL258286   5.828  35.285   5.785
 4447POPC   C1A58287   6.140  35.254   6.316
 4447POPC   D2A58288   6.261  35.431   6.718
 4447POPC   C3A58289   6.099  35.216   7.081
 4447POPC   C4A58290   6.172  35.216   7.533
 4447POPC   C1B58291   5.643  35.346   6.208
 4447POPC   C2B58292   5.750  35.397   6.651
 4447POPC   C3B58293   5.643  35.523   7.081
 4447POPC   C4B58294   5.607  35.445   7.544
 4448POPC   NC358295  34.897  29.167   5.222
 4448POPC   PO458296  34.260  29.063   5.401
 4448POPC   GL158297  34.493  29.044   5.797
 4448POPC   GL258298  34.808  29.228   5.754
 4448POPC   C1A58299  34.493  28.907   6.247
 4448POPC   D2A58300  34.356  28.658   6.592
 4448POPC   C3A58301  34.494  28.867   6.956
 4448POPC   C4A58302  34.801  28.954   7.275
 4448POPC   C1B58303  34.641  29.379   6.187
 4448POPC   C2B58304  34.523  29.344   6.637
 4448POPC   C3B58305  34.505  29.353   7.091
 4448POPC   C4B58306  34.546  29.609   7.420
 4449POPC   NC358307  28.094  19.888   5.338
 4449POPC   PO458308  28.572  19.413   5.460
 4449POPC   GL158309  28.542  19.718   5.816
 4449POPC   GL258310  28.318  20.008   5.784
 4449POPC   C1A58311  28.555  19.940   6.236
 4449POPC   D2A58312  28.270  19.928   6.585
 4449POPC   C3A58313  28.470  19.860   6.985
 4449POPC   C4A58314  28.384  19.636   7.345
 4449POPC   C1B58315  28.010  20.005   6.128
 4449POPC   C2B58316  27.854  20.260   6.484
 4449POPC   C3B58317  27.795  20.136   6.922
 4449POPC   C4B58318  28.045  20.020   7.300
 4450POPC   NC358319   4.478  18.769   5.451
 4450POPC   PO458320   4.063  19.226   5.142
 4450POPC   GL158321   4.210  19.318   5.647
 4450POPC   GL258322   4.189  19.107   5.954
 4450POPC   C1A58323   4.498  19.449   6.085
 4450POPC   D2A58324   4.574  19.243   6.548
 4450POPC   C3A58325   4.366  19.187   6.985
 4450POPC   C4A58326   4.323  19.309   7.440
 4450POPC   C1B58327   3.959  19.041   6.315
 4450POPC   C2B58328   3.869  19.173   6.744
 4450POPC   C3B58329   3.949  18.866   7.062
 4450POPC   C4B58330   4.115  18.856   7.457
 4451POPC   NC358331  43.431   4.860   5.491
 4451POPC   PO458332  42.925   5.311   5.385
 4451POPC   GL158333  42.922   5.132   5.781
 4451POPC   GL258334  43.250   5.158   5.871
 4451POPC   C1A58335  42.859   5.065   6.224
 4451POPC   D2A58336  43.065   5.262   6.600
 4451POPC   C3A58337  42.956   5.100   6.985
 4451POPC   C4A58338  42.942   5.305   7.342
 4451POPC   C1B58339  43.366   5.024   6.269
 4451POPC   C2B58340  43.555   5.152   6.670
 4451POPC   C3B58341  43.457   5.044   7.072
 4451POPC   C4B58342  43.263   4.692   7.290
 4452POPC   NC358343  41.885  25.997   5.352
 4452POPC   PO458344  41.269  25.592   5.415
 4452POPC   GL158345  41.509  25.896   5.708
 4452POPC   GL258346  41.768  25.734   5.804
 4452POPC   C1A58347  41.592  26.129   6.114
 4452POPC   D2A58348  41.459  26.253   6.553
 4452POPC   C3A58349  41.560  26.152   7.002
 4452POPC   C4A58350  41.290  26.011   7.349
 4452POPC   C1B58351  41.958  25.761   6.201
 4452POPC   C2B58352  41.925  25.992   6.584
 4452POPC   C3B58353  41.974  25.831   6.995
 4452POPC   C4B58354  41.758  25.786   7.354
 4453POPC   NC358355  18.087   6.231   5.515
 4453POPC   PO458356  18.428   5.662   5.436
 4453POPC   GL158357  18.563   5.827   5.843
 4453POPC   GL258358  18.433   6.162   5.895
 4453POPC   C1A58359  18.509   5.811   6.296
 4453POPC   D2A58360  18.442   6.057   6.675
 4453POPC   C3A58361  18.620   5.800   7.025
 4453POPC   C4A58362  18.361   5.529   7.276
 4453POPC   C1B58363  18.068   6.072   6.191
 4453POPC   C2B58364  17.966   5.867   6.595
 4453POPC   C3B58365  18.096   5.907   7.033
 4453POPC   C4B58366  17.926   6.159   7.340
 4454POPC   NC358367  30.694  22.747   5.586
 4454POPC   PO458368  30.900  23.330   5.567
 4454POPC   GL158369  30.565  23.134   5.891
 4454POPC   GL258370  30.358  22.760   5.954
 4454POPC   C1A58371  30.588  22.990   6.338
 4454POPC   D2A58372  30.830  22.829   6.696
 4454POPC   C3A58373  30.848  23.101   7.060
 4454POPC   C4A58374  30.656  23.113   7.451
 4454POPC   C1B58375  30.548  22.467   6.306
 4454POPC   C2B58376  30.547  22.417   6.779
 4454POPC   C3B58377  30.574  22.675   7.170
 4454POPC   C4B58378  30.608  22.630   7.621
 4455POPC   NC358379  24.522   1.814   5.433
 4455POPC   PO458380  24.102   2.335   5.312
 4455POPC   GL158381  24.404   2.224   5.711
 4455POPC   GL258382  24.375   1.908   5.944
 4455POPC   C1A58383  24.680   2.290   6.081
 4455POPC   D2A58384  24.635   2.298   6.527
 4455POPC   C3A58385  24.266   2.110   6.769
 4455POPC   C4A58386  24.205   2.131   7.254
 4455POPC   C1B58387  24.719   1.801   6.303
 4455POPC   C2B58388  24.890   1.914   6.733
 4455POPC   C3B58389  24.628   1.912   7.074
 4455POPC   C4B58390  24.458   1.681   7.391
 4456POPC   NC358391   8.742   1.419   5.277
 4456POPC   PO458392   8.835   0.795   5.460
 4456POPC   GL158393   9.084   0.975   5.761
 4456POPC   GL258394   8.962   1.319   5.727
 4456POPC   C1A58395   9.169   1.155   6.179
 4456POPC   D2A58396   8.879   1.127   6.504
 4456POPC   C3A58397   9.003   0.912   6.854
 4456POPC   C4A58398   8.931   1.036   7.265
 4456POPC   C1B58399   8.812   1.526   6.093
 4456POPC   C2B58400   8.803   1.637   6.533
 4456POPC   C3B58401   8.894   1.448   6.940
 4456POPC   C4B58402   8.791   1.558   7.354
 4457POPC   NC358403  14.656   6.775   5.231
 4457POPC   PO458404  14.258   7.071   5.678
 4457POPC   GL158405  14.321   6.654   5.883
 4457POPC   GL258406  14.166   6.343   5.739
 4457POPC   C1A58407  14.528   6.617   6.282
 4457POPC   D2A58408  14.712   6.924   6.562
 4457POPC   C3A58409  14.588   6.727   6.922
 4457POPC   C4A58410  14.416   6.432   7.197
 4457POPC   C1B58411  14.109   6.290   6.205
 4457POPC   C2B58412  14.209   6.401   6.654
 4457POPC   C3B58413  13.975   6.247   7.023
 4457POPC   C4B58414  13.995   6.319   7.473
 4458POPC   NC358415  23.477  23.388   5.335
 4458POPC   PO458416  23.494  24.053   5.205
 4458POPC   GL158417  23.647  23.874   5.670
 4458POPC   GL258418  23.580  23.524   5.807
 4458POPC   C1A58419  23.836  23.949   6.128
 4458POPC   D2A58420  23.731  24.088   6.588
 4458POPC   C3A58421  23.722  23.855   7.025
 4458POPC   C4A58422  23.795  23.824   7.485
 4458POPC   C1B58423  23.453  23.615   6.224
 4458POPC   C2B58424  23.684  23.571   6.594
 4458POPC   C3B58425  23.708  23.318   6.965
 4458POPC   C4B58426  23.482  23.429   7.330
 4459POPC   NC358427  14.707   1.487   5.499
 4459POPC   PO458428  14.189   1.048   5.414
 4459POPC   GL158429  14.257   1.304   5.806
 4459POPC   GL258430  14.557   1.512   5.986
 4459POPC   C1A58431  14.213   1.276   6.241
 4459POPC   D2A58432  14.499   1.452   6.540
 4459POPC   C3A58433  14.405   1.395   6.956
 4459POPC   C4A58434  14.184   1.119   7.217
 4459POPC   C1B58435  14.686   1.106   6.152
 4459POPC   C2B58436  14.905   1.070   6.550
 4459POPC   C3B58437  14.735   1.025   6.956
 4459POPC   C4B58438  14.652   0.909   7.357
 4460POPC   NC358439  16.234   7.792   5.474
 4460POPC   PO458440  15.930   7.166   5.280
 4460POPC   GL158441  16.057   7.325   5.681
 4460POPC   GL258442  16.414   7.356   5.677
 4460POPC   C1A58443  15.829   7.485   6.065
 4460POPC   D2A58444  15.641   7.605   6.455
 4460POPC   C3A58445  15.512   7.392   6.804
 4460POPC   C4A58446  15.669   7.423   7.178
 4460POPC   C1B58447  16.341   7.510   6.090
 4460POPC   C2B58448  16.158   7.362   6.480
 4460POPC   C3B58449  16.221   7.408   6.922
 4460POPC   C4B58450  16.119   7.217   7.308
 4461POPC   NC358451   0.528  28.409   5.508
 4461POPC   PO458452  44.977  27.982   5.469
 4461POPC   GL158453   0.304  28.051   5.788
 4461POPC   GL258454   0.115  28.339   5.877
 4461POPC   C1A58455   0.581  28.316   6.144
 4461POPC   D2A58456   0.362  28.541   6.506
 4461POPC   C3A58457   0.400  28.525   6.992
 4461POPC   C4A58458   0.627  28.366   7.367
 4461POPC   C1B58459   0.171  28.084   6.262
 4461POPC   C2B58460   0.320  28.037   6.677
 4461POPC   C3B58461   0.107  28.039   7.055
 4461POPC   C4B58462   0.210  28.073   7.469
 4462POPC   NC358463   9.781  23.341   5.346
 4462POPC   PO458464  10.009  22.707   5.563
 4462POPC   GL158465   9.738  22.859   5.805
 4462POPC   GL258466   9.678  23.205   5.838
 4462POPC   C1A58467   9.490  22.870   6.178
 4462POPC   D2A58468   9.507  23.144   6.474
 4462POPC   C3A58469   9.636  22.956   6.839
 4462POPC   C4A58470   9.658  22.757   7.251
 4462POPC   C1B58471   9.976  23.113   6.182
 4462POPC   C2B58472  10.177  23.005   6.557
 4462POPC   C3B58473  10.254  23.228   6.918
 4462POPC   C4B58474   9.922  23.200   7.170
 4463POPC   NC358475   6.082  21.020   5.198
 4463POPC   PO458476   5.725  21.627   5.416
 4463POPC   GL158477   5.872  21.336   5.734
 4463POPC   GL258478   6.189  21.234   5.718
 4463POPC   C1A58479   5.700  21.251   6.128
 4463POPC   D2A58480   5.575  21.422   6.540
 4463POPC   C3A58481   5.807  21.492   6.913
 4463POPC   C4A58482   5.539  21.333   7.243
 4463POPC   C1B58483   6.234  21.252   6.147
 4463POPC   C2B58484   6.275  21.306   6.585
 4463POPC   C3B58485   6.276  21.072   6.961
 4463POPC   C4B58486   6.028  21.202   7.296
 4464POPC   NC358487  18.888  31.265   5.471
 4464POPC   PO458488  19.260  31.865   5.472
 4464POPC   GL158489  19.368  31.710   5.860
 4464POPC   GL258490  19.184  31.437   5.843
 4464POPC   C1A58491  19.222  31.730   6.299
 4464POPC   D2A58492  19.027  32.026   6.592
 4464POPC   C3A58493  19.068  31.867   7.017
 4464POPC   C4A58494  19.179  31.655   7.388
 4464POPC   C1B58495  18.992  31.280   6.233
 4464POPC   C2B58496  18.882  31.472   6.667
 4464POPC   C3B58497  18.818  31.412   7.123
 4464POPC   C4B58498  19.078  31.168   7.447
 4465POPC   NC358499  11.921   5.644   5.430
 4465POPC   PO458500  11.776   6.191   5.638
 4465POPC   GL158501  12.026   5.970   5.885
 4465POPC   GL258502  12.092   5.604   5.910
 4465POPC   C1A58503  11.947   5.906   6.285
 4465POPC   D2A58504  12.269   5.960   6.527
 4465POPC   C3A58505  12.269   5.840   6.944
 4465POPC   C4A58506  12.264   5.697   7.362
 4465POPC   C1B58507  11.599   5.658   6.001
 4465POPC   C2B58508  11.499   5.678   6.456
 4465POPC   C3B58509  11.765   5.692   6.822
 4465POPC   C4B58510  11.817   5.921   7.202
 4466POPC   NC358511  23.333  25.087   5.594
 4466POPC   PO458512  23.066  25.736   5.482
 4466POPC   GL158513  22.884  25.375   5.806
 4466POPC   GL258514  22.587  25.124   5.757
 4466POPC   C1A58515  23.032  25.255   6.266
 4466POPC   D2A58516  23.215  25.410   6.711
 4466POPC   C3A58517  22.982  25.564   7.058
 4466POPC   C4A58518  22.734  25.409   7.387
 4466POPC   C1B58519  22.500  25.299   6.190
 4466POPC   C2B58520  22.666  25.272   6.618
 4466POPC   C3B58521  22.871  25.068   6.948
 4466POPC   C4B58522  22.720  24.865   7.305
 4467POPC   NC358523  35.417  43.475   5.466
 4467POPC   PO458524  35.447  42.850   5.388
 4467POPC   GL158525  35.394  43.085   5.800
 4467POPC   GL258526  35.086  43.267   5.896
 4467POPC   C1A58527  35.440  43.197   6.251
 4467POPC   D2A58528  35.207  43.259   6.626
 4467POPC   C3A58529  35.495  43.107   6.915
 4467POPC   C4A58530  35.504  42.879   7.290
 4467POPC   C1B58531  34.960  42.946   6.208
 4467POPC   C2B58532  34.911  42.811   6.662
 4467POPC   C3B58533  35.014  42.993   7.079
 4467POPC   C4B58534  35.087  42.958   7.558
 4468POPC   NC358535   5.422   5.990   5.412
 4468POPC   PO458536   6.079   6.008   5.473
 4468POPC   GL158537   5.759   5.988   5.802
 4468POPC   GL258538   5.768   5.662   5.834
 4468POPC   C1A58539   5.756   6.110   6.244
 4468POPC   D2A58540   5.940   5.915   6.584
 4468POPC   C3A58541   5.681   5.740   6.838
 4468POPC   C4A58542   5.390   5.831   7.141
 4468POPC   C1B58543   5.704   5.603   6.261
 4468POPC   C2B58544   5.984   5.395   6.563
 4468POPC   C3B58545   5.982   5.341   7.008
 4468POPC   C4B58546   5.845   5.646   7.307
 4469POPC   NC358547  38.096  11.095   5.222
 4469POPC   PO458548  38.328  11.671   5.437
 4469POPC   GL158549  38.170  11.337   5.803
 4469POPC   GL258550  38.443  11.090   5.944
 4469POPC   C1A58551  38.133  11.262   6.303
 4469POPC   D2A58552  38.331  11.081   6.713
 4469POPC   C3A58553  38.244  11.265   7.104
 4469POPC   C4A58554  38.242  11.579   7.418
 4469POPC   C1B58555  38.709  10.947   6.335
 4469POPC   C2B58556  38.848  10.984   6.770
 4469POPC   C3B58557  38.761  11.198   7.150
 4469POPC   C4B58558  38.511  11.118   7.515
 4470POPC   NC358559  36.972   9.947   5.103
 4470POPC   PO458560  36.774  10.486   5.333
 4470POPC   GL158561  36.659  10.511   5.778
 4470POPC   GL258562  36.967  10.603   5.928
 4470POPC   C1A58563  36.643  10.261   6.180
 4470POPC   D2A58564  36.522  10.378   6.621
 4470POPC   C3A58565  36.702  10.252   7.035
 4470POPC   C4A58566  36.530  10.547   7.338
 4470POPC   C1B58567  36.974  10.585   6.409
 4470POPC   C2B58568  37.076  10.580   6.838
 4470POPC   C3B58569  36.931  10.839   7.167
 4470POPC   C4B58570  37.057  10.883   7.598
 4471POPC   NC358571  24.673  23.885   5.532
 4471POPC   PO458572  24.175  23.420   5.573
 4471POPC   GL158573  24.481  23.552   5.879
 4471POPC   GL258574  24.829  23.477   5.842
 4471POPC   C1A58575  24.503  23.891   6.179
 4471POPC   D2A58576  24.258  23.947   6.530
 4471POPC   C3A58577  24.475  23.842   6.893
 4471POPC   C4A58578  24.250  23.694   7.194
 4471POPC   C1B58579  24.726  23.288   6.232
 4471POPC   C2B58580  24.544  23.461   6.555
 4471POPC   C3B58581  24.625  23.349   6.961
 4471POPC   C4B58582  24.802  23.597   7.206
 4472POPC   NC358583  17.368  39.088   5.512
 4472POPC   PO458584  17.922  39.379   5.505
 4472POPC   GL158585  17.655  39.347   5.872
 4472POPC   GL258586  17.315  39.537   5.796
 4472POPC   C1A58587  17.776  39.267   6.336
 4472POPC   D2A58588  17.679  39.381   6.794
 4472POPC   C3A58589  17.884  39.152   7.123
 4472POPC   C4A58590  17.859  38.915   7.523
 4472POPC   C1B58591  17.372  39.561   6.231
 4472POPC   C2B58592  17.271  39.222   6.526
 4472POPC   C3B58593  17.225  39.134   6.960
 4472POPC   C4B58594  17.447  39.331   7.300
 4473POPC   NC358595  19.806  23.026   5.347
 4473POPC   PO458596  19.997  23.361   5.824
 4473POPC   GL158597  19.815  22.890   5.855
 4473POPC   GL258598  19.455  22.765   5.754
 4473POPC   C1A58599  19.888  22.744   6.267
 4473POPC   D2A58600  19.956  23.139   6.457
 4473POPC   C3A58601  19.946  23.145   6.893
 4473POPC   C4A58602  20.031  22.831   7.185
 4473POPC   C1B58603  19.386  22.851   6.207
 4473POPC   C2B58604  19.545  22.879   6.644
 4473POPC   C3B58605  19.513  22.854   7.064
 4473POPC   C4B58606  19.589  22.604   7.392
 4474POPC   NC358607  35.494  28.371   5.342
 4474POPC   PO458608  34.917  28.174   5.677
 4474POPC   GL158609  35.153  28.196   6.030
 4474POPC   GL258610  35.423  28.315   5.859
 4474POPC   C1A58611  35.480  28.201   6.356
 4474POPC   D2A58612  35.510  28.371   6.747
 4474POPC   C3A58613  35.309  28.129   7.020
 4474POPC   C4A58614  35.313  28.150   7.442
 4474POPC   C1B58615  35.351  28.647   6.174
 4474POPC   C2B58616  35.462  28.860   6.543
 4474POPC   C3B58617  35.674  28.823   6.919
 4474POPC   C4B58618  35.415  28.623   7.212
 4475POPC   NC358619  13.592  16.242   5.496
 4475POPC   PO458620  13.386  16.908   5.432
 4475POPC   GL158621  13.451  16.708   5.809
 4475POPC   GL258622  13.796  16.770   5.941
 4475POPC   C1A58623  13.429  16.530   6.229
 4475POPC   D2A58624  13.564  16.489   6.646
 4475POPC   C3A58625  13.340  16.624   7.010
 4475POPC   C4A58626  13.474  16.725   7.415
 4475POPC   C1B58627  13.956  16.496   6.294
 4475POPC   C2B58628  14.057  16.562   6.751
 4475POPC   C3B58629  13.807  16.450   7.145
 4475POPC   C4B58630  13.867  16.466   7.624
 4476POPC   NC358631  39.828  33.972   5.363
 4476POPC   PO458632  40.137  33.481   5.143
 4476POPC   GL158633  40.022  33.621   5.668
 4476POPC   GL258634  40.337  33.618   5.914
 4476POPC   C1A58635  39.903  33.838   6.082
 4476POPC   D2A58636  40.168  33.755   6.447
 4476POPC   C3A58637  40.106  33.736   6.887
 4476POPC   C4A58638  39.802  33.637   7.164
 4476POPC   C1B58639  40.390  34.043   6.088
 4476POPC   C2B58640  40.126  34.254   6.393
 4476POPC   C3B58641  40.143  34.264   6.828
 4476POPC   C4B58642  40.212  34.106   7.228
 4477POPC   NC358643  23.696  17.399   5.291
 4477POPC   PO458644  23.913  18.021   5.386
 4477POPC   GL158645  23.913  17.679   5.732
 4477POPC   GL258646  23.785  17.294   5.767
 4477POPC   C1A58647  23.716  17.638   6.159
 4477POPC   D2A58648  23.583  17.408   6.522
 4477POPC   C3A58649  23.568  17.641   6.897
 4477POPC   C4A58650  23.933  17.725   7.117
 4477POPC   C1B58651  24.084  17.080   6.005
 4477POPC   C2B58652  24.027  17.121   6.428
 4477POPC   C3B58653  24.000  17.324   6.813
 4477POPC   C4B58654  24.153  17.277   7.219
 4478POPC   NC358655  29.754  23.344   5.367
 4478POPC   PO458656  30.344  22.985   5.384
 4478POPC   GL158657  30.077  23.163   5.737
 4478POPC   GL258658  29.758  22.981   5.757
 4478POPC   C1A58659  30.036  23.064   6.207
 4478POPC   D2A58660  30.096  22.648   6.475
 4478POPC   C3A58661  30.152  22.764   6.911
 4478POPC   C4A58662  30.294  23.154   7.095
 4478POPC   C1B58663  29.717  22.676   6.102
 4478POPC   C2B58664  29.604  22.793   6.525
 4478POPC   C3B58665  29.664  22.635   6.923
 4478POPC   C4B58666  29.705  22.849   7.273
 4479POPC   NC358667  14.858  25.377   5.530
 4479POPC   PO458668  15.579  25.267   5.393
 4479POPC   GL158669  15.591  25.466   5.791
 4479POPC   GL258670  15.238  25.461   5.862
 4479POPC   C1A58671  15.534  25.264   6.223
 4479POPC   D2A58672  15.262  25.033   6.525
 4479POPC   C3A58673  15.236  25.181   6.942
 4479POPC   C4A58674  15.039  25.123   7.333
 4479POPC   C1B58675  15.020  25.387   6.257
 4479POPC   C2B58676  15.108  25.583   6.678
 4479POPC   C3B58677  14.955  25.575   7.119
 4479POPC   C4B58678  14.985  25.552   7.622
 4480POPC   NC358679  36.084  38.941   5.555
 4480POPC   PO458680  35.667  39.503   5.428
 4480POPC   GL158681  35.935  39.454   5.784
 4480POPC   GL258682  36.251  39.628   5.715
 4480POPC   C1A58683  36.007  39.288   6.194
 4480POPC   D2A58684  36.231  39.104   6.562
 4480POPC   C3A58685  36.233  39.305   6.965
 4480POPC   C4A58686  36.138  39.183   7.397
 4480POPC   C1B58687  36.456  39.504   6.103
 4480POPC   C2B58688  36.514  39.588   6.542
 4480POPC   C3B58689  36.690  39.565   6.968
 4480POPC   C4B58690  36.622  39.307   7.322
 4481POPC   NC358691  43.255  32.638   5.365
 4481POPC   PO458692  42.999  32.042   5.351
 4481POPC   GL158693  43.110  32.242   5.744
 4481POPC   GL258694  42.899  32.525   5.723
 4481POPC   C1A58695  42.970  32.292   6.192
 4481POPC   D2A58696  43.180  32.146   6.585
 4481POPC   C3A58697  43.007  32.266   6.942
 4481POPC   C4A58698  43.167  32.419   7.280
 4481POPC   C1B58699  43.249  32.694   6.012
 4481POPC   C2B58700  43.217  32.690   6.462
 4481POPC   C3B58701  43.320  32.667   6.876
 4481POPC   C4B58702  43.512  32.789   7.240
 4482POPC   NC358703   7.037  29.630   5.524
 4482POPC   PO458704   6.609  30.039   5.240
 4482POPC   GL158705   6.602  29.854   5.688
 4482POPC   GL258706   6.503  30.069   5.948
 4482POPC   C1A58707   6.783  29.685   6.107
 4482POPC   D2A58708   6.609  29.601   6.500
 4482POPC   C3A58709   6.829  29.762   6.848
 4482POPC   C4A58710   6.694  29.750   7.273
 4482POPC   C1B58711   6.738  30.144   6.341
 4482POPC   C2B58712   6.590  30.359   6.680
 4482POPC   C3B58713   6.518  30.185   7.063
 4482POPC   C4B58714   6.683  30.322   7.440
 4483POPC   NC358715  35.055  15.177   5.370
 4483POPC   PO458716  34.427  15.356   5.380
 4483POPC   GL158717  34.658  15.105   5.718
 4483POPC   GL258718  34.816  15.406   5.774
 4483POPC   C1A58719  34.781  14.968   6.170
 4483POPC   D2A58720  34.787  15.130   6.638
 4483POPC   C3A58721  34.553  15.079   7.057
 4483POPC   C4A58722  34.284  15.395   7.296
 4483POPC   C1B58723  34.971  15.439   6.186
 4483POPC   C2B58724  34.882  15.644   6.582
 4483POPC   C3B58725  34.748  15.535   6.982
 4483POPC   C4B58726  35.034  15.216   7.143
 4484POPC   NC358727  23.705  35.518   5.356
 4484POPC   PO458728  23.131  35.591   5.632
 4484POPC   GL158729  23.523  35.431   5.856
 4484POPC   GL258730  23.911  35.573   5.821
 4484POPC   C1A58731  23.501  35.243   6.279
 4484POPC   D2A58732  23.457  35.472   6.666
 4484POPC   C3A58733  23.478  35.213   7.023
 4484POPC   C4A58734  23.837  35.081   7.275
 4484POPC   C1B58735  23.895  35.556   6.246
 4484POPC   C2B58736  23.942  35.280   6.585
 4484POPC   C3B58737  23.894  35.488   6.954
 4484POPC   C4B58738  24.010  35.578   7.353
 4485POPC   NC358739  10.507  30.156   5.312
 4485POPC   PO458740  10.376  29.487   5.366
 4485POPC   GL158741  10.478  29.780   5.711
 4485POPC   GL258742  10.451  30.140   5.828
 4485POPC   C1A58743  10.720  29.750   6.114
 4485POPC   D2A58744  10.832  29.975   6.506
 4485POPC   C3A58745  10.471  30.018   6.817
 4485POPC   C4A58746  10.531  30.117   7.240
 4485POPC   C1B58747  10.329  30.055   6.279
 4485POPC   C2B58748  10.106  30.342   6.564
 4485POPC   C3B58749  10.165  30.398   6.983
 4485POPC   C4B58750  10.043  30.033   7.239
 4486POPC   NC358751  13.689  22.562   5.454
 4486POPC   PO458752  13.205  22.078   5.321
 4486POPC   GL158753  13.391  21.973   5.763
 4486POPC   GL258754  13.755  21.885   5.697
 4486POPC   C1A58755  13.408  22.178   6.219
 4486POPC   D2A58756  13.325  22.409   6.645
 4486POPC   C3A58757  13.310  22.169   7.069
 4486POPC   C4A58758  13.335  21.813   7.377
 4486POPC   C1B58759  13.856  21.907   6.157
 4486POPC   C2B58760  13.775  22.085   6.581
 4486POPC   C3B58761  13.719  21.863   6.966
 4486POPC   C4B58762  13.947  22.052   7.264
 4487POPC   NC358763  18.292  18.686   5.391
 4487POPC   PO458764  18.140  18.116   5.212
 4487POPC   GL158765  18.155  18.194   5.704
 4487POPC   GL258766  18.109  18.525   5.877
 4487POPC   C1A58767  18.245  18.136   6.193
 4487POPC   D2A58768  18.299  18.340   6.642
 4487POPC   C3A58769  18.406  18.175   7.077
 4487POPC   C4A58770  18.229  18.216   7.489
 4487POPC   C1B58771  17.850  18.599   6.280
 4487POPC   C2B58772  17.731  18.534   6.746
 4487POPC   C3B58773  18.044  18.541   7.072
 4487POPC   C4B58774  18.469  18.693   7.029
 4488POPC   NC358775  32.877   7.631   5.434
 4488POPC   PO458776  33.495   7.493   5.227
 4488POPC   GL158777  33.261   7.584   5.755
 4488POPC   GL258778  32.980   7.416   5.905
 4488POPC   C1A58779  33.009   7.806   6.192
 4488POPC   D2A58780  32.810   7.754   6.604
 4488POPC   C3A58781  33.015   7.768   6.974
 4488POPC   C4A58782  32.826   7.725   7.378
 4488POPC   C1B58783  32.875   7.109   6.220
 4488POPC   C2B58784  32.965   7.046   6.642
 4488POPC   C3B58785  32.962   7.245   7.021
 4488POPC   C4B58786  33.051   6.999   7.345
 4489POPC   NC358787   8.170  32.423   5.175
 4489POPC   PO458788   8.370  32.104   5.755
 4489POPC   GL158789   8.061  32.265   5.990
 4489POPC   GL258790   7.753  32.110   5.916
 4489POPC   C1A58791   8.192  32.283   6.413
 4489POPC   D2A58792   8.028  32.270   6.802
 4489POPC   C3A58793   8.250  32.281   7.181
 4489POPC   C4A58794   8.219  32.560   7.504
 4489POPC   C1B58795   7.697  32.161   6.373
 4489POPC   C2B58796   7.767  31.852   6.697
 4489POPC   C3B58797   7.777  31.963   7.169
 4489POPC   C4B58798   7.933  31.909   7.635
 4490POPC   NC358799  38.641   3.756   5.367
 4490POPC   PO458800  38.131   3.289   5.525
 4490POPC   GL158801  38.311   3.509   5.812
 4490POPC   GL258802  38.629   3.438   5.784
 4490POPC   C1A58803  38.287   3.415   6.246
 4490POPC   D2A58804  38.394   3.658   6.595
 4490POPC   C3A58805  38.214   3.724   7.007
 4490POPC   C4A58806  38.384   3.623   7.414
 4490POPC   C1B58807  38.805   3.533   6.172
 4490POPC   C2B58808  38.833   3.405   6.598
 4490POPC   C3B58809  38.720   3.608   6.983
 4490POPC   C4B58810  38.891   3.673   7.357
 4491POPC   NC358811   5.066  42.627   5.248
 4491POPC   PO458812   5.188  42.035   5.341
 4491POPC   GL158813   5.220  42.359   5.692
 4491POPC   GL258814   4.896  42.442   5.811
 4491POPC   C1A58815   5.405  42.378   6.119
 4491POPC   D2A58816   5.316  42.307   6.554
 4491POPC   C3A58817   5.612  42.205   6.861
 4491POPC   C4A58818   5.504  42.305   7.253
 4491POPC   C1B58819   5.000  42.649   6.227
 4491POPC   C2B58820   4.959  42.641   6.663
 4491POPC   C3B58821   5.023  42.575   7.086
 4491POPC   C4B58822   4.962  42.871   7.343
 4492POPC   NC358823  27.240   3.776   5.395
 4492POPC   PO458824  27.703   3.376   5.481
 4492POPC   GL158825  27.522   3.591   5.815
 4492POPC   GL258826  27.401   3.285   5.939
 4492POPC   C1A58827  27.535   3.682   6.273
 4492POPC   D2A58828  27.646   3.459   6.633
 4492POPC   C3A58829  27.453   3.599   7.011
 4492POPC   C4A58830  27.454   3.753   7.445
 4492POPC   C1B58831  27.755   3.192   6.186
 4492POPC   C2B58832  27.816   2.979   6.601
 4492POPC   C3B58833  27.759   3.114   7.047
 4492POPC   C4B58834  27.857   3.443   7.339
 4493POPC   NC358835  21.689  20.960   5.212
 4493POPC   PO458836  21.146  20.509   5.308
 4493POPC   GL158837  21.251  20.774   5.667
 4493POPC   GL258838  21.203  20.470   5.838
 4493POPC   C1A58839  21.153  20.900   6.103
 4493POPC   D2A58840  21.324  20.715   6.485
 4493POPC   C3A58841  21.094  20.659   6.830
 4493POPC   C4A58842  21.299  20.653   7.185
 4493POPC   C1B58843  20.979  20.431   6.245
 4493POPC   C2B58844  21.094  20.184   6.597
 4493POPC   C3B58845  21.176  20.178   7.043
 4493POPC   C4B58846  21.002  20.382   7.465
 4494POPC   NC358847   5.466  18.297   5.518
 4494POPC   PO458848   6.163  18.090   5.356
 4494POPC   GL158849   5.904  18.105   5.713
 4494POPC   GL258850   5.958  18.445   5.752
 4494POPC   C1A58851   5.606  18.040   6.092
 4494POPC   D2A58852   5.505  18.213   6.480
 4494POPC   C3A58853   5.854  18.260   6.750
 4494POPC   C4A58854   5.850  18.312   7.188
 4494POPC   C1B58855   6.139  18.276   6.145
 4494POPC   C2B58856   6.347  18.474   6.494
 4494POPC   C3B58857   6.278  18.553   6.881
 4494POPC   C4B58858   6.348  18.240   7.188
 4495POPC   NC358859   4.051   9.633   4.999
 4495POPC   PO458860   4.486   9.234   5.321
 4495POPC   GL158861   4.207   9.504   5.612
 4495POPC   GL258862   4.439   9.730   5.808
 4495POPC   C1A58863   4.001   9.577   6.042
 4495POPC   D2A58864   4.105   9.781   6.448
 4495POPC   C3A58865   3.794   9.793   6.777
 4495POPC   C4A58866   3.750   9.627   7.178
 4495POPC   C1B58867   4.497   9.510   6.222
 4495POPC   C2B58868   4.649   9.463   6.647
 4495POPC   C3B58869   4.312   9.612   6.912
 4495POPC   C4B58870   4.213  10.031   7.006
 4496POPC   NC358871   7.742  15.487   5.596
 4496POPC   PO458872   7.992  16.069   5.464
 4496POPC   GL158873   8.250  16.006   5.840
 4496POPC   GL258874   8.446  15.685   5.790
 4496POPC   C1A58875   8.186  16.178   6.293
 4496POPC   D2A58876   7.874  16.319   6.650
 4496POPC   C3A58877   7.823  16.038   7.050
 4496POPC   C4A58878   7.998  16.175   7.470
 4496POPC   C1B58879   8.208  15.649   6.214
 4496POPC   C2B58880   8.071  15.812   6.634
 4496POPC   C3B58881   8.267  15.784   7.035
 4496POPC   C4B58882   8.386  15.835   7.448
 4497POPC   NC358883  25.347  28.092   5.422
 4497POPC   PO458884  25.111  28.689   5.530
 4497POPC   GL158885  24.996  28.481   5.894
 4497POPC   GL258886  25.002  28.109   5.860
 4497POPC   C1A58887  25.061  28.514   6.341
 4497POPC   D2A58888  24.880  28.484   6.724
 4497POPC   C3A58889  25.234  28.627   6.937
 4497POPC   C4A58890  25.490  28.826   7.211
 4497POPC   C1B58891  25.342  28.119   6.208
 4497POPC   C2B58892  25.313  28.175   6.674
 4497POPC   C3B58893  25.174  28.168   7.113
 4497POPC   C4B58894  25.289  28.130   7.583
 4498POPC   NC358895  28.637  35.079   5.142
 4498POPC   PO458896  28.208  34.570   5.387
 4498POPC   GL158897  28.370  34.622   5.791
 4498POPC   GL258898  28.020  34.653   5.876
 4498POPC   C1A58899  28.346  34.449   6.231
 4498POPC   D2A58900  28.614  34.415   6.603
 4498POPC   C3A58901  28.488  34.508   7.035
 4498POPC   C4A58902  28.100  34.495   7.277
 4498POPC   C1B58903  27.926  34.773   6.273
 4498POPC   C2B58904  28.175  34.734   6.626
 4498POPC   C3B58905  28.192  34.910   6.964
 4498POPC   C4B58906  27.973  34.991   7.300
 4499POPC   NC358907  21.521  43.678   5.464
 4499POPC   PO458908  21.381  42.974   5.369
 4499POPC   GL158909  21.338  42.989   5.770
 4499POPC   GL258910  21.209  43.337   5.773
 4499POPC   C1A58911  21.227  42.919   6.191
 4499POPC   D2A58912  21.434  42.929   6.584
 4499POPC   C3A58913  21.149  42.874   6.944
 4499POPC   C4A58914  21.000  43.006   7.348
 4499POPC   C1B58915  21.416  43.426   6.147
 4499POPC   C2B58916  21.599  43.436   6.561
 4499POPC   C3B58917  21.491  43.295   6.960
 4499POPC   C4B58918  21.325  43.528   7.279
 4500POPC   NC358919   0.798  23.316   5.369
 4500POPC   PO458920   1.348  23.802   5.391
 4500POPC   GL158921   1.062  23.752   5.792
 4500POPC   GL258922   0.866  23.460   5.862
 4500POPC   C1A58923   1.040  23.686   6.297
 4500POPC   D2A58924   1.247  23.587   6.719
 4500POPC   C3A58925   1.267  23.897   7.060
 4500POPC   C4A58926   0.947  24.047   7.347
 4500POPC   C1B58927   0.684  23.321   6.267
 4500POPC   C2B58928   0.784  23.365   6.720
 4500POPC   C3B58929   0.879  23.580   7.118
 4500POPC   C4B58930   0.938  23.583   7.597
 4501POPC   NC358931  33.531  22.870   5.425
 4501POPC   PO458932  33.997  22.238   5.308
 4501POPC   GL158933  34.007  22.251   5.771
 4501POPC   GL258934  33.702  22.165   5.898
 4501POPC   C1A58935  33.994  22.324   6.253
 4501POPC   D2A58936  33.722  22.232   6.609
 4501POPC   C3A58937  33.983  22.257   6.932
 4501POPC   C4A58938  34.062  22.077   7.314
 4501POPC   C1B58939  33.506  21.972   6.238
 4501POPC   C2B58940  33.609  21.686   6.574
 4501POPC   C3B58941  33.447  21.689   6.971
 4501POPC   C4B58942  33.554  22.059   7.106
 4502POPC   NC358943  43.195  31.626   5.292
 4502POPC   PO458944  42.855  31.053   5.375
 4502POPC   GL158945  43.142  31.284   5.655
 4502POPC   GL258946  43.001  31.650   5.760
 4502POPC   C1A58947  43.257  31.306   6.086
 4502POPC   D2A58948  43.348  31.235   6.513
 4502POPC   C3A58949  43.035  31.260   6.822
 4502POPC   C4A58950  43.167  31.408   7.216
 4502POPC   C1B58951  43.206  31.822   6.129
 4502POPC   C2B58952  43.056  31.665   6.510
 4502POPC   C3B58953  42.937  31.760   6.922
 4502POPC   C4B58954  43.230  31.913   7.255
 4503POPC   NC358955   0.625  43.490   5.453
 4503POPC   PO458956   0.392  42.877   5.496
 4503POPC   GL158957   0.634  42.951   5.867
 4503POPC   GL258958   0.516  43.292   5.915
 4503POPC   C1A58959   0.555  43.012   6.333
 4503POPC   D2A58960   0.207  43.272   6.468
 4503POPC   C3A58961   0.173  43.242   6.916
 4503POPC   C4A58962   0.438  43.032   7.225
 4503POPC   C1B58963   0.629  43.539   6.283
 4503POPC   C2B58964   0.582  43.520   6.737
 4503POPC   C3B58965   0.507  43.525   7.198
 4503POPC   C4B58966   0.423  43.367   7.619
 4504POPC   NC358967  23.639  37.420   5.211
 4504POPC   PO458968  24.064  37.810   5.613
 4504POPC   GL158969  23.834  37.492   5.899
 4504POPC   GL258970  23.530  37.383   5.717
 4504POPC   C1A58971  23.972  37.401   6.309
 4504POPC   D2A58972  23.904  37.686   6.626
 4504POPC   C3A58973  23.867  37.514   7.018
 4504POPC   C4A58974  23.718  37.752   7.337
 4504POPC   C1B58975  23.357  37.704   6.000
 4504POPC   C2B58976  23.385  37.837   6.446
 4504POPC   C3B58977  23.444  37.872   6.914
 4504POPC   C4B58978  23.218  37.855   7.371
 4505POPC   NC358979   7.184  10.188   5.223
 4505POPC   PO458980   7.627   9.738   5.537
 4505POPC   GL158981   7.470   9.719   5.890
 4505POPC   GL258982   7.169   9.915   5.811
 4505POPC   C1A58983   7.571   9.597   6.302
 4505POPC   D2A58984   7.382   9.356   6.621
 4505POPC   C3A58985   7.634   9.423   6.976
 4505POPC   C4A58986   7.640   9.720   7.303
 4505POPC   C1B58987   7.092   9.710   6.207
 4505POPC   C2B58988   7.035   9.736   6.652
 4505POPC   C3B58989   7.180   9.748   7.075
 4505POPC   C4B58990   7.230   9.918   7.513
 4506POPC   NC358991  18.842  37.217   5.430
 4506POPC   PO458992  19.101  36.534   5.471
 4506POPC   GL158993  19.218  36.832   5.834
 4506POPC   GL258994  18.927  36.937   5.877
 4506POPC   C1A58995  19.156  36.736   6.304
 4506POPC   D2A58996  19.116  36.509   6.702
 4506POPC   C3A58997  19.267  36.842   6.967
 4506POPC   C4A58998  19.295  36.858   7.403
 4506POPC   C1B58999  18.637  36.761   6.185
 4506POPC   C2B59000  18.665  36.716   6.629
 4506POPC   C3B59001  18.729  36.941   7.010
 4506POPC   C4B59002  18.785  37.405   7.028
 4507POPC   NC359003  24.076  37.341   5.496
 4507POPC   PO459004  23.577  36.967   5.385
 4507POPC   GL159005  23.794  36.948   5.762
 4507POPC   GL259006  23.446  36.897   5.909
 4507POPC   C1A59007  23.932  36.876   6.188
 4507POPC   D2A59008  23.816  36.991   6.606
 4507POPC   C3A59009  23.648  36.691   6.888
 4507POPC   C4A59010  23.863  36.826   7.230
 4507POPC   C1B59011  23.512  37.213   6.211
 4507POPC   C2B59012  23.488  37.385   6.644
 4507POPC   C3B59013  23.504  37.151   7.022
 4507POPC   C4B59014  23.321  36.820   7.308
 4508POPC   NC359015  20.907  30.458   5.651
 4508POPC   PO459016  21.325  30.750   5.151
 4508POPC   GL159017  21.358  30.747   5.640
 4508POPC   GL259018  21.069  30.965   5.698
 4508POPC   C1A59019  21.563  30.604   6.065
 4508POPC   D2A59020  21.671  30.764   6.514
 4508POPC   C3A59021  21.682  30.542   6.931
 4508POPC   C4A59022  21.447  30.759   7.233
 4508POPC   C1B59023  21.083  30.829   6.135
 4508POPC   C2B59024  21.197  30.545   6.455
 4508POPC   C3B59025  21.136  30.530   6.899
 4508POPC   C4B59026  21.175  30.311   7.301
 4509POPC   NC359027  36.495   7.701   5.618
 4509POPC   PO459028  35.970   7.327   5.391
 4509POPC   GL159029  36.044   7.463   5.825
 4509POPC   GL259030  36.354   7.304   5.908
 4509POPC   C1A59031  36.131   7.563   6.277
 4509POPC   D2A59032  36.217   7.365   6.669
 4509POPC   C3A59033  36.231   7.546   7.080
 4509POPC   C4A59034  35.985   7.804   7.380
 4509POPC   C1B59035  36.546   7.103   6.250
 4509POPC   C2B59036  36.660   7.150   6.668
 4509POPC   C3B59037  36.426   7.049   7.017
 4509POPC   C4B59038  36.493   7.184   7.429
 4510POPC   NC359039  42.765  17.887   5.632
 4510POPC   PO459040  43.367  17.673   5.260
 4510POPC   GL159041  43.184  17.606   5.645
 4510POPC   GL259042  43.264  17.942   5.771
 4510POPC   C1A59043  42.999  17.403   6.023
 4510POPC   D2A59044  42.870  17.462   6.467
 4510POPC   C3A59045  43.125  17.530   6.827
 4510POPC   C4A59046  43.032  17.454   7.259
 4510POPC   C1B59047  43.164  17.850   6.220
 4510POPC   C2B59048  43.283  17.977   6.628
 4510POPC   C3B59049  43.542  17.815   6.991
 4510POPC   C4B59050  43.400  17.777   7.442
 4511POPC   NC359051  10.188  36.074   5.372
 4511POPC   PO459052   9.552  36.294   5.467
 4511POPC   GL159053   9.662  36.023   5.812
 4511POPC   GL259054  10.029  35.993   5.844
 4511POPC   C1A59055   9.710  35.967   6.273
 4511POPC   D2A59056   9.461  36.101   6.630
 4511POPC   C3A59057   9.631  36.232   7.024
 4511POPC   C4A59058   9.887  36.365   7.398
 4511POPC   C1B59059  10.311  35.727   6.093
 4511POPC   C2B59060  10.076  35.603   6.458
 4511POPC   C3B59061  10.026  35.857   6.828
 4511POPC   C4B59062   9.876  35.852   7.242
 4512POPC   NC359063  24.480  29.414   4.968
 4512POPC   PO459064  24.505  30.050   5.303
 4512POPC   GL159065  24.348  30.075   5.738
 4512POPC   GL259066  24.331  29.728   5.826
 4512POPC   C1A59067  24.470  30.028   6.200
 4512POPC   D2A59068  24.613  29.770   6.535
 4512POPC   C3A59069  24.536  29.921   6.947
 4512POPC   C4A59070  24.659  30.202   7.262
 4512POPC   C1B59071  24.170  29.603   6.260
 4512POPC   C2B59072  24.149  29.599   6.737
 4512POPC   C3B59073  24.253  29.547   7.181
 4512POPC   C4B59074  24.480  29.726   7.552
 4513POPC   NC359075  24.658  28.773   5.474
 4513POPC   PO459076  24.291  29.404   5.406
 4513POPC   GL159077  24.495  29.245   5.743
 4513POPC   GL259078  24.401  28.923   5.898
 4513POPC   C1A59079  24.644  29.410   6.127
 4513POPC   D2A59080  24.472  29.258   6.507
 4513POPC   C3A59081  24.653  29.379   6.885
 4513POPC   C4A59082  24.728  29.365   7.301
 4513POPC   C1B59083  24.338  28.724   6.326
 4513POPC   C2B59084  24.468  28.821   6.758
 4513POPC   C3B59085  24.378  28.980   7.147
 4513POPC   C4B59086  24.135  28.751   7.467
 4514POPC   NC359087   7.606  23.015   5.387
 4514POPC   PO459088   7.369  22.387   5.411
 4514POPC   GL159089   7.586  22.589   5.757
 4514POPC   GL259090   7.539  22.959   5.880
 4514POPC   C1A59091   7.689  22.594   6.183
 4514POPC   D2A59092   7.906  22.682   6.546
 4514POPC   C3A59093   7.696  22.639   6.905
 4514POPC   C4A59094   7.683  23.018   7.153
 4514POPC   C1B59095   7.593  23.086   6.329
 4514POPC   C2B59096   7.395  23.039   6.745
 4514POPC   C3B59097   7.200  23.194   7.154
 4514POPC   C4B59098   6.892  23.005   7.464
 4515POPC   NC359099  32.793  39.055   5.177
 4515POPC   PO459100  33.304  38.831   5.510
 4515POPC   GL159101  32.964  39.092   5.683
 4515POPC   GL259102  33.001  39.474   5.705
 4515POPC   C1A59103  32.895  39.162   6.117
 4515POPC   D2A59104  33.131  39.051   6.472
 4515POPC   C3A59105  32.933  39.178   6.850
 4515POPC   C4A59106  32.805  39.207   7.264
 4515POPC   C1B59107  33.273  39.493   6.074
 4515POPC   C2B59108  33.289  39.556   6.525
 4515POPC   C3B59109  33.296  39.508   6.949
 4515POPC   C4B59110  33.248  39.441   7.339
 4516POPC   NC359111   1.377  34.243   5.068
 4516POPC   PO459112   1.629  34.478   5.505
 4516POPC   GL159113   1.367  34.581   5.891
 4516POPC   GL259114   1.084  34.358   5.928
 4516POPC   C1A59115   1.156  34.758   6.302
 4516POPC   D2A59116   1.344  34.958   6.701
 4516POPC   C3A59117   1.273  34.781   7.119
 4516POPC   C4A59118   1.463  34.639   7.508
 4516POPC   C1B59119   1.336  34.270   6.305
 4516POPC   C2B59120   1.369  34.449   6.718
 4516POPC   C3B59121   1.616  34.380   7.076
 4516POPC   C4B59122   1.578  34.130   7.468
 4517POPC   NC359123  30.303  18.776   5.368
 4517POPC   PO459124  29.821  19.176   5.199
 4517POPC   GL159125  29.761  19.109   5.689
 4517POPC   GL259126  29.950  18.816   5.765
 4517POPC   C1A59127  29.635  18.984   6.137
 4517POPC   D2A59128  29.788  19.156   6.539
 4517POPC   C3A59129  29.728  18.939   6.935
 4517POPC   C4A59130  29.772  19.013   7.359
 4517POPC   C1B59131  30.130  18.844   6.213
 4517POPC   C2B59132  30.170  18.826   6.676
 4517POPC   C3B59133  30.234  19.023   7.057
 4517POPC   C4B59134  30.253  18.941   7.501
 4518POPC   NC359135  37.629  16.145   5.249
 4518POPC   PO459136  38.205  16.349   5.374
 4518POPC   GL159137  37.856  16.182   5.734
 4518POPC   GL259138  37.529  15.941   5.794
 4518POPC   C1A59139  37.702  16.163   6.209
 4518POPC   D2A59140  37.440  15.963   6.538
 4518POPC   C3A59141  37.631  15.855   6.902
 4518POPC   C4A59142  37.612  15.990   7.314
 4518POPC   C1B59143  37.307  15.651   6.167
 4518POPC   C2B59144  37.278  15.492   6.667
 4518POPC   C3B59145  37.340  15.517   7.146
 4518POPC   C4B59146  37.382  15.641   7.620
 4519POPC   NC359147  20.720  44.129   5.322
 4519POPC   PO459148  20.771  43.536   5.539
 4519POPC   GL159149  20.556  43.884   5.775
 4519POPC   GL259150  20.745  44.221   5.821
 4519POPC   C1A59151  20.478  43.880   6.238
 4519POPC   D2A59152  20.750  43.696   6.583
 4519POPC   C3A59153  20.711  43.835   7.000
 4519POPC   C4A59154  20.384  43.751   7.238
 4519POPC   C1B59155  20.334  44.321   5.991
 4519POPC   C2B59156  20.286  44.351   6.415
 4519POPC   C3B59157  20.345  44.132   6.785
 4519POPC   C4B59158  20.373  44.251   7.207
 4520POPC   NC359159  26.355  29.021   5.598
 4520POPC   PO459160  25.807  29.198   5.291
 4520POPC   GL159161  25.965  29.306   5.763
 4520POPC   GL259162  26.314  29.354   5.963
 4520POPC   C1A59163  25.960  29.090   6.196
 4520POPC   D2A59164  25.839  29.199   6.605
 4520POPC   C3A59165  25.932  28.986   6.973
 4520POPC   C4A59166  25.809  29.264   7.294
 4520POPC   C1B59167  26.467  29.093   6.276
 4520POPC   C2B59168  26.369  28.994   6.684
 4520POPC   C3B59169  26.511  28.943   7.082
 4520POPC   C4B59170  26.313  29.118   7.370
 4521POPC   NC359171  18.486   8.726   5.513
 4521POPC   PO459172  18.206   8.138   5.179
 4521POPC   GL159173  18.172   8.339   5.604
 4521POPC   GL259174  18.461   8.240   5.830
 4521POPC   C1A59175  18.086   8.463   6.053
 4521POPC   D2A59176  18.171   8.592   6.467
 4521POPC   C3A59177  17.931   8.420   6.770
 4521POPC   C4A59178  18.169   8.260   7.107
 4521POPC   C1B59179  18.597   8.140   6.264
 4521POPC   C2B59180  18.420   8.119   6.680
 4521POPC   C3B59181  18.657   8.154   7.058
 4521POPC   C4B59182  18.847   8.168   7.451
 4522POPC   NC359183  25.735  18.052   5.509
 4522POPC   PO459184  26.218  18.506   5.434
 4522POPC   GL159185  26.036  18.401   5.851
 4522POPC   GL259186  25.733  18.591   5.912
 4522POPC   C1A59187  26.230  18.295   6.278
 4522POPC   D2A59188  26.363  18.278   6.698
 4522POPC   C3A59189  26.173  18.097   7.069
 4522POPC   C4A59190  26.265  18.061   7.524
 4522POPC   C1B59191  25.615  18.689   6.319
 4522POPC   C2B59192  25.891  18.520   6.643
 4522POPC   C3B59193  25.812  18.476   7.050
 4522POPC   C4B59194  25.516  18.696   7.281
 4523POPC   NC359195   5.611  42.272   5.377
 4523POPC   PO459196   6.097  41.957   5.514
 4523POPC   GL159197   6.126  42.363   5.731
 4523POPC   GL259198   5.819  42.252   5.869
 4523POPC   C1A59199   6.005  42.645   6.105
 4523POPC   D2A59200   5.783  42.538   6.486
 4523POPC   C3A59201   5.939  42.602   6.912
 4523POPC   C4A59202   5.991  42.383   7.248
 4523POPC   C1B59203   6.111  42.180   6.259
 4523POPC   C2B59204   6.132  42.161   6.732
 4523POPC   C3B59205   6.030  41.908   7.114
 4523POPC   C4B59206   6.089  41.993   7.585
 4524POPC   NC359207  18.666  35.401   5.523
 4524POPC   PO459208  19.346  35.170   5.529
 4524POPC   GL159209  19.028  35.238   5.881
 4524POPC   GL259210  18.660  35.158   5.965
 4524POPC   C1A59211  18.964  35.429   6.291
 4524POPC   D2A59212  19.251  35.495   6.633
 4524POPC   C3A59213  19.157  35.341   7.045
 4524POPC   C4A59214  19.277  35.654   7.377
 4524POPC   C1B59215  18.449  35.544   6.165
 4524POPC   C2B59216  18.621  35.740   6.534
 4524POPC   C3B59217  18.824  35.714   6.938
 4524POPC   C4B59218  18.779  35.488   7.349
 4525POPC   NC359219  17.736  25.617   5.366
 4525POPC   PO459220  17.255  25.186   5.546
 4525POPC   GL159221  17.503  25.307   5.854
 4525POPC   GL259222  17.312  25.531   5.990
 4525POPC   C1A59223  17.512  25.159   6.278
 4525POPC   D2A59224  17.666  25.283   6.651
 4525POPC   C3A59225  17.562  25.000   6.980
 4525POPC   C4A59226  17.585  25.058   7.410
 4525POPC   C1B59227  17.326  25.676   6.362
 4525POPC   C2B59228  17.223  25.629   6.752
 4525POPC   C3B59229  17.489  25.508   7.075
 4525POPC   C4B59230  17.435  25.522   7.516
 4526POPC   NC359231   0.156  19.011   5.010
 4526POPC   PO459232  44.641  19.284   5.452
 4526POPC   GL159233  44.617  19.029   5.815
 4526POPC   GL259234  44.923  19.144   5.963
 4526POPC   C1A59235  44.634  18.836   6.243
 4526POPC   D2A59236  44.786  19.072   6.588
 4526POPC   C3A59237  44.824  18.892   6.979
 4526POPC   C4A59238  44.467  18.929   7.196
 4526POPC   C1B59239  44.544  19.350   6.210
 4526POPC   C2B59240  44.498  19.509   6.640
 4526POPC   C3B59241  44.695  19.387   7.048
 4526POPC   C4B59242   0.104  19.251   7.243
 4527POPC   NC359243   4.921  40.720   5.484
 4527POPC   PO459244   5.043  40.170   5.577
 4527POPC   GL159245   4.796  40.432   5.894
 4527POPC   GL259246   4.949  40.767   5.980
 4527POPC   C1A59247   4.886  40.462   6.376
 4527POPC   D2A59248   5.140  40.727   6.684
 4527POPC   C3A59249   5.004  40.715   7.115
 4527POPC   C4A59250   4.901  40.377   7.353
 4527POPC   C1B59251   5.030  41.071   6.296
 4527POPC   C2B59252   5.195  41.255   6.692
 4527POPC   C3B59253   5.294  41.147   7.141
 4527POPC   C4B59254   5.012  41.102   7.493
 4528POPC   NC359255  44.000  34.525   5.197
 4528POPC   PO459256  43.740  35.041   5.393
 4528POPC   GL159257  43.911  34.732   5.702
 4528POPC   GL259258  43.789  34.375   5.754
 4528POPC   C1A59259  44.057  34.694   6.136
 4528POPC   D2A59260  44.227  34.907   6.500
 4528POPC   C3A59261  44.025  34.966   6.861
 4528POPC   C4A59262  44.073  34.716   7.179
 4528POPC   C1B59263  43.566  34.643   6.096
 4528POPC   C2B59264  43.658  34.798   6.509
 4528POPC   C3B59265  43.681  34.533   6.873
 4528POPC   C4B59266  43.566  34.592   7.277
 4529POPC   NC359267  12.469  29.977   5.462
 4529POPC   PO459268  11.891  29.828   5.295
 4529POPC   GL159269  11.979  29.901   5.769
 4529POPC   GL259270  12.160  29.608   5.837
 4529POPC   C1A59271  11.759  29.896   6.236
 4529POPC   D2A59272  11.718  29.748   6.711
 4529POPC   C3A59273  11.853  29.913   7.127
 4529POPC   C4A59274  12.094  30.249   7.334
 4529POPC   C1B59275  12.195  29.629   6.299
 4529POPC   C2B59276  12.225  29.751   6.771
 4529POPC   C3B59277  12.338  29.792   7.224
 4529POPC   C4B59278  12.403  29.547   7.594
 4530POPC   NC359279   4.760  10.947   5.696
 4530POPC   PO459280   5.114  11.268   5.261
 4530POPC   GL159281   5.122  11.356   5.772
 4530POPC   GL259282   5.399  11.633   5.883
 4530POPC   C1A59283   4.913  11.224   6.219
 4530POPC   D2A59284   4.844  11.342   6.628
 4530POPC   C3A59285   4.916  11.169   7.014
 4530POPC   C4A59286   4.936  11.376   7.394
 4530POPC   C1B59287   5.352  11.420   6.285
 4530POPC   C2B59288   5.381  11.286   6.725
 4530POPC   C3B59289   5.395  11.284   7.181
 4530POPC   C4B59290   5.400  11.524   7.593
 4531POPC   NC359291  42.447   6.489   5.154
 4531POPC   PO459292  42.380   6.978   5.553
 4531POPC   GL159293  42.490   6.747   5.883
 4531POPC   GL259294  42.326   6.462   5.903
 4531POPC   C1A59295  42.728   6.531   6.193
 4531POPC   D2A59296  42.470   6.538   6.554
 4531POPC   C3A59297  42.615   6.669   6.960
 4531POPC   C4A59298  42.451   6.752   7.410
 4531POPC   C1B59299  42.096   6.798   6.186
 4531POPC   C2B59300  41.913   6.796   6.605
 4531POPC   C3B59301  42.109   6.688   7.000
 4531POPC   C4B59302  41.955   6.643   7.428
 4532POPC   NC359303  28.930  39.152   5.500
 4532POPC   PO459304  29.377  39.529   5.321
 4532POPC   GL159305  29.405  39.313   5.770
 4532POPC   GL259306  29.268  38.975   5.814
 4532POPC   C1A59307  29.373  39.162   6.269
 4532POPC   D2A59308  28.956  39.219   6.501
 4532POPC   C3A59309  28.918  39.265   6.963
 4532POPC   C4A59310  29.351  39.334   7.168
 4532POPC   C1B59311  28.946  38.846   6.120
 4532POPC   C2B59312  29.040  38.715   6.508
 4532POPC   C3B59313  29.229  38.885   6.860
 4532POPC   C4B59314  29.109  38.861   7.256
 4533POPC   NC359315  44.916  11.920   5.471
 4533POPC   PO459316  44.367  12.167   5.128
 4533POPC   GL159317  44.415  11.980   5.572
 4533POPC   GL259318  44.399  11.596   5.638
 4533POPC   C1A59319  44.485  11.996   6.049
 4533POPC   D2A59320  44.741  12.215   6.367
 4533POPC   C3A59321  44.689  12.119   6.800
 4533POPC   C4A59322  44.971  12.046   7.141
 4533POPC   C1B59323  44.293  11.522   6.061
 4533POPC   C2B59324  44.495  11.586   6.446
 4533POPC   C3B59325  44.394  11.635   6.860
 4533POPC   C4B59326  44.465  11.886   7.197
 4534POPC   NC359327  25.516  32.393   5.347
 4534POPC   PO459328  24.877  32.306   5.408
 4534POPC   GL159329  25.166  32.459   5.718
 4534POPC   GL259330  25.343  32.161   5.772
 4534POPC   C1A59331  25.139  32.581   6.161
 4534POPC   D2A59332  25.358  32.448   6.547
 4534POPC   C3A59333  25.135  32.506   6.933
 4534POPC   C4A59334  25.134  32.258   7.307
 4534POPC   C1B59335  25.251  32.070   6.183
 4534POPC   C2B59336  25.566  31.978   6.501
 4534POPC   C3B59337  25.467  32.045   6.917
 4534POPC   C4B59338  25.265  31.759   7.188
 4535POPC   NC359339  11.768  41.802   5.396
 4535POPC   PO459340  11.030  41.882   5.419
 4535POPC   GL159341  11.356  41.695   5.724
 4535POPC   GL259342  11.651  41.875   5.870
 4535POPC   C1A59343  11.403  41.443   6.115
 4535POPC   D2A59344  11.545  41.349   6.554
 4535POPC   C3A59345  11.283  41.350   6.916
 4535POPC   C4A59346  11.501  41.421   7.291
 4535POPC   C1B59347  11.428  41.949   6.212
 4535POPC   C2B59348  11.302  41.834   6.591
 4535POPC   C3B59349  11.517  41.804   6.938
 4535POPC   C4B59350  11.398  41.922   7.331
 4536POPC   NC359351  18.544  42.913   5.420
 4536POPC   PO459352  18.164  43.442   5.395
 4536POPC   GL159353  18.440  43.305   5.747
 4536POPC   GL259354  18.255  42.977   5.830
 4536POPC   C1A59355  18.538  43.190   6.188
 4536POPC   D2A59356  18.303  43.265   6.557
 4536POPC   C3A59357  18.544  43.199   6.913
 4536POPC   C4A59358  18.403  43.380   7.262
 4536POPC   C1B59359  18.033  42.980   6.222
 4536POPC   C2B59360  17.843  43.018   6.639
 4536POPC   C3B59361  18.050  43.120   6.984
 4536POPC   C4B59362  18.027  43.060   7.378
 4537POPC   NC359363  35.483  35.484   4.977
 4537POPC   PO459364  34.861  35.465   5.326
 4537POPC   GL159365  35.166  35.379   5.747
 4537POPC   GL259366  35.369  35.144   5.983
 4537POPC   C1A59367  35.324  35.605   6.172
 4537POPC   D2A59368  35.530  35.811   6.543
 4537POPC   C3A59369  35.295  35.728   6.939
 4537POPC   C4A59370  35.220  35.551   7.372
 4537POPC   C1B59371  35.456  34.990   6.391
 4537POPC   C2B59372  35.447  35.313   6.672
 4537POPC   C3B59373  35.572  35.329   7.083
 4537POPC   C4B59374  35.711  34.989   7.301
 4538POPC   NC359375  20.344  32.375   5.340
 4538POPC   PO459376  20.958  32.126   5.263
 4538POPC   GL159377  20.791  32.156   5.700
 4538POPC   GL259378  20.834  31.802   5.785
 4538POPC   C1A59379  20.698  32.140   6.183
 4538POPC   D2A59380  20.764  32.375   6.597
 4538POPC   C3A59381  20.589  32.261   6.998
 4538POPC   C4A59382  20.256  31.954   7.074
 4538POPC   C1B59383  21.064  31.748   6.157
 4538POPC   C2B59384  21.044  31.952   6.546
 4538POPC   C3B59385  21.082  32.017   6.987
 4538POPC   C4B59386  20.992  32.306   7.351
 4539POPC   NC359387  36.952  10.135   5.581
 4539POPC   PO459388  37.169   9.533   5.250
 4539POPC   GL159389  37.115   9.671   5.701
 4539POPC   GL259390  37.301   9.899   5.861
 4539POPC   C1A59391  36.929   9.689   6.156
 4539POPC   D2A59392  36.897   9.512   6.578
 4539POPC   C3A59393  36.836   9.735   6.951
 4539POPC   C4A59394  36.950   9.587   7.342
 4539POPC   C1B59395  37.155  10.141   6.202
 4539POPC   C2B59396  36.997  10.109   6.614
 4539POPC   C3B59397  37.237  10.083   6.990
 4539POPC   C4B59398  37.141  10.044   7.410
 4540POPC   NC359399  15.008  21.587   5.395
 4540POPC   PO459400  15.019  20.950   5.420
 4540POPC   GL159401  15.022  21.243   5.802
 4540POPC   GL259402  14.861  21.597   5.910
 4540POPC   C1A59403  15.227  21.387   6.202
 4540POPC   D2A59404  15.068  21.490   6.616
 4540POPC   C3A59405  15.399  21.425   6.928
 4540POPC   C4A59406  15.655  21.780   7.050
 4540POPC   C1B59407  14.716  21.296   6.226
 4540POPC   C2B59408  14.856  21.005   6.528
 4540POPC   C3B59409  14.916  21.013   6.943
 4540POPC   C4B59410  14.926  21.401   7.103
 4541POPC   NC359411  11.773  11.960   5.401
 4541POPC   PO459412  11.095  12.106   5.506
 4541POPC   GL159413  11.372  12.004   5.841
 4541POPC   GL259414  11.543  11.679   5.846
 4541POPC   C1A59415  11.405  12.082   6.284
 4541POPC   D2A59416  11.287  12.235   6.692
 4541POPC   C3A59417  11.590  12.128   6.985
 4541POPC   C4A59418  11.586  11.780   7.240
 4541POPC   C1B59419  11.167  11.637   6.165
 4541POPC   C2B59420  11.002  11.811   6.548
 4541POPC   C3B59421  11.153  11.723   6.958
 4541POPC   C4B59422  10.930  11.660   7.364
 4542POPC   NC359423  16.135  23.364   5.277
 4542POPC   PO459424  16.707  23.765   5.181
 4542POPC   GL159425  16.840  23.855   5.678
 4542POPC   GL259426  16.847  23.557   5.894
 4542POPC   C1A59427  17.077  23.952   6.121
 4542POPC   D2A59428  17.262  23.808   6.525
 4542POPC   C3A59429  16.989  23.651   6.835
 4542POPC   C4A59430  16.856  23.719   7.229
 4542POPC   C1B59431  16.571  23.862   6.146
 4542POPC   C2B59432  16.408  23.778   6.548
 4542POPC   C3B59433  16.430  23.723   6.962
 4542POPC   C4B59434  16.301  24.077   7.219
 4543POPC   NC359435  42.576  21.958   5.398
 4543POPC   PO459436  41.896  22.162   5.487
 4543POPC   GL159437  42.110  22.252   5.840
 4543POPC   GL259438  42.433  22.265   5.779
 4543POPC   C1A59439  42.108  22.068   6.255
 4543POPC   D2A59440  42.294  22.058   6.641
 4543POPC   C3A59441  42.067  22.040   7.015
 4543POPC   C4A59442  42.226  22.212   7.393
 4543POPC   C1B59443  42.545  22.320   6.201
 4543POPC   C2B59444  42.794  22.195   6.573
 4543POPC   C3B59445  42.669  22.211   7.004
 4543POPC   C4B59446  42.723  22.152   7.450
 4544POPC   NC359447  21.094  28.790   5.430
 4544POPC   PO459448  21.556  29.242   5.234
 4544POPC   GL159449  21.441  29.100   5.673
 4544POPC   GL259450  21.223  29.324   5.842
 4544POPC   C1A59451  21.378  28.924   6.141
 4544POPC   D2A59452  21.376  29.075   6.609
 4544POPC   C3A59453  21.535  28.985   7.066
 4544POPC   C4A59454  21.546  28.871   7.533
 4544POPC   C1B59455  20.929  29.426   6.181
 4544POPC   C2B59456  20.939  29.558   6.625
 4544POPC   C3B59457  21.149  29.371   6.978
 4544POPC   C4B59458  21.536  29.525   7.103
 4545POPC   NC359459  23.258  26.833   5.473
 4545POPC   PO459460  22.584  26.708   5.340
 4545POPC   GL159461  22.816  26.721   5.684
 4545POPC   GL259462  22.833  27.030   5.824
 4545POPC   C1A59463  22.934  26.601   6.089
 4545POPC   D2A59464  22.836  26.737   6.499
 4545POPC   C3A59465  22.831  26.492   6.907
 4545POPC   C4A59466  23.036  26.663   7.268
 4545POPC   C1B59467  23.154  27.080   6.160
 4545POPC   C2B59468  23.254  27.197   6.608
 4545POPC   C3B59469  23.300  27.062   7.064
 4545POPC   C4B59470  23.267  27.042   7.538
 4546POPC   NC359471  11.840   4.870   5.340
 4546POPC   PO459472  12.138   5.449   5.072
 4546POPC   GL159473  12.158   5.219   5.558
 4546POPC   GL259474  11.818   5.203   5.749
 4546POPC   C1A59475  12.208   5.016   6.036
 4546POPC   D2A59476  12.434   5.056   6.478
 4546POPC   C3A59477  12.363   4.870   6.893
 4546POPC   C4A59478  12.012   4.752   7.168
 4546POPC   C1B59479  11.786   5.247   6.198
 4546POPC   C2B59480  12.065   5.448   6.447
 4546POPC   C3B59481  12.127   5.328   6.826
 4546POPC   C4B59482  12.076   5.257   7.221
 4547POPC   NC359483  14.827   2.243   5.488
 4547POPC   PO459484  15.436   1.863   5.407
 4547POPC   GL159485  15.363   1.704   5.815
 4547POPC   GL259486  15.009   1.806   5.898
 4547POPC   C1A59487  15.429   1.860   6.221
 4547POPC   D2A59488  15.363   2.105   6.571
 4547POPC   C3A59489  15.153   1.948   6.896
 4547POPC   C4A59490  15.077   1.878   7.324
 4547POPC   C1B59491  14.962   2.167   6.198
 4547POPC   C2B59492  14.923   2.365   6.622
 4547POPC   C3B59493  14.876   2.331   7.073
 4547POPC   C4B59494  14.930   2.334   7.516
 4548POPC   NC359495  35.817  27.362   5.151
 4548POPC   PO459496  36.365  27.380   5.661
 4548POPC   GL159497  35.970  27.587   5.786
 4548POPC   GL259498  35.782  27.910   5.878
 4548POPC   C1A59499  35.832  27.516   6.208
 4548POPC   D2A59500  36.029  27.595   6.584
 4548POPC   C3A59501  36.098  27.312   6.889
 4548POPC   C4A59502  36.304  27.354   7.273
 4548POPC   C1B59503  35.957  28.020   6.294
 4548POPC   C2B59504  35.923  28.075   6.745
 4548POPC   C3B59505  35.962  27.880   7.125
 4548POPC   C4B59506  35.809  28.023   7.527
 4549POPC   NC359507  43.015  24.891   5.520
 4549POPC   PO459508  43.177  24.278   5.262
 4549POPC   GL159509  43.123  24.400   5.717
 4549POPC   GL259510  43.020  24.081   5.876
 4549POPC   C1A59511  43.184  24.584   6.181
 4549POPC   D2A59512  43.453  24.829   6.551
 4549POPC   C3A59513  43.390  24.737   7.040
 4549POPC   C4A59514  43.418  24.813   7.519
 4549POPC   C1B59515  43.296  24.072   6.266
 4549POPC   C2B59516  43.351  24.323   6.652
 4549POPC   C3B59517  43.038  24.322   7.012
 4549POPC   C4B59518  42.969  24.606   7.362
 4550POPC   NC359519   4.206  35.975   5.692
 4550POPC   PO459520   4.748  36.057   5.243
 4550POPC   GL159521   4.615  36.269   5.693
 4550POPC   GL259522   4.366  36.487   5.783
 4550POPC   C1A59523   4.521  36.200   6.192
 4550POPC   D2A59524   4.281  36.143   6.549
 4550POPC   C3A59525   4.548  36.237   6.867
 4550POPC   C4A59526   4.657  36.015   7.216
 4550POPC   C1B59527   4.053  36.418   6.176
 4550POPC   C2B59528   3.834  36.448   6.622
 4550POPC   C3B59529   4.077  36.327   7.016
 4550POPC   C4B59530   4.162  35.902   7.206
 4551POPC   NC359531  11.656  43.177   5.283
 4551POPC   PO459532  11.117  42.878   5.439
 4551POPC   GL159533  11.207  43.108   5.820
 4551POPC   GL259534  11.528  43.311   5.877
 4551POPC   C1A59535  11.238  42.980   6.250
 4551POPC   D2A59536  11.116  42.884   6.661
 4551POPC   C3A59537  11.396  42.811   6.989
 4551POPC   C4A59538  11.473  42.937   7.394
 4551POPC   C1B59539  11.576  43.345   6.361
 4551POPC   C2B59540  11.465  43.300   6.805
 4551POPC   C3B59541  11.475  43.416   7.262
 4551POPC   C4B59542  11.682  43.326   7.670
 4552POPC   NC359543  43.200  40.531   5.476
 4552POPC   PO459544  42.761  41.016   5.340
 4552POPC   GL159545  42.927  40.860   5.727
 4552POPC   GL259546  43.275  41.004   5.712
 4552POPC   C1A59547  42.792  40.661   6.137
 4552POPC   D2A59548  42.751  40.849   6.565
 4552POPC   C3A59549  42.880  40.600   6.932
 4552POPC   C4A59550  42.812  40.651   7.381
 4552POPC   C1B59551  43.302  40.743   6.100
 4552POPC   C2B59552  43.288  40.723   6.549
 4552POPC   C3B59553  43.560  40.794   6.909
 4552POPC   C4B59554  43.359  40.702   7.285
 4553POPC   NC359555  23.836  29.180   5.391
 4553POPC   PO459556  23.937  28.492   5.421
 4553POPC   GL159557  23.766  28.772   5.765
 4553POPC   GL259558  23.580  29.111   5.831
 4553POPC   C1A59559  23.944  28.978   6.139
 4553POPC   D2A59560  23.856  29.209   6.502
 4553POPC   C3A59561  23.968  28.985   6.849
 4553POPC   C4A59562  23.919  29.147   7.245
 4553POPC   C1B59563  23.422  28.866   6.171
 4553POPC   C2B59564  23.408  28.901   6.610
 4553POPC   C3B59565  23.502  29.185   6.939
 4553POPC   C4B59566  23.438  29.122   7.368
 4554POPC   NC359567  22.448  31.013   5.720
 4554POPC   PO459568  22.046  30.794   5.250
 4554POPC   GL159569  22.017  30.601   5.725
 4554POPC   GL259570  22.202  30.285   5.769
 4554POPC   C1A59571  22.066  30.761   6.191
 4554POPC   D2A59572  22.207  30.982   6.555
 4554POPC   C3A59573  21.911  31.013   6.905
 4554POPC   C4A59574  21.948  30.850   7.319
 4554POPC   C1B59575  22.005  30.274   6.178
 4554POPC   C2B59576  22.102  30.477   6.596
 4554POPC   C3B59577  22.263  30.611   6.980
 4554POPC   C4B59578  22.164  30.368   7.333
 4555POPC   NC359579  26.041  22.477   5.407
 4555POPC   PO459580  25.857  21.857   5.563
 4555POPC   GL159581  26.240  22.026   5.790
 4555POPC   GL259582  26.233  22.403   5.866
 4555POPC   C1A59583  26.416  22.121   6.215
 4555POPC   D2A59584  26.260  22.460   6.491
 4555POPC   C3A59585  26.168  22.238   6.876
 4555POPC   C4A59586  26.389  21.944   7.143
 4555POPC   C1B59587  25.902  22.234   6.171
 4555POPC   C2B59588  25.728  22.413   6.568
 4555POPC   C3B59589  25.674  22.295   7.009
 4555POPC   C4B59590  25.910  22.412   7.386
 4556POPC   NC359591  36.741  20.079   5.485
 4556POPC   PO459592  37.406  20.171   5.629
 4556POPC   GL159593  37.079  19.925   5.887
 4556POPC   GL259594  36.749  19.728   5.937
 4556POPC   C1A59595  36.996  19.918   6.347
 4556POPC   D2A59596  36.824  19.786   6.733
 4556POPC   C3A59597  37.197  19.759   7.005
 4556POPC   C4A59598  37.199  19.946   7.399
 4556POPC   C1B59599  37.095  19.467   6.167
 4556POPC   C2B59600  37.151  19.397   6.617
 4556POPC   C3B59601  36.896  19.345   7.001
 4556POPC   C4B59602  37.058  19.425   7.424
 4557POPC   NC359603  20.529  29.542   5.510
 4557POPC   PO459604  20.727  30.126   5.394
 4557POPC   GL159605  20.548  29.971   5.805
 4557POPC   GL259606  20.213  29.930   5.746
 4557POPC   C1A59607  20.471  29.664   6.143
 4557POPC   D2A59608  20.416  29.527   6.564
 4557POPC   C3A59609  20.568  29.808   6.887
 4557POPC   C4A59610  20.746  29.578   7.211
 4557POPC   C1B59611  20.161  30.069   6.204
 4557POPC   C2B59612  20.261  30.181   6.670
 4557POPC   C3B59613  20.218  30.143   7.157
 4557POPC   C4B59614  20.216  30.076   7.630
 4558POPC   NC359615   1.536  38.759   5.616
 4558POPC   PO459616   1.756  38.157   5.595
 4558POPC   GL159617   1.314  38.202   5.859
 4558POPC   GL259618   1.074  38.521   5.822
 4558POPC   C1A59619   1.026  38.280   6.255
 4558POPC   D2A59620   0.999  38.570   6.605
 4558POPC   C3A59621   1.115  38.331   6.978
 4558POPC   C4A59622   1.311  38.329   7.393
 4558POPC   C1B59623   1.237  38.799   6.195
 4558POPC   C2B59624   1.347  39.029   6.583
 4558POPC   C3B59625   1.320  38.810   6.956
 4558POPC   C4B59626   1.408  38.820   7.368
 4559POPC   NC359627  32.598  41.016   5.400
 4559POPC   PO459628  32.420  41.708   5.323
 4559POPC   GL159629  32.402  41.699   5.753
 4559POPC   GL259630  32.327  41.332   5.757
 4559POPC   C1A59631  32.255  41.680   6.189
 4559POPC   D2A59632  31.911  41.910   6.391
 4559POPC   C3A59633  31.939  41.957   6.830
 4559POPC   C4A59634  31.968  41.786   7.218
 4559POPC   C1B59635  32.050  41.175   6.093
 4559POPC   C2B59636  32.144  41.270   6.517
 4559POPC   C3B59637  32.312  41.550   6.838
 4559POPC   C4B59638  32.214  41.354   7.231
 4560POPC   NC359639  28.108  26.148   5.431
 4560POPC   PO459640  28.243  25.512   5.469
 4560POPC   GL159641  28.240  25.810   5.803
 4560POPC   GL259642  28.488  26.032   5.778
 4560POPC   C1A59643  28.108  26.098   6.141
 4560POPC   D2A59644  28.213  25.901   6.530
 4560POPC   C3A59645  28.212  26.077   6.922
 4560POPC   C4A59646  28.510  25.888   7.145
 4560POPC   C1B59647  28.613  26.067   6.212
 4560POPC   C2B59648  28.608  26.337   6.537
 4560POPC   C3B59649  28.714  26.349   6.949
 4560POPC   C4B59650  28.486  26.374   7.292
 4561POPC   NC359651  24.752  44.510   5.412
 4561POPC   PO459652  24.098  44.851   5.361
 4561POPC   GL159653  24.422  44.811   5.700
 4561POPC   GL259654  24.232   0.073   5.816
 4561POPC   C1A59655  24.557  44.566   6.090
 4561POPC   D2A59656  24.488  44.262   6.457
 4561POPC   C3A59657  24.491  44.416   6.906
 4561POPC   C4A59658  24.586  44.366   7.360
 4561POPC   C1B59659  24.242  44.960   6.226
 4561POPC   C2B59660  24.548  44.834   6.545
 4561POPC   C3B59661  24.429  44.932   6.957
 4561POPC   C4B59662  24.098   0.045   7.213
 4562POPC   NC359663  19.253   7.867   5.610
 4562POPC   PO459664  18.844   8.420   5.566
 4562POPC   GL159665  19.124   8.297   5.875
 4562POPC   GL259666  19.143   8.633   5.939
 4562POPC   C1A59667  19.163   8.037   6.256
 4562POPC   D2A59668  18.982   8.100   6.667
 4562POPC   C3A59669  19.139   7.908   7.079
 4562POPC   C4A59670  19.328   8.062   7.489
 4562POPC   C1B59671  19.090   8.537   6.350
 4562POPC   C2B59672  19.182   8.615   6.739
 4562POPC   C3B59673  19.113   8.412   7.082
 4562POPC   C4B59674  19.112   8.619   7.428
 4563POPC   NC359675  26.333  41.073   5.426
 4563POPC   PO459676  25.678  41.036   5.210
 4563POPC   GL159677  25.880  40.866   5.644
 4563POPC   GL259678  26.113  41.057   5.913
 4563POPC   C1A59679  25.817  40.712   6.106
 4563POPC   D2A59680  25.762  40.988   6.465
 4563POPC   C3A59681  25.911  40.807   6.833
 4563POPC   C4A59682  25.822  40.776   7.258
 4563POPC   C1B59683  26.184  41.264   6.317
 4563POPC   C2B59684  26.316  41.088   6.715
 4563POPC   C3B59685  26.273  40.992   7.188
 4563POPC   C4B59686  26.309  40.560   7.325
 4564POPC   NC359687  39.889  29.204   5.518
 4564POPC   PO459688  40.544  28.923   5.316
 4564POPC   GL159689  40.396  28.963   5.738
 4564POPC   GL259690  40.331  29.292   5.806
 4564POPC   C1A59691  40.221  28.946   6.182
 4564POPC   D2A59692  39.839  28.973   6.430
 4564POPC   C3A59693  39.802  28.888   6.876
 4564POPC   C4A59694  39.908  29.054   7.287
 4564POPC   C1B59695  40.171  29.520   6.130
 4564POPC   C2B59696  40.008  29.437   6.526
 4564POPC   C3B59697  40.170  29.259   6.893
 4564POPC   C4B59698  40.267  29.403   7.307
 4565POPC   NC359699  21.071  20.055   5.377
 4565POPC   PO459700  21.438  19.576   5.518
 4565POPC   GL159701  21.199  19.616   5.849
 4565POPC   GL259702  21.280  19.959   5.824
 4565POPC   C1A59703  21.344  19.650   6.283
 4565POPC   D2A59704  21.358  19.763   6.734
 4565POPC   C3A59705  21.375  19.612   7.170
 4565POPC   C4A59706  21.162  19.555   7.586
 4565POPC   C1B59707  21.426  20.155   6.176
 4565POPC   C2B59708  21.585  20.276   6.531
 4565POPC   C3B59709  21.670  20.117   6.924
 4565POPC   C4B59710  21.776  20.236   7.303
 4566POPC   NC359711  10.033  32.419   5.473
 4566POPC   PO459712   9.478  32.639   5.246
 4566POPC   GL159713   9.528  32.320   5.612
 4566POPC   GL259714   9.773  32.007   5.701
 4566POPC   C1A59715   9.466  32.221   6.067
 4566POPC   D2A59716   9.502  32.371   6.506
 4566POPC   C3A59717   9.595  32.090   6.861
 4566POPC   C4A59718   9.633  32.261   7.256
 4566POPC   C1B59719   9.961  32.107   6.140
 4566POPC   C2B59720  10.015  32.261   6.590
 4566POPC   C3B59721  10.081  32.090   7.022
 4566POPC   C4B59722  10.102  32.248   7.442
 4567POPC   NC359723  10.124   4.415   5.459
 4567POPC   PO459724   9.379   4.531   5.435
 4567POPC   GL159725   9.686   4.437   5.781
 4567POPC   GL259726   9.758   4.083   5.787
 4567POPC   C1A59727   9.762   4.328   6.230
 4567POPC   D2A59728   9.571   4.425   6.598
 4567POPC   C3A59729   9.866   4.403   6.906
 4567POPC   C4A59730   9.928   4.255   7.307
 4567POPC   C1B59731   9.505   3.904   6.120
 4567POPC   C2B59732   9.470   3.916   6.598
 4567POPC   C3B59733   9.520   4.070   7.043
 4567POPC   C4B59734   9.485   4.090   7.506
 4568POPC   NC359735  24.613  42.791   5.406
 4568POPC   PO459736  24.429  43.441   5.274
 4568POPC   GL159737  24.526  43.357   5.717
 4568POPC   GL259738  24.540  43.029   5.844
 4568POPC   C1A59739  24.386  43.389   6.156
 4568POPC   D2A59740  24.253  43.167   6.502
 4568POPC   C3A59741  24.534  43.272   6.817
 4568POPC   C4A59742  24.491  43.352   7.242
 4568POPC   C1B59743  24.510  42.794   6.241
 4568POPC   C2B59744  24.433  42.711   6.680
 4568POPC   C3B59745  24.349  42.867   7.082
 4568POPC   C4B59746  24.573  42.780   7.478
 4569POPC   NC359747  22.669  40.409   5.072
 4569POPC   PO459748  23.080  39.853   5.270
 4569POPC   GL159749  23.014  40.031   5.709
 4569POPC   GL259750  22.720  40.273   5.727
 4569POPC   C1A59751  22.861  39.940   6.150
 4569POPC   D2A59752  22.672  39.777   6.544
 4569POPC   C3A59753  22.929  39.921   6.882
 4569POPC   C4A59754  23.338  40.016   7.087
 4569POPC   C1B59755  22.585  40.404   6.147
 4569POPC   C2B59756  22.704  40.309   6.563
 4569POPC   C3B59757  22.615  40.333   6.986
 4569POPC   C4B59758  22.906  40.265   7.302
 4570POPC   NC359759   7.135  10.950   5.339
 4570POPC   PO459760   7.626  11.392   5.462
 4570POPC   GL159761   7.632  11.216   5.835
 4570POPC   GL259762   7.276  11.126   5.799
 4570POPC   C1A59763   7.648  11.393   6.271
 4570POPC   D2A59764   7.267  11.435   6.536
 4570POPC   C3A59765   7.287  11.683   6.910
 4570POPC   C4A59766   7.651  11.689   7.154
 4570POPC   C1B59767   7.332  11.011   6.202
 4570POPC   C2B59768   7.513  10.925   6.583
 4570POPC   C3B59769   7.419  11.087   6.977
 4570POPC   C4B59770   7.613  11.227   7.340
 4571POPC   NC359771  10.755  14.660   5.526
 4571POPC   PO459772  10.152  14.191   5.385
 4571POPC   GL159773  10.381  14.121   5.807
 4571POPC   GL259774  10.542  14.442   5.918
 4571POPC   C1A59775  10.273  14.205   6.249
 4571POPC   D2A59776  10.270  14.457   6.615
 4571POPC   C3A59777  10.136  14.275   7.001
 4571POPC   C4A59778  10.445  14.392   7.286
 4571POPC   C1B59779  10.856  14.475   6.217
 4571POPC   C2B59780  11.018  14.359   6.577
 4571POPC   C3B59781  10.882  14.429   7.003
 4571POPC   C4B59782  11.176  14.717   7.123
 4572POPC   NC359783   1.735   9.205   5.070
 4572POPC   PO459784   2.183   8.901   5.411
 4572POPC   GL159785   1.922   8.820   5.824
 4572POPC   GL259786   1.585   8.664   5.781
 4572POPC   C1A59787   1.921   8.965   6.271
 4572POPC   D2A59788   2.027   9.211   6.654
 4572POPC   C3A59789   1.943   9.070   7.062
 4572POPC   C4A59790   2.286   9.266   7.261
 4572POPC   C1B59791   1.600   8.576   6.233
 4572POPC   C2B59792   1.766   8.642   6.660
 4572POPC   C3B59793   1.559   8.716   7.048
 4572POPC   C4B59794   1.621   8.790   7.478
 4573POPC   NC359795  23.487  21.123   5.164
 4573POPC   PO459796  22.806  21.343   5.237
 4573POPC   GL159797  22.836  21.415   5.729
 4573POPC   GL259798  22.967  21.700   5.761
 4573POPC   C1A59799  22.991  21.361   6.177
 4573POPC   D2A59800  23.226  21.519   6.555
 4573POPC   C3A59801  23.265  21.268   6.946
 4573POPC   C4A59802  23.030  21.240   7.286
 4573POPC   C1B59803  22.753  21.809   6.138
 4573POPC   C2B59804  22.699  21.672   6.525
 4573POPC   C3B59805  22.816  21.538   6.920
 4573POPC   C4B59806  22.862  21.737   7.301
 4574POPC   NC359807  17.711   4.676   5.013
 4574POPC   PO459808  17.282   4.318   5.449
 4574POPC   GL159809  17.514   4.271   5.803
 4574POPC   GL259810  17.254   4.110   5.928
 4574POPC   C1A59811  17.839   4.430   6.114
 4574POPC   D2A59812  18.137   4.347   6.479
 4574POPC   C3A59813  17.910   4.188   6.825
 4574POPC   C4A59814  17.740   4.504   7.134
 4574POPC   C1B59815  17.335   4.435   6.242
 4574POPC   C2B59816  17.473   4.406   6.670
 4574POPC   C3B59817  17.246   4.410   7.044
 4574POPC   C4B59818  17.155   4.682   7.354
 4575POPC   NC359819  16.961  43.800   5.586
 4575POPC   PO459820  17.518  44.204   5.367
 4575POPC   GL159821  17.784  44.130   5.765
 4575POPC   GL259822  17.441  44.035   5.868
 4575POPC   C1A59823  17.811  43.864   6.174
 4575POPC   D2A59824  17.598  43.713   6.559
 4575POPC   C3A59825  17.688  44.017   6.862
 4575POPC   C4A59826  17.747  43.973   7.276
 4575POPC   C1B59827  17.236  43.939   6.262
 4575POPC   C2B59828  17.201  44.126   6.676
 4575POPC   C3B59829  17.247  43.990   7.115
 4575POPC   C4B59830  16.977  43.995   7.451
 4576POPC   NC359831   6.957   5.718   5.548
 4576POPC   PO459832   6.646   6.256   5.309
 4576POPC   GL159833   6.543   6.002   5.725
 4576POPC   GL259834   6.425   5.645   5.722
 4576POPC   C1A59835   6.703   5.955   6.162
 4576POPC   D2A59836   7.012   5.841   6.494
 4576POPC   C3A59837   6.826   5.806   6.918
 4576POPC   C4A59838   6.719   5.704   7.360
 4576POPC   C1B59839   6.241   5.687   6.160
 4576POPC   C2B59840   6.416   5.683   6.600
 4576POPC   C3B59841   6.302   5.741   7.044
 4576POPC   C4B59842   6.249   5.862   7.481
 4577POPC   NC359843   2.166  44.047   5.484
 4577POPC   PO459844   1.672  43.677   5.385
 4577POPC   GL159845   1.793  43.794   5.777
 4577POPC   GL259846   1.708  44.126   5.871
 4577POPC   C1A59847   1.825  43.773   6.215
 4577POPC   D2A59848   1.952  43.993   6.610
 4577POPC   C3A59849   1.919  43.835   7.028
 4577POPC   C4A59850   2.026  43.803   7.465
 4577POPC   C1B59851   2.066  44.212   6.148
 4577POPC   C2B59852   2.336  44.310   6.496
 4577POPC   C3B59853   2.294  44.248   6.935
 4577POPC   C4B59854   2.090  44.280   7.293
 4578POPC   NC359855  29.283   2.498   5.215
 4578POPC   PO459856  29.197   1.839   5.430
 4578POPC   GL159857  29.058   1.925   5.877
 4578POPC   GL259858  29.209   2.254   5.852
 4578POPC   C1A59859  29.004   2.051   6.317
 4578POPC   D2A59860  29.266   1.922   6.660
 4578POPC   C3A59861  29.151   2.039   7.073
 4578POPC   C4A59862  29.067   1.905   7.492
 4578POPC   C1B59863  29.309   2.487   6.262
 4578POPC   C2B59864  29.239   2.437   6.723
 4578POPC   C3B59865  29.437   2.477   7.131
 4578POPC   C4B59866  29.267   2.368   7.508
 4579POPC   NC359867  22.321  16.857   5.401
 4579POPC   PO459868  22.186  16.247   5.569
 4579POPC   GL159869  22.432  16.573   5.839
 4579POPC   GL259870  22.367  16.955   5.888
 4579POPC   C1A59871  22.370  16.682   6.305
 4579POPC   D2A59872  22.396  17.036   6.590
 4579POPC   C3A59873  22.462  16.879   7.012
 4579POPC   C4A59874  22.244  16.739   7.412
 4579POPC   C1B59875  22.053  17.135   6.210
 4579POPC   C2B59876  21.923  17.229   6.661
 4579POPC   C3B59877  21.965  17.061   7.098
 4579POPC   C4B59878  21.916  17.102   7.581
 4580POPC   NC359879   9.440  36.722   5.545
 4580POPC   PO459880   8.910  36.990   5.398
 4580POPC   GL159881   8.983  36.837   5.813
 4580POPC   GL259882   9.056  36.468   5.819
 4580POPC   C1A59883   8.853  37.021   6.210
 4580POPC   D2A59884   8.835  36.913   6.654
 4580POPC   C3A59885   9.137  37.100   6.938
 4580POPC   C4A59886   9.133  37.388   7.293
 4580POPC   C1B59887   8.990  36.533   6.274
 4580POPC   C2B59888   9.208  36.568   6.682
 4580POPC   C3B59889   9.031  36.633   7.095
 4580POPC   C4B59890   8.871  36.414   7.447
 4581POPC   NC359891  44.941  37.996   5.453
 4581POPC   PO459892  44.700  37.351   5.448
 4581POPC   GL159893  44.653  37.582   5.804
 4581POPC   GL259894  44.348  37.774   5.788
 4581POPC   C1A59895  44.638  37.674   6.258
 4581POPC   D2A59896  44.506  37.552   6.667
 4581POPC   C3A59897  44.771  37.517   7.040
 4581POPC   C4A59898  44.668  37.806   7.352
 4581POPC   C1B59899  44.248  37.985   6.192
 4581POPC   C2B59900  44.291  38.041   6.648
 4581POPC   C3B59901  44.236  37.974   7.112
 4581POPC   C4B59902  44.249  38.096   7.576
 4582POPC   NC359903   2.213   8.473   5.555
 4582POPC   PO459904   1.824   7.976   5.536
 4582POPC   GL159905   1.905   8.261   5.875
 4582POPC   GL259906   2.210   8.076   5.914
 4582POPC   C1A59907   2.070   8.396   6.280
 4582POPC   D2A59908   2.141   8.269   6.704
 4582POPC   C3A59909   2.100   8.534   7.071
 4582POPC   C4A59910   2.059   8.317   7.479
 4582POPC   C1B59911   1.855   7.918   6.227
 4582POPC   C2B59912   1.658   8.139   6.540
 4582POPC   C3B59913   1.712   8.205   6.979
 4582POPC   C4B59914   1.555   8.301   7.363
 4583POPC   NC359915  28.244  32.426   5.560
 4583POPC   PO459916  28.806  32.090   5.463
 4583POPC   GL159917  28.600  32.117   5.835
 4583POPC   GL259918  28.249  32.135   5.980
 4583POPC   C1A59919  28.650  32.051   6.252
 4583POPC   D2A59920  28.362  32.078   6.571
 4583POPC   C3A59921  28.538  32.092   6.991
 4583POPC   C4A59922  28.218  32.121   7.279
 4583POPC   C1B59923  28.435  32.512   6.175
 4583POPC   C2B59924  28.441  32.634   6.568
 4583POPC   C3B59925  28.187  32.465   6.879
 4583POPC   C4B59926  28.172  32.623   7.259
 4584POPC   NC359927  25.596  24.063   5.190
 4584POPC   PO459928  25.164  24.507   5.403
 4584POPC   GL159929  25.360  24.506   5.824
 4584POPC   GL259930  25.053  24.459   5.911
 4584POPC   C1A59931  25.358  24.547   6.304
 4584POPC   D2A59932  25.175  24.518   6.727
 4584POPC   C3A59933  25.409  24.371   7.143
 4584POPC   C4A59934  25.469  24.367   7.610
 4584POPC   C1B59935  24.891  24.251   6.242
 4584POPC   C2B59936  24.719  24.184   6.603
 4584POPC   C3B59937  24.828  24.308   7.019
 4584POPC   C4B59938  24.986  24.543   7.393
 4585POPC   NC359939  27.738   5.551   5.484
 4585POPC   PO459940  27.557   4.867   5.379
 4585POPC   GL159941  27.676   5.052   5.794
 4585POPC   GL259942  27.954   5.301   5.851
 4585POPC   C1A59943  27.645   4.900   6.223
 4585POPC   D2A59944  27.474   4.757   6.610
 4585POPC   C3A59945  27.657   4.941   6.964
 4585POPC   C4A59946  27.475   5.043   7.370
 4585POPC   C1B59947  27.766   5.401   6.240
 4585POPC   C2B59948  27.457   5.291   6.578
 4585POPC   C3B59949  27.493   5.423   7.016
 4585POPC   C4B59950  27.906   5.337   7.214
 4586POPC   NC359951   0.708  36.698   5.263
 4586POPC   PO459952   1.262  36.325   5.423
 4586POPC   GL159953   0.914  36.444   5.689
 4586POPC   GL259954   1.130  36.662   5.843
 4586POPC   C1A59955   0.775  36.284   6.110
 4586POPC   D2A59956   0.972  36.038   6.447
 4586POPC   C3A59957   0.899  36.073   6.888
 4586POPC   C4A59958   0.912  35.828   7.281
 4586POPC   C1B59959   1.259  36.443   6.227
 4586POPC   C2B59960   1.150  36.498   6.658
 4586POPC   C3B59961   1.310  36.379   7.044
 4586POPC   C4B59962   1.335  36.122   7.401
 4587POPC   NC359963  38.372  18.366   5.339
 4587POPC   PO459964  38.712  17.788   5.393
 4587POPC   GL159965  38.626  18.109   5.816
 4587POPC   GL259966  38.357  18.376   5.839
 4587POPC   C1A59967  38.668  18.459   6.218
 4587POPC   D2A59968  38.846  18.700   6.581
 4587POPC   C3A59969  38.754  18.561   6.996
 4587POPC   C4A59970  38.599  18.230   7.237
 4587POPC   C1B59971  38.146  18.493   6.232
 4587POPC   C2B59972  38.358  18.523   6.650
 4587POPC   C3B59973  38.236  18.556   7.085
 4587POPC   C4B59974  38.101  18.602   7.523
 4588POPC   NC359975  25.924  39.569   5.690
 4588POPC   PO459976  26.338  39.912   5.289
 4588POPC   GL159977  26.245  40.135   5.671
 4588POPC   GL259978  25.896  40.110   5.671
 4588POPC   C1A59979  26.322  40.094   6.137
 4588POPC   D2A59980  26.085  39.812   6.422
 4588POPC   C3A59981  26.138  39.815   6.885
 4588POPC   C4A59982  26.287  40.033   7.279
 4588POPC   C1B59983  25.824  40.202   6.125
 4588POPC   C2B59984  26.030  40.372   6.513
 4588POPC   C3B59985  25.985  40.314   6.969
 4588POPC   C4B59986  25.673  40.054   7.188
 4589POPC   NC359987  37.991   6.843   5.221
 4589POPC   PO459988  38.524   6.502   5.436
 4589POPC   GL159989  38.509   6.529   5.835
 4589POPC   GL259990  38.863   6.417   5.823
 4589POPC   C1A59991  38.349   6.804   6.169
 4589POPC   D2A59992  38.401   6.634   6.576
 4589POPC   C3A59993  38.284   6.878   6.930
 4589POPC   C4A59994  38.044   6.828   7.269
 4589POPC   C1B59995  38.817   6.638   6.232
 4589POPC   C2B59996  38.950   6.903   6.541
 4589POPC   C3B59997  38.796   6.743   6.880
 4589POPC   C4B59998  38.817   6.694   7.258
 4590POPC   NC359999  24.599  18.417   5.041
 4590POPC   PO460000  24.860  17.982   5.450
 4590POPC   GL160001  24.645  18.165   5.814
 4590POPC   GL260002  24.287  18.072   5.894
 4590POPC   C1A60003  24.620  18.300   6.234
 4590POPC   D2A60004  24.848  18.412   6.599
 4590POPC   C3A60005  24.589  18.412   6.948
 4590POPC   C4A60006  24.582  18.199   7.324
 4590POPC   C1B60007  24.102  18.276   6.256
 4590POPC   C2B60008  24.131  18.397   6.680
 4590POPC   C3B60009  24.125  18.200   7.087
 4590POPC   C4B60010  24.066  18.006   7.508
 4591POPC   NC360011   8.629  35.631   5.205
 4591POPC   PO460012   8.054  35.425   5.285
 4591POPC   GL160013   8.029  35.267   5.729
 4591POPC   GL260014   7.776  35.037   5.735
 4591POPC   C1A60015   8.054  35.379   6.201
 4591POPC   D2A60016   8.384  35.390   6.562
 4591POPC   C3A60017   8.311  35.524   7.010
 4591POPC   C4A60018   8.504  35.360   7.390
 4591POPC   C1B60019   7.910  34.886   6.136
 4591POPC   C2B60020   8.010  34.997   6.562
 4591POPC   C3B60021   8.016  35.093   6.990
 4591POPC   C4B60022   7.959  34.863   7.331
 4592POPC   NC360023  24.947  20.707   5.754
 4592POPC   PO460024  24.343  20.467   5.582
 4592POPC   GL160025  24.531  20.497   5.980
 4592POPC   GL260026  24.518  20.853   6.070
 4592POPC   C1A60027  24.761  20.477   6.384
 4592POPC   D2A60028  24.801  20.672   6.801
 4592POPC   C3A60029  24.508  20.541   7.113
 4592POPC   C4A60030  24.123  20.425   7.312
 4592POPC   C1B60031  24.886  21.015   6.327
 4592POPC   C2B60032  24.906  21.180   6.725
 4592POPC   C3B60033  24.697  21.061   7.136
 4592POPC   C4B60034  24.842  20.752   7.441
 4593POPC   NC360035  23.075  24.159   5.393
 4593POPC   PO460036  23.020  24.766   5.722
 4593POPC   GL160037  22.839  24.373   5.823
 4593POPC   GL260038  22.512  24.506   5.925
 4593POPC   C1A60039  23.067  24.112   6.150
 4593POPC   D2A60040  23.194  23.924   6.561
 4593POPC   C3A60041  23.043  24.184   6.920
 4593POPC   C4A60042  23.129  24.634   7.088
 4593POPC   C1B60043  22.677  24.463   6.305
 4593POPC   C2B60044  22.854  24.663   6.614
 4593POPC   C3B60045  22.671  24.532   6.935
 4593POPC   C4B60046  22.711  24.345   7.315
 4594POPC   NC360047  14.928  27.341   5.471
 4594POPC   PO460048  15.639  27.526   5.556
 4594POPC   GL160049  15.335  27.294   5.856
 4594POPC   GL260050  15.160  27.603   5.870
 4594POPC   C1A60051  15.056  27.344   6.277
 4594POPC   D2A60052  15.053  27.409   6.739
 4594POPC   C3A60053  15.076  27.714   7.072
 4594POPC   C4A60054  15.048  27.608   7.513
 4594POPC   C1B60055  15.467  27.642   6.250
 4594POPC   C2B60056  15.555  27.721   6.723
 4594POPC   C3B60057  15.476  28.052   7.061
 4594POPC   C4B60058  15.234  28.070   7.469
 4595POPC   NC360059  11.503  31.609   5.381
 4595POPC   PO460060  10.910  31.278   5.453
 4595POPC   GL160061  10.874  31.441   5.867
 4595POPC   GL260062  11.021  31.777   5.844
 4595POPC   C1A60063  10.873  31.544   6.282
 4595POPC   D2A60064  11.124  31.476   6.609
 4595POPC   C3A60065  10.981  31.605   6.959
 4595POPC   C4A60066  11.156  31.546   7.396
 4595POPC   C1B60067  11.363  31.661   6.156
 4595POPC   C2B60068  11.561  31.720   6.585
 4595POPC   C3B60069  11.487  31.488   7.000
 4595POPC   C4B60070  11.733  31.342   7.374
 4596POPC   NC360071  26.511  12.443   5.523
 4596POPC   PO460072  26.723  13.058   5.449
 4596POPC   GL160073  26.840  13.013   5.828
 4596POPC   GL260074  26.763  12.694   5.872
 4596POPC   C1A60075  26.759  12.984   6.267
 4596POPC   D2A60076  26.938  13.084   6.621
 4596POPC   C3A60077  26.729  12.906   6.934
 4596POPC   C4A60078  26.847  12.722   7.263
 4596POPC   C1B60079  26.588  12.486   6.245
 4596POPC   C2B60080  26.678  12.461   6.677
 4596POPC   C3B60081  26.502  12.378   7.086
 4596POPC   C4B60082  26.384  12.566   7.501
 4597POPC   NC360083  44.807  13.578   5.249
 4597POPC   PO460084  44.313  13.138   5.358
 4597POPC   GL160085  44.435  13.478   5.712
 4597POPC   GL260086  44.824  13.517   5.763
 4597POPC   C1A60087  44.550  13.583   6.174
 4597POPC   D2A60088  44.843  13.430   6.502
 4597POPC   C3A60089  44.701  13.433   6.942
 4597POPC   C4A60090  44.525  13.798   7.126
 4597POPC   C1B60091   0.049  13.748   6.107
 4597POPC   C2B60092   0.188  13.825   6.532
 4597POPC   C3B60093   0.034  13.877   6.956
 4597POPC   C4B60094   0.185  14.037   7.374
 4598POPC   NC360095  29.989  19.592   5.086
 4598POPC   PO460096  30.108  20.195   5.452
 4598POPC   GL160097  29.791  19.941   5.748
 4598POPC   GL260098  29.522  19.637   5.706
 4598POPC   C1A60099  29.835  19.764   6.178
 4598POPC   D2A60100  29.983  19.926   6.593
 4598POPC   C3A60101  30.081  19.590   6.891
 4598POPC   C4A60102  30.051  19.442   7.314
 4598POPC   C1B60103  29.427  19.451   6.149
 4598POPC   C2B60104  29.324  19.378   6.625
 4598POPC   C3B60105  29.579  19.493   7.035
 4598POPC   C4B60106  29.581  19.432   7.531
 4599POPC   NC360107  20.332  28.767   5.448
 4599POPC   PO460108  20.871  29.218   5.477
 4599POPC   GL160109  20.709  29.036   5.802
 4599POPC   GL260110  20.391  29.176   5.842
 4599POPC   C1A60111  20.839  28.907   6.193
 4599POPC   D2A60112  20.842  29.058   6.594
 4599POPC   C3A60113  21.038  28.865   6.928
 4599POPC   C4A60114  20.807  29.066   7.229
 4599POPC   C1B60115  20.316  28.851   6.144
 4599POPC   C2B60116  20.365  28.787   6.567
 4599POPC   C3B60117  20.391  29.088   6.894
 4599POPC   C4B60118  20.273  28.906   7.255
 4600POPC   NC360119  13.639  11.697   5.368
 4600POPC   PO460120  13.785  12.403   5.335
 4600POPC   GL160121  13.474  12.209   5.651
 4600POPC   GL260122  13.535  11.878   5.813
 4600POPC   C1A60123  13.356  12.233   6.107
 4600POPC   D2A60124  13.656  12.063   6.402
 4600POPC   C3A60125  13.559  12.119   6.837
 4600POPC   C4A60126  13.780  12.308   7.175
 4600POPC   C1B60127  13.386  11.647   6.151
 4600POPC   C2B60128  13.412  11.658   6.583
 4600POPC   C3B60129  13.144  11.776   6.891
 4600POPC   C4B60130  13.450  11.775   7.205
 4601POPC   NC360131  43.243   4.057   5.422
 4601POPC   PO460132  43.472   4.504   5.773
 4601POPC   GL160133  43.136   4.316   5.892
 4601POPC   GL260134  42.943   4.619   5.886
 4601POPC   C1A60135  43.210   4.093   6.289
 4601POPC   D2A60136  43.405   4.189   6.670
 4601POPC   C3A60137  43.175   4.159   7.046
 4601POPC   C4A60138  43.177   4.221   7.511
 4601POPC   C1B60139  43.088   4.599   6.316
 4601POPC   C2B60140  43.181   4.698   6.732
 4601POPC   C3B60141  42.872   4.577   7.023
 4601POPC   C4B60142  42.813   4.529   7.445
 4602POPC   NC360143  42.798  28.215   5.036
 4602POPC   PO460144  43.248  28.452   5.443
 4602POPC   GL160145  43.257  28.316   5.846
 4602POPC   GL260146  42.918  28.404   5.965
 4602POPC   C1A60147  43.330  28.537   6.233
 4602POPC   D2A60148  43.460  28.755   6.593
 4602POPC   C3A60149  43.381  28.430   6.887
 4602POPC   C4A60150  43.127  28.248   7.179
 4602POPC   C1B60151  42.956  28.109   6.323
 4602POPC   C2B60152  42.750  27.894   6.674
 4602POPC   C3B60153  42.697  27.991   7.129
 4602POPC   C4B60154  42.845  28.044   7.578
 4603POPC   NC360155  34.108  26.147   5.579
 4603POPC   PO460156  33.384  26.257   5.413
 4603POPC   GL160157  33.470  26.022   5.788
 4603POPC   GL260158  33.795  25.823   5.840
 4603POPC   C1A60159  33.589  26.125   6.216
 4603POPC   D2A60160  33.743  25.952   6.595
 4603POPC   C3A60161  33.638  26.234   6.906
 4603POPC   C4A60162  33.553  26.146   7.305
 4603POPC   C1B60163  34.089  25.942   6.199
 4603POPC   C2B60164  34.274  26.058   6.596
 4603POPC   C3B60165  34.143  26.229   7.005
 4603POPC   C4B60166  34.023  26.225   7.450
 4604POPC   NC360167  36.854  38.665   5.467
 4604POPC   PO460168  36.412  38.160   5.360
 4604POPC   GL160169  36.608  38.278   5.796
 4604POPC   GL260170  36.607  38.632   5.918
 4604POPC   C1A60171  36.599  38.250   6.295
 4604POPC   D2A60172  36.624  38.069   6.744
 4604POPC   C3A60173  36.640  38.356   7.100
 4604POPC   C4A60174  36.933  38.349   7.422
 4604POPC   C1B60175  37.039  38.454   6.076
 4604POPC   C2B60176  37.190  38.394   6.502
 4604POPC   C3B60177  37.144  38.370   6.932
 4604POPC   C4B60178  37.245  38.672   7.215
 4605POPC   NC360179   5.487  20.928   5.406
 4605POPC   PO460180   5.070  20.348   5.379
 4605POPC   GL160181   4.931  20.416   5.791
 4605POPC   GL260182   4.965  20.753   5.795
 4605POPC   C1A60183   5.040  20.548   6.248
 4605POPC   D2A60184   4.936  20.711   6.657
 4605POPC   C3A60185   4.954  20.401   6.948
 4605POPC   C4A60186   5.082  20.414   7.370
 4605POPC   C1B60187   5.322  20.912   6.033
 4605POPC   C2B60188   5.359  20.951   6.476
 4605POPC   C3B60189   5.427  20.630   6.804
 4605POPC   C4B60190   5.381  20.811   7.214
 4606POPC   NC360191   7.577  16.321   5.432
 4606POPC   PO460192   7.336  15.581   5.369
 4606POPC   GL160193   7.480  15.895   5.715
 4606POPC   GL260194   7.233  16.102   5.819
 4606POPC   C1A60195   7.656  16.039   6.138
 4606POPC   D2A60196   7.461  16.020   6.564
 4606POPC   C3A60197   7.379  15.773   6.950
 4606POPC   C4A60198   7.427  15.844   7.386
 4606POPC   C1B60199   7.182  16.321   6.217
 4606POPC   C2B60200   7.314  16.521   6.608
 4606POPC   C3B60201   7.360  16.281   6.997
 4606POPC   C4B60202   7.058  16.185   7.325
 4607POPC   NC360203  27.041  13.772   5.417
 4607POPC   PO460204  26.434  14.064   5.447
 4607POPC   GL160205  26.683  13.897   5.776
 4607POPC   GL260206  26.724  13.514   5.696
 4607POPC   C1A60207  26.856  13.964   6.195
 4607POPC   D2A60208  26.895  13.706   6.567
 4607POPC   C3A60209  27.051  13.778   6.953
 4607POPC   C4A60210  26.716  13.891   7.180
 4607POPC   C1B60211  26.789  13.456   6.124
 4607POPC   C2B60212  26.526  13.382   6.519
 4607POPC   C3B60213  26.681  13.407   6.963
 4607POPC   C4B60214  27.097  13.234   7.115
 4608POPC   NC360215  31.534  39.776   5.338
 4608POPC   PO460216  31.338  40.454   5.286
 4608POPC   GL160217  31.330  40.162   5.653
 4608POPC   GL260218  31.645  40.237   5.862
 4608POPC   C1A60219  31.181  40.159   6.099
 4608POPC   D2A60220  31.456  40.191   6.455
 4608POPC   C3A60221  31.334  40.133   6.870
 4608POPC   C4A60222  31.501  39.958   7.251
 4608POPC   C1B60223  31.596  39.830   6.127
 4608POPC   C2B60224  31.677  39.726   6.608
 4608POPC   C3B60225  31.905  39.697   7.023
 4608POPC   C4B60226  31.963  39.753   7.500
 4609POPC   NC360227   9.782   2.713   5.397
 4609POPC   PO460228  10.415   2.970   5.488
 4609POPC   GL160229  10.128   2.992   5.852
 4609POPC   GL260230  10.323   2.678   5.932
 4609POPC   C1A60231   9.693   2.932   6.076
 4609POPC   D2A60232   9.478   2.646   6.413
 4609POPC   C3A60233   9.506   2.679   6.913
 4609POPC   C4A60234   9.357   2.771   7.384
 4609POPC   C1B60235  10.071   2.682   6.307
 4609POPC   C2B60236   9.847   2.977   6.563
 4609POPC   C3B60237   9.821   3.101   6.963
 4609POPC   C4B60238   9.932   2.775   7.275
 4610POPC   NC360239  18.708   1.490   5.483
 4610POPC   PO460240  18.871   2.110   5.306
 4610POPC   GL160241  18.875   1.972   5.743
 4610POPC   GL260242  18.697   1.726   5.935
 4610POPC   C1A60243  19.006   2.014   6.180
 4610POPC   D2A60244  18.764   1.927   6.543
 4610POPC   C3A60245  18.994   2.116   6.889
 4610POPC   C4A60246  19.202   2.239   7.299
 4610POPC   C1B60247  18.696   1.476   6.274
 4610POPC   C2B60248  18.640   1.364   6.674
 4610POPC   C3B60249  18.725   1.517   7.043
 4610POPC   C4B60250  18.980   1.780   7.255
 4611POPC   NC360251  35.340   0.005   5.438
 4611POPC   PO460252  35.056  44.441   5.536
 4611POPC   GL160253  35.375  44.499   5.888
 4611POPC   GL260254  35.440  44.826   5.907
 4611POPC   C1A60255  35.591  44.477   6.302
 4611POPC   D2A60256  35.310  44.483   6.662
 4611POPC   C3A60257  35.383  44.590   7.099
 4611POPC   C4A60258  35.066  44.779   7.330
 4611POPC   C1B60259  35.242  44.850   6.300
 4611POPC   C2B60260  35.495  44.951   6.682
 4611POPC   C3B60261  35.505   0.076   7.130
 4611POPC   C4B60262  35.442   0.032   7.581
 4612POPC   NC360263   1.784  19.215   5.569
 4612POPC   PO460264   2.367  19.066   5.865
 4612POPC   GL160265   1.984  19.171   6.032
 4612POPC   GL260266   1.743  18.881   5.958
 4612POPC   C1A60267   1.855  19.318   6.414
 4612POPC   D2A60268   1.532  19.326   6.686
 4612POPC   C3A60269   1.728  19.188   7.035
 4612POPC   C4A60270   2.123  19.213   7.178
 4612POPC   C1B60271   1.826  18.802   6.359
 4612POPC   C2B60272   2.113  18.678   6.634
 4612POPC   C3B60273   2.001  18.736   7.039
 4612POPC   C4B60274   1.607  18.748   7.255
 4613POPC   NC360275  32.538  29.220   5.403
 4613POPC   PO460276  31.895  28.976   5.568
 4613POPC   GL160277  32.240  29.128   5.789
 4613POPC   GL260278  32.176  29.490   5.727
 4613POPC   C1A60279  32.494  29.277   6.172
 4613POPC   D2A60280  32.593  29.003   6.545
 4613POPC   C3A60281  32.325  29.061   6.931
 4613POPC   C4A60282  32.489  29.144   7.352
 4613POPC   C1B60283  31.978  29.351   6.144
 4613POPC   C2B60284  32.099  29.423   6.587
 4613POPC   C3B60285  31.932  29.433   7.025
 4613POPC   C4B60286  32.016  29.345   7.462
 4614POPC   NC360287  41.540  23.412   5.558
 4614POPC   PO460288  41.604  24.084   5.468
 4614POPC   GL160289  41.628  23.853   5.894
 4614POPC   GL260290  41.519  23.510   6.038
 4614POPC   C1A60291  41.681  23.881   6.346
 4614POPC   D2A60292  41.905  24.093   6.641
 4614POPC   C3A60293  41.877  23.849   6.987
 4614POPC   C4A60294  41.685  23.921   7.359
 4614POPC   C1B60295  41.265  23.253   6.287
 4614POPC   C2B60296  41.191  23.251   6.724
 4614POPC   C3B60297  41.441  23.427   7.029
 4614POPC   C4B60298  41.736  23.425   7.348
 4615POPC   NC360299  10.092  33.620   5.482
 4615POPC   PO460300   9.466  33.802   5.439
 4615POPC   GL160301   9.635  33.733   5.859
 4615POPC   GL260302   9.944  33.573   5.955
 4615POPC   C1A60303   9.599  33.691   6.307
 4615POPC   D2A60304   9.361  33.766   6.696
 4615POPC   C3A60305   9.460  33.629   7.100
 4615POPC   C4A60306   9.631  33.816   7.463
 4615POPC   C1B60307   9.997  33.330   6.330
 4615POPC   C2B60308   9.830  33.468   6.727
 4615POPC   C3B60309   9.985  33.656   7.125
 4615POPC   C4B60310  10.087  33.609   7.594
 4616POPC   NC360311  20.864  14.877   5.423
 4616POPC   PO460312  21.288  14.516   5.333
 4616POPC   GL160313  21.603  14.474   5.723
 4616POPC   GL260314  21.558  14.796   5.860
 4616POPC   C1A60315  21.770  14.273   6.160
 4616POPC   D2A60316  21.776  14.124   6.645
 4616POPC   C3A60317  21.688  14.364   7.065
 4616POPC   C4A60318  21.524  14.311   7.498
 4616POPC   C1B60319  21.430  14.628   6.286
 4616POPC   C2B60320  21.330  14.461   6.712
 4616POPC   C3B60321  21.174  14.473   7.155
 4616POPC   C4B60322  21.262  14.749   7.505
 4617POPC   NC360323  24.868  26.461   5.500
 4617POPC   PO460324  25.491  26.824   5.339
 4617POPC   GL160325  25.350  26.778   5.794
 4617POPC   GL260326  25.669  26.674   5.889
 4617POPC   C1A60327  25.321  26.826   6.309
 4617POPC   D2A60328  25.254  27.039   6.768
 4617POPC   C3A60329  25.104  26.856   7.216
 4617POPC   C4A60330  25.094  26.987   7.681
 4617POPC   C1B60331  25.776  26.603   6.286
 4617POPC   C2B60332  25.683  26.696   6.683
 4617POPC   C3B60333  25.600  26.791   7.062
 4617POPC   C4B60334  25.482  26.433   7.284
 4618POPC   NC360335  41.867   5.159   5.676
 4618POPC   PO460336  41.262   4.934   5.427
 4618POPC   GL160337  41.344   4.834   5.843
 4618POPC   GL260338  41.410   5.173   5.921
 4618POPC   C1A60339  41.510   4.752   6.276
 4618POPC   D2A60340  41.670   5.010   6.631
 4618POPC   C3A60341  41.559   4.965   7.059
 4618POPC   C4A60342  41.656   4.878   7.471
 4618POPC   C1B60343  41.224   5.205   6.313
 4618POPC   C2B60344  41.047   5.360   6.710
 4618POPC   C3B60345  41.259   5.585   7.028
 4618POPC   C4B60346  41.389   5.496   7.432
 4619POPC   NC360347  38.147  26.730   5.680
 4619POPC   PO460348  37.666  27.078   5.364
 4619POPC   GL160349  37.666  26.919   5.791
 4619POPC   GL260350  37.550  26.601   5.866
 4619POPC   C1A60351  37.730  27.018   6.235
 4619POPC   D2A60352  37.764  27.307   6.575
 4619POPC   C3A60353  37.817  27.086   6.933
 4619POPC   C4A60354  37.674  26.801   7.191
 4619POPC   C1B60355  37.800  26.502   6.234
 4619POPC   C2B60356  37.833  26.623   6.673
 4619POPC   C3B60357  37.765  26.349   7.019
 4619POPC   C4B60358  37.488  26.380   7.405
 4620POPC   NC360359  32.535  40.159   5.090
 4620POPC   PO460360  31.994  39.903   5.439
 4620POPC   GL160361  32.294  39.935   5.757
 4620POPC   GL260362  32.177  40.200   5.955
 4620POPC   C1A60363  32.395  39.758   6.162
 4620POPC   D2A60364  32.197  39.608   6.531
 4620POPC   C3A60365  32.322  39.909   6.823
 4620POPC   C4A60366  32.407  39.834   7.229
 4620POPC   C1B60367  31.980  40.099   6.361
 4620POPC   C2B60368  31.855  40.184   6.797
 4620POPC   C3B60369  32.014  40.175   7.202
 4620POPC   C4B60370  32.449  40.301   7.382
 4621POPC   NC360371   7.966  29.411   5.495
 4621POPC   PO460372   7.899  28.737   5.389
 4621POPC   GL160373   8.134  28.837   5.813
 4621POPC   GL260374   8.341  29.148   5.802
 4621POPC   C1A60375   8.203  28.957   6.251
 4621POPC   D2A60376   8.159  29.273   6.573
 4621POPC   C3A60377   8.228  29.050   6.923
 4621POPC   C4A60378   8.205  28.789   7.273
 4621POPC   C1B60379   8.596  29.298   6.187
 4621POPC   C2B60380   8.681  29.265   6.644
 4621POPC   C3B60381   8.496  29.491   6.962
 4621POPC   C4B60382   8.394  29.340   7.359
 4622POPC   NC360383   0.194  23.822   5.307
 4622POPC   PO460384   0.833  23.760   5.271
 4622POPC   GL160385   0.596  23.907   5.621
 4622POPC   GL260386   0.411  23.626   5.721
 4622POPC   C1A60387   0.613  23.915   6.082
 4622POPC   D2A60388   0.530  23.778   6.507
 4622POPC   C3A60389   0.730  23.972   6.849
 4622POPC   C4A60390   0.469  23.945   7.207
 4622POPC   C1B60391   0.247  23.535   6.139
 4622POPC   C2B60392   0.263  23.338   6.575
 4622POPC   C3B60393   0.364  23.486   6.986
 4622POPC   C4B60394   0.479  23.463   7.404
 4623POPC   NC360395  27.472  32.114   5.446
 4623POPC   PO460396  28.080  31.977   5.525
 4623POPC   GL160397  27.803  32.293   5.787
 4623POPC   GL260398  27.450  32.330   5.917
 4623POPC   C1A60399  27.888  32.470   6.188
 4623POPC   D2A60400  27.838  32.248   6.549
 4623POPC   C3A60401  27.494  32.233   6.838
 4623POPC   C4A60402  27.762  32.336   7.173
 4623POPC   C1B60403  27.373  32.119   6.317
 4623POPC   C2B60404  27.453  31.769   6.582
 4623POPC   C3B60405  27.307  31.777   6.981
 4623POPC   C4B60406  27.412  32.003   7.319
 4624POPC   NC360407   2.403  21.020   5.369
 4624POPC   PO460408   2.020  21.563   5.351
 4624POPC   GL160409   2.108  21.599   5.753
 4624POPC   GL260410   1.935  21.300   5.812
 4624POPC   C1A60411   1.961  21.638   6.170
 4624POPC   D2A60412   1.936  21.296   6.448
 4624POPC   C3A60413   1.872  21.440   6.832
 4624POPC   C4A60414   2.030  21.631   7.188
 4624POPC   C1B60415   2.081  20.945   6.046
 4624POPC   C2B60416   2.207  20.843   6.444
 4624POPC   C3B60417   2.131  21.000   6.851
 4624POPC   C4B60418   1.975  21.139   7.248
 4625POPC   NC360419   0.793  12.378   5.441
 4625POPC   PO460420   1.520  12.444   5.355
 4625POPC   GL160421   1.415  12.590   5.794
 4625POPC   GL260422   1.063  12.689   5.911
 4625POPC   C1A60423   1.479  12.607   6.226
 4625POPC   D2A60424   1.156  12.600   6.549
 4625POPC   C3A60425   1.204  12.549   7.015
 4625POPC   C4A60426   1.410  12.447   7.444
 4625POPC   C1B60427   0.918  13.001   6.266
 4625POPC   C2B60428   0.886  13.184   6.725
 4625POPC   C3B60429   0.911  13.075   7.182
 4625POPC   C4B60430   0.702  13.075   7.591
 4626POPC   NC360431  30.934  33.608   5.418
 4626POPC   PO460432  30.429  33.989   5.664
 4626POPC   GL160433  30.647  33.815   6.016
 4626POPC   GL260434  30.982  33.818   5.897
 4626POPC   C1A60435  30.765  33.774   6.454
 4626POPC   D2A60436  30.915  34.106   6.718
 4626POPC   C3A60437  30.838  34.064   7.147
 4626POPC   C4A60438  30.505  33.872   7.264
 4626POPC   C1B60439  31.130  33.509   6.209
 4626POPC   C2B60440  31.208  33.621   6.628
 4626POPC   C3B60441  30.964  33.457   6.931
 4626POPC   C4B60442  30.920  33.592   7.314
 4627POPC   NC360443  15.122  22.566   5.306
 4627POPC   PO460444  14.768  21.975   5.312
 4627POPC   GL160445  15.065  22.037   5.696
 4627POPC   GL260446  15.100  22.391   5.796
 4627POPC   C1A60447  15.019  21.999   6.185
 4627POPC   D2A60448  15.235  22.057   6.603
 4627POPC   C3A60449  15.155  21.865   7.006
 4627POPC   C4A60450  15.033  22.038   7.404
 4627POPC   C1B60451  15.300  22.436   6.208
 4627POPC   C2B60452  15.370  22.550   6.641
 4627POPC   C3B60453  15.288  22.385   7.055
 4627POPC   C4B60454  14.946  22.548   7.343
 4628POPC   NC360455  15.647   5.975   5.009
 4628POPC   PO460456  16.222   5.635   5.230
 4628POPC   GL160457  16.048   5.672   5.695
 4628POPC   GL260458  15.782   5.917   5.708
 4628POPC   C1A60459  16.017   5.777   6.174
 4628POPC   D2A60460  16.175   5.997   6.575
 4628POPC   C3A60461  16.226   5.676   6.899
 4628POPC   C4A60462  16.119   5.385   7.224
 4628POPC   C1B60463  15.581   6.029   6.100
 4628POPC   C2B60464  15.687   6.149   6.504
 4628POPC   C3B60465  15.749   5.956   6.906
 4628POPC   C4B60466  15.733   6.077   7.333
 4629POPC   NC360467   6.670  31.375   5.448
 4629POPC   PO460468   6.537  31.982   5.368
 4629POPC   GL160469   6.582  31.762   5.795
 4629POPC   GL260470   6.859  31.902   5.972
 4629POPC   C1A60471   6.629  31.420   6.149
 4629POPC   D2A60472   6.626  31.402   6.628
 4629POPC   C3A60473   6.478  31.335   7.070
 4629POPC   C4A60474   6.781  31.308   7.439
 4629POPC   C1B60475   6.604  31.881   6.352
 4629POPC   C2B60476   6.680  31.896   6.796
 4629POPC   C3B60477   6.695  31.774   7.233
 4629POPC   C4B60478   6.934  31.747   7.643
 4630POPC   NC360479  27.342  16.104   5.250
 4630POPC   PO460480  26.638  16.204   5.397
 4630POPC   GL160481  27.022  16.099   5.653
 4630POPC   GL260482  27.170  16.441   5.664
 4630POPC   C1A60483  27.109  15.844   6.031
 4630POPC   D2A60484  26.963  16.044   6.402
 4630POPC   C3A60485  26.992  15.913   6.805
 4630POPC   C4A60486  26.665  16.045   7.057
 4630POPC   C1B60487  26.992  16.466   6.091
 4630POPC   C2B60488  27.022  16.528   6.562
 4630POPC   C3B60489  27.101  16.377   6.991
 4630POPC   C4B60490  27.085  16.169   7.381
 4631POPC   NC360491   8.495  34.726   5.295
 4631POPC   PO460492   7.927  34.444   5.432
 4631POPC   GL160493   8.164  34.583   5.773
 4631POPC   GL260494   8.366  34.866   5.763
 4631POPC   C1A60495   8.324  34.515   6.171
 4631POPC   D2A60496   8.167  34.352   6.513
 4631POPC   C3A60497   8.229  34.571   6.904
 4631POPC   C4A60498   8.343  34.332   7.278
 4631POPC   C1B60499   8.409  35.011   6.173
 4631POPC   C2B60500   8.508  34.864   6.567
 4631POPC   C3B60501   8.519  35.048   6.943
 4631POPC   C4B60502   8.448  34.837   7.290
 4632POPC   NC360503  28.892   4.923   5.298
 4632POPC   PO460504  29.107   5.475   5.418
 4632POPC   GL160505  29.094   5.175   5.757
 4632POPC   GL260506  28.898   4.875   5.810
 4632POPC   C1A60507  29.150   5.231   6.204
 4632POPC   D2A60508  29.035   5.427   6.595
 4632POPC   C3A60509  29.308   5.239   6.967
 4632POPC   C4A60510  29.223   5.337   7.414
 4632POPC   C1B60511  29.043   4.720   6.201
 4632POPC   C2B60512  29.087   4.916   6.622
 4632POPC   C3B60513  28.953   4.864   7.068
 4632POPC   C4B60514  28.905   4.949   7.512
 4633POPC   NC360515  42.497  34.953   5.539
 4633POPC   PO460516  42.105  34.516   5.414
 4633POPC   GL160517  42.186  34.440   5.832
 4633POPC   GL260518  42.464  34.644   5.960
 4633POPC   C1A60519  42.028  34.532   6.244
 4633POPC   D2A60520  42.396  34.615   6.486
 4633POPC   C3A60521  42.326  34.661   6.914
 4633POPC   C4A60522  42.501  34.523   7.296
 4633POPC   C1B60523  42.640  34.988   6.264
 4633POPC   C2B60524  42.730  34.933   6.704
 4633POPC   C3B60525  42.679  34.970   7.160
 4633POPC   C4B60526  42.817  34.894   7.600
 4634POPC   NC360527  41.037   1.513   5.491
 4634POPC   PO460528  40.509   1.064   5.412
 4634POPC   GL160529  40.781   1.166   5.749
 4634POPC   GL260530  40.704   0.896   5.911
 4634POPC   C1A60531  40.925   1.278   6.176
 4634POPC   D2A60532  40.764   1.017   6.514
 4634POPC   C3A60533  40.646   1.190   6.918
 4634POPC   C4A60534  40.644   0.965   7.272
 4634POPC   C1B60535  41.073   0.769   6.136
 4634POPC   C2B60536  41.226   0.685   6.556
 4634POPC   C3B60537  41.014   0.808   6.934
 4634POPC   C4B60538  41.091   1.185   7.198
 4635POPC   NC360539  12.362  17.251   5.059
 4635POPC   PO460540  11.753  17.536   5.300
 4635POPC   GL160541  11.910  17.627   5.734
 4635POPC   GL260542  12.232  17.517   5.870
 4635POPC   C1A60543  11.845  17.540   6.191
 4635POPC   D2A60544  12.151  17.649   6.475
 4635POPC   C3A60545  12.082  17.618   6.890
 4635POPC   C4A60546  12.074  17.817   7.275
 4635POPC   C1B60547  12.186  17.166   6.192
 4635POPC   C2B60548  12.115  17.139   6.636
 4635POPC   C3B60549  12.015  17.117   7.089
 4635POPC   C4B60550  12.157  17.140   7.533
 4636POPC   NC360551   0.018  20.400   5.307
 4636POPC   PO460552  44.533  20.868   5.270
 4636POPC   GL160553  44.478  20.799   5.703
 4636POPC   GL260554  44.774  20.596   5.713
 4636POPC   C1A60555  44.591  20.852   6.141
 4636POPC   D2A60556  44.377  20.635   6.479
 4636POPC   C3A60557  44.508  20.767   6.883
 4636POPC   C4A60558  44.331  20.803   7.282
 4636POPC   C1B60559  44.798  20.373   6.085
 4636POPC   C2B60560  44.884  20.495   6.490
 4636POPC   C3B60561  44.874  20.384   6.901
 4636POPC   C4B60562  44.783  20.545   7.298
 4637POPC   NC360563  19.390  40.975   5.703
 4637POPC   PO460564  19.096  40.542   5.392
 4637POPC   GL160565  18.838  40.558   5.820
 4637POPC   GL260566  19.154  40.580   5.988
 4637POPC   C1A60567  18.783  40.807   6.250
 4637POPC   D2A60568  19.022  40.890   6.622
 4637POPC   C3A60569  18.778  40.808   6.989
 4637POPC   C4A60570  18.503  41.065   7.249
 4637POPC   C1B60571  19.246  40.467   6.443
 4637POPC   C2B60572  19.210  40.478   6.900
 4637POPC   C3B60573  19.274  40.878   7.077
 4637POPC   C4B60574  19.647  41.105   7.163
 4638POPC   NC360575  36.066   6.226   5.265
 4638POPC   PO460576  36.436   5.665   5.340
 4638POPC   GL160577  36.305   5.953   5.700
 4638POPC   GL260578  36.600   6.107   5.868
 4638POPC   C1A60579  36.069   6.141   6.088
 4638POPC   D2A60580  36.044   6.325   6.564
 4638POPC   C3A60581  35.936   6.159   7.037
 4638POPC   C4A60582  36.028   5.819   7.394
 4638POPC   C1B60583  36.522   6.210   6.305
 4638POPC   C2B60584  36.556   6.140   6.729
 4638POPC   C3B60585  36.397   5.913   7.062
 4638POPC   C4B60586  36.466   5.494   7.255
 4639POPC   NC360587   1.239  11.114   5.233
 4639POPC   PO460588   1.172  10.434   5.321
 4639POPC   GL160589   1.180  10.467   5.804
 4639POPC   GL260590   1.238  10.200   6.092
 4639POPC   C1A60591   1.064  10.662   6.218
 4639POPC   D2A60592   1.176  10.440   6.591
 4639POPC   C3A60593   1.066  10.550   6.991
 4639POPC   C4A60594   1.187  10.357   7.392
 4639POPC   C1B60595   1.556  10.553   6.248
 4639POPC   C2B60596   1.734  10.684   6.646
 4639POPC   C3B60597   1.588  10.550   7.058
 4639POPC   C4B60598   1.695  10.402   7.468
 4640POPC   NC360599  40.264  43.247   5.586
 4640POPC   PO460600  40.796  43.256   5.057
 4640POPC   GL160601  40.742  43.105   5.533
 4640POPC   GL260602  40.950  42.902   5.710
 4640POPC   C1A60603  40.724  43.198   6.063
 4640POPC   D2A60604  40.961  43.359   6.490
 4640POPC   C3A60605  40.822  43.425   6.965
 4640POPC   C4A60606  40.779  43.246   7.438
 4640POPC   C1B60607  40.876  42.716   6.112
 4640POPC   C2B60608  40.836  42.848   6.508
 4640POPC   C3B60609  41.062  42.976   6.852
 4640POPC   C4B60610  40.942  42.822   7.217
 4641POPC   NC360611  39.514   2.056   5.499
 4641POPC   PO460612  38.952   1.653   5.346
 4641POPC   GL160613  39.115   1.789   5.759
 4641POPC   GL260614  39.247   2.120   5.912
 4641POPC   C1A60615  39.083   1.735   6.220
 4641POPC   D2A60616  38.906   1.620   6.620
 4641POPC   C3A60617  39.030   1.911   6.917
 4641POPC   C4A60618  38.992   2.367   6.919
 4641POPC   C1B60619  39.504   2.050   6.284
 4641POPC   C2B60620  39.493   1.913   6.705
 4641POPC   C3B60621  39.445   2.165   7.066
 4641POPC   C4B60622  39.555   2.425   7.374
 4642POPC   NC360623   9.875   7.511   5.434
 4642POPC   PO460624   9.284   7.223   5.377
 4642POPC   GL160625   9.568   7.296   5.762
 4642POPC   GL260626   9.619   7.688   5.832
 4642POPC   C1A60627   9.728   7.198   6.167
 4642POPC   D2A60628   9.521   7.142   6.544
 4642POPC   C3A60629   9.791   7.122   6.885
 4642POPC   C4A60630   9.698   7.191   7.294
 4642POPC   C1B60631   9.970   7.656   6.136
 4642POPC   C2B60632   9.875   7.567   6.569
 4642POPC   C3B60633   9.849   7.709   6.989
 4642POPC   C4B60634   9.837   7.662   7.419
 4643POPC   NC360635  12.376  27.011   5.334
 4643POPC   PO460636  12.172  27.726   5.313
 4643POPC   GL160637  12.091  27.670   5.762
 4643POPC   GL260638  12.381  27.825   5.878
 4643POPC   C1A60639  12.079  27.423   6.175
 4643POPC   D2A60640  11.849  27.295   6.594
 4643POPC   C3A60641  12.093  27.335   6.976
 4643POPC   C4A60642  12.244  27.544   7.365
 4643POPC   C1B60643  12.118  27.920   6.232
 4643POPC   C2B60644  12.115  27.726   6.608
 4643POPC   C3B60645  12.085  27.862   6.992
 4643POPC   C4B60646  12.431  28.008   7.226
 4644POPC   NC360647  23.865  44.448   5.296
 4644POPC   PO460648  23.479  44.889   5.279
 4644POPC   GL160649  23.713  44.855   5.717
 4644POPC   GL260650  23.947  44.590   5.783
 4644POPC   C1A60651  23.591  44.761   6.151
 4644POPC   D2A60652  23.592  44.507   6.534
 4644POPC   C3A60653  23.522  44.742   6.916
 4644POPC   C4A60654  23.699  44.726   7.332
 4644POPC   C1B60655  24.040  44.454   6.182
 4644POPC   C2B60656  24.098  44.597   6.576
 4644POPC   C3B60657  24.013  44.586   6.967
 4644POPC   C4B60658  24.098  44.295   7.248
 4645POPC   NC360659   4.661  16.426   5.213
 4645POPC   PO460660   4.234  15.902   5.496
 4645POPC   GL160661   4.162  15.912   5.883
 4645POPC   GL260662   4.063  16.280   5.866
 4645POPC   C1A60663   4.266  15.587   6.180
 4645POPC   D2A60664   4.121  15.379   6.555
 4645POPC   C3A60665   4.262  15.601   6.941
 4645POPC   C4A60666   4.447  15.812   7.310
 4645POPC   C1B60667   4.233  16.247   6.268
 4645POPC   C2B60668   4.414  16.389   6.629
 4645POPC   C3B60669   4.298  16.216   7.016
 4645POPC   C4B60670   3.900  16.326   7.194
 4646POPC   NC360671  29.528   7.042   5.342
 4646POPC   PO460672  29.807   6.465   5.313
 4646POPC   GL160673  29.819   6.655   5.761
 4646POPC   GL260674  30.166   6.844   5.777
 4646POPC   C1A60675  29.807   6.407   6.188
 4646POPC   D2A60676  29.646   6.153   6.544
 4646POPC   C3A60677  29.750   6.371   6.910
 4646POPC   C4A60678  29.632   6.699   7.134
 4646POPC   C1B60679  30.216   6.696   6.215
 4646POPC   C2B60680  29.950   6.755   6.575
 4646POPC   C3B60681  30.085   6.856   6.963
 4646POPC   C4B60682  30.316   6.723   7.302
 4647POPC   NC360683  37.445  21.533   5.672
 4647POPC   PO460684  38.048  21.535   5.251
 4647POPC   GL160685  38.079  21.379   5.695
 4647POPC   GL260686  37.800  21.221   5.812
 4647POPC   C1A60687  38.000  21.512   6.170
 4647POPC   D2A60688  37.571  21.634   6.384
 4647POPC   C3A60689  37.562  21.577   6.831
 4647POPC   C4A60690  37.885  21.432   7.082
 4647POPC   C1B60691  37.650  21.129   6.230
 4647POPC   C2B60692  37.891  21.156   6.609
 4647POPC   C3B60693  37.776  20.945   6.971
 4647POPC   C4B60694  37.361  21.137   7.116
 4648POPC   NC360695   7.433  15.023   5.285
 4648POPC   PO460696   7.984  15.082   5.618
 4648POPC   GL160697   7.540  15.081   5.840
 4648POPC   GL260698   7.288  15.395   5.835
 4648POPC   C1A60699   7.383  15.197   6.281
 4648POPC   D2A60700   7.570  15.376   6.658
 4648POPC   C3A60701   7.736  15.020   6.897
 4648POPC   C4A60702   7.629  14.829   7.283
 4648POPC   C1B60703   7.262  15.703   6.193
 4648POPC   C2B60704   7.055  15.592   6.599
 4648POPC   C3B60705   7.136  15.311   6.977
 4648POPC   C4B60706   7.513  15.339   7.247
 4649POPC   NC360707  36.041   8.572   5.502
 4649POPC   PO460708  36.331   9.122   5.200
 4649POPC   GL160709  36.204   9.102   5.657
 4649POPC   GL260710  36.542   9.091   5.827
 4649POPC   C1A60711  36.097   9.039   6.115
 4649POPC   D2A60712  35.924   8.858   6.514
 4649POPC   C3A60713  36.145   8.970   6.913
 4649POPC   C4A60714  36.059   9.320   7.202
 4649POPC   C1B60715  36.544   9.293   6.257
 4649POPC   C2B60716  36.387   9.414   6.690
 4649POPC   C3B60717  36.591   9.245   7.062
 4649POPC   C4B60718  36.614   8.788   7.064
 4650POPC   NC360719   2.829   5.841   5.340
 4650POPC   PO460720   2.265   5.497   5.498
 4650POPC   GL160721   2.438   5.804   5.807
 4650POPC   GL260722   2.606   6.104   5.733
 4650POPC   C1A60723   2.718   5.849   6.183
 4650POPC   D2A60724   2.980   5.804   6.559
 4650POPC   C3A60725   2.751   5.867   6.941
 4650POPC   C4A60726   2.658   5.748   7.350
 4650POPC   C1B60727   3.055   6.163   5.983
 4650POPC   C2B60728   3.174   6.240   6.418
 4650POPC   C3B60729   3.162   6.180   6.872
 4650POPC   C4B60730   3.001   6.153   7.298
 4651POPC   NC360731  34.063  32.425   5.378
 4651POPC   PO460732  33.760  31.841   5.366
 4651POPC   GL160733  33.724  32.085   5.726
 4651POPC   GL260734  34.050  32.097   5.788
 4651POPC   C1A60735  33.727  32.156   6.190
 4651POPC   D2A60736  33.831  32.370   6.601
 4651POPC   C3A60737  33.692  32.402   7.046
 4651POPC   C4A60738  33.582  32.018   7.212
 4651POPC   C1B60739  34.111  32.488   6.043
 4651POPC   C2B60740  34.190  32.688   6.450
 4651POPC   C3B60741  34.275  32.444   6.847
 4651POPC   C4B60742  34.151  32.499   7.285
 4652POPC   NC360743  33.389  36.909   5.484
 4652POPC   PO460744  34.018  36.747   5.369
 4652POPC   GL160745  33.815  36.816   5.796
 4652POPC   GL260746  33.474  36.657   5.919
 4652POPC   C1A60747  33.869  36.728   6.239
 4652POPC   D2A60748  33.661  36.760   6.621
 4652POPC   C3A60749  33.774  36.988   6.973
 4652POPC   C4A60750  33.703  36.819   7.378
 4652POPC   C1B60751  33.510  37.070   6.182
 4652POPC   C2B60752  33.739  37.271   6.519
 4652POPC   C3B60753  33.510  37.425   6.855
 4652POPC   C4B60754  33.411  37.228   7.254
 4653POPC   NC360755  30.354  24.252   5.435
 4653POPC   PO460756  30.055  23.655   5.184
 4653POPC   GL160757  30.097  23.690   5.631
 4653POPC   GL260758  29.957  23.994   5.768
 4653POPC   C1A60759  30.102  23.589   6.081
 4653POPC   D2A60760  29.910  23.611   6.504
 4653POPC   C3A60761  30.057  23.668   6.943
 4653POPC   C4A60762  29.859  23.395   7.244
 4653POPC   C1B60763  29.678  23.937   6.159
 4653POPC   C2B60764  29.746  24.078   6.592
 4653POPC   C3B60765  29.624  23.957   6.988
 4653POPC   C4B60766  29.760  24.116   7.385
 4654POPC   NC360767  28.339   2.797   5.349
 4654POPC   PO460768  28.319   2.168   5.570
 4654POPC   GL160769  28.206   2.576   5.808
 4654POPC   GL260770  28.523   2.737   5.812
 4654POPC   C1A60771  28.234   2.824   6.230
 4654POPC   D2A60772  28.342   2.621   6.610
 4654POPC   C3A60773  28.147   2.752   6.947
 4654POPC   C4A60774  28.165   2.939   7.301
 4654POPC   C1B60775  28.601   3.125   6.040
 4654POPC   C2B60776  28.591   3.122   6.504
 4654POPC   C3B60777  28.646   2.954   6.931
 4654POPC   C4B60778  28.609   3.164   7.321
 4655POPC   NC360779  38.071  12.036   5.492
 4655POPC   PO460780  37.433  11.907   5.467
 4655POPC   GL160781  37.713  11.784   5.850
 4655POPC   GL260782  37.885  12.057   5.959
 4655POPC   C1A60783  37.788  11.692   6.340
 4655POPC   D2A60784  37.600  11.749   6.789
 4655POPC   C3A60785  37.862  11.947   7.121
 4655POPC   C4A60786  37.855  11.886   7.564
 4655POPC   C1B60787  37.668  12.176   6.292
 4655POPC   C2B60788  37.736  12.235   6.698
 4655POPC   C3B60789  37.786  12.485   7.050
 4655POPC   C4B60790  37.601  12.436   7.437
 4656POPC   NC360791  26.638  43.568   5.221
 4656POPC   PO460792  27.186  43.884   5.394
 4656POPC   GL160793  26.835  43.763   5.666
 4656POPC   GL260794  27.090  43.714   5.889
 4656POPC   C1A60795  26.644  43.719   6.110
 4656POPC   D2A60796  26.711  43.864   6.539
 4656POPC   C3A60797  26.925  43.651   6.865
 4656POPC   C4A60798  26.794  43.891   7.198
 4656POPC   C1B60799  27.123  43.970   6.227
 4656POPC   C2B60800  27.301  43.903   6.619
 4656POPC   C3B60801  27.170  44.117   6.965
 4656POPC   C4B60802  27.124  44.331   7.342
 4657POPC   NC360803  14.765  24.583   5.086
 4657POPC   PO460804  15.225  24.350   5.579
 4657POPC   GL160805  15.184  24.780   5.741
 4657POPC   GL260806  15.518  24.949   5.782
 4657POPC   C1A60807  14.972  24.808   6.145
 4657POPC   D2A60808  14.789  24.486   6.466
 4657POPC   C3A60809  14.996  24.360   6.860
 4657POPC   C4A60810  14.837  24.389   7.282
 4657POPC   C1B60811  15.492  24.746   6.160
 4657POPC   C2B60812  15.395  24.513   6.513
 4657POPC   C3B60813  15.368  24.701   6.900
 4657POPC   C4B60814  15.353  24.528   7.275
 4658POPC   NC360815  44.022  37.980   5.446
 4658POPC   PO460816  43.782  37.396   5.300
 4658POPC   GL160817  43.985  37.440   5.674
 4658POPC   GL260818  43.710  37.669   5.755
 4658POPC   C1A60819  44.035  37.535   6.115
 4658POPC   D2A60820  43.730  37.622   6.410
 4658POPC   C3A60821  43.960  37.455   6.743
 4658POPC   C4A60822  43.882  37.382   7.137
 4658POPC   C1B60823  43.726  38.028   6.046
 4658POPC   C2B60824  43.799  38.138   6.455
 4658POPC   C3B60825  43.803  37.920   6.832
 4658POPC   C4B60826  43.752  37.850   7.254
 4659POPC   NC360827  23.018  21.001   5.519
 4659POPC   PO460828  22.795  20.379   5.302
 4659POPC   GL160829  22.828  20.542   5.702
 4659POPC   GL260830  23.171  20.440   5.695
 4659POPC   C1A60831  22.869  20.617   6.159
 4659POPC   D2A60832  23.005  20.556   6.593
 4659POPC   C3A60833  22.870  20.940   6.826
 4659POPC   C4A60834  22.642  20.939   7.200
 4659POPC   C1B60835  23.346  20.313   6.092
 4659POPC   C2B60836  23.477  20.288   6.538
 4659POPC   C3B60837  23.322  20.350   6.985
 4659POPC   C4B60838  23.195  20.762   7.163
 4660POPC   NC360839  33.021  36.002   5.377
 4660POPC   PO460840  33.009  36.641   5.521
 4660POPC   GL160841  33.045  36.266   5.823
 4660POPC   GL260842  32.892  35.873   5.839
 4660POPC   C1A60843  33.220  36.287   6.235
 4660POPC   D2A60844  33.258  36.461   6.663
 4660POPC   C3A60845  33.163  36.185   7.010
 4660POPC   C4A60846  33.371  35.840   7.183
 4660POPC   C1B60847  32.725  36.079   6.196
 4660POPC   C2B60848  32.852  36.160   6.591
 4660POPC   C3B60849  32.670  36.301   6.956
 4660POPC   C4B60850  32.685  36.049   7.292
 4661POPC   NC360851  20.573  33.340   5.470
 4661POPC   PO460852  20.592  32.753   5.156
 4661POPC   GL160853  20.517  32.722   5.697
 4661POPC   GL260854  20.497  33.069   5.888
 4661POPC   C1A60855  20.594  32.710   6.221
 4661POPC   D2A60856  20.755  32.890   6.663
 4661POPC   C3A60857  20.432  32.867   7.041
 4661POPC   C4A60858  20.410  33.077   7.466
 4661POPC   C1B60859  20.573  33.331   6.281
 4661POPC   C2B60860  20.625  33.548   6.684
 4661POPC   C3B60861  20.687  33.308   7.064
 4661POPC   C4B60862  20.931  32.892   7.171
 4662POPC   NC360863  24.272  11.005   5.486
 4662POPC   PO460864  24.683  10.391   5.451
 4662POPC   GL160865  24.577  10.695   5.774
 4662POPC   GL260866  24.252  10.574   5.759
 4662POPC   C1A60867  24.375  10.894   6.140
 4662POPC   D2A60868  24.250  10.725   6.529
 4662POPC   C3A60869  24.545  10.782   6.839
 4662POPC   C4A60870  24.563  10.639   7.235
 4662POPC   C1B60871  24.425  10.322   6.081
 4662POPC   C2B60872  24.531  10.209   6.478
 4662POPC   C3B60873  24.461  10.277   6.888
 4662POPC   C4B60874  24.460  10.147   7.305
 4663POPC   NC360875   7.567  12.458   5.522
 4663POPC   PO460876   7.291  13.018   5.443
 4663POPC   GL160877   7.499  12.946   5.819
 4663POPC   GL260878   7.813  13.119   5.817
 4663POPC   C1A60879   7.354  12.795   6.228
 4663POPC   D2A60880   7.309  12.982   6.633
 4663POPC   C3A60881   7.423  12.742   6.975
 4663POPC   C4A60882   7.135  12.577   7.221
 4663POPC   C1B60883   7.674  13.207   6.238
 4663POPC   C2B60884   7.858  13.328   6.596
 4663POPC   C3B60885   7.700  13.171   6.943
 4663POPC   C4B60886   7.556  13.220   7.336
 4664POPC   NC360887  13.628   8.065   5.407
 4664POPC   PO460888  13.233   8.699   5.434
 4664POPC   GL160889  13.488   8.469   5.719
 4664POPC   GL260890  13.345   8.698   5.936
 4664POPC   C1A60891  13.654   8.213   6.095
 4664POPC   D2A60892  13.690   8.321   6.582
 4664POPC   C3A60893  13.742   8.110   7.039
 4664POPC   C4A60894  13.854   8.226   7.484
 4664POPC   C1B60895  13.250   8.445   6.278
 4664POPC   C2B60896  13.115   8.529   6.677
 4664POPC   C3B60897  13.400   8.478   6.990
 4664POPC   C4B60898  13.378   8.342   7.423
 4665POPC   NC360899  42.536  26.756   5.369
 4665POPC   PO460900  41.956  27.198   5.388
 4665POPC   GL160901  42.267  27.003   5.707
 4665POPC   GL260902  42.247  26.627   5.765
 4665POPC   C1A60903  42.493  27.028   6.143
 4665POPC   D2A60904  42.414  26.876   6.594
 4665POPC   C3A60905  42.514  26.920   7.061
 4665POPC   C4A60906  42.253  26.877   7.465
 4665POPC   C1B60907  42.535  26.473   6.097
 4665POPC   C2B60908  42.750  26.452   6.507
 4665POPC   C3B60909  42.632  26.439   6.927
 4665POPC   C4B60910  42.478  26.438   7.330
 4666POPC   NC360911  17.828   8.385   5.145
 4666POPC   PO460912  18.068   9.015   5.356
 4666POPC   GL160913  18.141   9.072   5.784
 4666POPC   GL260914  17.794   9.202   5.854
 4666POPC   C1A60915  18.304   9.039   6.214
 4666POPC   D2A60916  18.490   8.997   6.613
 4666POPC   C3A60917  18.295   8.751   6.964
 4666POPC   C4A60918  18.188   8.919   7.394
 4666POPC   C1B60919  17.827   8.889   6.169
 4666POPC   C2B60920  17.925   9.030   6.586
 4666POPC   C3B60921  17.827   8.916   6.971
 4666POPC   C4B60922  17.835   8.607   7.240
 4667POPC   NC360923  40.349  43.389   5.082
 4667POPC   PO460924  39.972  42.886   5.487
 4667POPC   GL160925  39.840  43.046   5.874
 4667POPC   GL260926  39.564  42.813   5.817
 4667POPC   C1A60927  40.040  43.121   6.288
 4667POPC   D2A60928  40.442  43.196   6.544
 4667POPC   C3A60929  40.465  43.023   6.980
 4667POPC   C4A60930  40.103  43.075   7.267
 4667POPC   C1B60931  39.399  42.865   6.224
 4667POPC   C2B60932  39.559  43.115   6.557
 4667POPC   C3B60933  39.702  43.183   6.965
 4667POPC   C4B60934  39.625  42.925   7.332
 4668POPC   NC360935  21.152  42.550   5.374
 4668POPC   PO460936  21.532  41.998   5.530
 4668POPC   GL160937  21.345  42.257   5.870
 4668POPC   GL260938  21.017  42.423   5.863
 4668POPC   C1A60939  21.476  42.468   6.277
 4668POPC   D2A60940  21.830  42.584   6.570
 4668POPC   C3A60941  21.646  42.710   6.996
 4668POPC   C4A60942  21.361  42.600   7.364
 4668POPC   C1B60943  21.026  42.204   6.273
 4668POPC   C2B60944  21.246  42.124   6.666
 4668POPC   C3B60945  21.253  42.159   7.126
 4668POPC   C4B60946  21.021  42.105   7.537
 4669POPC   NC360947  30.359  26.858   5.439
 4669POPC   PO460948  30.975  26.615   5.657
 4669POPC   GL160949  30.656  26.795   5.860
 4669POPC   GL260950  30.361  26.577   5.869
 4669POPC   C1A60951  30.669  26.710   6.286
 4669POPC   D2A60952  30.609  26.856   6.693
 4669POPC   C3A60953  30.965  26.713   6.887
 4669POPC   C4A60954  31.126  27.014   7.123
 4669POPC   C1B60955  30.210  26.528   6.309
 4669POPC   C2B60956  30.510  26.356   6.616
 4669POPC   C3B60957  30.557  26.461   7.041
 4669POPC   C4B60958  30.605  26.889   7.246
 4670POPC   NC360959  21.499  44.354   5.531
 4670POPC   PO460960  21.304   0.014   5.459
 4670POPC   GL160961  21.440  44.800   5.772
 4670POPC   GL260962  21.129  44.598   5.839
 4670POPC   C1A60963  21.579  44.622   6.150
 4670POPC   D2A60964  21.737  44.327   6.450
 4670POPC   C3A60965  21.777  44.531   6.855
 4670POPC   C4A60966  21.698  44.624   7.302
 4670POPC   C1B60967  21.205  44.277   6.196
 4670POPC   C2B60968  21.290  44.263   6.677
 4670POPC   C3B60969  21.279  44.520   7.041
 4670POPC   C4B60970  21.032  44.878   7.175
 4671POPC   NC360971  20.112  31.039   5.475
 4671POPC   PO460972  19.825  30.484   5.197
 4671POPC   GL160973  19.794  30.596   5.681
 4671POPC   GL260974  20.069  30.717   5.883
 4671POPC   C1A60975  19.645  30.735   6.115
 4671POPC   D2A60976  19.795  30.981   6.479
 4671POPC   C3A60977  19.565  30.898   6.850
 4671POPC   C4A60978  19.653  30.749   7.240
 4671POPC   C1B60979  20.123  30.581   6.312
 4671POPC   C2B60980  20.239  30.714   6.730
 4671POPC   C3B60981  20.210  30.667   7.172
 4671POPC   C4B60982  20.446  30.495   7.488
 4672POPC   NC360983   8.483  25.390   5.375
 4672POPC   PO460984   7.871  25.683   5.411
 4672POPC   GL160985   8.142  25.439   5.763
 4672POPC   GL260986   8.451  25.565   5.936
 4672POPC   C1A60987   8.253  25.137   6.123
 4672POPC   D2A60988   8.444  25.005   6.525
 4672POPC   C3A60989   8.272  25.080   6.964
 4672POPC   C4A60990   7.918  24.983   7.209
 4672POPC   C1B60991   8.579  25.508   6.353
 4672POPC   C2B60992   8.308  25.487   6.665
 4672POPC   C3B60993   8.212  25.664   7.049
 4672POPC   C4B60994   8.218  25.575   7.466
 4673POPC   NC360995  27.478   4.507   5.652
 4673POPC   PO460996  27.006   4.071   5.653
 4673POPC   GL160997  27.353   4.084   5.962
 4673POPC   GL260998  27.740   4.098   5.892
 4673POPC   C1A60999  27.547   4.231   6.357
 4673POPC   D2A61000  27.608   4.002   6.731
 4673POPC   C3A61001  27.345   4.147   7.040
 4673POPC   C4A61002  27.337   4.594   7.138
 4673POPC   C1B61003  27.952   4.482   6.118
 4673POPC   C2B61004  27.967   4.642   6.529
 4673POPC   C3B61005  27.824   4.443   6.870
 4673POPC   C4B61006  27.966   4.457   7.246
 4674POPC   NC361007  11.390   2.511   5.341
 4674POPC   PO461008  11.058   3.012   5.307
 4674POPC   GL161009  11.280   2.842   5.720
 4674POPC   GL261010  11.617   2.694   5.780
 4674POPC   C1A61011  11.253   2.704   6.166
 4674POPC   D2A61012  11.381   2.948   6.534
 4674POPC   C3A61013  11.266   2.843   6.936
 4674POPC   C4A61014  11.346   3.045   7.305
 4674POPC   C1B61015  11.677   2.432   6.181
 4674POPC   C2B61016  11.477   2.417   6.637
 4674POPC   C3B61017  11.454   2.393   7.126
 4674POPC   C4B61018  11.751   2.276   7.468
 4675POPC   NC361019  25.743   3.779   5.525
 4675POPC   PO461020  26.313   3.387   5.423
 4675POPC   GL161021  26.236   3.360   5.884
 4675POPC   GL261022  26.457   3.076   6.029
 4675POPC   C1A61023  26.071   3.547   6.282
 4675POPC   D2A61024  25.957   3.822   6.641
 4675POPC   C3A61025  25.782   3.577   6.980
 4675POPC   C4A61026  25.768   3.630   7.429
 4675POPC   C1B61027  26.386   3.050   6.467
 4675POPC   C2B61028  26.131   3.290   6.726
 4675POPC   C3B61029  26.305   3.632   6.957
 4675POPC   C4B61030  26.476   3.615   7.351
 4676POPC   NC361031  33.409  31.332   5.374
 4676POPC   PO461032  32.745  31.382   5.453
 4676POPC   GL161033  32.959  31.703   5.730
 4676POPC   GL261034  33.347  31.713   5.716
 4676POPC   C1A61035  32.807  31.643   6.169
 4676POPC   D2A61036  32.752  31.327   6.499
 4676POPC   C3A61037  32.816  31.494   6.902
 4676POPC   C4A61038  32.659  31.409   7.289
 4676POPC   C1B61039  33.277  31.881   6.134
 4676POPC   C2B61040  33.128  31.756   6.552
 4676POPC   C3B61041  33.302  31.649   6.955
 4676POPC   C4B61042  33.209  31.321   7.257
 4677POPC   NC361043  16.267   3.906   5.674
 4677POPC   PO461044  16.887   3.789   5.356
 4677POPC   GL161045  16.746   3.629   5.785
 4677POPC   GL261046  17.096   3.618   5.899
 4677POPC   C1A61047  16.519   3.564   6.206
 4677POPC   D2A61048  16.298   3.554   6.620
 4677POPC   C3A61049  16.536   3.672   7.010
 4677POPC   C4A61050  16.597   3.842   7.440
 4677POPC   C1B61051  16.969   3.267   6.171
 4677POPC   C2B61052  16.725   3.241   6.564
 4677POPC   C3B61053  16.791   3.235   6.993
 4677POPC   C4B61054  16.878   3.423   7.376
 4678POPC   NC361055   8.637  26.876   5.535
 4678POPC   PO461056   9.094  26.576   5.081
 4678POPC   GL161057   9.081  26.579   5.578
 4678POPC   GL261058   9.102  26.928   5.720
 4678POPC   C1A61059   8.977  26.541   6.053
 4678POPC   D2A61060   8.748  26.762   6.386
 4678POPC   C3A61061   8.823  26.698   6.847
 4678POPC   C4A61062   9.015  26.610   7.246
 4678POPC   C1B61063   9.081  27.084   6.137
 4678POPC   C2B61064   9.301  27.006   6.514
 4678POPC   C3B61065   9.255  26.955   6.946
 4678POPC   C4B61066   8.925  27.133   7.159
 4679POPC   NC361067  26.199  21.564   5.482
 4679POPC   PO461068  26.814  21.513   5.154
 4679POPC   GL161069  26.708  21.463   5.621
 4679POPC   GL261070  26.875  21.228   5.855
 4679POPC   C1A61071  26.569  21.639   6.050
 4679POPC   D2A61072  26.689  21.786   6.497
 4679POPC   C3A61073  26.705  21.612   6.917
 4679POPC   C4A61074  27.093  21.704   7.179
 4679POPC   C1B61075  26.617  21.171   6.247
 4679POPC   C2B61076  26.414  21.264   6.647
 4679POPC   C3B61077  26.529  21.046   7.027
 4679POPC   C4B61078  26.881  21.210   7.168
 4680POPC   NC361079  33.190  25.813   5.364
 4680POPC   PO461080  32.676  26.193   5.310
 4680POPC   GL161081  32.940  26.112   5.704
 4680POPC   GL261082  32.838  25.804   5.724
 4680POPC   C1A61083  33.117  25.907   6.142
 4680POPC   D2A61084  33.214  26.051   6.604
 4680POPC   C3A61085  33.167  25.905   7.062
 4680POPC   C4A61086  33.094  26.123   7.506
 4680POPC   C1B61087  32.666  25.647   6.103
 4680POPC   C2B61088  32.844  25.666   6.531
 4680POPC   C3B61089  32.699  25.684   6.945
 4680POPC   C4B61090  32.780  25.748   7.391
 4681POPC   NC361091  30.453   7.107   5.364
 4681POPC   PO461092  30.745   7.711   5.604
 4681POPC   GL161093  30.646   7.323   5.785
 4681POPC   GL261094  30.905   7.130   5.632
 4681POPC   C1A61095  30.466   7.134   6.148
 4681POPC   D2A61096  30.448   6.971   6.588
 4681POPC   C3A61097  30.400   7.261   6.913
 4681POPC   C4A61098  30.382   7.226   7.328
 4681POPC   C1B61099  31.022   7.143   6.084
 4681POPC   C2B61100  31.029   7.041   6.551
 4681POPC   C3B61101  30.922   7.234   6.939
 4681POPC   C4B61102  31.011   7.492   7.307
 4682POPC   NC361103  15.666  23.044   5.464
 4682POPC   PO461104  16.249  22.908   5.261
 4682POPC   GL161105  16.104  22.878   5.723
 4682POPC   GL261106  15.895  22.605   5.865
 4682POPC   C1A61107  16.022  22.964   6.197
 4682POPC   D2A61108  15.787  22.827   6.566
 4682POPC   C3A61109  15.891  22.863   7.003
 4682POPC   C4A61110  15.794  23.146   7.338
 4682POPC   C1B61111  16.014  22.440   6.300
 4682POPC   C2B61112  16.268  22.634   6.648
 4682POPC   C3B61113  16.317  22.603   7.094
 4682POPC   C4B61114  16.143  22.699   7.477
 4683POPC   NC361115   0.506  20.129   5.540
 4683POPC   PO461116   0.622  19.453   5.542
 4683POPC   GL161117   0.438  19.669   5.929
 4683POPC   GL261118   0.207  19.951   5.941
 4683POPC   C1A61119   0.462  19.817   6.384
 4683POPC   D2A61120   0.770  19.957   6.711
 4683POPC   C3A61121   0.664  19.881   7.137
 4683POPC   C4A61122   0.417  19.727   7.477
 4683POPC   C1B61123   0.293  20.293   6.197
 4683POPC   C2B61124   0.352  20.266   6.625
 4683POPC   C3B61125   0.375  20.310   7.027
 4683POPC   C4B61126   0.125  20.130   7.270
 4684POPC   NC361127  35.478  15.836   5.529
 4684POPC   PO461128  34.854  16.140   5.340
 4684POPC   GL161129  35.096  16.170   5.738
 4684POPC   GL261130  35.109  15.825   5.864
 4684POPC   C1A61131  35.243  16.334   6.179
 4684POPC   D2A61132  35.494  16.233   6.544
 4684POPC   C3A61133  35.284  16.252   6.952
 4684POPC   C4A61134  35.333  16.046   7.361
 4684POPC   C1B61135  35.289  15.835   6.274
 4684POPC   C2B61136  35.401  15.779   6.702
 4684POPC   C3B61137  35.240  15.664   7.053
 4684POPC   C4B61138  35.275  15.549   7.490
 4685POPC   NC361139  32.799   9.195   5.439
 4685POPC   PO461140  33.338   8.799   5.387
 4685POPC   GL161141  33.224   8.674   5.816
 4685POPC   GL261142  32.918   8.845   5.840
 4685POPC   C1A61143  33.214   8.757   6.276
 4685POPC   D2A61144  33.215   9.127   6.534
 4685POPC   C3A61145  33.405   9.220   6.921
 4685POPC   C4A61146  33.205   9.106   7.295
 4685POPC   C1B61147  32.867   9.124   6.156
 4685POPC   C2B61148  32.726   9.264   6.529
 4685POPC   C3B61149  32.835   9.166   6.922
 4685POPC   C4B61150  32.668   9.130   7.295
 4686POPC   NC361151  28.736  30.959   5.012
 4686POPC   PO461152  29.221  31.180   5.454
 4686POPC   GL161153  29.164  30.860   5.823
 4686POPC   GL261154  29.371  30.548   5.759
 4686POPC   C1A61155  29.165  30.648   6.261
 4686POPC   D2A61156  28.977  30.519   6.663
 4686POPC   C3A61157  29.003  30.766   7.043
 4686POPC   C4A61158  28.987  30.631   7.433
 4686POPC   C1B61159  29.578  30.356   6.128
 4686POPC   C2B61160  29.446  30.230   6.560
 4686POPC   C3B61161  29.387  30.412   6.990
 4686POPC   C4B61162  29.464  30.719   7.313
 4687POPC   NC361163  35.823  36.454   5.269
 4687POPC   PO461164  36.323  35.989   5.428
 4687POPC   GL161165  36.139  36.048   5.838
 4687POPC   GL261166  36.376  36.214   6.009
 4687POPC   C1A61167  35.978  35.854   6.247
 4687POPC   D2A61168  36.003  35.635   6.668
 4687POPC   C3A61169  35.818  35.841   7.044
 4687POPC   C4A61170  35.751  36.227   7.313
 4687POPC   C1B61171  36.111  36.341   6.338
 4687POPC   C2B61172  35.916  36.377   6.733
 4687POPC   C3B61173  36.171  36.382   7.100
 4687POPC   C4B61174  36.250  36.175   7.513
 4688POPC   NC361175   6.869   6.625   5.136
 4688POPC   PO461176   6.441   6.883   5.666
 4688POPC   GL161177   6.714   6.739   6.012
 4688POPC   GL261178   6.572   6.443   5.959
 4688POPC   C1A61179   6.725   6.427   6.437
 4688POPC   D2A61180   6.739   6.385   6.897
 4688POPC   C3A61181   6.714   6.779   7.158
 4688POPC   C4A61182   7.055   6.962   7.410
 4688POPC   C1B61183   6.304   6.689   6.284
 4688POPC   C2B61184   6.420   6.773   6.700
 4688POPC   C3B61185   6.267   6.585   7.066
 4688POPC   C4B61186   6.112   6.825   7.402
 4689POPC   NC361187   8.131  30.967   5.505
 4689POPC   PO461188   8.635  30.610   5.246
 4689POPC   GL161189   8.451  30.578   5.725
 4689POPC   GL261190   8.147  30.341   5.764
 4689POPC   C1A61191   8.235  30.713   6.175
 4689POPC   D2A61192   8.106  30.938   6.608
 4689POPC   C3A61193   8.090  30.767   7.035
 4689POPC   C4A61194   7.986  30.544   7.413
 4689POPC   C1B61195   8.054  30.234   6.205
 4689POPC   C2B61196   8.125  30.409   6.627
 4689POPC   C3B61197   8.118  30.235   7.039
 4689POPC   C4B61198   8.355  30.195   7.450
 4690POPC   NC361199  12.466  31.467   5.351
 4690POPC   PO461200  11.900  31.349   5.329
 4690POPC   GL161201  12.026  31.403   5.781
 4690POPC   GL261202  12.114  31.081   5.919
 4690POPC   C1A61203  11.907  31.467   6.254
 4690POPC   D2A61204  11.906  31.356   6.721
 4690POPC   C3A61205  11.946  31.696   7.051
 4690POPC   C4A61206  12.120  31.656   7.472
 4690POPC   C1B61207  12.332  31.172   6.334
 4690POPC   C2B61208  12.405  31.229   6.787
 4690POPC   C3B61209  12.188  31.223   7.177
 4690POPC   C4B61210  12.264  31.094   7.594
 4691POPC   NC361211  17.559   9.145   5.399
 4691POPC   PO461212  17.370   8.489   5.255
 4691POPC   GL161213  17.266   8.724   5.654
 4691POPC   GL261214  17.254   9.062   5.812
 4691POPC   C1A61215  17.316   8.642   6.126
 4691POPC   D2A61216  17.533   8.700   6.549
 4691POPC   C3A61217  17.322   8.812   6.913
 4691POPC   C4A61218  17.415   8.891   7.291
 4691POPC   C1B61219  17.399   9.131   6.250
 4691POPC   C2B61220  17.480   9.399   6.606
 4691POPC   C3B61221  17.540   9.322   7.003
 4691POPC   C4B61222  17.862   9.313   7.303
 4692POPC   NC361223   9.488  26.405   5.301
 4692POPC   PO461224  10.051  26.752   5.306
 4692POPC   GL161225   9.904  26.729   5.732
 4692POPC   GL261226   9.582  26.776   5.672
 4692POPC   C1A61227   9.924  26.947   6.138
 4692POPC   D2A61228  10.035  26.782   6.530
 4692POPC   C3A61229   9.687  26.752   6.778
 4692POPC   C4A61230   9.736  26.952   7.162
 4692POPC   C1B61231   9.474  26.694   6.104
 4692POPC   C2B61232   9.320  26.475   6.467
 4692POPC   C3B61233   9.291  26.349   6.886
 4692POPC   C4B61234   9.523  26.477   7.235
 4693POPC   NC361235   3.079  44.038   5.444
 4693POPC   PO461236   2.477  43.669   5.474
 4693POPC   GL161237   2.298  43.666   5.889
 4693POPC   GL261238   2.468  43.978   5.934
 4693POPC   C1A61239   2.326  43.739   6.356
 4693POPC   D2A61240   2.574  43.882   6.709
 4693POPC   C3A61241   2.436  43.787   7.131
 4693POPC   C4A61242   2.474  44.014   7.535
 4693POPC   C1B61243   2.797  43.698   6.143
 4693POPC   C2B61244   2.956  43.558   6.577
 4693POPC   C3B61245   3.003  43.772   6.994
 4693POPC   C4B61246   2.804  44.144   7.167
 4694POPC   NC361247  39.627  22.395   5.646
 4694POPC   PO461248  39.430  21.837   5.292
 4694POPC   GL161249  39.415  21.937   5.773
 4694POPC   GL261250  39.766  21.937   5.913
 4694POPC   C1A61251  39.330  22.209   6.182
 4694POPC   D2A61252  39.120  22.487   6.503
 4694POPC   C3A61253  39.239  22.521   6.939
 4694POPC   C4A61254  39.032  22.423   7.341
 4694POPC   C1B61255  39.682  21.882   6.364
 4694POPC   C2B61256  39.365  22.001   6.676
 4694POPC   C3B61257  39.378  22.065   7.123
 4694POPC   C4B61258  39.762  21.894   7.294
 4695POPC   NC361259  40.529  24.534   5.322
 4695POPC   PO461260  41.084  24.932   5.562
 4695POPC   GL161261  40.861  24.592   5.715
 4695POPC   GL261262  41.001  24.243   5.765
 4695POPC   C1A61263  40.562  24.554   6.045
 4695POPC   D2A61264  40.362  24.597   6.451
 4695POPC   C3A61265  40.556  24.443   6.815
 4695POPC   C4A61266  40.608  24.632   7.201
 4695POPC   C1B61267  41.100  24.403   6.152
 4695POPC   C2B61268  40.942  24.629   6.474
 4695POPC   C3B61269  41.016  24.675   6.886
 4695POPC   C4B61270  41.081  24.344   7.168
 4696POPC   NC361271  28.695  35.040   5.667
 4696POPC   PO461272  28.280  35.531   5.377
 4696POPC   GL161273  28.416  35.461   5.806
 4696POPC   GL261274  28.205  35.152   5.849
 4696POPC   C1A61275  28.366  35.462   6.281
 4696POPC   D2A61276  28.126  35.640   6.640
 4696POPC   C3A61277  28.108  35.410   7.025
 4696POPC   C4A61278  28.115  35.450   7.481
 4696POPC   C1B61279  28.397  34.953   6.214
 4696POPC   C2B61280  28.663  34.966   6.549
 4696POPC   C3B61281  28.618  35.193   6.906
 4696POPC   C4B61282  28.475  35.112   7.332
 4697POPC   NC361283   0.089  26.603   5.597
 4697POPC   PO461284   0.337  27.152   5.297
 4697POPC   GL161285   0.542  27.144   5.755
 4697POPC   GL261286   0.480  26.788   5.864
 4697POPC   C1A61287   0.464  27.136   6.246
 4697POPC   D2A61288   0.200  27.131   6.624
 4697POPC   C3A61289   0.462  27.116   6.965
 4697POPC   C4A61290   0.664  26.904   7.297
 4697POPC   C1B61291   0.694  26.662   6.220
 4697POPC   C2B61292   0.678  26.803   6.619
 4697POPC   C3B61293   0.508  26.594   6.944
 4697POPC   C4B61294   0.446  26.419   7.327
 4698POPC   NC361295  30.277   5.484   5.568
 4698POPC   PO461296  30.661   4.999   5.201
 4698POPC   GL161297  30.705   5.202   5.654
 4698POPC   GL261298  30.417   5.066   5.841
 4698POPC   C1A61299  30.762   5.276   6.150
 4698POPC   D2A61300  30.826   5.050   6.566
 4698POPC   C3A61301  30.812   5.183   7.006
 4698POPC   C4A61302  31.094   5.124   7.408
 4698POPC   C1B61303  30.330   5.011   6.295
 4698POPC   C2B61304  30.313   5.040   6.747
 4698POPC   C3B61305  30.332   4.993   7.169
 4698POPC   C4B61306  30.670   4.844   7.367
 4699POPC   NC361307  22.113  37.321   5.310
 4699POPC   PO461308  22.388  37.869   5.188
 4699POPC   GL161309  22.307  37.648   5.651
 4699POPC   GL261310  21.932  37.519   5.755
 4699POPC   C1A61311  22.262  37.654   6.131
 4699POPC   D2A61312  22.408  37.515   6.538
 4699POPC   C3A61313  22.190  37.671   6.870
 4699POPC   C4A61314  22.318  37.919   7.220
 4699POPC   C1B61315  21.694  37.419   6.172
 4699POPC   C2B61316  21.734  37.367   6.652
 4699POPC   C3B61317  21.808  37.399   7.114
 4699POPC   C4B61318  21.936  37.655   7.530
 4700POPC   NC361319  41.025  34.495   5.705
 4700POPC   PO461320  40.711  34.963   5.265
 4700POPC   GL161321  40.674  34.852   5.773
 4700POPC   GL261322  40.523  34.532   5.861
 4700POPC   C1A61323  40.921  34.867   6.211
 4700POPC   D2A61324  40.887  34.840   6.658
 4700POPC   C3A61325  40.987  34.485   6.910
 4700POPC   C4A61326  40.994  34.622   7.287
 4700POPC   C1B61327  40.554  34.513   6.235
 4700POPC   C2B61328  40.578  34.418   6.611
 4700POPC   C3B61329  40.494  34.646   6.958
 4700POPC   C4B61330  40.493  34.523   7.359
 4701POPC   NC361331  40.329   6.386   5.527
 4701POPC   PO461332  39.759   6.706   5.558
 4701POPC   GL161333  40.047   6.587   5.919
 4701POPC   GL261334  40.453   6.634   5.956
 4701POPC   C1A61335  39.976   6.579   6.377
 4701POPC   D2A61336  39.815   6.855   6.691
 4701POPC   C3A61337  39.765   6.810   7.117
 4701POPC   C4A61338  39.792   6.539   7.447
 4701POPC   C1B61339  40.345   6.253   6.199
 4701POPC   C2B61340  40.146   6.141   6.603
 4701POPC   C3B61341  40.124   6.453   6.940
 4701POPC   C4B61342  40.286   6.452   7.343
 4702POPC   NC361343  14.065  25.106   5.341
 4702POPC   PO461344  14.745  24.924   5.457
 4702POPC   GL161345  14.455  25.084   5.763
 4702POPC   GL261346  14.302  25.385   5.725
 4702POPC   C1A61347  14.545  25.156   6.195
 4702POPC   D2A61348  14.733  24.994   6.543
 4702POPC   C3A61349  14.705  25.220   6.870
 4702POPC   C4A61350  14.410  25.257   7.177
 4702POPC   C1B61351  14.144  25.473   6.154
 4702POPC   C2B61352  14.113  25.627   6.548
 4702POPC   C3B61353  14.005  25.477   6.942
 4702POPC   C4B61354  14.070  25.632   7.340
 4703POPC   NC361355  29.521  44.974   4.869
 4703POPC   PO461356  29.916  44.565   5.259
 4703POPC   GL161357  30.009  44.574   5.715
 4703POPC   GL261358  30.014  44.890   5.849
 4703POPC   C1A61359  29.810  44.534   6.139
 4703POPC   D2A61360  29.800  44.327   6.520
 4703POPC   C3A61361  29.947  44.504   6.872
 4703POPC   C4A61362  29.813  44.517   7.251
 4703POPC   C1B61363  29.714   0.028   6.154
 4703POPC   C2B61364  29.813  44.887   6.557
 4703POPC   C3B61365  29.701  44.961   6.970
 4703POPC   C4B61366  29.896   0.035   7.364
 4704POPC   NC361367   4.828  18.147   5.123
 4704POPC   PO461368   5.245  17.871   5.513
 4704POPC   GL161369   5.105  18.086   5.877
 4704POPC   GL261370   5.225  18.410   5.974
 4704POPC   C1A61371   5.040  18.054   6.310
 4704POPC   D2A61372   5.023  18.246   6.705
 4704POPC   C3A61373   5.370  18.280   6.974
 4704POPC   C4A61374   5.277  18.216   7.389
 4704POPC   C1B61375   4.955  18.576   6.293
 4704POPC   C2B61376   4.812  18.705   6.708
 4704POPC   C3B61377   4.960  18.576   7.122
 4704POPC   C4B61378   4.869  18.466   7.534
 4705POPC   NC361379   4.493  21.020   5.432
 4705POPC   PO461380   4.544  21.679   5.482
 4705POPC   GL161381   4.396  21.379   5.828
 4705POPC   GL261382   4.636  21.128   5.929
 4705POPC   C1A61383   4.424  21.381   6.313
 4705POPC   D2A61384   4.483  21.481   6.751
 4705POPC   C3A61385   4.179  21.425   7.098
 4705POPC   C4A61386   4.018  21.726   7.392
 4705POPC   C1B61387   4.586  20.902   6.330
 4705POPC   C2B61388   4.509  20.966   6.799
 4705POPC   C3B61389   4.644  21.237   7.163
 4705POPC   C4B61390   4.528  21.542   7.496
 4706POPC   NC361391  44.827  44.828   5.464
 4706POPC   PO461392   0.125  44.188   5.602
 4706POPC   GL161393  44.988  44.517   5.868
 4706POPC   GL261394  44.652  44.666   5.906
 4706POPC   C1A61395  44.903  44.431   6.298
 4706POPC   D2A61396  44.699  44.559   6.620
 4706POPC   C3A61397  44.837  44.781   6.955
 4706POPC   C4A61398  44.901  44.437   7.238
 4706POPC   C1B61399  44.487  44.882   6.277
 4706POPC   C2B61400  44.329  44.865   6.717
 4706POPC   C3B61401  44.368  44.853   7.172
 4706POPC   C4B61402  44.208  44.827   7.620
 4707POPC   NC361403   4.074   7.077   5.619
 4707POPC   PO461404   4.496   6.700   5.244
 4707POPC   GL161405   4.431   6.654   5.743
 4707POPC   GL261406   4.097   6.590   5.864
 4707POPC   C1A61407   4.368   6.852   6.217
 4707POPC   D2A61408   4.536   6.827   6.662
 4707POPC   C3A61409   4.333   6.943   7.065
 4707POPC   C4A61410   4.389   6.751   7.512
 4707POPC   C1B61411   4.037   6.453   6.320
 4707POPC   C2B61412   4.094   6.567   6.764
 4707POPC   C3B61413   4.080   6.500   7.202
 4707POPC   C4B61414   3.994   6.260   7.575
 4708POPC   NC361415  27.057  41.119   5.219
 4708POPC   PO461416  26.580  40.668   5.434
 4708POPC   GL161417  26.576  40.831   5.834
 4708POPC   GL261418  26.883  41.003   5.815
 4708POPC   C1A61419  26.456  40.805   6.267
 4708POPC   D2A61420  26.784  40.799   6.570
 4708POPC   C3A61421  26.660  40.781   6.974
 4708POPC   C4A61422  26.761  40.790   7.394
 4708POPC   C1B61423  27.106  40.970   6.207
 4708POPC   C2B61424  27.247  41.016   6.639
 4708POPC   C3B61425  27.166  40.881   7.041
 4708POPC   C4B61426  27.188  41.216   7.298
 4709POPC   NC361427  23.236  19.291   5.199
 4709POPC   PO461428  22.622  18.979   5.360
 4709POPC   GL161429  22.839  19.114   5.784
 4709POPC   GL261430  23.142  19.304   5.703
 4709POPC   C1A61431  22.863  18.992   6.253
 4709POPC   D2A61432  22.991  18.828   6.684
 4709POPC   C3A61433  22.824  19.078   7.051
 4709POPC   C4A61434  22.736  19.060   7.529
 4709POPC   C1B61435  23.228  19.380   6.137
 4709POPC   C2B61436  23.047  19.357   6.579
 4709POPC   C3B61437  23.174  19.453   6.995
 4709POPC   C4B61438  23.536  19.403   7.211
 4710POPC   NC361439  25.676  33.927   5.592
 4710POPC   PO461440  25.079  33.625   5.497
 4710POPC   GL161441  25.350  33.591   5.838
 4710POPC   GL261442  25.258  33.962   5.864
 4710POPC   C1A61443  25.305  33.649   6.296
 4710POPC   D2A61444  24.945  33.643   6.601
 4710POPC   C3A61445  25.049  33.524   7.030
 4710POPC   C4A61446  25.435  33.454   7.266
 4710POPC   C1B61447  25.487  34.124   6.187
 4710POPC   C2B61448  25.278  34.113   6.548
 4710POPC   C3B61449  25.099  34.022   6.918
 4710POPC   C4B61450  25.075  33.923   7.381
 4711POPC   NC361451  23.203  44.088   5.410
 4711POPC   PO461452  22.831  43.507   5.557
 4711POPC   GL161453  22.813  43.912   5.750
 4711POPC   GL261454  23.156  43.928   5.905
 4711POPC   C1A61455  22.748  44.147   6.136
 4711POPC   D2A61456  22.634  44.033   6.530
 4711POPC   C3A61457  22.893  43.971   6.893
 4711POPC   C4A61458  22.714  43.978   7.283
 4711POPC   C1B61459  22.895  43.664   6.213
 4711POPC   C2B61460  22.868  43.540   6.646
 4711POPC   C3B61461  23.000  43.496   7.093
 4711POPC   C4B61462  22.879  43.560   7.560
 4712POPC   NC361463  12.590  12.063   5.476
 4712POPC   PO461464  12.016  12.249   5.145
 4712POPC   GL161465  12.068  12.304   5.648
 4712POPC   GL261466  12.374  12.430   5.751
 4712POPC   C1A61467  11.968  12.094   6.097
 4712POPC   D2A61468  11.839  11.967   6.536
 4712POPC   C3A61469  12.100  11.990   6.900
 4712POPC   C4A61470  12.011  12.106   7.315
 4712POPC   C1B61471  12.409  12.349   6.182
 4712POPC   C2B61472  12.240  12.364   6.588
 4712POPC   C3B61473  12.419  12.359   7.010
 4712POPC   C4B61474  12.409  12.646   7.313
 4713POPC   NC361475  42.416  41.288   5.481
 4713POPC   PO461476  42.594  41.897   5.404
 4713POPC   GL161477  42.305  41.814   5.781
 4713POPC   GL261478  42.214  41.486   5.882
 4713POPC   C1A61479  42.181  41.887   6.234
 4713POPC   D2A61480  41.997  41.717   6.650
 4713POPC   C3A61481  42.285  41.540   6.970
 4713POPC   C4A61482  42.451  41.422   7.378
 4713POPC   C1B61483  42.576  41.530   6.145
 4713POPC   C2B61484  42.658  41.390   6.553
 4713POPC   C3B61485  42.811  41.458   6.953
 4713POPC   C4B61486  42.704  41.793   7.170
 4714POPC   NC361487   6.708  19.080   5.251
 4714POPC   PO461488   6.906  19.426   5.762
 4714POPC   GL161489   6.673  19.028   5.847
 4714POPC   GL261490   6.340  18.895   5.670
 4714POPC   C1A61491   6.716  18.921   6.288
 4714POPC   D2A61492   6.714  18.814   6.692
 4714POPC   C3A61493   6.917  19.069   6.959
 4714POPC   C4A61494   6.861  19.178   7.363
 4714POPC   C1B61495   6.218  18.810   6.118
 4714POPC   C2B61496   6.249  19.013   6.553
 4714POPC   C3B61497   6.390  19.127   6.967
 4714POPC   C4B61498   6.385  19.402   7.314
 4715POPC   NC361499  13.395   5.024   5.477
 4715POPC   PO461500  13.766   5.600   5.519
 4715POPC   GL161501  13.784   5.254   5.795
 4715POPC   GL261502  13.437   5.287   5.919
 4715POPC   C1A61503  13.799   5.112   6.233
 4715POPC   D2A61504  13.408   5.250   6.452
 4715POPC   C3A61505  13.417   5.364   6.871
 4715POPC   C4A61506  13.541   5.368   7.300
 4715POPC   C1B61507  13.346   4.874   6.121
 4715POPC   C2B61508  13.190   4.765   6.515
 4715POPC   C3B61509  13.395   4.851   6.879
 4715POPC   C4B61510  13.218   4.622   7.154
 4716POPC   NC361511  39.030  33.390   5.512
 4716POPC   PO461512  39.437  32.884   5.533
 4716POPC   GL161513  39.336  33.104   5.903
 4716POPC   GL261514  39.581  33.377   5.851
 4716POPC   C1A61515  39.048  33.218   6.271
 4716POPC   D2A61516  38.740  33.148   6.635
 4716POPC   C3A61517  38.963  32.818   6.867
 4716POPC   C4A61518  39.278  32.851   7.182
 4716POPC   C1B61519  39.497  33.532   6.280
 4716POPC   C2B61520  39.456  33.411   6.730
 4716POPC   C3B61521  39.324  33.355   7.167
 4716POPC   C4B61522  38.882  33.198   7.215
 4717POPC   NC361523  20.028   9.242   5.387
 4717POPC   PO461524  20.422   8.704   5.444
 4717POPC   GL161525  20.571   9.046   5.697
 4717POPC   GL261526  20.267   9.146   5.833
 4717POPC   C1A61527  20.678   8.982   6.149
 4717POPC   D2A61528  20.719   8.880   6.596
 4717POPC   C3A61529  20.974   9.091   6.913
 4717POPC   C4A61530  20.944   9.073   7.396
 4717POPC   C1B61531  20.145   8.967   6.236
 4717POPC   C2B61532  20.207   9.015   6.682
 4717POPC   C3B61533  20.470   9.207   7.015
 4717POPC   C4B61534  20.437   9.147   7.446
 4718POPC   NC361535  22.169  31.571   5.400
 4718POPC   PO461536  21.978  31.101   5.692
 4718POPC   GL161537  22.037  31.455   5.951
 4718POPC   GL261538  22.390  31.518   5.918
 4718POPC   C1A61539  22.027  31.440   6.413
 4718POPC   D2A61540  22.386  31.538   6.698
 4718POPC   C3A61541  22.401  31.205   6.968
 4718POPC   C4A61542  22.126  31.354   7.239
 4718POPC   C1B61543  22.331  31.809   6.271
 4718POPC   C2B61544  21.986  31.915   6.599
 4718POPC   C3B61545  22.098  31.842   7.024
 4718POPC   C4B61546  22.466  31.995   7.180
 4719POPC   NC361547  31.654  25.622   5.501
 4719POPC   PO461548  31.472  24.901   5.426
 4719POPC   GL161549  31.473  25.012   5.831
 4719POPC   GL261550  31.454  25.384   5.894
 4719POPC   C1A61551  31.270  25.042   6.204
 4719POPC   D2A61552  31.462  25.310   6.482
 4719POPC   C3A61553  31.366  25.187   6.885
 4719POPC   C4A61554  31.680  25.035   7.180
 4719POPC   C1B61555  31.240  25.683   6.195
 4719POPC   C2B61556  31.248  25.720   6.669
 4719POPC   C3B61557  31.470  25.646   7.054
 4719POPC   C4B61558  31.368  25.748   7.438
 4720POPC   NC361559  42.612  21.154   5.485
 4720POPC   PO461560  42.229  21.680   5.294
 4720POPC   GL161561  42.224  21.422   5.715
 4720POPC   GL261562  42.275  21.759   5.887
 4720POPC   C1A61563  42.298  21.350   6.181
 4720POPC   D2A61564  42.205  21.507   6.591
 4720POPC   C3A61565  42.388  21.306   6.950
 4720POPC   C4A61566  42.137  21.322   7.265
 4720POPC   C1B61567  42.574  21.787   6.290
 4720POPC   C2B61568  42.644  21.726   6.769
 4720POPC   C3B61569  42.469  21.751   7.208
 4720POPC   C4B61570  42.522  21.744   7.670
 4721POPC   NC361571  11.221   1.798   5.517
 4721POPC   PO461572  11.621   2.195   5.116
 4721POPC   GL161573  11.666   2.072   5.655
 4721POPC   GL261574  11.655   1.711   5.787
 4721POPC   C1A61575  11.449   1.987   6.150
 4721POPC   D2A61576  11.096   2.131   6.400
 4721POPC   C3A61577  11.136   2.067   6.854
 4721POPC   C4A61578  10.928   2.144   7.244
 4721POPC   C1B61579  11.626   1.520   6.227
 4721POPC   C2B61580  11.493   1.746   6.607
 4721POPC   C3B61581  11.495   1.614   7.040
 4721POPC   C4B61582  11.122   1.684   7.265
 4722POPC   NC361583  25.507  21.633   5.361
 4722POPC   PO461584  25.131  21.081   5.544
 4722POPC   GL161585  25.454  21.267   5.716
 4722POPC   GL261586  25.241  21.531   5.830
 4722POPC   C1A61587  25.603  21.351   6.135
 4722POPC   D2A61588  25.337  21.347   6.478
 4722POPC   C3A61589  25.503  21.239   6.815
 4722POPC   C4A61590  25.551  21.270   7.193
 4722POPC   C1B61591  24.968  21.574   6.219
 4722POPC   C2B61592  25.006  21.719   6.659
 4722POPC   C3B61593  25.128  21.507   7.055
 4722POPC   C4B61594  25.328  21.609   7.472
 4723POPC   NC361595  33.288  15.537   5.366
 4723POPC   PO461596  32.675  15.836   5.421
 4723POPC   GL161597  32.909  16.044   5.774
 4723POPC   GL261598  32.783  15.800   5.954
 4723POPC   C1A61599  33.163  16.202   6.141
 4723POPC   D2A61600  33.374  16.086   6.544
 4723POPC   C3A61601  33.163  16.049   6.946
 4723POPC   C4A61602  32.738  15.959   7.133
 4723POPC   C1B61603  32.942  15.803   6.350
 4723POPC   C2B61604  32.867  15.681   6.737
 4723POPC   C3B61605  33.055  15.562   7.146
 4723POPC   C4B61606  32.957  15.419   7.563
 4724POPC   NC361607  42.469   0.130   5.676
 4724POPC   PO461608  42.135   0.639   5.341
 4724POPC   GL161609  42.179   0.584   5.762
 4724POPC   GL261610  41.977   0.306   5.880
 4724POPC   C1A61611  42.284   0.743   6.182
 4724POPC   D2A61612  42.266   0.529   6.581
 4724POPC   C3A61613  42.438   0.765   6.950
 4724POPC   C4A61614  42.800   0.685   7.229
 4724POPC   C1B61615  41.998  44.945   6.201
 4724POPC   C2B61616  42.207  44.953   6.616
 4724POPC   C3B61617  42.360   0.204   6.973
 4724POPC   C4B61618  42.074   0.282   7.272
 4725POPC   NC361619  13.089  17.286   5.480
 4725POPC   PO461620  12.475  17.629   5.358
 4725POPC   GL161621  12.718  17.680   5.724
 4725POPC   GL261622  12.699  17.353   5.781
 4725POPC   C1A61623  12.913  17.718   6.162
 4725POPC   D2A61624  13.021  17.808   6.627
 4725POPC   C3A61625  12.978  17.498   6.975
 4725POPC   C4A61626  12.902  17.563   7.427
 4725POPC   C1B61627  12.682  17.242   6.142
 4725POPC   C2B61628  12.614  17.452   6.500
 4725POPC   C3B61629  12.530  17.300   6.860
 4725POPC   C4B61630  12.437  17.427   7.226
 4726POPC   NC361631  20.552  10.092   5.436
 4726POPC   PO461632  20.878  10.738   5.414
 4726POPC   GL161633  20.795  10.447   5.762
 4726POPC   GL261634  20.467  10.428   5.818
 4726POPC   C1A61635  20.856  10.354   6.213
 4726POPC   D2A61636  20.972  10.271   6.653
 4726POPC   C3A61637  20.957  10.662   6.928
 4726POPC   C4A61638  20.704  10.735   7.285
 4726POPC   C1B61639  20.468  10.717   6.188
 4726POPC   C2B61640  20.550  10.674   6.630
 4726POPC   C3B61641  20.304  10.702   6.992
 4726POPC   C4B61642  20.094  10.677   7.381
 4727POPC   NC361643  22.686  26.012   5.442
 4727POPC   PO461644  23.366  26.286   5.408
 4727POPC   GL161645  23.057  26.202   5.752
 4727POPC   GL261646  22.832  25.904   5.905
 4727POPC   C1A61647  23.176  26.162   6.163
 4727POPC   D2A61648  23.110  26.258   6.559
 4727POPC   C3A61649  23.187  26.063   6.969
 4727POPC   C4A61650  23.100  26.167   7.392
 4727POPC   C1B61651  22.837  25.726   6.308
 4727POPC   C2B61652  22.802  25.878   6.706
 4727POPC   C3B61653  22.685  26.022   7.124
 4727POPC   C4B61654  22.700  25.890   7.548
 4728POPC   NC361655  36.694  22.877   5.319
 4728POPC   PO461656  36.199  23.249   5.377
 4728POPC   GL161657  36.228  22.893   5.655
 4728POPC   GL261658  36.482  22.978   5.839
 4728POPC   C1A61659  36.087  22.745   6.090
 4728POPC   D2A61660  36.001  22.907   6.535
 4728POPC   C3A61661  36.103  22.681   6.949
 4728POPC   C4A61662  36.131  22.712   7.400
 4728POPC   C1B61663  36.356  23.156   6.224
 4728POPC   C2B61664  36.248  23.370   6.576
 4728POPC   C3B61665  36.339  23.125   6.918
 4728POPC   C4B61666  36.415  23.159   7.338
 4729POPC   NC361667  28.881  27.720   5.349
 4729POPC   PO461668  29.487  27.490   5.420
 4729POPC   GL161669  29.228  27.592   5.779
 4729POPC   GL261670  28.900  27.411   5.759
 4729POPC   C1A61671  29.300  27.500   6.224
 4729POPC   D2A61672  29.421  27.780   6.549
 4729POPC   C3A61673  29.150  27.762   6.894
 4729POPC   C4A61674  29.364  27.699   7.264
 4729POPC   C1B61675  28.843  27.275   6.187
 4729POPC   C2B61676  28.817  27.433   6.605
 4729POPC   C3B61677  28.891  27.334   7.044
 4729POPC   C4B61678  28.932  27.552   7.450
 4730POPC   NC361679  17.600   2.858   5.186
 4730POPC   PO461680  17.414   3.381   5.577
 4730POPC   GL161681  17.480   2.943   5.798
 4730POPC   GL261682  17.782   2.645   5.870
 4730POPC   C1A61683  17.624   2.976   6.217
 4730POPC   D2A61684  17.395   2.967   6.568
 4730POPC   C3A61685  17.592   3.039   6.938
 4730POPC   C4A61686  17.484   2.796   7.263
 4730POPC   C1B61687  17.689   2.485   6.291
 4730POPC   C2B61688  17.781   2.589   6.710
 4730POPC   C3B61689  17.698   2.378   7.089
 4730POPC   C4B61690  17.679   2.437   7.553
 4731POPC   NC361691  36.095  38.197   5.015
 4731POPC   PO461692  36.043  37.653   5.419
 4731POPC   GL161693  35.894  37.533   5.832
 4731POPC   GL261694  35.780  37.196   5.819
 4731POPC   C1A61695  36.080  37.640   6.244
 4731POPC   D2A61696  36.367  37.622   6.597
 4731POPC   C3A61697  36.237  37.702   7.017
 4731POPC   C4A61698  36.341  38.001   7.328
 4731POPC   C1B61699  35.807  37.197   6.246
 4731POPC   C2B61700  35.971  37.291   6.637
 4731POPC   C3B61701  35.794  37.417   6.999
 4731POPC   C4B61702  35.892  37.479   7.423
 4732POPC   NC361703   9.079   5.962   5.444
 4732POPC   PO461704   8.586   5.559   5.548
 4732POPC   GL161705   8.776   5.842   5.863
 4732POPC   GL261706   9.163   5.856   5.913
 4732POPC   C1A61707   8.839   6.071   6.240
 4732POPC   D2A61708   9.144   6.137   6.560
 4732POPC   C3A61709   8.957   6.141   6.948
 4732POPC   C4A61710   9.162   5.975   7.327
 4732POPC   C1B61711   9.117   5.648   6.280
 4732POPC   C2B61712   8.872   5.656   6.620
 4732POPC   C3B61713   8.904   5.650   7.028
 4732POPC   C4B61714   8.743   5.610   7.371
 4733POPC   NC361715  21.762   0.127   5.384
 4733POPC   PO461716  22.511   0.100   5.418
 4733POPC   GL161717  22.257   0.327   5.754
 4733POPC   GL261718  21.904   0.460   5.808
 4733POPC   C1A61719  22.105   0.195   6.199
 4733POPC   D2A61720  22.223   0.336   6.600
 4733POPC   C3A61721  22.065   0.211   7.018
 4733POPC   C4A61722  22.253   0.368   7.427
 4733POPC   C1B61723  22.225   0.692   6.118
 4733POPC   C2B61724  22.394   0.823   6.552
 4733POPC   C3B61725  22.337   0.670   6.984
 4733POPC   C4B61726  21.918   0.699   7.226
 4734POPC   NC361727  14.043  40.866   5.487
 4734POPC   PO461728  13.371  40.497   5.498
 4734POPC   GL161729  13.680  40.636   5.779
 4734POPC   GL261730  13.568  40.994   5.798
 4734POPC   C1A61731  13.830  40.783   6.182
 4734POPC   D2A61732  13.612  40.975   6.524
 4734POPC   C3A61733  13.823  40.901   6.890
 4734POPC   C4A61734  13.888  40.672   7.222
 4734POPC   C1B61735  13.321  40.789   6.141
 4734POPC   C2B61736  13.110  40.754   6.535
 4734POPC   C3B61737  13.249  40.947   6.913
 4734POPC   C4B61738  13.484  40.996   7.253
 4735POPC   NC361739  10.629  35.499   5.139
 4735POPC   PO461740  10.283  34.902   5.323
 4735POPC   GL161741  10.404  35.167   5.681
 4735POPC   GL261742  10.702  35.409   5.691
 4735POPC   C1A61743  10.569  35.133   6.106
 4735POPC   D2A61744  10.574  35.349   6.497
 4735POPC   C3A61745  10.398  35.453   6.880
 4735POPC   C4A61746  10.564  35.311   7.259
 4735POPC   C1B61747  10.839  35.580   6.123
 4735POPC   C2B61748  10.968  35.686   6.573
 4735POPC   C3B61749  10.869  35.657   7.034
 4735POPC   C4B61750  10.816  35.683   7.508
 4736POPC   NC361751   1.580  20.803   5.179
 4736POPC   PO461752   2.257  20.594   5.286
 4736POPC   GL161753   1.926  20.556   5.601
 4736POPC   GL261754   1.768  20.857   5.642
 4736POPC   C1A61755   1.895  20.466   6.069
 4736POPC   D2A61756   2.132  20.340   6.463
 4736POPC   C3A61757   1.922  20.547   6.821
 4736POPC   C4A61758   1.973  20.424   7.229
 4736POPC   C1B61759   1.570  20.878   6.041
 4736POPC   C2B61760   1.683  20.833   6.457
 4736POPC   C3B61761   1.608  20.976   6.873
 4736POPC   C4B61762   1.611  20.792   7.241
 4737POPC   NC361763  23.160  12.811   5.414
 4737POPC   PO461764  22.655  12.329   5.523
 4737POPC   GL161765  22.957  12.569   5.811
 4737POPC   GL261766  22.853  12.930   5.798
 4737POPC   C1A61767  23.108  12.779   6.200
 4737POPC   D2A61768  23.054  13.122   6.493
 4737POPC   C3A61769  23.034  13.027   6.921
 4737POPC   C4A61770  23.060  12.601   7.123
 4737POPC   C1B61771  22.644  13.002   6.196
 4737POPC   C2B61772  22.545  13.161   6.618
 4737POPC   C3B61773  22.489  13.199   7.056
 4737POPC   C4B61774  22.795  13.148   7.355
 4738POPC   NC361775   2.313  18.113   5.355
 4738POPC   PO461776   1.676  17.917   5.439
 4738POPC   GL161777   1.834  18.092   5.794
 4738POPC   GL261778   1.999  18.416   5.712
 4738POPC   C1A61779   1.766  18.332   6.168
 4738POPC   D2A61780   1.635  18.362   6.589
 4738POPC   C3A61781   1.965  18.244   6.880
 4738POPC   C4A61782   1.836  18.294   7.271
 4738POPC   C1B61783   2.266  18.210   6.050
 4738POPC   C2B61784   2.365  18.170   6.511
 4738POPC   C3B61785   2.516  18.448   6.853
 4738POPC   C4B61786   2.330  18.400   7.236
 4739POPC   NC361787  35.349  25.535   5.268
 4739POPC   PO461788  35.537  24.937   5.156
 4739POPC   GL161789  35.560  25.050   5.629
 4739POPC   GL261790  35.307  25.301   5.777
 4739POPC   C1A61791  35.533  24.983   6.103
 4739POPC   D2A61792  35.381  25.226   6.459
 4739POPC   C3A61793  35.629  25.121   6.796
 4739POPC   C4A61794  35.652  25.270   7.217
 4739POPC   C1B61795  35.431  25.611   6.126
 4739POPC   C2B61796  35.278  25.736   6.523
 4739POPC   C3B61797  35.309  25.511   6.896
 4739POPC   C4B61798  35.225  25.545   7.318
 4740POPC   NC361799  26.489   3.747   5.172
 4740POPC   PO461800  26.998   3.336   5.412
 4740POPC   GL161801  26.996   3.550   5.776
 4740POPC   GL261802  26.724   3.449   5.839
 4740POPC   C1A61803  27.045   3.705   6.184
 4740POPC   D2A61804  27.160   3.910   6.539
 4740POPC   C3A61805  26.974   3.810   6.887
 4740POPC   C4A61806  26.951   3.447   7.088
 4740POPC   C1B61807  26.570   3.547   6.258
 4740POPC   C2B61808  26.662   3.433   6.667
 4740POPC   C3B61809  26.529   3.166   7.037
 4740POPC   C4B61810  26.517   3.052   7.509
 4741POPC   NC361811  29.246  16.664   5.300
 4741POPC   PO461812  28.556  16.731   5.234
 4741POPC   GL161813  28.906  16.829   5.657
 4741POPC   GL261814  29.298  16.920   5.728
 4741POPC   C1A61815  29.060  16.741   6.137
 4741POPC   D2A61816  29.004  16.892   6.590
 4741POPC   C3A61817  29.068  16.693   7.014
 4741POPC   C4A61818  29.192  16.512   7.450
 4741POPC   C1B61819  29.326  17.196   6.075
 4741POPC   C2B61820  29.516  17.208   6.469
 4741POPC   C3B61821  29.359  17.159   6.862
 4741POPC   C4B61822  29.468  16.971   7.235
 4742POPC   NC361823  43.348  43.570   5.303
 4742POPC   PO461824  42.826  43.948   5.521
 4742POPC   GL161825  42.990  43.635   5.816
 4742POPC   GL261826  43.385  43.650   5.795
 4742POPC   C1A61827  42.929  43.649   6.286
 4742POPC   D2A61828  42.917  44.028   6.556
 4742POPC   C3A61829  42.774  43.945   6.970
 4742POPC   C4A61830  42.929  43.524   7.136
 4742POPC   C1B61831  43.328  43.922   6.116
 4742POPC   C2B61832  43.376  43.791   6.526
 4742POPC   C3B61833  43.265  43.842   6.920
 4742POPC   C4B61834  43.160  44.106   7.252
 4743POPC   NC361835  16.501  19.713   5.419
 4743POPC   PO461836  16.843  20.217   5.219
 4743POPC   GL161837  16.876  19.914   5.724
 4743POPC   GL261838  16.722  19.622   5.848
 4743POPC   C1A61839  16.747  20.010   6.176
 4743POPC   D2A61840  16.496  19.909   6.511
 4743POPC   C3A61841  16.702  19.940   6.913
 4743POPC   C4A61842  16.518  19.972   7.318
 4743POPC   C1B61843  16.873  19.438   6.203
 4743POPC   C2B61844  16.835  19.519   6.600
 4743POPC   C3B61845  16.926  19.459   6.978
 4743POPC   C4B61846  16.648  19.471   7.266
 4744POPC   NC361847  39.746   8.526   5.419
 4744POPC   PO461848  40.111   9.079   5.464
 4744POPC   GL161849  39.777   9.136   5.756
 4744POPC   GL261850  39.846   8.783   5.902
 4744POPC   C1A61851  39.803   9.226   6.210
 4744POPC   D2A61852  40.188   9.182   6.495
 4744POPC   C3A61853  40.161   9.124   6.946
 4744POPC   C4A61854  40.122   9.199   7.394
 4744POPC   C1B61855  40.210   8.562   6.148
 4744POPC   C2B61856  40.274   8.359   6.579
 4744POPC   C3B61857  40.275   8.500   7.033
 4744POPC   C4B61858  40.370   8.753   7.410
 4745POPC   NC361859  19.525  24.937   5.794
 4745POPC   PO461860  19.814  25.132   5.256
 4745POPC   GL161861  19.853  25.354   5.674
 4745POPC   GL261862  20.022  25.679   5.740
 4745POPC   C1A61863  19.752  25.459   6.127
 4745POPC   D2A61864  19.774  25.215   6.513
 4745POPC   C3A61865  19.674  25.446   6.878
 4745POPC   C4A61866  19.365  25.351   7.184
 4745POPC   C1B61867  20.158  25.779   6.127
 4745POPC   C2B61868  20.038  25.665   6.549
 4745POPC   C3B61869  20.095  25.719   6.993
 4745POPC   C4B61870  19.843  25.578   7.377
 4746POPC   NC361871  21.665  31.032   5.343
 4746POPC   PO461872  21.286  31.588   5.443
 4746POPC   GL161873  21.538  31.553   5.806
 4746POPC   GL261874  21.326  31.325   5.965
 4746POPC   C1A61875  21.587  31.671   6.257
 4746POPC   D2A61876  21.419  31.635   6.674
 4746POPC   C3A61877  21.700  31.490   6.985
 4746POPC   C4A61878  21.629  31.239   7.346
 4746POPC   C1B61879  21.364  31.174   6.392
 4746POPC   C2B61880  21.371  31.118   6.838
 4746POPC   C3B61881  21.182  31.425   7.119
 4746POPC   C4B61882  20.797  31.270   7.249
 4747POPC   NC361883  43.627  17.149   4.969
 4747POPC   PO461884  43.953  16.730   5.407
 4747POPC   GL161885  43.912  16.805   5.844
 4747POPC   GL261886  44.112  17.052   5.816
 4747POPC   C1A61887  43.837  17.055   6.236
 4747POPC   D2A61888  43.630  16.877   6.599
 4747POPC   C3A61889  43.746  16.867   7.034
 4747POPC   C4A61890  43.665  16.539   7.326
 4747POPC   C1B61891  44.300  16.799   6.158
 4747POPC   C2B61892  44.127  16.772   6.574
 4747POPC   C3B61893  44.222  16.652   6.970
 4747POPC   C4B61894  44.149  16.761   7.394
 4748POPC   NC361895  33.752  31.557   4.991
 4748POPC   PO461896  34.237  31.345   5.294
 4748POPC   GL161897  33.930  31.458   5.647
 4748POPC   GL261898  34.181  31.547   5.850
 4748POPC   C1A61899  33.727  31.612   6.081
 4748POPC   D2A61900  33.706  31.783   6.551
 4748POPC   C3A61901  33.811  31.589   6.980
 4748POPC   C4A61902  33.705  31.577   7.428
 4748POPC   C1B61903  34.157  31.327   6.216
 4748POPC   C2B61904  34.176  31.429   6.648
 4748POPC   C3B61905  34.140  31.187   7.030
 4748POPC   C4B61906  34.138  31.158   7.495
 4749POPC   NC361907  18.736   6.006   5.380
 4749POPC   PO461908  19.354   5.913   5.383
 4749POPC   GL161909  19.084   5.859   5.736
 4749POPC   GL261910  18.945   6.192   5.826
 4749POPC   C1A61911  19.083   5.829   6.200
 4749POPC   D2A61912  19.095   5.610   6.612
 4749POPC   C3A61913  19.200   5.752   7.041
 4749POPC   C4A61914  19.044   5.519   7.387
 4749POPC   C1B61915  18.791   6.236   6.276
 4749POPC   C2B61916  18.938   6.111   6.719
 4749POPC   C3B61917  18.746   6.297   7.121
 4749POPC   C4B61918  18.737   6.496   7.561
 4750POPC   NC361919  13.211  12.567   5.400
 4750POPC   PO461920  13.183  11.853   5.395
 4750POPC   GL161921  13.008  11.746   5.811
 4750POPC   GL261922  12.641  11.741   5.851
 4750POPC   C1A61923  12.953  11.920   6.258
 4750POPC   D2A61924  12.754  12.220   6.584
 4750POPC   C3A61925  12.999  12.270   6.979
 4750POPC   C4A61926  13.310  12.279   7.319
 4750POPC   C1B61927  12.441  11.824   6.235
 4750POPC   C2B61928  12.646  11.708   6.620
 4750POPC   C3B61929  12.632  11.893   7.007
 4750POPC   C4B61930  12.478  11.942   7.426
 4751POPC   NC361931  16.905  42.176   5.488
 4751POPC   PO461932  16.443  42.600   5.399
 4751POPC   GL161933  16.567  42.417   5.775
 4751POPC   GL261934  16.475  42.057   5.795
 4751POPC   C1A61935  16.940  42.465   6.088
 4751POPC   D2A61936  16.893  42.552   6.515
 4751POPC   C3A61937  17.018  42.345   6.870
 4751POPC   C4A61938  16.968  42.283   7.290
 4751POPC   C1B61939  16.531  42.202   6.233
 4751POPC   C2B61940  16.632  42.104   6.617
 4751POPC   C3B61941  16.420  42.265   6.938
 4751POPC   C4B61942  16.461  42.263   7.337
 4752POPC   NC361943   0.117  12.628   5.290
 4752POPC   PO461944   0.753  12.873   5.457
 4752POPC   GL161945   0.579  12.867   5.849
 4752POPC   GL261946   0.320  12.624   5.777
 4752POPC   C1A61947   0.564  12.632   6.248
 4752POPC   D2A61948   0.671  12.718   6.674
 4752POPC   C3A61949   0.442  12.865   7.032
 4752POPC   C4A61950   0.429  12.673   7.459
 4752POPC   C1B61951   0.140  12.899   6.115
 4752POPC   C2B61952   0.146  12.774   6.546
 4752POPC   C3B61953   0.089  12.478   6.850
 4752POPC   C4B61954   0.009  12.609   7.203
 4753POPC   NC361955  30.132  37.855   5.415
 4753POPC   PO461956  29.889  38.559   5.288
 4753POPC   GL161957  29.972  38.312   5.667
 4753POPC   GL261958  29.705  38.030   5.694
 4753POPC   C1A61959  30.012  38.598   6.034
 4753POPC   D2A61960  30.242  38.707   6.395
 4753POPC   C3A61961  30.007  38.752   6.790
 4753POPC   C4A61962  30.013  38.593   7.213
 4753POPC   C1B61963  29.731  38.197   6.117
 4753POPC   C2B61964  29.883  38.340   6.488
 4753POPC   C3B61965  29.982  38.207   6.867
 4753POPC   C4B61966  29.751  38.129   7.234
 4754POPC   NC361967  12.811  43.808   5.369
 4754POPC   PO461968  13.083  44.361   5.344
 4754POPC   GL161969  13.114  44.079   5.700
 4754POPC   GL261970  13.222  43.717   5.650
 4754POPC   C1A61971  12.836  44.032   6.062
 4754POPC   D2A61972  12.763  44.190   6.477
 4754POPC   C3A61973  12.805  43.900   6.807
 4754POPC   C4A61974  12.804  43.949   7.236
 4754POPC   C1B61975  13.291  43.753   6.108
 4754POPC   C2B61976  13.252  43.961   6.530
 4754POPC   C3B61977  13.298  43.749   6.948
 4754POPC   C4B61978  13.002  43.483   7.175
 4755POPC   NC361979   6.515   4.880   5.467
 4755POPC   PO461980   7.006   4.529   5.369
 4755POPC   GL161981   6.854   4.628   5.798
 4755POPC   GL261982   7.047   4.857   5.920
 4755POPC   C1A61983   6.768   4.442   6.239
 4755POPC   D2A61984   6.796   4.140   6.631
 4755POPC   C3A61985   6.697   4.320   7.063
 4755POPC   C4A61986   6.413   4.340   7.443
 4755POPC   C1B61987   7.231   4.668   6.242
 4755POPC   C2B61988   7.091   4.538   6.649
 4755POPC   C3B61989   7.123   4.621   7.090
 4755POPC   C4B61990   6.832   4.629   7.464
 4756POPC   NC361991  25.539  24.797   5.447
 4756POPC   PO461992  25.049  25.237   5.415
 4756POPC   GL161993  25.122  25.339   5.825
 4756POPC   GL261994  25.128  24.974   5.888
 4756POPC   C1A61995  25.028  25.317   6.264
 4756POPC   D2A61996  25.078  25.020   6.578
 4756POPC   C3A61997  25.295  25.299   6.842
 4756POPC   C4A61998  25.162  25.440   7.215
 4756POPC   C1B61999  25.461  25.043   6.221
 4756POPC   C2B62000  25.567  24.891   6.670
 4756POPC   C3B62001  25.326  24.865   7.085
 4756POPC   C4B62002  25.294  24.984   7.527
 4757POPC   NC362003  12.156   1.279   5.475
 4757POPC   PO462004  11.835   0.749   5.700
 4757POPC   GL162005  12.078   1.062   5.952
 4757POPC   GL262006  12.063   1.444   5.948
 4757POPC   C1A62007  11.955   1.105   6.390
 4757POPC   D2A62008  11.879   1.427   6.691
 4757POPC   C3A62009  11.995   1.356   7.110
 4757POPC   C4A62010  11.778   1.389   7.505
 4757POPC   C1B62011  12.348   1.424   6.304
 4757POPC   C2B62012  12.381   1.256   6.714
 4757POPC   C3B62013  12.384   1.636   6.948
 4757POPC   C4B62014  12.467   1.769   7.346
 4758POPC   NC362015  10.943  10.876   5.331
 4758POPC   PO462016  10.402  10.503   5.481
 4758POPC   GL162017  10.475  10.623   5.852
 4758POPC   GL262018  10.852  10.641   5.774
 4758POPC   C1A62019  10.266  10.516   6.223
 4758POPC   D2A62020  10.054  10.477   6.632
 4758POPC   C3A62021  10.428  10.478   6.861
 4758POPC   C4A62022  10.587  10.506   7.271
 4758POPC   C1B62023  10.870  10.632   6.206
 4758POPC   C2B62024  10.815  10.798   6.623
 4758POPC   C3B62025  10.988  10.647   6.970
 4758POPC   C4B62026  10.993  10.230   7.131
 4759POPC   NC362027  34.638   7.929   5.424
 4759POPC   PO462028  34.743   8.468   5.765
 4759POPC   GL162029  34.376   8.217   5.883
 4759POPC   GL262030  34.257   7.864   5.798
 4759POPC   C1A62031  34.361   8.298   6.311
 4759POPC   D2A62032  34.685   8.476   6.580
 4759POPC   C3A62033  34.667   8.369   7.007
 4759POPC   C4A62034  34.248   8.203   7.182
 4759POPC   C1B62035  34.493   7.805   6.211
 4759POPC   C2B62036  34.556   7.961   6.674
 4759POPC   C3B62037  34.667   7.878   7.130
 4759POPC   C4B62038  34.483   7.942   7.554
 4760POPC   NC362039  22.634   0.535   5.240
 4760POPC   PO462040  23.282   0.410   5.508
 4760POPC   GL162041  23.158   0.256   5.890
 4760POPC   GL262042  22.822   0.235   5.791
 4760POPC   C1A62043  23.109   0.331   6.368
 4760POPC   D2A62044  22.838   0.595   6.614
 4760POPC   C3A62045  22.886   0.593   7.033
 4760POPC   C4A62046  22.984   0.255   7.255
 4760POPC   C1B62047  22.611   0.291   6.177
 4760POPC   C2B62048  22.688   0.097   6.566
 4760POPC   C3B62049  22.566   0.178   6.972
 4760POPC   C4B62050  22.580  44.970   7.351
 4761POPC   NC362051  32.420  17.265   5.260
 4761POPC   PO462052  31.918  17.754   5.203
 4761POPC   GL162053  32.122  17.682   5.674
 4761POPC   GL262054  32.399  17.432   5.756
 4761POPC   C1A62055  32.313  17.807   6.141
 4761POPC   D2A62056  32.383  17.699   6.602
 4761POPC   C3A62057  32.072  17.871   6.905
 4761POPC   C4A62058  32.021  17.737   7.327
 4761POPC   C1B62059  32.209  17.319   6.163
 4761POPC   C2B62060  32.265  17.169   6.586
 4761POPC   C3B62061  32.190  17.346   6.971
 4761POPC   C4B62062  32.340  17.251   7.354
 4762POPC   NC362063  40.455   8.727   5.484
 4762POPC   PO462064  41.044   9.036   5.235
 4762POPC   GL162065  41.076   8.991   5.712
 4762POPC   GL262066  41.136   9.331   5.795
 4762POPC   C1A62067  40.919   8.799   6.139
 4762POPC   D2A62068  40.565   8.791   6.463
 4762POPC   C3A62069  40.647   8.864   6.901
 4762POPC   C4A62070  40.603   9.174   7.196
 4762POPC   C1B62071  41.060   9.297   6.198
 4762POPC   C2B62072  41.001   9.068   6.577
 4762POPC   C3B62073  41.078   9.189   7.001
 4762POPC   C4B62074  41.023   9.391   7.398
 4763POPC   NC362075  44.271   2.565   5.513
 4763POPC   PO462076  44.807   2.910   5.458
 4763POPC   GL162077  44.666   2.745   5.867
 4763POPC   GL262078  44.368   2.567   6.011
 4763POPC   C1A62079  44.775   2.852   6.282
 4763POPC   D2A62080  44.627   2.741   6.694
 4763POPC   C3A62081  44.793   2.898   7.078
 4763POPC   C4A62082   0.032   2.656   7.373
 4763POPC   C1B62083  44.263   2.869   6.333
 4763POPC   C2B62084  44.153   2.864   6.780
 4763POPC   C3B62085  44.336   2.584   7.132
 4763POPC   C4B62086  44.202   2.387   7.559
 4764POPC   NC362087  34.494  35.113   5.377
 4764POPC   PO462088  34.189  35.765   5.315
 4764POPC   GL162089  34.259  35.455   5.679
 4764POPC   GL262090  34.636  35.387   5.783
 4764POPC   C1A62091  34.271  35.370   6.132
 4764POPC   D2A62092  34.366  35.120   6.495
 4764POPC   C3A62093  34.518  35.356   6.838
 4764POPC   C4A62094  34.330  35.536   7.220
 4764POPC   C1B62095  34.878  35.311   6.158
 4764POPC   C2B62096  34.976  35.504   6.555
 4764POPC   C3B62097  35.018  35.319   6.950
 4764POPC   C4B62098  34.772  35.296   7.282
 4765POPC   NC362099  17.898   3.802   5.282
 4765POPC   PO462100  18.592   3.891   5.446
 4765POPC   GL162101  18.384   3.633   5.821
 4765POPC   GL262102  18.412   3.252   5.811
 4765POPC   C1A62103  18.113   3.483   6.184
 4765POPC   D2A62104  17.920   3.699   6.545
 4765POPC   C3A62105  17.931   3.518   6.944
 4765POPC   C4A62106  18.045   3.823   7.216
 4765POPC   C1B62107  18.586   3.334   6.242
 4765POPC   C2B62108  18.365   3.411   6.657
 4765POPC   C3B62109  18.478   3.557   7.089
 4765POPC   C4B62110  18.474   3.331   7.487
 4766POPC   NC362111  12.492  18.099   5.390
 4766POPC   PO462112  13.101  18.421   5.470
 4766POPC   GL162113  12.818  18.490   5.828
 4766POPC   GL262114  12.649  18.184   5.857
 4766POPC   C1A62115  12.772  18.403   6.300
 4766POPC   D2A62116  12.578  18.443   6.715
 4766POPC   C3A62117  12.832  18.313   7.087
 4766POPC   C4A62118  13.093  17.961   7.160
 4766POPC   C1B62119  12.424  17.917   6.102
 4766POPC   C2B62120  12.559  17.965   6.487
 4766POPC   C3B62121  12.555  17.826   6.879
 4766POPC   C4B62122  12.573  17.909   7.278
 4767POPC   NC362123  34.108  29.541   5.339
 4767POPC   PO462124  34.705  29.840   5.135
 4767POPC   GL162125  34.634  29.724   5.607
 4767POPC   GL262126  34.315  29.900   5.665
 4767POPC   C1A62127  34.775  29.850   6.077
 4767POPC   D2A62128  34.890  29.713   6.542
 4767POPC   C3A62129  34.742  29.862   6.992
 4767POPC   C4A62130  34.696  30.095   7.428
 4767POPC   C1B62131  34.270  29.739   6.094
 4767POPC   C2B62132  34.386  29.841   6.528
 4767POPC   C3B62133  34.235  29.756   6.950
 4767POPC   C4B62134  34.207  30.009   7.312
 4768POPC   NC362135  24.993  23.169   5.439
 4768POPC   PO462136  25.539  22.742   5.480
 4768POPC   GL162137  25.424  22.827   5.879
 4768POPC   GL262138  25.382  23.170   5.799
 4768POPC   C1A62139  25.509  22.831   6.322
 4768POPC   D2A62140  25.480  22.984   6.713
 4768POPC   C3A62141  25.491  22.787   7.081
 4768POPC   C4A62142  25.074  22.772   7.305
 4768POPC   C1B62143  25.243  23.270   6.208
 4768POPC   C2B62144  25.073  23.286   6.629
 4768POPC   C3B62145  25.128  23.196   7.078
 4768POPC   C4B62146  25.435  23.082   7.480
 4769POPC   NC362147  10.053  15.371   5.549
 4769POPC   PO462148   9.456  14.859   5.510
 4769POPC   GL162149   9.649  14.819   5.896
 4769POPC   GL262150   9.890  15.081   5.910
 4769POPC   C1A62151   9.595  15.019   6.315
 4769POPC   D2A62152   9.424  15.010   6.722
 4769POPC   C3A62153   9.546  15.214   7.088
 4769POPC   C4A62154   9.551  15.020   7.518
 4769POPC   C1B62155  10.063  15.279   6.272
 4769POPC   C2B62156   9.972  15.106   6.668
 4769POPC   C3B62157  10.188  14.884   6.962
 4769POPC   C4B62158   9.996  15.154   7.312
 4770POPC   NC362159  23.918   2.459   4.913
 4770POPC   PO462160  23.686   2.827   5.361
 4770POPC   GL162161  23.711   2.643   5.762
 4770POPC   GL262162  23.945   2.400   5.804
 4770POPC   C1A62163  23.777   2.707   6.211
 4770POPC   D2A62164  23.787   2.884   6.645
 4770POPC   C3A62165  23.567   2.676   6.986
 4770POPC   C4A62166  23.441   2.752   7.416
 4770POPC   C1B62167  24.190   2.389   6.206
 4770POPC   C2B62168  24.225   2.600   6.599
 4770POPC   C3B62169  24.089   2.666   7.001
 4770POPC   C4B62170  23.928   2.563   7.363
 4771POPC   NC362171  15.361   2.909   4.967
 4771POPC   PO462172  14.890   2.700   5.440
 4771POPC   GL162173  15.098   2.545   5.813
 4771POPC   GL262174  15.268   2.230   5.755
 4771POPC   C1A62175  15.076   2.674   6.246
 4771POPC   D2A62176  15.162   2.921   6.616
 4771POPC   C3A62177  14.880   2.830   6.919
 4771POPC   C4A62178  15.031   2.787   7.307
 4771POPC   C1B62179  15.469   2.368   6.126
 4771POPC   C2B62180  15.546   2.588   6.507
 4771POPC   C3B62181  15.332   2.515   6.897
 4771POPC   C4B62182  15.410   2.443   7.310
 4772POPC   NC362183  22.526  27.169   5.430
 4772POPC   PO462184  22.109  27.779   5.441
 4772POPC   GL162185  21.961  27.749   5.837
 4772POPC   GL262186  22.242  27.507   5.859
 4772POPC   C1A62187  22.009  27.726   6.268
 4772POPC   D2A62188  22.129  27.434   6.556
 4772POPC   C3A62189  22.026  27.712   6.895
 4772POPC   C4A62190  22.099  27.665   7.315
 4772POPC   C1B62191  22.469  27.252   6.138
 4772POPC   C2B62192  22.670  27.309   6.531
 4772POPC   C3B62193  22.485  27.447   6.929
 4772POPC   C4B62194  22.440  27.292   7.339
 4773POPC   NC362195  33.108  24.899   5.570
 4773POPC   PO462196  33.336  24.261   5.518
 4773POPC   GL162197  33.027  24.482   5.857
 4773POPC   GL262198  33.194  24.730   6.071
 4773POPC   C1A62199  32.719  24.629   6.218
 4773POPC   D2A62200  32.856  24.680   6.644
 4773POPC   C3A62201  32.790  24.300   6.818
 4773POPC   C4A62202  32.815  24.134   7.211
 4773POPC   C1B62203  33.147  24.350   6.368
 4773POPC   C2B62204  33.292  24.393   6.803
 4773POPC   C3B62205  33.119  24.553   7.196
 4773POPC   C4B62206  33.246  24.684   7.598
 4774POPC   NC362207  26.286  30.677   5.475
 4774POPC   PO462208  25.759  31.176   5.508
 4774POPC   GL162209  25.888  30.935   5.887
 4774POPC   GL262210  25.930  30.570   5.869
 4774POPC   C1A62211  25.724  30.820   6.311
 4774POPC   D2A62212  25.891  30.672   6.730
 4774POPC   C3A62213  25.807  30.899   7.141
 4774POPC   C4A62214  25.958  31.099   7.553
 4774POPC   C1B62215  26.104  30.454   6.279
 4774POPC   C2B62216  26.329  30.381   6.676
 4774POPC   C3B62217  26.173  30.386   7.088
 4774POPC   C4B62218  26.131  30.626   7.468
 4775POPC   NC362219  34.127  34.450   5.529
 4775POPC   PO462220  34.742  34.710   5.470
 4775POPC   GL162221  34.550  34.485   5.799
 4775POPC   GL262222  34.774  34.374   5.985
 4775POPC   C1A62223  34.330  34.444   6.217
 4775POPC   D2A62224  34.499  34.615   6.621
 4775POPC   C3A62225  34.274  34.470   7.008
 4775POPC   C4A62226  34.341  34.493   7.457
 4775POPC   C1B62227  34.649  34.840   6.158
 4775POPC   C2B62228  34.862  35.000   6.562
 4775POPC   C3B62229  34.786  34.865   6.975
 4775POPC   C4B62230  34.388  34.942   7.180
 4776POPC   NC362231  20.819  20.835   5.396
 4776POPC   PO462232  20.246  20.515   5.479
 4776POPC   GL162233  20.444  20.790   5.788
 4776POPC   GL262234  20.739  20.676   5.875
 4776POPC   C1A62235  20.468  20.975   6.202
 4776POPC   D2A62236  20.806  20.957   6.518
 4776POPC   C3A62237  20.623  20.861   6.954
 4776POPC   C4A62238  20.722  20.830   7.416
 4776POPC   C1B62239  20.459  20.376   6.117
 4776POPC   C2B62240  20.563  20.137   6.483
 4776POPC   C3B62241  20.692  20.293   6.881
 4776POPC   C4B62242  20.513  20.407   7.246
 4777POPC   NC362243  31.663  19.617   5.442
 4777POPC   PO462244  31.064  19.950   5.462
 4777POPC   GL162245  31.349  19.840   5.810
 4777POPC   GL262246  31.702  19.941   5.836
 4777POPC   C1A62247  31.327  19.752   6.258
 4777POPC   D2A62248  31.304  19.910   6.681
 4777POPC   C3A62249  31.375  19.715   7.060
 4777POPC   C4A62250  31.661  20.046   7.183
 4777POPC   C1B62251  31.809  19.594   6.122
 4777POPC   C2B62252  31.665  19.467   6.547
 4777POPC   C3B62253  31.892  19.479   6.944
 4777POPC   C4B62254  31.788  19.581   7.360
 4778POPC   NC362255  24.625  38.844   5.175
 4778POPC   PO462256  24.217  38.374   5.194
 4778POPC   GL162257  24.441  38.502   5.592
 4778POPC   GL262258  24.323  38.229   5.788
 4778POPC   C1A62259  24.393  38.626   6.070
 4778POPC   D2A62260  24.584  38.705   6.467
 4778POPC   C3A62261  24.483  38.597   6.896
 4778POPC   C4A62262  24.638  38.709   7.306
 4778POPC   C1B62263  24.473  38.114   6.178
 4778POPC   C2B62264  24.393  38.149   6.614
 4778POPC   C3B62265  24.668  38.072   6.954
 4778POPC   C4B62266  24.523  38.206   7.323
 4779POPC   NC362267   5.450  17.870   5.088
 4779POPC   PO462268   5.728  17.319   5.277
 4779POPC   GL162269   5.769  17.596   5.644
 4779POPC   GL262270   5.954  17.323   5.763
 4779POPC   C1A62271   6.004  17.729   6.060
 4779POPC   D2A62272   5.862  17.667   6.505
 4779POPC   C3A62273   5.906  17.807   6.959
 4779POPC   C4A62274   5.538  17.805   7.202
 4779POPC   C1B62275   6.053  17.200   6.178
 4779POPC   C2B62276   6.011  17.182   6.618
 4779POPC   C3B62277   5.771  17.313   6.961
 4779POPC   C4B62278   5.885  17.450   7.352
 4780POPC   NC362279  13.188  19.734   5.411
 4780POPC   PO462280  12.639  19.980   5.498
 4780POPC   GL162281  12.739  19.761   5.802
 4780POPC   GL262282  13.033  19.929   5.871
 4780POPC   C1A62283  12.624  19.702   6.191
 4780POPC   D2A62284  12.848  19.789   6.583
 4780POPC   C3A62285  12.563  19.946   6.901
 4780POPC   C4A62286  12.515  20.086   7.308
 4780POPC   C1B62287  13.240  19.921   6.254
 4780POPC   C2B62288  13.213  20.134   6.648
 4780POPC   C3B62289  13.067  20.020   7.031
 4780POPC   C4B62290  13.170  19.908   7.426
 4781POPC   NC362291  37.698   3.465   5.523
 4781POPC   PO462292  37.600   2.850   5.274
 4781POPC   GL162293  37.875   2.847   5.672
 4781POPC   GL262294  37.589   2.769   5.864
 4781POPC   C1A62295  37.999   2.804   6.147
 4781POPC   D2A62296  37.926   3.052   6.543
 4781POPC   C3A62297  37.957   2.923   6.990
 4781POPC   C4A62298  37.631   3.039   7.275
 4781POPC   C1B62299  37.512   2.791   6.337
 4781POPC   C2B62300  37.506   2.736   6.808
 4781POPC   C3B62301  37.341   2.630   7.231
 4781POPC   C4B62302  37.425   2.769   7.670
 4782POPC   NC362303   7.704   0.512   5.005
 4782POPC   PO462304   7.217   0.559   5.461
 4782POPC   GL162305   7.451   0.325   5.806
 4782POPC   GL262306   7.800   0.193   5.842
 4782POPC   C1A62307   7.587   0.429   6.221
 4782POPC   D2A62308   7.485   0.216   6.557
 4782POPC   C3A62309   7.437   0.407   6.933
 4782POPC   C4A62310   7.344   0.210   7.319
 4782POPC   C1B62311   7.962   0.044   6.286
 4782POPC   C2B62312   7.900   0.013   6.757
 4782POPC   C3B62313   7.832   0.217   7.186
 4782POPC   C4B62314   7.669   0.003   7.660
 4783POPC   NC362315  15.457   7.244   5.306
 4783POPC   PO462316  15.045   7.828   5.256
 4783POPC   GL162317  15.069   7.653   5.683
 4783POPC   GL262318  14.797   7.715   5.911
 4783POPC   C1A62319  15.274   7.492   6.092
 4783POPC   D2A62320  15.190   7.178   6.452
 4783POPC   C3A62321  15.009   7.301   6.867
 4783POPC   C4A62322  15.233   7.150   7.253
 4783POPC   C1B62323  15.026   7.894   6.279
 4783POPC   C2B62324  15.180   7.763   6.655
 4783POPC   C3B62325  15.111   7.843   7.086
 4783POPC   C4B62326  14.948   7.553   7.358
 4784POPC   NC362327  12.000  42.590   5.526
 4784POPC   PO462328  12.643  42.569   5.472
 4784POPC   GL162329  12.410  42.327   5.779
 4784POPC   GL262330  12.094  42.139   5.763
 4784POPC   C1A62331  12.211  42.445   6.177
 4784POPC   D2A62332  12.336  42.493   6.599
 4784POPC   C3A62333  12.053  42.357   6.914
 4784POPC   C4A62334  11.851  42.589   7.239
 4784POPC   C1B62335  12.078  41.954   6.147
 4784POPC   C2B62336  12.317  41.990   6.520
 4784POPC   C3B62337  12.290  41.894   6.943
 4784POPC   C4B62338  12.255  42.117   7.343
 4785POPC   NC362339  32.468  33.504   5.386
 4785POPC   PO462340  32.216  34.159   5.483
 4785POPC   GL162341  32.356  33.925   5.853
 4785POPC   GL262342  32.215  33.592   5.870
 4785POPC   C1A62343  32.633  33.772   6.198
 4785POPC   D2A62344  32.560  33.693   6.649
 4785POPC   C3A62345  32.232  33.968   6.835
 4785POPC   C4A62346  32.200  34.211   7.220
 4785POPC   C1B62347  32.137  33.653   6.345
 4785POPC   C2B62348  32.066  33.484   6.791
 4785POPC   C3B62349  32.018  33.695   7.221
 4785POPC   C4B62350  31.975  33.500   7.685
 4786POPC   NC362351  40.252  18.593   5.473
 4786POPC   PO462352  39.843  19.039   5.503
 4786POPC   GL162353  40.124  19.054   5.761
 4786POPC   GL262354  40.325  19.305   5.607
 4786POPC   C1A62355  39.982  19.071   6.163
 4786POPC   D2A62356  39.776  19.199   6.514
 4786POPC   C3A62357  40.005  19.118   6.860
 4786POPC   C4A62358  39.860  19.178   7.277
 4786POPC   C1B62359  40.435  19.329   6.063
 4786POPC   C2B62360  40.367  19.163   6.480
 4786POPC   C3B62361  40.511  19.207   6.870
 4786POPC   C4B62362  40.340  19.006   7.237
 4787POPC   NC362363  43.639  42.029   4.954
 4787POPC   PO462364  44.028  42.278   5.480
 4787POPC   GL162365  43.874  42.215   5.864
 4787POPC   GL262366  44.073  41.909   5.909
 4787POPC   C1A62367  43.680  42.412   6.258
 4787POPC   D2A62368  43.814  42.337   6.699
 4787POPC   C3A62369  43.773  42.543   7.087
 4787POPC   C4A62370  44.084  42.715   7.332
 4787POPC   C1B62371  44.102  42.098   6.294
 4787POPC   C2B62372  44.304  42.300   6.573
 4787POPC   C3B62373  44.192  42.030   6.897
 4787POPC   C4B62374  44.086  42.160   7.258
 4788POPC   NC362375  33.363  37.635   5.529
 4788POPC   PO462376  32.696  37.436   5.475
 4788POPC   GL162377  32.927  37.643   5.826
 4788POPC   GL262378  33.238  37.479   5.996
 4788POPC   C1A62379  32.974  37.875   6.228
 4788POPC   D2A62380  32.898  38.049   6.667
 4788POPC   C3A62381  32.866  37.761   7.033
 4788POPC   C4A62382  32.937  37.565   7.439
 4788POPC   C1B62383  33.536  37.650   6.232
 4788POPC   C2B62384  33.380  37.911   6.530
 4788POPC   C3B62385  33.357  37.949   6.905
 4788POPC   C4B62386  33.405  37.740   7.236
 4789POPC   NC362387  41.817   2.963   5.403
 4789POPC   PO462388  41.287   2.642   5.382
 4789POPC   GL162389  41.413   2.849   5.752
 4789POPC   GL262390  41.720   3.014   5.892
 4789POPC   C1A62391  41.250   3.010   6.126
 4789POPC   D2A62392  41.088   2.923   6.531
 4789POPC   C3A62393  41.460   2.908   6.817
 4789POPC   C4A62394  41.426   2.794   7.262
 4789POPC   C1B62395  41.722   2.665   6.164
 4789POPC   C2B62396  41.862   2.656   6.591
 4789POPC   C3B62397  41.874   2.733   7.065
 4789POPC   C4B62398  41.853   2.851   7.533
 4790POPC   NC362399   3.271  28.496   5.505
 4790POPC   PO462400   3.593  28.013   5.453
 4790POPC   GL162401   3.526  28.251   5.870
 4790POPC   GL262402   3.597  28.615   5.896
 4790POPC   C1A62403   3.311  28.319   6.264
 4790POPC   D2A62404   3.092  28.201   6.671
 4790POPC   C3A62405   3.289  28.284   7.095
 4790POPC   C4A62406   3.481  28.188   7.512
 4790POPC   C1B62407   3.795  28.421   6.292
 4790POPC   C2B62408   3.611  28.359   6.707
 4790POPC   C3B62409   3.802  28.381   7.102
 4790POPC   C4B62410   4.249  28.509   7.155
 4791POPC   NC362411  23.508  11.136   5.445
 4791POPC   PO462412  23.959  11.550   5.523
 4791POPC   GL162413  23.877  11.165   5.816
 4791POPC   GL262414  23.524  11.094   5.947
 4791POPC   C1A62415  23.908  11.109   6.274
 4791POPC   D2A62416  23.583  11.185   6.584
 4791POPC   C3A62417  23.632  11.050   7.029
 4791POPC   C4A62418  23.744  11.181   7.476
 4791POPC   C1B62419  23.597  11.518   6.119
 4791POPC   C2B62420  23.581  11.698   6.531
 4791POPC   C3B62421  23.463  11.535   6.932
 4791POPC   C4B62422  23.389  11.540   7.371
 4792POPC   NC362423  10.921   4.939   5.356
 4792POPC   PO462424  11.564   5.266   5.323
 4792POPC   GL162425  11.279   5.193   5.679
 4792POPC   GL262426  11.144   4.862   5.806
 4792POPC   C1A62427  11.255   5.249   6.140
 4792POPC   D2A62428  11.121   5.348   6.572
 4792POPC   C3A62429  11.457   5.257   6.852
 4792POPC   C4A62430  11.574   5.111   7.274
 4792POPC   C1B62431  10.961   4.781   6.205
 4792POPC   C2B62432  11.203   4.833   6.591
 4792POPC   C3B62433  11.166   4.834   7.030
 4792POPC   C4B62434  10.786   4.682   7.227
 4793POPC   NC362435  19.876  12.397   5.606
 4793POPC   PO462436  19.843  11.843   5.368
 4793POPC   GL162437  19.825  11.932   5.857
 4793POPC   GL262438  19.543  12.178   5.946
 4793POPC   C1A62439  19.674  11.818   6.323
 4793POPC   D2A62440  19.892  11.725   6.736
 4793POPC   C3A62441  20.015  12.061   7.008
 4793POPC   C4A62442  19.863  12.180   7.430
 4793POPC   C1B62443  19.350  12.204   6.380
 4793POPC   C2B62444  19.531  12.100   6.795
 4793POPC   C3B62445  19.482  11.906   7.212
 4793POPC   C4B62446  19.457  11.974   7.697
 4794POPC   NC362447  19.298  37.764   5.519
 4794POPC   PO462448  18.629  37.580   5.629
 4794POPC   GL162449  18.919  37.692   5.879
 4794POPC   GL262450  19.099  37.410   5.862
 4794POPC   C1A62451  19.018  37.675   6.314
 4794POPC   D2A62452  19.206  37.512   6.698
 4794POPC   C3A62453  19.209  37.809   7.047
 4794POPC   C4A62454  18.940  38.131   7.266
 4794POPC   C1B62455  19.343  37.227   6.198
 4794POPC   C2B62456  19.666  37.301   6.538
 4794POPC   C3B62457  19.578  37.269   6.988
 4794POPC   C4B62458  19.230  37.321   7.231
 4795POPC   NC362459  25.129  11.518   5.515
 4795POPC   PO462460  25.470  10.856   5.478
 4795POPC   GL162461  25.389  11.146   5.803
 4795POPC   GL262462  25.058  11.177   5.934
 4795POPC   C1A62463  25.479  11.357   6.204
 4795POPC   D2A62464  25.529  11.251   6.640
 4795POPC   C3A62465  25.289  11.431   6.990
 4795POPC   C4A62466  24.924  11.160   7.168
 4795POPC   C1B62467  25.035  11.612   6.157
 4795POPC   C2B62468  24.972  11.602   6.606
 4795POPC   C3B62469  24.810  11.654   7.044
 4795POPC   C4B62470  24.599  11.460   7.429
 4796POPC   NC362471  40.605  21.159   5.453
 4796POPC   PO462472  41.281  21.374   5.481
 4796POPC   GL162473  40.991  21.409   5.832
 4796POPC   GL262474  40.695  21.626   5.812
 4796POPC   C1A62475  41.040  21.426   6.278
 4796POPC   D2A62476  40.782  21.456   6.632
 4796POPC   C3A62477  40.984  21.532   6.966
 4796POPC   C4A62478  40.889  21.496   7.342
 4796POPC   C1B62479  40.522  21.402   6.193
 4796POPC   C2B62480  40.283  21.322   6.603
 4796POPC   C3B62481  40.437  21.468   7.026
 4796POPC   C4B62482  40.454  21.291   7.458
 4797POPC   NC362483  19.348  42.246   5.156
 4797POPC   PO462484  18.897  42.614   5.471
 4797POPC   GL162485  19.012  42.366   5.833
 4797POPC   GL262486  19.247  42.076   5.780
 4797POPC   C1A62487  18.770  42.239   6.197
 4797POPC   D2A62488  18.726  42.447   6.591
 4797POPC   C3A62489  18.688  42.221   6.932
 4797POPC   C4A62490  18.938  42.328   7.238
 4797POPC   C1B62491  19.279  42.154   6.252
 4797POPC   C2B62492  19.139  42.104   6.699
 4797POPC   C3B62493  19.124  41.871   7.115
 4797POPC   C4B62494  19.334  41.961   7.523
 4798POPC   NC362495  11.771  10.552   5.284
 4798POPC   PO462496  11.136  10.440   5.346
 4798POPC   GL162497  11.388  10.667   5.617
 4798POPC   GL262498  11.615  10.393   5.743
 4798POPC   C1A62499  11.366  10.793   6.018
 4798POPC   D2A62500  11.301  10.810   6.459
 4798POPC   C3A62501  11.568  10.847   6.813
 4798POPC   C4A62502  11.369  10.869   7.223
 4798POPC   C1B62503  11.458  10.320   6.162
 4798POPC   C2B62504  11.589  10.384   6.567
 4798POPC   C3B62505  11.447  10.365   6.943
 4798POPC   C4B62506  11.674  10.455   7.252
 4799POPC   NC362507  28.895  36.568   5.440
 4799POPC   PO462508  29.430  37.007   5.505
 4799POPC   GL162509  29.210  37.054   5.868
 4799POPC   GL262510  29.044  36.787   5.874
 4799POPC   C1A62511  29.318  36.861   6.292
 4799POPC   D2A62512  29.161  36.672   6.666
 4799POPC   C3A62513  29.206  36.973   7.009
 4799POPC   C4A62514  29.044  36.958   7.431
 4799POPC   C1B62515  28.796  36.772   6.265
 4799POPC   C2B62516  28.605  36.706   6.666
 4799POPC   C3B62517  28.797  36.671   7.052
 4799POPC   C4B62518  28.854  36.475   7.412
 4800POPC   NC362519   8.951  23.842   5.466
 4800POPC   PO462520   8.338  24.177   5.473
 4800POPC   GL162521   8.668  24.097   5.861
 4800POPC   GL262522   9.034  24.035   5.920
 4800POPC   C1A62523   8.787  23.793   6.252
 4800POPC   D2A62524   8.981  23.855   6.628
 4800POPC   C3A62525   8.915  23.582   6.966
 4800POPC   C4A62526   8.960  23.276   7.240
 4800POPC   C1B62527   9.283  23.702   6.103
 4800POPC   C2B62528   9.438  23.654   6.524
 4800POPC   C3B62529   9.392  23.429   6.905
 4800POPC   C4B62530   9.323  23.709   7.252
 4801POPC   NC362531  23.955  25.179   5.121
 4801POPC   PO462532  23.636  25.460   5.606
 4801POPC   GL162533  23.595  25.511   6.012
 4801POPC   GL262534  23.257  25.636   6.010
 4801POPC   C1A62535  23.542  25.205   6.337
 4801POPC   D2A62536  23.289  24.928   6.603
 4801POPC   C3A62537  23.465  24.995   6.983
 4801POPC   C4A62538  23.869  25.085   7.092
 4801POPC   C1B62539  23.354  25.758   6.389
 4801POPC   C2B62540  23.730  25.663   6.512
 4801POPC   C3B62541  23.776  25.518   6.874
 4801POPC   C4B62542  23.493  25.475   7.170
 4802POPC   NC362543  28.562  40.940   5.406
 4802POPC   PO462544  27.947  40.745   5.587
 4802POPC   GL162545  28.190  41.072   5.832
 4802POPC   GL262546  28.548  41.208   5.834
 4802POPC   C1A62547  28.114  41.110   6.260
 4802POPC   D2A62548  28.273  40.790   6.514
 4802POPC   C3A62549  28.126  40.804   6.901
 4802POPC   C4A62550  28.086  40.532   7.198
 4802POPC   C1B62551  28.582  41.304   6.276
 4802POPC   C2B62552  28.520  41.190   6.734
 4802POPC   C3B62553  28.569  40.990   7.149
 4802POPC   C4B62554  28.575  40.583   7.287
 4803POPC   NC362555   6.834  42.850   5.302
 4803POPC   PO462556   6.359  43.300   5.508
 4803POPC   GL162557   6.495  43.144   5.856
 4803POPC   GL262558   6.830  43.103   5.767
 4803POPC   C1A62559   6.387  43.068   6.245
 4803POPC   D2A62560   6.599  43.063   6.604
 4803POPC   C3A62561   6.345  42.999   6.956
 4803POPC   C4A62562   6.512  42.946   7.371
 4803POPC   C1B62563   6.878  42.855   6.163
 4803POPC   C2B62564   6.875  42.636   6.579
 4803POPC   C3B62565   6.875  42.800   6.997
 4803POPC   C4B62566   7.151  42.899   7.333
 4804POPC   NC362567   1.615  10.188   5.207
 4804POPC   PO462568   1.168   9.964   5.638
 4804POPC   GL162569   1.226   9.647   5.914
 4804POPC   GL262570   0.997   9.372   5.826
 4804POPC   C1A62571   1.344   9.739   6.340
 4804POPC   D2A62572   1.018   9.917   6.558
 4804POPC   C3A62573   1.122  10.037   6.956
 4804POPC   C4A62574   1.517  10.015   7.175
 4804POPC   C1B62575   1.054   9.334   6.280
 4804POPC   C2B62576   1.077   9.410   6.691
 4804POPC   C3B62577   1.041   9.458   7.099
 4804POPC   C4B62578   0.929   9.321   7.483
 4805POPC   NC362579  10.913  25.878   5.561
 4805POPC   PO462580  10.273  26.148   5.417
 4805POPC   GL162581  10.482  26.044   5.816
 4805POPC   GL262582  10.427  25.677   5.812
 4805POPC   C1A62583  10.697  25.915   6.230
 4805POPC   D2A62584  10.778  26.095   6.663
 4805POPC   C3A62585  10.788  25.969   7.107
 4805POPC   C4A62586  10.525  26.092   7.442
 4805POPC   C1B62587  10.201  25.790   6.176
 4805POPC   C2B62588  10.271  25.974   6.557
 4805POPC   C3B62589  10.292  26.068   6.980
 4805POPC   C4B62590   9.986  26.083   7.298
 4806POPC   NC362591  42.203   9.068   5.168
 4806POPC   PO462592  42.439   8.633   5.569
 4806POPC   GL162593  42.420   8.914   5.849
 4806POPC   GL262594  42.169   9.117   5.720
 4806POPC   C1A62595  42.405   8.848   6.265
 4806POPC   D2A62596  42.673   9.002   6.528
 4806POPC   C3A62597  42.519   9.032   6.923
 4806POPC   C4A62598  42.635   9.311   7.254
 4806POPC   C1B62599  41.944   8.829   6.049
 4806POPC   C2B62600  41.849   8.841   6.504
 4806POPC   C3B62601  41.943   9.094   6.863
 4806POPC   C4B62602  42.130   9.146   7.251
 4807POPC   NC362603  33.628  16.279   5.173
 4807POPC   PO462604  33.522  16.869   5.504
 4807POPC   GL162605  33.736  16.900   5.865
 4807POPC   GL262606  33.986  17.152   5.904
 4807POPC   C1A62607  33.625  16.721   6.265
 4807POPC   D2A62608  33.669  16.499   6.625
 4807POPC   C3A62609  33.591  16.682   6.984
 4807POPC   C4A62610  33.501  16.585   7.395
 4807POPC   C1B62611  34.142  16.716   6.073
 4807POPC   C2B62612  34.141  16.606   6.488
 4807POPC   C3B62613  34.080  16.523   6.923
 4807POPC   C4B62614  33.999  16.756   7.316
 4808POPC   NC362615  29.379  29.462   5.432
 4808POPC   PO462616  28.964  28.944   5.428
 4808POPC   GL162617  29.092  29.176   5.816
 4808POPC   GL262618  28.899  28.904   5.950
 4808POPC   C1A62619  29.077  29.205   6.305
 4808POPC   D2A62620  29.214  29.126   6.733
 4808POPC   C3A62621  29.034  29.254   7.113
 4808POPC   C4A62622  28.952  29.653   7.203
 4808POPC   C1B62623  29.339  28.808   6.071
 4808POPC   C2B62624  29.587  28.974   6.395
 4808POPC   C3B62625  29.737  29.163   6.768
 4808POPC   C4B62626  29.523  29.111   7.142
 4809POPC   NC362627  36.324  10.400   5.411
 4809POPC   PO462628  35.658  10.415   5.315
 4809POPC   GL162629  35.926  10.294   5.741
 4809POPC   GL262630  36.117  10.560   5.866
 4809POPC   C1A62631  36.126  10.186   6.194
 4809POPC   D2A62632  35.989  10.254   6.634
 4809POPC   C3A62633  36.178  10.350   7.026
 4809POPC   C4A62634  36.226  10.145   7.439
 4809POPC   C1B62635  35.875  10.656   6.244
 4809POPC   C2B62636  36.037  10.758   6.654
 4809POPC   C3B62637  35.935  10.789   7.077
 4809POPC   C4B62638  36.120  10.797   7.507
 4810POPC   NC362639  39.226  22.250   5.177
 4810POPC   PO462640  38.509  22.225   5.334
 4810POPC   GL162641  38.647  22.299   5.723
 4810POPC   GL262642  39.021  22.351   5.676
 4810POPC   C1A62643  38.489  22.106   6.121
 4810POPC   D2A62644  38.400  21.925   6.538
 4810POPC   C3A62645  38.290  22.217   6.901
 4810POPC   C4A62646  38.027  22.469   7.217
 4810POPC   C1B62647  38.944  21.964   5.954
 4810POPC   C2B62648  38.918  22.002   6.406
 4810POPC   C3B62649  38.894  22.093   6.854
 4810POPC   C4B62650  38.662  22.107   7.226
 4811POPC   NC362651  20.407  24.652   5.420
 4811POPC   PO462652  21.021  24.353   5.346
 4811POPC   GL162653  21.056  24.459   5.792
 4811POPC   GL262654  20.819  24.725   5.824
 4811POPC   C1A62655  20.976  24.385   6.252
 4811POPC   D2A62656  20.611  24.281   6.510
 4811POPC   C3A62657  20.631  24.180   6.965
 4811POPC   C4A62658  20.629  24.268   7.444
 4811POPC   C1B62659  20.498  24.694   6.173
 4811POPC   C2B62660  20.363  24.705   6.627
 4811POPC   C3B62661  20.521  24.662   7.064
 4811POPC   C4B62662  20.229  24.868   7.283
 4812POPC   NC362663   1.572  12.045   5.142
 4812POPC   PO462664   0.993  11.904   5.391
 4812POPC   GL162665   1.127  12.136   5.736
 4812POPC   GL262666   1.458  12.083   5.717
 4812POPC   C1A62667   1.158  12.226   6.160
 4812POPC   D2A62668   1.197  11.913   6.445
 4812POPC   C3A62669   1.290  11.977   6.860
 4812POPC   C4A62670   1.098  12.077   7.248
 4812POPC   C1B62671   1.636  12.062   6.129
 4812POPC   C2B62672   1.628  12.247   6.545
 4812POPC   C3B62673   1.657  12.301   6.977
 4812POPC   C4B62674   1.632  12.010   7.262
 4813POPC   NC362675   8.414  16.366   5.406
 4813POPC   PO462676   8.083  16.919   5.605
 4813POPC   GL162677   8.404  16.842   5.857
 4813POPC   GL262678   8.389  16.501   5.912
 4813POPC   C1A62679   8.387  16.903   6.280
 4813POPC   D2A62680   8.410  16.702   6.667
 4813POPC   C3A62681   8.321  16.978   7.017
 4813POPC   C4A62682   7.930  17.002   7.230
 4813POPC   C1B62683   8.644  16.416   6.272
 4813POPC   C2B62684   8.594  16.196   6.679
 4813POPC   C3B62685   8.285  16.297   6.999
 4813POPC   C4B62686   8.302  16.576   7.335
 4814POPC   NC362687  29.722  25.028   5.426
 4814POPC   PO462688  30.036  25.595   5.187
 4814POPC   GL162689  30.043  25.322   5.677
 4814POPC   GL262690  30.171  24.964   5.737
 4814POPC   C1A62691  29.941  25.344   6.162
 4814POPC   D2A62692  29.953  25.602   6.572
 4814POPC   C3A62693  29.885  25.422   6.993
 4814POPC   C4A62694  30.114  25.331   7.372
 4814POPC   C1B62695  30.101  24.848   6.199
 4814POPC   C2B62696  30.012  25.058   6.619
 4814POPC   C3B62697  29.938  24.913   7.057
 4814POPC   C4B62698  29.489  24.871   7.228
 4815POPC   NC362699   6.564  10.165   5.582
 4815POPC   PO462700   7.032   9.765   5.342
 4815POPC   GL162701   6.786   9.587   5.751
 4815POPC   GL262702   6.480   9.720   5.802
 4815POPC   C1A62703   6.648   9.504   6.241
 4815POPC   D2A62704   6.752   9.310   6.655
 4815POPC   C3A62705   6.707   9.549   7.019
 4815POPC   C4A62706   6.773   9.756   7.410
 4815POPC   C1B62707   6.312   9.906   6.194
 4815POPC   C2B62708   6.470   9.856   6.640
 4815POPC   C3B62709   6.446  10.001   7.106
 4815POPC   C4B62710   6.308   9.977   7.561
 4816POPC   NC362711  14.508   2.944   5.463
 4816POPC   PO462712  14.351   2.302   5.337
 4816POPC   GL162713  14.468   2.473   5.769
 4816POPC   GL262714  14.668   2.794   5.922
 4816POPC   C1A62715  14.445   2.436   6.213
 4816POPC   D2A62716  14.558   2.719   6.527
 4816POPC   C3A62717  14.371   2.660   6.914
 4816POPC   C4A62718  14.520   2.589   7.316
 4816POPC   C1B62719  14.393   3.060   6.175
 4816POPC   C2B62720  14.187   3.137   6.567
 4816POPC   C3B62721  14.275   3.164   6.994
 4816POPC   C4B62722  14.585   3.076   7.264
 4817POPC   NC362723   3.727  17.743   5.415
 4817POPC   PO462724   3.851  17.153   5.616
 4817POPC   GL162725   3.610  17.456   5.879
 4817POPC   GL262726   3.423  17.760   5.845
 4817POPC   C1A62727   3.577  17.469   6.336
 4817POPC   D2A62728   3.827  17.217   6.646
 4817POPC   C3A62729   3.643  17.212   7.041
 4817POPC   C4A62730   3.211  17.248   7.125
 4817POPC   C1B62731   3.260  17.919   6.257
 4817POPC   C2B62732   3.264  17.836   6.742
 4817POPC   C3B62733   3.493  17.702   7.146
 4817POPC   C4B62734   3.840  17.529   7.439
 4818POPC   NC362735  34.295  25.252   5.332
 4818POPC   PO462736  34.951  25.354   5.407
 4818POPC   GL162737  34.749  25.140   5.794
 4818POPC   GL262738  34.403  25.302   5.843
 4818POPC   C1A62739  34.586  25.075   6.252
 4818POPC   D2A62740  34.305  25.065   6.630
 4818POPC   C3A62741  34.579  25.108   6.990
 4818POPC   C4A62742  34.859  25.199   7.327
 4818POPC   C1B62743  34.440  25.563   6.247
 4818POPC   C2B62744  34.392  25.566   6.702
 4818POPC   C3B62745  34.324  25.716   7.109
 4818POPC   C4B62746  34.381  25.385   7.412
 4819POPC   NC362747  41.157   3.777   5.372
 4819POPC   PO462748  40.565   3.400   5.471
 4819POPC   GL162749  40.717   3.497   5.857
 4819POPC   GL262750  41.072   3.436   5.794
 4819POPC   C1A62751  40.532   3.495   6.286
 4819POPC   D2A62752  40.730   3.318   6.638
 4819POPC   C3A62753  40.675   3.480   7.060
 4819POPC   C4A62754  40.831   3.738   7.393
 4819POPC   C1B62755  41.062   3.481   6.236
 4819POPC   C2B62756  41.269   3.383   6.589
 4819POPC   C3B62757  41.096   3.198   6.965
 4819POPC   C4B62758  41.220   3.283   7.341
 4820POPC   NC362759  31.139  27.048   5.567
 4820POPC   PO462760  31.549  26.634   5.235
 4820POPC   GL162761  31.589  26.796   5.684
 4820POPC   GL262762  31.639  27.179   5.770
 4820POPC   C1A62763  31.615  26.718   6.146
 4820POPC   D2A62764  31.802  26.845   6.560
 4820POPC   C3A62765  31.792  26.561   6.897
 4820POPC   C4A62766  31.423  26.610   7.135
 4820POPC   C1B62767  31.666  27.266   6.229
 4820POPC   C2B62768  31.607  27.330   6.678
 4820POPC   C3B62769  31.698  27.075   7.043
 4820POPC   C4B62770  31.508  27.057   7.433
 4821POPC   NC362771  41.483  25.126   5.402
 4821POPC   PO462772  42.113  25.530   5.495
 4821POPC   GL162773  41.827  25.234   5.802
 4821POPC   GL262774  41.433  25.326   5.862
 4821POPC   C1A62775  41.740  25.274   6.275
 4821POPC   D2A62776  41.984  25.443   6.648
 4821POPC   C3A62777  41.784  25.350   7.039
 4821POPC   C4A62778  41.446  25.212   7.295
 4821POPC   C1B62779  41.422  25.660   6.177
 4821POPC   C2B62780  41.534  25.677   6.604
 4821POPC   C3B62781  41.367  25.652   7.000
 4821POPC   C4B62782  41.033  25.544   7.270
 4822POPC   NC362783  38.788  43.327   5.515
 4822POPC   PO462784  38.328  43.694   5.080
 4822POPC   GL162785  38.392  43.824   5.555
 4822POPC   GL262786  38.768  43.820   5.700
 4822POPC   C1A62787  38.368  43.957   6.028
 4822POPC   D2A62788  38.489  44.030   6.493
 4822POPC   C3A62789  38.289  43.942   6.916
 4822POPC   C4A62790  38.430  43.827   7.377
 4822POPC   C1B62791  38.756  43.618   6.123
 4822POPC   C2B62792  38.645  43.478   6.532
 4822POPC   C3B62793  38.707  43.660   6.906
 4822POPC   C4B62794  38.803  43.470   7.254
 4823POPC   NC362795  30.192   6.328   5.120
 4823POPC   PO462796  29.758   6.049   5.636
 4823POPC   GL162797  30.043   5.870   5.878
 4823POPC   GL262798  29.917   5.564   5.935
 4823POPC   C1A62799  30.029   5.916   6.301
 4823POPC   D2A62800  30.071   5.737   6.685
 4823POPC   C3A62801  29.744   5.859   6.958
 4823POPC   C4A62802  29.634   5.667   7.334
 4823POPC   C1B62803  30.301   5.508   6.210
 4823POPC   C2B62804  30.544   5.469   6.596
 4823POPC   C3B62805  30.393   5.490   7.017
 4823POPC   C4B62806  30.168   5.812   7.195
 4824POPC   NC362807  35.613  29.163   5.442
 4824POPC   PO462808  35.137  28.746   5.349
 4824POPC   GL162809  35.253  28.915   5.747
 4824POPC   GL262810  35.606  28.795   5.775
 4824POPC   C1A62811  35.065  29.058   6.168
 4824POPC   D2A62812  34.887  28.969   6.592
 4824POPC   C3A62813  34.980  29.305   6.900
 4824POPC   C4A62814  35.234  29.268   7.258
 4824POPC   C1B62815  35.626  29.114   6.133
 4824POPC   C2B62816  35.789  29.289   6.555
 4824POPC   C3B62817  35.682  29.320   7.016
 4824POPC   C4B62818  35.681  29.039   7.389
 4825POPC   NC362819  14.796  17.379   5.521
 4825POPC   PO462820  15.510  17.617   5.434
 4825POPC   GL162821  15.356  17.544   5.814
 4825POPC   GL262822  15.053  17.678   5.879
 4825POPC   C1A62823  15.340  17.397   6.217
 4825POPC   D2A62824  15.330  17.269   6.622
 4825POPC   C3A62825  15.212  17.565   6.883
 4825POPC   C4A62826  15.292  17.528   7.309
 4825POPC   C1B62827  14.851  17.543   6.249
 4825POPC   C2B62828  14.751  17.298   6.611
 4825POPC   C3B62829  14.785  17.294   7.057
 4825POPC   C4B62830  14.809  17.723   7.175
 4826POPC   NC362831  16.970  25.547   5.635
 4826POPC   PO462832  16.561  25.150   5.246
 4826POPC   GL162833  16.576  25.195   5.739
 4826POPC   GL262834  16.918  25.128   5.906
 4826POPC   C1A62835  16.513  25.381   6.197
 4826POPC   D2A62836  16.682  25.573   6.599
 4826POPC   C3A62837  16.584  25.387   7.010
 4826POPC   C4A62838  16.349  25.003   7.114
 4826POPC   C1B62839  16.996  25.277   6.300
 4826POPC   C2B62840  16.855  25.102   6.661
 4826POPC   C3B62841  17.075  25.211   7.028
 4826POPC   C4B62842  17.026  25.615   7.238
 4827POPC   NC362843  25.282   8.687   5.313
 4827POPC   PO462844  25.415   8.115   5.374
 4827POPC   GL162845  25.325   8.393   5.725
 4827POPC   GL262846  25.474   8.172   5.960
 4827POPC   C1A62847  25.233   8.582   6.137
 4827POPC   D2A62848  25.509   8.417   6.455
 4827POPC   C3A62849  25.403   8.442   6.891
 4827POPC   C4A62850  25.637   8.316   7.245
 4827POPC   C1B62851  25.171   8.073   6.301
 4827POPC   C2B62852  25.275   7.969   6.738
 4827POPC   C3B62853  25.259   7.988   7.188
 4827POPC   C4B62854  25.066   8.061   7.592
 4828POPC   NC362855  11.613  28.759   5.306
 4828POPC   PO462856  11.360  29.318   5.319
 4828POPC   GL162857  11.454  29.240   5.760
 4828POPC   GL262858  11.658  29.511   5.804
 4828POPC   C1A62859  11.306  29.086   6.209
 4828POPC   D2A62860  11.241  28.816   6.609
 4828POPC   C3A62861  11.188  29.060   6.996
 4828POPC   C4A62862  11.242  28.991   7.446
 4828POPC   C1B62863  11.708  29.385   6.239
 4828POPC   C2B62864  11.485  29.300   6.652
 4828POPC   C3B62865  11.499  29.470   7.101
 4828POPC   C4B62866  11.543  29.378   7.572
 4829POPC   NC362867  40.176  35.698   5.324
 4829POPC   PO462868  39.645  36.184   5.449
 4829POPC   GL162869  40.058  36.221   5.701
 4829POPC   GL262870  40.252  35.912   5.764
 4829POPC   C1A62871  40.146  36.334   6.140
 4829POPC   D2A62872  39.952  36.471   6.546
 4829POPC   C3A62873  40.174  36.463   6.960
 4829POPC   C4A62874  40.027  36.290   7.375
 4829POPC   C1B62875  40.069  35.807   6.153
 4829POPC   C2B62876  40.145  35.994   6.557
 4829POPC   C3B62877  40.019  35.979   6.984
 4829POPC   C4B62878  40.311  35.841   7.313
 4830POPC   NC362879  20.898   9.482   5.517
 4830POPC   PO462880  20.240   9.683   5.352
 4830POPC   GL162881  20.460   9.646   5.745
 4830POPC   GL262882  20.720   9.882   5.883
 4830POPC   C1A62883  20.521   9.459   6.139
 4830POPC   D2A62884  20.434   9.473   6.570
 4830POPC   C3A62885  20.776   9.660   6.816
 4830POPC   C4A62886  20.990   9.520   7.165
 4830POPC   C1B62887  20.715   9.882   6.345
 4830POPC   C2B62888  20.483  10.165   6.592
 4830POPC   C3B62889  20.605  10.275   7.013
 4830POPC   C4B62890  20.711   9.941   7.290
 4831POPC   NC362891  43.595  18.810   5.304
 4831POPC   PO462892  42.980  19.120   5.306
 4831POPC   GL162893  43.265  19.003   5.637
 4831POPC   GL262894  43.374  19.297   5.811
 4831POPC   C1A62895  43.354  18.845   6.048
 4831POPC   D2A62896  43.101  18.797   6.408
 4831POPC   C3A62897  43.242  18.774   6.823
 4831POPC   C4A62898  43.084  18.899   7.181
 4831POPC   C1B62899  43.138  19.287   6.209
 4831POPC   C2B62900  43.134  19.267   6.672
 4831POPC   C3B62901  43.166  19.384   7.107
 4831POPC   C4B62902  43.236  19.564   7.511
 4832POPC   NC362903  12.552  15.732   5.449
 4832POPC   PO462904  13.094  16.124   5.362
 4832POPC   GL162905  13.013  15.979   5.786
 4832POPC   GL262906  12.770  15.721   5.906
 4832POPC   C1A62907  13.162  15.860   6.204
 4832POPC   D2A62908  12.897  15.896   6.548
 4832POPC   C3A62909  13.061  16.044   6.927
 4832POPC   C4A62910  12.941  15.851   7.315
 4832POPC   C1B62911  12.487  15.681   6.284
 4832POPC   C2B62912  12.302  15.548   6.704
 4832POPC   C3B62913  12.522  15.425   7.116
 4832POPC   C4B62914  12.709  15.441   7.566
 4833POPC   NC362915   8.616  31.631   5.430
 4833POPC   PO462916   9.283  31.904   5.432
 4833POPC   GL162917   9.108  31.503   5.654
 4833POPC   GL262918   8.783  31.526   5.873
 4833POPC   C1A62919   9.173  31.381   6.122
 4833POPC   D2A62920   8.920  31.505   6.488
 4833POPC   C3A62921   9.134  31.533   6.873
 4833POPC   C4A62922   9.269  31.791   7.206
 4833POPC   C1B62923   8.497  31.528   6.179
 4833POPC   C2B62924   8.445  31.316   6.590
 4833POPC   C3B62925   8.627  31.511   6.956
 4833POPC   C4B62926   8.653  31.511   7.401
 4834POPC   NC362927  37.391  24.809   5.608
 4834POPC   PO462928  37.953  24.635   5.338
 4834POPC   GL162929  37.932  24.560   5.815
 4834POPC   GL262930  37.701  24.291   5.854
 4834POPC   C1A62931  37.721  24.659   6.240
 4834POPC   D2A62932  37.854  24.571   6.687
 4834POPC   C3A62933  37.751  24.679   7.129
 4834POPC   C4A62934  37.468  24.760   7.484
 4834POPC   C1B62935  37.963  24.204   6.254
 4834POPC   C2B62936  38.141  24.163   6.692
 4834POPC   C3B62937  37.932  24.105   7.117
 4834POPC   C4B62938  37.676  24.289   7.461
 4835POPC   NC362939  18.069  34.897   5.376
 4835POPC   PO462940  18.211  35.496   5.414
 4835POPC   GL162941  18.172  35.273   5.791
 4835POPC   GL262942  17.937  35.557   5.841
 4835POPC   C1A62943  18.234  35.085   6.224
 4835POPC   D2A62944  18.268  35.319   6.621
 4835POPC   C3A62945  18.606  35.222   6.930
 4835POPC   C4A62946  18.430  35.109   7.337
 4835POPC   C1B62947  17.906  35.468   6.239
 4835POPC   C2B62948  17.726  35.435   6.590
 4835POPC   C3B62949  17.840  35.517   6.971
 4835POPC   C4B62950  18.236  35.503   7.134
 4836POPC   NC362951  30.364  44.777   5.370
 4836POPC   PO462952  30.746  44.258   5.457
 4836POPC   GL162953  30.728  44.602   5.734
 4836POPC   GL262954  31.047  44.740   5.798
 4836POPC   C1A62955  30.455  44.708   6.075
 4836POPC   D2A62956  30.253  44.574   6.469
 4836POPC   C3A62957  30.402  44.740   6.877
 4836POPC   C4A62958  30.410  44.960   7.271
 4836POPC   C1B62959  31.040  44.595   6.225
 4836POPC   C2B62960  30.836  44.728   6.611
 4836POPC   C3B62961  30.906  44.725   7.058
 4836POPC   C4B62962  31.206  44.395   7.120
 4837POPC   NC362963   2.181  38.276   5.402
 4837POPC   PO462964   1.945  38.912   5.478
 4837POPC   GL162965   2.215  38.652   5.812
 4837POPC   GL262966   2.184  38.278   5.890
 4837POPC   C1A62967   2.111  38.587   6.286
 4837POPC   D2A62968   1.663  38.590   6.572
 4837POPC   C3A62969   1.681  38.424   7.016
 4837POPC   C4A62970   2.074  38.520   7.229
 4837POPC   C1B62971   2.161  38.062   6.253
 4837POPC   C2B62972   2.038  38.240   6.652
 4837POPC   C3B62973   2.072  38.060   7.018
 4837POPC   C4B62974   2.269  37.900   7.357
 4838POPC   NC362975  11.337  41.240   5.466
 4838POPC   PO462976  10.878  40.901   5.543
 4838POPC   GL162977  11.242  40.920   5.845
 4838POPC   GL262978  11.194  40.604   6.004
 4838POPC   C1A62979  11.470  40.953   6.252
 4838POPC   D2A62980  11.331  40.885   6.691
 4838POPC   C3A62981  11.504  40.930   7.128
 4838POPC   C4A62982  11.418  40.648   7.488
 4838POPC   C1B62983  10.961  40.909   6.279
 4838POPC   C2B62984  10.821  40.929   6.709
 4838POPC   C3B62985  10.998  40.809   7.109
 4838POPC   C4B62986  11.096  41.079   7.429
 4839POPC   NC362987  37.533   9.159   5.355
 4839POPC   PO462988  37.778   8.478   5.415
 4839POPC   GL162989  37.546   8.701   5.785
 4839POPC   GL262990  37.556   9.042   5.846
 4839POPC   C1A62991  37.342   8.750   6.222
 4839POPC   D2A62992  37.523   8.767   6.657
 4839POPC   C3A62993  37.741   8.691   7.070
 4839POPC   C4A62994  37.764   8.842   7.527
 4839POPC   C1B62995  37.735   9.081   6.243
 4839POPC   C2B62996  37.843   9.376   6.544
 4839POPC   C3B62997  37.754   9.177   6.904
 4839POPC   C4B62998  37.723   9.265   7.295
 4840POPC   NC362999  28.663  33.277   5.464
 4840POPC   PO463000  29.343  33.085   5.304
 4840POPC   GL163001  29.136  33.173   5.689
 4840POPC   GL263002  29.162  33.520   5.684
 4840POPC   C1A63003  29.020  33.039   6.123
 4840POPC   D2A63004  28.927  32.841   6.537
 4840POPC   C3A63005  29.106  33.009   6.922
 4840POPC   C4A63006  29.166  32.858   7.343
 4840POPC   C1B63007  29.331  33.456   6.084
 4840POPC   C2B63008  29.228  33.329   6.508
 4840POPC   C3B63009  29.457  33.390   6.882
 4840POPC   C4B63010  29.125  33.499   7.155
 4841POPC   NC363011   9.810  30.585   5.163
 4841POPC   PO463012  10.455  30.620   5.412
 4841POPC   GL163013  10.549  30.696   5.794
 4841POPC   GL263014  10.556  31.042   5.763
 4841POPC   C1A63015  10.480  30.544   6.193
 4841POPC   D2A63016  10.606  30.443   6.579
 4841POPC   C3A63017  10.567  30.742   6.890
 4841POPC   C4A63018  10.670  30.597   7.273
 4841POPC   C1B63019  10.760  30.986   6.160
 4841POPC   C2B63020  10.780  31.103   6.573
 4841POPC   C3B63021  11.004  31.082   6.962
 4841POPC   C4B63022  10.960  30.983   7.377
 4842POPC   NC363023   0.036  29.304   5.365
 4842POPC   PO463024   0.450  28.862   5.514
 4842POPC   GL163025   0.276  29.087   5.891
 4842POPC   GL263026   0.321  28.772   6.045
 4842POPC   C1A63027   0.132  29.188   6.348
 4842POPC   D2A63028   0.215  28.955   6.749
 4842POPC   C3A63029   0.145  28.983   7.189
 4842POPC   C4A63030   0.252  29.289   7.473
 4842POPC   C1B63031   0.604  28.990   6.301
 4842POPC   C2B63032   0.574  29.296   6.630
 4842POPC   C3B63033   0.613  29.197   7.060
 4842POPC   C4B63034   1.006  28.985   7.237
 4843POPC   NC363035  21.059  26.183   5.208
 4843POPC   PO463036  20.535  25.785   5.320
 4843POPC   GL163037  20.812  25.904   5.698
 4843POPC   GL263038  20.948  25.621   5.891
 4843POPC   C1A63039  20.749  26.078   6.142
 4843POPC   D2A63040  20.424  26.004   6.488
 4843POPC   C3A63041  20.492  26.073   6.946
 4843POPC   C4A63042  20.465  26.324   7.339
 4843POPC   C1B63043  20.624  25.586   6.240
 4843POPC   C2B63044  20.521  25.564   6.705
 4843POPC   C3B63045  20.705  25.590   7.087
 4843POPC   C4B63046  20.754  25.906   7.378
 4844POPC   NC363047  41.491   7.685   5.508
 4844POPC   PO463048  41.381   7.016   5.568
 4844POPC   GL163049  41.548   7.292   5.875
 4844POPC   GL263050  41.768   7.589   5.985
 4844POPC   C1A63051  41.367   7.428   6.221
 4844POPC   D2A63052  41.549   7.597   6.596
 4844POPC   C3A63053  41.401   7.399   6.956
 4844POPC   C4A63054  41.339   7.217   7.371
 4844POPC   C1B63055  41.842   7.252   6.327
 4844POPC   C2B63056  41.945   7.298   6.800
 4844POPC   C3B63057  41.802   7.507   7.228
 4844POPC   C4B63058  41.873   7.882   7.494
 4845POPC   NC363059  12.135  37.950   5.112
 4845POPC   PO463060  11.874  37.390   5.454
 4845POPC   GL163061  12.110  37.461   5.829
 4845POPC   GL263062  11.974  37.297   6.071
 4845POPC   C1A63063  12.164  37.757   6.203
 4845POPC   D2A63064  12.113  37.610   6.617
 4845POPC   C3A63065  12.168  37.854   6.974
 4845POPC   C4A63066  12.172  38.073   7.341
 4845POPC   C1B63067  11.857  37.198   6.474
 4845POPC   C2B63068  11.730  37.403   6.847
 4845POPC   C3B63069  12.037  37.363   7.115
 4845POPC   C4B63070  12.282  37.138   7.335
 4846POPC   NC363071  43.430  26.310   5.326
 4846POPC   PO463072  43.089  25.716   5.389
 4846POPC   GL163073  42.924  26.000   5.717
 4846POPC   GL263074  43.149  26.294   5.753
 4846POPC   C1A63075  42.906  26.094   6.177
 4846POPC   D2A63076  43.178  26.080   6.520
 4846POPC   C3A63077  43.119  26.285   6.849
 4846POPC   C4A63078  42.933  26.115   7.196
 4846POPC   C1B63079  43.417  26.241   6.122
 4846POPC   C2B63080  43.601  26.359   6.586
 4846POPC   C3B63081  43.576  26.270   7.074
 4846POPC   C4B63082  43.365  26.247   7.512
 4847POPC   NC363083   6.116  18.587   5.290
 4847POPC   PO463084   5.798  19.177   5.491
 4847POPC   GL163085   5.797  18.964   5.840
 4847POPC   GL263086   5.537  18.747   5.759
 4847POPC   C1A63087   5.831  19.158   6.248
 4847POPC   D2A63088   5.621  19.140   6.630
 4847POPC   C3A63089   5.866  19.250   6.986
 4847POPC   C4A63090   5.611  19.193   7.380
 4847POPC   C1B63091   5.694  18.560   6.150
 4847POPC   C2B63092   5.863  18.694   6.502
 4847POPC   C3B63093   5.823  18.755   6.932
 4847POPC   C4B63094   6.053  18.900   7.310
 4848POPC   NC363095  32.655  40.315   5.732
 4848POPC   PO463096  32.226  40.733   5.434
 4848POPC   GL163097  32.392  40.801   5.819
 4848POPC   GL263098  32.077  40.694   5.916
 4848POPC   C1A63099  32.560  41.050   6.153
 4848POPC   D2A63100  32.634  40.883   6.561
 4848POPC   C3A63101  32.456  41.048   6.896
 4848POPC   C4A63102  32.505  40.913   7.293
 4848POPC   C1B63103  32.259  40.627   6.289
 4848POPC   C2B63104  32.085  40.763   6.655
 4848POPC   C3B63105  32.198  40.608   7.027
 4848POPC   C4B63106  32.106  40.656   7.460
 4849POPC   NC363107  19.027   2.545   5.304
 4849POPC   PO463108  19.150   3.195   5.477
 4849POPC   GL163109  19.235   2.810   5.796
 4849POPC   GL263110  19.076   2.454   5.797
 4849POPC   C1A63111  19.257   2.618   6.250
 4849POPC   D2A63112  19.203   2.700   6.712
 4849POPC   C3A63113  19.045   2.952   7.059
 4849POPC   C4A63114  19.006   2.679   7.415
 4849POPC   C1B63115  18.705   2.408   6.063
 4849POPC   C2B63116  18.826   2.438   6.499
 4849POPC   C3B63117  18.735   2.554   6.944
 4849POPC   C4B63118  18.594   2.335   7.318
 4850POPC   NC363119  11.671  35.814   5.262
 4850POPC   PO463120  11.088  35.366   5.244
 4850POPC   GL163121  11.219  35.308   5.698
 4850POPC   GL263122  11.512  35.549   5.727
 4850POPC   C1A63123  11.100  35.093   6.109
 4850POPC   D2A63124  11.214  35.221   6.550
 4850POPC   C3A63125  10.962  35.164   6.925
 4850POPC   C4A63126  11.083  35.303   7.350
 4850POPC   C1B63127  11.356  35.544   6.157
 4850POPC   C2B63128  11.476  35.691   6.571
 4850POPC   C3B63129  11.370  35.547   6.978
 4850POPC   C4B63130  11.281  35.792   7.342
 4851POPC   NC363131   8.526  33.218   5.665
 4851POPC   PO463132   8.077  32.893   5.216
 4851POPC   GL163133   8.143  32.880   5.704
 4851POPC   GL263134   8.065  33.202   5.929
 4851POPC   C1A63135   8.096  32.761   6.186
 4851POPC   D2A63136   8.331  32.740   6.605
 4851POPC   C3A63137   8.214  32.878   7.018
 4851POPC   C4A63138   7.862  33.071   7.222
 4851POPC   C1B63139   8.268  33.233   6.345
 4851POPC   C2B63140   8.516  33.337   6.715
 4851POPC   C3B63141   8.564  33.332   7.181
 4851POPC   C4B63142   8.578  33.506   7.627
 4852POPC   NC363143   8.835  11.597   5.484
 4852POPC   PO463144   9.037  10.921   5.551
 4852POPC   GL163145   8.891  11.224   5.816
 4852POPC   GL263146   9.140  11.474   5.900
 4852POPC   C1A63147   8.632  11.340   6.139
 4852POPC   D2A63148   8.630  11.117   6.532
 4852POPC   C3A63149   8.821  11.214   6.944
 4852POPC   C4A63150   8.894  10.985   7.327
 4852POPC   C1B63151   9.103  11.317   6.311
 4852POPC   C2B63152   9.269  11.298   6.700
 4852POPC   C3B63153   9.323  11.062   7.057
 4852POPC   C4B63154   9.291  11.255   7.434
 4853POPC   NC363155  28.663  41.986   5.472
 4853POPC   PO463156  28.266  41.408   5.387
 4853POPC   GL163157  28.186  41.583   5.779
 4853POPC   GL263158  28.495  41.722   5.868
 4853POPC   C1A63159  28.155  41.619   6.238
 4853POPC   D2A63160  28.421  41.715   6.604
 4853POPC   C3A63161  28.202  41.515   6.950
 4853POPC   C4A63162  28.108  41.182   7.238
 4853POPC   C1B63163  28.784  41.776   6.196
 4853POPC   C2B63164  28.927  41.856   6.601
 4853POPC   C3B63165  28.796  41.627   6.985
 4853POPC   C4B63166  28.511  41.781   7.245
 4854POPC   NC363167  11.466   9.184   5.364
 4854POPC   PO463168  11.411   8.571   5.060
 4854POPC   GL163169  11.244   8.815   5.588
 4854POPC   GL263170  10.912   8.966   5.690
 4854POPC   C1A63171  11.397   8.870   6.078
 4854POPC   D2A63172  11.449   8.976   6.533
 4854POPC   C3A63173  11.666   8.840   6.917
 4854POPC   C4A63174  11.587   9.019   7.313
 4854POPC   C1B63175  10.901   8.920   6.161
 4854POPC   C2B63176  11.008   8.660   6.538
 4854POPC   C3B63177  11.159   8.783   6.952
 4854POPC   C4B63178  11.144   9.190   7.087
 4855POPC   NC363179   0.830  37.546   5.472
 4855POPC   PO463180   0.371  38.069   5.262
 4855POPC   GL163181   0.379  37.793   5.652
 4855POPC   GL263182   0.178  37.476   5.638
 4855POPC   C1A63183   0.486  37.648   6.081
 4855POPC   D2A63184   0.803  37.618   6.426
 4855POPC   C3A63185   0.708  37.462   6.831
 4855POPC   C4A63186   0.636  37.664   7.207
 4855POPC   C1B63187   0.036  37.401   6.086
 4855POPC   C2B63188   0.064  37.601   6.533
 4855POPC   C3B63189   0.224  37.752   6.936
 4855POPC   C4B63190   0.167  37.701   7.425
 4856POPC   NC363191  36.549  36.361   5.535
 4856POPC   PO463192  37.139  36.660   5.396
 4856POPC   GL163193  37.037  36.347   5.741
 4856POPC   GL263194  37.006  35.957   5.771
 4856POPC   C1A63195  36.844  36.308   6.141
 4856POPC   D2A63196  36.880  36.123   6.527
 4856POPC   C3A63197  36.952  36.347   6.853
 4856POPC   C4A63198  37.106  36.237   7.218
 4856POPC   C1B63199  36.709  35.822   6.116
 4856POPC   C2B63200  36.458  35.842   6.508
 4856POPC   C3B63201  36.520  36.055   6.930
 4856POPC   C4B63202  36.690  35.964   7.366
 4857POPC   NC363203  11.497  30.040   5.236
 4857POPC   PO463204  10.895  29.905   5.337
 4857POPC   GL163205  11.224  29.741   5.621
 4857POPC   GL263206  11.466  29.986   5.746
 4857POPC   C1A63207  11.222  29.591   6.053
 4857POPC   D2A63208  11.290  29.711   6.453
 4857POPC   C3A63209  11.077  29.590   6.812
 4857POPC   C4A63210  10.939  29.903   7.038
 4857POPC   C1B63211  11.284  30.113   6.142
 4857POPC   C2B63212  11.376  30.212   6.588
 4857POPC   C3B63213  11.407  30.106   7.022
 4857POPC   C4B63214  11.589  30.263   7.440
 4858POPC   NC363215  41.951   3.618   5.322
 4858POPC   PO463216  41.371   3.339   5.385
 4858POPC   GL163217  41.599   3.478   5.710
 4858POPC   GL263218  41.503   3.805   5.777
 4858POPC   C1A63219  41.598   3.461   6.167
 4858POPC   D2A63220  41.800   3.695   6.523
 4858POPC   C3A63221  41.647   3.525   6.917
 4858POPC   C4A63222  41.710   3.226   7.231
 4858POPC   C1B63223  41.346   3.914   6.209
 4858POPC   C2B63224  41.332   3.895   6.652
 4858POPC   C3B63225  41.162   3.691   6.985
 4858POPC   C4B63226  41.397   3.738   7.336
 4859POPC   NC363227  38.289  36.540   5.534
 4859POPC   PO463228  38.735  37.080   5.320
 4859POPC   GL163229  38.535  37.154   5.778
 4859POPC   GL263230  38.162  37.077   5.817
 4859POPC   C1A63231  38.420  37.119   6.244
 4859POPC   D2A63232  38.352  36.932   6.652
 4859POPC   C3A63233  38.536  37.077   7.040
 4859POPC   C4A63234  38.836  36.729   7.182
 4859POPC   C1B63235  38.087  36.745   6.199
 4859POPC   C2B63236  37.910  36.681   6.663
 4859POPC   C3B63237  38.117  36.782   7.090
 4859POPC   C4B63238  37.869  36.848   7.478
 4860POPC   NC363239  18.719  40.789   5.320
 4860POPC   PO463240  18.062  41.010   5.470
 4860POPC   GL163241  18.097  40.713   5.787
 4860POPC   GL263242  18.018  40.973   6.016
 4860POPC   C1A63243  18.344  40.575   6.134
 4860POPC   D2A63244  18.460  40.544   6.567
 4860POPC   C3A63245  18.292  40.779   6.893
 4860POPC   C4A63246  18.288  40.580   7.315
 4860POPC   C1B63247  18.241  41.030   6.415
 4860POPC   C2B63248  17.972  41.186   6.772
 4860POPC   C3B63249  17.961  41.144   7.226
 4860POPC   C4B63250  18.174  41.065   7.652
 4861POPC   NC363251  32.660  16.309   5.423
 4861POPC   PO463252  31.943  16.105   5.464
 4861POPC   GL163253  32.102  16.013   5.849
 4861POPC   GL263254  32.402  16.115   5.822
 4861POPC   C1A63255  32.200  15.880   6.272
 4861POPC   D2A63256  32.424  15.990   6.662
 4861POPC   C3A63257  32.225  15.978   7.046
 4861POPC   C4A63258  32.328  15.862   7.451
 4861POPC   C1B63259  32.615  16.188   6.223
 4861POPC   C2B63260  32.818  16.276   6.628
 4861POPC   C3B63261  32.616  16.421   7.020
 4861POPC   C4B63262  32.522  16.307   7.457
 4862POPC   NC363263   3.362  22.269   5.354
 4862POPC   PO463264   2.731  22.013   5.429
 4862POPC   GL163265   2.806  21.940   5.864
 4862POPC   GL263266   2.617  21.659   5.826
 4862POPC   C1A63267   2.878  22.042   6.322
 4862POPC   D2A63268   2.634  22.053   6.718
 4862POPC   C3A63269   2.738  22.238   7.131
 4862POPC   C4A63270   2.830  22.364   7.557
 4862POPC   C1B63271   2.857  21.539   6.208
 4862POPC   C2B63272   2.890  21.606   6.668
 4862POPC   C3B63273   2.742  21.714   7.098
 4862POPC   C4B63274   2.991  21.886   7.411
 4863POPC   NC363275  13.897  36.597   5.503
 4863POPC   PO463276  13.476  37.014   5.272
 4863POPC   GL163277  13.585  37.022   5.700
 4863POPC   GL263278  13.440  37.348   5.692
 4863POPC   C1A63279  13.736  36.909   6.126
 4863POPC   D2A63280  13.597  36.846   6.582
 4863POPC   C3A63281  13.832  36.977   6.918
 4863POPC   C4A63282  13.892  36.753   7.268
 4863POPC   C1B63283  13.415  37.312   6.142
 4863POPC   C2B63284  13.569  37.368   6.563
 4863POPC   C3B63285  13.373  37.189   6.935
 4863POPC   C4B63286  13.437  37.004   7.341
 4864POPC   NC363287  43.636  35.505   5.383
 4864POPC   PO463288  44.210  35.829   5.357
 4864POPC   GL163289  44.047  35.646   5.756
 4864POPC   GL263290  43.959  35.278   5.787
 4864POPC   C1A63291  44.020  35.574   6.226
 4864POPC   D2A63292  44.166  35.412   6.632
 4864POPC   C3A63293  43.942  35.473   7.029
 4864POPC   C4A63294  43.904  35.827   7.289
 4864POPC   C1B63295  43.645  35.210   6.150
 4864POPC   C2B63296  43.647  35.356   6.593
 4864POPC   C3B63297  43.563  35.121   6.966
 4864POPC   C4B63298  43.742  35.055   7.358
 4865POPC   NC363299  28.805   9.005   5.017
 4865POPC   PO463300  29.200   8.819   5.530
 4865POPC   GL163301  29.242   8.826   5.942
 4865POPC   GL263302  29.124   9.179   6.011
 4865POPC   C1A63303  29.272   8.865   6.383
 4865POPC   D2A63304  29.226   9.186   6.646
 4865POPC   C3A63305  29.261   8.959   6.992
 4865POPC   C4A63306  29.256   8.761   7.382
 4865POPC   C1B63307  29.550   9.226   6.144
 4865POPC   C2B63308  29.729   9.340   6.540
 4865POPC   C3B63309  29.559   9.423   6.957
 4865POPC   C4B63310  29.272   9.358   7.277
 4866POPC   NC363311   4.478  35.370   5.497
 4866POPC   PO463312   3.892  35.671   5.548
 4866POPC   GL163313   4.151  35.524   5.919
 4866POPC   GL263314   4.497  35.394   6.016
 4866POPC   C1A63315   4.209  35.645   6.361
 4866POPC   D2A63316   4.370  35.693   6.789
 4866POPC   C3A63317   4.304  35.397   7.128
 4866POPC   C4A63318   4.638  35.377   7.406
 4866POPC   C1B63319   4.467  34.996   6.252
 4866POPC   C2B63320   4.558  34.782   6.637
 4866POPC   C3B63321   4.372  34.816   7.043
 4866POPC   C4B63322   4.402  34.926   7.465
 4867POPC   NC363323  28.986   3.836   5.204
 4867POPC   PO463324  29.511   3.427   5.416
 4867POPC   GL163325  29.415   3.568   5.841
 4867POPC   GL263326  29.116   3.717   5.694
 4867POPC   C1A63327  29.346   3.444   6.291
 4867POPC   D2A63328  29.552   3.243   6.666
 4867POPC   C3A63329  29.404   3.369   7.066
 4867POPC   C4A63330  29.647   3.342   7.429
 4867POPC   C1B63331  28.978   3.760   6.098
 4867POPC   C2B63332  28.873   3.622   6.475
 4867POPC   C3B63333  28.689   3.679   6.853
 4867POPC   C4B63334  28.921   3.514   7.164
 4868POPC   NC363335  31.508  22.277   5.246
 4868POPC   PO463336  30.906  22.158   5.378
 4868POPC   GL163337  31.280  22.214   5.707
 4868POPC   GL263338  31.487  21.909   5.728
 4868POPC   C1A63339  31.451  22.436   6.092
 4868POPC   D2A63340  31.601  22.280   6.510
 4868POPC   C3A63341  31.557  22.498   6.890
 4868POPC   C4A63342  31.517  22.445   7.331
 4868POPC   C1B63343  31.471  21.893   6.191
 4868POPC   C2B63344  31.307  21.855   6.630
 4868POPC   C3B63345  31.303  22.057   7.042
 4868POPC   C4B63346  31.274  22.028   7.491
 4869POPC   NC363347  36.604  24.545   5.408
 4869POPC   PO463348  37.247  24.357   5.559
 4869POPC   GL163349  36.908  24.379   5.842
 4869POPC   GL263350  36.659  24.156   5.763
 4869POPC   C1A63351  36.978  24.456   6.282
 4869POPC   D2A63352  37.341  24.505   6.579
 4869POPC   C3A63353  37.247  24.597   7.005
 4869POPC   C4A63354  36.822  24.569   7.110
 4869POPC   C1B63355  36.488  24.210   6.184
 4869POPC   C2B63356  36.597  24.341   6.621
 4869POPC   C3B63357  36.550  24.118   7.007
 4869POPC   C4B63358  36.677  24.166   7.410
 4870POPC   NC363359  10.017  25.688   5.444
 4870POPC   PO463360   9.414  25.980   5.463
 4870POPC   GL163361   9.646  26.254   5.800
 4870POPC   GL263362   9.949  26.056   5.830
 4870POPC   C1A63363   9.919  26.413   6.199
 4870POPC   D2A63364   9.889  26.289   6.690
 4870POPC   C3A63365  10.050  26.541   7.086
 4870POPC   C4A63366   9.909  26.516   7.552
 4870POPC   C1B63367   9.729  25.953   6.260
 4870POPC   C2B63368   9.506  25.905   6.679
 4870POPC   C3B63369   9.509  25.925   7.150
 4870POPC   C4B63370   9.418  25.672   7.537
 4871POPC   NC363371   3.407  16.989   5.509
 4871POPC   PO463372   3.401  16.293   5.378
 4871POPC   GL163373   3.630  16.542   5.699
 4871POPC   GL263374   3.338  16.645   5.902
 4871POPC   C1A63375   3.841  16.684   6.102
 4871POPC   D2A63376   3.595  16.786   6.469
 4871POPC   C3A63377   3.775  16.737   6.883
 4871POPC   C4A63378   3.582  16.745   7.261
 4871POPC   C1B63379   3.199  16.981   6.179
 4871POPC   C2B63380   3.236  17.152   6.595
 4871POPC   C3B63381   3.266  16.817   6.884
 4871POPC   C4B63382   3.075  16.719   7.287
 4872POPC   NC363383  38.479  10.279   5.608
 4872POPC   PO463384  38.092  10.700   5.460
 4872POPC   GL163385  38.214  10.632   5.917
 4872POPC   GL263386  38.269  10.286   6.056
 4872POPC   C1A63387  38.253  10.735   6.356
 4872POPC   D2A63388  38.494  10.582   6.717
 4872POPC   C3A63389  38.526  10.745   7.130
 4872POPC   C4A63390  38.673  10.445   7.440
 4872POPC   C1B63391  38.665  10.429   6.247
 4872POPC   C2B63392  38.987  10.527   6.574
 4872POPC   C3B63393  39.015  10.571   7.036
 4872POPC   C4B63394  39.026  10.842   7.411
 4873POPC   NC363395  12.050   2.278   5.263
 4873POPC   PO463396  11.992   1.694   5.413
 4873POPC   GL163397  12.164   1.935   5.756
 4873POPC   GL263398  12.356   2.275   5.716
 4873POPC   C1A63399  11.960   1.948   6.157
 4873POPC   D2A63400  12.069   1.914   6.587
 4873POPC   C3A63401  11.790   2.045   6.914
 4873POPC   C4A63402  11.939   1.838   7.268
 4873POPC   C1B63403  12.425   2.177   6.186
 4873POPC   C2B63404  12.476   2.278   6.638
 4873POPC   C3B63405  12.285   2.148   7.029
 4873POPC   C4B63406  12.245   2.194   7.503
 4874POPC   NC363407   9.192  13.104   5.473
 4874POPC   PO463408   8.861  12.586   5.261
 4874POPC   GL163409   8.920  12.718   5.713
 4874POPC   GL263410   8.747  13.031   5.767
 4874POPC   C1A63411   9.003  12.857   6.168
 4874POPC   D2A63412   8.997  12.628   6.568
 4874POPC   C3A63413   8.895  12.757   6.978
 4874POPC   C4A63414   9.224  12.976   7.160
 4874POPC   C1B63415   8.638  13.239   6.168
 4874POPC   C2B63416   8.677  13.082   6.620
 4874POPC   C3B63417   8.606  13.240   7.072
 4874POPC   C4B63418   8.785  13.026   7.437
 4875POPC   NC363419  36.070   9.526   5.203
 4875POPC   PO463420  36.563   9.989   5.359
 4875POPC   GL163421  36.317   9.951   5.730
 4875POPC   GL263422  36.069   9.662   5.697
 4875POPC   C1A63423  36.420   9.778   6.131
 4875POPC   D2A63424  36.547   9.883   6.529
 4875POPC   C3A63425  36.320   9.883   6.904
 4875POPC   C4A63426  36.414   9.682   7.273
 4875POPC   C1B63427  35.968   9.563   6.111
 4875POPC   C2B63428  36.004   9.768   6.503
 4875POPC   C3B63429  35.835   9.684   6.926
 4875POPC   C4B63430  35.888   9.784   7.353
 4876POPC   NC363431  28.125  41.822   5.225
 4876POPC   PO463432  27.465  41.567   5.387
 4876POPC   GL163433  27.668  41.687   5.760
 4876POPC   GL263434  27.887  41.992   5.773
 4876POPC   C1A63435  27.638  41.609   6.190
 4876POPC   D2A63436  27.762  41.395   6.569
 4876POPC   C3A63437  27.505  41.513   6.903
 4876POPC   C4A63438  27.288  41.710   7.250
 4876POPC   C1B63439  27.838  42.074   6.236
 4876POPC   C2B63440  27.927  41.869   6.648
 4876POPC   C3B63441  27.844  41.826   7.106
 4876POPC   C4B63442  28.087  41.642   7.501
 4877POPC   NC363443   0.629  44.131   5.181
 4877POPC   PO463444   0.204  43.643   5.364
 4877POPC   GL163445   0.319  43.756   5.791
 4877POPC   GL263446   0.669  43.865   5.816
 4877POPC   C1A63447   0.137  43.739   6.203
 4877POPC   D2A63448   0.322  43.933   6.546
 4877POPC   C3A63449   0.175  43.806   6.931
 4877POPC   C4A63450   0.255  44.089   7.244
 4877POPC   C1B63451   0.825  44.009   6.227
 4877POPC   C2B63452   0.959  43.855   6.608
 4877POPC   C3B63453   0.679  43.978   6.957
 4877POPC   C4B63454   0.712  43.937   7.388
 4878POPC   NC363455  13.993   9.588   5.187
 4878POPC   PO463456  13.629  10.239   5.333
 4878POPC   GL163457  13.775  10.021   5.771
 4878POPC   GL263458  13.759   9.660   5.857
 4878POPC   C1A63459  13.510   9.951   6.204
 4878POPC   D2A63460  13.402  10.038   6.644
 4878POPC   C3A63461  13.585   9.827   6.999
 4878POPC   C4A63462  13.947   9.995   7.176
 4878POPC   C1B63463  13.773   9.519   6.314
 4878POPC   C2B63464  13.551   9.343   6.693
 4878POPC   C3B63465  13.622   9.342   7.155
 4878POPC   C4B63466  13.754   9.636   7.484
 4879POPC   NC363467  38.937  18.315   5.444
 4879POPC   PO463468  39.617  18.475   5.315
 4879POPC   GL163469  39.335  18.502   5.723
 4879POPC   GL263470  39.148  18.185   5.890
 4879POPC   C1A63471  39.177  18.598   6.174
 4879POPC   D2A63472  39.224  18.360   6.557
 4879POPC   C3A63473  39.293  18.588   6.928
 4879POPC   C4A63474  39.543  18.438   7.259
 4879POPC   C1B63475  38.887  18.024   6.256
 4879POPC   C2B63476  38.770  18.145   6.695
 4879POPC   C3B63477  39.066  18.139   7.055
 4879POPC   C4B63478  39.220  18.051   7.476
 4880POPC   NC363479  20.159  44.459   5.376
 4880POPC   PO463480  19.582  44.703   5.442
 4880POPC   GL163481  19.849  44.567   5.773
 4880POPC   GL263482  19.790  44.895   5.882
 4880POPC   C1A63483  19.802  44.484   6.211
 4880POPC   D2A63484  19.948  44.675   6.610
 4880POPC   C3A63485  19.938  44.460   6.994
 4880POPC   C4A63486  20.037  44.574   7.430
 4880POPC   C1B63487  19.649  44.987   6.288
 4880POPC   C2B63488  19.459  44.796   6.639
 4880POPC   C3B63489  19.554  44.858   7.051
 4880POPC   C4B63490  19.542  44.519   7.330
 4881POPC   NC363491  24.655  35.774   5.460
 4881POPC   PO463492  24.391  36.349   5.572
 4881POPC   GL163493  24.614  36.137   5.837
 4881POPC   GL263494  24.372  35.880   5.860
 4881POPC   C1A63495  24.734  36.250   6.215
 4881POPC   D2A63496  24.501  36.350   6.587
 4881POPC   C3A63497  24.602  36.259   7.026
 4881POPC   C4A63498  24.737  36.012   7.415
 4881POPC   C1B63499  24.299  35.908   6.252
 4881POPC   C2B63500  24.235  35.708   6.625
 4881POPC   C3B63501  24.204  35.901   6.979
 4881POPC   C4B63502  24.243  36.032   7.367
 4882POPC   NC363503  34.039  22.677   5.433
 4882POPC   PO463504  33.633  23.307   5.468
 4882POPC   GL163505  33.865  23.083   5.810
 4882POPC   GL263506  33.762  22.715   5.869
 4882POPC   C1A63507  33.863  22.987   6.283
 4882POPC   D2A63508  33.824  22.748   6.664
 4882POPC   C3A63509  33.716  23.035   7.016
 4882POPC   C4A63510  33.484  23.176   7.380
 4882POPC   C1B63511  33.524  22.573   6.227
 4882POPC   C2B63512  33.338  22.563   6.635
 4882POPC   C3B63513  33.544  22.552   7.049
 4882POPC   C4B63514  33.461  22.685   7.481
 4883POPC   NC363515  11.022  42.415   5.413
 4883POPC   PO463516  11.692  42.257   5.478
 4883POPC   GL163517  11.427  42.453   5.760
 4883POPC   GL263518  11.196  42.184   5.825
 4883POPC   C1A63519  11.437  42.480   6.224
 4883POPC   D2A63520  11.674  42.236   6.559
 4883POPC   C3A63521  11.523  42.306   6.971
 4883POPC   C4A63522  11.367  42.440   7.361
 4883POPC   C1B63523  10.984  42.225   6.218
 4883POPC   C2B63524  11.120  42.344   6.633
 4883POPC   C3B63525  11.052  42.097   7.016
 4883POPC   C4B63526  10.875  41.929   7.408
 4884POPC   NC363527   8.006   3.655   5.159
 4884POPC   PO463528   8.384   3.265   5.393
 4884POPC   GL163529   8.285   3.383   5.803
 4884POPC   GL263530   8.197   3.718   5.719
 4884POPC   C1A63531   8.146   3.292   6.246
 4884POPC   D2A63532   8.260   3.460   6.652
 4884POPC   C3A63533   8.009   3.427   7.025
 4884POPC   C4A63534   8.228   3.560   7.390
 4884POPC   C1B63535   8.024   3.806   6.140
 4884POPC   C2B63536   8.076   4.040   6.549
 4884POPC   C3B63537   8.139   3.922   6.978
 4884POPC   C4B63538   7.794   3.858   7.268
 4885POPC   NC363539  28.833   7.210   5.544
 4885POPC   PO463540  28.510   7.767   5.212
 4885POPC   GL163541  28.505   7.605   5.708
 4885POPC   GL263542  28.249   7.339   5.841
 4885POPC   C1A63543  28.585   7.448   6.185
 4885POPC   D2A63544  28.595   7.199   6.579
 4885POPC   C3A63545  28.545   7.476   6.901
 4885POPC   C4A63546  28.616   7.814   7.201
 4885POPC   C1B63547  28.266   7.028   6.235
 4885POPC   C2B63548  28.158   6.935   6.694
 4885POPC   C3B63549  28.189   7.135   7.118
 4885POPC   C4B63550  28.227   7.442   7.472
 4886POPC   NC363551  22.558  32.129   5.347
 4886POPC   PO463552  23.244  32.262   5.308
 4886POPC   GL163553  22.998  32.162   5.674
 4886POPC   GL263554  22.793  32.428   5.688
 4886POPC   C1A63555  23.018  32.035   6.139
 4886POPC   D2A63556  22.835  31.927   6.545
 4886POPC   C3A63557  22.950  32.252   6.836
 4886POPC   C4A63558  22.914  32.296   7.268
 4886POPC   C1B63559  22.795  32.490   6.099
 4886POPC   C2B63560  22.786  32.605   6.511
 4886POPC   C3B63561  22.931  32.772   6.886
 4886POPC   C4B63562  22.800  32.820   7.286
 4887POPC   NC363563  20.553  18.536   5.472
 4887POPC   PO463564  20.258  17.908   5.483
 4887POPC   GL163565  20.340  18.221   5.815
 4887POPC   GL263566  20.671  18.356   5.928
 4887POPC   C1A63567  20.260  18.476   6.195
 4887POPC   D2A63568  20.571  18.451   6.511
 4887POPC   C3A63569  20.528  18.441   6.954
 4887POPC   C4A63570  20.877  18.446   7.217
 4887POPC   C1B63571  20.569  18.024   6.231
 4887POPC   C2B63572  20.754  17.944   6.613
 4887POPC   C3B63573  20.725  17.967   7.041
 4887POPC   C4B63574  20.939  17.856   7.414
 4888POPC   NC363575  44.486  28.120   5.656
 4888POPC   PO463576  44.543  27.558   5.267
 4888POPC   GL163577  44.720  27.592   5.751
 4888POPC   GL263578  44.833  27.873   5.957
 4888POPC   C1A63579  44.731  27.451   6.243
 4888POPC   D2A63580  44.502  27.426   6.680
 4888POPC   C3A63581  44.741  27.287   7.079
 4888POPC   C4A63582  44.786  27.311   7.564
 4888POPC   C1B63583  44.460  27.892   6.262
 4888POPC   C2B63584  44.322  28.058   6.657
 4888POPC   C3B63585  44.570  27.845   7.002
 4888POPC   C4B63586  44.411  27.603   7.326
 4889POPC   NC363587   4.752   7.727   5.604
 4889POPC   PO463588   4.329   8.302   5.400
 4889POPC   GL163589   4.342   8.296   5.800
 4889POPC   GL263590   4.392   7.980   5.861
 4889POPC   C1A63591   4.348   8.385   6.181
 4889POPC   D2A63592   4.251   8.159   6.508
 4889POPC   C3A63593   4.313   8.369   6.873
 4889POPC   C4A63594   4.444   8.149   7.216
 4889POPC   C1B63595   4.047   7.874   6.118
 4889POPC   C2B63596   3.908   7.788   6.523
 4889POPC   C3B63597   4.079   7.870   6.926
 4889POPC   C4B63598   4.135   7.743   7.356
 4890POPC   NC363599  29.880  37.158   5.397
 4890POPC   PO463600  30.010  36.526   5.447
 4890POPC   GL163601  30.018  36.765   5.796
 4890POPC   GL263602  29.715  36.903   5.915
 4890POPC   C1A63603  29.996  36.616   6.219
 4890POPC   D2A63604  29.738  36.636   6.612
 4890POPC   C3A63605  29.933  36.683   7.044
 4890POPC   C4A63606  29.635  36.806   7.390
 4890POPC   C1B63607  30.015  37.201   6.119
 4890POPC   C2B63608  30.024  37.405   6.534
 4890POPC   C3B63609  30.040  37.226   6.961
 4890POPC   C4B63610  29.883  37.238   7.396
 4891POPC   NC363611   4.446  12.549   5.070
 4891POPC   PO463612   4.365  13.136   5.386
 4891POPC   GL163613   4.477  12.916   5.793
 4891POPC   GL263614   4.519  12.557   5.921
 4891POPC   C1A63615   4.290  12.899   6.217
 4891POPC   D2A63616   4.322  13.076   6.603
 4891POPC   C3A63617   4.470  12.898   6.943
 4891POPC   C4A63618   4.424  13.078   7.330
 4891POPC   C1B63619   4.238  12.400   6.238
 4891POPC   C2B63620   4.200  12.564   6.627
 4891POPC   C3B63621   3.990  12.491   6.974
 4891POPC   C4B63622   4.159  12.649   7.314
 4892POPC   NC363623  42.603  38.915   5.081
 4892POPC   PO463624  42.170  39.360   5.358
 4892POPC   GL163625  42.314  39.321   5.784
 4892POPC   GL263626  42.634  39.368   5.850
 4892POPC   C1A63627  42.175  39.210   6.212
 4892POPC   D2A63628  42.388  39.315   6.596
 4892POPC   C3A63629  42.162  39.172   6.934
 4892POPC   C4A63630  42.075  39.308   7.341
 4892POPC   C1B63631  42.669  39.074   6.209
 4892POPC   C2B63632  42.586  38.833   6.580
 4892POPC   C3B63633  42.729  38.881   7.005
 4892POPC   C4B63634  42.488  38.973   7.327
 4893POPC   NC363635  22.782  17.738   5.510
 4893POPC   PO463636  23.250  17.343   5.378
 4893POPC   GL163637  23.138  17.482   5.780
 4893POPC   GL263638  23.330  17.319   6.007
 4893POPC   C1A63639  22.944  17.585   6.181
 4893POPC   D2A63640  23.171  17.733   6.558
 4893POPC   C3A63641  23.060  17.695   6.997
 4893POPC   C4A63642  23.305  17.645   7.377
 4893POPC   C1B63643  23.146  17.196   6.412
 4893POPC   C2B63644  22.804  17.356   6.656
 4893POPC   C3B63645  22.817  17.244   7.076
 4893POPC   C4B63646  23.158  17.151   7.403
 4894POPC   NC363647  42.820   6.723   5.526
 4894POPC   PO463648  43.220   6.214   5.295
 4894POPC   GL163649  43.246   6.458   5.710
 4894POPC   GL263650  43.296   6.838   5.738
 4894POPC   C1A63651  43.256   6.512   6.175
 4894POPC   D2A63652  43.430   6.310   6.568
 4894POPC   C3A63653  43.178   6.197   6.965
 4894POPC   C4A63654  43.170   6.422   7.380
 4894POPC   C1B63655  43.044   6.989   6.120
 4894POPC   C2B63656  42.930   6.832   6.552
 4894POPC   C3B63657  43.136   6.723   6.937
 4894POPC   C4B63658  42.936   6.860   7.300
 4895POPC   NC363659  34.918  26.726   5.485
 4895POPC   PO463660  35.518  27.009   5.280
 4895POPC   GL163661  35.447  26.816   5.685
 4895POPC   GL263662  35.169  26.950   5.880
 4895POPC   C1A63663  35.508  26.658   6.122
 4895POPC   D2A63664  35.277  26.816   6.503
 4895POPC   C3A63665  35.235  26.608   6.907
 4895POPC   C4A63666  34.977  26.455   7.220
 4895POPC   C1B63667  35.470  27.166   6.156
 4895POPC   C2B63668  35.657  27.151   6.604
 4895POPC   C3B63669  35.387  27.085   6.983
 4895POPC   C4B63670  35.353  27.227   7.416
 4896POPC   NC363671  44.063  28.895   5.586
 4896POPC   PO463672  44.574  29.256   5.241
 4896POPC   GL163673  44.637  29.263   5.675
 4896POPC   GL263674  44.814  28.971   5.720
 4896POPC   C1A63675  44.678  29.317   6.109
 4896POPC   D2A63676  44.626  29.147   6.529
 4896POPC   C3A63677  44.853  29.326   6.889
 4896POPC   C4A63678  44.703  29.279   7.323
 4896POPC   C1B63679  44.836  28.825   6.150
 4896POPC   C2B63680  44.828  28.676   6.571
 4896POPC   C3B63681  44.709  28.841   6.984
 4896POPC   C4B63682  44.736  28.769   7.452
 4897POPC   NC363683  42.278  19.591   5.416
 4897POPC   PO463684  42.709  20.023   5.451
 4897POPC   GL163685  42.355  20.049   5.755
 4897POPC   GL263686  42.324  19.698   5.934
 4897POPC   C1A63687  42.259  20.148   6.201
 4897POPC   D2A63688  42.287  19.858   6.563
 4897POPC   C3A63689  42.033  19.931   6.929
 4897POPC   C4A63690  42.038  19.797   7.362
 4897POPC   C1B63691  42.619  19.495   6.270
 4897POPC   C2B63692  42.692  19.560   6.720
 4897POPC   C3B63693  42.377  19.556   7.053
 4897POPC   C4B63694  42.406  19.377   7.466
 4898POPC   NC363695  10.546  31.577   5.491
 4898POPC   PO463696   9.933  31.300   5.540
 4898POPC   GL163697  10.189  31.391   5.844
 4898POPC   GL263698  10.220  31.737   5.868
 4898POPC   C1A63699  10.406  31.354   6.215
 4898POPC   D2A63700  10.492  31.516   6.626
 4898POPC   C3A63701  10.450  31.256   6.946
 4898POPC   C4A63702  10.669  31.362   7.268
 4898POPC   C1B63703  10.408  31.870   6.244
 4898POPC   C2B63704  10.470  32.020   6.671
 4898POPC   C3B63705  10.520  31.827   7.093
 4898POPC   C4B63706  10.248  31.739   7.473
 4899POPC   NC363707  41.502  34.912   5.448
 4899POPC   PO463708  41.391  34.286   5.546
 4899POPC   GL163709  41.654  34.469   5.850
 4899POPC   GL263710  41.826  34.786   5.814
 4899POPC   C1A63711  41.544  34.345   6.268
 4899POPC   D2A63712  41.404  34.571   6.633
 4899POPC   C3A63713  41.574  34.498   7.055
 4899POPC   C4A63714  41.969  34.572   7.303
 4899POPC   C1B63715  41.569  34.858   6.205
 4899POPC   C2B63716  41.360  35.077   6.559
 4899POPC   C3B63717  41.282  34.940   6.983
 4899POPC   C4B63718  41.530  34.907   7.361
 4900POPC   NC363719  19.660  27.384   5.431
 4900POPC   PO463720  20.228  27.735   5.415
 4900POPC   GL163721  19.982  27.585   5.793
 4900POPC   GL263722  19.600  27.543   5.919
 4900POPC   C1A63723  20.031  27.443   6.207
 4900POPC   D2A63724  19.863  27.377   6.607
 4900POPC   C3A63725  20.044  27.499   6.999
 4900POPC   C4A63726  19.913  27.298   7.360
 4900POPC   C1B63727  19.360  27.884   6.180
 4900POPC   C2B63728  19.448  28.010   6.598
 4900POPC   C3B63729  19.565  27.767   6.955
 4900POPC   C4B63730  19.368  27.699   7.341
 4901POPC   NC363731  18.544  25.850   5.483
 4901POPC   PO463732  18.002  26.192   5.286
 4901POPC   GL163733  18.138  26.070   5.734
 4901POPC   GL263734  18.440  26.205   5.832
 4901POPC   C1A63735  18.095  26.032   6.195
 4901POPC   D2A63736  18.265  25.885   6.594
 4901POPC   C3A63737  18.287  26.179   6.937
 4901POPC   C4A63738  18.097  26.216   7.347
 4901POPC   C1B63739  18.621  26.027   6.208
 4901POPC   C2B63740  18.733  26.138   6.615
 4901POPC   C3B63741  18.687  25.816   6.886
 4901POPC   C4B63742  18.348  25.686   7.142
 4902POPC   NC363743  31.654  43.945   5.016
 4902POPC   PO463744  31.132  43.684   5.427
 4902POPC   GL163745  31.174  43.718   5.873
 4902POPC   GL263746  31.393  43.924   5.964
 4902POPC   C1A63747  30.991  43.889   6.272
 4902POPC   D2A63748  31.133  44.202   6.582
 4902POPC   C3A63749  31.297  43.938   6.855
 4902POPC   C4A63750  31.128  43.727   7.207
 4902POPC   C1B63751  31.497  43.889   6.385
 4902POPC   C2B63752  31.875  43.953   6.600
 4902POPC   C3B63753  31.955  44.034   7.038
 4902POPC   C4B63754  31.564  44.026   7.255
 4903POPC   NC363755  39.853   9.504   5.353
 4903POPC   PO463756  40.433   9.825   5.168
 4903POPC   GL163757  40.264   9.688   5.628
 4903POPC   GL263758  39.921   9.730   5.791
 4903POPC   C1A63759  40.224   9.538   6.113
 4903POPC   D2A63760  40.236   9.688   6.572
 4903POPC   C3A63761  39.924   9.625   6.929
 4903POPC   C4A63762  39.709   9.983   7.130
 4903POPC   C1B63763  39.917   9.936   6.212
 4903POPC   C2B63764  39.936  10.097   6.644
 4903POPC   C3B63765  40.207  10.062   7.007
 4903POPC   C4B63766  40.112  10.185   7.417
 4904POPC   NC363767   9.139  15.686   5.293
 4904POPC   PO463768   8.820  16.229   5.207
 4904POPC   GL163769   9.025  16.070   5.638
 4904POPC   GL263770   8.762  16.115   5.855
 4904POPC   C1A63771   9.257  15.919   6.083
 4904POPC   D2A63772   9.075  15.865   6.528
 4904POPC   C3A63773   9.306  15.749   6.911
 4904POPC   C4A63774   9.181  15.915   7.306
 4904POPC   C1B63775   8.658  15.886   6.230
 4904POPC   C2B63776   8.589  15.669   6.632
 4904POPC   C3B63777   8.777  15.796   7.017
 4904POPC   C4B63778   8.706  16.178   7.277
 4905POPC   NC363779  43.009  11.895   5.390
 4905POPC   PO463780  43.640  11.698   5.523
 4905POPC   GL163781  43.423  11.646   5.891
 4905POPC   GL263782  43.152  11.866   5.894
 4905POPC   C1A63783  43.323  11.659   6.342
 4905POPC   D2A63784  43.230  11.921   6.682
 4905POPC   C3A63785  43.282  11.852   7.103
 4905POPC   C4A63786  42.966  11.969   7.387
 4905POPC   C1B63787  42.919  12.031   6.272
 4905POPC   C2B63788  42.881  12.308   6.668
 4905POPC   C3B63789  43.088  12.381   7.092
 4905POPC   C4B63790  43.271  12.651   7.439
 4906POPC   NC363791  18.041  29.474   5.340
 4906POPC   PO463792  18.279  28.799   5.277
 4906POPC   GL163793  18.283  29.067   5.697
 4906POPC   GL263794  18.549  29.314   5.635
 4906POPC   C1A63795  18.231  29.061   6.196
 4906POPC   D2A63796  18.285  28.920   6.650
 4906POPC   C3A63797  18.060  29.009   7.056
 4906POPC   C4A63798  18.033  28.924   7.519
 4906POPC   C1B63799  18.574  29.441   6.070
 4906POPC   C2B63800  18.562  29.341   6.519
 4906POPC   C3B63801  18.580  29.191   6.970
 4906POPC   C4B63802  18.323  29.369   7.309
 4907POPC   NC363803  24.598  33.377   5.385
 4907POPC   PO463804  24.533  34.003   5.165
 4907POPC   GL163805  24.503  33.983   5.661
 4907POPC   GL263806  24.203  34.112   5.816
 4907POPC   C1A63807  24.423  33.709   6.077
 4907POPC   D2A63808  24.269  33.434   6.471
 4907POPC   C3A63809  24.507  33.513   6.866
 4907POPC   C4A63810  24.645  33.889   7.053
 4907POPC   C1B63811  24.325  34.236   6.209
 4907POPC   C2B63812  24.567  34.051   6.532
 4907POPC   C3B63813  24.219  33.918   6.755
 4907POPC   C4B63814  24.128  33.903   7.170
 4908POPC   NC363815  34.927  33.509   5.531
 4908POPC   PO463816  34.437  34.052   5.531
 4908POPC   GL163817  34.641  33.782   5.853
 4908POPC   GL263818  34.982  33.906   5.899
 4908POPC   C1A63819  34.865  33.559   6.243
 4908POPC   D2A63820  34.670  33.529   6.654
 4908POPC   C3A63821  34.744  33.734   7.060
 4908POPC   C4A63822  34.485  34.014   7.310
 4908POPC   C1B63823  34.658  34.014   6.308
 4908POPC   C2B63824  34.601  34.139   6.774
 4908POPC   C3B63825  34.813  34.356   7.154
 4908POPC   C4B63826  34.810  34.296   7.643
 4909POPC   NC363827   6.264  32.356   5.413
 4909POPC   PO463828   6.906  32.565   5.390
 4909POPC   GL163829   6.803  32.392   5.803
 4909POPC   GL263830   6.465  32.259   5.873
 4909POPC   C1A63831   6.807  32.330   6.256
 4909POPC   D2A63832   6.668  32.430   6.665
 4909POPC   C3A63833   6.944  32.299   6.960
 4909POPC   C4A63834   6.939  32.189   7.393
 4909POPC   C1B63835   6.288  32.302   6.300
 4909POPC   C2B63836   6.173  31.968   6.620
 4909POPC   C3B63837   6.240  31.964   7.052
 4909POPC   C4B63838   6.462  32.245   7.288
 4910POPC   NC363839   8.667   0.409   5.258
 4910POPC   PO463840   9.324   0.384   5.289
 4910POPC   GL163841   9.067   0.313   5.629
 4910POPC   GL263842   9.321   0.440   5.800
 4910POPC   C1A63843   8.967   0.259   6.103
 4910POPC   D2A63844   8.780   0.519   6.415
 4910POPC   C3A63845   8.837   0.433   6.849
 4910POPC   C4A63846   9.019   0.102   7.097
 4910POPC   C1B63847   9.284   0.661   6.155
 4910POPC   C2B63848   9.273   0.478   6.521
 4910POPC   C3B63849   9.341   0.445   6.909
 4910POPC   C4B63850   9.154   0.563   7.268
 4911POPC   NC363851  13.459   4.087   5.281
 4911POPC   PO463852  13.845   4.607   5.442
 4911POPC   GL163853  13.513   4.341   5.727
 4911POPC   GL263854  13.412   3.953   5.770
 4911POPC   C1A63855  13.372   4.347   6.166
 4911POPC   D2A63856  13.620   4.494   6.491
 4911POPC   C3A63857  13.573   4.351   6.902
 4911POPC   C4A63858  13.740   4.566   7.250
 4911POPC   C1B63859  13.658   3.920   6.148
 4911POPC   C2B63860  13.541   3.933   6.571
 4911POPC   C3B63861  13.784   3.897   6.927
 4911POPC   C4B63862  13.679   4.064   7.341
 4912POPC   NC363863  24.727  20.085   5.487
 4912POPC   PO463864  24.414  19.469   5.600
 4912POPC   GL163865  24.675  19.686   5.825
 4912POPC   GL263866  24.442  19.968   5.878
 4912POPC   C1A63867  24.628  19.673   6.260
 4912POPC   D2A63868  24.375  19.747   6.619
 4912POPC   C3A63869  24.664  19.788   6.896
 4912POPC   C4A63870  24.743  20.087   7.183
 4912POPC   C1B63871  24.343  20.129   6.277
 4912POPC   C2B63872  24.323  20.265   6.712
 4912POPC   C3B63873  24.246  20.004   7.077
 4912POPC   C4B63874  24.417  19.723   7.354
 4913POPC   NC363875  11.978  24.749   5.227
 4913POPC   PO463876  12.046  25.428   5.372
 4913POPC   GL163877  12.014  25.355   5.907
 4913POPC   GL263878  12.253  25.064   6.075
 4913POPC   C1A63879  12.060  25.429   6.355
 4913POPC   D2A63880  12.161  25.173   6.692
 4913POPC   C3A63881  12.104  25.401   7.065
 4913POPC   C4A63882  12.192  25.171   7.441
 4913POPC   C1B63883  11.855  24.954   6.304
 4913POPC   C2B63884  11.633  25.031   6.690
 4913POPC   C3B63885  11.832  24.944   7.124
 4913POPC   C4B63886  11.766  24.885   7.601
 4914POPC   NC363887   5.011  31.312   5.394
 4914POPC   PO463888   5.363  30.815   5.553
 4914POPC   GL163889   5.227  31.174   5.852
 4914POPC   GL263890   5.231  31.544   5.820
 4914POPC   C1A63891   5.160  31.310   6.289
 4914POPC   D2A63892   5.159  31.523   6.693
 4914POPC   C3A63893   5.049  31.389   7.125
 4914POPC   C4A63894   5.017  31.145   7.525
 4914POPC   C1B63895   5.385  31.787   6.209
 4914POPC   C2B63896   5.443  31.923   6.664
 4914POPC   C3B63897   5.235  31.866   7.102
 4914POPC   C4B63898   5.027  32.049   7.491
 4915POPC   NC363899   5.695  32.741   5.488
 4915POPC   PO463900   5.509  33.342   5.394
 4915POPC   GL163901   5.715  33.206   5.774
 4915POPC   GL263902   6.058  33.249   5.710
 4915POPC   C1A63903   5.688  33.149   6.253
 4915POPC   D2A63904   5.752  32.899   6.675
 4915POPC   C3A63905   5.553  33.031   7.088
 4915POPC   C4A63906   5.514  32.977   7.554
 4915POPC   C1B63907   6.123  33.409   6.145
 4915POPC   C2B63908   6.043  33.314   6.591
 4915POPC   C3B63909   5.960  33.381   7.022
 4915POPC   C4B63910   5.995  33.043   7.340
 4916POPC   NC363911  34.525   7.052   5.527
 4916POPC   PO463912  34.308   7.619   5.344
 4916POPC   GL163913  34.613   7.503   5.736
 4916POPC   GL263914  34.375   7.323   5.924
 4916POPC   C1A63915  34.788   7.375   6.189
 4916POPC   D2A63916  34.893   7.580   6.602
 4916POPC   C3A63917  34.826   7.396   7.044
 4916POPC   C4A63918  34.708   7.102   7.362
 4916POPC   C1B63919  34.262   7.158   6.309
 4916POPC   C2B63920  34.178   6.995   6.712
 4916POPC   C3B63921  34.366   7.230   6.999
 4916POPC   C4B63922  34.330   7.526   7.311
 4917POPC   NC363923  44.072  42.751   5.492
 4917POPC   PO463924  43.628  43.192   5.404
 4917POPC   GL163925  43.701  43.219   5.827
 4917POPC   GL263926  44.032  43.152   5.821
 4917POPC   C1A63927  43.758  43.034   6.239
 4917POPC   D2A63928  43.635  42.820   6.603
 4917POPC   C3A63929  43.866  43.018   6.934
 4917POPC   C4A63930  43.756  43.110   7.358
 4917POPC   C1B63931  44.199  43.347   6.169
 4917POPC   C2B63932  44.335  43.338   6.589
 4917POPC   C3B63933  44.303  43.663   6.872
 4917POPC   C4B63934  44.037  43.616   7.218
 4918POPC   NC363935  12.101  17.760   5.121
 4918POPC   PO463936  12.149  18.400   5.317
 4918POPC   GL163937  12.143  18.267   5.763
 4918POPC   GL263938  11.807  18.128   5.768
 4918POPC   C1A63939  12.261  18.389   6.215
 4918POPC   D2A63940  12.129  18.169   6.624
 4918POPC   C3A63941  12.266  18.247   7.050
 4918POPC   C4A63942  12.448  18.616   7.227
 4918POPC   C1B63943  11.908  18.029   6.186
 4918POPC   C2B63944  11.694  17.893   6.573
 4918POPC   C3B63945  11.767  18.116   6.966
 4918POPC   C4B63946  11.849  18.298   7.349
 4919POPC   NC363947  37.060  16.934   5.480
 4919POPC   PO463948  36.514  16.485   5.399
 4919POPC   GL163949  36.590  16.690   5.836
 4919POPC   GL263950  36.703  17.023   5.842
 4919POPC   C1A63951  36.922  16.733   6.219
 4919POPC   D2A63952  37.177  16.890   6.625
 4919POPC   C3A63953  37.099  16.680   7.039
 4919POPC   C4A63954  36.781  16.399   7.230
 4919POPC   C1B63955  36.461  17.135   6.224
 4919POPC   C2B63956  36.398  17.149   6.656
 4919POPC   C3B63957  36.635  16.894   6.958
 4919POPC   C4B63958  36.811  16.952   7.372
 4920POPC   NC363959   6.295   6.467   5.512
 4920POPC   PO463960   5.824   7.074   5.490
 4920POPC   GL163961   5.954   6.740   5.843
 4920POPC   GL263962   6.063   6.374   5.935
 4920POPC   C1A63963   5.782   6.633   6.258
 4920POPC   D2A63964   5.934   6.471   6.626
 4920POPC   C3A63965   5.919   6.860   6.807
 4920POPC   C4A63966   5.768   7.095   7.113
 4920POPC   C1B63967   6.270   6.185   6.298
 4920POPC   C2B63968   6.331   6.165   6.745
 4920POPC   C3B63969   5.989   6.140   7.053
 4920POPC   C4B63970   5.761   6.508   7.133
 4921POPC   NC363971  42.169  42.256   5.527
 4921POPC   PO463972  42.710  42.741   5.373
 4921POPC   GL163973  42.556  42.538   5.750
 4921POPC   GL263974  42.634  42.211   5.807
 4921POPC   C1A63975  42.363  42.456   6.190
 4921POPC   D2A63976  42.521  42.705   6.557
 4921POPC   C3A63977  42.438  42.535   6.943
 4921POPC   C4A63978  42.101  42.471   7.220
 4921POPC   C1B63979  42.693  42.039   6.209
 4921POPC   C2B63980  42.504  42.011   6.633
 4921POPC   C3B63981  42.244  42.050   6.967
 4921POPC   C4B63982  42.092  41.949   7.348
 4922POPC   NC363983  18.794  10.776   5.798
 4922POPC   PO463984  19.215  10.493   5.257
 4922POPC   GL163985  19.135  10.380   5.760
 4922POPC   GL263986  18.844  10.225   5.923
 4922POPC   C1A63987  19.258  10.276   6.208
 4922POPC   D2A63988  19.278  10.225   6.660
 4922POPC   C3A63989  19.149  10.551   6.890
 4922POPC   C4A63990  19.363  10.770   7.191
 4922POPC   C1B63991  18.699  10.420   6.314
 4922POPC   C2B63992  18.563  10.406   6.717
 4922POPC   C3B63993  18.771  10.226   7.043
 4922POPC   C4B63994  18.739  10.225   7.492
 4923POPC   NC363995   7.779  25.231   5.460
 4923POPC   PO463996   7.193  24.986   5.536
 4923POPC   GL163997   7.498  25.158   5.878
 4923POPC   GL263998   7.643  25.510   5.876
 4923POPC   C1A63999   7.757  25.067   6.266
 4923POPC   D2A64000   7.768  24.974   6.731
 4923POPC   C3A64001   7.405  25.155   7.034
 4923POPC   C4A64002   7.042  25.138   7.375
 4923POPC   C1B64003   7.944  25.548   6.268
 4923POPC   C2B64004   7.806  25.495   6.734
 4923POPC   C3B64005   7.768  25.468   7.191
 4923POPC   C4B64006   7.432  25.451   7.485
 4924POPC   NC364007   3.005  29.332   5.502
 4924POPC   PO464008   2.534  28.981   5.262
 4924POPC   GL164009   2.715  28.975   5.779
 4924POPC   GL264010   3.019  29.150   5.980
 4924POPC   C1A64011   2.648  29.000   6.291
 4924POPC   D2A64012   2.826  29.062   6.754
 4924POPC   C3A64013   2.601  28.868   7.148
 4924POPC   C4A64014   2.423  29.052   7.554
 4924POPC   C1B64015   3.292  28.924   6.301
 4924POPC   C2B64016   3.244  28.704   6.715
 4924POPC   C3B64017   3.126  28.787   7.127
 4924POPC   C4B64018   3.315  29.143   7.384
 4925POPC   NC364019  32.521  37.850   5.357
 4925POPC   PO464020  31.818  37.561   5.316
 4925POPC   GL164021  32.035  37.758   5.663
 4925POPC   GL264022  32.370  37.674   5.816
 4925POPC   C1A64023  31.949  37.830   6.107
 4925POPC   D2A64024  32.040  37.552   6.465
 4925POPC   C3A64025  32.004  37.694   6.895
 4925POPC   C4A64026  32.257  37.783   7.236
 4925POPC   C1B64027  32.462  37.777   6.248
 4925POPC   C2B64028  32.430  37.855   6.693
 4925POPC   C3B64029  32.526  38.144   7.026
 4925POPC   C4B64030  32.652  38.022   7.446
 4926POPC   NC364031  10.749  34.095   5.044
 4926POPC   PO464032  10.566  33.578   5.487
 4926POPC   GL164033  10.414  33.763   5.857
 4926POPC   GL264034  10.221  34.012   5.845
 4926POPC   C1A64035  10.264  33.793   6.331
 4926POPC   D2A64036  10.567  33.904   6.726
 4926POPC   C3A64037  10.468  33.806   7.188
 4926POPC   C4A64038  10.580  33.517   7.526
 4926POPC   C1B64039  10.618  34.108   6.153
 4926POPC   C2B64040  10.780  34.341   6.491
 4926POPC   C3B64041  10.648  34.436   6.887
 4926POPC   C4B64042  10.645  34.265   7.288
 4927POPC   NC364043  44.093  26.577   5.516
 4927POPC   PO464044  43.686  27.057   5.382
 4927POPC   GL164045  43.793  26.900   5.763
 4927POPC   GL264046  43.600  26.594   5.732
 4927POPC   C1A64047  44.046  26.777   6.152
 4927POPC   D2A64048  44.089  26.545   6.538
 4927POPC   C3A64049  43.967  26.605   6.978
 4927POPC   C4A64050  44.051  26.844   7.362
 4927POPC   C1B64051  43.546  26.724   6.163
 4927POPC   C2B64052  43.677  26.866   6.562
 4927POPC   C3B64053  43.492  26.803   6.954
 4927POPC   C4B64054  43.567  26.699   7.350
 4928POPC   NC364055  16.350  10.570   5.339
 4928POPC   PO464056  15.764  10.350   5.175
 4928POPC   GL164057  15.755  10.547   5.644
 4928POPC   GL264058  16.022  10.390   5.771
 4928POPC   C1A64059  15.740  10.677   6.120
 4928POPC   D2A64060  15.616  10.517   6.585
 4928POPC   C3A64061  15.872  10.465   6.998
 4928POPC   C4A64062  16.195  10.134   7.143
 4928POPC   C1B64063  16.145  10.372   6.197
 4928POPC   C2B64064  16.184  10.561   6.594
 4928POPC   C3B64065  16.377  10.611   6.997
 4928POPC   C4B64066  16.240  10.788   7.357
 4929POPC   NC364067  36.634  14.540   5.356
 4929POPC   PO464068  37.214  14.753   5.385
 4929POPC   GL164069  36.964  14.551   5.777
 4929POPC   GL264070  36.651  14.720   5.896
 4929POPC   C1A64071  36.878  14.396   6.244
 4929POPC   D2A64072  36.616  14.411   6.661
 4929POPC   C3A64073  36.772  14.272   7.095
 4929POPC   C4A64074  36.963  14.124   7.500
 4929POPC   C1B64075  36.702  14.867   6.353
 4929POPC   C2B64076  36.609  14.897   6.812
 4929POPC   C3B64077  36.753  14.776   7.249
 4929POPC   C4B64078  36.689  14.967   7.667
 4930POPC   NC364079  41.546   2.321   5.165
 4930POPC   PO464080  41.465   1.718   5.418
 4930POPC   GL164081  41.756   1.986   5.624
 4930POPC   GL264082  41.623   2.334   5.741
 4930POPC   C1A64083  41.834   1.991   6.062
 4930POPC   D2A64084  41.757   2.157   6.468
 4930POPC   C3A64085  41.630   1.903   6.815
 4930POPC   C4A64086  41.705   1.882   7.236
 4930POPC   C1B64087  41.384   2.271   6.143
 4930POPC   C2B64088  41.363   2.498   6.509
 4930POPC   C3B64089  41.508   2.401   6.896
 4930POPC   C4B64090  41.286   2.159   7.155
 4931POPC   NC364091  29.309  22.037   5.252
 4931POPC   PO464092  28.739  22.071   5.230
 4931POPC   GL164093  28.972  22.040   5.642
 4931POPC   GL264094  29.202  22.342   5.730
 4931POPC   C1A64095  29.010  22.068   6.101
 4931POPC   D2A64096  29.235  21.996   6.502
 4931POPC   C3A64097  29.025  22.072   6.898
 4931POPC   C4A64098  29.201  21.983   7.298
 4931POPC   C1B64099  29.259  22.490   6.224
 4931POPC   C2B64100  29.238  22.481   6.690
 4931POPC   C3B64101  29.231  22.482   7.157
 4931POPC   C4B64102  29.053  22.447   7.567
 4932POPC   NC364103  42.444  44.941   5.196
 4932POPC   PO464104  42.215  44.344   5.317
 4932POPC   GL164105  42.276  44.628   5.695
 4932POPC   GL264106  42.135  44.418   5.907
 4932POPC   C1A64107  42.486  44.685   6.149
 4932POPC   D2A64108  42.679  44.990   6.431
 4932POPC   C3A64109  42.658  44.806   6.846
 4932POPC   C4A64110  42.487  44.798   7.277
 4932POPC   C1B64111  41.977  44.384   6.321
 4932POPC   C2B64112  41.823  44.620   6.672
 4932POPC   C3B64113  42.009  44.729   7.068
 4932POPC   C4B64114  42.116  44.465   7.424
 4933POPC   NC364115  18.687  36.242   5.586
 4933POPC   PO464116  18.051  36.319   5.318
 4933POPC   GL164117  18.193  36.237   5.759
 4933POPC   GL264118  18.328  35.892   5.781
 4933POPC   C1A64119  18.312  36.359   6.225
 4933POPC   D2A64120  18.088  36.298   6.645
 4933POPC   C3A64121  18.205  36.392   7.071
 4933POPC   C4A64122  18.485  36.612   7.338
 4933POPC   C1B64123  18.062  35.935   6.167
 4933POPC   C2B64124  18.106  35.800   6.603
 4933POPC   C3B64125  18.360  35.934   6.960
 4933POPC   C4B64126  18.334  35.977   7.427
 4934POPC   NC364127  36.633  23.344   5.532
 4934POPC   PO464128  37.129  22.796   5.356
 4934POPC   GL164129  36.970  22.878   5.789
 4934POPC   GL264130  36.943  22.566   5.833
 4934POPC   C1A64131  36.841  22.972   6.267
 4934POPC   D2A64132  36.801  23.306   6.587
 4934POPC   C3A64133  36.852  23.148   7.010
 4934POPC   C4A64134  36.911  22.833   7.309
 4934POPC   C1B64135  36.613  22.571   6.085
 4934POPC   C2B64136  36.459  22.676   6.488
 4934POPC   C3B64137  36.619  22.662   6.894
 4934POPC   C4B64138  36.547  22.461   7.277
 4935POPC   NC364139  24.137  43.653   5.582
 4935POPC   PO464140  23.655  44.011   5.297
 4935POPC   GL164141  23.769  44.047   5.729
 4935POPC   GL264142  23.655  43.725   5.839
 4935POPC   C1A64143  23.598  44.145   6.151
 4935POPC   D2A64144  23.568  43.960   6.573
 4935POPC   C3A64145  23.647  44.192   6.961
 4935POPC   C4A64146  23.711  43.953   7.322
 4935POPC   C1B64147  23.410  43.597   6.213
 4935POPC   C2B64148  23.403  43.446   6.638
 4935POPC   C3B64149  23.530  43.533   7.071
 4935POPC   C4B64150  23.388  43.484   7.519
 4936POPC   NC364151  24.806  41.228   5.363
 4936POPC   PO464152  24.222  41.598   5.271
 4936POPC   GL164153  24.461  41.456   5.693
 4936POPC   GL264154  24.705  41.716   5.820
 4936POPC   C1A64155  24.377  41.279   6.144
 4936POPC   D2A64156  24.297  41.096   6.582
 4936POPC   C3A64157  24.448  41.317   6.951
 4936POPC   C4A64158  24.208  41.635   7.156
 4936POPC   C1B64159  24.425  41.803   6.159
 4936POPC   C2B64160  24.365  41.684   6.579
 4936POPC   C3B64161  24.631  41.796   6.907
 4936POPC   C4B64162  24.572  41.955   7.311
 4937POPC   NC364163  35.182  23.884   5.441
 4937POPC   PO464164  35.789  23.577   5.558
 4937POPC   GL164165  35.428  23.614   5.865
 4937POPC   GL264166  35.161  23.863   5.948
 4937POPC   C1A64167  35.216  23.483   6.269
 4937POPC   D2A64168  35.102  23.594   6.697
 4937POPC   C3A64169  35.427  23.563   7.024
 4937POPC   C4A64170  35.685  23.900   7.213
 4937POPC   C1B64171  35.499  23.949   6.283
 4937POPC   C2B64172  35.514  24.089   6.741
 4937POPC   C3B64173  35.188  24.014   7.081
 4937POPC   C4B64174  35.280  23.988   7.555
 4938POPC   NC364175  24.925  34.125   5.384
 4938POPC   PO464176  25.685  34.358   5.447
 4938POPC   GL164177  25.339  34.504   5.758
 4938POPC   GL264178  25.172  34.866   5.749
 4938POPC   C1A64179  25.258  34.573   6.210
 4938POPC   D2A64180  25.574  34.534   6.533
 4938POPC   C3A64181  25.447  34.399   6.946
 4938POPC   C4A64182  25.035  34.430   7.198
 4938POPC   C1B64183  25.532  34.972   6.047
 4938POPC   C2B64184  25.605  35.061   6.513
 4938POPC   C3B64185  25.395  34.917   6.891
 4938POPC   C4B64186  25.398  34.752   7.303
 4939POPC   NC364187  41.068  44.068   5.233
 4939POPC   PO464188  40.578  43.625   5.431
 4939POPC   GL164189  40.788  43.796   5.777
 4939POPC   GL264190  41.116  43.962   5.740
 4939POPC   C1A64191  40.691  43.700   6.194
 4939POPC   D2A64192  40.716  43.827   6.611
 4939POPC   C3A64193  40.444  43.881   6.928
 4939POPC   C4A64194  40.678  43.882   7.283
 4939POPC   C1B64195  41.030  44.084   6.171
 4939POPC   C2B64196  41.009  44.279   6.561
 4939POPC   C3B64197  40.985  44.128   6.962
 4939POPC   C4B64198  41.048  44.375   7.330
 4940POPC   NC364199  38.839  42.507   5.485
 4940POPC   PO464200  39.324  42.024   5.418
 4940POPC   GL164201  39.122  42.181   5.795
 4940POPC   GL264202  39.138  42.533   5.891
 4940POPC   C1A64203  39.179  42.192   6.253
 4940POPC   D2A64204  39.056  42.353   6.642
 4940POPC   C3A64205  38.990  42.072   6.979
 4940POPC   C4A64206  39.164  42.127   7.382
 4940POPC   C1B64207  38.837  42.644   6.215
 4940POPC   C2B64208  38.610  42.598   6.638
 4940POPC   C3B64209  38.831  42.607   7.055
 4940POPC   C4B64210  38.894  42.539   7.507
 4941POPC   NC364211   0.112  10.943   5.426
 4941POPC   PO464212   0.777  11.222   5.240
 4941POPC   GL164213   0.482  11.294   5.583
 4941POPC   GL264214   0.644  11.077   5.812
 4941POPC   C1A64215   0.431  11.505   6.003
 4941POPC   D2A64216   0.470  11.738   6.396
 4941POPC   C3A64217   0.414  11.503   6.799
 4941POPC   C4A64218   0.553  11.381   7.224
 4941POPC   C1B64219   0.851  11.132   6.217
 4941POPC   C2B64220   0.839  10.909   6.642
 4941POPC   C3B64221   0.752  10.942   7.088
 4941POPC   C4B64222   0.376  10.896   7.381
 4942POPC   NC364223  19.346   9.436   5.516
 4942POPC   PO464224  19.719   8.868   5.413
 4942POPC   GL164225  19.731   9.192   5.790
 4942POPC   GL264226  19.945   9.539   5.772
 4942POPC   C1A64227  19.629   9.074   6.212
 4942POPC   D2A64228  19.688   8.803   6.576
 4942POPC   C3A64229  19.776   8.961   6.986
 4942POPC   C4A64230  20.050   8.817   7.317
 4942POPC   C1B64231  19.999   9.458   6.190
 4942POPC   C2B64232  19.844   9.373   6.579
 4942POPC   C3B64233  20.005   9.426   6.956
 4942POPC   C4B64234  19.794   9.366   7.321
 4943POPC   NC364235  23.098  27.936   5.137
 4943POPC   PO464236  23.031  27.278   5.382
 4943POPC   GL164237  22.773  27.530   5.724
 4943POPC   GL264238  22.608  27.877   5.724
 4943POPC   C1A64239  22.830  27.652   6.151
 4943POPC   D2A64240  23.031  27.832   6.501
 4943POPC   C3A64241  22.985  27.573   6.866
 4943POPC   C4A64242  22.939  27.340   7.270
 4943POPC   C1B64243  22.420  27.972   6.107
 4943POPC   C2B64244  22.484  27.807   6.517
 4943POPC   C3B64245  22.482  27.962   6.919
 4943POPC   C4B64246  22.693  27.790   7.242
 4944POPC   NC364247  22.731  20.025   5.576
 4944POPC   PO464248  23.293  19.729   5.412
 4944POPC   GL164249  23.140  19.866   5.860
 4944POPC   GL264250  22.879  20.135   6.020
 4944POPC   C1A64251  23.078  19.820   6.331
 4944POPC   D2A64252  23.064  20.035   6.688
 4944POPC   C3A64253  22.847  19.861   6.996
 4944POPC   C4A64254  22.737  19.534   7.288
 4944POPC   C1B64255  22.549  20.232   6.303
 4944POPC   C2B64256  22.577  20.230   6.727
 4944POPC   C3B64257  22.725  20.465   7.029
 4944POPC   C4B64258  22.966  20.348   7.350
 4945POPC   NC364259  34.207  37.103   5.599
 4945POPC   PO464260  34.910  37.190   5.452
 4945POPC   GL164261  34.693  36.835   5.746
 4945POPC   GL264262  34.358  36.631   5.774
 4945POPC   C1A64263  34.840  36.738   6.178
 4945POPC   D2A64264  35.055  36.776   6.585
 4945POPC   C3A64265  34.776  36.832   6.921
 4945POPC   C4A64266  34.867  37.146   7.206
 4945POPC   C1B64267  34.347  36.863   6.192
 4945POPC   C2B64268  34.181  36.940   6.628
 4945POPC   C3B64269  34.324  37.044   7.061
 4945POPC   C4B64270  34.170  37.017   7.476
 4946POPC   NC364271  30.828  28.672   5.627
 4946POPC   PO464272  30.434  28.085   5.446
 4946POPC   GL164273  30.510  28.288   5.838
 4946POPC   GL264274  30.311  28.581   5.816
 4946POPC   C1A64275  30.769  28.325   6.241
 4946POPC   D2A64276  30.980  28.254   6.662
 4946POPC   C3A64277  30.899  28.410   7.063
 4946POPC   C4A64278  30.688  28.234   7.409
 4946POPC   C1B64279  30.354  28.641   6.243
 4946POPC   C2B64280  30.345  28.342   6.578
 4946POPC   C3B64281  30.398  28.323   6.991
 4946POPC   C4B64282  30.344  28.607   7.326
 4947POPC   NC364283  42.855  30.752   5.731
 4947POPC   PO464284  43.410  30.783   5.417
 4947POPC   GL164285  43.328  30.843   5.849
 4947POPC   GL264286  43.258  30.477   5.909
 4947POPC   C1A64287  43.136  30.808   6.299
 4947POPC   D2A64288  43.225  30.535   6.648
 4947POPC   C3A64289  43.175  30.799   7.029
 4947POPC   C4A64290  42.872  30.994   7.241
 4947POPC   C1B64291  42.966  30.306   6.216
 4947POPC   C2B64292  42.813  30.157   6.600
 4947POPC   C3B64293  42.856  30.404   6.978
 4947POPC   C4B64294  42.590  30.533   7.282
 4948POPC   NC364295  34.949  22.911   5.439
 4948POPC   PO464296  34.266  23.080   5.414
 4948POPC   GL164297  34.513  23.205   5.751
 4948POPC   GL264298  34.306  23.439   5.928
 4948POPC   C1A64299  34.815  23.153   6.076
 4948POPC   D2A64300  34.802  23.210   6.507
 4948POPC   C3A64301  34.695  22.860   6.811
 4948POPC   C4A64302  34.724  22.786   7.258
 4948POPC   C1B64303  34.330  23.190   6.286
 4948POPC   C2B64304  34.178  23.129   6.718
 4948POPC   C3B64305  34.240  23.016   7.153
 4948POPC   C4B64306  33.971  23.078   7.515
 4949POPC   NC364307  39.703   7.167   5.549
 4949POPC   PO464308  40.130   7.666   5.431
 4949POPC   GL164309  40.123   7.384   5.777
 4949POPC   GL264310  40.225   7.046   5.710
 4949POPC   C1A64311  40.096   7.486   6.212
 4949POPC   D2A64312  40.004   7.324   6.611
 4949POPC   C3A64313  39.934   7.600   6.954
 4949POPC   C4A64314  39.893   7.388   7.363
 4949POPC   C1B64315  40.188   7.003   6.176
 4949POPC   C2B64316  40.340   6.879   6.580
 4949POPC   C3B64317  40.218   6.999   6.980
 4949POPC   C4B64318  40.151   6.937   7.418
 4950POPC   NC364319  38.683   2.066   5.330
 4950POPC   PO464320  38.222   1.500   5.309
 4950POPC   GL164321  38.500   1.698   5.668
 4950POPC   GL264322  38.442   2.080   5.773
 4950POPC   C1A64323  38.564   1.712   6.155
 4950POPC   D2A64324  38.379   1.663   6.588
 4950POPC   C3A64325  38.548   1.798   6.989
 4950POPC   C4A64326  38.738   2.123   7.279
 4950POPC   C1B64327  38.775   2.170   6.091
 4950POPC   C2B64328  38.717   2.113   6.545
 4950POPC   C3B64329  38.450   2.288   6.881
 4950POPC   C4B64330  38.270   2.310   7.318
 4951POPC   NC364331   7.636  33.444   5.571
 4951POPC   PO464332   7.314  33.979   5.305
 4951POPC   GL164333   7.184  33.936   5.747
 4951POPC   GL264334   7.482  34.092   5.853
 4951POPC   C1A64335   7.263  33.645   6.151
 4951POPC   D2A64336   7.371  33.474   6.590
 4951POPC   C3A64337   7.080  33.588   6.973
 4951POPC   C4A64338   7.076  33.528   7.447
 4951POPC   C1B64339   7.271  34.156   6.241
 4951POPC   C2B64340   7.249  33.962   6.649
 4951POPC   C3B64341   7.500  34.007   7.041
 4951POPC   C4B64342   7.470  34.220   7.474
 4952POPC   NC364343  26.684  40.210   5.402
 4952POPC   PO464344  27.291  39.981   5.583
 4952POPC   GL164345  26.974  40.130   5.828
 4952POPC   GL264346  27.007  40.494   5.731
 4952POPC   C1A64347  26.811  39.933   6.213
 4952POPC   D2A64348  26.586  39.794   6.588
 4952POPC   C3A64349  26.719  39.977   6.977
 4952POPC   C4A64350  26.776  39.875   7.404
 4952POPC   C1B64351  26.862  40.488   6.161
 4952POPC   C2B64352  26.712  40.308   6.550
 4952POPC   C3B64353  26.979  40.413   6.894
 4952POPC   C4B64354  26.984  40.330   7.312
 4953POPC   NC364355   0.866  16.074   5.393
 4953POPC   PO464356   0.252  16.177   5.193
 4953POPC   GL164357   0.465  16.035   5.687
 4953POPC   GL264358   0.664  15.707   5.758
 4953POPC   C1A64359   0.422  16.156   6.150
 4953POPC   D2A64360   0.606  16.116   6.600
 4953POPC   C3A64361   0.289  16.111   6.955
 4953POPC   C4A64362   0.242  15.936   7.384
 4953POPC   C1B64363   0.461  15.600   6.199
 4953POPC   C2B64364   0.307  15.698   6.615
 4953POPC   C3B64365   0.232  15.562   7.036
 4953POPC   C4B64366   0.508  15.502   7.428
 4954POPC   NC364367  29.520  40.655   5.519
 4954POPC   PO464368  29.015  41.046   5.464
 4954POPC   GL164369  29.276  41.024   5.819
 4954POPC   GL264370  29.586  41.129   5.873
 4954POPC   C1A64371  29.267  40.849   6.223
 4954POPC   D2A64372  28.897  40.882   6.509
 4954POPC   C3A64373  28.881  40.657   6.892
 4954POPC   C4A64374  29.084  40.716   7.298
 4954POPC   C1B64375  29.638  41.250   6.293
 4954POPC   C2B64376  29.402  41.130   6.611
 4954POPC   C3B64377  29.358  40.823   6.859
 4954POPC   C4B64378  29.454  41.091   7.200
 4955POPC   NC364379  43.199  10.102   5.561
 4955POPC   PO464380  43.349  10.788   5.459
 4955POPC   GL164381  43.248  10.558   5.802
 4955POPC   GL264382  43.532  10.372   5.837
 4955POPC   C1A64383  43.092  10.507   6.203
 4955POPC   D2A64384  43.153  10.790   6.566
 4955POPC   C3A64385  43.042  10.585   6.936
 4955POPC   C4A64386  42.876  10.597   7.351
 4955POPC   C1B64387  43.584  10.218   6.216
 4955POPC   C2B64388  43.400  10.329   6.570
 4955POPC   C3B64389  43.479  10.294   6.964
 4955POPC   C4B64390  43.385  10.507   7.312
 4956POPC   NC364391   0.871   7.007   5.364
 4956POPC   PO464392   1.021   7.642   5.471
 4956POPC   GL164393   1.252   7.469   5.848
 4956POPC   GL264394   1.434   7.205   5.658
 4956POPC   C1A64395   1.160   7.374   6.327
 4956POPC   D2A64396   1.054   7.130   6.738
 4956POPC   C3A64397   1.069   7.405   7.100
 4956POPC   C4A64398   0.786   7.728   7.266
 4956POPC   C1B64399   1.505   7.068   6.083
 4956POPC   C2B64400   1.509   7.017   6.510
 4956POPC   C3B64401   1.536   7.136   6.938
 4956POPC   C4B64402   1.307   7.002   7.310
 4957POPC   NC364403  40.786  22.723   5.217
 4957POPC   PO464404  41.125  23.213   5.585
 4957POPC   GL164405  40.746  22.967   5.727
 4957POPC   GL264406  40.537  22.634   5.703
 4957POPC   C1A64407  40.606  22.983   6.107
 4957POPC   D2A64408  40.885  22.927   6.442
 4957POPC   C3A64409  40.758  22.878   6.849
 4957POPC   C4A64410  40.832  23.205   7.107
 4957POPC   C1B64411  40.461  22.459   6.146
 4957POPC   C2B64412  40.380  22.294   6.569
 4957POPC   C3B64413  40.379  22.449   6.977
 4957POPC   C4B64414  40.544  22.695   7.298
 4958POPC   NC364415  21.533  36.521   5.462
 4958POPC   PO464416  21.422  35.812   5.454
 4958POPC   GL164417  21.412  36.111   5.747
 4958POPC   GL264418  21.606  35.952   5.949
 4958POPC   C1A64419  21.387  36.408   6.115
 4958POPC   D2A64420  21.111  36.446   6.488
 4958POPC   C3A64421  21.293  36.529   6.902
 4958POPC   C4A64422  21.323  36.350   7.293
 4958POPC   C1B64423  21.697  36.048   6.315
 4958POPC   C2B64424  21.479  36.123   6.645
 4958POPC   C3B64425  21.420  35.937   7.008
 4958POPC   C4B64426  21.745  35.866   7.244
 4959POPC   NC364427  18.118  31.379   5.142
 4959POPC   PO464428  18.594  31.627   5.398
 4959POPC   GL164429  18.683  31.586   5.842
 4959POPC   GL264430  18.469  31.850   5.924
 4959POPC   C1A64431  18.523  31.468   6.287
 4959POPC   D2A64432  18.269  31.512   6.693
 4959POPC   C3A64433  18.306  31.311   7.123
 4959POPC   C4A64434  18.121  31.020   7.466
 4959POPC   C1B64435  18.570  31.967   6.368
 4959POPC   C2B64436  18.599  31.873   6.820
 4959POPC   C3B64437  18.596  31.862   7.258
 4959POPC   C4B64438  18.382  32.134   7.541
 4960POPC   NC364439   3.455  39.675   5.587
 4960POPC   PO464440   3.643  39.079   5.392
 4960POPC   GL164441   3.655  39.202   5.783
 4960POPC   GL264442   3.301  39.219   5.793
 4960POPC   C1A64443   3.588  39.394   6.187
 4960POPC   D2A64444   3.692  39.620   6.536
 4960POPC   C3A64445   3.707  39.358   6.864
 4960POPC   C4A64446   3.653  39.171   7.258
 4960POPC   C1B64447   3.147  39.108   6.160
 4960POPC   C2B64448   3.185  39.307   6.548
 4960POPC   C3B64449   3.237  39.170   6.951
 4960POPC   C4B64450   3.057  38.985   7.278
 4961POPC   NC364451  36.071  22.023   5.296
 4961POPC   PO464452  36.593  22.451   5.426
 4961POPC   GL164453  36.281  22.364   5.761
 4961POPC   GL264454  35.929  22.195   5.773
 4961POPC   C1A64455  36.241  22.278   6.211
 4961POPC   D2A64456  36.023  22.355   6.558
 4961POPC   C3A64457  36.238  22.198   6.923
 4961POPC   C4A64458  36.051  22.197   7.288
 4961POPC   C1B64459  35.883  21.948   6.162
 4961POPC   C2B64460  36.170  21.860   6.516
 4961POPC   C3B64461  36.007  21.745   6.900
 4961POPC   C4B64462  35.877  21.719   7.321
 4962POPC   NC364463  13.019  14.795   5.521
 4962POPC   PO464464  12.866  15.407   5.478
 4962POPC   GL164465  12.923  15.189   5.862
 4962POPC   GL264466  12.704  14.910   5.907
 4962POPC   C1A64467  12.932  15.383   6.249
 4962POPC   D2A64468  12.779  15.407   6.642
 4962POPC   C3A64469  13.021  15.520   6.946
 4962POPC   C4A64470  13.146  15.347   7.335
 4962POPC   C1B64471  12.901  14.863   6.297
 4962POPC   C2B64472  13.121  15.021   6.631
 4962POPC   C3B64473  12.962  14.999   7.019
 4962POPC   C4B64474  12.856  14.922   7.421
 4963POPC   NC364475  16.841  38.794   5.394
 4963POPC   PO464476  16.477  38.256   5.085
 4963POPC   GL164477  16.570  38.359   5.596
 4963POPC   GL264478  16.912  38.451   5.777
 4963POPC   C1A64479  16.577  38.222   6.087
 4963POPC   D2A64480  16.708  38.117   6.542
 4963POPC   C3A64481  16.510  38.268   6.922
 4963POPC   C4A64482  16.603  38.514   7.300
 4963POPC   C1B64483  16.917  38.587   6.245
 4963POPC   C2B64484  16.844  38.590   6.699
 4963POPC   C3B64485  17.026  38.684   7.084
 4963POPC   C4B64486  16.797  38.993   7.349
 4964POPC   NC364487  14.008   3.713   5.629
 4964POPC   PO464488  13.420   3.620   5.350
 4964POPC   GL164489  13.370   3.423   5.735
 4964POPC   GL264490  13.107   3.201   5.632
 4964POPC   C1A64491  13.645   3.359   6.128
 4964POPC   D2A64492  13.880   3.555   6.494
 4964POPC   C3A64493  13.799   3.382   6.899
 4964POPC   C4A64494  13.717   3.565   7.323
 4964POPC   C1B64495  13.170   3.142   6.107
 4964POPC   C2B64496  13.319   3.212   6.554
 4964POPC   C3B64497  13.309   3.274   7.026
 4964POPC   C4B64498  13.340   3.231   7.498
 4965POPC   NC364499  29.384  34.362   5.412
 4965POPC   PO464500  28.821  34.701   5.369
 4965POPC   GL164501  28.932  34.503   5.719
 4965POPC   GL264502  29.142  34.783   5.823
 4965POPC   C1A64503  28.859  34.478   6.147
 4965POPC   D2A64504  29.092  34.680   6.483
 4965POPC   C3A64505  29.013  34.551   6.908
 4965POPC   C4A64506  28.879  34.789   7.278
 4965POPC   C1B64507  29.374  34.482   6.088
 4965POPC   C2B64508  29.475  34.330   6.518
 4965POPC   C3B64509  29.538  34.303   6.955
 4965POPC   C4B64510  29.347  34.551   7.285
 4966POPC   NC364511  24.182  26.582   5.503
 4966POPC   PO464512  23.695  27.054   5.452
 4966POPC   GL164513  23.744  26.771   5.783
 4966POPC   GL264514  23.458  26.532   5.852
 4966POPC   C1A64515  23.824  26.936   6.205
 4966POPC   D2A64516  23.803  26.711   6.594
 4966POPC   C3A64517  23.784  26.906   6.977
 4966POPC   C4A64518  24.144  26.829   7.174
 4966POPC   C1B64519  23.407  26.627   6.278
 4966POPC   C2B64520  23.312  26.688   6.712
 4966POPC   C3B64521  23.471  26.503   7.073
 4966POPC   C4B64522  23.449  26.513   7.535
 4967POPC   NC364523  17.136  23.897   5.267
 4967POPC   PO464524  17.697  23.542   5.486
 4967POPC   GL164525  17.356  23.614   5.747
 4967POPC   GL264526  17.375  23.957   5.730
 4967POPC   C1A64527  17.325  23.447   6.163
 4967POPC   D2A64528  17.665  23.458   6.485
 4967POPC   C3A64529  17.486  23.468   6.871
 4967POPC   C4A64530  17.353  23.582   7.261
 4967POPC   C1B64531  17.626  23.869   6.137
 4967POPC   C2B64532  17.722  24.010   6.585
 4967POPC   C3B64533  17.720  23.891   7.025
 4967POPC   C4B64534  17.693  24.179   7.356
 4968POPC   NC364535   2.842  43.316   5.400
 4968POPC   PO464536   2.362  42.959   5.467
 4968POPC   GL164537   2.565  43.143   5.839
 4968POPC   GL264538   2.951  43.091   5.838
 4968POPC   C1A64539   2.577  43.265   6.299
 4968POPC   D2A64540   2.457  43.375   6.724
 4968POPC   C3A64541   2.722  43.354   7.094
 4968POPC   C4A64542   2.857  43.156   7.502
 4968POPC   C1B64543   3.167  43.080   6.230
 4968POPC   C2B64544   3.040  43.070   6.672
 4968POPC   C3B64545   2.957  42.916   7.054
 4968POPC   C4B64546   3.143  42.690   7.371
 4969POPC   NC364547   7.437  34.411   5.414
 4969POPC   PO464548   7.240  35.081   5.342
 4969POPC   GL164549   7.287  34.799   5.760
 4969POPC   GL264550   7.600  34.587   5.853
 4969POPC   C1A64551   7.284  34.669   6.245
 4969POPC   D2A64552   7.245  34.463   6.663
 4969POPC   C3A64553   7.348  34.678   7.046
 4969POPC   C4A64554   7.478  34.700   7.468
 4969POPC   C1B64555   7.727  34.428   6.263
 4969POPC   C2B64556   7.744  34.563   6.711
 4969POPC   C3B64557   7.785  34.443   7.150
 4969POPC   C4B64558   7.927  34.435   7.613
 4970POPC   NC364559  10.745  27.572   5.481
 4970POPC   PO464560  10.307  27.123   5.635
 4970POPC   GL164561  10.521  27.408   5.905
 4970POPC   GL264562  10.878  27.340   5.911
 4970POPC   C1A64563  10.575  27.725   6.200
 4970POPC   D2A64564  10.376  27.682   6.565
 4970POPC   C3A64565  10.572  27.893   6.902
 4970POPC   C4A64566  10.669  28.176   7.254
 4970POPC   C1B64567  10.814  27.284   6.335
 4970POPC   C2B64568  10.813  27.457   6.732
 4970POPC   C3B64569  10.684  27.451   7.165
 4970POPC   C4B64570  10.871  27.416   7.583
 4971POPC   NC364571  31.269  44.873   5.356
 4971POPC   PO464572  31.777   0.120   5.622
 4971POPC   GL164573  31.368   0.195   5.809
 4971POPC   GL264574  31.431   0.569   5.894
 4971POPC   C1A64575  31.199   0.277   6.237
 4971POPC   D2A64576  31.404   0.241   6.636
 4971POPC   C3A64577  31.322   0.377   7.068
 4971POPC   C4A64578  31.694   0.424   7.364
 4971POPC   C1B64579  31.489   0.780   6.311
 4971POPC   C2B64580  31.549   0.743   6.756
 4971POPC   C3B64581  31.492   0.873   7.186
 4971POPC   C4B64582  31.592   0.906   7.644
 4972POPC   NC364583   8.822  21.037   5.540
 4972POPC   PO464584   9.104  21.678   5.524
 4972POPC   GL164585   9.134  21.364   5.825
 4972POPC   GL264586   8.774  21.358   5.942
 4972POPC   C1A64587   9.188  21.312   6.261
 4972POPC   D2A64588   8.975  21.472   6.618
 4972POPC   C3A64589   9.126  21.212   6.923
 4972POPC   C4A64590   9.332  21.334   7.282
 4972POPC   C1B64591   8.665  21.793   6.095
 4972POPC   C2B64592   8.744  21.933   6.496
 4972POPC   C3B64593   8.676  21.818   6.921
 4972POPC   C4B64594   8.822  21.514   7.202
 4973POPC   NC364595  25.076  27.088   5.346
 4973POPC   PO464596  25.394  27.663   5.280
 4973POPC   GL164597  25.152  27.641   5.662
 4973POPC   GL264598  25.241  27.299   5.796
 4973POPC   C1A64599  25.159  27.657   6.145
 4973POPC   D2A64600  25.465  27.591   6.488
 4973POPC   C3A64601  25.331  27.706   6.907
 4973POPC   C4A64602  25.219  27.724   7.327
 4973POPC   C1B64603  25.633  27.177   6.043
 4973POPC   C2B64604  25.780  27.135   6.467
 4973POPC   C3B64605  25.679  27.325   6.880
 4973POPC   C4B64606  25.431  27.263   7.242
 4974POPC   NC364607  20.856  22.344   5.455
 4974POPC   PO464608  20.342  21.886   5.328
 4974POPC   GL164609  20.590  21.976   5.714
 4974POPC   GL264610  20.534  22.326   5.863
 4974POPC   C1A64611  20.807  21.902   6.120
 4974POPC   D2A64612  20.652  21.869   6.552
 4974POPC   C3A64613  20.891  21.896   6.927
 4974POPC   C4A64614  20.700  22.040   7.291
 4974POPC   C1B64615  20.584  22.354   6.317
 4974POPC   C2B64616  20.517  22.307   6.774
 4974POPC   C3B64617  20.371  22.406   7.164
 4974POPC   C4B64618  20.785  22.523   7.285
 4975POPC   NC364619  38.540  17.407   5.574
 4975POPC   PO464620  37.921  17.216   5.609
 4975POPC   GL164621  38.171  17.532   5.861
 4975POPC   GL264622  38.204  17.848   5.637
 4975POPC   C1A64623  38.511  17.647   6.185
 4975POPC   D2A64624  38.499  17.627   6.645
 4975POPC   C3A64625  38.725  17.683   7.013
 4975POPC   C4A64626  38.617  17.380   7.354
 4975POPC   C1B64627  38.118  17.986   6.065
 4975POPC   C2B64628  38.332  18.060   6.436
 4975POPC   C3B64629  38.288  18.047   6.883
 4975POPC   C4B64630  38.303  17.795   7.263
 4976POPC   NC364631  33.606  26.899   5.390
 4976POPC   PO464632  34.128  26.616   5.617
 4976POPC   GL164633  33.832  26.900   5.856
 4976POPC   GL264634  33.444  26.983   5.845
 4976POPC   C1A64635  33.677  26.655   6.194
 4976POPC   D2A64636  33.920  26.438   6.509
 4976POPC   C3A64637  33.949  26.695   6.873
 4976POPC   C4A64638  33.759  26.631   7.242
 4976POPC   C1B64639  33.533  27.217   6.193
 4976POPC   C2B64640  33.574  26.993   6.570
 4976POPC   C3B64641  33.466  26.953   6.967
 4976POPC   C4B64642  33.800  27.168   7.127
 4977POPC   NC364643  26.744  10.545   5.435
 4977POPC   PO464644  26.268  10.114   5.623
 4977POPC   GL164645  26.651  10.258   5.844
 4977POPC   GL264646  26.729  10.662   5.922
 4977POPC   C1A64647  26.894  10.247   6.190
 4977POPC   D2A64648  27.018  10.332   6.590
 4977POPC   C3A64649  26.682  10.503   6.831
 4977POPC   C4A64650  26.909  10.437   7.198
 4977POPC   C1B64651  26.845  10.735   6.351
 4977POPC   C2B64652  27.048  10.834   6.721
 4977POPC   C3B64653  26.804  10.943   7.083
 4977POPC   C4B64654  26.509  10.704   7.285
 4978POPC   NC364655  43.879  33.840   5.450
 4978POPC   PO464656  44.243  33.349   5.676
 4978POPC   GL164657  43.989  33.636   5.935
 4978POPC   GL264658  43.678  33.869   5.924
 4978POPC   C1A64659  43.861  33.681   6.359
 4978POPC   D2A64660  43.947  33.918   6.673
 4978POPC   C3A64661  43.735  33.973   6.977
 4978POPC   C4A64662  43.826  33.753   7.315
 4978POPC   C1B64663  43.801  34.203   6.253
 4978POPC   C2B64664  44.083  34.396   6.574
 4978POPC   C3B64665  44.199  34.252   6.998
 4978POPC   C4B64666  43.948  34.250   7.344
 4979POPC   NC364667  15.306  20.597   5.361
 4979POPC   PO464668  15.987  20.702   5.399
 4979POPC   GL164669  15.892  20.596   5.795
 4979POPC   GL264670  16.212  20.490   5.882
 4979POPC   C1A64671  15.914  20.759   6.215
 4979POPC   D2A64672  16.038  20.607   6.615
 4979POPC   C3A64673  15.805  20.610   7.002
 4979POPC   C4A64674  15.908  20.762   7.427
 4979POPC   C1B64675  16.413  20.400   6.282
 4979POPC   C2B64676  16.463  20.365   6.733
 4979POPC   C3B64677  16.318  20.550   7.093
 4979POPC   C4B64678  16.413  20.458   7.507
 4980POPC   NC364679  34.169  18.118   5.584
 4980POPC   PO464680  34.776  18.410   5.526
 4980POPC   GL164681  34.738  18.319   5.939
 4980POPC   GL264682  35.078  18.251   5.983
 4980POPC   C1A64683  34.454  18.117   6.257
 4980POPC   D2A64684  34.392  17.914   6.677
 4980POPC   C3A64685  34.379  18.218   7.049
 4980POPC   C4A64686  34.590  18.589   7.239
 4980POPC   C1B64687  34.913  17.879   6.156
 4980POPC   C2B64688  34.904  18.099   6.526
 4980POPC   C3B64689  34.955  18.277   6.911
 4980POPC   C4B64690  34.848  18.147   7.290
 4981POPC   NC364691  17.802  20.848   5.549
 4981POPC   PO464692  17.496  20.266   5.490
 4981POPC   GL164693  17.531  20.535   5.829
 4981POPC   GL264694  17.316  20.821   5.720
 4981POPC   C1A64695  17.575  20.637   6.240
 4981POPC   D2A64696  17.437  20.410   6.570
 4981POPC   C3A64697  17.497  20.608   6.923
 4981POPC   C4A64698  17.583  20.472   7.269
 4981POPC   C1B64699  17.264  21.017   6.096
 4981POPC   C2B64700  17.145  20.899   6.511
 4981POPC   C3B64701  17.182  21.023   6.932
 4981POPC   C4B64702  17.177  20.754   7.302
 4982POPC   NC364703  41.748  22.456   5.139
 4982POPC   PO464704  41.358  22.194   5.620
 4982POPC   GL164705  41.360  22.334   6.012
 4982POPC   GL264706  41.658  22.166   6.044
 4982POPC   C1A64707  41.324  22.213   6.433
 4982POPC   D2A64708  41.228  21.831   6.634
 4982POPC   C3A64709  41.241  21.991   7.038
 4982POPC   C4A64710  41.624  22.043   7.316
 4982POPC   C1B64711  41.796  22.483   6.343
 4982POPC   C2B64712  41.708  22.481   6.784
 4982POPC   C3B64713  41.860  22.489   7.199
 4982POPC   C4B64714  41.831  22.415   7.667
 4983POPC   NC364715  44.942  21.119   5.237
 4983POPC   PO464716  44.739  21.739   5.519
 4983POPC   GL164717  44.572  21.373   5.768
 4983POPC   GL264718  44.855  21.127   5.744
 4983POPC   C1A64719  44.479  21.361   6.229
 4983POPC   D2A64720  44.690  21.518   6.622
 4983POPC   C3A64721  44.490  21.448   7.037
 4983POPC   C4A64722  44.301  21.693   7.356
 4983POPC   C1B64723  44.981  21.270   6.150
 4983POPC   C2B64724   0.136  21.218   6.567
 4983POPC   C3B64725   0.052  21.304   6.996
 4983POPC   C4B64726  44.774  21.060   7.226
 4984POPC   NC364727  29.560  30.119   5.441
 4984POPC   PO464728  28.976  29.755   5.371
 4984POPC   GL164729  29.005  29.699   5.785
 4984POPC   GL264730  29.299  29.905   5.832
 4984POPC   C1A64731  28.889  29.667   6.214
 4984POPC   D2A64732  28.978  29.593   6.667
 4984POPC   C3A64733  29.095  29.999   6.850
 4984POPC   C4A64734  28.925  30.177   7.232
 4984POPC   C1B64735  29.403  29.552   6.084
 4984POPC   C2B64736  29.456  29.506   6.507
 4984POPC   C3B64737  29.408  29.593   6.947
 4984POPC   C4B64738  29.377  29.926   7.266
 4985POPC   NC364739  40.163  39.525   5.623
 4985POPC   PO464740  39.898  39.034   5.215
 4985POPC   GL164741  39.866  38.994   5.713
 4985POPC   GL264742  40.165  38.871   5.891
 4985POPC   C1A64743  39.875  39.168   6.183
 4985POPC   D2A64744  39.725  39.403   6.583
 4985POPC   C3A64745  39.901  39.415   7.016
 4985POPC   C4A64746  39.788  39.158   7.391
 4985POPC   C1B64747  40.342  38.960   6.301
 4985POPC   C2B64748  40.368  39.142   6.720
 4985POPC   C3B64749  40.202  39.020   7.112
 4985POPC   C4B64750  40.366  39.077   7.515
 4986POPC   NC364751  16.970   3.327   5.446
 4986POPC   PO464752  16.662   2.789   5.290
 4986POPC   GL164753  16.653   2.700   5.737
 4986POPC   GL264754  16.963   2.893   5.762
 4986POPC   C1A64755  16.729   2.462   6.146
 4986POPC   D2A64756  16.847   2.254   6.539
 4986POPC   C3A64757  16.692   2.435   6.915
 4986POPC   C4A64758  16.559   2.789   7.154
 4986POPC   C1B64759  17.148   2.754   6.152
 4986POPC   C2B64760  16.924   2.768   6.536
 4986POPC   C3B64761  17.067   2.816   6.946
 4986POPC   C4B64762  17.020   2.939   7.354
 4987POPC   NC364763  33.524   8.392   5.468
 4987POPC   PO464764  34.155   8.223   5.404
 4987POPC   GL164765  33.859   8.187   5.796
 4987POPC   GL264766  33.720   7.883   5.831
 4987POPC   C1A64767  33.861   8.138   6.277
 4987POPC   D2A64768  33.991   8.477   6.596
 4987POPC   C3A64769  33.815   8.454   7.001
 4987POPC   C4A64770  33.696   8.232   7.350
 4987POPC   C1B64771  33.501   7.785   6.168
 4987POPC   C2B64772  33.406   7.939   6.594
 4987POPC   C3B64773  33.642   7.924   6.962
 4987POPC   C4B64774  33.843   7.731   7.349
 4988POPC   NC364775  21.388  29.633   5.403
 4988POPC   PO464776  21.270  30.301   5.413
 4988POPC   GL164777  21.245  30.041   5.752
 4988POPC   GL264778  21.002  29.775   5.748
 4988POPC   C1A64779  21.422  30.093   6.160
 4988POPC   D2A64780  21.623  30.249   6.512
 4988POPC   C3A64781  21.572  30.001   6.853
 4988POPC   C4A64782  21.567  30.011   7.276
 4988POPC   C1B64783  20.914  29.963   6.192
 4988POPC   C2B64784  21.050  30.074   6.639
 4988POPC   C3B64785  21.110  29.882   7.043
 4988POPC   C4B64786  21.113  29.787   7.504
 4989POPC   NC364787  27.163   9.419   5.487
 4989POPC   PO464788  27.680   9.777   5.208
 4989POPC   GL164789  27.552   9.847   5.674
 4989POPC   GL264790  27.427   9.567   5.887
 4989POPC   C1A64791  27.721   9.893   6.133
 4989POPC   D2A64792  27.548   9.989   6.554
 4989POPC   C3A64793  27.615   9.667   6.850
 4989POPC   C4A64794  27.777   9.695   7.254
 4989POPC   C1B64795  27.208   9.815   6.204
 4989POPC   C2B64796  27.057   9.844   6.625
 4989POPC   C3B64797  27.234   9.961   7.038
 4989POPC   C4B64798  27.271   9.642   7.352
 4990POPC   NC364799  28.544  18.093   5.681
 4990POPC   PO464800  29.137  18.212   5.351
 4990POPC   GL164801  29.017  18.266   5.790
 4990POPC   GL264802  28.842  18.557   5.879
 4990POPC   C1A64803  29.188  18.110   6.171
 4990POPC   D2A64804  29.405  18.234   6.551
 4990POPC   C3A64805  29.245  18.128   6.971
 4990POPC   C4A64806  29.555  18.145   7.302
 4990POPC   C1B64807  28.765  18.647   6.308
 4990POPC   C2B64808  28.957  18.499   6.680
 4990POPC   C3B64809  28.805  18.510   7.081
 4990POPC   C4B64810  28.491  18.813   7.249
 4991POPC   NC364811   7.803  20.379   5.538
 4991POPC   PO464812   7.345  19.989   5.272
 4991POPC   GL164813   7.404  20.033   5.714
 4991POPC   GL264814   7.396  20.343   5.873
 4991POPC   C1A64815   7.400  19.777   6.072
 4991POPC   D2A64816   7.086  19.715   6.380
 4991POPC   C3A64817   7.284  19.625   6.743
 4991POPC   C4A64818   7.149  19.527   7.107
 4991POPC   C1B64819   7.725  20.169   6.160
 4991POPC   C2B64820   7.674  19.928   6.537
 4991POPC   C3B64821   7.502  20.027   6.951
 4991POPC   C4B64822   7.604  20.238   7.293
 4992POPC   NC364823  13.078  37.531   5.346
 4992POPC   PO464824  12.417  37.674   5.340
 4992POPC   GL164825  12.619  37.513   5.743
 4992POPC   GL264826  12.954  37.468   5.823
 4992POPC   C1A64827  12.503  37.390   6.161
 4992POPC   D2A64828  12.597  37.625   6.530
 4992POPC   C3A64829  12.525  37.496   6.941
 4992POPC   C4A64830  12.630  37.867   7.225
 4992POPC   C1B64831  12.992  37.580   6.218
 4992POPC   C2B64832  13.058  37.433   6.616
 4992POPC   C3B64833  13.026  37.616   6.998
 4992POPC   C4B64834  13.270  37.535   7.303
 4993POPC   NC364835  25.496  20.872   5.316
 4993POPC   PO464836  25.142  20.324   5.577
 4993POPC   GL164837  25.358  20.410   5.929
 4993POPC   GL264838  25.468  20.747   5.822
 4993POPC   C1A64839  25.317  20.343   6.380
 4993POPC   D2A64840  25.566  20.345   6.764
 4993POPC   C3A64841  25.308  20.437   7.145
 4993POPC   C4A64842  25.060  20.301   7.502
 4993POPC   C1B64843  25.422  20.871   6.244
 4993POPC   C2B64844  25.278  20.802   6.655
 4993POPC   C3B64845  25.190  20.924   7.078
 4993POPC   C4B64846  25.450  20.832   7.442
 4994POPC   NC364847  21.241  26.423   5.703
 4994POPC   PO464848  21.293  25.819   5.394
 4994POPC   GL164849  21.370  25.925   5.814
 4994POPC   GL264850  21.758  25.968   5.878
 4994POPC   C1A64851  21.220  25.847   6.230
 4994POPC   D2A64852  21.425  25.701   6.573
 4994POPC   C3A64853  21.208  25.779   6.959
 4994POPC   C4A64854  21.452  25.790   7.333
 4994POPC   C1B64855  21.578  26.199   6.243
 4994POPC   C2B64856  21.187  26.286   6.500
 4994POPC   C3B64857  21.060  26.416   6.913
 4994POPC   C4B64858  21.172  26.197   7.260
 4995POPC   NC364859  21.212  23.929   5.421
 4995POPC   PO464860  21.539  23.337   5.490
 4995POPC   GL164861  21.332  23.581   5.838
 4995POPC   GL264862  21.289  23.957   5.903
 4995POPC   C1A64863  21.407  23.633   6.300
 4995POPC   D2A64864  21.459  23.433   6.690
 4995POPC   C3A64865  21.613  23.507   7.108
 4995POPC   C4A64866  21.219  23.469   7.288
 4995POPC   C1B64867  21.593  24.086   6.171
 4995POPC   C2B64868  21.366  24.111   6.549
 4995POPC   C3B64869  21.279  23.880   6.948
 4995POPC   C4B64870  21.446  23.988   7.388
 4996POPC   NC364871  39.892  21.043   5.546
 4996POPC   PO464872  40.389  21.572   5.384
 4996POPC   GL164873  40.229  21.381   5.765
 4996POPC   GL264874  40.270  21.037   5.923
 4996POPC   C1A64875  40.013  21.485   6.146
 4996POPC   D2A64876  39.753  21.386   6.477
 4996POPC   C3A64877  39.840  21.568   6.864
 4996POPC   C4A64878  39.981  21.355   7.220
 4996POPC   C1B64879  39.974  20.936   6.281
 4996POPC   C2B64880  39.878  20.960   6.748
 4996POPC   C3B64881  39.558  21.146   7.041
 4996POPC   C4B64882  39.557  21.142   7.529
 4997POPC   NC364883  16.245   0.706   5.271
 4997POPC   PO464884  15.997   1.335   5.322
 4997POPC   GL164885  16.037   1.406   5.768
 4997POPC   GL264886  15.783   1.204   5.828
 4997POPC   C1A64887  16.071   1.267   6.244
 4997POPC   D2A64888  15.837   1.271   6.618
 4997POPC   C3A64889  16.010   1.230   6.991
 4997POPC   C4A64890  16.340   1.067   7.202
 4997POPC   C1B64891  15.579   1.367   6.188
 4997POPC   C2B64892  15.391   1.515   6.609
 4997POPC   C3B64893  15.422   1.522   7.061
 4997POPC   C4B64894  15.695   1.324   7.364
 4998POPC   NC364895  23.483  10.431   5.328
 4998POPC   PO464896  22.854  10.608   5.399
 4998POPC   GL164897  22.885  10.619   5.858
 4998POPC   GL264898  23.245  10.666   5.811
 4998POPC   C1A64899  22.604  10.512   6.250
 4998POPC   D2A64900  22.704  10.362   6.667
 4998POPC   C3A64901  22.771  10.602   7.049
 4998POPC   C4A64902  22.840  10.467   7.468
 4998POPC   C1B64903  23.313  10.740   6.257
 4998POPC   C2B64904  23.176  10.610   6.676
 4998POPC   C3B64905  23.275  10.623   7.131
 4998POPC   C4B64906  23.291  10.592   7.594
 4999POPC   NC364907  22.015  32.632   5.229
 4999POPC   PO464908  22.110  32.002   5.276
 4999POPC   GL164909  22.190  31.965   5.741
 4999POPC   GL264910  22.523  32.040   5.871
 4999POPC   C1A64911  21.912  32.063   6.105
 4999POPC   D2A64912  21.846  32.438   6.392
 4999POPC   C3A64913  21.926  32.391   6.834
 4999POPC   C4A64914  22.032  32.310   7.243
 4999POPC   C1B64915  22.354  32.307   6.249
 4999POPC   C2B64916  22.411  32.221   6.694
 4999POPC   C3B64917  22.483  32.485   7.059
 4999POPC   C4B64918  22.503  32.459   7.545
 5000POPC   NC364919  21.198  19.220   5.363
 5000POPC   PO464920  21.803  19.128   5.282
 5000POPC   GL164921  21.562  19.108   5.735
 5000POPC   GL264922  21.214  18.980   5.808
 5000POPC   C1A64923  21.493  19.136   6.213
 5000POPC   D2A64924  21.164  19.249   6.535
 5000POPC   C3A64925  21.099  19.237   6.954
 5000POPC   C4A64926  21.295  19.111   7.357
 5000POPC   C1B64927  21.080  18.821   6.194
 5000POPC   C2B64928  21.341  18.759   6.572
 5000POPC   C3B64929  21.244  18.750   6.992
 5000POPC   C4B64930  21.342  18.571   7.354
 5001POPC   NC364931  14.825  26.371   5.590
 5001POPC   PO464932  15.173  26.938   5.497
 5001POPC   GL164933  15.070  26.749   5.846
 5001POPC   GL264934  15.264  26.438   5.877
 5001POPC   C1A64935  14.872  26.889   6.185
 5001POPC   D2A64936  15.079  26.906   6.551
 5001POPC   C3A64937  14.959  26.954   6.924
 5001POPC   C4A64938  15.189  27.201   7.217
 5001POPC   C1B64939  15.009  26.417   6.264
 5001POPC   C2B64940  14.826  26.494   6.693
 5001POPC   C3B64941  15.057  26.485   7.117
 5001POPC   C4B64942  15.388  26.326   7.425
 5002POPC   NC364943  34.703  12.274   5.222
 5002POPC   PO464944  34.616  11.637   5.452
 5002POPC   GL164945  34.597  12.054   5.687
 5002POPC   GL264946  34.842  12.343   5.700
 5002POPC   C1A64947  34.591  12.141   6.135
 5002POPC   D2A64948  34.602  11.888   6.521
 5002POPC   C3A64949  34.577  12.154   6.870
 5002POPC   C4A64950  34.476  12.059   7.259
 5002POPC   C1B64951  35.078  12.285   6.074
 5002POPC   C2B64952  34.980  12.246   6.502
 5002POPC   C3B64953  35.052  12.343   6.926
 5002POPC   C4B64954  34.891  12.304   7.372
 5003POPC   NC364955  41.238  35.546   5.683
 5003POPC   PO464956  41.368  36.120   5.421
 5003POPC   GL164957  41.520  36.021   5.838
 5003POPC   GL264958  41.727  35.718   5.854
 5003POPC   C1A64959  41.718  36.212   6.216
 5003POPC   D2A64960  41.545  36.457   6.551
 5003POPC   C3A64961  41.616  36.334   6.971
 5003POPC   C4A64962  41.428  36.232   7.345
 5003POPC   C1B64963  41.541  35.748   6.290
 5003POPC   C2B64964  41.679  35.913   6.693
 5003POPC   C3B64965  41.623  35.810   7.144
 5003POPC   C4B64966  41.784  35.760   7.597
 5004POPC   NC364967  20.461  35.156   5.113
 5004POPC   PO464968  20.718  35.773   5.261
 5004POPC   GL164969  20.608  35.477   5.668
 5004POPC   GL264970  20.877  35.286   5.846
 5004POPC   C1A64971  20.453  35.301   6.109
 5004POPC   D2A64972  20.416  35.593   6.502
 5004POPC   C3A64973  20.542  35.481   6.946
 5004POPC   C4A64974  20.516  35.144   7.254
 5004POPC   C1B64975  20.878  35.552   6.185
 5004POPC   C2B64976  20.974  35.400   6.590
 5004POPC   C3B64977  21.055  35.554   7.001
 5004POPC   C4B64978  20.887  35.450   7.423
 5005POPC   NC364979   1.631  16.020   5.364
 5005POPC   PO464980   1.086  15.641   5.365
 5005POPC   GL164981   1.196  15.931   5.756
 5005POPC   GL264982   0.948  16.219   5.872
 5005POPC   C1A64983   1.340  15.880   6.222
 5005POPC   D2A64984   1.127  16.127   6.577
 5005POPC   C3A64985   1.189  15.905   6.974
 5005POPC   C4A64986   1.516  15.585   7.101
 5005POPC   C1B64987   0.855  15.913   6.174
 5005POPC   C2B64988   0.906  15.681   6.547
 5005POPC   C3B64989   0.720  15.680   6.930
 5005POPC   C4B64990   0.719  15.974   7.208
 5006POPC   NC364991  12.592   5.558   5.210
 5006POPC   PO464992  12.934   5.003   5.450
 5006POPC   GL164993  12.951   5.116   5.828
 5006POPC   GL264994  12.608   5.189   5.821
 5006POPC   C1A64995  12.880   5.064   6.235
 5006POPC   D2A64996  12.924   5.223   6.599
 5006POPC   C3A64997  12.886   4.981   6.908
 5006POPC   C4A64998  13.083   5.175   7.199
 5006POPC   C1B64999  12.526   5.470   6.181
 5006POPC   C2B65000  12.555   5.553   6.627
 5006POPC   C3B65001  12.570   5.366   7.065
 5006POPC   C4B65002  12.717   5.449   7.487
 5007POPC   NC365003  17.340   3.844   5.452
 5007POPC   PO465004  17.800   3.321   5.231
 5007POPC   GL165005  17.865   3.519   5.737
 5007POPC   GL265006  17.687   3.800   5.828
 5007POPC   C1A65007  17.595   3.481   6.202
 5007POPC   D2A65008  17.317   3.481   6.615
 5007POPC   C3A65009  17.423   3.502   7.088
 5007POPC   C4A65010  17.408   3.286   7.473
 5007POPC   C1B65011  17.584   3.987   6.273
 5007POPC   C2B65012  17.218   3.987   6.533
 5007POPC   C3B65013  17.138   3.915   6.972
 5007POPC   C4B65014  17.550   4.002   7.166
 5008POPC   NC365015  10.731   2.655   5.352
 5008POPC   PO465016  11.192   2.245   5.654
 5008POPC   GL165017  10.854   2.580   5.839
 5008POPC   GL265018  10.796   2.969   5.797
 5008POPC   C1A65019  10.733   2.699   6.253
 5008POPC   D2A65020  10.975   2.593   6.601
 5008POPC   C3A65021  10.721   2.465   6.916
 5008POPC   C4A65022  10.562   2.654   7.277
 5008POPC   C1B65023  10.519   3.156   6.133
 5008POPC   C2B65024  10.374   3.023   6.532
 5008POPC   C3B65025  10.335   2.999   6.981
 5008POPC   C4B65026  10.420   3.100   7.441
 5009POPC   NC365027  24.065  40.729   4.915
 5009POPC   PO465028  23.795  40.910   5.543
 5009POPC   GL165029  24.217  40.818   5.810
 5009POPC   GL265030  24.605  40.940   5.793
 5009POPC   C1A65031  24.392  40.690   6.230
 5009POPC   D2A65032  24.221  40.553   6.631
 5009POPC   C3A65033  24.283  40.773   7.021
 5009POPC   C4A65034  24.225  41.088   7.355
 5009POPC   C1B65035  24.806  41.007   6.226
 5009POPC   C2B65036  24.764  40.949   6.684
 5009POPC   C3B65037  24.735  40.935   7.124
 5009POPC   C4B65038  24.740  41.110   7.498
 5010POPC   NC365039   0.778  10.206   5.544
 5010POPC   PO465040   0.241   9.869   5.339
 5010POPC   GL165041   0.511   9.781   5.721
 5010POPC   GL265042   0.423  10.099   5.909
 5010POPC   C1A65043   0.754   9.778   6.131
 5010POPC   D2A65044   0.489   9.885   6.502
 5010POPC   C3A65045   0.677   9.750   6.898
 5010POPC   C4A65046   0.501   9.557   7.257
 5010POPC   C1B65047   0.256  10.345   6.277
 5010POPC   C2B65048   0.139  10.234   6.686
 5010POPC   C3B65049   0.269   9.999   7.032
 5010POPC   C4B65050   0.365  10.002   7.498
 5011POPC   NC365051  24.014  43.599   5.090
 5011POPC   PO465052  24.499  44.050   5.396
 5011POPC   GL165053  24.616  43.863   5.776
 5011POPC   GL265054  24.322  43.890   5.991
 5011POPC   C1A65055  24.768  43.711   6.169
 5011POPC   D2A65056  24.465  43.737   6.547
 5011POPC   C3A65057  24.638  43.920   6.928
 5011POPC   C4A65058  24.966  43.640   7.055
 5011POPC   C1B65059  24.047  43.962   6.335
 5011POPC   C2B65060  24.105  44.064   6.764
 5011POPC   C3B65061  24.184  43.803   7.130
 5011POPC   C4B65062  24.154  43.914   7.581
 5012POPC   NC365063  31.552   5.829   5.263
 5012POPC   PO465064  31.043   5.433   5.312
 5012POPC   GL165065  31.219   5.787   5.657
 5012POPC   GL265066  31.588   5.881   5.763
 5012POPC   C1A65067  31.249   5.901   6.129
 5012POPC   D2A65068  31.510   5.910   6.519
 5012POPC   C3A65069  31.314   5.820   6.919
 5012POPC   C4A65070  31.241   6.062   7.273
 5012POPC   C1B65071  31.739   5.669   6.130
 5012POPC   C2B65072  31.983   5.718   6.542
 5012POPC   C3B65073  31.825   5.680   6.962
 5012POPC   C4B65074  31.713   5.939   7.307
 5013POPC   NC365075   1.832  44.996   5.498
 5013POPC   PO465076   1.848  44.367   5.447
 5013POPC   GL165077   1.934  44.588   5.823
 5013POPC   GL265078   1.600  44.666   5.850
 5013POPC   C1A65079   2.090  44.725   6.252
 5013POPC   D2A65080   2.156  44.935   6.670
 5013POPC   C3A65081   2.311  44.749   7.062
 5013POPC   C4A65082   2.152  44.831   7.507
 5013POPC   C1B65083   1.634  44.496   6.268
 5013POPC   C2B65084   1.873  44.501   6.672
 5013POPC   C3B65085   1.818  44.711   7.067
 5013POPC   C4B65086   1.733  44.562   7.480
 5014POPC   NC365087   4.888   6.944   5.381
 5014POPC   PO465088   5.139   6.349   5.428
 5014POPC   GL165089   5.066   6.492   5.863
 5014POPC   GL265090   5.059   6.855   5.873
 5014POPC   C1A65091   5.269   6.570   6.295
 5014POPC   D2A65092   5.421   6.622   6.740
 5014POPC   C3A65093   5.026   6.681   7.001
 5014POPC   C4A65094   4.597   6.503   7.079
 5014POPC   C1B65095   4.879   6.972   6.269
 5014POPC   C2B65096   4.746   7.283   6.585
 5014POPC   C3B65097   4.801   7.130   7.009
 5014POPC   C4B65098   4.815   7.016   7.448
 5015POPC   NC365099  36.158  18.602   5.553
 5015POPC   PO465100  36.350  18.008   5.437
 5015POPC   GL165101  36.086  18.185   5.807
 5015POPC   GL265102  36.292  18.433   6.021
 5015POPC   C1A65103  35.881  18.219   6.207
 5015POPC   D2A65104  35.824  17.975   6.550
 5015POPC   C3A65105  35.857  18.247   6.852
 5015POPC   C4A65106  35.846  18.249   7.270
 5015POPC   C1B65107  35.972  18.771   6.179
 5015POPC   C2B65108  35.789  18.844   6.601
 5015POPC   C3B65109  36.004  18.732   7.000
 5015POPC   C4B65110  36.331  18.429   7.176
 5016POPC   NC365111  17.107   1.201   5.383
 5016POPC   PO465112  17.701   0.948   5.460
 5016POPC   GL165113  17.399   1.077   5.797
 5016POPC   GL265114  17.304   1.447   5.797
 5016POPC   C1A65115  17.351   0.901   6.220
 5016POPC   D2A65116  17.352   1.035   6.637
 5016POPC   C3A65117  17.686   1.025   6.932
 5016POPC   C4A65118  17.596   1.062   7.359
 5016POPC   C1B65119  17.380   1.571   6.253
 5016POPC   C2B65120  17.539   1.516   6.707
 5016POPC   C3B65121  17.318   1.403   7.105
 5016POPC   C4B65122  17.379   1.476   7.556
 5017POPC   NC365123  31.237  40.883   5.111
 5017POPC   PO465124  30.522  41.008   5.199
 5017POPC   GL165125  30.527  40.833   5.680
 5017POPC   GL265126  30.774  40.649   5.918
 5017POPC   C1A65127  30.433  40.952   6.126
 5017POPC   D2A65128  30.586  40.962   6.550
 5017POPC   C3A65129  30.389  40.846   6.908
 5017POPC   C4A65130  30.671  40.684   7.201
 5017POPC   C1B65131  30.941  41.017   6.185
 5017POPC   C2B65132  31.036  41.227   6.595
 5017POPC   C3B65133  30.814  41.171   7.013
 5017POPC   C4B65134  30.831  41.107   7.503
 5018POPC   NC365135  17.943  37.373   5.322
 5018POPC   PO465136  17.955  38.095   5.396
 5018POPC   GL165137  18.065  37.874   5.807
 5018POPC   GL265138  18.135  37.525   5.763
 5018POPC   C1A65139  18.218  37.710   6.242
 5018POPC   D2A65140  18.560  37.660   6.545
 5018POPC   C3A65141  18.639  37.897   6.914
 5018POPC   C4A65142  18.501  37.728   7.298
 5018POPC   C1B65143  18.082  37.227   6.111
 5018POPC   C2B65144  17.945  37.236   6.537
 5018POPC   C3B65145  17.958  37.631   6.783
 5018POPC   C4B65146  18.010  37.602   7.234
 5019POPC   NC365147  37.254   7.500   5.382
 5019POPC   PO465148  36.655   7.262   5.508
 5019POPC   GL165149  36.870   7.349   5.854
 5019POPC   GL265150  37.119   7.066   5.836
 5019POPC   C1A65151  36.712   7.586   6.247
 5019POPC   D2A65152  36.579   7.710   6.667
 5019POPC   C3A65153  36.735   7.526   7.058
 5019POPC   C4A65154  36.955   7.748   7.387
 5019POPC   C1B65155  37.077   7.222   6.288
 5019POPC   C2B65156  37.080   7.451   6.669
 5019POPC   C3B65157  37.209   7.338   7.067
 5019POPC   C4B65158  36.938   7.046   7.206
 5020POPC   NC365159  28.025  33.196   5.576
 5020POPC   PO465160  28.625  32.815   5.568
 5020POPC   GL165161  28.334  32.921   5.869
 5020POPC   GL265162  28.407  33.276   5.906
 5020POPC   C1A65163  28.037  32.991   6.202
 5020POPC   D2A65164  27.967  32.840   6.597
 5020POPC   C3A65165  28.264  32.991   6.896
 5020POPC   C4A65166  28.191  33.130   7.282
 5020POPC   C1B65167  28.526  33.130   6.323
 5020POPC   C2B65168  28.683  33.301   6.706
 5020POPC   C3B65169  28.694  33.225   7.129
 5020POPC   C4B65170  28.639  32.818   7.274
 5021POPC   NC365171  16.591   9.682   5.548
 5021POPC   PO465172  17.038  10.162   5.655
 5021POPC   GL165173  16.918   9.850   5.958
 5021POPC   GL265174  16.936   9.473   5.872
 5021POPC   C1A65175  16.599   9.717   6.278
 5021POPC   D2A65176  16.396   9.831   6.689
 5021POPC   C3A65177  16.593   9.686   7.081
 5021POPC   C4A65178  16.629   9.393   7.422
 5021POPC   C1B65179  17.058   9.499   6.296
 5021POPC   C2B65180  16.949   9.620   6.695
 5021POPC   C3B65181  17.101   9.767   7.062
 5021POPC   C4B65182  17.038   9.697   7.514
 5022POPC   NC365183  44.416  42.021   5.553
 5022POPC   PO465184   0.011  42.354   5.430
 5022POPC   GL165185  44.811  42.446   5.826
 5022POPC   GL265186  44.448  42.322   5.948
 5022POPC   C1A65187  44.861  42.347   6.250
 5022POPC   D2A65188  44.771  42.490   6.643
 5022POPC   C3A65189   0.028  42.285   6.904
 5022POPC   C4A65190  44.944  42.062   7.234
 5022POPC   C1B65191  44.145  42.604   6.157
 5022POPC   C2B65192  44.161  42.835   6.535
 5022POPC   C3B65193  44.375  42.719   6.905
 5022POPC   C4B65194  44.543  42.341   7.111
 5023POPC   NC365195   3.303  12.190   5.291
 5023POPC   PO465196   2.656  11.793   5.477
 5023POPC   GL165197   2.754  11.963   5.827
 5023POPC   GL265198   3.025  12.156   5.726
 5023POPC   C1A65199   2.666  11.839   6.231
 5023POPC   D2A65200   2.809  12.008   6.618
 5023POPC   C3A65201   2.544  12.095   6.967
 5023POPC   C4A65202   2.772  12.065   7.340
 5023POPC   C1B65203   3.250  12.392   6.079
 5023POPC   C2B65204   3.171  12.367   6.529
 5023POPC   C3B65205   2.997  12.367   6.982
 5023POPC   C4B65206   3.085  12.508   7.451
 5024POPC   NC365207  25.757   3.110   5.416
 5024POPC   PO465208  25.974   2.456   5.548
 5024POPC   GL165209  26.272   2.668   5.763
 5024POPC   GL265210  26.001   2.908   5.857
 5024POPC   C1A65211  26.328   2.603   6.189
 5024POPC   D2A65212  26.063   2.645   6.537
 5024POPC   C3A65213  26.151   2.800   6.944
 5024POPC   C4A65214  25.948   2.518   7.219
 5024POPC   C1B65215  25.909   3.067   6.282
 5024POPC   C2B65216  25.703   2.965   6.697
 5024POPC   C3B65217  25.749   3.064   7.116
 5024POPC   C4B65218  26.089   3.262   7.250
 5025POPC   NC365219  10.397  26.647   5.640
 5025POPC   PO465220  10.993  26.639   5.240
 5025POPC   GL165221  10.820  26.869   5.727
 5025POPC   GL265222  10.822  26.672   6.019
 5025POPC   C1A65223  10.470  26.941   6.201
 5025POPC   D2A65224  10.427  27.113   6.597
 5025POPC   C3A65225  10.698  26.964   6.875
 5025POPC   C4A65226  10.453  26.993   7.228
 5025POPC   C1B65227  10.524  26.409   6.271
 5025POPC   C2B65228  10.418  26.483   6.696
 5025POPC   C3B65229  10.586  26.495   7.113
 5025POPC   C4B65230  10.408  26.572   7.524
 5026POPC   NC365231  39.624  34.905   5.066
 5026POPC   PO465232  40.049  35.270   5.423
 5026POPC   GL165233  40.071  35.389   5.838
 5026POPC   GL265234  39.740  35.265   5.841
 5026POPC   C1A65235  39.993  35.287   6.281
 5026POPC   D2A65236  39.932  35.538   6.603
 5026POPC   C3A65237  40.269  35.567   6.871
 5026POPC   C4A65238  40.009  35.470   7.185
 5026POPC   C1B65239  39.525  35.092   6.190
 5026POPC   C2B65240  39.620  34.938   6.554
 5026POPC   C3B65241  39.646  35.185   6.895
 5026POPC   C4B65242  39.775  35.034   7.272
 5027POPC   NC365243  19.409   0.962   5.568
 5027POPC   PO465244  18.737   1.042   5.371
 5027POPC   GL165245  18.949   0.956   5.773
 5027POPC   GL265246  18.965   1.266   5.883
 5027POPC   C1A65247  19.119   0.885   6.223
 5027POPC   D2A65248  19.027   1.070   6.573
 5027POPC   C3A65249  19.112   1.192   6.966
 5027POPC   C4A65250  18.956   1.180   7.366
 5027POPC   C1B65251  19.201   1.414   6.225
 5027POPC   C2B65252  19.129   1.590   6.617
 5027POPC   C3B65253  19.372   1.640   6.965
 5027POPC   C4B65254  19.368   1.486   7.394
 5028POPC   NC365255  14.606   7.758   5.407
 5028POPC   PO465256  14.171   7.353   5.153
 5028POPC   GL165257  14.160   7.576   5.647
 5028POPC   GL265258  14.306   7.927   5.809
 5028POPC   C1A65259  14.284   7.515   6.139
 5028POPC   D2A65260  14.189   7.465   6.614
 5028POPC   C3A65261  14.441   7.224   6.886
 5028POPC   C4A65262  14.683   7.130   7.227
 5028POPC   C1B65263  14.503   7.950   6.247
 5028POPC   C2B65264  14.668   7.629   6.542
 5028POPC   C3B65265  14.646   7.674   6.973
 5028POPC   C4B65266  14.421   7.580   7.330
 5029POPC   NC365267  13.096  34.834   5.355
 5029POPC   PO465268  12.474  34.637   5.458
 5029POPC   GL165269  12.841  34.629   5.769
 5029POPC   GL265270  12.996  34.954   5.841
 5029POPC   C1A65271  12.962  34.549   6.223
 5029POPC   D2A65272  13.066  34.513   6.688
 5029POPC   C3A65273  12.717  34.620   7.014
 5029POPC   C4A65274  12.745  34.555   7.467
 5029POPC   C1B65275  12.656  34.945   6.132
 5029POPC   C2B65276  12.866  34.960   6.544
 5029POPC   C3B65277  13.079  34.964   6.929
 5029POPC   C4B65278  12.997  35.102   7.315
 5030POPC   NC365279  30.843  27.807   5.521
 5030POPC   PO465280  30.727  27.140   5.379
 5030POPC   GL165281  30.708  27.366   5.767
 5030POPC   GL265282  30.388  27.239   5.841
 5030POPC   C1A65283  30.766  27.678   6.150
 5030POPC   D2A65284  30.599  27.915   6.525
 5030POPC   C3A65285  30.756  27.880   6.966
 5030POPC   C4A65286  31.031  27.867   7.314
 5030POPC   C1B65287  30.605  27.195   6.234
 5030POPC   C2B65288  30.641  27.418   6.612
 5030POPC   C3B65289  30.531  27.390   7.027
 5030POPC   C4B65290  30.846  27.380   7.320
 5031POPC   NC365291  18.821  40.182   5.487
 5031POPC   PO465292  19.503  39.793   5.508
 5031POPC   GL165293  19.250  40.064   5.763
 5031POPC   GL265294  18.957  39.811   5.779
 5031POPC   C1A65295  19.061  40.104   6.163
 5031POPC   D2A65296  19.078  39.790   6.483
 5031POPC   C3A65297  19.156  39.952   6.887
 5031POPC   C4A65298  19.341  39.708   7.204
 5031POPC   C1B65299  18.674  39.794   6.161
 5031POPC   C2B65300  18.623  40.053   6.563
 5031POPC   C3B65301  18.666  40.024   7.034
 5031POPC   C4B65302  18.972  40.012   7.387
 5032POPC   NC365303  28.881  24.623   5.354
 5032POPC   PO465304  29.218  24.065   5.133
 5032POPC   GL165305  29.206  24.207   5.628
 5032POPC   GL265306  29.252  24.563   5.713
 5032POPC   C1A65307  29.257  24.253   6.127
 5032POPC   D2A65308  29.313  24.334   6.604
 5032POPC   C3A65309  28.934  24.298   6.863
 5032POPC   C4A65310  28.813  24.139   7.289
 5032POPC   C1B65311  28.934  24.658   6.042
 5032POPC   C2B65312  28.970  24.680   6.471
 5032POPC   C3B65313  29.113  24.780   6.883
 5032POPC   C4B65314  28.899  24.994   7.202
 5033POPC   NC365315  39.824  26.986   5.438
 5033POPC   PO465316  40.371  26.578   5.430
 5033POPC   GL165317  40.101  26.659   5.746
 5033POPC   GL265318  40.187  27.007   5.809
 5033POPC   C1A65319  40.096  26.580   6.163
 5033POPC   D2A65320  39.982  26.518   6.576
 5033POPC   C3A65321  40.120  26.820   6.866
 5033POPC   C4A65322  40.070  26.598   7.253
 5033POPC   C1B65323  39.851  27.046   6.105
 5033POPC   C2B65324  39.776  27.133   6.531
 5033POPC   C3B65325  39.643  27.182   6.957
 5033POPC   C4B65326  39.900  27.110   7.290
 5034POPC   NC365327  13.937  35.074   5.406
 5034POPC   PO465328  13.474  34.616   5.243
 5034POPC   GL165329  13.415  34.634   5.711
 5034POPC   GL265330  13.772  34.732   5.793
 5034POPC   C1A65331  13.447  34.687   6.183
 5034POPC   D2A65332  13.566  34.881   6.587
 5034POPC   C3A65333  13.510  34.642   6.962
 5034POPC   C4A65334  13.212  34.609   7.285
 5034POPC   C1B65335  13.874  35.008   6.173
 5034POPC   C2B65336  14.084  34.964   6.606
 5034POPC   C3B65337  14.011  34.810   7.065
 5034POPC   C4B65338  14.204  34.653   7.502
 5035POPC   NC365339  35.142  24.882   5.394
 5035POPC   PO465340  35.574  24.273   5.509
 5035POPC   GL165341  35.370  24.322   5.869
 5035POPC   GL265342  35.263  24.645   5.822
 5035POPC   C1A65343  35.444  24.466   6.280
 5035POPC   D2A65344  35.702  24.575   6.591
 5035POPC   C3A65345  35.512  24.615   6.944
 5035POPC   C4A65346  35.462  24.380   7.272
 5035POPC   C1B65347  35.041  24.806   6.170
 5035POPC   C2B65348  35.183  24.794   6.582
 5035POPC   C3B65349  35.138  25.020   6.935
 5035POPC   C4B65350  35.309  24.909   7.307
 5036POPC   NC365351  12.352  37.218   5.441
 5036POPC   PO465352  12.406  36.544   5.475
 5036POPC   GL165353  12.311  36.680   5.887
 5036POPC   GL265354  12.106  36.911   5.776
 5036POPC   C1A65355  12.315  36.915   6.298
 5036POPC   D2A65356  12.243  37.049   6.745
 5036POPC   C3A65357  12.222  36.700   7.018
 5036POPC   C4A65358  12.553  36.739   7.279
 5036POPC   C1B65359  11.834  36.786   6.135
 5036POPC   C2B65360  11.888  36.700   6.570
 5036POPC   C3B65361  11.759  36.908   6.940
 5036POPC   C4B65362  11.867  36.834   7.353
 5037POPC   NC365363   9.359  35.876   5.344
 5037POPC   PO465364   8.945  35.290   5.237
 5037POPC   GL165365   9.075  35.297   5.664
 5037POPC   GL265366   8.772  35.204   5.861
 5037POPC   C1A65367   9.114  35.537   6.052
 5037POPC   D2A65368   8.805  35.694   6.388
 5037POPC   C3A65369   8.897  35.695   6.839
 5037POPC   C4A65370   8.967  35.472   7.198
 5037POPC   C1B65371   8.862  35.184   6.334
 5037POPC   C2B65372   8.982  35.190   6.772
 5037POPC   C3B65373   8.958  34.975   7.196
 5037POPC   C4B65374   8.768  35.000   7.626
 5038POPC   NC365375   0.465   5.446   5.349
 5038POPC   PO465376   0.152   4.803   5.361
 5038POPC   GL165377   0.316   4.961   5.759
 5038POPC   GL265378   0.432   5.311   5.835
 5038POPC   C1A65379   0.317   5.017   6.231
 5038POPC   D2A65380   0.317   5.309   6.616
 5038POPC   C3A65381   0.353   5.077   7.015
 5038POPC   C4A65382   0.226   4.731   7.265
 5038POPC   C1B65383   0.700   5.344   6.203
 5038POPC   C2B65384   0.817   5.341   6.624
 5038POPC   C3B65385   0.768   5.375   7.060
 5038POPC   C4B65386   1.010   5.229   7.382
 5039POPC   NC365387  19.228  25.839   5.480
 5039POPC   PO465388  18.845  26.329   5.500
 5039POPC   GL165389  18.974  26.170   5.873
 5039POPC   GL265390  19.317  26.219   5.847
 5039POPC   C1A65391  19.103  26.307   6.305
 5039POPC   D2A65392  19.304  26.209   6.706
 5039POPC   C3A65393  19.040  26.154   7.083
 5039POPC   C4A65394  18.638  26.096   7.313
 5039POPC   C1B65395  19.298  25.850   6.128
 5039POPC   C2B65396  19.049  25.745   6.486
 5039POPC   C3B65397  19.251  25.738   6.855
 5039POPC   C4B65398  19.494  25.868   7.164
 5040POPC   NC365399  16.747  18.047   5.376
 5040POPC   PO465400  16.374  18.678   5.383
 5040POPC   GL165401  16.466  18.373   5.709
 5040POPC   GL265402  16.817  18.311   5.782
 5040POPC   C1A65403  16.359  18.297   6.136
 5040POPC   D2A65404  16.395  18.130   6.539
 5040POPC   C3A65405  16.393  18.073   6.983
 5040POPC   C4A65406  16.776  18.122   7.239
 5040POPC   C1B65407  16.851  18.447   6.161
 5040POPC   C2B65408  16.866  18.345   6.582
 5040POPC   C3B65409  16.928  18.585   6.919
 5040POPC   C4B65410  17.062  18.537   7.317
 5041POPC   NC365411  23.448  28.523   5.427
 5041POPC   PO465412  22.816  28.311   5.180
 5041POPC   GL165413  22.947  28.271   5.600
 5041POPC   GL265414  22.978  28.630   5.586
 5041POPC   C1A65415  22.880  28.185   6.074
 5041POPC   D2A65416  22.740  28.267   6.542
 5041POPC   C3A65417  22.972  28.111   6.917
 5041POPC   C4A65418  23.249  28.251   7.225
 5041POPC   C1B65419  22.928  28.706   6.037
 5041POPC   C2B65420  22.915  28.780   6.484
 5041POPC   C3B65421  22.942  28.622   6.900
 5041POPC   C4B65422  23.108  28.729   7.295
 5042POPC   NC365423  35.166  18.150   5.514
 5042POPC   PO465424  35.740  18.467   5.421
 5042POPC   GL165425  35.570  18.366   5.807
 5042POPC   GL265426  35.568  18.013   5.869
 5042POPC   C1A65427  35.495  18.566   6.205
 5042POPC   D2A65428  35.433  18.466   6.620
 5042POPC   C3A65429  35.485  18.547   7.038
 5042POPC   C4A65430  35.353  18.173   7.232
 5042POPC   C1B65431  35.404  18.063   6.291
 5042POPC   C2B65432  35.356  17.983   6.745
 5042POPC   C3B65433  35.093  17.765   7.010
 5042POPC   C4B65434  35.169  17.765   7.454
 5043POPC   NC365435  29.418  33.533   5.237
 5043POPC   PO465436  29.053  34.036   5.407
 5043POPC   GL165437  28.917  33.984   5.799
 5043POPC   GL265438  28.701  33.713   5.744
 5043POPC   C1A65439  29.172  33.979   6.156
 5043POPC   D2A65440  29.443  33.791   6.455
 5043POPC   C3A65441  29.256  33.883   6.822
 5043POPC   C4A65442  29.149  34.058   7.197
 5043POPC   C1B65443  28.820  33.534   6.130
 5043POPC   C2B65444  28.888  33.725   6.522
 5043POPC   C3B65445  28.757  33.793   6.952
 5043POPC   C4B65446  28.720  33.735   7.384
 5044POPC   NC365447  15.779   2.162   5.292
 5044POPC   PO465448  16.414   2.067   5.464
 5044POPC   GL165449  16.070   1.923   5.714
 5044POPC   GL265450  15.759   2.086   5.790
 5044POPC   C1A65451  15.950   1.757   6.130
 5044POPC   D2A65452  16.138   1.720   6.520
 5044POPC   C3A65453  15.872   1.732   6.866
 5044POPC   C4A65454  16.034   1.824   7.248
 5044POPC   C1B65455  15.960   2.266   6.150
 5044POPC   C2B65456  15.864   2.174   6.566
 5044POPC   C3B65457  15.790   2.253   6.988
 5044POPC   C4B65458  15.555   1.975   7.224
 5045POPC   NC365459  15.830   9.191   5.357
 5045POPC   PO465460  15.676   8.545   5.549
 5045POPC   GL165461  15.918   8.813   5.859
 5045POPC   GL265462  15.996   9.173   5.855
 5045POPC   C1A65463  16.006   8.964   6.302
 5045POPC   D2A65464  16.138   8.984   6.732
 5045POPC   C3A65465  15.844   8.814   7.020
 5045POPC   C4A65466  15.514   8.733   7.290
 5045POPC   C1B65467  16.411   9.231   6.121
 5045POPC   C2B65468  16.566   9.290   6.560
 5045POPC   C3B65469  16.575   9.108   6.978
 5045POPC   C4B65470  16.225   9.078   7.259
 5046POPC   NC365471   8.770   7.464   5.429
 5046POPC   PO465472   8.693   7.935   5.876
 5046POPC   GL165473   8.793   7.516   5.949
 5046POPC   GL265474   9.112   7.489   5.842
 5046POPC   C1A65475   8.858   7.350   6.345
 5046POPC   D2A65476   8.631   7.542   6.685
 5046POPC   C3A65477   8.843   7.485   7.046
 5046POPC   C4A65478   8.854   7.087   7.216
 5046POPC   C1B65479   9.340   7.578   6.252
 5046POPC   C2B65480   9.231   7.550   6.698
 5046POPC   C3B65481   9.362   7.561   7.133
 5046POPC   C4B65482   9.375   7.863   7.453
 5047POPC   NC365483  27.065  27.059   5.495
 5047POPC   PO465484  27.755  26.945   5.286
 5047POPC   GL165485  27.718  26.893   5.721
 5047POPC   GL265486  27.503  27.173   5.800
 5047POPC   C1A65487  27.808  26.668   6.132
 5047POPC   D2A65488  27.610  26.558   6.545
 5047POPC   C3A65489  27.467  26.722   6.923
 5047POPC   C4A65490  27.500  26.836   7.329
 5047POPC   C1B65491  27.802  27.180   6.157
 5047POPC   C2B65492  27.997  26.954   6.501
 5047POPC   C3B65493  27.910  26.980   6.899
 5047POPC   C4B65494  28.006  27.265   7.208
 5048POPC   NC365495  15.079  35.485   5.492
 5048POPC   PO465496  14.396  35.207   5.415
 5048POPC   GL165497  14.830  35.243   5.848
 5048POPC   GL265498  15.108  35.578   5.964
 5048POPC   C1A65499  14.741  35.508   6.276
 5048POPC   D2A65500  15.042  35.716   6.536
 5048POPC   C3A65501  15.087  35.582   6.995
 5048POPC   C4A65502  14.897  35.173   7.080
 5048POPC   C1B65503  15.308  35.351   6.284
 5048POPC   C2B65504  15.456  35.339   6.708
 5048POPC   C3B65505  15.417  35.191   7.106
 5048POPC   C4B65506  15.399  35.459   7.421
 5049POPC   NC365507  14.708   3.860   5.116
 5049POPC   PO465508  15.219   3.495   5.377
 5049POPC   GL165509  15.198   3.455   5.800
 5049POPC   GL265510  15.117   3.080   5.773
 5049POPC   C1A65511  15.281   3.671   6.188
 5049POPC   D2A65512  15.243   3.448   6.584
 5049POPC   C3A65513  15.318   3.698   6.933
 5049POPC   C4A65514  15.170   3.648   7.325
 5049POPC   C1B65515  15.020   3.175   6.200
 5049POPC   C2B65516  14.728   3.204   6.556
 5049POPC   C3B65517  14.853   3.367   6.932
 5049POPC   C4B65518  15.225   3.204   7.071
 5050POPC   NC365519  12.571  42.867   5.131
 5050POPC   PO465520  12.963  43.369   5.336
 5050POPC   GL165521  12.841  43.375   5.762
 5050POPC   GL265522  13.148  43.234   5.854
 5050POPC   C1A65523  12.814  43.316   6.228
 5050POPC   D2A65524  12.982  43.268   6.649
 5050POPC   C3A65525  12.687  43.141   6.950
 5050POPC   C4A65526  12.450  43.297   7.274
 5050POPC   C1B65527  13.371  43.214   6.209
 5050POPC   C2B65528  13.465  43.430   6.566
 5050POPC   C3B65529  13.413  43.225   6.936
 5050POPC   C4B65530  13.240  43.052   7.279
 5051POPC   NC365531   7.415  27.154   5.581
 5051POPC   PO465532   7.499  26.487   5.561
 5051POPC   GL165533   7.456  26.773   5.932
 5051POPC   GL265534   7.748  26.951   5.932
 5051POPC   C1A65535   7.429  27.052   6.327
 5051POPC   D2A65536   7.622  26.970   6.747
 5051POPC   C3A65537   7.435  26.901   7.138
 5051POPC   C4A65538   7.319  26.514   7.356
 5051POPC   C1B65539   7.822  26.731   6.333
 5051POPC   C2B65540   7.903  26.512   6.717
 5051POPC   C3B65541   7.811  26.482   7.142
 5051POPC   C4B65542   7.731  26.307   7.570
 5052POPC   NC365543  20.862   0.085   5.576
 5052POPC   PO465544  20.320   0.226   5.345
 5052POPC   GL165545  20.472   0.336   5.777
 5052POPC   GL265546  20.743   0.589   5.804
 5052POPC   C1A65547  20.581   0.282   6.213
 5052POPC   D2A65548  20.417   0.500   6.595
 5052POPC   C3A65549  20.486   0.254   6.970
 5052POPC   C4A65550  20.698   0.242   7.371
 5052POPC   C1B65551  20.619   0.784   6.201
 5052POPC   C2B65552  20.873   0.783   6.597
 5052POPC   C3B65553  20.852   0.651   7.021
 5052POPC   C4B65554  20.508   0.790   7.253
 5053POPC   NC365555  13.606  23.324   5.488
 5053POPC   PO465556  13.814  23.973   5.416
 5053POPC   GL165557  13.697  23.733   5.774
 5053POPC   GL265558  13.374  23.651   5.862
 5053POPC   C1A65559  13.761  23.669   6.213
 5053POPC   D2A65560  13.712  23.922   6.557
 5053POPC   C3A65561  13.548  23.786   6.923
 5053POPC   C4A65562  13.825  23.827   7.259
 5053POPC   C1B65563  13.354  23.342   6.216
 5053POPC   C2B65564  13.507  23.330   6.654
 5053POPC   C3B65565  13.552  23.303   7.103
 5053POPC   C4B65566  13.379  23.618   7.385
 5054POPC   NC365567  30.892  40.384   5.484
 5054POPC   PO465568  31.021  39.671   5.436
 5054POPC   GL165569  30.866  39.890   5.805
 5054POPC   GL265570  30.568  40.096   5.862
 5054POPC   C1A65571  30.725  39.778   6.237
 5054POPC   D2A65572  30.649  39.898   6.670
 5054POPC   C3A65573  30.730  39.642   7.038
 5054POPC   C4A65574  31.047  39.587   7.400
 5054POPC   C1B65575  30.665  40.296   6.284
 5054POPC   C2B65576  30.579  40.408   6.720
 5054POPC   C3B65577  30.518  40.196   7.076
 5054POPC   C4B65578  30.928  40.150   7.191
 5055POPC   NC365579  20.287  23.902   5.307
 5055POPC   PO465580  20.840  23.556   5.486
 5055POPC   GL165581  20.808  23.696   5.872
 5055POPC   GL265582  20.449  23.729   5.958
 5055POPC   C1A65583  20.896  23.840   6.272
 5055POPC   D2A65584  20.589  23.779   6.584
 5055POPC   C3A65585  20.731  23.677   6.952
 5055POPC   C4A65586  20.426  23.811   7.252
 5055POPC   C1B65587  20.515  23.393   6.257
 5055POPC   C2B65588  20.451  23.233   6.656
 5055POPC   C3B65589  20.386  23.325   7.087
 5055POPC   C4B65590  20.723  23.395   7.376
 5056POPC   NC365591  37.382  30.407   5.283
 5056POPC   PO465592  37.735  30.990   5.480
 5056POPC   GL165593  37.560  30.738   5.811
 5056POPC   GL265594  37.701  30.421   5.769
 5056POPC   C1A65595  37.495  30.547   6.236
 5056POPC   D2A65596  37.451  30.485   6.698
 5056POPC   C3A65597  37.433  30.884   6.990
 5056POPC   C4A65598  37.432  30.900   7.503
 5056POPC   C1B65599  37.944  30.288   6.155
 5056POPC   C2B65600  37.984  30.240   6.611
 5056POPC   C3B65601  37.833  30.348   7.029
 5056POPC   C4B65602  37.427  30.451   7.219
 5057POPC   NC365603  25.139   1.485   5.303
 5057POPC   PO465604  25.362   0.839   5.337
 5057POPC   GL165605  25.355   1.154   5.688
 5057POPC   GL265606  25.106   1.422   5.808
 5057POPC   C1A65607  25.425   1.160   6.134
 5057POPC   D2A65608  25.275   1.006   6.529
 5057POPC   C3A65609  25.463   1.145   6.896
 5057POPC   C4A65610  25.660   1.241   7.279
 5057POPC   C1B65611  24.894   1.277   6.207
 5057POPC   C2B65612  24.637   1.134   6.564
 5057POPC   C3B65613  24.700   0.922   6.963
 5057POPC   C4B65614  25.081   1.016   7.197
 5058POPC   NC365615  11.633  36.531   5.543
 5058POPC   PO465616  11.097  36.954   5.367
 5058POPC   GL165617  11.314  36.902   5.767
 5058POPC   GL265618  11.618  37.054   5.755
 5058POPC   C1A65619  11.265  36.748   6.241
 5058POPC   D2A65620  11.390  36.667   6.658
 5058POPC   C3A65621  11.147  36.636   7.022
 5058POPC   C4A65622  11.372  36.781   7.382
 5058POPC   C1B65623  11.480  37.185   6.154
 5058POPC   C2B65624  11.365  37.186   6.564
 5058POPC   C3B65625  11.304  37.144   7.001
 5058POPC   C4B65626  11.571  37.241   7.332
 5059POPC   NC365627  31.783  30.267   5.539
 5059POPC   PO465628  31.284  30.804   5.539
 5059POPC   GL165629  31.509  30.810   5.892
 5059POPC   GL265630  31.502  30.475   5.940
 5059POPC   C1A65631  31.469  31.060   6.253
 5059POPC   D2A65632  31.279  31.029   6.687
 5059POPC   C3A65633  31.501  30.850   7.071
 5059POPC   C4A65634  31.578  31.019   7.481
 5059POPC   C1B65635  31.270  30.609   6.333
 5059POPC   C2B65636  31.324  30.490   6.744
 5059POPC   C3B65637  31.109  30.515   7.127
 5059POPC   C4B65638  31.135  30.232   7.485
 5060POPC   NC365639  39.060  29.272   5.384
 5060POPC   PO465640  39.574  28.851   5.542
 5060POPC   GL165641  39.434  29.261   5.762
 5060POPC   GL265642  39.086  29.340   5.889
 5060POPC   C1A65643  39.523  29.338   6.199
 5060POPC   D2A65644  39.367  29.104   6.561
 5060POPC   C3A65645  39.439  29.236   6.972
 5060POPC   C4A65646  39.156  29.156   7.284
 5060POPC   C1B65647  38.971  29.355   6.335
 5060POPC   C2B65648  38.997  29.443   6.794
 5060POPC   C3B65649  39.124  29.658   7.207
 5060POPC   C4B65650  39.068  29.479   7.662
 5061POPC   NC365651  39.444   3.802   5.396
 5061POPC   PO465652  38.901   3.289   5.376
 5061POPC   GL165653  39.119   3.246   5.788
 5061POPC   GL265654  39.309   3.569   5.845
 5061POPC   C1A65655  39.228   3.250   6.242
 5061POPC   D2A65656  39.336   3.428   6.645
 5061POPC   C3A65657  39.107   3.284   7.039
 5061POPC   C4A65658  39.163   3.137   7.477
 5061POPC   C1B65659  39.576   3.664   6.218
 5061POPC   C2B65660  39.501   3.898   6.620
 5061POPC   C3B65661  39.229   3.823   6.969
 5061POPC   C4B65662  39.394   3.599   7.320
 5062POPC   NC365663  44.410  26.112   5.342
 5062POPC   PO465664   0.005  25.845   5.308
 5062POPC   GL165665  44.811  25.858   5.748
 5062POPC   GL265666  44.733  26.222   5.815
 5062POPC   C1A65667  44.739  25.895   6.223
 5062POPC   D2A65668  44.937  26.063   6.624
 5062POPC   C3A65669  44.691  25.905   6.966
 5062POPC   C4A65670  44.849  25.559   7.213
 5062POPC   C1B65671  44.482  26.384   6.200
 5062POPC   C2B65672  44.560  26.421   6.669
 5062POPC   C3B65673  44.698  26.411   7.113
 5062POPC   C4B65674  44.548  26.410   7.559
 5063POPC   NC365675  34.513  15.823   5.264
 5063POPC   PO465676  34.087  16.292   5.479
 5063POPC   GL165677  34.257  16.041   5.780
 5063POPC   GL265678  34.610  15.923   5.764
 5063POPC   C1A65679  34.318  16.200   6.191
 5063POPC   D2A65680  34.457  15.933   6.541
 5063POPC   C3A65681  34.319  16.083   6.931
 5063POPC   C4A65682  34.367  15.903   7.303
 5063POPC   C1B65683  34.803  16.081   6.165
 5063POPC   C2B65684  34.983  16.129   6.563
 5063POPC   C3B65685  34.824  16.050   6.955
 5063POPC   C4B65686  34.897  16.301   7.309
 5064POPC   NC365687  27.761  34.766   5.435
 5064POPC   PO465688  27.289  34.194   5.380
 5064POPC   GL165689  27.559  34.368   5.728
 5064POPC   GL265690  27.866  34.173   5.735
 5064POPC   C1A65691  27.465  34.584   6.140
 5064POPC   D2A65692  27.490  34.799   6.556
 5064POPC   C3A65693  27.700  34.717   6.948
 5064POPC   C4A65694  27.498  34.846   7.354
 5064POPC   C1B65695  27.875  34.259   6.185
 5064POPC   C2B65696  27.999  34.268   6.628
 5064POPC   C3B65697  27.778  34.225   7.005
 5064POPC   C4B65698  27.526  34.347   7.380
 5065POPC   NC365699  37.803  38.980   5.452
 5065POPC   PO465700  37.457  39.539   5.671
 5065POPC   GL165701  37.378  39.310   6.011
 5065POPC   GL265702  37.542  39.033   5.889
 5065POPC   C1A65703  37.484  39.405   6.442
 5065POPC   D2A65704  37.862  39.658   6.526
 5065POPC   C3A65705  38.048  39.572   6.906
 5065POPC   C4A65706  37.796  39.417   7.234
 5065POPC   C1B65707  37.827  39.019   6.263
 5065POPC   C2B65708  37.865  39.119   6.719
 5065POPC   C3B65709  37.603  38.985   7.070
 5065POPC   C4B65710  37.550  38.946   7.538
 5066POPC   NC365711   8.946  18.493   5.433
 5066POPC   PO465712   9.274  18.012   5.106
 5066POPC   GL165713   9.112  18.039   5.565
 5066POPC   GL265714   8.741  18.054   5.645
 5066POPC   C1A65715   9.171  18.156   6.008
 5066POPC   D2A65716   9.005  18.395   6.357
 5066POPC   C3A65717   9.113  18.247   6.774
 5066POPC   C4A65718   9.055  18.348   7.215
 5066POPC   C1B65719   8.659  18.092   6.091
 5066POPC   C2B65720   8.594  18.108   6.524
 5066POPC   C3B65721   8.625  18.385   6.860
 5066POPC   C4B65722   8.553  18.319   7.261
 5067POPC   NC365723  40.369  30.166   5.440
 5067POPC   PO465724  40.127  29.585   5.437
 5067POPC   GL165725  39.819  29.683   5.762
 5067POPC   GL265726  39.837  30.047   5.693
 5067POPC   C1A65727  39.768  29.836   6.211
 5067POPC   D2A65728  40.117  29.933   6.529
 5067POPC   C3A65729  40.045  29.757   6.950
 5067POPC   C4A65730  39.757  29.546   7.223
 5067POPC   C1B65731  40.065  30.226   6.066
 5067POPC   C2B65732  40.000  30.430   6.478
 5067POPC   C3B65733  40.075  30.307   6.902
 5067POPC   C4B65734  39.956  30.129   7.290
 5068POPC   NC365735   4.443  19.452   5.214
 5068POPC   PO465736   4.410  20.154   5.279
 5068POPC   GL165737   4.391  20.158   5.738
 5068POPC   GL265738   4.341  19.807   5.718
 5068POPC   C1A65739   4.619  19.954   6.127
 5068POPC   D2A65740   4.579  19.773   6.525
 5068POPC   C3A65741   4.587  19.995   6.927
 5068POPC   C4A65742   4.313  20.046   7.277
 5068POPC   C1B65743   4.020  19.627   6.019
 5068POPC   C2B65744   4.130  19.513   6.448
 5068POPC   C3B65745   4.150  19.646   6.891
 5068POPC   C4B65746   3.914  19.581   7.283
 5069POPC   NC365747  19.302   1.950   5.454
 5069POPC   PO465748  20.023   1.874   5.372
 5069POPC   GL165749  19.871   2.048   5.763
 5069POPC   GL265750  19.803   1.709   5.823
 5069POPC   C1A65751  19.966   2.065   6.239
 5069POPC   D2A65752  20.267   2.054   6.617
 5069POPC   C3A65753  20.035   2.062   7.004
 5069POPC   C4A65754  19.819   2.378   7.281
 5069POPC   C1B65755  19.493   1.845   6.129
 5069POPC   C2B65756  19.374   2.063   6.523
 5069POPC   C3B65757  19.524   2.158   6.918
 5069POPC   C4B65758  19.636   1.920   7.290
 5070POPC   NC365759  27.276  23.515   5.483
 5070POPC   PO465760  27.764  23.981   5.334
 5070POPC   GL165761  27.763  23.812   5.808
 5070POPC   GL265762  27.971  23.534   5.961
 5070POPC   C1A65763  27.713  23.815   6.280
 5070POPC   D2A65764  27.563  23.940   6.663
 5070POPC   C3A65765  27.665  23.674   6.966
 5070POPC   C4A65766  27.532  23.834   7.348
 5070POPC   C1B65767  27.565  23.336   6.177
 5070POPC   C2B65768  27.355  23.341   6.638
 5070POPC   C3B65769  27.427  23.247   7.109
 5070POPC   C4B65770  27.777  23.367   7.386
 5071POPC   NC365771  30.910  29.408   5.403
 5071POPC   PO465772  30.449  28.962   5.489
 5071POPC   GL165773  30.583  29.020   5.922
 5071POPC   GL265774  30.889  29.162   5.859
 5071POPC   C1A65775  30.829  28.844   6.301
 5071POPC   D2A65776  30.672  28.717   6.723
 5071POPC   C3A65777  30.546  29.013   7.072
 5071POPC   C4A65778  30.472  29.086   7.522
 5071POPC   C1B65779  30.871  29.347   6.259
 5071POPC   C2B65780  31.100  29.254   6.648
 5071POPC   C3B65781  31.044  29.103   7.067
 5071POPC   C4B65782  30.961  29.276   7.446
 5072POPC   NC365783  22.719  42.696   5.447
 5072POPC   PO465784  23.166  42.279   5.208
 5072POPC   GL165785  22.914  42.261   5.673
 5072POPC   GL265786  22.562  42.154   5.678
 5072POPC   C1A65787  22.805  42.471   6.137
 5072POPC   D2A65788  22.789  42.545   6.639
 5072POPC   C3A65789  23.119  42.413   6.949
 5072POPC   C4A65790  23.327  42.643   7.293
 5072POPC   C1B65791  22.632  41.985   6.097
 5072POPC   C2B65792  22.856  42.069   6.494
 5072POPC   C3B65793  22.678  42.109   6.905
 5072POPC   C4B65794  22.651  42.479   7.167
 5073POPC   NC365795   1.857  41.615   5.310
 5073POPC   PO465796   2.442  41.239   5.404
 5073POPC   GL165797   2.162  41.286   5.752
 5073POPC   GL265798   1.807  41.199   5.658
 5073POPC   C1A65799   2.030  41.569   6.112
 5073POPC   D2A65800   1.839  41.784   6.489
 5073POPC   C3A65801   1.970  41.600   6.879
 5073POPC   C4A65802   2.054  41.760   7.282
 5073POPC   C1B65803   1.848  41.088   6.099
 5073POPC   C2B65804   1.802  41.259   6.508
 5073POPC   C3B65805   1.525  41.186   6.858
 5073POPC   C4B65806   1.550  41.332   7.273
 5074POPC   NC365807  17.169  18.970   5.470
 5074POPC   PO465808  17.852  18.775   5.497
 5074POPC   GL165809  17.889  18.995   5.893
 5074POPC   GL265810  17.684  19.276   5.855
 5074POPC   C1A65811  17.851  19.125   6.339
 5074POPC   D2A65812  17.485  18.947   6.533
 5074POPC   C3A65813  17.356  18.884   6.945
 5074POPC   C4A65814  17.560  18.672   7.224
 5074POPC   C1B65815  17.386  19.333   6.214
 5074POPC   C2B65816  17.367  19.439   6.672
 5074POPC   C3B65817  17.381  19.354   7.147
 5074POPC   C4B65818  17.146  19.389   7.539
 5075POPC   NC365819  39.655  41.699   5.514
 5075POPC   PO465820  40.241  41.709   5.169
 5075POPC   GL165821  40.068  41.410   5.697
 5075POPC   GL265822  39.773  41.182   5.776
 5075POPC   C1A65823  39.977  41.497   6.167
 5075POPC   D2A65824  40.122  41.600   6.592
 5075POPC   C3A65825  39.913  41.671   6.938
 5075POPC   C4A65826  40.001  41.405   7.291
 5075POPC   C1B65827  39.490  41.353   6.126
 5075POPC   C2B65828  39.602  41.479   6.555
 5075POPC   C3B65829  39.731  41.201   6.888
 5075POPC   C4B65830  39.579  41.076   7.278
 5076POPC   NC365831  43.599  37.231   4.918
 5076POPC   PO465832  43.718  36.695   5.311
 5076POPC   GL165833  43.817  36.964   5.650
 5076POPC   GL265834  44.100  36.894   5.864
 5076POPC   C1A65835  43.710  37.153   6.077
 5076POPC   D2A65836  43.596  37.138   6.546
 5076POPC   C3A65837  43.871  36.919   6.885
 5076POPC   C4A65838  43.857  36.563   7.222
 5076POPC   C1B65839  44.343  36.713   6.209
 5076POPC   C2B65840  44.232  36.543   6.618
 5076POPC   C3B65841  44.321  36.668   7.038
 5076POPC   C4B65842  44.289  36.631   7.511
 5077POPC   NC365843  33.349   6.101   5.336
 5077POPC   PO465844  32.674   6.146   5.459
 5077POPC   GL165845  32.941   6.156   5.845
 5077POPC   GL265846  33.263   6.346   5.825
 5077POPC   C1A65847  32.936   5.850   6.189
 5077POPC   D2A65848  32.867   5.616   6.584
 5077POPC   C3A65849  33.012   5.823   6.967
 5077POPC   C4A65850  32.769   6.144   7.150
 5077POPC   C1B65851  33.321   6.177   6.275
 5077POPC   C2B65852  33.354   5.784   6.544
 5077POPC   C3B65853  33.506   5.677   6.971
 5077POPC   C4B65854  33.672   5.955   7.309
 5078POPC   NC365855  17.072  40.512   5.431
 5078POPC   PO465856  16.461  40.823   5.337
 5078POPC   GL165857  16.677  40.721   5.736
 5078POPC   GL265858  16.404  40.639   5.949
 5078POPC   C1A65859  16.881  40.771   6.171
 5078POPC   D2A65860  17.049  40.963   6.572
 5078POPC   C3A65861  17.030  40.767   6.997
 5078POPC   C4A65862  16.949  40.609   7.455
 5078POPC   C1B65863  16.392  40.724   6.402
 5078POPC   C2B65864  16.556  40.913   6.754
 5078POPC   C3B65865  16.539  40.769   7.150
 5078POPC   C4B65866  16.348  40.834   7.521
 5079POPC   NC365867  43.654  41.103   5.253
 5079POPC   PO465868  43.663  40.487   5.411
 5079POPC   GL165869  43.955  40.651   5.711
 5079POPC   GL265870  43.808  40.954   5.714
 5079POPC   C1A65871  44.036  40.805   6.164
 5079POPC   D2A65872  43.933  41.037   6.561
 5079POPC   C3A65873  44.112  40.876   6.958
 5079POPC   C4A65874  44.037  40.634   7.356
 5079POPC   C1B65875  43.638  41.131   6.081
 5079POPC   C2B65876  43.587  41.409   6.414
 5079POPC   C3B65877  43.578  41.308   6.844
 5079POPC   C4B65878  43.636  41.452   7.241
 5080POPC   NC365879  26.884  11.792   5.426
 5080POPC   PO465880  26.985  12.415   5.478
 5080POPC   GL165881  26.817  12.189   5.871
 5080POPC   GL265882  26.768  11.840   5.923
 5080POPC   C1A65883  26.928  12.100   6.332
 5080POPC   D2A65884  26.893  11.784   6.659
 5080POPC   C3A65885  26.828  11.988   7.044
 5080POPC   C4A65886  27.023  12.260   7.366
 5080POPC   C1B65887  26.445  11.979   6.216
 5080POPC   C2B65888  26.433  12.016   6.648
 5080POPC   C3B65889  26.310  11.843   7.012
 5080POPC   C4B65890  26.442  11.925   7.405
 5081POPC   NC365891  43.667   6.310   5.190
 5081POPC   PO465892  44.011   6.825   5.328
 5081POPC   GL165893  43.899   6.770   5.752
 5081POPC   GL265894  43.771   6.445   5.702
 5081POPC   C1A65895  43.631   6.932   6.126
 5081POPC   D2A65896  43.429   6.860   6.521
 5081POPC   C3A65897  43.628   6.933   6.917
 5081POPC   C4A65898  43.928   6.873   7.228
 5081POPC   C1B65899  43.771   6.450   6.146
 5081POPC   C2B65900  43.874   6.619   6.528
 5081POPC   C3B65901  43.872   6.451   6.923
 5081POPC   C4B65902  43.691   6.410   7.320
 5082POPC   NC365903  42.878   3.435   5.650
 5082POPC   PO465904  42.267   3.211   5.320
 5082POPC   GL165905  42.110   3.334   5.728
 5082POPC   GL265906  42.395   3.577   5.773
 5082POPC   C1A65907  42.118   3.430   6.183
 5082POPC   D2A65908  42.400   3.570   6.510
 5082POPC   C3A65909  42.301   3.444   6.894
 5082POPC   C4A65910  42.075   3.586   7.205
 5082POPC   C1B65911  42.299   3.908   6.100
 5082POPC   C2B65912  42.212   4.040   6.537
 5082POPC   C3B65913  42.403   3.944   6.942
 5082POPC   C4B65914  42.717   4.041   7.264
 5083POPC   NC365915  29.644  44.085   5.307
 5083POPC   PO465916  29.831  43.455   5.411
 5083POPC   GL165917  29.783  43.720   5.773
 5083POPC   GL265918  29.897  44.069   5.774
 5083POPC   C1A65919  29.918  43.746   6.207
 5083POPC   D2A65920  29.831  43.696   6.635
 5083POPC   C3A65921  29.907  43.524   7.042
 5083POPC   C4A65922  29.506  43.578   7.254
 5083POPC   C1B65923  30.171  44.179   6.144
 5083POPC   C2B65924  30.208  44.024   6.592
 5083POPC   C3B65925  30.068  44.039   7.032
 5083POPC   C4B65926  30.213  44.224   7.414
 5084POPC   NC365927  13.190  23.849   5.420
 5084POPC   PO465928  12.524  23.544   5.393
 5084POPC   GL165929  12.738  23.751   5.755
 5084POPC   GL265930  12.619  24.093   5.756
 5084POPC   C1A65931  12.955  23.687   6.169
 5084POPC   D2A65932  12.935  23.459   6.590
 5084POPC   C3A65933  13.052  23.669   6.979
 5084POPC   C4A65934  12.881  23.688   7.409
 5084POPC   C1B65935  12.438  24.131   6.145
 5084POPC   C2B65936  12.594  23.950   6.501
 5084POPC   C3B65937  12.722  24.056   6.881
 5084POPC   C4B65938  12.542  24.000   7.237
 5085POPC   NC365939  22.203   2.196   5.317
 5085POPC   PO465940  22.390   1.590   5.277
 5085POPC   GL165941  22.189   1.681   5.685
 5085POPC   GL265942  21.892   1.874   5.598
 5085POPC   C1A65943  22.316   1.657   6.145
 5085POPC   D2A65944  22.472   1.755   6.577
 5085POPC   C3A65945  22.379   1.612   6.996
 5085POPC   C4A65946  22.250   1.901   7.345
 5085POPC   C1B65947  22.059   2.100   5.981
 5085POPC   C2B65948  21.999   2.182   6.426
 5085POPC   C3B65949  22.055   2.123   6.891
 5085POPC   C4B65950  22.149   2.399   7.243
 5086POPC   NC365951  16.027  27.803   5.498
 5086POPC   PO465952  16.132  27.143   5.313
 5086POPC   GL165953  16.017  27.262   5.776
 5086POPC   GL265954  16.188  27.548   5.930
 5086POPC   C1A65955  15.742  27.195   6.152
 5086POPC   D2A65956  15.487  27.207   6.541
 5086POPC   C3A65957  15.637  27.263   6.971
 5086POPC   C4A65958  15.541  27.593   7.273
 5086POPC   C1B65959  15.975  27.609   6.320
 5086POPC   C2B65960  16.029  27.485   6.721
 5086POPC   C3B65961  16.038  27.575   7.149
 5086POPC   C4B65962  16.332  27.444   7.438
 5087POPC   NC365963  30.333  25.704   5.539
 5087POPC   PO465964  30.635  26.211   5.155
 5087POPC   GL165965  30.639  26.167   5.638
 5087POPC   GL265966  30.765  25.832   5.789
 5087POPC   C1A65967  30.648  26.213   6.117
 5087POPC   D2A65968  30.864  25.973   6.454
 5087POPC   C3A65969  30.740  25.984   6.883
 5087POPC   C4A65970  30.704  26.063   7.326
 5087POPC   C1B65971  30.536  25.706   6.175
 5087POPC   C2B65972  30.462  25.628   6.634
 5087POPC   C3B65973  30.363  25.697   7.092
 5087POPC   C4B65974  30.365  25.768   7.556
 5088POPC   NC365975   4.898  28.827   5.420
 5088POPC   PO465976   5.514  28.947   5.413
 5088POPC   GL165977   5.222  29.049   5.770
 5088POPC   GL265978   5.162  28.721   5.854
 5088POPC   C1A65979   5.105  29.071   6.232
 5088POPC   D2A65980   5.336  29.205   6.607
 5088POPC   C3A65981   5.129  29.142   7.010
 5088POPC   C4A65982   4.723  29.291   7.153
 5088POPC   C1B65983   5.237  28.578   6.270
 5088POPC   C2B65984   5.072  28.746   6.658
 5088POPC   C3B65985   5.228  28.638   7.052
 5088POPC   C4B65986   5.309  28.883   7.431
 5089POPC   NC365987  17.574  28.751   5.519
 5089POPC   PO465988  17.588  29.385   5.354
 5089POPC   GL165989  17.596  29.214   5.805
 5089POPC   GL265990  17.825  28.955   5.917
 5089POPC   C1A65991  17.695  29.289   6.268
 5089POPC   D2A65992  17.748  29.064   6.648
 5089POPC   C3A65993  17.660  29.314   7.037
 5089POPC   C4A65994  17.342  29.278   7.352
 5089POPC   C1B65995  17.473  28.835   6.174
 5089POPC   C2B65996  17.369  28.716   6.554
 5089POPC   C3B65997  17.356  28.845   6.963
 5089POPC   C4B65998  17.605  28.847   7.279
 5090POPC   NC365999  42.887  10.764   5.440
 5090POPC   PO466000  42.988  11.399   5.331
 5090POPC   GL166001  42.994  11.376   5.775
 5090POPC   GL266002  43.221  11.098   5.880
 5090POPC   C1A66003  42.857  11.509   6.204
 5090POPC   D2A66004  42.971  11.342   6.627
 5090POPC   C3A66005  42.895  11.512   7.057
 5090POPC   C4A66006  42.901  11.480   7.511
 5090POPC   C1B66007  42.877  10.982   6.156
 5090POPC   C2B66008  42.660  10.931   6.558
 5090POPC   C3B66009  42.740  10.994   7.003
 5090POPC   C4B66010  43.102  11.058   7.269
 5091POPC   NC366011  25.758  23.154   5.440
 5091POPC   PO466012  26.221  22.878   5.261
 5091POPC   GL166013  26.106  22.883   5.711
 5091POPC   GL266014  26.126  23.205   5.845
 5091POPC   C1A66015  25.963  22.753   6.119
 5091POPC   D2A66016  25.989  22.930   6.540
 5091POPC   C3A66017  26.007  22.736   6.965
 5091POPC   C4A66018  25.987  22.925   7.410
 5091POPC   C1B66019  25.769  23.262   6.142
 5091POPC   C2B66020  25.736  23.397   6.585
 5091POPC   C3B66021  25.811  23.225   7.026
 5091POPC   C4B66022  25.770  23.437   7.414
 5092POPC   NC366023  13.857  37.326   5.347
 5092POPC   PO466024  13.432  37.848   5.293
 5092POPC   GL166025  13.501  37.859   5.762
 5092POPC   GL266026  13.812  37.683   5.853
 5092POPC   C1A66027  13.443  37.842   6.226
 5092POPC   D2A66028  13.305  37.894   6.658
 5092POPC   C3A66029  13.594  37.702   6.958
 5092POPC   C4A66030  13.772  37.392   7.222
 5092POPC   C1B66031  13.935  37.973   6.196
 5092POPC   C2B66032  13.793  38.048   6.632
 5092POPC   C3B66033  13.828  38.132   7.110
 5092POPC   C4B66034  14.062  38.052   7.527
 5093POPC   NC366035  44.888   3.358   5.498
 5093POPC   PO466036  44.482   3.857   5.387
 5093POPC   GL166037  44.663   3.737   5.782
 5093POPC   GL266038   0.010   3.712   5.883
 5093POPC   C1A66039  44.660   3.443   6.146
 5093POPC   D2A66040  44.553   3.239   6.530
 5093POPC   C3A66041  44.593   3.467   6.871
 5093POPC   C4A66042  44.747   3.431   7.250
 5093POPC   C1B66043  44.763   3.981   6.206
 5093POPC   C2B66044  44.693   3.921   6.641
 5093POPC   C3B66045  44.860   3.898   7.071
 5093POPC   C4B66046   0.077   3.738   7.467
 5094POPC   NC366047  20.418   1.830   5.143
 5094POPC   PO466048  21.014   1.956   5.475
 5094POPC   GL166049  20.719   1.930   5.846
 5094POPC   GL266050  20.359   1.859   5.767
 5094POPC   C1A66051  20.664   2.161   6.225
 5094POPC   D2A66052  20.696   2.346   6.616
 5094POPC   C3A66053  20.691   2.137   7.011
 5094POPC   C4A66054  20.654   2.054   7.479
 5094POPC   C1B66055  20.392   1.738   6.213
 5094POPC   C2B66056  20.514   1.600   6.663
 5094POPC   C3B66057  20.412   1.719   7.122
 5094POPC   C4B66058  20.179   1.898   7.479
 5095POPC   NC366059  37.007  25.458   5.341
 5095POPC   PO466060  36.503  25.006   5.405
 5095POPC   GL166061  36.658  25.220   5.793
 5095POPC   GL266062  36.759  25.589   5.763
 5095POPC   C1A66063  36.840  25.045   6.220
 5095POPC   D2A66064  36.910  24.830   6.645
 5095POPC   C3A66065  37.017  25.054   7.035
 5095POPC   C4A66066  37.057  25.036   7.507
 5095POPC   C1B66067  36.722  25.548   6.232
 5095POPC   C2B66068  36.843  25.377   6.654
 5095POPC   C3B66069  36.651  25.431   7.076
 5095POPC   C4B66070  36.714  25.424   7.544
 5096POPC   NC366071  44.447  11.035   5.424
 5096POPC   PO466072  44.988  11.444   5.432
 5096POPC   GL166073  44.796  11.195   5.751
 5096POPC   GL266074   0.101  11.122   5.924
 5096POPC   C1A66075  44.621  11.144   6.156
 5096POPC   D2A66076  44.853  11.194   6.519
 5096POPC   C3A66077  44.569  11.156   6.841
 5096POPC   C4A66078  44.605  11.335   7.238
 5096POPC   C1B66079  44.929  11.550   6.114
 5096POPC   C2B66080  44.970  11.770   6.511
 5096POPC   C3B66081  44.906  11.599   6.900
 5096POPC   C4B66082   0.082  11.536   7.298
 5097POPC   NC366083  25.868  39.790   5.218
 5097POPC   PO466084  26.134  39.174   5.586
 5097POPC   GL166085  26.134  38.956   5.987
 5097POPC   GL266086  25.961  39.277   6.101
 5097POPC   C1A66087  26.136  38.958   6.452
 5097POPC   D2A66088  25.932  39.340   6.627
 5097POPC   C3A66089  26.017  39.313   7.049
 5097POPC   C4A66090  26.343  39.042   7.231
 5097POPC   C1B66091  26.362  39.391   6.284
 5097POPC   C2B66092  26.445  39.317   6.723
 5097POPC   C3B66093  26.501  39.522   7.131
 5097POPC   C4B66094  26.450  39.385   7.575
 5098POPC   NC366095  39.043  26.548   5.512
 5098POPC   PO466096  39.401  27.113   5.566
 5098POPC   GL166097  39.307  26.855   5.884
 5098POPC   GL266098  39.573  26.635   5.801
 5098POPC   C1A66099  39.191  26.977   6.314
 5098POPC   D2A66100  39.007  26.893   6.721
 5098POPC   C3A66101  39.212  26.896   7.120
 5098POPC   C4A66102  38.957  26.811   7.506
 5098POPC   C1B66103  39.591  26.637   6.249
 5098POPC   C2B66104  39.492  26.731   6.648
 5098POPC   C3B66105  39.659  26.648   6.983
 5098POPC   C4B66106  39.657  26.279   7.254
 5099POPC   NC366107  43.414  28.888   5.447
 5099POPC   PO466108  42.952  29.406   5.407
 5099POPC   GL166109  43.162  29.223   5.761
 5099POPC   GL266110  43.403  29.403   5.920
 5099POPC   C1A66111  43.148  29.018   6.183
 5099POPC   D2A66112  43.011  29.098   6.621
 5099POPC   C3A66113  43.084  28.839   6.984
 5099POPC   C4A66114  43.517  28.905   7.091
 5099POPC   C1B66115  43.262  29.513   6.296
 5099POPC   C2B66116  43.398  29.532   6.719
 5099POPC   C3B66117  43.191  29.336   7.068
 5099POPC   C4B66118  42.983  29.531   7.415
 5100POPC   NC366119  14.764   3.808   5.652
 5100POPC   PO466120  14.248   3.324   5.543
 5100POPC   GL166121  14.398   3.548   5.905
 5100POPC   GL266122  14.685   3.358   5.885
 5100POPC   C1A66123  14.304   3.772   6.299
 5100POPC   D2A66124  14.419   3.582   6.715
 5100POPC   C3A66125  14.198   3.668   7.104
 5100POPC   C4A66126  14.111   3.830   7.521
 5100POPC   C1B66127  14.783   3.623   6.273
 5100POPC   C2B66128  14.880   3.824   6.654
 5100POPC   C3B66129  14.720   3.907   7.035
 5100POPC   C4B66130  14.651   3.619   7.327
 5101POPC   NC366131  39.975  44.752   5.258
 5101POPC   PO466132  40.569  44.496   5.423
 5101POPC   GL166133  40.172  44.517   5.681
 5101POPC   GL266134  40.151  44.244   5.940
 5101POPC   C1A66135  39.862  44.676   5.999
 5101POPC   D2A66136  39.878  44.441   6.373
 5101POPC   C3A66137  39.745  44.550   6.759
 5101POPC   C4A66138  39.697  44.596   7.186
 5101POPC   C1B66139  40.338  44.625   6.175
 5101POPC   C2B66140  40.217  44.778   6.595
 5101POPC   C3B66141  40.183  44.654   7.032
 5101POPC   C4B66142  40.349  44.679   7.451
 5102POPC   NC366143   2.357  39.053   5.318
 5102POPC   PO466144   1.893  39.526   5.613
 5102POPC   GL166145   1.878  39.218   5.900
 5102POPC   GL266146   2.234  39.164   5.864
 5102POPC   C1A66147   1.797  38.987   6.271
 5102POPC   D2A66148   2.048  38.926   6.664
 5102POPC   C3A66149   1.817  38.917   7.025
 5102POPC   C4A66150   1.859  39.024   7.453
 5102POPC   C1B66151   2.256  39.264   6.310
 5102POPC   C2B66152   2.396  39.289   6.746
 5102POPC   C3B66153   2.221  39.222   7.111
 5102POPC   C4B66154   1.978  39.517   7.295
 5103POPC   NC366155   2.351  12.188   5.532
 5103POPC   PO466156   1.856  11.748   5.358
 5103POPC   GL166157   1.955  11.934   5.746
 5103POPC   GL266158   1.903  12.334   5.758
 5103POPC   C1A66159   2.159  11.920   6.139
 5103POPC   D2A66160   2.305  12.062   6.505
 5103POPC   C3A66161   2.029  11.978   6.820
 5103POPC   C4A66162   2.110  11.874   7.225
 5103POPC   C1B66163   2.009  12.410   6.215
 5103POPC   C2B66164   2.088  12.486   6.670
 5103POPC   C3B66165   2.127  12.377   7.126
 5103POPC   C4B66166   1.901  12.364   7.525
 5104POPC   NC366167  38.738   6.909   5.567
 5104POPC   PO466168  38.444   7.431   5.313
 5104POPC   GL166169  38.531   7.605   5.718
 5104POPC   GL266170  38.865   7.491   5.847
 5104POPC   C1A66171  38.317   7.529   6.130
 5104POPC   D2A66172  38.415   7.646   6.548
 5104POPC   C3A66173  38.216   7.558   6.950
 5104POPC   C4A66174  38.330   7.535   7.370
 5104POPC   C1B66175  38.727   7.183   6.159
 5104POPC   C2B66176  38.497   7.144   6.547
 5104POPC   C3B66177  38.626   7.242   6.977
 5104POPC   C4B66178  38.510   7.068   7.387
 5105POPC   NC366179  26.843  28.034   5.491
 5105POPC   PO466180  26.646  28.705   5.457
 5105POPC   GL166181  26.714  28.408   5.803
 5105POPC   GL266182  27.053  28.361   5.831
 5105POPC   C1A66183  26.725  28.188   6.207
 5105POPC   D2A66184  26.631  28.374   6.606
 5105POPC   C3A66185  26.809  28.539   6.959
 5105POPC   C4A66186  26.818  28.389   7.360
 5105POPC   C1B66187  27.117  28.509   6.244
 5105POPC   C2B66188  27.119  28.190   6.573
 5105POPC   C3B66189  27.074  28.107   7.001
 5105POPC   C4B66190  27.240  28.149   7.436
 5106POPC   NC366191  16.035  25.361   5.354
 5106POPC   PO466192  16.524  25.736   5.600
 5106POPC   GL166193  16.163  25.518   5.855
 5106POPC   GL266194  16.013  25.182   5.829
 5106POPC   C1A66195  16.005  25.440   6.299
 5106POPC   D2A66196  16.135  25.297   6.739
 5106POPC   C3A66197  15.882  25.397   7.145
 5106POPC   C4A66198  15.818  25.449   7.639
 5106POPC   C1B66199  15.996  24.908   6.189
 5106POPC   C2B66200  15.778  24.943   6.572
 5106POPC   C3B66201  15.856  24.885   6.991
 5106POPC   C4B66202  15.565  25.002   7.285
 5107POPC   NC366203   3.716  14.169   5.438
 5107POPC   PO466204   3.263  14.633   5.402
 5107POPC   GL166205   3.471  14.486   5.794
 5107POPC   GL266206   3.656  14.765   5.892
 5107POPC   C1A66207   3.517  14.388   6.255
 5107POPC   D2A66208   3.301  14.220   6.642
 5107POPC   C3A66209   3.494  14.321   7.045
 5107POPC   C4A66210   3.857  14.500   7.253
 5107POPC   C1B66211   3.477  14.890   6.292
 5107POPC   C2B66212   3.550  14.699   6.666
 5107POPC   C3B66213   3.580  14.863   7.017
 5107POPC   C4B66214   3.568  15.133   7.369
 5108POPC   NC366215  13.817  15.270   5.435
 5108POPC   PO466216  13.376  14.883   5.231
 5108POPC   GL166217  13.420  15.052   5.708
 5108POPC   GL266218  13.760  15.021   5.865
 5108POPC   C1A66219  13.358  15.116   6.176
 5108POPC   D2A66220  13.345  15.465   6.526
 5108POPC   C3A66221  13.483  15.319   6.932
 5108POPC   C4A66222  13.798  15.139   7.220
 5108POPC   C1B66223  13.782  14.814   6.229
 5108POPC   C2B66224  13.661  14.980   6.605
 5108POPC   C3B66225  13.451  14.827   6.984
 5108POPC   C4B66226  13.374  14.889   7.448
 5109POPC   NC366227  27.614  38.809   5.265
 5109POPC   PO466228  28.007  39.245   5.478
 5109POPC   GL166229  27.752  39.337   5.832
 5109POPC   GL266230  27.379  39.245   5.864
 5109POPC   C1A66231  27.734  39.094   6.209
 5109POPC   D2A66232  27.972  39.008   6.561
 5109POPC   C3A66233  27.776  39.200   6.902
 5109POPC   C4A66234  27.798  38.965   7.253
 5109POPC   C1B66235  27.196  39.014   6.216
 5109POPC   C2B66236  27.300  39.021   6.626
 5109POPC   C3B66237  27.300  39.007   7.049
 5109POPC   C4B66238  27.424  39.323   7.323
 5110POPC   NC366239  26.501   4.560   5.445
 5110POPC   PO466240  26.176   3.947   5.476
 5110POPC   GL166241  26.119   3.887   5.904
 5110POPC   GL266242  26.142   4.257   5.925
 5110POPC   C1A66243  26.312   3.996   6.313
 5110POPC   D2A66244  26.200   4.362   6.514
 5110POPC   C3A66245  26.162   4.307   6.937
 5110POPC   C4A66246  26.029   3.982   7.178
 5110POPC   C1B66247  25.815   4.149   6.256
 5110POPC   C2B66248  25.707   4.283   6.700
 5110POPC   C3B66249  25.651   4.323   7.147
 5110POPC   C4B66250  25.618   4.620   7.504
 5111POPC   NC366251   7.373   4.258   5.285
 5111POPC   PO466252   7.642   4.804   5.467
 5111POPC   GL166253   7.470   4.566   5.802
 5111POPC   GL266254   7.255   4.307   5.805
 5111POPC   C1A66255   7.660   4.391   6.204
 5111POPC   D2A66256   7.591   4.542   6.644
 5111POPC   C3A66257   7.610   4.320   7.062
 5111POPC   C4A66258   7.831   4.402   7.443
 5111POPC   C1B66259   7.200   4.158   6.250
 5111POPC   C2B66260   7.328   4.092   6.681
 5111POPC   C3B66261   7.159   4.091   7.099
 5111POPC   C4B66262   7.285   3.822   7.425
 5112POPC   NC366263  17.079  34.570   5.573
 5112POPC   PO466264  17.672  34.660   5.305
 5112POPC   GL166265  17.553  34.635   5.767
 5112POPC   GL266266  17.411  34.295   5.853
 5112POPC   C1A66267  17.418  34.630   6.228
 5112POPC   D2A66268  17.566  34.520   6.631
 5112POPC   C3A66269  17.544  34.812   6.967
 5112POPC   C4A66270  17.485  34.739   7.428
 5112POPC   C1B66271  17.211  34.154   6.261
 5112POPC   C2B66272  17.138  34.214   6.714
 5112POPC   C3B66273  17.214  34.450   7.089
 5112POPC   C4B66274  17.187  34.338   7.512
 5113POPC   NC366275  28.616  34.249   5.397
 5113POPC   PO466276  28.282  33.574   5.445
 5113POPC   GL166277  28.210  33.776   5.817
 5113POPC   GL266278  28.375  34.106   5.831
 5113POPC   C1A66279  28.275  33.620   6.243
 5113POPC   D2A66280  28.145  33.392   6.599
 5113POPC   C3A66281  28.304  33.536   7.015
 5113POPC   C4A66282  28.166  33.623   7.469
 5113POPC   C1B66283  28.601  34.012   6.212
 5113POPC   C2B66284  28.392  33.930   6.630
 5113POPC   C3B66285  28.264  34.039   7.064
 5113POPC   C4B66286  28.344  34.104   7.510
 5114POPC   NC366287  13.310  35.830   5.244
 5114POPC   PO466288  13.819  36.146   5.635
 5114POPC   GL166289  13.455  36.167   5.894
 5114POPC   GL266290  13.376  36.516   5.842
 5114POPC   C1A66291  13.480  35.935   6.330
 5114POPC   D2A66292  13.895  35.900   6.549
 5114POPC   C3A66293  13.883  36.121   6.931
 5114POPC   C4A66294  13.527  36.048   7.214
 5114POPC   C1B66295  13.608  36.433   6.274
 5114POPC   C2B66296  13.451  36.314   6.690
 5114POPC   C3B66297  13.472  36.539   7.074
 5114POPC   C4B66298  13.492  36.505   7.532
 5115POPC   NC366299   2.140  13.794   5.416
 5115POPC   PO466300   1.600  13.352   5.547
 5115POPC   GL166301   1.906  13.481   5.837
 5115POPC   GL266302   2.183  13.269   5.831
 5115POPC   C1A66303   1.819  13.363   6.259
 5115POPC   D2A66304   1.798  13.285   6.696
 5115POPC   C3A66305   1.941  13.630   6.871
 5115POPC   C4A66306   1.892  13.848   7.223
 5115POPC   C1B66307   2.324  13.479   6.212
 5115POPC   C2B66308   2.511  13.699   6.569
 5115POPC   C3B66309   2.453  13.671   6.986
 5115POPC   C4B66310   2.262  13.352   7.190
 5116POPC   NC366311  26.540  44.211   5.473
 5116POPC   PO466312  27.054  44.668   5.396
 5116POPC   GL166313  26.928  44.641   5.783
 5116POPC   GL266314  27.030  44.277   5.810
 5116POPC   C1A66315  26.861  44.945   6.136
 5116POPC   D2A66316  27.064  44.893   6.550
 5116POPC   C3A66317  26.835  44.850   6.952
 5116POPC   C4A66318  26.858  44.757   7.431
 5116POPC   C1B66319  26.845  44.419   6.233
 5116POPC   C2B66320  26.829  44.399   6.693
 5116POPC   C3B66321  26.650  44.394   7.118
 5116POPC   C4B66322  26.671  44.244   7.557
 5117POPC   NC366323   7.653  28.386   5.213
 5117POPC   PO466324   7.243  28.215   5.711
 5117POPC   GL166325   7.358  28.524   5.955
 5117POPC   GL266326   7.682  28.545   5.820
 5117POPC   C1A66327   7.496  28.376   6.347
 5117POPC   D2A66328   7.672  28.432   6.740
 5117POPC   C3A66329   7.387  28.481   7.085
 5117POPC   C4A66330   7.277  28.315   7.503
 5117POPC   C1B66331   7.707  28.817   6.191
 5117POPC   C2B66332   7.752  28.926   6.596
 5117POPC   C3B66333   7.763  28.831   7.034
 5117POPC   C4B66334   7.701  28.819   7.463
 5118POPC   NC366335  30.869  38.487   5.174
 5118POPC   PO466336  31.544  38.383   5.375
 5118POPC   GL166337  31.396  38.467   5.789
 5118POPC   GL266338  31.631  38.718   5.818
 5118POPC   C1A66339  31.326  38.491   6.250
 5118POPC   D2A66340  31.274  38.252   6.642
 5118POPC   C3A66341  31.423  38.364   7.068
 5118POPC   C4A66342  31.271  38.185   7.437
 5118POPC   C1B66343  31.680  38.840   6.266
 5118POPC   C2B66344  31.510  38.733   6.695
 5118POPC   C3B66345  31.619  38.820   7.137
 5118POPC   C4B66346  31.689  38.898   7.569
 5119POPC   NC366347  15.753  12.635   5.319
 5119POPC   PO466348  16.365  12.424   5.499
 5119POPC   GL166349  16.004  12.454   5.800
 5119POPC   GL266350  16.140  12.740   5.970
 5119POPC   C1A66351  15.784  12.474   6.231
 5119POPC   D2A66352  15.909  12.590   6.678
 5119POPC   C3A66353  15.686  12.598   7.085
 5119POPC   C4A66354  15.609  12.718   7.530
 5119POPC   C1B66355  16.301  12.498   6.333
 5119POPC   C2B66356  16.397  12.564   6.796
 5119POPC   C3B66357  16.189  12.636   7.188
 5119POPC   C4B66358  16.106  12.792   7.614
 5120POPC   NC366359   1.649  12.895   5.451
 5120POPC   PO466360   2.335  12.677   5.480
 5120POPC   GL166361   2.209  12.743   5.884
 5120POPC   GL266362   1.862  12.860   5.925
 5120POPC   C1A66363   2.381  12.817   6.283
 5120POPC   D2A66364   2.280  13.127   6.582
 5120POPC   C3A66365   2.091  12.940   6.901
 5120POPC   C4A66366   2.173  12.847   7.286
 5120POPC   C1B66367   1.871  12.876   6.380
 5120POPC   C2B66368   1.637  12.734   6.722
 5120POPC   C3B66369   1.662  12.791   7.138
 5120POPC   C4B66370   1.787  13.196   7.241
 5121POPC   NC366371  12.653   4.617   5.544
 5121POPC   PO466372  13.017   4.110   5.429
 5121POPC   GL166373  12.999   4.251   5.827
 5121POPC   GL266374  13.072   4.601   5.818
 5121POPC   C1A66375  12.936   4.083   6.259
 5121POPC   D2A66376  13.130   4.231   6.630
 5121POPC   C3A66377  12.939   4.104   7.006
 5121POPC   C4A66378  13.184   4.188   7.376
 5121POPC   C1B66379  12.819   4.567   6.205
 5121POPC   C2B66380  12.714   4.535   6.651
 5121POPC   C3B66381  12.712   4.550   7.101
 5121POPC   C4B66382  12.722   4.360   7.501
 5122POPC   NC366383  39.127  44.831   5.338
 5122POPC   PO466384  39.716  44.391   5.388
 5122POPC   GL166385  39.458  44.659   5.685
 5122POPC   GL266386  39.098  44.582   5.797
 5122POPC   C1A66387  39.377  44.865   6.107
 5122POPC   D2A66388  39.305  44.678   6.518
 5122POPC   C3A66389  39.335  44.882   6.935
 5122POPC   C4A66390  39.283  44.783   7.390
 5122POPC   C1B66391  38.976  44.386   6.233
 5122POPC   C2B66392  38.817  44.428   6.682
 5122POPC   C3B66393  38.889  44.640   7.093
 5122POPC   C4B66394  38.907  44.429   7.524
 5123POPC   NC366395  19.905  33.200   5.292
 5123POPC   PO466396  19.994  32.596   5.590
 5123POPC   GL166397  19.908  33.025   5.789
 5123POPC   GL266398  19.719  33.371   5.741
 5123POPC   C1A66399  20.093  33.155   6.185
 5123POPC   D2A66400  20.269  33.044   6.586
 5123POPC   C3A66401  20.053  32.674   6.755
 5123POPC   C4A66402  19.666  32.676   6.974
 5123POPC   C1B66403  19.584  33.212   6.162
 5123POPC   C2B66404  19.745  33.060   6.585
 5123POPC   C3B66405  19.939  33.143   7.005
 5123POPC   C4B66406  19.758  33.339   7.421
 5124POPC   NC366407  36.417  44.747   5.510
 5124POPC   PO466408  35.759  44.802   5.496
 5124POPC   GL166409  35.902  44.505   5.842
 5124POPC   GL266410  36.186  44.266   5.757
 5124POPC   C1A66411  36.097  44.476   6.261
 5124POPC   D2A66412  35.944  44.353   6.693
 5124POPC   C3A66413  35.878  44.710   7.000
 5124POPC   C4A66414  35.976   0.043   7.345
 5124POPC   C1B66415  36.421  44.105   6.118
 5124POPC   C2B66416  36.477  44.261   6.546
 5124POPC   C3B66417  36.367  44.259   6.981
 5124POPC   C4B66418  36.665  44.303   7.315
 5125POPC   NC366419   4.836  13.163   5.507
 5125POPC   PO466420   4.715  12.525   5.449
 5125POPC   GL166421   4.996  12.746   5.768
 5125POPC   GL266422   5.283  13.026   5.763
 5125POPC   C1A66423   4.844  12.881   6.157
 5125POPC   D2A66424   4.691  12.661   6.502
 5125POPC   C3A66425   4.957  12.701   6.863
 5125POPC   C4A66426   4.885  12.851   7.270
 5125POPC   C1B66427   5.243  13.208   6.199
 5125POPC   C2B66428   4.923  13.172   6.579
 5125POPC   C3B66429   5.055  13.240   7.007
 5125POPC   C4B66430   5.235  13.267   7.435
 5126POPC   NC366431  22.707  38.641   5.439
 5126POPC   PO466432  23.246  38.272   5.270
 5126POPC   GL166433  23.092  38.372   5.733
 5126POPC   GL266434  23.002  38.722   5.852
 5126POPC   C1A66435  23.143  38.271   6.204
 5126POPC   D2A66436  23.257  38.292   6.663
 5126POPC   C3A66437  23.051  38.244   7.079
 5126POPC   C4A66438  23.155  38.346   7.557
 5126POPC   C1B66439  22.683  38.498   6.107
 5126POPC   C2B66440  22.757  38.427   6.541
 5126POPC   C3B66441  22.812  38.740   6.856
 5126POPC   C4B66442  22.886  38.681   7.294
 5127POPC   NC366443   1.531  37.756   5.604
 5127POPC   PO466444   0.875  37.965   5.657
 5127POPC   GL166445   0.980  37.820   6.006
 5127POPC   GL266446   1.157  37.552   5.905
 5127POPC   C1A66447   1.307  37.855   6.321
 5127POPC   D2A66448   1.521  38.093   6.639
 5127POPC   C3A66449   1.438  37.932   7.040
 5127POPC   C4A66450   1.066  37.889   7.304
 5127POPC   C1B66451   1.425  37.372   6.236
 5127POPC   C2B66452   1.459  37.477   6.671
 5127POPC   C3B66453   1.201  37.451   7.015
 5127POPC   C4B66454   0.926  37.256   7.286
 5128POPC   NC366455  13.011   7.721   5.379
 5128POPC   PO466456  13.363   7.138   5.237
 5128POPC   GL166457  13.184   7.288   5.742
 5128POPC   GL266458  12.985   7.584   5.868
 5128POPC   C1A66459  12.898   7.133   6.097
 5128POPC   D2A66460  12.806   7.300   6.520
 5128POPC   C3A66461  13.021   7.303   6.931
 5128POPC   C4A66462  12.781   7.021   7.137
 5128POPC   C1B66463  12.768   7.742   6.259
 5128POPC   C2B66464  12.535   7.703   6.682
 5128POPC   C3B66465  12.678   7.710   7.130
 5128POPC   C4B66466  12.631   7.805   7.584
 5129POPC   NC366467  38.360   9.371   5.343
 5129POPC   PO466468  38.741   9.938   5.464
 5129POPC   GL166469  38.363   9.772   5.714
 5129POPC   GL266470  38.555   9.495   5.804
 5129POPC   C1A66471  38.183   9.796   6.159
 5129POPC   D2A66472  38.384  10.059   6.513
 5129POPC   C3A66473  38.296   9.951   6.952
 5129POPC   C4A66474  38.042   9.582   7.063
 5129POPC   C1B66475  38.579   9.492   6.250
 5129POPC   C2B66476  38.387   9.540   6.653
 5129POPC   C3B66477  38.508   9.369   7.069
 5129POPC   C4B66478  38.653   9.163   7.425
 5130POPC   NC366479   0.894  35.959   5.543
 5130POPC   PO466480   0.369  36.430   5.402
 5130POPC   GL166481   0.308  36.337   5.800
 5130POPC   GL266482   0.426  36.001   5.794
 5130POPC   C1A66483   0.228  36.215   6.229
 5130POPC   D2A66484   0.476  36.207   6.586
 5130POPC   C3A66485   0.217  36.307   6.918
 5130POPC   C4A66486   0.341  36.390   7.315
 5130POPC   C1B66487   0.551  35.828   6.219
 5130POPC   C2B66488   0.581  35.717   6.689
 5130POPC   C3B66489   0.439  35.871   7.101
 5130POPC   C4B66490   0.423  35.950   7.574
 5131POPC   NC366491  12.204   6.281   5.489
 5131POPC   PO466492  11.824   6.856   5.510
 5131POPC   GL166493  12.012   6.610   5.860
 5131POPC   GL266494  12.399   6.626   5.813
 5131POPC   C1A66495  11.894   6.413   6.280
 5131POPC   D2A66496  11.824   6.188   6.682
 5131POPC   C3A66497  11.680   6.399   7.039
 5131POPC   C4A66498  11.751   6.343   7.476
 5131POPC   C1B66499  12.389   6.304   6.133
 5131POPC   C2B66500  12.431   6.444   6.559
 5131POPC   C3B66501  12.194   6.433   6.933
 5131POPC   C4B66502  12.244   6.209   7.307
 5132POPC   NC366503  31.828  16.642   5.472
 5132POPC   PO466504  32.515  16.823   5.393
 5132POPC   GL166505  32.307  16.624   5.731
 5132POPC   GL266506  32.159  16.938   5.825
 5132POPC   C1A66507  32.170  16.451   6.149
 5132POPC   D2A66508  32.348  16.500   6.578
 5132POPC   C3A66509  32.121  16.516   6.989
 5132POPC   C4A66510  32.064  16.803   7.355
 5132POPC   C1B66511  32.462  16.877   6.192
 5132POPC   C2B66512  32.707  16.866   6.612
 5132POPC   C3B66513  32.498  16.910   7.007
 5132POPC   C4B66514  32.562  16.794   7.451
 5133POPC   NC366515   9.105  34.107   5.399
 5133POPC   PO466516   8.882  33.435   5.456
 5133POPC   GL166517   9.054  33.714   5.785
 5133POPC   GL266518   8.860  34.013   5.851
 5133POPC   C1A66519   9.082  33.753   6.240
 5133POPC   D2A66520   8.834  33.747   6.619
 5133POPC   C3A66521   8.972  33.540   6.970
 5133POPC   C4A66522   9.019  33.683   7.395
 5133POPC   C1B66523   8.711  34.163   6.261
 5133POPC   C2B66524   8.604  34.188   6.697
 5133POPC   C3B66525   8.814  34.067   7.079
 5133POPC   C4B66526   8.731  34.074   7.530
 5134POPC   NC366527  13.125  24.798   5.487
 5134POPC   PO466528  12.480  24.448   5.340
 5134POPC   GL166529  12.530  24.605   5.809
 5134POPC   GL266530  12.893  24.515   5.843
 5134POPC   C1A66531  12.693  24.645   6.275
 5134POPC   D2A66532  12.943  24.448   6.609
 5134POPC   C3A66533  13.026  24.628   7.007
 5134POPC   C4A66534  13.003  24.974   7.248
 5134POPC   C1B66535  12.954  24.190   6.162
 5134POPC   C2B66536  13.151  23.974   6.547
 5134POPC   C3B66537  13.217  24.157   6.950
 5134POPC   C4B66538  13.008  24.200   7.317
 5135POPC   NC366539  40.425  28.507   5.474
 5135POPC   PO466540  39.924  28.148   5.547
 5135POPC   GL166541  39.990  28.215   5.926
 5135POPC   GL266542  40.271  28.000   6.044
 5135POPC   C1A66543  39.802  28.532   6.183
 5135POPC   D2A66544  39.514  28.578   6.537
 5135POPC   C3A66545  39.684  28.396   6.901
 5135POPC   C4A66546  39.895  28.525   7.268
 5135POPC   C1B66547  40.308  28.431   6.227
 5135POPC   C2B66548  40.141  28.579   6.607
 5135POPC   C3B66549  40.311  28.511   7.007
 5135POPC   C4B66550  40.353  28.620   7.459
 5136POPC   NC366551   7.627  27.974   5.628
 5136POPC   PO466552   7.111  27.526   5.596
 5136POPC   GL166553   7.466  27.563   5.882
 5136POPC   GL266554   7.342  27.842   6.049
 5136POPC   C1A66555   7.772  27.406   6.161
 5136POPC   D2A66556   7.829  27.381   6.542
 5136POPC   C3A66557   7.562  27.546   6.811
 5136POPC   C4A66558   7.623  27.508   7.229
 5136POPC   C1B66559   7.687  27.892   6.318
 5136POPC   C2B66560   7.862  27.963   6.725
 5136POPC   C3B66561   7.573  28.005   7.099
 5136POPC   C4B66562   7.626  27.941   7.557
 5137POPC   NC366563   0.783  21.089   5.562
 5137POPC   PO466564   0.453  20.536   5.264
 5137POPC   GL166565   0.314  20.618   5.694
 5137POPC   GL266566   0.614  20.713   5.879
 5137POPC   C1A66567   0.126  20.777   6.085
 5137POPC   D2A66568   0.321  20.753   6.501
 5137POPC   C3A66569   0.205  20.793   6.942
 5137POPC   C4A66570   0.585  20.756   7.200
 5137POPC   C1B66571   0.749  20.528   6.279
 5137POPC   C2B66572   0.748  20.577   6.723
 5137POPC   C3B66573   0.870  20.373   7.047
 5137POPC   C4B66574   0.705  20.295   7.461
 5138POPC   NC366575  18.593  25.070   5.426
 5138POPC   PO466576  18.167  25.595   5.567
 5138POPC   GL166577  18.489  25.418   5.824
 5138POPC   GL266578  18.347  25.084   5.901
 5138POPC   C1A66579  18.446  25.459   6.279
 5138POPC   D2A66580  18.206  25.377   6.666
 5138POPC   C3A66581  18.482  25.151   6.925
 5138POPC   C4A66582  18.634  25.303   7.302
 5138POPC   C1B66583  18.030  25.087   6.269
 5138POPC   C2B66584  18.001  24.902   6.706
 5138POPC   C3B66585  18.042  25.095   7.149
 5138POPC   C4B66586  18.038  24.949   7.606
 5139POPC   NC366587   1.567  40.295   5.412
 5139POPC   PO466588   1.098  39.724   5.405
 5139POPC   GL166589   1.334  39.926   5.713
 5139POPC   GL266590   1.108  40.177   5.799
 5139POPC   C1A66591   1.421  39.818   6.133
 5139POPC   D2A66592   1.302  39.677   6.549
 5139POPC   C3A66593   1.506  39.818   6.944
 5139POPC   C4A66594   1.598  39.827   7.384
 5139POPC   C1B66595   0.935  39.973   6.180
 5139POPC   C2B66596   0.812  39.905   6.614
 5139POPC   C3B66597   0.993  39.702   6.961
 5139POPC   C4B66598   1.110  39.923   7.322
 5140POPC   NC366599   5.174  34.752   5.331
 5140POPC   PO466600   5.058  34.208   5.607
 5140POPC   GL166601   5.290  34.560   5.814
 5140POPC   GL266602   5.172  34.415   6.091
 5140POPC   C1A66603   5.361  34.862   6.211
 5140POPC   D2A66604   5.064  34.897   6.602
 5140POPC   C3A66605   5.213  34.670   6.962
 5140POPC   C4A66606   5.599  34.787   7.164
 5140POPC   C1B66607   4.890  34.302   6.420
 5140POPC   C2B66608   4.817  34.351   6.836
 5140POPC   C3B66609   4.692  34.445   7.227
 5140POPC   C4B66610   4.820  34.555   7.643
 5141POPC   NC366611  26.045  34.760   5.419
 5141POPC   PO466612  26.557  34.163   5.483
 5141POPC   GL166613  26.138  34.285   5.771
 5141POPC   GL266614  25.869  34.576   5.866
 5141POPC   C1A66615  25.983  34.240   6.224
 5141POPC   D2A66616  26.226  34.201   6.613
 5141POPC   C3A66617  26.095  34.301   7.049
 5141POPC   C4A66618  25.764  34.325   7.360
 5141POPC   C1B66619  25.965  34.761   6.266
 5141POPC   C2B66620  26.021  34.697   6.709
 5141POPC   C3B66621  25.861  34.761   7.104
 5141POPC   C4B66622  25.753  35.097   7.374
 5142POPC   NC366623  29.904  32.026   5.201
 5142POPC   PO466624  30.074  32.635   5.104
 5142POPC   GL166625  30.097  32.590   5.596
 5142POPC   GL266626  30.000  32.239   5.724
 5142POPC   C1A66627  29.970  32.618   6.075
 5142POPC   D2A66628  29.649  32.465   6.399
 5142POPC   C3A66629  29.801  32.379   6.822
 5142POPC   C4A66630  29.929  32.394   7.263
 5142POPC   C1B66631  29.900  32.065   6.160
 5142POPC   C2B66632  29.817  31.888   6.593
 5142POPC   C3B66633  29.875  31.927   7.055
 5142POPC   C4B66634  29.502  32.038   7.332
 5143POPC   NC366635  34.278  13.918   5.321
 5143POPC   PO466636  34.315  13.328   5.519
 5143POPC   GL166637  34.598  13.606   5.803
 5143POPC   GL266638  34.829  13.931   5.896
 5143POPC   C1A66639  34.605  13.632   6.242
 5143POPC   D2A66640  34.916  13.616   6.562
 5143POPC   C3A66641  34.753  13.456   6.937
 5143POPC   C4A66642  34.367  13.485   7.172
 5143POPC   C1B66643  34.777  14.096   6.337
 5143POPC   C2B66644  34.847  14.183   6.744
 5143POPC   C3B66645  34.939  13.908   7.040
 5143POPC   C4B66646  34.729  13.860   7.426
 5144POPC   NC366647  34.404  21.205   5.320
 5144POPC   PO466648  34.857  21.778   5.528
 5144POPC   GL166649  34.669  21.463   5.775
 5144POPC   GL266650  34.295  21.448   5.774
 5144POPC   C1A66651  34.745  21.309   6.203
 5144POPC   D2A66652  34.603  21.085   6.574
 5144POPC   C3A66653  34.695  21.322   6.949
 5144POPC   C4A66654  34.657  21.496   7.333
 5144POPC   C1B66655  34.237  21.252   6.188
 5144POPC   C2B66656  34.152  21.343   6.642
 5144POPC   C3B66657  34.209  21.186   7.093
 5144POPC   C4B66658  34.159  21.108   7.560
 5145POPC   NC366659  17.191  24.749   5.441
 5145POPC   PO466660  17.717  24.357   5.204
 5145POPC   GL166661  17.531  24.436   5.676
 5145POPC   GL266662  17.433  24.782   5.880
 5145POPC   C1A66663  17.440  24.346   6.136
 5145POPC   D2A66664  17.628  24.625   6.442
 5145POPC   C3A66665  17.649  24.480   6.866
 5145POPC   C4A66666  17.854  24.639   7.231
 5145POPC   C1B66667  17.154  24.790   6.252
 5145POPC   C2B66668  17.202  24.748   6.718
 5145POPC   C3B66669  17.183  24.476   7.082
 5145POPC   C4B66670  17.237  24.046   7.094
 5146POPC   NC366671  19.288  41.567   5.587
 5146POPC   PO466672  18.922  41.027   5.668
 5146POPC   GL166673  18.861  41.356   5.977
 5146POPC   GL266674  18.903  41.741   5.994
 5146POPC   C1A66675  18.655  41.387   6.390
 5146POPC   D2A66676  18.781  41.292   6.828
 5146POPC   C3A66677  18.789  41.480   7.249
 5146POPC   C4A66678  18.628  41.311   7.705
 5146POPC   C1B66679  19.272  41.639   6.227
 5146POPC   C2B66680  19.381  41.640   6.645
 5146POPC   C3B66681  19.260  41.394   6.993
 5146POPC   C4B66682  19.410  41.483   7.386
 5147POPC   NC366683  23.041   0.051   5.329
 5147POPC   PO466684  22.790  44.351   5.454
 5147POPC   GL166685  22.860  44.714   5.745
 5147POPC   GL266686  23.211  44.760   5.745
 5147POPC   C1A66687  22.943  44.889   6.163
 5147POPC   D2A66688  23.168  44.818   6.531
 5147POPC   C3A66689  22.963  44.834   6.928
 5147POPC   C4A66690  23.185  44.809   7.307
 5147POPC   C1B66691  23.171  44.440   6.104
 5147POPC   C2B66692  23.130  44.279   6.550
 5147POPC   C3B66693  23.173  44.370   7.026
 5147POPC   C4B66694  23.317  44.360   7.491
 5148POPC   NC366695  44.283  41.129   5.579
 5148POPC   PO466696  44.813  40.850   5.171
 5148POPC   GL166697  44.944  40.847   5.648
 5148POPC   GL266698  44.982  41.205   5.685
 5148POPC   C1A66699  44.785  40.742   6.114
 5148POPC   D2A66700  44.468  40.785   6.498
 5148POPC   C3A66701  44.653  40.765   6.935
 5148POPC   C4A66702  44.517  40.483   7.266
 5148POPC   C1B66703   0.043  41.189   6.131
 5148POPC   C2B66704  44.910  41.027   6.548
 5148POPC   C3B66705  44.969  41.222   6.968
 5148POPC   C4B66706  44.948  41.022   7.346
 5149POPC   NC366707  26.880  42.640   5.353
 5149POPC   PO466708  27.036  43.319   5.272
 5149POPC   GL166709  26.937  43.239   5.699
 5149POPC   GL266710  26.789  42.919   5.798
 5149POPC   C1A66711  26.962  43.283   6.143
 5149POPC   D2A66712  26.728  43.325   6.515
 5149POPC   C3A66713  26.764  43.155   6.932
 5149POPC   C4A66714  26.804  43.386   7.322
 5149POPC   C1B66715  26.627  42.887   6.223
 5149POPC   C2B66716  26.727  42.723   6.619
 5149POPC   C3B66717  26.545  42.692   7.005
 5149POPC   C4B66718  26.675  42.841   7.373
 5150POPC   NC366719  21.651  41.081   5.359
 5150POPC   PO466720  21.300  40.550   5.531
 5150POPC   GL166721  21.169  40.760   5.922
 5150POPC   GL266722  21.519  40.834   5.987
 5150POPC   C1A66723  21.233  40.965   6.390
 5150POPC   D2A66724  21.471  41.168   6.769
 5150POPC   C3A66725  21.213  41.183   7.166
 5150POPC   C4A66726  21.111  40.849   7.503
 5150POPC   C1B66727  21.404  40.483   6.288
 5150POPC   C2B66728  21.145  40.469   6.697
 5150POPC   C3B66729  21.294  40.534   7.149
 5150POPC   C4B66730  21.589  40.461   7.548
 5151POPC   NC366731  17.069  43.022   5.355
 5151POPC   PO466732  17.355  43.562   5.646
 5151POPC   GL166733  17.523  43.234   5.863
 5151POPC   GL266734  17.270  42.992   5.841
 5151POPC   C1A66735  17.554  43.246   6.296
 5151POPC   D2A66736  17.329  43.209   6.693
 5151POPC   C3A66737  17.562  43.207   7.081
 5151POPC   C4A66738  17.774  43.482   7.385
 5151POPC   C1B66739  17.162  42.913   6.268
 5151POPC   C2B66740  17.349  42.712   6.673
 5151POPC   C3B66741  17.174  42.847   7.063
 5151POPC   C4B66742  17.153  42.724   7.493
 5152POPC   NC366743  15.212  18.829   5.528
 5152POPC   PO466744  15.079  19.418   5.438
 5152POPC   GL166745  15.140  19.182   5.875
 5152POPC   GL266746  14.818  18.997   5.880
 5152POPC   C1A66747  15.340  19.068   6.321
 5152POPC   D2A66748  15.112  19.030   6.716
 5152POPC   C3A66749  15.275  18.699   6.981
 5152POPC   C4A66750  15.586  18.891   7.257
 5152POPC   C1B66751  14.885  18.873   6.270
 5152POPC   C2B66752  14.710  18.727   6.651
 5152POPC   C3B66753  14.722  18.866   7.043
 5152POPC   C4B66754  15.058  19.075   7.243
 5153POPC   NC366755  40.616  18.076   5.120
 5153POPC   PO466756  41.081  18.276   5.571
 5153POPC   GL166757  40.910  18.526   5.902
 5153POPC   GL266758  40.566  18.429   5.867
 5153POPC   C1A66759  40.825  18.373   6.336
 5153POPC   D2A66760  40.694  18.381   6.749
 5153POPC   C3A66761  40.867  18.230   7.120
 5153POPC   C4A66762  40.941  18.437   7.478
 5153POPC   C1B66763  40.413  18.121   6.166
 5153POPC   C2B66764  40.328  18.037   6.609
 5153POPC   C3B66765  40.354  18.113   7.057
 5153POPC   C4B66766  40.520  18.030   7.477
 5154POPC   NC366767  42.498  38.010   5.501
 5154POPC   PO466768  42.186  37.436   5.387
 5154POPC   GL166769  42.333  37.414   5.813
 5154POPC   GL266770  42.548  37.623   5.862
 5154POPC   C1A66771  42.226  37.621   6.229
 5154POPC   D2A66772  42.335  37.837   6.581
 5154POPC   C3A66773  42.323  37.562   6.946
 5154POPC   C4A66774  42.248  37.738   7.320
 5154POPC   C1B66775  42.682  37.346   6.201
 5154POPC   C2B66776  42.712  37.495   6.612
 5154POPC   C3B66777  42.795  37.344   7.028
 5154POPC   C4B66778  42.605  37.354   7.438
 5155POPC   NC366779   6.193  43.707   5.401
 5155POPC   PO466780   5.494  43.753   5.293
 5155POPC   GL166781   5.749  43.838   5.686
 5155POPC   GL266782   5.969  44.126   5.673
 5155POPC   C1A66783   5.772  43.887   6.167
 5155POPC   D2A66784   6.019  43.871   6.572
 5155POPC   C3A66785   5.907  43.943   7.052
 5155POPC   C4A66786   5.845  44.034   7.548
 5155POPC   C1B66787   6.095  44.460   5.977
 5155POPC   C2B66788   6.167  44.424   6.428
 5155POPC   C3B66789   6.211  44.320   6.843
 5155POPC   C4B66790   6.023  44.431   7.212
 5156POPC   NC366791  30.601  18.078   5.224
 5156POPC   PO466792  30.321  18.450   5.703
 5156POPC   GL166793  30.580  18.194   5.940
 5156POPC   GL266794  30.898  18.207   5.781
 5156POPC   C1A66795  30.519  18.176   6.386
 5156POPC   D2A66796  30.563  18.517   6.693
 5156POPC   C3A66797  30.388  18.512   7.121
 5156POPC   C4A66798  30.586  18.169   7.383
 5156POPC   C1B66799  30.941  18.461   6.209
 5156POPC   C2B66800  31.063  18.592   6.675
 5156POPC   C3B66801  30.882  18.486   7.112
 5156POPC   C4B66802  31.002  18.445   7.590
 5157POPC   NC366803  12.332  18.851   5.330
 5157POPC   PO466804  11.939  19.343   5.577
 5157POPC   GL166805  12.180  19.071   5.797
 5157POPC   GL266806  11.963  18.755   5.737
 5157POPC   C1A66807  12.327  19.238   6.203
 5157POPC   D2A66808  12.064  19.307   6.536
 5157POPC   C3A66809  12.122  19.141   6.910
 5157POPC   C4A66810  12.471  19.112   7.139
 5157POPC   C1B66811  11.953  18.826   6.200
 5157POPC   C2B66812  12.109  18.686   6.604
 5157POPC   C3B66813  11.953  18.659   7.001
 5157POPC   C4B66814  12.053  18.900   7.360
 5158POPC   NC366815  29.644  20.352   5.452
 5158POPC   PO466816  29.146  20.637   5.107
 5158POPC   GL166817  29.212  20.770   5.611
 5158POPC   GL266818  28.871  20.763   5.829
 5158POPC   C1A66819  29.283  20.600   6.082
 5158POPC   D2A66820  29.079  20.374   6.447
 5158POPC   C3A66821  29.182  20.558   6.839
 5158POPC   C4A66822  29.427  20.470   7.201
 5158POPC   C1B66823  28.684  20.992   6.153
 5158POPC   C2B66824  28.554  20.895   6.580
 5158POPC   C3B66825  28.674  20.686   6.944
 5158POPC   C4B66826  28.923  20.616   7.270
 5159POPC   NC366827   0.951  16.885   5.558
 5159POPC   PO466828   1.308  16.359   5.409
 5159POPC   GL166829   1.328  16.562   5.831
 5159POPC   GL266830   1.446  16.900   5.888
 5159POPC   C1A66831   1.306  16.545   6.286
 5159POPC   D2A66832   1.069  16.621   6.661
 5159POPC   C3A66833   1.245  16.457   7.034
 5159POPC   C4A66834   1.045  16.303   7.405
 5159POPC   C1B66835   1.173  17.048   6.199
 5159POPC   C2B66836   1.295  17.074   6.610
 5159POPC   C3B66837   1.118  17.010   7.001
 5159POPC   C4B66838   0.894  17.267   7.274
 5160POPC   NC366839  17.762  43.712   5.475
 5160POPC   PO466840  18.274  44.099   5.431
 5160POPC   GL166841  18.256  43.819   5.757
 5160POPC   GL266842  18.606  43.895   5.818
 5160POPC   C1A66843  18.284  43.633   6.166
 5160POPC   D2A66844  18.221  43.802   6.573
 5160POPC   C3A66845  18.075  43.659   6.985
 5160POPC   C4A66846  18.193  43.802   7.430
 5160POPC   C1B66847  18.808  43.609   6.073
 5160POPC   C2B66848  18.705  43.559   6.511
 5160POPC   C3B66849  18.600  43.708   6.913
 5160POPC   C4B66850  18.650  43.944   7.280
 5161POPC   NC366851  23.151  31.341   5.512
 5161POPC   PO466852  22.607  31.671   5.474
 5161POPC   GL166853  22.897  31.663   5.825
 5161POPC   GL266854  23.291  31.740   5.813
 5161POPC   C1A66855  22.796  31.507   6.235
 5161POPC   D2A66856  22.728  31.190   6.549
 5161POPC   C3A66857  22.870  31.404   6.902
 5161POPC   C4A66858  22.914  31.802   7.061
 5161POPC   C1B66859  23.314  31.566   6.254
 5161POPC   C2B66860  23.305  31.648   6.713
 5161POPC   C3B66861  23.325  31.509   7.151
 5161POPC   C4B66862  23.062  31.243   7.366
 5162POPC   NC366863  14.162  38.227   5.449
 5162POPC   PO466864  14.814  38.482   5.422
 5162POPC   GL166865  14.543  38.442   5.806
 5162POPC   GL266866  14.495  38.813   5.892
 5162POPC   C1A66867  14.378  38.265   6.229
 5162POPC   D2A66868  14.299  38.073   6.670
 5162POPC   C3A66869  14.526  38.201   7.061
 5162POPC   C4A66870  14.510  38.327   7.494
 5162POPC   C1B66871  14.264  38.791   6.301
 5162POPC   C2B66872  14.309  38.907   6.718
 5162POPC   C3B66873  14.592  38.739   7.007
 5162POPC   C4B66874  14.674  38.834   7.441
 5163POPC   NC366875   7.828  21.044   5.434
 5163POPC   PO466876   8.476  21.221   5.304
 5163POPC   GL166877   8.286  21.291   5.710
 5163POPC   GL266878   8.166  21.005   5.851
 5163POPC   C1A66879   8.293  21.428   6.147
 5163POPC   D2A66880   8.446  21.501   6.562
 5163POPC   C3A66881   8.196  21.586   6.926
 5163POPC   C4A66882   8.318  21.692   7.315
 5163POPC   C1B66883   7.954  21.080   6.279
 5163POPC   C2B66884   7.990  21.175   6.702
 5163POPC   C3B66885   8.014  21.035   7.119
 5163POPC   C4B66886   8.047  21.224   7.531
 5164POPC   NC366887  39.459  25.813   5.721
 5164POPC   PO466888  39.364  25.269   5.369
 5164POPC   GL166889  39.307  25.080   5.814
 5164POPC   GL266890  38.976  24.854   5.867
 5164POPC   C1A66891  39.164  25.186   6.249
 5164POPC   D2A66892  39.000  25.463   6.596
 5164POPC   C3A66893  39.277  25.449   6.946
 5164POPC   C4A66894  39.473  25.208   7.246
 5164POPC   C1B66895  38.792  24.800   6.293
 5164POPC   C2B66896  38.976  24.943   6.696
 5164POPC   C3B66897  38.972  25.038   7.142
 5164POPC   C4B66898  38.740  24.936   7.538
 5165POPC   NC366899  18.882  23.389   5.498
 5165POPC   PO466900  18.924  22.703   5.466
 5165POPC   GL166901  18.717  22.775   5.842
 5165POPC   GL266902  18.603  23.136   5.889
 5165POPC   C1A66903  18.921  22.594   6.188
 5165POPC   D2A66904  19.109  22.583   6.568
 5165POPC   C3A66905  18.878  22.600   6.931
 5165POPC   C4A66906  19.094  22.557   7.312
 5165POPC   C1B66907  18.916  23.131   6.243
 5165POPC   C2B66908  19.033  23.085   6.690
 5165POPC   C3B66909  19.040  23.053   7.134
 5165POPC   C4B66910  19.272  23.014   7.522
 5166POPC   NC366911  15.509  43.108   5.467
 5166POPC   PO466912  14.870  42.808   5.297
 5166POPC   GL166913  15.049  42.980   5.707
 5166POPC   GL266914  15.370  42.893   5.920
 5166POPC   C1A66915  15.000  43.168   6.129
 5166POPC   D2A66916  15.050  42.899   6.481
 5166POPC   C3A66917  15.189  42.935   6.933
 5166POPC   C4A66918  15.123  43.321   7.176
 5166POPC   C1B66919  15.537  43.213   6.164
 5166POPC   C2B66920  15.411  43.241   6.580
 5166POPC   C3B66921  15.586  43.300   6.966
 5166POPC   C4B66922  15.820  43.566   7.204
 5167POPC   NC366923  20.205  20.058   5.536
 5167POPC   PO466924  20.738  19.695   5.292
 5167POPC   GL166925  20.646  19.807   5.733
 5167POPC   GL266926  20.771  20.154   5.783
 5167POPC   C1A66927  20.496  19.703   6.174
 5167POPC   D2A66928  20.199  19.761   6.522
 5167POPC   C3A66929  20.382  19.869   6.924
 5167POPC   C4A66930  20.382  19.669   7.335
 5167POPC   C1B66931  20.928  19.941   6.159
 5167POPC   C2B66932  20.886  19.719   6.525
 5167POPC   C3B66933  20.891  19.717   6.951
 5167POPC   C4B66934  20.785  19.964   7.277
 5168POPC   NC366935  41.950  35.706   5.342
 5168POPC   PO466936  42.596  35.406   5.471
 5168POPC   GL166937  42.439  35.355   5.874
 5168POPC   GL266938  42.092  35.344   5.794
 5168POPC   C1A66939  42.386  35.469   6.312
 5168POPC   D2A66940  42.677  35.439   6.669
 5168POPC   C3A66941  42.638  35.466   7.100
 5168POPC   C4A66942  42.924  35.383   7.386
 5168POPC   C1B66943  42.158  35.010   6.114
 5168POPC   C2B66944  42.178  35.063   6.547
 5168POPC   C3B66945  42.219  35.282   6.908
 5168POPC   C4B66946  42.181  35.034   7.251
 5169POPC   NC366947   8.720   9.716   5.304
 5169POPC   PO466948   9.310   9.477   5.194
 5169POPC   GL166949   9.123   9.706   5.637
 5169POPC   GL266950   8.763   9.905   5.750
 5169POPC   C1A66951   8.952   9.627   6.103
 5169POPC   D2A66952   8.722   9.684   6.517
 5169POPC   C3A66953   8.925   9.836   6.897
 5169POPC   C4A66954   9.131   9.635   7.258
 5169POPC   C1B66955   8.798  10.104   6.180
 5169POPC   C2B66956   8.892  10.264   6.580
 5169POPC   C3B66957   8.626  10.263   6.947
 5169POPC   C4B66958   8.694   9.983   7.313
 5170POPC   NC366959  19.583  24.753   5.101
 5170POPC   PO466960  20.024  24.280   5.383
 5170POPC   GL166961  19.988  24.499   5.793
 5170POPC   GL266962  20.064  24.872   5.761
 5170POPC   C1A66963  19.953  24.329   6.240
 5170POPC   D2A66964  20.123  24.121   6.629
 5170POPC   C3A66965  20.101  24.406   6.957
 5170POPC   C4A66966  19.764  24.564   7.196
 5170POPC   C1B66967  20.008  24.836   6.235
 5170POPC   C2B66968  19.772  24.681   6.613
 5170POPC   C3B66969  19.526  24.922   6.918
 5170POPC   C4B66970  19.795  25.093   7.223
 5171POPC   NC366971  27.274   0.088   5.539
 5171POPC   PO466972  27.774   0.649   5.530
 5171POPC   GL166973  27.541   0.406   5.853
 5171POPC   GL266974  27.663   0.051   5.926
 5171POPC   C1A66975  27.295   0.263   6.220
 5171POPC   D2A66976  27.436   0.376   6.589
 5171POPC   C3A66977  27.422   0.101   6.884
 5171POPC   C4A66978  27.551   0.270   7.261
 5171POPC   C1B66979  27.856   0.244   6.314
 5171POPC   C2B66980  27.906   0.267   6.786
 5171POPC   C3B66981  28.038   0.109   7.178
 5171POPC   C4B66982  27.796  44.862   7.509
 5172POPC   NC366983  37.572  36.475   5.383
 5172POPC   PO466984  38.044  36.037   5.480
 5172POPC   GL166985  37.846  36.314   5.803
 5172POPC   GL266986  37.504  36.146   5.885
 5172POPC   C1A66987  37.767  36.348   6.264
 5172POPC   D2A66988  37.918  36.005   6.524
 5172POPC   C3A66989  37.966  36.103   6.934
 5172POPC   C4A66990  37.777  36.434   7.185
 5172POPC   C1B66991  37.340  36.042   6.320
 5172POPC   C2B66992  37.404  36.048   6.779
 5172POPC   C3B66993  37.545  35.996   7.204
 5172POPC   C4B66994  37.377  36.109   7.620
 5173POPC   NC366995  14.897   9.473   5.599
 5173POPC   PO466996  15.417   9.432   5.166
 5173POPC   GL166997  15.300   9.141   5.568
 5173POPC   GL266998  14.998   8.916   5.691
 5173POPC   C1A66999  15.309   9.069   6.064
 5173POPC   D2A67000  15.515   8.952   6.477
 5173POPC   C3A67001  15.314   8.991   6.897
 5173POPC   C4A67002  15.318   9.200   7.330
 5173POPC   C1B67003  14.845   8.821   6.084
 5173POPC   C2B67004  15.032   8.788   6.473
 5173POPC   C3B67005  14.919   8.620   6.855
 5173POPC   C4B67006  14.952   8.847   7.229
 5174POPC   NC367007  17.616  12.260   4.853
 5174POPC   PO467008  17.178  11.989   5.344
 5174POPC   GL167009  17.437  11.847   5.717
 5174POPC   GL267010  17.370  12.151   5.888
 5174POPC   C1A67011  17.715  11.860   6.146
 5174POPC   D2A67012  17.558  11.759   6.611
 5174POPC   C3A67013  17.732  11.943   7.042
 5174POPC   C4A67014  17.773  11.869   7.510
 5174POPC   C1B67015  17.224  11.855   6.207
 5174POPC   C2B67016  17.076  11.935   6.620
 5174POPC   C3B67017  17.220  11.873   7.013
 5174POPC   C4B67018  17.284  11.984   7.406
 5175POPC   NC367019  26.623  18.734   5.488
 5175POPC   PO467020  26.991  19.337   5.431
 5175POPC   GL167021  26.816  19.113   5.824
 5175POPC   GL267022  26.539  18.859   5.964
 5175POPC   C1A67023  26.937  19.034   6.249
 5175POPC   D2A67024  27.207  19.219   6.551
 5175POPC   C3A67025  27.138  19.077   6.946
 5175POPC   C4A67026  27.042  18.753   7.229
 5175POPC   C1B67027  26.470  19.210   6.245
 5175POPC   C2B67028  26.684  19.225   6.670
 5175POPC   C3B67029  26.654  19.049   7.090
 5175POPC   C4B67030  26.422  18.981   7.473
 5176POPC   NC367031  41.214  33.859   5.503
 5176POPC   PO467032  41.871  33.558   5.488
 5176POPC   GL167033  41.567  33.621   5.805
 5176POPC   GL267034  41.678  33.956   5.864
 5176POPC   C1A67035  41.407  33.706   6.232
 5176POPC   D2A67036  41.432  33.455   6.627
 5176POPC   C3A67037  41.580  33.672   6.982
 5176POPC   C4A67038  41.804  33.604   7.333
 5176POPC   C1B67039  41.893  33.971   6.287
 5176POPC   C2B67040  41.727  34.094   6.716
 5176POPC   C3B67041  41.866  34.083   7.167
 5176POPC   C4B67042  41.802  34.200   7.629
 5177POPC   NC367043  10.789  16.833   5.552
 5177POPC   PO467044  10.186  16.634   5.437
 5177POPC   GL167045  10.379  16.715   5.825
 5177POPC   GL267046  10.633  16.451   5.894
 5177POPC   C1A67047  10.521  16.857   6.225
 5177POPC   D2A67048  10.790  17.085   6.523
 5177POPC   C3A67049  10.794  16.865   6.904
 5177POPC   C4A67050  10.660  16.982   7.306
 5177POPC   C1B67051  10.270  16.347   6.171
 5177POPC   C2B67052  10.246  16.199   6.624
 5177POPC   C3B67053  10.401  16.398   7.029
 5177POPC   C4B67054  10.505  16.527   7.466
 5178POPC   NC367055  34.696  20.480   5.549
 5178POPC   PO467056  34.128  20.717   5.343
 5178POPC   GL167057  34.257  20.715   5.766
 5178POPC   GL267058  34.528  20.958   5.823
 5178POPC   C1A67059  34.413  20.490   6.134
 5178POPC   D2A67060  34.239  20.397   6.517
 5178POPC   C3A67061  34.396  20.671   6.850
 5178POPC   C4A67062  34.569  20.514   7.230
 5178POPC   C1B67063  34.836  20.799   6.150
 5178POPC   C2B67064  34.966  20.679   6.565
 5178POPC   C3B67065  34.880  20.840   6.970
 5178POPC   C4B67066  35.109  20.790   7.362
 5179POPC   NC367067  16.422  34.830   5.305
 5179POPC   PO467068  16.998  35.044   5.574
 5179POPC   GL167069  16.687  34.724   5.827
 5179POPC   GL267070  16.889  34.455   6.017
 5179POPC   C1A67071  16.460  34.595   6.223
 5179POPC   D2A67072  16.713  34.400   6.514
 5179POPC   C3A67073  16.705  34.482   6.945
 5179POPC   C4A67074  16.641  34.472   7.385
 5179POPC   C1B67075  16.947  34.803   6.277
 5179POPC   C2B67076  17.076  34.731   6.677
 5179POPC   C3B67077  17.013  34.927   7.043
 5179POPC   C4B67078  16.982  34.833   7.465
 5180POPC   NC367079  20.012  37.545   5.422
 5180POPC   PO467080  19.389  37.256   5.454
 5180POPC   GL167081  19.607  37.483   5.824
 5180POPC   GL267082  19.937  37.599   5.923
 5180POPC   C1A67083  19.516  37.732   6.214
 5180POPC   D2A67084  19.580  37.902   6.646
 5180POPC   C3A67085  19.895  37.668   6.871
 5180POPC   C4A67086  20.067  37.292   7.114
 5180POPC   C1B67087  20.010  37.861   6.296
 5180POPC   C2B67088  20.346  37.948   6.565
 5180POPC   C3B67089  20.318  38.103   7.001
 5180POPC   C4B67090  20.116  37.832   7.300
 5181POPC   NC367091  12.632  27.804   5.317
 5181POPC   PO467092  12.813  27.202   5.280
 5181POPC   GL167093  12.760  27.434   5.669
 5181POPC   GL267094  13.043  27.650   5.737
 5181POPC   C1A67095  12.620  27.415   6.109
 5181POPC   D2A67096  12.593  27.701   6.452
 5181POPC   C3A67097  12.538  27.585   6.892
 5181POPC   C4A67098  12.741  27.511   7.309
 5181POPC   C1B67099  13.064  27.690   6.206
 5181POPC   C2B67100  13.059  27.588   6.668
 5181POPC   C3B67101  13.237  27.533   7.106
 5181POPC   C4B67102  13.186  27.753   7.525
 5182POPC   NC367103  32.857  22.268   5.455
 5182POPC   PO467104  33.517  22.427   5.522
 5182POPC   GL167105  33.228  22.372   5.843
 5182POPC   GL267106  33.215  22.028   5.827
 5182POPC   C1A67107  33.096  22.271   6.277
 5182POPC   D2A67108  33.205  22.068   6.676
 5182POPC   C3A67109  33.104  22.319   7.032
 5182POPC   C4A67110  33.241  22.213   7.463
 5182POPC   C1B67111  32.907  21.835   6.089
 5182POPC   C2B67112  32.734  21.934   6.472
 5182POPC   C3B67113  32.712  21.799   6.861
 5182POPC   C4B67114  32.980  21.866   7.174
 5183POPC   NC367115  11.836   0.332   5.517
 5183POPC   PO467116  12.178   0.734   5.208
 5183POPC   GL167117  12.327   0.652   5.707
 5183POPC   GL267118  12.244   0.317   5.834
 5183POPC   C1A67119  12.209   0.656   6.222
 5183POPC   D2A67120  12.137   0.469   6.640
 5183POPC   C3A67121  12.043   0.675   7.071
 5183POPC   C4A67122  12.015   0.423   7.479
 5183POPC   C1B67123  12.428   0.176   6.226
 5183POPC   C2B67124  12.360   0.008   6.650
 5183POPC   C3B67125  12.192   0.161   7.047
 5183POPC   C4B67126  12.450   0.154   7.404
 5184POPC   NC367127   8.795   3.200   5.586
 5184POPC   PO467128   9.194   2.754   5.150
 5184POPC   GL167129   9.145   2.796   5.631
 5184POPC   GL267130   9.234   3.084   5.830
 5184POPC   C1A67131   9.037   2.640   6.067
 5184POPC   D2A67132   8.965   2.652   6.511
 5184POPC   C3A67133   8.977   2.688   6.938
 5184POPC   C4A67134   8.857   2.965   7.236
 5184POPC   C1B67135   9.088   3.115   6.262
 5184POPC   C2B67136   9.292   3.058   6.640
 5184POPC   C3B67137   9.285   3.150   7.055
 5184POPC   C4B67138   9.178   3.284   7.484
 5185POPC   NC367139  35.940  25.961   5.664
 5185POPC   PO467140  35.367  26.017   5.262
 5185POPC   GL167141  35.373  26.083   5.707
 5185POPC   GL267142  35.166  26.387   5.776
 5185POPC   C1A67143  35.423  26.139   6.182
 5185POPC   D2A67144  35.584  26.395   6.559
 5185POPC   C3A67145  35.596  26.234   6.983
 5185POPC   C4A67146  35.628  25.831   7.165
 5185POPC   C1B67147  35.003  26.475   6.198
 5185POPC   C2B67148  35.102  26.237   6.583
 5185POPC   C3B67149  35.148  25.994   6.968
 5185POPC   C4B67150  35.162  26.029   7.408
 5186POPC   NC367151  17.649  22.388   5.390
 5186POPC   PO467152  17.078  21.924   5.500
 5186POPC   GL167153  17.350  22.172   5.784
 5186POPC   GL267154  17.697  22.091   5.803
 5186POPC   C1A67155  17.375  22.039   6.228
 5186POPC   D2A67156  17.217  21.885   6.635
 5186POPC   C3A67157  17.395  22.076   7.016
 5186POPC   C4A67158  17.292  22.443   7.247
 5186POPC   C1B67159  17.883  22.160   6.188
 5186POPC   C2B67160  17.729  22.123   6.625
 5186POPC   C3B67161  17.929  22.191   7.043
 5186POPC   C4B67162  17.697  22.154   7.449
 5187POPC   NC367163  24.795  36.565   5.512
 5187POPC   PO467164  24.233  36.907   5.457
 5187POPC   GL167165  24.325  36.988   5.853
 5187POPC   GL267166  24.510  36.682   5.947
 5187POPC   C1A67167  24.396  37.108   6.264
 5187POPC   D2A67168  24.349  36.876   6.613
 5187POPC   C3A67169  24.298  37.024   7.023
 5187POPC   C4A67170  24.425  36.684   7.315
 5187POPC   C1B67171  24.797  36.761   6.281
 5187POPC   C2B67172  24.841  36.737   6.715
 5187POPC   C3B67173  24.801  36.973   7.108
 5187POPC   C4B67174  24.764  36.970   7.582
 5188POPC   NC367175  19.230   8.640   5.433
 5188POPC   PO467176  18.769   9.096   5.406
 5188POPC   GL167177  19.008   9.091   5.770
 5188POPC   GL267178  18.714   8.961   5.917
 5188POPC   C1A67179  19.106   9.055   6.232
 5188POPC   D2A67180  18.994   9.066   6.670
 5188POPC   C3A67181  19.254   9.025   7.059
 5188POPC   C4A67182  19.277   9.358   7.370
 5188POPC   C1B67183  18.619   8.642   6.214
 5188POPC   C2B67184  18.686   8.541   6.674
 5188POPC   C3B67185  18.782   8.792   7.056
 5188POPC   C4B67186  18.690   8.957   7.470
 5189POPC   NC367187  29.324  31.656   5.422
 5189POPC   PO467188  28.710  31.371   5.224
 5189POPC   GL167189  28.881  31.529   5.682
 5189POPC   GL267190  29.219  31.436   5.873
 5189POPC   C1A67191  28.860  31.620   6.151
 5189POPC   D2A67192  28.969  31.794   6.573
 5189POPC   C3A67193  28.928  31.464   6.874
 5189POPC   C4A67194  28.856  31.222   7.254
 5189POPC   C1B67195  29.096  31.174   6.225
 5189POPC   C2B67196  29.166  31.026   6.639
 5189POPC   C3B67197  29.354  31.166   7.039
 5189POPC   C4B67198  29.337  31.172   7.509
 5190POPC   NC367199  18.836  26.780   5.368
 5190POPC   PO467200  19.340  27.106   5.606
 5190POPC   GL167201  18.930  27.035   5.799
 5190POPC   GL267202  19.017  26.689   5.860
 5190POPC   C1A67203  18.700  27.084   6.176
 5190POPC   D2A67204  18.917  27.192   6.573
 5190POPC   C3A67205  18.803  27.004   6.969
 5190POPC   C4A67206  18.753  26.955   7.419
 5190POPC   C1B67207  19.140  26.824   6.280
 5190POPC   C2B67208  19.149  26.688   6.734
 5190POPC   C3B67209  19.116  26.650   7.178
 5190POPC   C4B67210  18.872  26.479   7.536
 5191POPC   NC367211  44.566  33.658   5.728
 5191POPC   PO467212  44.269  34.193   5.368
 5191POPC   GL167213  44.236  34.081   5.810
 5191POPC   GL267214  44.599  34.118   5.905
 5191POPC   C1A67215  44.266  33.983   6.264
 5191POPC   D2A67216  44.446  33.922   6.679
 5191POPC   C3A67217  44.285  33.721   7.049
 5191POPC   C4A67218  44.608  33.445   7.245
 5191POPC   C1B67219  44.805  34.057   6.335
 5191POPC   C2B67220  44.926  34.042   6.799
 5191POPC   C3B67221  44.687  34.089   7.201
 5191POPC   C4B67222  44.755  34.152   7.681
 5192POPC   NC367223  24.240  10.157   5.352
 5192POPC   PO467224  23.837  10.762   5.387
 5192POPC   GL167225  23.751  10.653   5.758
 5192POPC   GL267226  23.828  10.308   5.685
 5192POPC   C1A67227  23.889  10.604   6.176
 5192POPC   D2A67228  23.734  10.707   6.594
 5192POPC   C3A67229  23.959  10.619   6.974
 5192POPC   C4A67230  23.742  10.674   7.360
 5192POPC   C1B67231  23.526  10.276   6.003
 5192POPC   C2B67232  23.531  10.274   6.421
 5192POPC   C3B67233  23.556  10.291   6.848
 5192POPC   C4B67234  23.547  10.190   7.253
 5193POPC   NC367235  24.553  32.582   5.216
 5193POPC   PO467236  24.231  33.096   5.463
 5193POPC   GL167237  24.369  33.217   5.838
 5193POPC   GL267238  24.044  33.334   5.985
 5193POPC   C1A67239  24.624  32.967   6.133
 5193POPC   D2A67240  24.731  33.136   6.525
 5193POPC   C3A67241  24.765  32.889   6.855
 5193POPC   C4A67242  24.712  33.152   7.172
 5193POPC   C1B67243  24.097  32.904   6.140
 5193POPC   C2B67244  24.292  32.821   6.523
 5193POPC   C3B67245  24.279  33.056   6.887
 5193POPC   C4B67246  24.301  32.818   7.229
 5194POPC   NC367247  15.920  22.078   5.419
 5194POPC   PO467248  15.538  22.586   5.493
 5194POPC   GL167249  15.591  22.193   5.798
 5194POPC   GL267250  15.968  22.085   5.919
 5194POPC   C1A67251  15.554  21.961   6.194
 5194POPC   D2A67252  15.776  21.980   6.580
 5194POPC   C3A67253  15.823  22.362   6.807
 5194POPC   C4A67254  15.788  22.404   7.243
 5194POPC   C1B67255  16.209  21.942   6.274
 5194POPC   C2B67256  16.266  22.111   6.674
 5194POPC   C3B67257  16.123  22.028   7.060
 5194POPC   C4B67258  16.239  22.193   7.418
 5195POPC   NC367259  22.134  34.879   5.362
 5195POPC   PO467260  21.654  34.322   5.306
 5195POPC   GL167261  21.846  34.346   5.748
 5195POPC   GL267262  22.063  34.651   5.813
 5195POPC   C1A67263  22.041  34.305   6.189
 5195POPC   D2A67264  22.136  34.614   6.538
 5195POPC   C3A67265  22.310  34.572   6.955
 5195POPC   C4A67266  22.089  34.508   7.336
 5195POPC   C1B67267  22.270  34.913   6.152
 5195POPC   C2B67268  22.133  35.126   6.570
 5195POPC   C3B67269  22.016  34.996   7.004
 5195POPC   C4B67270  22.308  34.965   7.371
 5196POPC   NC367271  25.746  18.870   5.498
 5196POPC   PO467272  26.331  19.146   5.588
 5196POPC   GL167273  26.036  19.028   5.908
 5196POPC   GL267274  25.671  19.146   5.931
 5196POPC   C1A67275  26.116  18.790   6.252
 5196POPC   D2A67276  26.380  18.803   6.599
 5196POPC   C3A67277  26.198  18.800   6.985
 5196POPC   C4A67278  26.243  18.528   7.313
 5196POPC   C1B67279  25.805  19.183   6.367
 5196POPC   C2B67280  26.155  19.281   6.625
 5196POPC   C3B67281  26.223  19.300   7.042
 5196POPC   C4B67282  25.849  19.162   7.201
 5197POPC   NC367283  38.643  41.027   5.503
 5197POPC   PO467284  38.117  40.619   5.118
 5197POPC   GL167285  38.194  40.819   5.572
 5197POPC   GL267286  38.451  40.612   5.772
 5197POPC   C1A67287  38.187  40.863   6.080
 5197POPC   D2A67288  38.409  41.081   6.425
 5197POPC   C3A67289  38.345  40.945   6.870
 5197POPC   C4A67290  38.527  41.084   7.246
 5197POPC   C1B67291  38.702  40.711   6.131
 5197POPC   C2B67292  38.951  40.666   6.514
 5197POPC   C3B67293  38.818  40.748   6.929
 5197POPC   C4B67294  38.691  40.601   7.312
 5198POPC   NC367295   6.465   8.791   5.545
 5198POPC   PO467296   6.813   8.254   5.326
 5198POPC   GL167297   6.639   8.330   5.764
 5198POPC   GL267298   6.766   8.637   5.942
 5198POPC   C1A67299   6.585   8.038   6.126
 5198POPC   D2A67300   6.649   7.986   6.564
 5198POPC   C3A67301   6.882   8.162   6.896
 5198POPC   C4A67302   6.729   7.988   7.259
 5198POPC   C1B67303   6.392   8.510   6.198
 5198POPC   C2B67304   6.232   8.293   6.549
 5198POPC   C3B67305   6.366   8.213   6.965
 5198POPC   C4B67306   6.366   8.367   7.387
 5199POPC   NC367307  12.613  23.978   5.272
 5199POPC   PO467308  11.924  23.862   5.448
 5199POPC   GL167309  12.182  23.802   5.791
 5199POPC   GL267310  12.299  23.471   5.845
 5199POPC   C1A67311  12.050  23.774   6.217
 5199POPC   D2A67312  12.047  24.100   6.513
 5199POPC   C3A67313  12.190  23.990   6.886
 5199POPC   C4A67314  12.142  23.668   7.188
 5199POPC   C1B67315  12.477  23.523   6.228
 5199POPC   C2B67316  12.369  23.492   6.649
 5199POPC   C3B67317  12.581  23.476   7.040
 5199POPC   C4B67318  12.520  23.271   7.456
 5200POPC   NC367319  27.514  16.899   5.454
 5200POPC   PO467320  26.852  17.095   5.485
 5200POPC   GL167321  26.864  16.933   5.886
 5200POPC   GL267322  27.217  16.900   5.897
 5200POPC   C1A67323  26.639  16.796   6.295
 5200POPC   D2A67324  26.525  16.446   6.599
 5200POPC   C3A67325  26.614  16.556   7.033
 5200POPC   C4A67326  26.563  16.345   7.447
 5200POPC   C1B67327  27.062  17.090   6.319
 5200POPC   C2B67328  26.870  17.016   6.720
 5200POPC   C3B67329  27.001  16.851   7.122
 5200POPC   C4B67330  26.953  16.677   7.542
 5201POPC   NC367331  39.931   5.453   5.250
 5201POPC   PO467332  40.261   5.950   5.370
 5201POPC   GL167333  40.051   5.831   5.720
 5201POPC   GL267334  39.732   5.946   5.665
 5201POPC   C1A67335  39.858   5.614   6.073
 5201POPC   D2A67336  39.807   5.750   6.499
 5201POPC   C3A67337  40.007   5.687   6.924
 5201POPC   C4A67338  40.308   5.940   7.178
 5201POPC   C1B67339  39.858   6.140   6.097
 5201POPC   C2B67340  39.624   6.234   6.494
 5201POPC   C3B67341  39.626   6.339   6.932
 5201POPC   C4B67342  39.783   6.047   7.234
 5202POPC   NC367343  35.041  40.710   5.534
 5202POPC   PO467344  35.690  40.996   5.478
 5202POPC   GL167345  35.498  40.744   5.786
 5202POPC   GL267346  35.292  41.050   5.836
 5202POPC   C1A67347  35.250  40.694   6.194
 5202POPC   D2A67348  34.929  40.815   6.516
 5202POPC   C3A67349  35.204  40.819   6.845
 5202POPC   C4A67350  35.420  40.563   7.147
 5202POPC   C1B67351  35.594  41.141   6.158
 5202POPC   C2B67352  35.745  41.078   6.582
 5202POPC   C3B67353  35.641  41.051   7.003
 5202POPC   C4B67354  35.316  41.041   7.289
 5203POPC   NC367355  30.461   4.565   5.219
 5203POPC   PO467356  30.914   4.072   5.360
 5203POPC   GL167357  30.610   4.105   5.723
 5203POPC   GL267358  30.567   3.777   5.884
 5203POPC   C1A67359  30.660   4.290   6.171
 5203POPC   D2A67360  30.571   4.610   6.500
 5203POPC   C3A67361  30.740   4.631   6.902
 5203POPC   C4A67362  30.675   4.362   7.243
 5203POPC   C1B67363  30.243   3.989   6.161
 5203POPC   C2B67364  30.314   4.168   6.596
 5203POPC   C3B67365  30.329   4.021   7.054
 5203POPC   C4B67366  30.427   4.045   7.539
 5204POPC   NC367367   4.210  40.997   5.441
 5204POPC   PO467368   4.421  40.388   5.395
 5204POPC   GL167369   4.262  40.596   5.780
 5204POPC   GL267370   4.465  40.881   5.867
 5204POPC   C1A67371   4.070  40.783   6.170
 5204POPC   D2A67372   4.157  40.705   6.612
 5204POPC   C3A67373   4.275  40.969   7.013
 5204POPC   C4A67374   4.110  40.757   7.410
 5204POPC   C1B67375   4.561  40.852   6.312
 5204POPC   C2B67376   4.642  40.738   6.747
 5204POPC   C3B67377   4.456  40.491   7.096
 5204POPC   C4B67378   4.424  40.340   7.542
 5205POPC   NC367379  40.737  32.797   5.280
 5205POPC   PO467380  40.345  33.259   5.565
 5205POPC   GL167381  40.713  33.097   5.738
 5205POPC   GL267382  40.507  32.834   5.882
 5205POPC   C1A67383  40.949  32.923   6.126
 5205POPC   D2A67384  40.878  33.043   6.550
 5205POPC   C3A67385  40.708  33.000   6.961
 5205POPC   C4A67386  40.921  33.191   7.305
 5205POPC   C1B67387  40.488  33.194   6.208
 5205POPC   C2B67388  40.466  33.386   6.630
 5205POPC   C3B67389  40.543  33.482   7.074
 5205POPC   C4B67390  40.464  33.214   7.497
 5206POPC   NC367391  41.826  40.727   5.272
 5206POPC   PO467392  41.217  40.475   5.433
 5206POPC   GL167393  41.409  40.533   5.872
 5206POPC   GL267394  41.783  40.614   5.807
 5206POPC   C1A67395  41.521  40.517   6.323
 5206POPC   D2A67396  41.414  40.792   6.702
 5206POPC   C3A67397  41.336  40.620   7.132
 5206POPC   C4A67398  41.415  40.467   7.630
 5206POPC   C1B67399  41.845  40.907   6.137
 5206POPC   C2B67400  41.949  40.774   6.544
 5206POPC   C3B67401  41.837  40.567   6.925
 5206POPC   C4B67402  41.776  40.724   7.348
 5207POPC   NC367403   9.833  13.870   5.533
 5207POPC   PO467404   9.838  13.242   5.424
 5207POPC   GL167405   9.925  13.421   5.812
 5207POPC   GL267406   9.606  13.571   5.918
 5207POPC   C1A67407   9.954  13.309   6.243
 5207POPC   D2A67408   9.928  13.529   6.610
 5207POPC   C3A67409   9.849  13.365   6.973
 5207POPC   C4A67410   9.485  13.446   7.193
 5207POPC   C1B67411   9.867  13.860   6.183
 5207POPC   C2B67412   9.891  14.071   6.571
 5207POPC   C3B67413   9.749  13.904   6.940
 5207POPC   C4B67414   9.892  13.750   7.314
 5208POPC   NC367415  37.239  41.294   5.284
 5208POPC   PO467416  36.817  41.783   5.497
 5208POPC   GL167417  37.042  41.709   5.869
 5208POPC   GL267418  37.014  41.401   5.799
 5208POPC   C1A67419  37.135  41.638   6.322
 5208POPC   D2A67420  36.822  41.570   6.684
 5208POPC   C3A67421  36.954  41.619   7.089
 5208POPC   C4A67422  37.267  41.894   7.100
 5208POPC   C1B67423  36.762  41.336   6.206
 5208POPC   C2B67424  36.851  41.086   6.558
 5208POPC   C3B67425  36.625  41.032   6.906
 5208POPC   C4B67426  36.549  41.352   7.222
 5209POPC   NC367427   6.836  35.201   5.544
 5209POPC   PO467428   6.349  35.519   5.218
 5209POPC   GL167429   6.422  35.501   5.748
 5209POPC   GL267430   6.599  35.212   5.979
 5209POPC   C1A67431   6.496  35.596   6.240
 5209POPC   D2A67432   6.753  35.368   6.536
 5209POPC   C3A67433   6.720  35.431   6.951
 5209POPC   C4A67434   6.443  35.600   7.185
 5209POPC   C1B67435   6.888  34.977   6.249
 5209POPC   C2B67436   6.949  34.879   6.705
 5209POPC   C3B67437   7.039  35.083   7.102
 5209POPC   C4B67438   6.723  35.221   7.440
 5210POPC   NC367439  38.551  34.263   5.596
 5210POPC   PO467440  37.915  34.415   5.423
 5210POPC   GL167441  38.152  34.531   5.799
 5210POPC   GL267442  38.445  34.769   5.721
 5210POPC   C1A67443  38.329  34.410   6.213
 5210POPC   D2A67444  38.352  34.227   6.618
 5210POPC   C3A67445  38.546  34.490   6.891
 5210POPC   C4A67446  38.769  34.526   7.234
 5210POPC   C1B67447  38.271  34.912   6.134
 5210POPC   C2B67448  38.204  34.753   6.577
 5210POPC   C3B67449  38.067  34.642   6.982
 5210POPC   C4B67450  38.363  34.857   7.264
 5211POPC   NC367451  17.431   8.171   5.590
 5211POPC   PO467452  18.022   7.864   5.683
 5211POPC   GL167453  17.784   8.045   5.955
 5211POPC   GL267454  17.475   7.868   5.994
 5211POPC   C1A67455  17.675   8.265   6.310
 5211POPC   D2A67456  17.370   8.209   6.607
 5211POPC   C3A67457  17.461   8.334   7.011
 5211POPC   C4A67458  17.726   8.078   7.249
 5211POPC   C1B67459  17.103   7.978   6.198
 5211POPC   C2B67460  16.886   8.058   6.580
 5211POPC   C3B67461  17.086   7.962   6.957
 5211POPC   C4B67462  17.238   7.993   7.332
 5212POPC   NC367463  41.704  38.274   5.423
 5212POPC   PO467464  41.417  38.884   5.363
 5212POPC   GL167465  41.356  38.652   5.737
 5212POPC   GL267466  41.695  38.668   5.777
 5212POPC   C1A67467  41.286  38.612   6.185
 5212POPC   D2A67468  41.542  38.644   6.565
 5212POPC   C3A67469  41.332  38.579   6.944
 5212POPC   C4A67470  41.430  38.242   7.196
 5212POPC   C1B67471  41.780  38.427   6.129
 5212POPC   C2B67472  41.910  38.289   6.530
 5212POPC   C3B67473  41.842  38.398   6.957
 5212POPC   C4B67474  42.083  38.239   7.320
 5213POPC   NC367475   0.396   8.720   5.670
 5213POPC   PO467476   0.641   8.333   5.215
 5213POPC   GL167477   0.509   8.230   5.695
 5213POPC   GL267478   0.179   8.298   5.821
 5213POPC   C1A67479   0.618   8.152   6.124
 5213POPC   D2A67480   0.654   8.316   6.546
 5213POPC   C3A67481   0.819   8.063   6.859
 5213POPC   C4A67482   0.569   8.190   7.200
 5213POPC   C1B67483   0.100   8.006   6.150
 5213POPC   C2B67484  44.977   8.083   6.560
 5213POPC   C3B67485   0.086   8.329   6.924
 5213POPC   C4B67486  44.925   8.221   7.299
 5214POPC   NC367487   7.789  17.268   5.554
 5214POPC   PO467488   7.350  16.760   5.401
 5214POPC   GL167489   7.325  16.615   5.792
 5214POPC   GL267490   6.985  16.565   5.819
 5214POPC   C1A67491   7.594  16.620   6.157
 5214POPC   D2A67492   7.814  16.885   6.454
 5214POPC   C3A67493   7.644  16.833   6.850
 5214POPC   C4A67494   7.800  16.528   7.140
 5214POPC   C1B67495   7.075  16.837   6.170
 5214POPC   C2B67496   7.032  17.089   6.535
 5214POPC   C3B67497   7.151  16.997   6.938
 5214POPC   C4B67498   7.315  16.712   7.239
 5215POPC   NC367499  35.934  40.600   5.414
 5215POPC   PO467500  36.612  40.836   5.382
 5215POPC   GL167501  36.313  40.650   5.764
 5215POPC   GL267502  36.031  40.848   5.866
 5215POPC   C1A67503  36.235  40.453   6.196
 5215POPC   D2A67504  36.127  40.731   6.550
 5215POPC   C3A67505  36.130  40.935   6.934
 5215POPC   C4A67506  36.321  40.926   7.308
 5215POPC   C1B67507  35.768  40.680   6.206
 5215POPC   C2B67508  35.630  40.562   6.625
 5215POPC   C3B67509  35.887  40.503   6.991
 5215POPC   C4B67510  35.820  40.779   7.378
 5216POPC   NC367511  16.242  11.320   5.458
 5216POPC   PO467512  15.688  10.914   5.269
 5216POPC   GL167513  15.856  11.048   5.698
 5216POPC   GL267514  16.183  10.882   5.717
 5216POPC   C1A67515  15.882  11.232   6.126
 5216POPC   D2A67516  15.723  11.269   6.571
 5216POPC   C3A67517  15.759  11.403   7.012
 5216POPC   C4A67518  15.785  11.036   7.296
 5216POPC   C1B67519  16.284  10.854   6.126
 5216POPC   C2B67520  16.192  11.057   6.506
 5216POPC   C3B67521  16.141  11.089   6.930
 5216POPC   C4B67522  16.297  11.289   7.315
 5217POPC   NC367523  41.447  18.020   5.674
 5217POPC   PO467524  41.714  18.677   5.539
 5217POPC   GL167525  41.520  18.481   5.918
 5217POPC   GL267526  41.271  18.240   6.091
 5217POPC   C1A67527  41.743  18.242   6.242
 5217POPC   D2A67528  41.591  18.259   6.625
 5217POPC   C3A67529  41.824  18.315   6.949
 5217POPC   C4A67530  41.903  18.225   7.346
 5217POPC   C1B67531  41.276  18.581   6.395
 5217POPC   C2B67532  41.199  18.523   6.853
 5217POPC   C3B67533  41.419  18.448   7.268
 5217POPC   C4B67534  41.431  18.232   7.650
 5218POPC   NC367535  24.609  15.950   5.473
 5218POPC   PO467536  24.071  16.046   5.848
 5218POPC   GL167537  24.356  15.764   6.041
 5218POPC   GL267538  24.682  15.827   5.963
 5218POPC   C1A67539  24.349  15.767   6.467
 5218POPC   D2A67540  24.532  16.141   6.682
 5218POPC   C3A67541  24.350  16.143   7.075
 5218POPC   C4A67542  24.306  15.699   7.145
 5218POPC   C1B67543  24.842  15.809   6.337
 5218POPC   C2B67544  24.759  15.685   6.766
 5218POPC   C3B67545  24.822  15.926   7.108
 5218POPC   C4B67546  24.617  16.041   7.511
 5219POPC   NC367547  19.530  29.084   5.559
 5219POPC   PO467548  19.928  28.575   5.305
 5219POPC   GL167549  19.966  28.846   5.790
 5219POPC   GL267550  19.881  29.203   5.911
 5219POPC   C1A67551  19.779  28.859   6.278
 5219POPC   D2A67552  19.889  29.038   6.708
 5219POPC   C3A67553  19.610  28.932   7.086
 5219POPC   C4A67554  19.729  28.968   7.565
 5219POPC   C1B67555  19.514  29.291   6.185
 5219POPC   C2B67556  19.411  29.170   6.618
 5219POPC   C3B67557  19.575  29.423   6.962
 5219POPC   C4B67558  19.957  29.294   7.191
 5220POPC   NC367559  10.137  12.995   5.160
 5220POPC   PO467560  10.602  12.597   5.413
 5220POPC   GL167561  10.587  12.917   5.737
 5220POPC   GL267562  10.676  12.688   6.015
 5220POPC   C1A67563  10.437  13.135   6.135
 5220POPC   D2A67564  10.267  12.979   6.541
 5220POPC   C3A67565  10.339  13.158   6.943
 5220POPC   C4A67566  10.547  12.961   7.334
 5220POPC   C1B67567  10.839  12.929   6.376
 5220POPC   C2B67568  10.765  12.936   6.799
 5220POPC   C3B67569  10.447  12.643   6.943
 5220POPC   C4B67570  10.576  12.437   7.292
 5221POPC   NC367571  14.304  18.512   5.374
 5221POPC   PO467572  14.667  17.877   5.595
 5221POPC   GL167573  14.372  18.131   5.907
 5221POPC   GL267574  14.485  18.504   5.848
 5221POPC   C1A67575  14.076  18.038   6.320
 5221POPC   D2A67576  14.038  18.066   6.830
 5221POPC   C3A67577  14.445  18.083   7.080
 5221POPC   C4A67578  14.679  18.095   7.504
 5221POPC   C1B67579  14.611  18.442   6.240
 5221POPC   C2B67580  14.395  18.333   6.586
 5221POPC   C3B67581  14.299  18.547   6.940
 5221POPC   C4B67582  14.467  18.533   7.353
 5222POPC   NC367583  35.537  29.934   5.186
 5222POPC   PO467584  35.214  29.409   5.445
 5222POPC   GL167585  35.405  29.797   5.679
 5222POPC   GL267586  35.207  30.076   5.878
 5222POPC   C1A67587  35.614  29.812   6.102
 5222POPC   D2A67588  35.430  29.654   6.507
 5222POPC   C3A67589  35.609  29.807   6.882
 5222POPC   C4A67590  35.494  29.714   7.313
 5222POPC   C1B67591  35.216  30.088   6.340
 5222POPC   C2B67592  35.184  30.067   6.786
 5222POPC   C3B67593  35.178  30.128   7.224
 5222POPC   C4B67594  35.123  30.123   7.708
 5223POPC   NC367595  42.105  30.670   5.340
 5223POPC   PO467596  41.507  30.470   5.445
 5223POPC   GL167597  41.711  30.725   5.729
 5223POPC   GL267598  41.601  30.484   5.978
 5223POPC   C1A67599  41.591  30.981   6.098
 5223POPC   D2A67600  41.463  30.756   6.484
 5223POPC   C3A67601  41.647  30.872   6.884
 5223POPC   C4A67602  41.471  30.855   7.316
 5223POPC   C1B67603  41.834  30.389   6.358
 5223POPC   C2B67604  41.786  30.331   6.801
 5223POPC   C3B67605  41.439  30.396   7.088
 5223POPC   C4B67606  41.299  30.275   7.508
 5224POPC   NC367607  37.581  25.783   5.481
 5224POPC   PO467608  37.850  26.468   5.454
 5224POPC   GL167609  37.755  26.145   5.811
 5224POPC   GL267610  37.895  25.793   5.866
 5224POPC   C1A67611  37.419  26.154   6.151
 5224POPC   D2A67612  37.575  26.147   6.595
 5224POPC   C3A67613  37.332  26.116   6.951
 5224POPC   C4A67614  37.316  25.927   7.314
 5224POPC   C1B67615  37.818  25.842   6.277
 5224POPC   C2B67616  37.799  25.636   6.658
 5224POPC   C3B67617  37.749  25.835   7.053
 5224POPC   C4B67618  37.930  26.082   7.411
 5225POPC   NC367619  34.267  23.548   5.429
 5225POPC   PO467620  34.769  24.069   5.281
 5225POPC   GL167621  34.554  23.951   5.632
 5225POPC   GL267622  34.726  23.678   5.745
 5225POPC   C1A67623  34.499  24.080   6.067
 5225POPC   D2A67624  34.570  24.191   6.532
 5225POPC   C3A67625  34.720  23.901   6.848
 5225POPC   C4A67626  34.390  23.758   7.118
 5225POPC   C1B67627  34.687  23.637   6.219
 5225POPC   C2B67628  34.418  23.581   6.599
 5225POPC   C3B67629  34.590  23.343   6.946
 5225POPC   C4B67630  34.956  23.393   7.170
 5226POPC   NC367631  20.341  36.170   5.329
 5226POPC   PO467632  19.766  35.937   5.521
 5226POPC   GL167633  20.117  36.074   5.814
 5226POPC   GL267634  20.247  36.440   5.776
 5226POPC   C1A67635  20.050  35.935   6.262
 5226POPC   D2A67636  19.708  35.985   6.559
 5226POPC   C3A67637  19.882  35.956   6.945
 5226POPC   C4A67638  19.749  36.021   7.360
 5226POPC   C1B67639  20.084  36.456   6.199
 5226POPC   C2B67640  20.116  36.351   6.635
 5226POPC   C3B67641  20.051  36.423   7.074
 5226POPC   C4B67642  20.076  36.388   7.519
 5227POPC   NC367643  37.413  33.220   5.551
 5227POPC   PO467644  37.928  32.752   5.639
 5227POPC   GL167645  37.695  32.988   5.909
 5227POPC   GL267646  37.356  32.828   5.922
 5227POPC   C1A67647  37.791  33.252   6.245
 5227POPC   D2A67648  37.614  33.134   6.618
 5227POPC   C3A67649  37.727  33.379   6.942
 5227POPC   C4A67650  37.639  33.307   7.410
 5227POPC   C1B67651  37.615  32.697   6.323
 5227POPC   C2B67652  37.557  32.648   6.771
 5227POPC   C3B67653  37.625  32.898   7.106
 5227POPC   C4B67654  37.836  32.835   7.485
 5228POPC   NC367655   0.359   1.327   5.530
 5228POPC   PO467656   0.108   0.938   5.066
 5228POPC   GL167657   0.079   0.848   5.615
 5228POPC   GL267658   0.128   1.122   5.914
 5228POPC   C1A67659   0.056   0.694   6.120
 5228POPC   D2A67660  44.981   0.966   6.523
 5228POPC   C3A67661   0.134   0.969   6.976
 5228POPC   C4A67662   0.286   1.304   7.234
 5228POPC   C1B67663   0.434   1.015   6.294
 5228POPC   C2B67664   0.600   1.076   6.755
 5228POPC   C3B67665   0.778   1.354   7.098
 5228POPC   C4B67666   0.674   1.477   7.534
 5229POPC   NC367667  19.773  31.725   5.393
 5229POPC   PO467668  19.597  31.057   5.478
 5229POPC   GL167669  19.798  31.371   5.748
 5229POPC   GL267670  19.859  31.153   5.961
 5229POPC   C1A67671  20.017  31.589   6.110
 5229POPC   D2A67672  19.788  31.552   6.507
 5229POPC   C3A67673  19.850  31.333   6.884
 5229POPC   C4A67674  20.003  31.546   7.248
 5229POPC   C1B67675  19.508  31.276   6.181
 5229POPC   C2B67676  19.358  31.308   6.594
 5229POPC   C3B67677  19.306  31.330   7.004
 5229POPC   C4B67678  19.569  31.284   7.331
 5230POPC   NC367679  36.993  34.934   5.456
 5230POPC   PO467680  36.486  34.511   5.260
 5230POPC   GL167681  36.677  34.618   5.706
 5230POPC   GL267682  36.671  34.961   5.865
 5230POPC   C1A67683  36.880  34.601   6.143
 5230POPC   D2A67684  36.962  34.466   6.575
 5230POPC   C3A67685  36.800  34.554   6.966
 5230POPC   C4A67686  37.107  34.537   7.293
 5230POPC   C1B67687  37.127  35.039   6.063
 5230POPC   C2B67688  37.289  34.816   6.397
 5230POPC   C3B67689  37.232  34.832   6.864
 5230POPC   C4B67690  37.544  34.796   7.186
 5231POPC   NC367691  15.981  43.640   5.474
 5231POPC   PO467692  15.788  44.305   5.366
 5231POPC   GL167693  15.735  44.025   5.731
 5231POPC   GL267694  16.061  44.045   5.858
 5231POPC   C1A67695  15.728  43.719   6.118
 5231POPC   D2A67696  15.684  43.669   6.575
 5231POPC   C3A67697  15.689  44.070   6.760
 5231POPC   C4A67698  15.871  44.072   7.142
 5231POPC   C1B67699  16.275  44.175   6.263
 5231POPC   C2B67700  16.231  44.113   6.725
 5231POPC   C3B67701  16.248  43.728   6.973
 5231POPC   C4B67702  16.337  43.391   7.274
 5232POPC   NC367703  20.574  17.785   5.171
 5232POPC   PO467704  20.895  17.268   5.452
 5232POPC   GL167705  20.651  17.529   5.792
 5232POPC   GL267706  20.834  17.856   5.840
 5232POPC   C1A67707  20.421  17.523   6.223
 5232POPC   D2A67708  20.481  17.339   6.643
 5232POPC   C3A67709  20.478  17.516   7.019
 5232POPC   C4A67710  20.267  17.820   7.263
 5232POPC   C1B67711  20.918  17.599   6.265
 5232POPC   C2B67712  20.952  17.488   6.752
 5232POPC   C3B67713  20.916  17.369   7.225
 5232POPC   C4B67714  20.928  17.434   7.707
 5233POPC   NC367715  36.765  36.748   5.107
 5233POPC   PO467716  36.995  37.350   5.427
 5233POPC   GL167717  36.793  37.142   5.814
 5233POPC   GL267718  36.760  36.792   5.738
 5233POPC   C1A67719  36.939  36.964   6.230
 5233POPC   D2A67720  36.989  36.825   6.656
 5233POPC   C3A67721  36.987  37.079   7.060
 5233POPC   C4A67722  37.039  36.981   7.550
 5233POPC   C1B67723  36.507  36.703   6.109
 5233POPC   C2B67724  36.567  36.542   6.516
 5233POPC   C3B67725  36.564  36.692   6.914
 5233POPC   C4B67726  36.642  36.466   7.273
 5234POPC   NC367727  23.600  33.987   5.216
 5234POPC   PO467728  24.086  33.745   5.469
 5234POPC   GL167729  23.832  33.768   5.801
 5234POPC   GL267730  23.640  34.052   5.723
 5234POPC   C1A67731  23.944  33.809   6.247
 5234POPC   D2A67732  23.746  33.692   6.631
 5234POPC   C3A67733  23.960  33.472   6.952
 5234POPC   C4A67734  23.723  33.589   7.297
 5234POPC   C1B67735  23.454  33.902   6.120
 5234POPC   C2B67736  23.313  34.033   6.517
 5234POPC   C3B67737  23.293  34.221   6.905
 5234POPC   C4B67738  23.593  34.073   7.187
 5235POPC   NC367739  23.773   1.212   5.132
 5235POPC   PO467740  24.134   1.569   5.585
 5235POPC   GL167741  23.940   1.308   5.887
 5235POPC   GL267742  23.997   0.991   5.957
 5235POPC   C1A67743  23.799   1.417   6.286
 5235POPC   D2A67744  23.942   1.429   6.701
 5235POPC   C3A67745  23.702   1.117   6.859
 5235POPC   C4A67746  23.400   1.263   7.131
 5235POPC   C1B67747  23.628   0.913   6.273
 5235POPC   C2B67748  23.371   0.729   6.664
 5235POPC   C3B67749  23.455   0.736   7.142
 5235POPC   C4B67750  23.795   0.996   7.362
 5236POPC   NC367751   6.171  14.400   5.390
 5236POPC   PO467752   5.501  14.257   5.542
 5236POPC   GL167753   5.846  14.390   5.789
 5236POPC   GL267754   6.132  14.124   5.804
 5236POPC   C1A67755   5.876  14.369   6.217
 5236POPC   D2A67756   5.680  14.139   6.573
 5236POPC   C3A67757   5.813  14.218   6.998
 5236POPC   C4A67758   5.918  14.557   7.255
 5236POPC   C1B67759   6.351  14.226   6.174
 5236POPC   C2B67760   6.221  14.224   6.587
 5236POPC   C3B67761   6.395  14.081   6.935
 5236POPC   C4B67762   6.247  14.096   7.310
 5237POPC   NC367763  23.081  34.664   5.526
 5237POPC   PO467764  23.713  34.432   5.166
 5237POPC   GL167765  23.588  34.556   5.589
 5237POPC   GL267766  23.913  34.513   5.732
 5237POPC   C1A67767  23.582  34.775   6.026
 5237POPC   D2A67768  23.885  34.764   6.381
 5237POPC   C3A67769  23.787  34.821   6.824
 5237POPC   C4A67770  23.628  34.623   7.208
 5237POPC   C1B67771  23.796  34.304   6.137
 5237POPC   C2B67772  23.813  34.225   6.590
 5237POPC   C3B67773  23.998  34.357   6.992
 5237POPC   C4B67774  23.932  34.300   7.476
 5238POPC   NC367775  41.248  24.421   5.373
 5238POPC   PO467776  41.847  24.777   5.366
 5238POPC   GL167777  41.706  24.535   5.737
 5238POPC   GL267778  41.397  24.641   5.817
 5238POPC   C1A67779  41.633  24.354   6.170
 5238POPC   D2A67780  41.420  24.433   6.580
 5238POPC   C3A67781  41.552  24.258   6.977
 5238POPC   C4A67782  41.590  24.420   7.400
 5238POPC   C1B67783  41.392  24.862   6.217
 5238POPC   C2B67784  41.555  24.959   6.635
 5238POPC   C3B67785  41.486  24.767   7.025
 5238POPC   C4B67786  41.203  24.766   7.401
 5239POPC   NC367787  12.726  29.011   5.495
 5239POPC   PO467788  12.681  28.253   5.358
 5239POPC   GL167789  12.789  28.107   5.797
 5239POPC   GL267790  13.112  28.140   5.915
 5239POPC   C1A67791  12.792  28.143   6.282
 5239POPC   D2A67792  12.811  28.484   6.605
 5239POPC   C3A67793  12.762  28.313   6.986
 5239POPC   C4A67794  12.894  27.907   7.047
 5239POPC   C1B67795  13.170  28.487   6.243
 5239POPC   C2B67796  13.338  28.570   6.668
 5239POPC   C3B67797  13.204  28.541   7.094
 5239POPC   C4B67798  12.857  28.688   7.395
 5240POPC   NC367799  35.642  41.459   5.512
 5240POPC   PO467800  35.193  41.949   5.406
 5240POPC   GL167801  35.167  41.801   5.808
 5240POPC   GL267802  35.059  41.488   5.731
 5240POPC   C1A67803  35.386  41.598   6.143
 5240POPC   D2A67804  35.727  41.575   6.445
 5240POPC   C3A67805  35.542  41.518   6.844
 5240POPC   C4A67806  35.542  41.498   7.291
 5240POPC   C1B67807  34.956  41.328   6.145
 5240POPC   C2B67808  35.209  41.253   6.514
 5240POPC   C3B67809  35.077  41.318   6.928
 5240POPC   C4B67810  35.017  41.656   7.221
 5241POPC   NC367811  19.523  10.189   5.522
 5241POPC   PO467812  20.203  10.395   5.362
 5241POPC   GL167813  20.033  10.673   5.715
 5241POPC   GL267814  19.782  10.489   5.818
 5241POPC   C1A67815  19.870  10.822   6.171
 5241POPC   D2A67816  19.586  10.678   6.517
 5241POPC   C3A67817  19.783  10.691   6.927
 5241POPC   C4A67818  19.690  10.371   7.235
 5241POPC   C1B67819  20.086  10.375   6.142
 5241POPC   C2B67820  20.079  10.485   6.553
 5241POPC   C3B67821  20.078  10.258   6.928
 5241POPC   C4B67822  20.243  10.178   7.358
 5242POPC   NC367823  15.181  42.374   5.215
 5242POPC   PO467824  15.647  42.666   5.563
 5242POPC   GL167825  15.230  42.435   5.771
 5242POPC   GL267826  14.867  42.263   5.765
 5242POPC   C1A67827  15.068  42.452   6.227
 5242POPC   D2A67828  15.000  42.463   6.714
 5242POPC   C3A67829  15.374  42.377   6.914
 5242POPC   C4A67830  15.554  42.198   7.275
 5242POPC   C1B67831  14.667  42.128   6.185
 5242POPC   C2B67832  14.665  42.032   6.650
 5242POPC   C3B67833  14.888  42.105   7.060
 5242POPC   C4B67834  15.008  42.521   7.248
 5243POPC   NC367835   3.578  37.885   5.500
 5243POPC   PO467836   3.820  37.321   5.459
 5243POPC   GL167837   3.674  37.507   5.882
 5243POPC   GL267838   3.341  37.533   5.847
 5243POPC   C1A67839   3.683  37.556   6.372
 5243POPC   D2A67840   3.458  37.837   6.675
 5243POPC   C3A67841   3.516  37.847   7.140
 5243POPC   C4A67842   3.672  37.499   7.407
 5243POPC   C1B67843   3.194  37.744   6.212
 5243POPC   C2B67844   2.958  37.722   6.598
 5243POPC   C3B67845   3.120  37.593   6.990
 5243POPC   C4B67846   3.181  37.622   7.447
 5244POPC   NC367847  20.711  16.928   5.668
 5244POPC   PO467848  20.281  16.516   5.691
 5244POPC   GL167849  20.344  16.804   6.008
 5244POPC   GL267850  20.283  17.144   5.892
 5244POPC   C1A67851  20.610  17.020   6.296
 5244POPC   D2A67852  20.829  16.976   6.703
 5244POPC   C3A67853  20.590  16.965   7.094
 5244POPC   C4A67854  20.503  16.592   7.397
 5244POPC   C1B67855  20.113  17.104   6.341
 5244POPC   C2B67856  20.283  16.855   6.690
 5244POPC   C3B67857  20.109  16.779   7.120
 5244POPC   C4B67858  20.136  16.898   7.583
 5245POPC   NC367859  31.105   4.980   5.365
 5245POPC   PO467860  31.492   4.574   5.560
 5245POPC   GL167861  31.394   4.974   5.834
 5245POPC   GL267862  31.463   5.324   5.643
 5245POPC   C1A67863  31.282   5.000   6.326
 5245POPC   D2A67864  31.220   4.763   6.756
 5245POPC   C3A67865  31.462   4.885   7.139
 5245POPC   C4A67866  31.846   5.056   7.353
 5245POPC   C1B67867  31.232   5.421   6.029
 5245POPC   C2B67868  31.107   5.516   6.485
 5245POPC   C3B67869  31.279   5.312   6.873
 5245POPC   C4B67870  31.497   5.426   7.263
 5246POPC   NC367871   9.508   1.633   5.403
 5246POPC   PO467872   9.925   2.157   5.387
 5246POPC   GL167873  10.153   2.102   5.747
 5246POPC   GL267874  10.059   1.754   5.755
 5246POPC   C1A67875  10.057   2.183   6.191
 5246POPC   D2A67876   9.835   2.287   6.591
 5246POPC   C3A67877   9.772   2.041   6.979
 5246POPC   C4A67878   9.577   2.309   7.278
 5246POPC   C1B67879  10.307   1.750   6.108
 5246POPC   C2B67880  10.099   1.787   6.508
 5246POPC   C3B67881  10.122   1.643   6.914
 5246POPC   C4B67882  10.118   1.725   7.324
 5247POPC   NC367883  44.667  34.444   5.329
 5247POPC   PO467884  44.739  35.066   5.378
 5247POPC   GL167885  44.412  34.933   5.680
 5247POPC   GL267886  44.405  34.572   5.775
 5247POPC   C1A67887  44.538  34.937   6.117
 5247POPC   D2A67888  44.755  34.831   6.517
 5247POPC   C3A67889  44.527  34.871   6.925
 5247POPC   C4A67890  44.529  34.942   7.370
 5247POPC   C1B67891  44.484  34.454   6.253
 5247POPC   C2B67892  44.585  34.405   6.699
 5247POPC   C3B67893  44.885  34.534   7.025
 5247POPC   C4B67894  44.908  34.608   7.476
 5248POPC   NC367895   3.587   9.273   5.468
 5248POPC   PO467896   3.721  10.009   5.475
 5248POPC   GL167897   3.558   9.845   5.846
 5248POPC   GL267898   3.359   9.539   5.853
 5248POPC   C1A67899   3.602   9.786   6.289
 5248POPC   D2A67900   3.277   9.664   6.569
 5248POPC   C3A67901   3.262   9.821   6.954
 5248POPC   C4A67902   3.394   9.997   7.329
 5248POPC   C1B67903   3.474   9.300   6.205
 5248POPC   C2B67904   3.630   9.317   6.623
 5248POPC   C3B67905   3.327   9.301   6.980
 5248POPC   C4B67906   3.256   9.499   7.358
 5249POPC   NC367907  27.053  36.413   5.098
 5249POPC   PO467908  27.551  36.100   5.457
 5249POPC   GL167909  27.406  36.159   5.880
 5249POPC   GL267910  27.142  36.412   5.817
 5249POPC   C1A67911  27.603  36.103   6.280
 5249POPC   D2A67912  27.821  36.125   6.670
 5249POPC   C3A67913  27.601  36.155   7.056
 5249POPC   C4A67914  27.850  35.829   7.204
 5249POPC   C1B67915  27.308  36.537   6.234
 5249POPC   C2B67916  27.447  36.486   6.663
 5249POPC   C3B67917  27.296  36.570   7.096
 5249POPC   C4B67918  27.437  36.408   7.512
 5250POPC   NC367919  40.984  40.140   5.205
 5250POPC   PO467920  40.375  39.936   5.456
 5250POPC   GL167921  40.705  39.971   5.776
 5250POPC   GL267922  41.037  40.087   5.721
 5250POPC   C1A67923  40.797  39.793   6.164
 5250POPC   D2A67924  40.856  40.037   6.520
 5250POPC   C3A67925  40.973  39.857   6.897
 5250POPC   C4A67926  40.773  39.826   7.262
 5250POPC   C1B67927  40.963  40.334   6.098
 5250POPC   C2B67928  40.940  40.545   6.516
 5250POPC   C3B67929  40.907  40.376   6.929
 5250POPC   C4B67930  41.096  40.224   7.314
 5251POPC   NC367931   0.748  39.330   5.387
 5251POPC   PO467932   0.141  39.061   5.267
 5251POPC   GL167933   0.263  39.048   5.699
 5251POPC   GL267934   0.515  39.271   5.828
 5251POPC   C1A67935   0.251  38.951   6.153
 5251POPC   D2A67936   0.485  39.016   6.527
 5251POPC   C3A67937   0.287  39.024   6.921
 5251POPC   C4A67938   0.565  39.071   7.279
 5251POPC   C1B67939   0.199  39.465   6.077
 5251POPC   C2B67940   0.251  39.461   6.504
 5251POPC   C3B67941   0.489  39.501   6.867
 5251POPC   C4B67942   0.235  39.451   7.218
 5252POPC   NC367943  21.070  35.490   5.416
 5252POPC   PO467944  21.709  35.168   5.426
 5252POPC   GL167945  21.394  35.263   5.758
 5252POPC   GL267946  21.307  35.555   5.877
 5252POPC   C1A67947  21.277  35.123   6.173
 5252POPC   D2A67948  21.367  34.870   6.553
 5252POPC   C3A67949  21.195  35.056   6.933
 5252POPC   C4A67950  21.299  35.106   7.379
 5252POPC   C1B67951  21.364  35.652   6.284
 5252POPC   C2B67952  21.477  35.556   6.666
 5252POPC   C3B67953  21.567  35.414   7.058
 5252POPC   C4B67954  21.369  35.596   7.419
 5253POPC   NC367955  40.919   7.054   5.484
 5253POPC   PO467956  40.955   7.691   5.257
 5253POPC   GL167957  40.830   7.673   5.732
 5253POPC   GL267958  40.479   7.731   5.862
 5253POPC   C1A67959  40.933   7.706   6.196
 5253POPC   D2A67960  41.020   7.423   6.575
 5253POPC   C3A67961  40.922   7.521   6.973
 5253POPC   C4A67962  40.857   7.286   7.350
 5253POPC   C1B67963  40.571   7.348   6.060
 5253POPC   C2B67964  40.526   7.345   6.494
 5253POPC   C3B67965  40.428   7.489   6.886
 5253POPC   C4B67966  40.383   7.371   7.277
 5254POPC   NC367967  14.923   0.637   5.339
 5254POPC   PO467968  15.560   0.325   5.430
 5254POPC   GL167969  15.463   0.387   5.835
 5254POPC   GL267970  15.131   0.462   5.794
 5254POPC   C1A67971  15.404   0.307   6.273
 5254POPC   D2A67972  15.149   0.045   6.569
 5254POPC   C3A67973  15.137   0.201   7.009
 5254POPC   C4A67974  14.797   0.417   7.226
 5254POPC   C1B67975  15.090   0.739   6.138
 5254POPC   C2B67976  15.049   0.570   6.547
 5254POPC   C3B67977  15.115   0.704   6.925
 5254POPC   C4B67978  15.347   0.628   7.262
 5255POPC   NC367979   2.431   5.076   5.470
 5255POPC   PO467980   2.830   5.425   5.176
 5255POPC   GL167981   2.753   5.425   5.677
 5255POPC   GL267982   2.804   5.103   5.847
 5255POPC   C1A67983   2.496   5.395   6.123
 5255POPC   D2A67984   2.568   5.519   6.588
 5255POPC   C3A67985   2.552   5.345   7.041
 5255POPC   C4A67986   2.365   5.331   7.486
 5255POPC   C1B67987   2.989   5.364   6.213
 5255POPC   C2B67988   3.060   5.317   6.669
 5255POPC   C3B67989   3.052   5.471   7.096
 5255POPC   C4B67990   2.875   5.316   7.500
 5256POPC   NC367991  12.036  11.248   5.308
 5256POPC   PO467992  12.199  11.820   5.547
 5256POPC   GL167993  12.198  11.470   5.810
 5256POPC   GL267994  11.943  11.229   5.817
 5256POPC   C1A67995  11.969  11.576   6.194
 5256POPC   D2A67996  12.164  11.554   6.577
 5256POPC   C3A67997  11.898  11.534   6.898
 5256POPC   C4A67998  12.090  11.607   7.253
 5256POPC   C1B67999  12.137  11.103   6.218
 5256POPC   C2B68000  12.002  11.084   6.641
 5256POPC   C3B68001  12.245  11.185   7.013
 5256POPC   C4B68002  12.294  11.089   7.472
 5257POPC   NC368003  38.551  25.558   5.389
 5257POPC   PO468004  38.428  25.036   5.108
 5257POPC   GL168005  38.378  25.108   5.581
 5257POPC   GL268006  38.230  25.400   5.757
 5257POPC   C1A68007  38.580  25.183   6.030
 5257POPC   D2A68008  38.425  25.104   6.461
 5257POPC   C3A68009  38.583  25.265   6.836
 5257POPC   C4A68010  38.486  25.251   7.253
 5257POPC   C1B68011  38.189  25.496   6.198
 5257POPC   C2B68012  38.313  25.665   6.595
 5257POPC   C3B68013  38.187  25.577   7.025
 5257POPC   C4B68014  38.373  25.743   7.421
 5258POPC   NC368015  25.541  35.592   5.387
 5258POPC   PO468016  24.940  35.417   5.487
 5258POPC   GL168017  25.225  35.391   5.833
 5258POPC   GL268018  25.575  35.441   5.851
 5258POPC   C1A68019  25.174  35.327   6.268
 5258POPC   D2A68020  25.134  35.570   6.642
 5258POPC   C3A68021  24.981  35.289   6.941
 5258POPC   C4A68022  25.094  35.161   7.334
 5258POPC   C1B68023  25.562  35.645   6.230
 5258POPC   C2B68024  25.765  35.552   6.612
 5258POPC   C3B68025  25.503  35.404   6.995
 5258POPC   C4B68026  25.483  35.492   7.459
 5259POPC   NC368027  32.835  18.734   5.085
 5259POPC   PO468028  33.341  18.424   5.389
 5259POPC   GL168029  33.271  18.269   5.827
 5259POPC   GL268030  32.932  18.358   5.845
 5259POPC   C1A68031  33.192  18.337   6.271
 5259POPC   D2A68032  32.889  18.307   6.580
 5259POPC   C3A68033  33.104  18.377   6.957
 5259POPC   C4A68034  32.792  18.437   7.259
 5259POPC   C1B68035  32.900  17.955   6.100
 5259POPC   C2B68036  32.872  17.784   6.534
 5259POPC   C3B68037  32.936  17.904   6.973
 5259POPC   C4B68038  33.175  18.033   7.345
 5260POPC   NC368039  25.603  37.148   5.596
 5260POPC   PO468040  26.172  36.796   5.618
 5260POPC   GL168041  25.856  36.848   5.920
 5260POPC   GL268042  25.610  36.605   5.842
 5260POPC   C1A68043  25.774  37.052   6.335
 5260POPC   D2A68044  26.116  37.020   6.607
 5260POPC   C3A68045  26.098  36.932   7.027
 5260POPC   C4A68046  26.311  37.208   7.306
 5260POPC   C1B68047  25.746  36.554   6.298
 5260POPC   C2B68048  25.856  36.578   6.715
 5260POPC   C3B68049  25.623  36.361   7.005
 5260POPC   C4B68050  25.536  36.376   7.468
 5261POPC   NC368051  13.372  25.542   5.585
 5261POPC   PO468052  13.627  24.908   5.427
 5261POPC   GL168053  13.512  25.075   5.799
 5261POPC   GL268054  13.874  25.094   5.853
 5261POPC   C1A68055  13.490  25.096   6.253
 5261POPC   D2A68056  13.259  25.024   6.650
 5261POPC   C3A68057  13.548  25.239   6.932
 5261POPC   C4A68058  13.767  25.211   7.331
 5261POPC   C1B68059  14.059  24.986   6.229
 5261POPC   C2B68060  14.221  25.116   6.637
 5261POPC   C3B68061  14.065  24.919   7.026
 5261POPC   C4B68062  14.152  24.927   7.485
 5262POPC   NC368063  18.309  33.438   5.341
 5262POPC   PO468064  18.418  34.093   5.273
 5262POPC   GL168065  18.366  33.936   5.678
 5262POPC   GL268066  18.188  34.259   5.766
 5262POPC   C1A68067  18.510  33.641   6.016
 5262POPC   D2A68068  18.612  33.581   6.471
 5262POPC   C3A68069  18.457  33.661   6.890
 5262POPC   C4A68070  18.277  33.587   7.305
 5262POPC   C1B68071  18.406  34.142   6.166
 5262POPC   C2B68072  18.590  34.122   6.577
 5262POPC   C3B68073  18.451  34.182   6.982
 5262POPC   C4B68074  18.265  34.250   7.392
 5263POPC   NC368075  14.423  42.209   5.428
 5263POPC   PO468076  14.047  42.640   5.626
 5263POPC   GL168077  14.255  42.345   5.934
 5263POPC   GL268078  14.246  41.987   5.870
 5263POPC   C1A68079  14.209  42.283   6.400
 5263POPC   D2A68080  14.176  42.587   6.739
 5263POPC   C3A68081  14.510  42.453   6.983
 5263POPC   C4A68082  14.497  42.445   7.415
 5263POPC   C1B68083  14.089  41.784   6.268
 5263POPC   C2B68084  14.139  41.867   6.756
 5263POPC   C3B68085  14.367  42.008   7.167
 5263POPC   C4B68086  14.371  41.840   7.636
 5264POPC   NC368087  17.320   5.609   5.355
 5264POPC   PO468088  17.623   6.256   5.428
 5264POPC   GL168089  17.429   5.999   5.783
 5264POPC   GL268090  17.538   5.638   5.836
 5264POPC   C1A68091  17.547   5.973   6.237
 5264POPC   D2A68092  17.553   6.185   6.637
 5264POPC   C3A68093  17.588   5.947   6.994
 5264POPC   C4A68094  17.562   5.816   7.404
 5264POPC   C1B68095  17.321   5.368   6.165
 5264POPC   C2B68096  17.234   5.348   6.608
 5264POPC   C3B68097  17.397   5.460   7.027
 5264POPC   C4B68098  17.841   5.458   7.185
 5265POPC   NC368099   7.603   5.915   5.323
 5265POPC   PO468100   7.055   6.163   5.627
 5265POPC   GL168101   7.363   5.924   5.862
 5265POPC   GL268102   7.706   6.085   5.923
 5265POPC   C1A68103   7.472   5.714   6.259
 5265POPC   D2A68104   7.437   5.489   6.648
 5265POPC   C3A68105   7.383   5.745   7.007
 5265POPC   C4A68106   7.230   5.665   7.405
 5265POPC   C1B68107   7.466   6.254   6.295
 5265POPC   C2B68108   7.277   6.219   6.726
 5265POPC   C3B68109   7.556   6.256   7.106
 5265POPC   C4B68110   7.493   6.086   7.513
 5266POPC   NC368111  21.838  44.121   5.145
 5266POPC   PO468112  21.218  44.025   5.339
 5266POPC   GL168113  21.118  43.878   5.728
 5266POPC   GL268114  21.434  43.906   5.919
 5266POPC   C1A68115  20.976  43.805   6.130
 5266POPC   D2A68116  21.263  43.814   6.443
 5266POPC   C3A68117  21.212  43.773   6.849
 5266POPC   C4A68118  21.150  44.023   7.206
 5266POPC   C1B68119  21.742  43.849   6.269
 5266POPC   C2B68120  21.716  43.906   6.759
 5266POPC   C3B68121  21.786  43.708   7.184
 5266POPC   C4B68122  21.641  43.574   7.656
 5267POPC   NC368123  24.167  40.408   5.481
 5267POPC   PO468124  24.604  39.827   5.656
 5267POPC   GL168125  24.375  40.091   5.887
 5267POPC   GL268126  24.568  40.399   5.824
 5267POPC   C1A68127  24.314  39.884   6.318
 5267POPC   D2A68128  24.527  39.671   6.699
 5267POPC   C3A68129  24.304  39.848   7.055
 5267POPC   C4A68130  24.137  39.883   7.464
 5267POPC   C1B68131  24.699  40.208   6.238
 5267POPC   C2B68132  24.591  40.198   6.675
 5267POPC   C3B68133  24.548  40.338   7.090
 5267POPC   C4B68134  24.612  40.093   7.444
 5268POPC   NC368135   2.888  14.540   5.159
 5268POPC   PO468136   2.366  14.177   5.249
 5268POPC   GL168137   2.465  14.563   5.531
 5268POPC   GL268138   2.812  14.550   5.675
 5268POPC   C1A68139   2.425  14.680   5.982
 5268POPC   D2A68140   2.555  14.592   6.410
 5268POPC   C3A68141   2.460  14.568   6.852
 5268POPC   C4A68142   2.658  14.563   7.258
 5268POPC   C1B68143   3.040  14.559   6.085
 5268POPC   C2B68144   3.051  14.665   6.520
 5268POPC   C3B68145   3.083  14.622   6.960
 5268POPC   C4B68146   3.269  14.708   7.364
 5269POPC   NC368147  28.797  15.704   5.539
 5269POPC   PO468148  29.223  16.168   5.345
 5269POPC   GL168149  29.016  16.130   5.762
 5269POPC   GL268150  29.164  15.828   5.893
 5269POPC   C1A68151  29.048  16.222   6.225
 5269POPC   D2A68152  29.229  16.311   6.642
 5269POPC   C3A68153  29.139  16.158   7.079
 5269POPC   C4A68154  28.916  16.044   7.480
 5269POPC   C1B68155  29.316  15.815   6.340
 5269POPC   C2B68156  28.992  15.847   6.687
 5269POPC   C3B68157  28.939  15.676   7.122
 5269POPC   C4B68158  29.163  15.593   7.537
 5270POPC   NC368159   1.618  10.743   5.622
 5270POPC   PO468160   2.068  10.296   5.356
 5270POPC   GL168161   1.986  10.434   5.776
 5270POPC   GL268162   1.669  10.267   5.825
 5270POPC   C1A68163   2.094  10.646   6.159
 5270POPC   D2A68164   2.164  10.951   6.483
 5270POPC   C3A68165   2.236  10.742   6.843
 5270POPC   C4A68166   2.083  10.636   7.222
 5270POPC   C1B68167   1.874  10.162   6.232
 5270POPC   C2B68168   2.099  10.324   6.558
 5270POPC   C3B68169   2.300  10.217   6.906
 5270POPC   C4B68170   2.013  10.134   7.160
 5271POPC   NC368171  44.577   5.896   5.201
 5271POPC   PO468172  44.167   6.035   5.709
 5271POPC   GL168173  44.602   5.889   5.770
 5271POPC   GL268174  44.544   5.557   5.601
 5271POPC   C1A68175  44.756   5.901   6.227
 5271POPC   D2A68176  44.689   6.103   6.669
 5271POPC   C3A68177  44.684   6.002   7.157
 5271POPC   C4A68178  44.944   5.815   7.520
 5271POPC   C1B68179  44.545   5.454   6.066
 5271POPC   C2B68180  44.389   5.451   6.507
 5271POPC   C3B68181  44.334   5.738   6.862
 5271POPC   C4B68182  44.163   6.071   7.130
 5272POPC   NC368183  36.197  30.526   5.277
 5272POPC   PO468184  36.590  30.138   5.629
 5272POPC   GL168185  36.356  30.504   5.831
 5272POPC   GL268186  35.993  30.549   5.753
 5272POPC   C1A68187  36.417  30.808   6.203
 5272POPC   D2A68188  36.481  31.063   6.606
 5272POPC   C3A68189  36.454  30.763   6.960
 5272POPC   C4A68190  36.248  30.792   7.359
 5272POPC   C1B68191  35.905  30.638   6.184
 5272POPC   C2B68192  36.070  30.719   6.599
 5272POPC   C3B68193  35.896  30.645   6.993
 5272POPC   C4B68194  35.619  30.298   7.037
 5273POPC   NC368195  36.672  34.092   5.371
 5273POPC   PO468196  37.151  33.587   5.404
 5273POPC   GL168197  36.975  33.809   5.795
 5273POPC   GL268198  36.747  34.113   5.874
 5273POPC   C1A68199  36.953  33.632   6.229
 5273POPC   D2A68200  36.732  33.486   6.608
 5273POPC   C3A68201  36.901  33.647   7.003
 5273POPC   C4A68202  37.060  34.072   7.102
 5273POPC   C1B68203  37.071  34.124   6.195
 5273POPC   C2B68204  36.973  33.965   6.609
 5273POPC   C3B68205  36.602  34.078   6.867
 5273POPC   C4B68206  36.540  34.171   7.311
 5274POPC   NC368207  15.473   6.261   5.491
 5274POPC   PO468208  15.170   6.861   5.327
 5274POPC   GL168209  15.197   6.691   5.715
 5274POPC   GL268210  15.536   6.718   5.767
 5274POPC   C1A68211  15.019   6.766   6.135
 5274POPC   D2A68212  15.041   6.533   6.512
 5274POPC   C3A68213  15.113   6.783   6.887
 5274POPC   C4A68214  14.959   6.708   7.285
 5274POPC   C1B68215  15.482   6.548   6.182
 5274POPC   C2B68216  15.522   6.644   6.605
 5274POPC   C3B68217  15.397   6.343   6.892
 5274POPC   C4B68218  15.342   6.395   7.285
 5275POPC   NC368219  34.341  40.954   5.467
 5275POPC   PO468220  34.617  40.348   5.510
 5275POPC   GL168221  34.559  40.692   5.823
 5275POPC   GL268222  34.829  40.865   5.976
 5275POPC   C1A68223  34.401  40.885   6.224
 5275POPC   D2A68224  34.365  40.757   6.651
 5275POPC   C3A68225  34.617  40.918   6.994
 5275POPC   C4A68226  34.371  41.069   7.368
 5275POPC   C1B68227  34.746  40.452   6.211
 5275POPC   C2B68228  34.647  40.332   6.626
 5275POPC   C3B68229  34.861  40.468   6.976
 5275POPC   C4B68230  35.035  40.295   7.319
 5276POPC   NC368231  44.748  30.512   5.424
 5276POPC   PO468232  44.745  31.066   5.561
 5276POPC   GL168233  44.547  30.787   5.898
 5276POPC   GL268234  44.817  30.935   6.073
 5276POPC   C1A68235  44.556  30.659   6.400
 5276POPC   D2A68236  44.890  30.663   6.720
 5276POPC   C3A68237  44.955  30.365   7.054
 5276POPC   C4A68238  44.816  30.321   7.468
 5276POPC   C1B68239  44.443  31.178   6.231
 5276POPC   C2B68240  44.413  31.336   6.666
 5276POPC   C3B68241  44.603  31.045   6.937
 5276POPC   C4B68242  44.537  30.647   7.099
 5277POPC   NC368243  42.453  36.588   5.299
 5277POPC   PO468244  42.365  35.876   5.213
 5277POPC   GL168245  42.363  35.831   5.682
 5277POPC   GL268246  42.581  36.103   5.804
 5277POPC   C1A68247  42.238  35.947   6.139
 5277POPC   D2A68248  42.211  36.305   6.439
 5277POPC   C3A68249  42.114  36.202   6.834
 5277POPC   C4A68250  42.037  36.113   7.244
 5277POPC   C1B68251  42.613  36.414   6.148
 5277POPC   C2B68252  42.699  36.474   6.618
 5277POPC   C3B68253  42.511  36.472   7.048
 5277POPC   C4B68254  42.680  36.290   7.444
 5278POPC   NC368255  33.620  43.324   5.506
 5278POPC   PO468256  33.713  42.655   5.461
 5278POPC   GL168257  33.901  42.944   5.776
 5278POPC   GL268258  34.064  43.300   5.788
 5278POPC   C1A68259  33.654  42.952   6.169
 5278POPC   D2A68260  33.651  42.721   6.550
 5278POPC   C3A68261  33.673  42.894   6.968
 5278POPC   C4A68262  34.000  42.893   7.289
 5278POPC   C1B68263  34.059  43.232   6.239
 5278POPC   C2B68264  33.793  43.246   6.608
 5278POPC   C3B68265  33.858  43.360   7.057
 5278POPC   C4B68266  34.279  43.347   7.242
 5279POPC   NC368267  39.654  30.074   5.084
 5279POPC   PO468268  39.124  29.731   5.388
 5279POPC   GL168269  39.326  29.872   5.743
 5279POPC   GL268270  39.130  30.171   5.700
 5279POPC   C1A68271  39.249  29.771   6.168
 5279POPC   D2A68272  38.951  29.872   6.486
 5279POPC   C3A68273  39.091  30.080   6.855
 5279POPC   C4A68274  38.901  30.210   7.225
 5279POPC   C1B68275  39.076  30.246   6.142
 5279POPC   C2B68276  39.413  30.196   6.458
 5279POPC   C3B68277  39.634  30.066   6.816
 5279POPC   C4B68278  39.481  30.000   7.222
 5280POPC   NC368279   9.408  11.222   5.535
 5280POPC   PO468280  10.023  11.435   5.582
 5280POPC   GL168281   9.807  11.159   5.860
 5280POPC   GL268282  10.108  11.107   5.990
 5280POPC   C1A68283   9.611  11.252   6.268
 5280POPC   D2A68284   9.738  11.494   6.650
 5280POPC   C3A68285   9.583  11.523   7.088
 5280POPC   C4A68286   9.695  11.535   7.552
 5280POPC   C1B68287  10.121  11.311   6.361
 5280POPC   C2B68288  10.047  11.091   6.754
 5280POPC   C3B68289  10.014  11.224   7.192
 5280POPC   C4B68290  10.148  11.341   7.632
 5281POPC   NC368291  17.754  42.301   5.463
 5281POPC   PO468292  17.142  42.587   5.478
 5281POPC   GL168293  17.434  42.505   5.802
 5281POPC   GL268294  17.731  42.741   5.786
 5281POPC   C1A68295  17.550  42.206   6.120
 5281POPC   D2A68296  17.372  42.196   6.517
 5281POPC   C3A68297  17.633  42.145   6.878
 5281POPC   C4A68298  17.439  42.425   7.153
 5281POPC   C1B68299  17.619  42.701   6.235
 5281POPC   C2B68300  17.832  42.520   6.591
 5281POPC   C3B68301  17.897  42.625   7.061
 5281POPC   C4B68302  17.649  42.751   7.472
 5282POPC   NC368303  42.816  42.295   5.317
 5282POPC   PO468304  43.511  42.291   5.330
 5282POPC   GL168305  43.375  42.306   5.757
 5282POPC   GL268306  43.071  42.469   5.746
 5282POPC   C1A68307  43.209  42.189   6.169
 5282POPC   D2A68308  43.357  42.146   6.582
 5282POPC   C3A68309  43.318  42.466   6.875
 5282POPC   C4A68310  43.351  42.268   7.264
 5282POPC   C1B68311  42.853  42.555   6.163
 5282POPC   C2B68312  42.891  42.356   6.576
 5282POPC   C3B68313  42.874  42.232   7.000
 5282POPC   C4B68314  42.554  42.234   7.332
 5283POPC   NC368315  16.831  17.053   5.435
 5283POPC   PO468316  16.744  17.597   5.262
 5283POPC   GL168317  16.649  17.578   5.702
 5283POPC   GL268318  16.561  17.879   5.855
 5283POPC   C1A68319  16.706  17.455   6.152
 5283POPC   D2A68320  17.012  17.348   6.493
 5283POPC   C3A68321  16.924  17.247   6.947
 5283POPC   C4A68322  17.020  17.408   7.397
 5283POPC   C1B68323  16.760  17.949   6.239
 5283POPC   C2B68324  16.680  17.722   6.633
 5283POPC   C3B68325  16.661  17.655   7.068
 5283POPC   C4B68326  16.536  17.324   7.300
 5284POPC   NC368327  28.932  10.040   5.304
 5284POPC   PO468328  29.038   9.347   5.274
 5284POPC   GL168329  28.983   9.613   5.669
 5284POPC   GL268330  29.298   9.631   5.854
 5284POPC   C1A68331  28.859   9.767   6.098
 5284POPC   D2A68332  28.935   9.928   6.529
 5284POPC   C3A68333  29.090   9.666   6.866
 5284POPC   C4A68334  29.071   9.805   7.306
 5284POPC   C1B68335  29.272   9.589   6.330
 5284POPC   C2B68336  29.505   9.817   6.619
 5284POPC   C3B68337  29.492   9.952   7.042
 5284POPC   C4B68338  29.698   9.733   7.363
 5285POPC   NC368339  28.190  39.636   5.291
 5285POPC   PO468340  28.605  40.160   5.246
 5285POPC   GL168341  28.534  39.916   5.659
 5285POPC   GL268342  28.233  39.989   5.904
 5285POPC   C1A68343  28.643  39.753   6.094
 5285POPC   D2A68344  28.436  39.893   6.487
 5285POPC   C3A68345  28.267  39.634   6.815
 5285POPC   C4A68346  28.537  39.596   7.161
 5285POPC   C1B68347  28.047  40.187   6.314
 5285POPC   C2B68348  28.097  40.175   6.797
 5285POPC   C3B68349  28.350  40.092   7.188
 5285POPC   C4B68350  28.317  40.290   7.615
 5286POPC   NC368351  25.502  38.030   5.601
 5286POPC   PO468352  24.995  37.764   5.340
 5286POPC   GL168353  25.189  37.595   5.728
 5286POPC   GL268354  24.933  37.720   5.919
 5286POPC   C1A68355  25.346  37.507   6.179
 5286POPC   D2A68356  25.150  37.615   6.592
 5286POPC   C3A68357  25.346  37.520   6.997
 5286POPC   C4A68358  25.253  37.175   7.251
 5286POPC   C1B68359  25.163  37.996   6.175
 5286POPC   C2B68360  25.343  38.072   6.557
 5286POPC   C3B68361  25.207  38.026   6.956
 5286POPC   C4B68362  25.436  38.121   7.314
 5287POPC   NC368363  41.864  30.156   5.504
 5287POPC   PO468364  41.509  29.616   5.267
 5287POPC   GL168365  41.525  29.745   5.696
 5287POPC   GL268366  41.352  30.062   5.737
 5287POPC   C1A68367  41.852  29.679   6.001
 5287POPC   D2A68368  41.959  29.893   6.360
 5287POPC   C3A68369  41.883  29.707   6.736
 5287POPC   C4A68370  42.009  29.897   7.082
 5287POPC   C1B68371  41.500  30.006   6.174
 5287POPC   C2B68372  41.453  29.962   6.640
 5287POPC   C3B68373  41.480  29.883   7.109
 5287POPC   C4B68374  41.117  29.749   7.346
 5288POPC   NC368375  26.251  33.110   5.537
 5288POPC   PO468376  25.675  32.828   5.403
 5288POPC   GL168377  25.889  32.862   5.810
 5288POPC   GL268378  25.850  33.207   5.946
 5288POPC   C1A68379  26.147  32.881   6.213
 5288POPC   D2A68380  26.139  33.179   6.584
 5288POPC   C3A68381  26.267  33.099   7.015
 5288POPC   C4A68382  26.120  32.701   7.147
 5288POPC   C1B68383  25.691  33.317   6.366
 5288POPC   C2B68384  25.644  33.215   6.805
 5288POPC   C3B68385  25.770  33.084   7.219
 5288POPC   C4B68386  25.624  33.077   7.655
 5289POPC   NC368387  14.755  14.934   5.352
 5289POPC   PO468388  14.256  15.363   5.361
 5289POPC   GL168389  14.218  15.288   5.770
 5289POPC   GL268390  14.545  15.152   5.771
 5289POPC   C1A68391  14.113  15.247   6.184
 5289POPC   D2A68392  14.353  15.146   6.515
 5289POPC   C3A68393  14.183  15.212   6.879
 5289POPC   C4A68394  14.365  15.290   7.236
 5289POPC   C1B68395  14.717  15.086   6.152
 5289POPC   C2B68396  14.725  14.796   6.490
 5289POPC   C3B68397  14.547  14.724   6.905
 5289POPC   C4B68398  14.686  14.887   7.301
 5290POPC   NC368399   2.960  42.200   5.069
 5290POPC   PO468400   3.056  42.867   5.327
 5290POPC   GL168401   2.807  42.616   5.726
 5290POPC   GL268402   2.488  42.611   5.841
 5290POPC   C1A68403   2.814  42.302   6.152
 5290POPC   D2A68404   2.977  42.158   6.594
 5290POPC   C3A68405   2.793  42.083   7.005
 5290POPC   C4A68406   2.381  41.955   6.955
 5290POPC   C1B68407   2.725  42.796   6.194
 5290POPC   C2B68408   2.598  42.818   6.624
 5290POPC   C3B68409   2.604  42.558   6.985
 5290POPC   C4B68410   2.623  42.714   7.402
 5291POPC   NC368411   7.666  30.039   5.619
 5291POPC   PO468412   6.999  30.167   5.600
 5291POPC   GL168413   7.127  30.033   5.982
 5291POPC   GL268414   7.328  29.756   5.959
 5291POPC   C1A68415   7.207  29.932   6.421
 5291POPC   D2A68416   7.235  30.181   6.773
 5291POPC   C3A68417   7.136  30.003   7.189
 5291POPC   C4A68418   7.372  30.087   7.568
 5291POPC   C1B68419   7.710  29.843   6.215
 5291POPC   C2B68420   7.717  30.024   6.611
 5291POPC   C3B68421   7.531  29.795   6.939
 5291POPC   C4B68422   7.647  29.695   7.338
 5292POPC   NC368423  15.972  38.246   5.367
 5292POPC   PO468424  16.364  38.816   5.316
 5292POPC   GL168425  16.139  38.633   5.654
 5292POPC   GL268426  15.792  38.707   5.677
 5292POPC   C1A68427  16.081  38.360   6.034
 5292POPC   D2A68428  16.195  38.133   6.438
 5292POPC   C3A68429  15.957  38.272   6.789
 5292POPC   C4A68430  16.083  38.463   7.141
 5292POPC   C1B68431  15.683  38.687   6.129
 5292POPC   C2B68432  15.561  38.504   6.530
 5292POPC   C3B68433  15.452  38.281   6.888
 5292POPC   C4B68434  15.540  38.514   7.202
 5293POPC   NC368435  13.873  19.374   5.642
 5293POPC   PO468436  13.605  19.881   5.262
 5293POPC   GL168437  13.562  19.996   5.728
 5293POPC   GL268438  13.480  19.674   5.863
 5293POPC   C1A68439  13.763  19.952   6.185
 5293POPC   D2A68440  13.595  19.809   6.604
 5293POPC   C3A68441  13.623  19.977   6.991
 5293POPC   C4A68442  13.940  19.914   7.220
 5293POPC   C1B68443  13.538  19.467   6.248
 5293POPC   C2B68444  13.275  19.416   6.625
 5293POPC   C3B68445  13.326  19.571   7.032
 5293POPC   C4B68446  13.585  19.586   7.391
 5294POPC   NC368447   0.530  44.351   5.720
 5294POPC   PO468448   0.324  44.925   5.409
 5294POPC   GL168449   0.399  44.810   5.867
 5294POPC   GL268450   0.680  44.875   5.859
 5294POPC   C1A68451   0.393  44.532   6.306
 5294POPC   D2A68452   0.207  44.423   6.747
 5294POPC   C3A68453   0.315  44.710   7.109
 5294POPC   C4A68454   0.225  44.709   7.558
 5294POPC   C1B68455   0.716  44.910   6.300
 5294POPC   C2B68456   0.707  44.659   6.717
 5294POPC   C3B68457   0.768  44.521   7.176
 5294POPC   C4B68458   0.739  44.854   7.473
 5295POPC   NC368459  11.893  38.846   5.485
 5295POPC   PO468460  11.786  39.563   5.432
 5295POPC   GL168461  12.045  39.401   5.860
 5295POPC   GL268462  12.092  39.026   5.928
 5295POPC   C1A68463  12.163  39.345   6.335
 5295POPC   D2A68464  12.355  39.186   6.743
 5295POPC   C3A68465  12.269  39.453   7.056
 5295POPC   C4A68466  11.824  39.501   7.141
 5295POPC   C1B68467  11.858  38.921   6.319
 5295POPC   C2B68468  11.845  39.129   6.728
 5295POPC   C3B68469  12.011  39.016   7.124
 5295POPC   C4B68470  12.330  38.746   7.231
 5296POPC   NC368471  33.863  41.829   5.382
 5296POPC   PO468472  33.902  41.075   5.424
 5296POPC   GL168473  33.898  41.436   5.759
 5296POPC   GL268474  33.574  41.424   5.999
 5296POPC   C1A68475  33.954  41.707   6.159
 5296POPC   D2A68476  33.628  41.733   6.495
 5296POPC   C3A68477  33.692  41.610   6.952
 5296POPC   C4A68478  33.816  41.864   7.327
 5296POPC   C1B68479  33.928  41.203   6.212
 5296POPC   C2B68480  34.084  41.352   6.583
 5296POPC   C3B68481  34.163  41.149   6.907
 5296POPC   C4B68482  33.893  41.187   7.206
 5297POPC   NC368483  33.466  23.764   5.398
 5297POPC   PO468484  34.097  23.998   5.375
 5297POPC   GL168485  34.073  23.909   5.806
 5297POPC   GL268486  33.849  23.633   5.804
 5297POPC   C1A68487  34.106  23.802   6.239
 5297POPC   D2A68488  33.887  23.498   6.453
 5297POPC   C3A68489  33.913  23.632   6.856
 5297POPC   C4A68490  33.944  23.465   7.217
 5297POPC   C1B68491  33.605  23.895   6.110
 5297POPC   C2B68492  33.563  24.002   6.552
 5297POPC   C3B68493  33.618  24.050   6.991
 5297POPC   C4B68494  33.684  23.883   7.405
 5298POPC   NC368495  13.479  42.538   5.428
 5298POPC   PO468496  13.947  41.988   5.310
 5298POPC   GL168497  13.785  42.211   5.678
 5298POPC   GL268498  13.453  42.116   5.780
 5298POPC   C1A68499  13.775  42.252   6.132
 5298POPC   D2A68500  13.708  42.048   6.512
 5298POPC   C3A68501  13.784  42.267   6.862
 5298POPC   C4A68502  14.027  42.415   7.207
 5298POPC   C1B68503  13.252  42.209   6.185
 5298POPC   C2B68504  13.279  42.341   6.596
 5298POPC   C3B68505  13.169  42.246   7.007
 5298POPC   C4B68506  13.514  42.258   7.283
 5299POPC   NC368507  36.662  16.016   5.351
 5299POPC   PO468508  37.289  15.856   5.337
 5299POPC   GL168509  37.012  15.902   5.747
 5299POPC   GL268510  36.635  15.854   5.837
 5299POPC   C1A68511  37.006  16.061   6.192
 5299POPC   D2A68512  36.933  15.868   6.610
 5299POPC   C3A68513  37.129  15.978   7.016
 5299POPC   C4A68514  37.125  16.062   7.464
 5299POPC   C1B68515  36.762  15.572   6.191
 5299POPC   C2B68516  36.788  15.339   6.595
 5299POPC   C3B68517  36.795  15.544   7.013
 5299POPC   C4B68518  36.656  15.864   7.309
 5300POPC   NC368519   9.085  29.460   5.349
 5300POPC   PO468520   8.684  28.951   5.447
 5300POPC   GL168521   8.864  29.179   5.772
 5300POPC   GL268522   8.799  28.863   5.957
 5300POPC   C1A68523   9.137  29.238   6.136
 5300POPC   D2A68524   9.310  29.234   6.561
 5300POPC   C3A68525   9.119  29.185   6.958
 5300POPC   C4A68526   8.903  29.413   7.265
 5300POPC   C1B68527   8.878  28.863   6.395
 5300POPC   C2B68528   8.654  28.761   6.766
 5300POPC   C3B68529   8.690  28.979   7.155
 5300POPC   C4B68530   9.036  28.954   7.492
 5301POPC   NC368531   4.632  20.564   5.284
 5301POPC   PO468532   4.047  21.130   5.437
 5301POPC   GL168533   4.188  20.904   5.815
 5301POPC   GL268534   4.457  20.666   5.793
 5301POPC   C1A68535   4.063  20.626   6.135
 5301POPC   D2A68536   4.182  20.632   6.543
 5301POPC   C3A68537   3.926  20.575   6.900
 5301POPC   C4A68538   3.980  20.466   7.326
 5301POPC   C1B68539   4.545  20.443   6.139
 5301POPC   C2B68540   4.591  20.339   6.556
 5301POPC   C3B68541   4.444  20.488   6.986
 5301POPC   C4B68542   4.736  20.756   7.232
 5302POPC   NC368543   9.315  24.768   5.564
 5302POPC   PO468544   9.981  24.418   5.493
 5302POPC   GL168545   9.666  24.463   5.815
 5302POPC   GL268546   9.525  24.152   5.928
 5302POPC   C1A68547   9.663  24.550   6.237
 5302POPC   D2A68548   9.938  24.510   6.561
 5302POPC   C3A68549   9.800  24.653   6.956
 5302POPC   C4A68550  10.010  24.581   7.300
 5302POPC   C1B68551   9.382  24.137   6.338
 5302POPC   C2B68552   9.454  24.313   6.715
 5302POPC   C3B68553   9.468  24.244   7.143
 5302POPC   C4B68554   9.574  24.458   7.509
 5303POPC   NC368555  11.311  26.292   5.443
 5303POPC   PO468556  11.217  25.665   5.256
 5303POPC   GL168557  11.506  25.884   5.668
 5303POPC   GL268558  11.240  26.062   5.907
 5303POPC   C1A68559  11.669  26.034   6.135
 5303POPC   D2A68560  11.370  26.000   6.522
 5303POPC   C3A68561  11.347  25.908   6.983
 5303POPC   C4A68562  11.285  25.655   7.381
 5303POPC   C1B68563  11.065  26.309   6.264
 5303POPC   C2B68564  10.946  26.570   6.605
 5303POPC   C3B68565  11.083  26.394   7.002
 5303POPC   C4B68566  11.096  26.498   7.425
 5304POPC   NC368567  41.720  44.348   5.380
 5304POPC   PO468568  42.054   0.002   5.445
 5304POPC   GL168569  41.737  44.862   5.757
 5304POPC   GL268570  41.643  44.523   5.839
 5304POPC   C1A68571  41.447  44.882   6.139
 5304POPC   D2A68572  41.322  44.709   6.554
 5304POPC   C3A68573  41.474  44.887   6.957
 5304POPC   C4A68574  41.225  44.879   7.303
 5304POPC   C1B68575  41.458  44.359   6.186
 5304POPC   C2B68576  41.532  44.203   6.582
 5304POPC   C3B68577  41.417  44.387   6.952
 5304POPC   C4B68578  41.613  44.471   7.313
 5305POPC   NC368579  18.054  26.538   5.588
 5305POPC   PO468580  18.450  27.082   5.375
 5305POPC   GL168581  18.328  26.969   5.767
 5305POPC   GL268582  18.518  26.694   5.759
 5305POPC   C1A68583  18.237  26.829   6.197
 5305POPC   D2A68584  18.234  26.493   6.511
 5305POPC   C3A68585  18.267  26.789   6.858
 5305POPC   C4A68586  18.317  27.092   7.188
 5305POPC   C1B68587  18.655  26.541   6.159
 5305POPC   C2B68588  18.693  26.696   6.549
 5305POPC   C3B68589  18.687  26.508   6.954
 5305POPC   C4B68590  18.439  26.583   7.283
 5306POPC   NC368591   8.246   9.151   5.417
 5306POPC   PO468592   8.290   8.514   5.471
 5306POPC   GL168593   8.010   8.660   5.801
 5306POPC   GL268594   8.237   8.938   5.898
 5306POPC   C1A68595   7.973   8.734   6.282
 5306POPC   D2A68596   8.253   8.858   6.622
 5306POPC   C3A68597   8.072   9.047   7.001
 5306POPC   C4A68598   7.938   8.838   7.336
 5306POPC   C1B68599   8.323   9.243   6.262
 5306POPC   C2B68600   8.391   9.339   6.721
 5306POPC   C3B68601   8.589   9.023   6.999
 5306POPC   C4B68602   8.691   8.928   7.446
 5307POPC   NC368603  18.440  28.361   5.205
 5307POPC   PO468604  17.968  28.551   5.661
 5307POPC   GL168605  18.305  28.595   5.905
 5307POPC   GL268606  18.503  28.307   5.810
 5307POPC   C1A68607  18.468  28.597   6.304
 5307POPC   D2A68608  18.411  28.377   6.679
 5307POPC   C3A68609  18.341  28.601   7.070
 5307POPC   C4A68610  18.375  28.542   7.540
 5307POPC   C1B68611  18.228  28.137   6.156
 5307POPC   C2B68612  18.163  27.869   6.506
 5307POPC   C3B68613  18.372  27.911   6.885
 5307POPC   C4B68614  18.277  28.092   7.278
 5308POPC   NC368615  42.036  34.067   5.486
 5308POPC   PO468616  42.638  33.671   5.367
 5308POPC   GL168617  42.352  33.692   5.687
 5308POPC   GL268618  42.472  34.019   5.805
 5308POPC   C1A68619  42.300  33.661   6.128
 5308POPC   D2A68620  42.441  33.761   6.530
 5308POPC   C3A68621  42.096  33.708   6.811
 5308POPC   C4A68622  42.254  33.530   7.152
 5308POPC   C1B68623  42.381  34.177   6.225
 5308POPC   C2B68624  42.220  34.192   6.664
 5308POPC   C3B68625  42.368  34.083   7.067
 5308POPC   C4B68626  42.276  34.137   7.527
 5309POPC   NC368627  28.198  23.250   5.615
 5309POPC   PO468628  28.324  22.707   5.368
 5309POPC   GL168629  28.405  22.826   5.819
 5309POPC   GL268630  28.453  23.155   6.030
 5309POPC   C1A68631  28.389  22.714   6.253
 5309POPC   D2A68632  28.497  22.921   6.616
 5309POPC   C3A68633  28.260  22.822   7.016
 5309POPC   C4A68634  28.164  22.889   7.487
 5309POPC   C1B68635  28.044  23.110   6.237
 5309POPC   C2B68636  27.880  23.387   6.563
 5309POPC   C3B68637  27.903  23.190   6.931
 5309POPC   C4B68638  28.244  23.319   7.191
 5310POPC   NC368639  18.089  27.390   5.462
 5310POPC   PO468640  18.447  27.928   5.398
 5310POPC   GL168641  18.295  27.759   5.789
 5310POPC   GL268642  18.509  27.454   5.795
 5310POPC   C1A68643  18.038  27.512   6.122
 5310POPC   D2A68644  17.954  27.295   6.525
 5310POPC   C3A68645  18.004  27.527   6.901
 5310POPC   C4A68646  18.204  27.591   7.246
 5310POPC   C1B68647  18.539  27.584   6.225
 5310POPC   C2B68648  18.449  27.420   6.619
 5310POPC   C3B68649  18.623  27.471   6.996
 5310POPC   C4B68650  18.719  27.797   7.253
 5311POPC   NC368651  11.502  23.613   5.472
 5311POPC   PO468652  10.891  24.007   5.554
 5311POPC   GL168653  11.210  23.811   5.854
 5311POPC   GL268654  11.585  23.900   5.891
 5311POPC   C1A68655  11.337  23.499   6.171
 5311POPC   D2A68656  11.137  23.412   6.545
 5311POPC   C3A68657  11.214  23.677   6.870
 5311POPC   C4A68658  11.002  23.770   7.234
 5311POPC   C1B68659  11.584  23.921   6.355
 5311POPC   C2B68660  11.708  23.804   6.797
 5311POPC   C3B68661  11.645  23.571   7.194
 5311POPC   C4B68662  11.468  23.511   7.613
 5312POPC   NC368663  41.772   1.366   5.359
 5312POPC   PO468664  41.237   1.057   5.474
 5312POPC   GL168665  41.341   1.231   5.848
 5312POPC   GL268666  41.631   1.473   5.845
 5312POPC   C1A68667  41.438   1.114   6.266
 5312POPC   D2A68668  41.610   1.120   6.668
 5312POPC   C3A68669  41.494   0.912   7.052
 5312POPC   C4A68670  41.552   1.121   7.465
 5312POPC   C1B68671  41.376   1.669   6.172
 5312POPC   C2B68672  41.311   1.533   6.609
 5312POPC   C3B68673  41.489   1.458   7.054
 5312POPC   C4B68674  41.293   1.573   7.478
 5313POPC   NC368675  14.495  11.773   5.445
 5313POPC   PO468676  14.526  12.429   5.350
 5313POPC   GL168677  14.371  12.272   5.781
 5313POPC   GL268678  14.498  11.945   5.904
 5313POPC   C1A68679  14.144  12.169   6.212
 5313POPC   D2A68680  14.059  12.287   6.665
 5313POPC   C3A68681  14.041  11.911   6.904
 5313POPC   C4A68682  13.963  11.768   7.299
 5313POPC   C1B68683  14.680  12.099   6.233
 5313POPC   C2B68684  14.500  11.961   6.597
 5313POPC   C3B68685  14.491  12.148   6.981
 5313POPC   C4B68686  14.254  12.442   7.145
 5314POPC   NC368687  36.627  41.320   5.416
 5314POPC   PO468688  36.067  41.663   5.523
 5314POPC   GL168689  36.218  41.358   5.789
 5314POPC   GL268690  36.508  41.570   5.844
 5314POPC   C1A68691  36.130  41.207   6.214
 5314POPC   D2A68692  36.336  41.311   6.591
 5314POPC   C3A68693  36.044  41.419   6.919
 5314POPC   C4A68694  36.018  41.345   7.379
 5314POPC   C1B68695  36.316  41.702   6.212
 5314POPC   C2B68696  36.436  41.881   6.604
 5314POPC   C3B68697  36.415  41.778   7.001
 5314POPC   C4B68698  36.002  41.863   7.141
 5315POPC   NC368699  10.266  15.412   5.086
 5315POPC   PO468700  10.735  15.186   5.507
 5315POPC   GL168701  10.510  15.372   5.826
 5315POPC   GL268702  10.431  15.041   5.924
 5315POPC   C1A68703  10.594  15.420   6.268
 5315POPC   D2A68704  10.470  15.204   6.632
 5315POPC   C3A68705  10.358  15.359   7.004
 5315POPC   C4A68706  10.624  15.474   7.310
 5315POPC   C1B68707  10.505  14.829   6.289
 5315POPC   C2B68708  10.715  14.765   6.670
 5315POPC   C3B68709  10.719  14.972   7.069
 5315POPC   C4B68710  10.442  14.968   7.405
 5316POPC   NC368711   8.170   4.617   5.377
 5316POPC   PO468712   7.799   4.057   5.221
 5316POPC   GL168713   7.910   4.268   5.692
 5316POPC   GL268714   7.963   4.659   5.839
 5316POPC   C1A68715   8.171   4.305   6.117
 5316POPC   D2A68716   8.068   4.600   6.480
 5316POPC   C3A68717   8.082   4.451   6.909
 5316POPC   C4A68718   8.284   4.298   7.281
 5316POPC   C1B68719   8.334   4.788   6.088
 5316POPC   C2B68720   8.518   4.863   6.508
 5316POPC   C3B68721   8.254   4.938   6.875
 5316POPC   C4B68722   8.075   4.842   7.262
 5317POPC   NC368723   9.234   9.036   5.312
 5317POPC   PO468724   8.661   9.327   5.556
 5317POPC   GL168725   9.068   9.210   5.767
 5317POPC   GL268726   9.149   8.851   5.799
 5317POPC   C1A68727   9.152   9.181   6.209
 5317POPC   D2A68728   8.819   9.158   6.494
 5317POPC   C3A68729   8.971   9.330   6.838
 5317POPC   C4A68730   9.057   9.148   7.193
 5317POPC   C1B68731   9.141   8.685   6.268
 5317POPC   C2B68732   9.179   8.848   6.711
 5317POPC   C3B68733   8.984   8.671   7.068
 5317POPC   C4B68734   8.953   8.370   7.353
 5318POPC   NC368735  31.080  34.531   5.377
 5318POPC   PO468736  31.711  34.362   5.638
 5318POPC   GL168737  31.664  34.716   5.869
 5318POPC   GL268738  31.323  34.777   5.775
 5318POPC   C1A68739  31.620  34.688   6.311
 5318POPC   D2A68740  31.725  34.694   6.725
 5318POPC   C3A68741  31.713  34.379   7.049
 5318POPC   C4A68742  31.586  34.721   7.275
 5318POPC   C1B68743  31.155  34.592   6.116
 5318POPC   C2B68744  31.076  34.624   6.544
 5318POPC   C3B68745  31.205  34.747   6.941
 5318POPC   C4B68746  31.203  34.408   7.210
 5319POPC   NC368747   6.216  11.554   5.458
 5319POPC   PO468748   6.840  11.287   5.544
 5319POPC   GL168749   6.612  11.389   5.928
 5319POPC   GL268750   6.290  11.592   5.964
 5319POPC   C1A68751   6.750  11.200   6.325
 5319POPC   D2A68752   6.987  11.037   6.671
 5319POPC   C3A68753   6.944  11.302   7.025
 5319POPC   C4A68754   6.823  11.220   7.427
 5319POPC   C1B68755   6.212  11.234   6.238
 5319POPC   C2B68756   6.332  11.118   6.662
 5319POPC   C3B68757   6.393  11.409   7.008
 5319POPC   C4B68758   6.345  11.367   7.456
 5320POPC   NC368759  37.430  26.652   5.370
 5320POPC   PO468760  36.742  26.814   5.384
 5320POPC   GL168761  36.774  26.933   5.785
 5320POPC   GL268762  37.142  26.979   5.731
 5320POPC   C1A68763  36.798  27.103   6.212
 5320POPC   D2A68764  36.955  26.891   6.588
 5320POPC   C3A68765  36.760  26.794   6.963
 5320POPC   C4A68766  36.655  26.990   7.356
 5320POPC   C1B68767  37.251  26.873   6.148
 5320POPC   C2B68768  37.331  26.574   6.464
 5320POPC   C3B68769  37.286  26.615   6.905
 5320POPC   C4B68770  37.151  26.831   7.274
 5321POPC   NC368771  39.338  35.799   5.411
 5321POPC   PO468772  39.290  35.108   5.341
 5321POPC   GL168773  39.205  35.183   5.810
 5321POPC   GL268774  39.289  35.502   5.815
 5321POPC   C1A68775  39.069  35.422   6.255
 5321POPC   D2A68776  38.897  35.627   6.656
 5321POPC   C3A68777  38.968  35.402   7.046
 5321POPC   C4A68778  39.242  35.083   7.188
 5321POPC   C1B68779  39.554  35.601   6.178
 5321POPC   C2B68780  39.430  35.658   6.598
 5321POPC   C3B68781  39.599  35.692   6.991
 5321POPC   C4B68782  39.514  35.473   7.345
 5322POPC   NC368783  34.042   6.600   5.456
 5322POPC   PO468784  34.643   6.610   5.462
 5322POPC   GL168785  34.536   6.714   5.893
 5322POPC   GL268786  34.194   6.812   5.938
 5322POPC   C1A68787  34.711   6.866   6.262
 5322POPC   D2A68788  34.783   6.610   6.619
 5322POPC   C3A68789  34.614   6.793   6.946
 5322POPC   C4A68790  34.312   6.794   7.237
 5322POPC   C1B68791  34.223   6.633   6.349
 5322POPC   C2B68792  34.246   6.472   6.779
 5322POPC   C3B68793  34.476   6.303   7.135
 5322POPC   C4B68794  34.373   6.044   7.517
 5323POPC   NC368795  26.648  27.711   5.117
 5323POPC   PO468796  27.176  27.499   5.533
 5323POPC   GL168797  26.971  27.671   5.872
 5323POPC   GL268798  26.598  27.776   5.884
 5323POPC   C1A68799  27.010  27.761   6.296
 5323POPC   D2A68800  26.720  27.825   6.615
 5323POPC   C3A68801  26.834  27.569   6.965
 5323POPC   C4A68802  27.000  27.727   7.339
 5323POPC   C1B68803  26.304  27.893   6.257
 5323POPC   C2B68804  26.256  28.054   6.703
 5323POPC   C3B68805  26.567  28.027   7.060
 5323POPC   C4B68806  26.503  27.662   7.352
 5324POPC   NC368807  42.565   0.909   5.420
 5324POPC   PO468808  42.216   1.514   5.270
 5324POPC   GL168809  42.169   1.489   5.756
 5324POPC   GL268810  42.549   1.491   5.789
 5324POPC   C1A68811  41.983   1.263   6.180
 5324POPC   D2A68812  42.108   1.033   6.605
 5324POPC   C3A68813  41.944   1.163   7.057
 5324POPC   C4A68814  42.100   1.166   7.495
 5324POPC   C1B68815  42.492   1.260   6.181
 5324POPC   C2B68816  42.430   1.423   6.609
 5324POPC   C3B68817  42.407   1.348   7.058
 5324POPC   C4B68818  42.154   1.641   7.276
 5325POPC   NC368819  34.759  10.716   5.391
 5325POPC   PO468820  34.730  10.064   5.189
 5325POPC   GL168821  34.838  10.232   5.692
 5325POPC   GL268822  34.700  10.581   5.861
 5325POPC   C1A68823  34.702  10.216   6.190
 5325POPC   D2A68824  34.428  10.265   6.556
 5325POPC   C3A68825  34.590  10.213   6.949
 5325POPC   C4A68826  34.811  10.451   7.217
 5325POPC   C1B68827  34.867  10.736   6.263
 5325POPC   C2B68828  35.027  10.722   6.706
 5325POPC   C3B68829  34.920  10.917   7.082
 5325POPC   C4B68830  34.779  10.880   7.493
 5326POPC   NC368831  22.328  39.658   5.421
 5326POPC   PO468832  22.234  40.339   5.242
 5326POPC   GL168833  22.192  40.125   5.662
 5326POPC   GL268834  21.930  39.850   5.746
 5326POPC   C1A68835  22.352  39.940   6.048
 5326POPC   D2A68836  22.260  40.093   6.438
 5326POPC   C3A68837  22.293  39.941   6.857
 5326POPC   C4A68838  22.184  40.164   7.229
 5326POPC   C1B68839  21.946  39.639   6.163
 5326POPC   C2B68840  21.866  39.747   6.605
 5326POPC   C3B68841  21.843  39.770   7.057
 5326POPC   C4B68842  22.024  39.719   7.466
 5327POPC   NC368843  42.053  20.503   5.509
 5327POPC   PO468844  42.653  20.683   5.563
 5327POPC   GL168845  42.379  20.610   5.894
 5327POPC   GL268846  42.230  20.928   5.915
 5327POPC   C1A68847  42.375  20.661   6.332
 5327POPC   D2A68848  42.356  20.398   6.655
 5327POPC   C3A68849  42.542  20.542   7.000
 5327POPC   C4A68850  42.231  20.314   7.196
 5327POPC   C1B68851  41.961  20.981   6.290
 5327POPC   C2B68852  42.104  20.939   6.722
 5327POPC   C3B68853  42.163  20.822   7.159
 5327POPC   C4B68854  41.978  20.866   7.576
 5328POPC   NC368855  24.265  21.986   5.489
 5328POPC   PO468856  24.884  22.026   5.721
 5328POPC   GL168857  24.536  22.211   5.891
 5328POPC   GL268858  24.681  22.527   5.914
 5328POPC   C1A68859  24.316  22.338   6.279
 5328POPC   D2A68860  24.215  22.510   6.698
 5328POPC   C3A68861  24.281  22.204   7.009
 5328POPC   C4A68862  24.309  21.801   7.183
 5328POPC   C1B68863  24.836  22.350   6.304
 5328POPC   C2B68864  24.684  22.161   6.663
 5328POPC   C3B68865  24.762  22.045   7.072
 5328POPC   C4B68866  24.882  22.329   7.387
 5329POPC   NC368867   1.602  21.661   5.527
 5329POPC   PO468868   1.210  21.077   5.321
 5329POPC   GL168869   1.406  21.229   5.706
 5329POPC   GL268870   1.110  21.323   5.870
 5329POPC   C1A68871   1.519  21.381   6.152
 5329POPC   D2A68872   1.382  21.314   6.571
 5329POPC   C3A68873   1.411  21.480   7.022
 5329POPC   C4A68874   1.352  21.206   7.407
 5329POPC   C1B68875   0.906  21.433   6.276
 5329POPC   C2B68876   0.967  21.549   6.742
 5329POPC   C3B68877   0.934  21.429   7.189
 5329POPC   C4B68878   0.707  21.678   7.524
 5330POPC   NC368879  10.470   0.960   5.435
 5330POPC   PO468880  10.600   1.540   5.267
 5330POPC   GL168881  10.412   1.383   5.717
 5330POPC   GL268882  10.702   1.291   5.916
 5330POPC   C1A68883  10.251   1.248   6.144
 5330POPC   D2A68884  10.485   1.448   6.491
 5330POPC   C3A68885  10.448   1.266   6.875
 5330POPC   C4A68886  10.251   1.220   7.253
 5330POPC   C1B68887  10.689   0.997   6.306
 5330POPC   C2B68888  10.790   0.924   6.756
 5330POPC   C3B68889  10.720   1.019   7.233
 5330POPC   C4B68890  10.811   1.108   7.696
 5331POPC   NC368891  42.597  22.841   5.484
 5331POPC   PO468892  41.978  22.858   5.202
 5331POPC   GL168893  42.161  22.748   5.726
 5331POPC   GL268894  42.357  23.086   5.844
 5331POPC   C1A68895  42.231  22.758   6.239
 5331POPC   D2A68896  42.234  22.563   6.711
 5331POPC   C3A68897  42.192  22.862   7.128
 5331POPC   C4A68898  42.210  22.725   7.598
 5331POPC   C1B68899  42.453  23.294   6.210
 5331POPC   C2B68900  42.399  23.137   6.622
 5331POPC   C3B68901  42.543  23.266   7.018
 5331POPC   C4B68902  42.630  23.276   7.465
 5332POPC   NC368903   9.640   8.459   5.560
 5332POPC   PO468904   9.640   9.072   5.536
 5332POPC   GL168905   9.651   8.883   5.911
 5332POPC   GL268906   9.795   9.198   6.036
 5332POPC   C1A68907   9.569   8.925   6.377
 5332POPC   D2A68908   9.576   9.302   6.569
 5332POPC   C3A68909   9.493   9.252   6.968
 5332POPC   C4A68910   9.466   8.842   7.167
 5332POPC   C1B68911  10.019   8.777   6.230
 5332POPC   C2B68912  10.044   8.625   6.677
 5332POPC   C3B68913   9.963   8.767   7.113
 5332POPC   C4B68914   9.878   9.184   7.310
 5333POPC   NC368915  15.933  38.717   5.135
 5333POPC   PO468916  15.597  39.132   5.485
 5333POPC   GL168917  15.838  39.222   5.885
 5333POPC   GL268918  16.090  39.012   5.968
 5333POPC   C1A68919  15.837  39.119   6.370
 5333POPC   D2A68920  15.787  39.303   6.763
 5333POPC   C3A68921  16.055  39.379   7.087
 5333POPC   C4A68922  15.809  39.368   7.437
 5333POPC   C1B68923  16.392  38.752   6.201
 5333POPC   C2B68924  16.284  38.635   6.613
 5333POPC   C3B68925  15.895  38.805   6.823
 5333POPC   C4B68926  15.873  38.899   7.276
 5334POPC   NC368927  26.335  13.252   5.318
 5334POPC   PO468928  26.020  12.675   5.451
 5334POPC   GL168929  26.067  12.983   5.793
 5334POPC   GL268930  26.232  12.718   5.978
 5334POPC   C1A68931  26.163  13.165   6.231
 5334POPC   D2A68932  26.363  12.882   6.564
 5334POPC   C3A68933  26.233  12.818   7.000
 5334POPC   C4A68934  26.045  13.183   7.163
 5334POPC   C1B68935  25.873  12.756   6.299
 5334POPC   C2B68936  25.789  12.763   6.765
 5334POPC   C3B68937  25.758  12.726   7.242
 5334POPC   C4B68938  25.843  12.496   7.641
 5335POPC   NC368939  30.901  31.886   5.273
 5335POPC   PO468940  30.478  31.396   5.538
 5335POPC   GL168941  30.675  31.585   5.886
 5335POPC   GL268942  30.912  31.794   5.769
 5335POPC   C1A68943  30.505  31.799   6.248
 5335POPC   D2A68944  30.243  31.605   6.535
 5335POPC   C3A68945  30.414  31.665   6.927
 5335POPC   C4A68946  30.680  31.477   7.242
 5335POPC   C1B68947  31.004  31.906   6.187
 5335POPC   C2B68948  30.906  31.771   6.631
 5335POPC   C3B68949  30.857  31.919   7.059
 5335POPC   C4B68950  30.962  31.817   7.510
 5336POPC   NC368951  30.079  43.049   5.409
 5336POPC   PO468952  29.446  42.876   5.536
 5336POPC   GL168953  29.710  43.146   5.819
 5336POPC   GL268954  29.491  43.352   5.984
 5336POPC   C1A68955  29.962  43.238   6.238
 5336POPC   D2A68956  30.213  43.312   6.665
 5336POPC   C3A68957  30.137  42.997   7.055
 5336POPC   C4A68958  30.127  42.779   7.524
 5336POPC   C1B68959  29.366  42.960   6.213
 5336POPC   C2B68960  29.470  42.715   6.605
 5336POPC   C3B68961  29.469  42.814   7.061
 5336POPC   C4B68962  29.712  43.073   7.317
 5337POPC   NC368963  25.514  15.628   5.443
 5337POPC   PO468964  24.866  15.583   5.565
 5337POPC   GL168965  25.157  15.860   5.757
 5337POPC   GL268966  25.035  16.200   5.739
 5337POPC   C1A68967  25.354  15.744   6.141
 5337POPC   D2A68968  25.560  15.936   6.482
 5337POPC   C3A68969  25.420  15.748   6.861
 5337POPC   C4A68970  25.360  15.818   7.285
 5337POPC   C1B68971  25.209  16.218   6.163
 5337POPC   C2B68972  25.095  16.148   6.604
 5337POPC   C3B68973  25.240  16.215   6.994
 5337POPC   C4B68974  25.089  16.200   7.433
 5338POPC   NC368975  25.554  20.031   5.420
 5338POPC   PO468976  24.953  19.712   5.339
 5338POPC   GL168977  25.179  19.826   5.704
 5338POPC   GL268978  25.520  19.655   5.762
 5338POPC   C1A68979  25.119  19.922   6.127
 5338POPC   D2A68980  25.040  19.793   6.545
 5338POPC   C3A68981  25.170  19.986   6.946
 5338POPC   C4A68982  25.264  19.850   7.420
 5338POPC   C1B68983  25.645  19.912   6.131
 5338POPC   C2B68984  25.549  19.828   6.577
 5338POPC   C3B68985  25.512  19.643   7.015
 5338POPC   C4B68986  25.652  20.057   7.191
 5339POPC   NC368987  10.690  19.448   5.392
 5339POPC   PO468988  10.359  18.819   5.457
 5339POPC   GL168989  10.359  18.948   5.875
 5339POPC   GL268990  10.615  19.223   5.851
 5339POPC   C1A68991  10.502  18.945   6.308
 5339POPC   D2A68992  10.482  19.238   6.645
 5339POPC   C3A68993  10.260  19.033   7.009
 5339POPC   C4A68994  10.125  18.882   7.410
 5339POPC   C1B68995  10.809  19.363   6.231
 5339POPC   C2B68996  10.992  19.085   6.551
 5339POPC   C3B68997  10.759  18.898   6.891
 5339POPC   C4B68998  10.715  19.328   7.090
 5340POPC   NC368999  33.066  20.412   5.337
 5340POPC   PO469000  33.247  21.024   5.503
 5340POPC   GL169001  33.136  20.654   5.779
 5340POPC   GL269002  32.789  20.471   5.767
 5340POPC   C1A69003  33.272  20.405   6.142
 5340POPC   D2A69004  33.052  20.346   6.558
 5340POPC   C3A69005  33.265  20.546   6.906
 5340POPC   C4A69006  33.365  20.516   7.376
 5340POPC   C1B69007  32.799  20.654   6.172
 5340POPC   C2B69008  32.528  20.827   6.477
 5340POPC   C3B69009  32.768  20.819   6.844
 5340POPC   C4B69010  32.847  20.572   7.192
 5341POPC   NC369011  10.534  13.887   5.378
 5341POPC   PO469012  10.506  13.257   5.334
 5341POPC   GL169013  10.431  13.464   5.702
 5341POPC   GL269014  10.740  13.420   5.839
 5341POPC   C1A69015  10.353  13.652   6.117
 5341POPC   D2A69016  10.327  13.807   6.539
 5341POPC   C3A69017  10.314  13.675   6.981
 5341POPC   C4A69018  10.389  13.871   7.382
 5341POPC   C1B69019  10.872  13.449   6.255
 5341POPC   C2B69020  10.700  13.456   6.667
 5341POPC   C3B69021  10.781  13.392   7.106
 5341POPC   C4B69022  10.628  13.435   7.528
 5342POPC   NC369023   9.267  19.457   5.458
 5342POPC   PO469024   8.844  18.924   5.304
 5342POPC   GL169025   8.838  18.888   5.779
 5342POPC   GL269026   8.989  19.196   5.819
 5342POPC   C1A69027   8.957  18.929   6.278
 5342POPC   D2A69028   9.156  18.758   6.693
 5342POPC   C3A69029   8.922  18.833   7.058
 5342POPC   C4A69030   8.695  19.207   7.181
 5342POPC   C1B69031   9.265  19.381   6.118
 5342POPC   C2B69032   9.167  19.383   6.537
 5342POPC   C3B69033   9.343  19.203   6.896
 5342POPC   C4B69034   9.227  19.180   7.309
 5343POPC   NC369035  36.726  27.315   5.363
 5343POPC   PO469036  37.189  27.835   5.324
 5343POPC   GL169037  36.859  27.838   5.663
 5343POPC   GL269038  36.504  27.878   5.608
 5343POPC   C1A69039  36.897  27.639   6.083
 5343POPC   D2A69040  37.081  27.780   6.477
 5343POPC   C3A69041  36.917  27.517   6.817
 5343POPC   C4A69042  36.973  27.350   7.232
 5343POPC   C1B69043  36.405  27.858   6.066
 5343POPC   C2B69044  36.555  27.807   6.468
 5343POPC   C3B69045  36.419  27.732   6.881
 5343POPC   C4B69046  36.656  27.741   7.237
 5344POPC   NC369047  10.380  24.116   5.549
 5344POPC   PO469048  10.668  24.740   5.440
 5344POPC   GL169049  10.710  24.496   5.837
 5344POPC   GL269050  10.994  24.724   5.884
 5344POPC   C1A69051  10.652  24.186   6.212
 5344POPC   D2A69052  10.339  24.151   6.565
 5344POPC   C3A69053  10.353  24.394   6.944
 5344POPC   C4A69054  10.479  24.707   7.208
 5344POPC   C1B69055  10.885  24.625   6.306
 5344POPC   C2B69056  10.808  24.439   6.692
 5344POPC   C3B69057  10.945  24.634   7.051
 5344POPC   C4B69058  10.925  24.795   7.465
 5345POPC   NC369059   4.308  37.462   5.430
 5345POPC   PO469060   4.009  38.159   5.528
 5345POPC   GL169061   4.294  37.843   5.779
 5345POPC   GL269062   4.173  37.504   5.916
 5345POPC   C1A69063   4.487  37.756   6.200
 5345POPC   D2A69064   4.234  37.577   6.543
 5345POPC   C3A69065   4.412  37.526   7.000
 5345POPC   C4A69066   4.558  37.538   7.437
 5345POPC   C1B69067   3.972  37.892   6.152
 5345POPC   C2B69068   3.936  38.006   6.600
 5345POPC   C3B69069   3.949  37.707   6.965
 5345POPC   C4B69070   4.093  37.788   7.419
 5346POPC   NC369071  33.992  33.352   5.628
 5346POPC   PO469072  33.675  32.714   5.391
 5346POPC   GL169073  33.757  32.767   5.797
 5346POPC   GL269074  33.607  33.070   5.885
 5346POPC   C1A69075  33.685  32.707   6.235
 5346POPC   D2A69076  33.682  32.896   6.617
 5346POPC   C3A69077  33.954  32.826   6.934
 5346POPC   C4A69078  34.231  33.016   7.212
 5346POPC   C1B69079  33.451  33.263   6.279
 5346POPC   C2B69080  33.420  33.302   6.750
 5346POPC   C3B69081  33.631  33.230   7.151
 5346POPC   C4B69082  33.506  33.272   7.571
 5347POPC   NC369083  15.384  10.318   5.406
 5347POPC   PO469084  14.867  10.658   5.550
 5347POPC   GL169085  15.200  10.595   5.837
 5347POPC   GL269086  15.241  10.281   5.880
 5347POPC   C1A69087  15.232  10.660   6.269
 5347POPC   D2A69088  15.065  10.847   6.640
 5347POPC   C3A69089  15.217  10.702   7.032
 5347POPC   C4A69090  15.138  10.918   7.421
 5347POPC   C1B69091  15.072  10.166   6.254
 5347POPC   C2B69092  14.843  10.372   6.572
 5347POPC   C3B69093  14.837  10.352   7.012
 5347POPC   C4B69094  15.148  10.285   7.359
 5348POPC   NC369095  35.512   7.597   5.464
 5348POPC   PO469096  35.001   7.124   5.551
 5348POPC   GL169097  35.234   7.348   5.827
 5348POPC   GL269098  35.582   7.197   5.784
 5348POPC   C1A69099  35.201   7.668   6.137
 5348POPC   D2A69100  35.389   7.704   6.531
 5348POPC   C3A69101  35.299   7.439   6.899
 5348POPC   C4A69102  35.169   7.745   7.225
 5348POPC   C1B69103  35.639   7.407   6.162
 5348POPC   C2B69104  35.736   7.354   6.574
 5348POPC   C3B69105  35.758   7.597   6.944
 5348POPC   C4B69106  35.593   7.514   7.359
 5349POPC   NC369107  25.231  37.407   5.196
 5349POPC   PO469108  25.270  36.808   5.442
 5349POPC   GL169109  25.121  36.767   5.849
 5349POPC   GL269110  25.134  36.390   5.848
 5349POPC   C1A69111  25.286  36.962   6.217
 5349POPC   D2A69112  25.257  37.124   6.631
 5349POPC   C3A69113  25.603  37.019   6.862
 5349POPC   C4A69114  25.644  36.809   7.238
 5349POPC   C1B69115  25.228  36.461   6.253
 5349POPC   C2B69116  25.356  36.624   6.631
 5349POPC   C3B69117  25.214  36.668   7.043
 5349POPC   C4B69118  24.933  36.518   7.330
 5350POPC   NC369119  26.265  41.673   5.007
 5350POPC   PO469120  26.123  41.445   5.612
 5350POPC   GL169121  25.911  41.606   5.925
 5350POPC   GL269122  26.209  41.738   6.105
 5350POPC   C1A69123  25.698  41.521   6.316
 5350POPC   D2A69124  25.976  41.668   6.609
 5350POPC   C3A69125  25.910  41.818   7.030
 5350POPC   C4A69126  25.790  41.749   7.433
 5350POPC   C1B69127  26.491  41.691   6.497
 5350POPC   C2B69128  26.363  41.549   6.908
 5350POPC   C3B69129  25.944  41.322   7.007
 5350POPC   C4B69130  25.901  41.251   7.437
 5351POPC   NC369131   9.898  35.109   5.490
 5351POPC   PO469132   9.834  35.742   5.311
 5351POPC   GL169133   9.661  35.533   5.680
 5351POPC   GL269134   9.990  35.487   5.804
 5351POPC   C1A69135   9.616  35.479   6.157
 5351POPC   D2A69136   9.319  35.628   6.505
 5351POPC   C3A69137   9.391  35.503   6.920
 5351POPC   C4A69138   9.555  35.475   7.335
 5351POPC   C1B69139  10.068  35.182   6.140
 5351POPC   C2B69140  10.076  35.109   6.589
 5351POPC   C3B69141   9.887  35.373   6.905
 5351POPC   C4B69142  10.064  35.378   7.297
 5352POPC   NC369143  34.488  18.756   5.474
 5352POPC   PO469144  34.482  19.420   5.458
 5352POPC   GL169145  34.502  19.173   5.812
 5352POPC   GL269146  34.824  19.077   5.758
 5352POPC   C1A69147  34.535  19.012   6.248
 5352POPC   D2A69148  34.370  19.223   6.645
 5352POPC   C3A69149  34.514  19.041   7.017
 5352POPC   C4A69150  34.413  19.074   7.472
 5352POPC   C1B69151  34.993  19.246   6.151
 5352POPC   C2B69152  34.872  19.274   6.582
 5352POPC   C3B69153  34.998  19.268   6.993
 5352POPC   C4B69154  34.902  19.091   7.356
 5353POPC   NC369155   1.014  24.178   5.391
 5353POPC   PO469156   0.286  24.313   5.334
 5353POPC   GL169157   0.218  24.279   5.790
 5353POPC   GL269158   0.200  24.642   5.828
 5353POPC   C1A69159   0.325  24.324   6.287
 5353POPC   D2A69160   0.287  24.241   6.777
 5353POPC   C3A69161   0.603  24.423   7.094
 5353POPC   C4A69162   0.623  24.382   7.544
 5353POPC   C1B69163   0.375  24.844   6.193
 5353POPC   C2B69164   0.273  24.752   6.639
 5353POPC   C3B69165   0.211  24.739   7.099
 5353POPC   C4B69166   0.502  24.848   7.435
 5354POPC   NC369167  17.730  18.225   5.413
 5354POPC   PO469168  17.101  18.529   5.327
 5354POPC   GL169169  17.250  18.587   5.794
 5354POPC   GL269170  17.593  18.479   5.831
 5354POPC   C1A69171  17.336  18.545   6.261
 5354POPC   D2A69172  17.373  18.211   6.549
 5354POPC   C3A69173  17.345  18.253   7.004
 5354POPC   C4A69174  17.247  18.048   7.435
 5354POPC   C1B69175  17.719  18.143   6.118
 5354POPC   C2B69176  17.869  18.085   6.536
 5354POPC   C3B69177  17.927  18.045   6.968
 5354POPC   C4B69178  17.745  18.197   7.333
 5355POPC   NC369179  44.273   1.585   5.628
 5355POPC   PO469180  44.929   1.400   5.368
 5355POPC   GL169181  44.689   1.305   5.711
 5355POPC   GL269182  44.748   1.644   5.828
 5355POPC   C1A69183  44.446   1.057   6.031
 5355POPC   D2A69184  44.536   0.766   6.354
 5355POPC   C3A69185  44.551   0.919   6.776
 5355POPC   C4A69186  44.560   0.993   7.186
 5355POPC   C1B69187  44.807   1.386   6.204
 5355POPC   C2B69188  44.648   1.379   6.596
 5355POPC   C3B69189  44.790   1.402   7.023
 5355POPC   C4B69190  44.489   1.497   7.376
 5356POPC   NC369191   2.370  16.624   5.429
 5356POPC   PO469192   2.930  16.864   5.562
 5356POPC   GL169193   2.747  17.054   5.932
 5356POPC   GL269194   2.452  16.967   5.852
 5356POPC   C1A69195   2.693  17.142   6.367
 5356POPC   D2A69196   2.797  16.897   6.714
 5356POPC   C3A69197   2.694  17.031   7.130
 5356POPC   C4A69198   2.319  16.927   7.373
 5356POPC   C1B69199   2.400  16.739   6.216
 5356POPC   C2B69200   2.568  16.459   6.526
 5356POPC   C3B69201   2.469  16.569   6.950
 5356POPC   C4B69202   2.612  16.499   7.342
 5357POPC   NC369203  13.975  14.313   5.680
 5357POPC   PO469204  14.524  14.518   5.210
 5357POPC   GL169205  14.503  14.589   5.668
 5357POPC   GL269206  14.187  14.786   5.647
 5357POPC   C1A69207  14.542  14.337   6.094
 5357POPC   D2A69208  14.540  14.328   6.544
 5357POPC   C3A69209  14.474  14.133   6.924
 5357POPC   C4A69210  14.479  14.374   7.301
 5357POPC   C1B69211  14.294  14.786   6.100
 5357POPC   C2B69212  14.163  14.663   6.523
 5357POPC   C3B69213  14.009  14.757   6.907
 5357POPC   C4B69214  14.185  14.803   7.310
 5358POPC   NC369215  17.500  38.126   5.492
 5358POPC   PO469216  17.519  37.435   5.508
 5358POPC   GL169217  17.632  37.609   5.860
 5358POPC   GL269218  17.511  37.932   5.951
 5358POPC   C1A69219  17.721  37.608   6.274
 5358POPC   D2A69220  17.494  37.467   6.601
 5358POPC   C3A69221  17.475  37.764   6.928
 5358POPC   C4A69222  17.503  37.510   7.261
 5358POPC   C1B69223  17.150  38.101   6.189
 5358POPC   C2B69224  17.206  38.242   6.617
 5358POPC   C3B69225  17.060  38.153   7.040
 5358POPC   C4B69226  17.234  37.935   7.411
 5359POPC   NC369227  28.772  22.873   5.368
 5359POPC   PO469228  29.451  22.753   5.398
 5359POPC   GL169229  29.219  22.844   5.781
 5359POPC   GL269230  28.910  23.062   5.825
 5359POPC   C1A69231  29.292  22.990   6.177
 5359POPC   D2A69232  29.036  22.914   6.541
 5359POPC   C3A69233  29.211  22.962   6.950
 5359POPC   C4A69234  29.025  22.907   7.360
 5359POPC   C1B69235  28.905  23.302   6.228
 5359POPC   C2B69236  28.866  23.374   6.700
 5359POPC   C3B69237  28.690  23.095   7.045
 5359POPC   C4B69238  28.611  23.162   7.512
 5360POPC   NC369239  13.192   9.134   5.576
 5360POPC   PO469240  12.547   8.973   5.480
 5360POPC   GL169241  12.845   8.814   5.798
 5360POPC   GL269242  12.769   9.143   5.922
 5360POPC   C1A69243  12.933   8.836   6.276
 5360POPC   D2A69244  13.042   9.132   6.588
 5360POPC   C3A69245  13.224   8.974   6.937
 5360POPC   C4A69246  13.048   8.726   7.245
 5360POPC   C1B69247  12.442   8.795   6.097
 5360POPC   C2B69248  12.471   8.613   6.483
 5360POPC   C3B69249  12.695   8.774   6.850
 5360POPC   C4B69250  12.521   8.787   7.260
 5361POPC   NC369251   1.461  13.750   5.727
 5361POPC   PO469252   0.834  13.850   5.531
 5361POPC   GL169253   0.931  13.563   5.886
 5361POPC   GL269254   1.095  13.225   5.799
 5361POPC   C1A69255   1.085  13.503   6.317
 5361POPC   D2A69256   1.467  13.647   6.549
 5361POPC   C3A69257   1.407  13.761   6.972
 5361POPC   C4A69258   0.986  13.594   7.079
 5361POPC   C1B69259   1.398  13.093   6.103
 5361POPC   C2B69260   1.359  13.102   6.529
 5361POPC   C3B69261   1.357  13.224   6.967
 5361POPC   C4B69262   1.374  13.455   7.376
 5362POPC   NC369263  37.270  42.057   5.577
 5362POPC   PO469264  37.107  42.650   5.223
 5362POPC   GL169265  36.788  42.500   5.595
 5362POPC   GL269266  36.789  42.194   5.785
 5362POPC   C1A69267  36.801  42.609   6.082
 5362POPC   D2A69268  37.168  42.566   6.385
 5362POPC   C3A69269  37.101  42.549   6.850
 5362POPC   C4A69270  36.743  42.603   7.141
 5362POPC   C1B69271  37.031  42.125   6.175
 5362POPC   C2B69272  37.065  42.074   6.614
 5362POPC   C3B69273  36.829  42.107   6.980
 5362POPC   C4B69274  36.974  42.213   7.396
 5363POPC   NC369275  44.454  19.728   5.432
 5363POPC   PO469276   0.072  19.958   5.459
 5363POPC   GL169277  44.734  19.984   5.755
 5363POPC   GL269278  44.767  19.627   5.831
 5363POPC   C1A69279  44.629  19.906   6.215
 5363POPC   D2A69280  44.930  19.966   6.550
 5363POPC   C3A69281  44.726  19.888   6.934
 5363POPC   C4A69282  44.524  20.108   7.239
 5363POPC   C1B69283   0.021  19.564   6.220
 5363POPC   C2B69284   0.086  19.479   6.644
 5363POPC   C3B69285   0.187  19.696   7.009
 5363POPC   C4B69286  44.914  19.709   7.400
 5364POPC   NC369287  34.545  16.419   5.546
 5364POPC   PO469288  34.989  16.939   5.383
 5364POPC   GL169289  34.784  16.888   5.793
 5364POPC   GL269290  34.451  16.999   5.717
 5364POPC   C1A69291  34.662  16.614   6.177
 5364POPC   D2A69292  34.580  16.416   6.592
 5364POPC   C3A69293  34.652  16.585   6.979
 5364POPC   C4A69294  34.395  16.429   7.331
 5364POPC   C1B69295  34.447  17.102   6.158
 5364POPC   C2B69296  34.558  16.948   6.553
 5364POPC   C3B69297  34.323  16.952   6.902
 5364POPC   C4B69298  34.466  16.978   7.312
 5365POPC   NC369299   6.261   7.261   5.499
 5365POPC   PO469300   5.938   7.796   5.483
 5365POPC   GL169301   5.907   7.528   5.853
 5365POPC   GL269302   6.068   7.224   5.949
 5365POPC   C1A69303   5.709   7.502   6.251
 5365POPC   D2A69304   5.712   7.358   6.675
 5365POPC   C3A69305   5.922   7.574   7.014
 5365POPC   C4A69306   5.771   7.540   7.394
 5365POPC   C1B69307   6.028   7.107   6.353
 5365POPC   C2B69308   6.214   7.260   6.712
 5365POPC   C3B69309   6.279   7.204   7.129
 5365POPC   C4B69310   6.151   7.285   7.595
 5366POPC   NC369311  40.574  29.417   5.378
 5366POPC   PO469312  41.079  28.912   5.494
 5366POPC   GL169313  41.124  28.999   5.882
 5366POPC   GL269314  40.844  29.199   5.850
 5366POPC   C1A69315  41.109  29.007   6.305
 5366POPC   D2A69316  41.188  28.812   6.677
 5366POPC   C3A69317  40.995  29.067   6.962
 5366POPC   C4A69318  40.557  29.019   7.139
 5366POPC   C1B69319  40.648  29.239   6.241
 5366POPC   C2B69320  40.651  29.352   6.685
 5366POPC   C3B69321  40.722  29.523   7.104
 5366POPC   C4B69322  40.675  29.554   7.563
 5367POPC   NC369323  35.357  39.077   5.427
 5367POPC   PO469324  34.815  39.628   5.355
 5367POPC   GL169325  34.964  39.350   5.723
 5367POPC   GL269326  35.310  39.416   5.836
 5367POPC   C1A69327  34.995  39.161   6.152
 5367POPC   D2A69328  35.248  39.288   6.527
 5367POPC   C3A69329  35.049  39.109   6.872
 5367POPC   C4A69330  34.980  39.297   7.235
 5367POPC   C1B69331  35.519  39.139   6.120
 5367POPC   C2B69332  35.715  38.988   6.486
 5367POPC   C3B69333  35.788  39.059   6.902
 5367POPC   C4B69334  35.473  39.147   7.184
 5368POPC   NC369335  41.106  30.308   5.295
 5368POPC   PO469336  40.726  29.847   5.470
 5368POPC   GL169337  40.677  29.687   5.866
 5368POPC   GL269338  41.037  29.672   5.924
 5368POPC   C1A69339  40.602  29.738   6.303
 5368POPC   D2A69340  40.796  29.852   6.666
 5368POPC   C3A69341  40.504  29.963   6.912
 5368POPC   C4A69342  40.406  29.910   7.315
 5368POPC   C1B69343  41.006  30.038   6.223
 5368POPC   C2B69344  41.051  30.285   6.622
 5368POPC   C3B69345  40.968  30.166   7.064
 5368POPC   C4B69346  40.799  30.156   7.503
 5369POPC   NC369347   2.098  43.336   5.506
 5369POPC   PO469348   1.854  42.715   5.406
 5369POPC   GL169349   2.042  42.846   5.821
 5369POPC   GL269350   1.819  43.011   5.940
 5369POPC   C1A69351   2.227  42.860   6.248
 5369POPC   D2A69352   2.082  42.980   6.662
 5369POPC   C3A69353   2.323  43.003   7.054
 5369POPC   C4A69354   2.188  42.965   7.476
 5369POPC   C1B69355   2.042  43.318   6.206
 5369POPC   C2B69356   1.966  43.481   6.623
 5369POPC   C3B69357   1.864  43.317   7.020
 5369POPC   C4B69358   1.866  43.325   7.455
 5370POPC   NC369359  19.523  32.574   5.483
 5370POPC   PO469360  19.958  32.119   5.259
 5370POPC   GL169361  20.020  32.060   5.709
 5370POPC   GL269362  19.673  32.121   5.764
 5370POPC   C1A69363  20.167  32.102   6.164
 5370POPC   D2A69364  20.031  31.981   6.607
 5370POPC   C3A69365  19.833  32.205   6.982
 5370POPC   C4A69366  20.127  32.451   7.212
 5370POPC   C1B69367  19.679  31.947   6.196
 5370POPC   C2B69368  19.519  31.970   6.649
 5370POPC   C3B69369  19.585  31.750   7.051
 5370POPC   C4B69370  19.637  31.748   7.549
 5371POPC   NC369371  40.879  31.871   5.464
 5371POPC   PO469372  41.176  32.530   5.476
 5371POPC   GL169373  41.200  32.337   5.881
 5371POPC   GL269374  41.011  32.030   5.922
 5371POPC   C1A69375  40.992  32.399   6.294
 5371POPC   D2A69376  40.960  32.562   6.729
 5371POPC   C3A69377  40.573  32.487   6.942
 5371POPC   C4A69378  40.575  32.260   7.287
 5371POPC   C1B69379  40.632  31.960   6.198
 5371POPC   C2B69380  40.663  31.910   6.650
 5371POPC   C3B69381  40.921  32.065   6.964
 5371POPC   C4B69382  40.952  31.940   7.401
 5372POPC   NC369383  21.938  33.937   5.337
 5372POPC   PO469384  22.448  33.637   5.349
 5372POPC   GL169385  22.135  33.642   5.716
 5372POPC   GL269386  22.216  33.988   5.809
 5372POPC   C1A69387  21.884  33.758   6.114
 5372POPC   D2A69388  22.012  33.702   6.546
 5372POPC   C3A69389  21.856  33.899   6.908
 5372POPC   C4A69390  21.977  33.715   7.282
 5372POPC   C1B69391  22.376  33.923   6.251
 5372POPC   C2B69392  22.301  34.125   6.681
 5372POPC   C3B69393  22.301  34.080   7.150
 5372POPC   C4B69394  22.155  34.076   7.615
 5373POPC   NC369395  16.540  39.525   5.159
 5373POPC   PO469396  16.773  40.121   5.378
 5373POPC   GL169397  16.771  39.902   5.781
 5373POPC   GL269398  16.541  40.147   5.842
 5373POPC   C1A69399  16.624  39.742   6.199
 5373POPC   D2A69400  16.575  39.934   6.587
 5373POPC   C3A69401  16.754  39.819   6.975
 5373POPC   C4A69402  16.789  39.916   7.433
 5373POPC   C1B69403  16.644  40.301   6.243
 5373POPC   C2B69404  16.772  40.440   6.656
 5373POPC   C3B69405  16.818  40.307   7.089
 5373POPC   C4B69406  16.488  40.339   7.436
 5374POPC   NC369407  41.385  17.212   5.109
 5374POPC   PO469408  41.686  17.680   5.460
 5374POPC   GL169409  41.755  17.660   5.887
 5374POPC   GL269410  41.465  17.503   5.996
 5374POPC   C1A69411  41.925  17.658   6.283
 5374POPC   D2A69412  41.831  17.820   6.694
 5374POPC   C3A69413  41.543  17.594   6.914
 5374POPC   C4A69414  41.689  17.442   7.279
 5374POPC   C1B69415  41.419  17.803   6.342
 5374POPC   C2B69416  41.142  18.043   6.627
 5374POPC   C3B69417  41.331  18.031   7.031
 5374POPC   C4B69418  41.313  17.770   7.405
 5375POPC   NC369419  28.957  39.860   5.298
 5375POPC   PO469420  29.544  40.197   5.458
 5375POPC   GL169421  29.236  39.994   5.780
 5375POPC   GL269422  29.018  39.652   5.744
 5375POPC   C1A69423  29.341  40.092   6.257
 5375POPC   D2A69424  29.584  40.224   6.659
 5375POPC   C3A69425  29.289  40.311   7.012
 5375POPC   C4A69426  28.880  40.203   7.172
 5375POPC   C1B69427  29.208  39.617   6.136
 5375POPC   C2B69428  29.245  39.639   6.582
 5375POPC   C3B69429  29.072  39.759   6.984
 5375POPC   C4B69430  29.262  39.906   7.349
 5376POPC   NC369431  31.447  23.296   5.194
 5376POPC   PO469432  31.250  22.648   5.127
 5376POPC   GL169433  31.253  22.745   5.620
 5376POPC   GL269434  31.487  23.056   5.693
 5376POPC   C1A69435  31.098  22.821   6.085
 5376POPC   D2A69436  31.171  23.118   6.437
 5376POPC   C3A69437  31.316  22.952   6.853
 5376POPC   C4A69438  31.262  22.950   7.307
 5376POPC   C1B69439  31.593  22.974   6.139
 5376POPC   C2B69440  31.847  22.762   6.428
 5376POPC   C3B69441  31.847  22.935   6.816
 5376POPC   C4B69442  31.767  22.856   7.219
 5377POPC   NC369443  26.585  16.713   5.485
 5377POPC   PO469444  25.960  16.662   5.354
 5377POPC   GL169445  25.955  16.603   5.813
 5377POPC   GL269446  25.976  16.944   5.858
 5377POPC   C1A69447  26.122  16.697   6.286
 5377POPC   D2A69448  26.226  16.829   6.737
 5377POPC   C3A69449  26.120  16.522   7.075
 5377POPC   C4A69450  26.068  16.471   7.525
 5377POPC   C1B69451  25.649  16.865   6.174
 5377POPC   C2B69452  25.750  16.942   6.621
 5377POPC   C3B69453  25.670  16.779   7.010
 5377POPC   C4B69454  25.651  16.378   7.228
 5378POPC   NC369455  21.677   2.806   5.409
 5378POPC   PO469456  21.155   2.879   5.652
 5378POPC   GL169457  21.361   2.564   5.908
 5378POPC   GL269458  21.742   2.528   5.862
 5378POPC   C1A69459  21.162   2.376   6.282
 5378POPC   D2A69460  21.079   2.676   6.598
 5378POPC   C3A69461  21.224   2.687   7.012
 5378POPC   C4A69462  21.463   2.977   7.287
 5378POPC   C1B69463  21.672   2.572   6.312
 5378POPC   C2B69464  21.576   2.379   6.694
 5378POPC   C3B69465  21.718   2.594   7.050
 5378POPC   C4B69466  22.011   2.910   7.207
 5379POPC   NC369467  16.744  44.900   5.373
 5379POPC   PO469468  16.673  44.236   5.360
 5379POPC   GL169469  16.692  44.511   5.734
 5379POPC   GL269470  17.034  44.656   5.741
 5379POPC   C1A69471  16.596  44.646   6.161
 5379POPC   D2A69472  16.554  44.497   6.579
 5379POPC   C3A69473  16.565  44.710   6.970
 5379POPC   C4A69474  16.590  44.454   7.379
 5379POPC   C1B69475  17.122  44.790   6.172
 5379POPC   C2B69476  17.083  44.655   6.602
 5379POPC   C3B69477  17.094  44.911   6.981
 5379POPC   C4B69478  16.857  44.896   7.365
 5380POPC   NC369479  14.786  36.583   5.145
 5380POPC   PO469480  14.245  37.008   5.407
 5380POPC   GL169481  14.446  36.778   5.734
 5380POPC   GL269482  14.473  37.056   5.959
 5380POPC   C1A69483  14.221  36.643   6.119
 5380POPC   D2A69484  14.121  36.915   6.484
 5380POPC   C3A69485  14.343  36.931   6.887
 5380POPC   C4A69486  14.223  37.162   7.264
 5380POPC   C1B69487  14.819  36.929   6.234
 5380POPC   C2B69488  14.991  36.806   6.629
 5380POPC   C3B69489  14.840  36.988   6.996
 5380POPC   C4B69490  14.603  36.839   7.360
 5381POPC   NC369491   6.689  12.432   5.533
 5381POPC   PO469492   6.187  12.003   5.380
 5381POPC   GL169493   6.387  12.074   5.758
 5381POPC   GL269494   6.274  12.396   5.851
 5381POPC   C1A69495   6.605  11.957   6.139
 5381POPC   D2A69496   6.435  11.812   6.533
 5381POPC   C3A69497   6.661  11.883   6.911
 5381POPC   C4A69498   6.545  11.802   7.315
 5381POPC   C1B69499   6.427  12.437   6.261
 5381POPC   C2B69500   6.352  12.336   6.682
 5381POPC   C3B69501   6.495  12.494   7.054
 5381POPC   C4B69502   6.761  12.259   7.285
 5382POPC   NC369503  43.101   2.431   5.403
 5382POPC   PO469504  42.902   3.070   5.333
 5382POPC   GL169505  43.025   2.860   5.696
 5382POPC   GL269506  43.371   2.712   5.758
 5382POPC   C1A69507  42.809   2.763   6.073
 5382POPC   D2A69508  42.585   2.720   6.433
 5382POPC   C3A69509  42.807   2.626   6.836
 5382POPC   C4A69510  43.005   2.562   7.231
 5382POPC   C1B69511  43.274   2.958   6.150
 5382POPC   C2B69512  43.159   2.884   6.578
 5382POPC   C3B69513  43.100   3.039   7.001
 5382POPC   C4B69514  43.305   3.020   7.383
 5383POPC   NC369515  13.228   2.388   5.309
 5383POPC   PO469516  13.685   1.896   5.252
 5383POPC   GL169517  13.506   1.991   5.721
 5383POPC   GL269518  13.454   2.338   5.790
 5383POPC   C1A69519  13.529   1.786   6.145
 5383POPC   D2A69520  13.407   1.949   6.514
 5383POPC   C3A69521  13.496   1.809   6.892
 5383POPC   C4A69522  13.302   2.034   7.198
 5383POPC   C1B69523  13.720   2.265   6.190
 5383POPC   C2B69524  13.819   2.213   6.644
 5383POPC   C3B69525  13.850   2.145   7.084
 5383POPC   C4B69526  14.241   2.190   7.268
 5384POPC   NC369527  32.176  44.114   5.487
 5384POPC   PO469528  31.962  43.553   5.311
 5384POPC   GL169529  32.071  43.771   5.805
 5384POPC   GL269530  31.881  43.839   6.054
 5384POPC   C1A69531  32.440  43.872   6.118
 5384POPC   D2A69532  32.380  43.910   6.561
 5384POPC   C3A69533  32.485  43.993   6.977
 5384POPC   C4A69534  32.367  43.735   7.327
 5384POPC   C1B69535  32.131  43.518   6.268
 5384POPC   C2B69536  32.330  43.377   6.646
 5384POPC   C3B69537  32.077  43.539   6.972
 5384POPC   C4B69538  31.872  43.640   7.387
 5385POPC   NC369539  10.230  21.635   5.373
 5385POPC   PO469540  10.768  21.232   5.469
 5385POPC   GL169541  10.496  21.409   5.774
 5385POPC   GL269542  10.283  21.151   5.884
 5385POPC   C1A69543  10.637  21.433   6.205
 5385POPC   D2A69544  10.890  21.224   6.538
 5385POPC   C3A69545  10.709  21.347   6.925
 5385POPC   C4A69546  10.883  21.528   7.284
 5385POPC   C1B69547  10.134  21.349   6.238
 5385POPC   C2B69548  10.049  21.521   6.634
 5385POPC   C3B69549  10.143  21.300   7.009
 5385POPC   C4B69550  10.400  21.378   7.355
 5386POPC   NC369551  37.433  37.463   5.312
 5386POPC   PO469552  38.025  37.785   5.337
 5386POPC   GL169553  37.840  37.785   5.741
 5386POPC   GL269554  37.773  37.436   5.704
 5386POPC   C1A69555  37.715  37.829   6.190
 5386POPC   D2A69556  37.545  37.541   6.508
 5386POPC   C3A69557  37.527  37.512   6.953
 5386POPC   C4A69558  37.622  37.752   7.310
 5386POPC   C1B69559  37.765  37.316   6.104
 5386POPC   C2B69560  37.948  37.189   6.495
 5386POPC   C3B69561  38.076  37.301   6.906
 5386POPC   C4B69562  37.915  37.335   7.348
 5387POPC   NC369563  20.936  25.500   5.399
 5387POPC   PO469564  21.557  25.139   5.295
 5387POPC   GL169565  21.357  25.311   5.711
 5387POPC   GL269566  21.616  25.474   5.882
 5387POPC   C1A69567  21.251  25.334   6.198
 5387POPC   D2A69568  20.992  25.402   6.570
 5387POPC   C3A69569  21.127  25.278   6.984
 5387POPC   C4A69570  21.070  25.442   7.410
 5387POPC   C1B69571  21.693  25.095   6.122
 5387POPC   C2B69572  21.671  25.023   6.536
 5387POPC   C3B69573  21.632  25.319   6.864
 5387POPC   C4B69574  21.553  25.287   7.299
 5388POPC   NC369575  44.971  39.458   5.434
 5388POPC   PO469576  44.463  39.040   5.522
 5388POPC   GL169577  44.773  39.072   5.867
 5388POPC   GL269578  44.815  38.734   5.993
 5388POPC   C1A69579  44.817  39.183   6.317
 5388POPC   D2A69580  44.770  39.487   6.672
 5388POPC   C3A69581  44.801  39.241   7.047
 5388POPC   C4A69582  44.508  39.297   7.375
 5388POPC   C1B69583  44.411  38.852   6.188
 5388POPC   C2B69584  44.224  39.059   6.560
 5388POPC   C3B69585  44.344  39.006   6.977
 5388POPC   C4B69586  44.611  38.822   7.287
 5389POPC   NC369587  41.274   8.632   5.328
 5389POPC   PO469588  41.689   8.107   5.518
 5389POPC   GL169589  41.731   8.389   5.846
 5389POPC   GL269590  41.854   8.097   6.038
 5389POPC   C1A69591  41.562   8.467   6.239
 5389POPC   D2A69592  41.681   8.205   6.562
 5389POPC   C3A69593  41.795   8.445   6.877
 5389POPC   C4A69594  41.692   8.287   7.258
 5389POPC   C1B69595  41.429   7.948   6.193
 5389POPC   C2B69596  41.213   7.975   6.616
 5389POPC   C3B69597  41.345   7.910   7.059
 5389POPC   C4B69598  41.148   7.696   7.408
 5390POPC   NC369599  29.717  31.096   5.301
 5390POPC   PO469600  29.861  30.458   5.385
 5390POPC   GL169601  29.845  30.742   5.776
 5390POPC   GL269602  29.631  31.071   5.795
 5390POPC   C1A69603  29.989  30.659   6.217
 5390POPC   D2A69604  29.956  30.306   6.529
 5390POPC   C3A69605  30.118  30.408   6.938
 5390POPC   C4A69606  30.182  30.749   7.249
 5390POPC   C1B69607  29.561  30.949   6.190
 5390POPC   C2B69608  29.588  30.721   6.564
 5390POPC   C3B69609  29.783  30.818   6.929
 5390POPC   C4B69610  29.825  31.103   7.269
 5391POPC   NC369611  30.277  33.954   5.224
 5391POPC   PO469612  29.886  34.589   5.386
 5391POPC   GL169613  29.953  34.645   5.819
 5391POPC   GL269614  30.016  34.286   5.803
 5391POPC   C1A69615  29.855  34.646   6.266
 5391POPC   D2A69616  30.018  34.506   6.682
 5391POPC   C3A69617  29.853  34.674   7.094
 5391POPC   C4A69618  29.771  34.964   7.435
 5391POPC   C1B69619  30.258  34.353   6.174
 5391POPC   C2B69620  30.381  34.083   6.475
 5391POPC   C3B69621  30.384  34.172   6.872
 5391POPC   C4B69622  30.037  34.188   7.125
 5392POPC   NC369623  11.254  22.664   5.388
 5392POPC   PO469624  11.185  23.299   5.557
 5392POPC   GL169625  11.398  22.968   5.793
 5392POPC   GL269626  11.610  22.635   5.762
 5392POPC   C1A69627  11.571  23.007   6.177
 5392POPC   D2A69628  11.381  22.959   6.549
 5392POPC   C3A69629  11.459  23.202   6.890
 5392POPC   C4A69630  11.211  23.299   7.220
 5392POPC   C1B69631  11.396  22.530   6.110
 5392POPC   C2B69632  11.514  22.472   6.509
 5392POPC   C3B69633  11.235  22.571   6.854
 5392POPC   C4B69634  11.313  22.766   7.203
 5393POPC   NC369635  19.944  22.051   5.168
 5393POPC   PO469636  19.642  22.598   5.283
 5393POPC   GL169637  19.738  22.329   5.682
 5393POPC   GL269638  20.064  22.108   5.699
 5393POPC   C1A69639  19.862  22.255   6.121
 5393POPC   D2A69640  20.090  22.289   6.497
 5393POPC   C3A69641  19.921  22.412   6.898
 5393POPC   C4A69642  19.806  22.162   7.223
 5393POPC   C1B69643  20.273  21.941   6.120
 5393POPC   C2B69644  20.145  21.786   6.546
 5393POPC   C3B69645  20.206  21.938   6.989
 5393POPC   C4B69646  20.209  21.993   7.472
 5394POPC   NC369647  21.885  23.153   5.237
 5394POPC   PO469648  22.409  22.851   5.569
 5394POPC   GL169649  22.217  23.039   5.875
 5394POPC   GL269650  21.863  23.065   5.784
 5394POPC   C1A69651  22.300  23.054   6.315
 5394POPC   D2A69652  22.256  23.155   6.733
 5394POPC   C3A69653  22.405  22.906   7.057
 5394POPC   C4A69654  22.420  23.150   7.441
 5394POPC   C1B69655  21.848  22.866   6.213
 5394POPC   C2B69656  21.770  23.015   6.629
 5394POPC   C3B69657  21.894  23.068   7.067
 5394POPC   C4B69658  21.999  22.766   7.361
 5395POPC   NC369659  33.056  17.022   5.461
 5395POPC   PO469660  33.227  16.343   5.426
 5395POPC   GL169661  32.983  16.578   5.748
 5395POPC   GL269662  33.234  16.788   5.913
 5395POPC   C1A69663  32.880  16.611   6.200
 5395POPC   D2A69664  33.191  16.579   6.527
 5395POPC   C3A69665  33.098  16.564   6.976
 5395POPC   C4A69666  33.016  16.334   7.353
 5395POPC   C1B69667  33.153  17.030   6.307
 5395POPC   C2B69668  33.186  17.025   6.766
 5395POPC   C3B69669  32.971  17.018   7.186
 5395POPC   C4B69670  33.066  16.779   7.567
 5396POPC   NC369671  23.895  24.219   5.375
 5396POPC   PO469672  23.624  24.873   5.277
 5396POPC   GL169673  23.703  24.642   5.721
 5396POPC   GL269674  24.032  24.472   5.833
 5396POPC   C1A69675  23.587  24.424   6.157
 5396POPC   D2A69676  23.338  24.422   6.569
 5396POPC   C3A69677  23.534  24.352   6.999
 5396POPC   C4A69678  23.574  24.661   7.373
 5396POPC   C1B69679  23.959  24.785   6.187
 5396POPC   C2B69680  23.800  24.817   6.632
 5396POPC   C3B69681  23.958  24.611   7.026
 5396POPC   C4B69682  24.031  24.264   7.339
 5397POPC   NC369683  43.430   9.151   5.354
 5397POPC   PO469684  42.716   9.201   5.230
 5397POPC   GL169685  42.891   8.922   5.610
 5397POPC   GL269686  43.142   9.138   5.784
 5397POPC   C1A69687  42.912   8.826   6.100
 5397POPC   D2A69688  43.204   8.905   6.479
 5397POPC   C3A69689  43.041   9.082   6.859
 5397POPC   C4A69690  42.943   8.921   7.257
 5397POPC   C1B69691  43.391   9.263   6.138
 5397POPC   C2B69692  43.432   9.396   6.576
 5397POPC   C3B69693  43.557   9.102   6.888
 5397POPC   C4B69694  43.363   8.708   7.048
 5398POPC   NC369695   2.124   2.847   5.481
 5398POPC   PO469696   1.574   2.928   5.488
 5398POPC   GL169697   1.835   2.975   5.910
 5398POPC   GL269698   2.223   2.936   5.978
 5398POPC   C1A69699   1.928   2.952   6.380
 5398POPC   D2A69700   1.885   2.610   6.660
 5398POPC   C3A69701   1.786   2.672   7.081
 5398POPC   C4A69702   1.718   3.062   7.298
 5398POPC   C1B69703   2.339   2.613   6.318
 5398POPC   C2B69704   2.319   2.354   6.724
 5398POPC   C3B69705   2.288   2.549   7.147
 5398POPC   C4B69706   2.375   3.015   7.276
 5399POPC   NC369707  40.888  36.373   5.339
 5399POPC   PO469708  40.645  35.683   5.422
 5399POPC   GL169709  40.851  35.994   5.725
 5399POPC   GL269710  40.609  36.281   5.776
 5399POPC   C1A69711  41.040  36.254   6.101
 5399POPC   D2A69712  41.020  36.460   6.538
 5399POPC   C3A69713  41.086  36.311   6.943
 5399POPC   C4A69714  41.087  35.902   7.100
 5399POPC   C1B69715  40.560  36.030   6.157
 5399POPC   C2B69716  40.665  36.088   6.557
 5399POPC   C3B69717  40.604  36.075   6.980
 5399POPC   C4B69718  40.514  36.328   7.324
 5400POPC   NC369719  10.187  43.876   5.315
 5400POPC   PO469720  10.768  43.815   5.448
 5400POPC   GL169721  10.580  43.874   5.821
 5400POPC   GL269722  10.535  44.212   5.923
 5400POPC   C1A69723  10.676  43.795   6.248
 5400POPC   D2A69724  10.529  44.127   6.532
 5400POPC   C3A69725  10.730  44.037   6.931
 5400POPC   C4A69726  10.618  43.650   7.143
 5400POPC   C1B69727  10.208  43.966   6.148
 5400POPC   C2B69728  10.131  43.761   6.496
 5400POPC   C3B69729  10.251  43.837   6.857
 5400POPC   C4B69730  10.119  43.745   7.215
 5401POPC   NC369731  12.136  28.220   5.334
 5401POPC   PO469732  12.041  28.904   5.317
 5401POPC   GL169733  12.075  28.580   5.736
 5401POPC   GL269734  11.981  28.198   5.813
 5401POPC   C1A69735  12.347  28.377   6.130
 5401POPC   D2A69736  12.396  28.173   6.594
 5401POPC   C3A69737  12.238  28.401   6.955
 5401POPC   C4A69738  11.916  28.266   7.234
 5401POPC   C1B69739  11.842  28.362   6.204
 5401POPC   C2B69740  11.883  28.237   6.617
 5401POPC   C3B69741  11.734  28.544   6.873
 5401POPC   C4B69742  11.505  28.620   7.224
 5402POPC   NC369743  11.173  17.564   5.403
 5402POPC   PO469744  11.676  17.156   5.685
 5402POPC   GL169745  11.425  17.504   5.870
 5402POPC   GL269746  11.056  17.560   5.889
 5402POPC   C1A69747  11.361  17.488   6.319
 5402POPC   D2A69748  11.630  17.311   6.615
 5402POPC   C3A69749  11.587  17.543   6.956
 5402POPC   C4A69750  11.566  17.780   7.286
 5402POPC   C1B69751  10.937  17.757   6.263
 5402POPC   C2B69752  11.025  17.620   6.683
 5402POPC   C3B69753  11.098  17.532   7.117
 5402POPC   C4B69754  11.048  17.872   7.390
 5403POPC   NC369755  12.747  22.000   5.352
 5403POPC   PO469756  12.435  22.684   5.376
 5403POPC   GL169757  12.731  22.409   5.668
 5403POPC   GL269758  12.618  22.058   5.851
 5403POPC   C1A69759  12.972  22.412   6.065
 5403POPC   D2A69760  12.828  22.569   6.507
 5403POPC   C3A69761  12.897  22.470   6.966
 5403POPC   C4A69762  12.730  22.387   7.409
 5403POPC   C1B69763  12.701  22.086   6.316
 5403POPC   C2B69764  12.813  22.013   6.723
 5403POPC   C3B69765  12.540  22.103   7.051
 5403POPC   C4B69766  12.292  21.976   7.374
 5404POPC   NC369767   6.861  43.611   5.316
 5404POPC   PO469768   6.396  44.122   5.348
 5404POPC   GL169769   6.442  43.906   5.772
 5404POPC   GL269770   6.655  43.628   5.798
 5404POPC   C1A69771   6.303  44.012   6.155
 5404POPC   D2A69772   6.519  44.041   6.537
 5404POPC   C3A69773   6.416  43.854   6.886
 5404POPC   C4A69774   6.709  43.788   7.118
 5404POPC   C1B69775   6.613  43.608   6.258
 5404POPC   C2B69776   6.802  43.546   6.668
 5404POPC   C3B69777   6.733  43.299   7.058
 5404POPC   C4B69778   6.567  43.456   7.467
 5405POPC   NC369779  33.991   4.338   5.469
 5405POPC   PO469780  34.246   3.918   5.738
 5405POPC   GL169781  34.101   4.295   5.964
 5405POPC   GL269782  33.723   4.287   5.905
 5405POPC   C1A69783  33.926   4.476   6.319
 5405POPC   D2A69784  33.733   4.249   6.645
 5405POPC   C3A69785  33.638   4.577   6.956
 5405POPC   C4A69786  33.934   4.692   7.251
 5405POPC   C1B69787  33.421   4.378   6.255
 5405POPC   C2B69788  33.248   4.358   6.707
 5405POPC   C3B69789  33.474   4.097   7.077
 5405POPC   C4B69790  33.777   4.093   7.433
 5406POPC   NC369791  31.723  32.118   5.407
 5406POPC   PO469792  31.308  32.626   5.200
 5406POPC   GL169793  31.380  32.390   5.699
 5406POPC   GL269794  31.370  32.061   5.841
 5406POPC   C1A69795  31.472  32.434   6.181
 5406POPC   D2A69796  31.236  32.199   6.531
 5406POPC   C3A69797  31.309  32.167   6.981
 5406POPC   C4A69798  31.260  32.491   7.258
 5406POPC   C1B69799  31.591  31.920   6.238
 5406POPC   C2B69800  31.901  31.783   6.591
 5406POPC   C3B69801  31.796  31.847   7.056
 5406POPC   C4B69802  31.484  31.908   7.400
 5407POPC   NC369803   6.450  14.939   5.450
 5407POPC   PO469804   6.392  15.624   5.391
 5407POPC   GL169805   6.596  15.460   5.774
 5407POPC   GL269806   6.582  15.073   5.926
 5407POPC   C1A69807   6.833  15.432   6.155
 5407POPC   D2A69808   6.639  15.214   6.486
 5407POPC   C3A69809   6.639  15.431   6.858
 5407POPC   C4A69810   6.615  15.281   7.260
 5407POPC   C1B69811   6.939  14.901   6.173
 5407POPC   C2B69812   7.062  14.945   6.603
 5407POPC   C3B69813   6.780  14.911   6.936
 5407POPC   C4B69814   6.892  14.873   7.342
 5408POPC   NC369815  35.227  38.503   5.590
 5408POPC   PO469816  35.801  38.451   5.253
 5408POPC   GL169817  35.624  38.300   5.818
 5408POPC   GL269818  35.558  37.942   5.838
 5408POPC   C1A69819  35.545  38.543   6.254
 5408POPC   D2A69820  35.271  38.735   6.581
 5408POPC   C3A69821  35.399  38.658   7.024
 5408POPC   C4A69822  35.535  38.386   7.373
 5408POPC   C1B69823  35.337  38.092   6.216
 5408POPC   C2B69824  35.476  38.215   6.669
 5408POPC   C3B69825  35.248  38.115   7.071
 5408POPC   C4B69826  35.201  37.989   7.537
 5409POPC   NC369827  26.490  32.278   5.540
 5409POPC   PO469828  25.846  32.063   5.359
 5409POPC   GL169829  25.836  32.338   5.734
 5409POPC   GL269830  26.157  32.425   5.907
 5409POPC   C1A69831  25.683  32.372   6.143
 5409POPC   D2A69832  25.988  32.295   6.451
 5409POPC   C3A69833  25.941  32.307   6.864
 5409POPC   C4A69834  25.731  32.323   7.241
 5409POPC   C1B69835  26.360  32.110   6.169
 5409POPC   C2B69836  26.462  32.115   6.609
 5409POPC   C3B69837  26.455  32.247   7.037
 5409POPC   C4B69838  26.410  31.949   7.375
 5410POPC   NC369839  23.282  43.376   5.592
 5410POPC   PO469840  23.233  42.669   5.575
 5410POPC   GL169841  23.182  42.971   5.885
 5410POPC   GL269842  22.826  43.062   5.839
 5410POPC   C1A69843  23.075  43.180   6.285
 5410POPC   D2A69844  22.807  43.045   6.612
 5410POPC   C3A69845  22.942  42.912   7.016
 5410POPC   C4A69846  23.066  43.094   7.403
 5410POPC   C1B69847  22.538  43.234   6.170
 5410POPC   C2B69848  22.401  43.337   6.597
 5410POPC   C3B69849  22.533  43.289   7.057
 5410POPC   C4B69850  22.562  42.953   7.372
 5411POPC   NC369851   2.321  39.645   5.504
 5411POPC   PO469852   2.105  40.298   5.396
 5411POPC   GL169853   1.905  40.064   5.704
 5411POPC   GL269854   2.196  40.010   5.818
 5411POPC   C1A69855   1.778  40.160   6.110
 5411POPC   D2A69856   1.748  39.979   6.516
 5411POPC   C3A69857   1.720  40.292   6.853
 5411POPC   C4A69858   1.587  40.322   7.299
 5411POPC   C1B69859   2.138  39.777   6.179
 5411POPC   C2B69860   2.176  39.710   6.582
 5411POPC   C3B69861   2.032  39.872   6.938
 5411POPC   C4B69862   2.042  40.067   7.294
 5412POPC   NC369863  16.219  44.461   5.473
 5412POPC   PO469864  15.525  44.700   5.611
 5412POPC   GL169865  15.779  44.502   5.931
 5412POPC   GL269866  16.131  44.554   5.952
 5412POPC   C1A69867  15.842  44.450   6.400
 5412POPC   D2A69868  16.045  44.604   6.790
 5412POPC   C3A69869  15.776  44.562   7.167
 5412POPC   C4A69870  15.643  44.439   7.556
 5412POPC   C1B69871  16.119  44.869   6.242
 5412POPC   C2B69872  16.248   0.086   6.576
 5412POPC   C3B69873  16.138   0.081   6.977
 5412POPC   C4B69874  16.190  44.786   7.304
 5413POPC   NC369875  35.839  17.945   5.429
 5413POPC   PO469876  36.235  17.399   5.272
 5413POPC   GL169877  35.863  17.480   5.658
 5413POPC   GL269878  36.111  17.668   5.796
 5413POPC   C1A69879  35.767  17.625   6.160
 5413POPC   D2A69880  36.106  17.547   6.514
 5413POPC   C3A69881  36.055  17.411   6.959
 5413POPC   C4A69882  36.119  17.543   7.383
 5413POPC   C1B69883  36.257  17.882   6.165
 5413POPC   C2B69884  36.316  18.036   6.595
 5413POPC   C3B69885  36.208  17.931   7.039
 5413POPC   C4B69886  36.526  17.837   7.340
 5414POPC   NC369887  43.618   3.225   5.011
 5414POPC   PO469888  43.828   2.700   5.393
 5414POPC   GL169889  43.873   2.593   5.846
 5414POPC   GL269890  44.035   2.914   5.846
 5414POPC   C1A69891  43.915   2.498   6.327
 5414POPC   D2A69892  43.668   2.685   6.697
 5414POPC   C3A69893  43.833   2.697   7.143
 5414POPC   C4A69894  43.683   2.572   7.535
 5414POPC   C1B69895  43.781   2.979   6.207
 5414POPC   C2B69896  43.589   3.168   6.537
 5414POPC   C3B69897  43.613   3.151   6.970
 5414POPC   C4B69898  43.814   3.165   7.361
 5415POPC   NC369899  40.511  34.558   5.371
 5415POPC   PO469900  39.803  34.502   5.314
 5415POPC   GL169901  40.064  34.660   5.650
 5415POPC   GL269902  40.016  34.379   5.889
 5415POPC   C1A69903  40.146  34.861   6.045
 5415POPC   D2A69904  40.186  34.758   6.487
 5415POPC   C3A69905  40.003  34.810   6.861
 5415POPC   C4A69906  40.020  34.586   7.208
 5415POPC   C1B69907  39.744  34.555   6.230
 5415POPC   C2B69908  39.683  34.417   6.678
 5415POPC   C3B69909  39.712  34.180   7.126
 5415POPC   C4B69910  39.841  34.027   7.571
 5416POPC   NC369911  26.690  15.719   5.461
 5416POPC   PO469912  26.749  15.005   5.327
 5416POPC   GL169913  26.790  14.983   5.780
 5416POPC   GL269914  26.609  15.283   5.780
 5416POPC   C1A69915  26.847  15.135   6.247
 5416POPC   D2A69916  26.909  14.955   6.684
 5416POPC   C3A69917  26.893  15.091   7.123
 5416POPC   C4A69918  26.720  14.871   7.468
 5416POPC   C1B69919  26.401  15.381   6.165
 5416POPC   C2B69920  26.599  15.481   6.579
 5416POPC   C3B69921  26.707  15.532   7.000
 5416POPC   C4B69922  27.070  15.664   7.251
 5417POPC   NC369923  38.144   6.107   5.634
 5417POPC   PO469924  38.613   5.604   5.437
 5417POPC   GL169925  38.442   5.713   5.826
 5417POPC   GL269926  38.544   6.029   5.935
 5417POPC   C1A69927  38.262   5.766   6.261
 5417POPC   D2A69928  38.478   5.715   6.660
 5417POPC   C3A69929  38.383   5.877   7.089
 5417POPC   C4A69930  38.228   6.109   7.466
 5417POPC   C1B69931  38.704   6.117   6.347
 5417POPC   C2B69932  38.618   6.213   6.759
 5417POPC   C3B69933  38.429   6.399   7.084
 5417POPC   C4B69934  38.709   6.210   7.378
 5418POPC   NC369935   0.412  42.065   5.473
 5418POPC   PO469936   0.609  41.368   5.349
 5418POPC   GL169937   0.569  41.494   5.787
 5418POPC   GL269938   0.247  41.622   5.880
 5418POPC   C1A69939   0.537  41.273   6.191
 5418POPC   D2A69940   0.313  41.324   6.565
 5418POPC   C3A69941   0.527  41.413   6.918
 5418POPC   C4A69942   0.432  41.157   7.229
 5418POPC   C1B69943   0.074  41.721   6.313
 5418POPC   C2B69944   0.124  41.751   6.807
 5418POPC   C3B69945   0.177  41.628   7.254
 5418POPC   C4B69946   0.037  41.843   7.698
 5419POPC   NC369947  35.432  34.913   5.549
 5419POPC   PO469948  35.340  34.256   5.361
 5419POPC   GL169949  35.264  34.444   5.827
 5419POPC   GL269950  35.059  34.766   5.845
 5419POPC   C1A69951  35.558  34.465   6.292
 5419POPC   D2A69952  35.507  34.217   6.693
 5419POPC   C3A69953  35.332  34.383   7.069
 5419POPC   C4A69954  35.229  34.508   7.461
 5419POPC   C1B69955  35.098  34.662   6.251
 5419POPC   C2B69956  35.179  34.608   6.646
 5419POPC   C3B69957  35.318  34.886   6.942
 5419POPC   C4B69958  35.195  35.007   7.328
 5420POPC   NC369959   5.563  13.835   5.370
 5420POPC   PO469960   6.238  13.857   5.351
 5420POPC   GL169961   5.918  13.672   5.688
 5420POPC   GL269962   5.681  13.452   5.890
 5420POPC   C1A69963   5.795  13.876   6.106
 5420POPC   D2A69964   5.745  13.634   6.490
 5420POPC   C3A69965   5.996  13.765   6.821
 5420POPC   C4A69966   5.924  13.716   7.252
 5420POPC   C1B69967   6.047  13.422   6.156
 5420POPC   C2B69968   6.188  13.336   6.556
 5420POPC   C3B69969   5.969  13.244   6.938
 5420POPC   C4B69970   6.188  13.287   7.321
 5421POPC   NC369971  15.127  18.063   5.543
 5421POPC   PO469972  14.778  18.695   5.462
 5421POPC   GL169973  14.995  18.488   5.858
 5421POPC   GL269974  15.290  18.668   6.006
 5421POPC   C1A69975  14.974  18.109   6.159
 5421POPC   D2A69976  15.204  17.872   6.433
 5421POPC   C3A69977  15.376  18.123   6.760
 5421POPC   C4A69978  15.232  18.020   7.141
 5421POPC   C1B69979  15.192  18.498   6.424
 5421POPC   C2B69980  14.894  18.245   6.666
 5421POPC   C3B69981  14.863  18.367   7.078
 5421POPC   C4B69982  14.968  18.585   7.456
 5422POPC   NC369983   5.779  29.207   5.139
 5422POPC   PO469984   6.225  28.802   5.235
 5422POPC   GL169985   6.047  29.136   5.628
 5422POPC   GL269986   5.712  29.218   5.777
 5422POPC   C1A69987   6.054  29.278   6.132
 5422POPC   D2A69988   5.838  29.166   6.555
 5422POPC   C3A69989   6.042  29.294   6.931
 5422POPC   C4A69990   6.158  29.158   7.322
 5422POPC   C1B69991   5.597  28.950   6.165
 5422POPC   C2B69992   5.568  28.755   6.631
 5422POPC   C3B69993   5.668  28.933   7.045
 5422POPC   C4B69994   5.581  29.318   7.266
 5423POPC   NC369995  19.714  19.256   5.474
 5423POPC   PO469996  20.212  18.877   5.454
 5423POPC   GL169997  20.148  19.036   5.856
 5423POPC   GL269998  20.292  19.373   5.844
 5423POPC   C1A69999  19.919  18.901   6.263
 5423POPC   D2A70000  19.986  18.797   6.715
 5423POPC   C3A70001  19.705  18.972   7.071
 5423POPC   C4A70002  19.364  18.943   7.416
 5423POPC   C1B70003  20.212  19.301   6.292
 5423POPC   C2B70004  20.021  19.310   6.720
 5423POPC   C3B70005  20.050  19.320   7.194
 5423POPC   C4B70006  20.276  19.215   7.579
 5424POPC   NC370007  32.522  25.126   5.509
 5424POPC   PO470008  31.927  25.251   5.581
 5424POPC   GL170009  32.153  25.147   5.916
 5424POPC   GL270010  32.315  24.826   5.917
 5424POPC   C1A70011  32.097  25.322   6.308
 5424POPC   D2A70012  32.357  25.527   6.554
 5424POPC   C3A70013  32.246  25.444   6.956
 5424POPC   C4A70014  32.129  25.448   7.376
 5424POPC   C1B70015  32.052  24.806   6.321
 5424POPC   C2B70016  31.975  25.041   6.740
 5424POPC   C3B70017  32.193  24.968   7.142
 5424POPC   C4B70018  32.266  25.010   7.575
 5425POPC   NC370019  18.887  18.996   4.981
 5425POPC   PO470020  19.314  19.456   5.322
 5425POPC   GL170021  19.139  19.500   5.747
 5425POPC   GL270022  18.790  19.380   5.726
 5425POPC   C1A70023  19.304  19.300   6.139
 5425POPC   D2A70024  19.528  19.201   6.556
 5425POPC   C3A70025  19.241  19.135   6.913
 5425POPC   C4A70026  19.086  19.358   7.242
 5425POPC   C1B70027  18.767  19.188   6.138
 5425POPC   C2B70028  18.842  19.264   6.583
 5425POPC   C3B70029  18.697  19.156   7.002
 5425POPC   C4B70030  18.533  19.177   7.424
 5426POPC   NC370031   7.208   7.439   5.356
 5426POPC   PO470032   7.704   7.745   5.727
 5426POPC   GL170033   7.262   7.660   5.824
 5426POPC   GL270034   7.211   7.284   5.850
 5426POPC   C1A70035   6.935   7.585   6.140
 5426POPC   D2A70036   7.034   7.217   6.401
 5426POPC   C3A70037   7.234   7.377   6.773
 5426POPC   C4A70038   7.388   7.235   7.145
 5426POPC   C1B70039   7.506   7.349   6.208
 5426POPC   C2B70040   7.718   7.605   6.531
 5426POPC   C3B70041   7.724   7.577   6.976
 5426POPC   C4B70042   7.678   7.558   7.420
 5427POPC   NC370043  44.048   4.015   5.448
 5427POPC   PO470044  43.608   4.462   5.264
 5427POPC   GL170045  43.940   4.379   5.752
 5427POPC   GL270046  44.193   4.097   5.917
 5427POPC   C1A70047  43.915   4.401   6.242
 5427POPC   D2A70048  43.960   4.583   6.683
 5427POPC   C3A70049  43.625   4.542   6.970
 5427POPC   C4A70050  43.625   4.238   7.304
 5427POPC   C1B70051  44.288   3.801   6.271
 5427POPC   C2B70052  44.206   3.779   6.719
 5427POPC   C3B70053  43.966   4.080   6.956
 5427POPC   C4B70054  44.071   4.473   7.193
 5428POPC   NC370055  25.570  12.735   5.350
 5428POPC   PO470056  24.935  12.785   5.466
 5428POPC   GL170057  25.190  12.917   5.810
 5428POPC   GL270058  25.536  13.048   5.768
 5428POPC   C1A70059  25.266  12.766   6.212
 5428POPC   D2A70060  25.068  12.818   6.599
 5428POPC   C3A70061  25.311  12.774   6.957
 5428POPC   C4A70062  25.279  12.917   7.371
 5428POPC   C1B70063  25.597  13.178   6.197
 5428POPC   C2B70064  25.763  13.261   6.620
 5428POPC   C3B70065  25.566  13.206   7.039
 5428POPC   C4B70066  25.659  13.241   7.490
 5429POPC   NC370067  24.760   3.603   5.219
 5429POPC   PO470068  25.386   3.451   5.484
 5429POPC   GL170069  25.386   3.375   5.917
 5429POPC   GL270070  25.724   3.379   5.925
 5429POPC   C1A70071  25.396   3.215   6.373
 5429POPC   D2A70072  25.350   3.306   6.863
 5429POPC   C3A70073  24.936   3.242   7.080
 5429POPC   C4A70074  24.654   3.473   7.375
 5429POPC   C1B70075  25.586   3.685   6.277
 5429POPC   C2B70076  25.441   3.841   6.695
 5429POPC   C3B70077  25.386   3.854   7.159
 5429POPC   C4B70078  25.261   3.493   7.439
 5430POPC   NC370079   4.813  41.761   5.424
 5430POPC   PO470080   4.803  41.142   5.577
 5430POPC   GL170081   4.993  41.510   5.881
 5430POPC   GL270082   4.987  41.908   5.865
 5430POPC   C1A70083   4.912  41.571   6.340
 5430POPC   D2A70084   4.663  41.265   6.607
 5430POPC   C3A70085   4.797  41.176   7.004
 5430POPC   C4A70086   4.977  41.549   7.218
 5430POPC   C1B70087   4.936  42.112   6.263
 5430POPC   C2B70088   4.948  41.957   6.702
 5430POPC   C3B70089   5.080  42.065   7.106
 5430POPC   C4B70090   5.167  41.933   7.526
 5431POPC   NC370091  19.507  36.791   5.423
 5431POPC   PO470092  20.115  36.588   5.289
 5431POPC   GL170093  20.048  36.958   5.627
 5431POPC   GL270094  19.715  36.977   5.856
 5431POPC   C1A70095  20.143  37.104   6.067
 5431POPC   D2A70096  20.226  36.883   6.470
 5431POPC   C3A70097  19.940  36.904   6.797
 5431POPC   C4A70098  19.811  36.858   7.219
 5431POPC   C1B70099  19.696  36.808   6.320
 5431POPC   C2B70100  19.626  36.504   6.707
 5431POPC   C3B70101  19.535  36.447   7.174
 5431POPC   C4B70102  19.639  36.599   7.654
 5432POPC   NC370103   9.008  23.166   5.323
 5432POPC   PO470104   9.619  22.924   5.274
 5432POPC   GL170105   9.260  22.927   5.692
 5432POPC   GL270106   8.870  22.930   5.772
 5432POPC   C1A70107   9.140  23.216   6.070
 5432POPC   D2A70108   9.042  23.338   6.493
 5432POPC   C3A70109   9.106  23.011   6.820
 5432POPC   C4A70110   9.163  22.821   7.233
 5432POPC   C1B70111   8.785  22.769   6.203
 5432POPC   C2B70112   8.643  22.887   6.644
 5432POPC   C3B70113   8.637  22.819   7.111
 5432POPC   C4B70114   8.402  22.869   7.508
 5433POPC   NC370115  38.585   6.046   5.330
 5433POPC   PO470116  39.269   5.897   5.253
 5433POPC   GL170117  39.222   6.025   5.673
 5433POPC   GL270118  38.954   5.874   5.694
 5433POPC   C1A70119  39.425   5.905   6.065
 5433POPC   D2A70120  39.284   5.855   6.480
 5433POPC   C3A70121  39.463   5.864   6.864
 5433POPC   C4A70122  39.274   5.845   7.250
 5433POPC   C1B70123  38.943   5.730   6.117
 5433POPC   C2B70124  38.943   5.501   6.529
 5433POPC   C3B70125  38.923   5.769   6.901
 5433POPC   C4B70126  38.793   5.716   7.342
 5434POPC   NC370127  11.009  12.571   5.611
 5434POPC   PO470128  11.400  13.080   5.524
 5434POPC   GL170129  11.374  12.819   5.869
 5434POPC   GL270130  11.062  13.012   5.913
 5434POPC   C1A70131  11.251  12.594   6.257
 5434POPC   D2A70132  11.231  12.757   6.666
 5434POPC   C3A70133  11.073  12.586   7.032
 5434POPC   C4A70134  11.425  12.562   7.265
 5434POPC   C1B70135  11.296  13.130   6.264
 5434POPC   C2B70136  11.186  13.272   6.655
 5434POPC   C3B70137  11.296  13.122   7.052
 5434POPC   C4B70138  11.045  13.003   7.343
 5435POPC   NC370139   9.746  20.768   5.270
 5435POPC   PO470140   9.608  20.135   5.165
 5435POPC   GL170141   9.587  20.444   5.628
 5435POPC   GL270142   9.813  20.795   5.769
 5435POPC   C1A70143   9.622  20.470   6.097
 5435POPC   D2A70144   9.508  20.732   6.445
 5435POPC   C3A70145   9.536  20.646   6.907
 5435POPC   C4A70146   9.731  20.598   7.331
 5435POPC   C1B70147  10.068  20.781   6.166
 5435POPC   C2B70148  10.071  20.595   6.569
 5435POPC   C3B70149  10.047  20.786   6.978
 5435POPC   C4B70150  10.223  20.901   7.379
 5436POPC   NC370151   9.328  42.641   5.350
 5436POPC   PO470152   8.958  43.273   5.426
 5436POPC   GL170153   8.954  43.264   5.866
 5436POPC   GL270154   8.866  42.916   5.879
 5436POPC   C1A70155   9.104  43.132   6.276
 5436POPC   D2A70156   8.957  43.014   6.643
 5436POPC   C3A70157   8.828  43.317   6.914
 5436POPC   C4A70158   9.002  43.225   7.304
 5436POPC   C1B70159   8.583  43.011   6.265
 5436POPC   C2B70160   8.459  42.957   6.730
 5436POPC   C3B70161   8.728  42.845   7.104
 5436POPC   C4B70162   8.945  42.755   7.532
 5437POPC   NC370163  39.892  33.182   5.436
 5437POPC   PO470164  40.196  32.564   5.549
 5437POPC   GL170165  39.878  32.818   5.783
 5437POPC   GL270166  40.043  33.075   5.910
 5437POPC   C1A70167  39.706  32.854   6.215
 5437POPC   D2A70168  39.857  32.635   6.595
 5437POPC   C3A70169  39.796  32.820   7.032
 5437POPC   C4A70170  40.192  32.747   7.267
 5437POPC   C1B70171  39.974  33.344   6.199
 5437POPC   C2B70172  39.941  33.320   6.623
 5437POPC   C3B70173  40.125  33.217   7.003
 5437POPC   C4B70174  39.976  33.197   7.392
 5438POPC   NC370175   4.784  10.622   5.194
 5438POPC   PO470176   5.352  10.329   5.507
 5438POPC   GL170177   5.060  10.515   5.726
 5438POPC   GL270178   5.248  10.823   5.746
 5438POPC   C1A70179   5.015  10.389   6.135
 5438POPC   D2A70180   4.868  10.352   6.546
 5438POPC   C3A70181   5.101  10.313   6.894
 5438POPC   C4A70182   4.979  10.395   7.306
 5438POPC   C1B70183   5.273  10.849   6.195
 5438POPC   C2B70184   5.119  10.826   6.620
 5438POPC   C3B70185   5.238  10.776   7.051
 5438POPC   C4B70186   5.129  10.895   7.440
 5439POPC   NC370187  36.433  33.358   5.637
 5439POPC   PO470188  36.015  32.899   5.346
 5439POPC   GL170189  35.824  32.962   5.823
 5439POPC   GL270190  35.947  33.326   5.849
 5439POPC   C1A70191  35.940  33.010   6.303
 5439POPC   D2A70192  36.352  33.097   6.547
 5439POPC   C3A70193  36.357  32.775   6.859
 5439POPC   C4A70194  35.948  32.809   7.031
 5439POPC   C1B70195  36.026  33.513   6.241
 5439POPC   C2B70196  35.772  33.448   6.590
 5439POPC   C3B70197  35.872  33.540   7.005
 5439POPC   C4B70198  36.233  33.240   7.051
 5440POPC   NC370199   7.095  30.522   5.315
 5440POPC   PO470200   7.694  30.767   5.512
 5440POPC   GL170201   7.681  30.621   5.907
 5440POPC   GL270202   7.366  30.463   5.811
 5440POPC   C1A70203   7.715  30.876   6.289
 5440POPC   D2A70204   7.566  31.032   6.709
 5440POPC   C3A70205   7.424  30.669   6.945
 5440POPC   C4A70206   7.604  30.277   7.148
 5440POPC   C1B70207   7.292  30.469   6.255
 5440POPC   C2B70208   7.010  30.610   6.570
 5440POPC   C3B70209   6.934  30.503   7.003
 5440POPC   C4B70210   7.147  30.476   7.327
 5441POPC   NC370211  33.997  15.534   5.431
 5441POPC   PO470212  33.479  15.095   5.382
 5441POPC   GL170213  33.712  15.278   5.757
 5441POPC   GL270214  34.084  15.144   5.771
 5441POPC   C1A70215  33.835  15.342   6.207
 5441POPC   D2A70216  33.870  15.170   6.650
 5441POPC   C3A70217  33.684  15.294   7.059
 5441POPC   C4A70218  33.823  15.204   7.471
 5441POPC   C1B70219  34.269  15.003   6.178
 5441POPC   C2B70220  34.296  14.899   6.646
 5441POPC   C3B70221  34.079  14.924   7.084
 5441POPC   C4B70222  34.000  14.714   7.483
 5442POPC   NC370223  14.313   4.636   5.402
 5442POPC   PO470224  14.364   3.940   5.427
 5442POPC   GL170225  14.346   4.086   5.817
 5442POPC   GL270226  14.555   4.369   5.816
 5442POPC   C1A70227  14.060   4.279   6.091
 5442POPC   D2A70228  13.993   4.137   6.494
 5442POPC   C3A70229  14.300   4.071   6.769
 5442POPC   C4A70230  14.140   4.209   7.135
 5442POPC   C1B70231  14.546   4.252   6.272
 5442POPC   C2B70232  14.558   4.499   6.655
 5442POPC   C3B70233  14.681   4.434   7.101
 5442POPC   C4B70234  14.830   4.532   7.542
 5443POPC   NC370235  28.905  23.863   5.401
 5443POPC   PO470236  29.590  23.733   5.537
 5443POPC   GL170237  29.226  23.667   5.774
 5443POPC   GL270238  29.348  23.334   5.766
 5443POPC   C1A70239  29.089  23.772   6.195
 5443POPC   D2A70240  29.303  23.815   6.590
 5443POPC   C3A70241  29.095  23.827   6.991
 5443POPC   C4A70242  28.953  23.470   7.221
 5443POPC   C1B70243  29.604  23.396   6.130
 5443POPC   C2B70244  29.466  23.310   6.555
 5443POPC   C3B70245  29.423  23.441   6.972
 5443POPC   C4B70246  29.387  23.245   7.378
 5444POPC   NC370247  19.010  38.715   5.408
 5444POPC   PO470248  18.953  38.055   5.404
 5444POPC   GL170249  18.857  38.202   5.823
 5444POPC   GL270250  18.758  38.557   5.822
 5444POPC   C1A70251  19.174  38.156   6.175
 5444POPC   D2A70252  19.410  38.376   6.512
 5444POPC   C3A70253  19.297  38.303   6.922
 5444POPC   C4A70254  19.308  38.558   7.253
 5444POPC   C1B70255  18.827  38.529   6.266
 5444POPC   C2B70256  18.833  38.369   6.717
 5444POPC   C3B70257  18.809  38.613   7.129
 5444POPC   C4B70258  18.853  38.643   7.596
 5445POPC   NC370259  38.554  28.008   5.499
 5445POPC   PO470260  38.132  27.503   5.343
 5445POPC   GL170261  38.294  27.442   5.789
 5445POPC   GL270262  38.427  27.739   5.904
 5445POPC   C1A70263  38.161  27.481   6.271
 5445POPC   D2A70264  38.070  27.717   6.684
 5445POPC   C3A70265  38.432  27.722   6.974
 5445POPC   C4A70266  38.643  27.590   7.365
 5445POPC   C1B70267  38.455  27.979   6.274
 5445POPC   C2B70268  38.739  28.033   6.611
 5445POPC   C3B70269  38.928  27.814   6.933
 5445POPC   C4B70270  38.948  27.985   7.313
 5446POPC   NC370271  25.843  43.494   5.463
 5446POPC   PO470272  25.764  42.840   5.512
 5446POPC   GL170273  25.944  43.004   5.896
 5446POPC   GL270274  25.866  43.350   5.955
 5446POPC   C1A70275  25.989  42.998   6.358
 5446POPC   D2A70276  26.328  43.037   6.653
 5446POPC   C3A70277  26.245  43.140   7.070
 5446POPC   C4A70278  25.834  43.058   7.176
 5446POPC   C1B70279  25.792  43.478   6.381
 5446POPC   C2B70280  25.833  43.430   6.825
 5446POPC   C3B70281  25.968  43.592   7.218
 5446POPC   C4B70282  26.066  43.401   7.585
 5447POPC   NC370283  44.864  38.750   5.469
 5447POPC   PO470284  44.394  38.244   5.385
 5447POPC   GL170285  44.480  38.321   5.831
 5447POPC   GL270286  44.721  38.071   5.928
 5447POPC   C1A70287  44.592  38.378   6.303
 5447POPC   D2A70288  44.895  38.665   6.516
 5447POPC   C3A70289  44.879  38.551   6.954
 5447POPC   C4A70290  44.586  38.321   7.258
 5447POPC   C1B70291   0.076  37.956   6.157
 5447POPC   C2B70292   0.044  38.133   6.549
 5447POPC   C3B70293  44.787  38.030   6.882
 5447POPC   C4B70294   0.051  38.147   7.229
 5448POPC   NC370295  17.947  32.801   5.338
 5448POPC   PO470296  18.499  33.068   5.163
 5448POPC   GL170297  18.431  33.029   5.633
 5448POPC   GL270298  18.723  33.156   5.818
 5448POPC   C1A70299  18.294  33.168   6.092
 5448POPC   D2A70300  18.266  33.213   6.577
 5448POPC   C3A70301  18.244  32.824   6.852
 5448POPC   C4A70302  18.421  32.676   7.249
 5448POPC   C1B70303  18.747  32.965   6.264
 5448POPC   C2B70304  18.739  33.074   6.721
 5448POPC   C3B70305  18.502  33.173   7.109
 5448POPC   C4B70306  18.405  33.071   7.568
 5449POPC   NC370307  37.043  22.336   5.387
 5449POPC   PO470308  37.136  21.630   5.307
 5449POPC   GL170309  37.113  21.957   5.706
 5449POPC   GL270310  36.768  22.084   5.755
 5449POPC   C1A70311  37.210  22.242   6.104
 5449POPC   D2A70312  36.972  22.486   6.438
 5449POPC   C3A70313  37.081  22.434   6.871
 5449POPC   C4A70314  37.039  22.341   7.300
 5449POPC   C1B70315  36.712  22.083   6.191
 5449POPC   C2B70316  36.612  22.171   6.591
 5449POPC   C3B70317  36.738  22.060   6.991
 5449POPC   C4B70318  36.500  21.963   7.350
 5450POPC   NC370319  29.697   5.095   4.853
 5450POPC   PO470320  30.011   5.093   5.485
 5450POPC   GL170321  29.917   5.052   5.940
 5450POPC   GL270322  29.581   5.172   5.938
 5450POPC   C1A70323  29.878   5.253   6.362
 5450POPC   D2A70324  29.780   5.073   6.753
 5450POPC   C3A70325  29.903   5.312   7.087
 5450POPC   C4A70326  30.115   5.376   7.465
 5450POPC   C1B70327  29.538   4.868   6.298
 5450POPC   C2B70328  29.529   4.628   6.690
 5450POPC   C3B70329  29.739   4.662   7.112
 5450POPC   C4B70330  29.904   4.918   7.448
 5451POPC   NC370331  34.880  14.242   5.437
 5451POPC   PO470332  35.540  14.226   5.432
 5451POPC   GL170333  35.229  14.346   5.792
 5451POPC   GL270334  35.489  14.527   5.960
 5451POPC   C1A70335  35.072  14.470   6.207
 5451POPC   D2A70336  35.432  14.403   6.502
 5451POPC   C3A70337  35.305  14.349   6.941
 5451POPC   C4A70338  35.526  14.359   7.317
 5451POPC   C1B70339  35.712  14.195   6.107
 5451POPC   C2B70340  35.752  13.992   6.499
 5451POPC   C3B70341  35.822  14.201   6.904
 5451POPC   C4B70342  35.934  14.087   7.327
 5452POPC   NC370343  38.830  35.046   5.459
 5452POPC   PO470344  38.286  35.340   5.338
 5452POPC   GL170345  38.442  35.295   5.757
 5452POPC   GL270346  38.765  35.440   5.828
 5452POPC   C1A70347  38.391  35.411   6.201
 5452POPC   D2A70348  38.499  35.262   6.617
 5452POPC   C3A70349  38.425  35.379   7.070
 5452POPC   C4A70350  38.340  35.618   7.455
 5452POPC   C1B70351  38.769  35.034   6.106
 5452POPC   C2B70352  38.705  34.793   6.502
 5452POPC   C3B70353  38.732  34.965   6.953
 5452POPC   C4B70354  38.810  34.994   7.429
 5453POPC   NC370355  28.341  37.168   5.482
 5453POPC   PO470356  28.378  37.818   5.518
 5453POPC   GL170357  28.303  37.839   5.917
 5453POPC   GL270358  27.971  37.955   5.883
 5453POPC   C1A70359  28.313  37.637   6.313
 5453POPC   D2A70360  28.609  37.563   6.643
 5453POPC   C3A70361  28.427  37.716   7.014
 5453POPC   C4A70362  28.550  37.901   7.383
 5453POPC   C1B70363  27.868  37.925   6.307
 5453POPC   C2B70364  28.073  37.938   6.695
 5453POPC   C3B70365  28.030  38.065   7.126
 5453POPC   C4B70366  28.139  38.089   7.581
 5454POPC   NC370367  24.928  18.581   5.528
 5454POPC   PO470368  25.619  18.462   5.333
 5454POPC   GL170369  25.333  18.326   5.716
 5454POPC   GL270370  25.507  18.131   5.939
 5454POPC   C1A70371  25.178  18.388   6.192
 5454POPC   D2A70372  25.281  18.090   6.554
 5454POPC   C3A70373  25.018  18.109   6.958
 5454POPC   C4A70374  25.027  18.488   7.210
 5454POPC   C1B70375  25.732  18.183   6.277
 5454POPC   C2B70376  25.941  17.971   6.596
 5454POPC   C3B70377  25.707  17.945   6.944
 5454POPC   C4B70378  25.454  18.171   7.212
 5455POPC   NC370379  15.345  23.977   5.300
 5455POPC   PO470380  15.417  23.371   5.647
 5455POPC   GL170381  15.405  23.720   5.917
 5455POPC   GL270382  15.109  23.922   5.842
 5455POPC   C1A70383  15.440  23.866   6.370
 5455POPC   D2A70384  15.433  23.951   6.843
 5455POPC   C3A70385  15.363  23.600   7.166
 5455POPC   C4A70386  15.006  23.599   7.494
 5455POPC   C1B70387  14.977  24.067   6.242
 5455POPC   C2B70388  14.932  23.884   6.652
 5455POPC   C3B70389  14.904  23.892   7.087
 5455POPC   C4B70390  15.225  24.050   7.325
 5456POPC   NC370391   0.232  17.570   5.368
 5456POPC   PO470392   0.795  17.305   5.664
 5456POPC   GL170393   0.666  17.621   5.900
 5456POPC   GL270394   0.345  17.511   5.863
 5456POPC   C1A70395   0.620  17.799   6.286
 5456POPC   D2A70396   0.770  17.978   6.661
 5456POPC   C3A70397   0.660  17.681   6.965
 5456POPC   C4A70398   0.651  17.688   7.372
 5456POPC   C1B70399   0.180  17.409   6.233
 5456POPC   C2B70400   0.369  17.392   6.633
 5456POPC   C3B70401   0.110  17.635   6.885
 5456POPC   C4B70402  44.921  17.550   7.270
 5457POPC   NC370403  16.517  24.682   5.282
 5457POPC   PO470404  17.050  24.304   5.458
 5457POPC   GL170405  17.018  24.441   5.850
 5457POPC   GL270406  16.765  24.663   5.786
 5457POPC   C1A70407  16.839  24.396   6.255
 5457POPC   D2A70408  17.037  24.261   6.617
 5457POPC   C3A70409  16.753  24.132   6.922
 5457POPC   C4A70410  16.750  24.292   7.320
 5457POPC   C1B70411  16.574  24.869   6.168
 5457POPC   C2B70412  16.392  24.830   6.571
 5457POPC   C3B70413  16.705  24.646   6.846
 5457POPC   C4B70414  16.827  24.813   7.206
 5458POPC   NC370415   6.683  28.660   5.250
 5458POPC   PO470416   7.010  29.170   5.532
 5458POPC   GL170417   6.624  29.208   5.720
 5458POPC   GL270418   6.479  28.881   5.702
 5458POPC   C1A70419   6.601  29.217   6.150
 5458POPC   D2A70420   6.824  29.122   6.536
 5458POPC   C3A70421   6.609  29.274   6.916
 5458POPC   C4A70422   6.870  29.255   7.238
 5458POPC   C1B70423   6.288  28.828   6.114
 5458POPC   C2B70424   6.319  29.065   6.541
 5458POPC   C3B70425   6.329  28.845   6.950
 5458POPC   C4B70426   6.569  28.846   7.373
 5459POPC   NC370427  28.550  12.037   4.776
 5459POPC   PO470428  28.414  12.012   5.327
 5459POPC   GL170429  28.510  11.854   5.759
 5459POPC   GL270430  28.838  11.973   5.825
 5459POPC   C1A70431  28.443  11.785   6.227
 5459POPC   D2A70432  28.554  11.952   6.661
 5459POPC   C3A70433  28.189  12.120   6.923
 5459POPC   C4A70434  27.960  12.006   7.323
 5459POPC   C1B70435  28.633  12.250   6.147
 5459POPC   C2B70436  28.520  12.450   6.549
 5459POPC   C3B70437  28.638  12.371   6.977
 5459POPC   C4B70438  28.566  12.029   7.265
 5460POPC   NC370439  34.937  43.013   5.459
 5460POPC   PO470440  34.286  43.131   5.225
 5460POPC   GL170441  34.436  43.004   5.636
 5460POPC   GL270442  34.590  43.264   5.748
 5460POPC   C1A70443  34.430  42.893   6.096
 5460POPC   D2A70444  34.185  42.774   6.489
 5460POPC   C3A70445  34.345  42.963   6.880
 5460POPC   C4A70446  34.543  42.882   7.284
 5460POPC   C1B70447  34.535  43.398   6.152
 5460POPC   C2B70448  34.665  43.261   6.539
 5460POPC   C3B70449  34.697  43.394   6.950
 5460POPC   C4B70450  34.784  43.336   7.396
 5461POPC   NC370451  44.983  10.263   5.343
 5461POPC   PO470452  44.536   9.736   5.513
 5461POPC   GL170453  44.661   9.871   5.898
 5461POPC   GL270454   0.002   9.780   5.822
 5461POPC   C1A70455  44.523   9.757   6.327
 5461POPC   D2A70456  44.507   9.499   6.737
 5461POPC   C3A70457  44.485   9.687   7.180
 5461POPC   C4A70458  44.455  10.032   7.522
 5461POPC   C1B70459   0.047   9.891   6.235
 5461POPC   C2B70460  44.964   9.758   6.635
 5461POPC   C3B70461  44.963   9.589   7.032
 5461POPC   C4B70462  44.901   9.905   7.374
 5462POPC   NC370463  38.913  41.781   5.416
 5462POPC   PO470464  39.385  41.287   5.470
 5462POPC   GL170465  39.054  41.391   5.751
 5462POPC   GL270466  39.246  41.690   5.823
 5462POPC   C1A70467  38.935  41.550   6.178
 5462POPC   D2A70468  39.119  41.766   6.551
 5462POPC   C3A70469  39.098  41.543   6.951
 5462POPC   C4A70470  39.022  41.636   7.398
 5462POPC   C1B70471  39.546  41.851   6.157
 5462POPC   C2B70472  39.590  42.013   6.582
 5462POPC   C3B70473  39.486  41.935   7.015
 5462POPC   C4B70474  39.511  41.563   7.250
 5463POPC   NC370475   0.227   6.160   5.375
 5463POPC   PO470476  44.942   5.581   5.269
 5463POPC   GL170477   0.150   5.744   5.708
 5463POPC   GL270478   0.096   6.092   5.872
 5463POPC   C1A70479   0.453   5.793   6.115
 5463POPC   D2A70480   0.813   5.834   6.456
 5463POPC   C3A70481   0.683   5.859   6.929
 5463POPC   C4A70482   0.384   5.719   7.224
 5463POPC   C1B70483   0.179   6.166   6.346
 5463POPC   C2B70484   0.182   5.981   6.788
 5463POPC   C3B70485   0.158   6.184   7.208
 5463POPC   C4B70486   0.194   6.270   7.691
 5464POPC   NC370487  36.501  13.667   5.029
 5464POPC   PO470488  35.866  13.491   5.238
 5464POPC   GL170489  35.693  13.448   5.683
 5464POPC   GL270490  35.827  13.788   5.810
 5464POPC   C1A70491  35.825  13.389   6.134
 5464POPC   D2A70492  36.033  13.538   6.521
 5464POPC   C3A70493  35.881  13.682   6.911
 5464POPC   C4A70494  36.008  13.592   7.332
 5464POPC   C1B70495  36.136  13.919   6.162
 5464POPC   C2B70496  36.239  14.055   6.613
 5464POPC   C3B70497  36.335  13.942   7.050
 5464POPC   C4B70498  36.427  13.983   7.502
 5465POPC   NC370499   9.064  32.422   5.338
 5465POPC   PO470500   8.446  32.031   5.203
 5465POPC   GL170501   8.840  32.064   5.617
 5465POPC   GL270502   9.072  31.932   5.916
 5465POPC   C1A70503   8.970  32.403   6.005
 5465POPC   D2A70504   8.922  32.436   6.484
 5465POPC   C3A70505   9.089  32.161   6.844
 5465POPC   C4A70506   9.132  32.293   7.294
 5465POPC   C1B70507   8.752  31.976   6.294
 5465POPC   C2B70508   8.593  32.124   6.733
 5465POPC   C3B70509   8.695  31.997   7.177
 5465POPC   C4B70510   8.922  31.895   7.568
 5466POPC   NC370511  40.923   5.347   5.390
 5466POPC   PO470512  40.512   5.006   5.584
 5466POPC   GL170513  40.854   5.061   5.898
 5466POPC   GL270514  40.955   5.422   5.902
 5466POPC   C1A70515  40.944   4.793   6.290
 5466POPC   D2A70516  41.189   4.855   6.681
 5466POPC   C3A70517  41.052   4.965   7.088
 5466POPC   C4A70518  40.910   5.306   7.291
 5466POPC   C1B70519  40.736   5.401   6.283
 5466POPC   C2B70520  40.617   5.086   6.590
 5466POPC   C3B70521  40.553   4.928   6.975
 5466POPC   C4B70522  40.504   4.969   7.379
 5467POPC   NC370523  42.511   2.766   5.303
 5467POPC   PO470524  41.918   2.502   5.364
 5467POPC   GL170525  42.182   2.800   5.706
 5467POPC   GL270526  42.519   3.028   5.748
 5467POPC   C1A70527  42.181   2.931   6.139
 5467POPC   D2A70528  42.212   3.055   6.573
 5467POPC   C3A70529  42.307   2.699   6.840
 5467POPC   C4A70530  42.455   2.597   7.228
 5467POPC   C1B70531  42.604   3.214   6.198
 5467POPC   C2B70532  42.718   3.178   6.648
 5467POPC   C3B70533  42.597   3.059   7.044
 5467POPC   C4B70534  42.208   3.058   7.230
 5468POPC   NC370535  30.311  24.934   5.160
 5468POPC   PO470536  30.714  24.407   5.172
 5468POPC   GL170537  30.773  24.518   5.632
 5468POPC   GL270538  30.983  24.796   5.775
 5468POPC   C1A70539  30.619  24.431   6.044
 5468POPC   D2A70540  30.444  24.517   6.421
 5468POPC   C3A70541  30.604  24.465   6.827
 5468POPC   C4A70542  30.499  24.702   7.174
 5468POPC   C1B70543  30.789  24.885   6.193
 5468POPC   C2B70544  31.000  24.846   6.612
 5468POPC   C3B70545  30.954  24.913   7.059
 5468POPC   C4B70546  30.887  24.870   7.499
 5469POPC   NC370547  17.987  11.215   5.404
 5469POPC   PO470548  17.334  11.068   5.352
 5469POPC   GL170549  17.425  11.322   5.743
 5469POPC   GL270550  17.133  11.431   5.893
 5469POPC   C1A70551  17.523  11.397   6.221
 5469POPC   D2A70552  17.494  11.235   6.659
 5469POPC   C3A70553  17.578  11.456   7.039
 5469POPC   C4A70554  17.993  11.497   7.241
 5469POPC   C1B70555  17.152  11.059   6.168
 5469POPC   C2B70556  17.069  10.966   6.630
 5469POPC   C3B70557  17.280  10.988   7.069
 5469POPC   C4B70558  17.243  11.013   7.552
 5470POPC   NC370559   0.634   7.888   5.363
 5470POPC   PO470560   0.439   7.207   5.301
 5470POPC   GL170561   0.276   7.274   5.733
 5470POPC   GL270562   0.106   7.599   5.815
 5470POPC   C1A70563   0.267   7.164   6.182
 5470POPC   D2A70564   0.644   7.253   6.433
 5470POPC   C3A70565   0.605   7.423   6.857
 5470POPC   C4A70566   0.422   7.367   7.252
 5470POPC   C1B70567   0.466   7.640   6.080
 5470POPC   C2B70568   0.556   7.795   6.495
 5470POPC   C3B70569   0.330   7.867   6.877
 5470POPC   C4B70570   0.212   7.816   7.299
 5471POPC   NC370571  44.107   7.271   5.344
 5471POPC   PO470572  43.707   7.778   5.346
 5471POPC   GL170573  43.937   7.619   5.723
 5471POPC   GL270574  43.832   7.288   5.800
 5471POPC   C1A70575  44.171   7.612   6.138
 5471POPC   D2A70576  44.070   7.638   6.594
 5471POPC   C3A70577  43.727   7.450   6.834
 5471POPC   C4A70578  43.749   7.350   7.271
 5471POPC   C1B70579  44.117   7.096   6.122
 5471POPC   C2B70580  44.043   7.102   6.581
 5471POPC   C3B70581  44.217   7.251   6.985
 5471POPC   C4B70582  44.254   7.212   7.437
 5472POPC   NC370583  18.903  10.146   5.185
 5472POPC   PO470584  19.444   9.812   5.229
 5472POPC   GL170585  19.046   9.865   5.608
 5472POPC   GL270586  18.819   9.570   5.724
 5472POPC   C1A70587  19.001   9.810   6.131
 5472POPC   D2A70588  18.845   9.971   6.524
 5472POPC   C3A70589  19.042   9.812   6.890
 5472POPC   C4A70590  19.254  10.076   7.185
 5472POPC   C1B70591  18.665   9.417   6.177
 5472POPC   C2B70592  18.714   9.481   6.654
 5472POPC   C3B70593  18.810   9.317   7.108
 5472POPC   C4B70594  18.832   9.414   7.620
 5473POPC   NC370595  40.915  28.682   5.133
 5473POPC   PO470596  40.685  28.102   5.393
 5473POPC   GL170597  40.686  28.213   5.812
 5473POPC   GL270598  40.848  28.534   5.756
 5473POPC   C1A70599  40.749  28.193   6.259
 5473POPC   D2A70600  40.481  28.159   6.639
 5473POPC   C3A70601  40.704  28.145   7.045
 5473POPC   C4A70602  40.746  28.204   7.472
 5473POPC   C1B70603  40.706  28.742   6.088
 5473POPC   C2B70604  40.679  28.679   6.511
 5473POPC   C3B70605  40.787  28.616   6.913
 5473POPC   C4B70606  40.875  28.666   7.340
 5474POPC   NC370607  43.314  34.971   5.562
 5474POPC   PO470608  42.768  34.563   5.523
 5474POPC   GL170609  42.883  34.358   5.875
 5474POPC   GL270610  43.213  34.443   5.801
 5474POPC   C1A70611  42.879  34.510   6.275
 5474POPC   D2A70612  43.154  34.612   6.618
 5474POPC   C3A70613  42.914  34.522   6.976
 5474POPC   C4A70614  42.995  34.459   7.399
 5474POPC   C1B70615  43.288  34.195   6.174
 5474POPC   C2B70616  43.324  34.115   6.623
 5474POPC   C3B70617  43.299  34.191   7.084
 5474POPC   C4B70618  43.471  34.156   7.507
 5475POPC   NC370619  21.324  34.682   5.290
 5475POPC   PO470620  20.780  35.047   5.419
 5475POPC   GL170621  21.119  34.841   5.714
 5475POPC   GL270622  21.527  34.776   5.741
 5475POPC   C1A70623  21.187  34.600   6.086
 5475POPC   D2A70624  21.165  34.361   6.438
 5475POPC   C3A70625  21.100  34.522   6.858
 5475POPC   C4A70626  21.146  34.300   7.258
 5475POPC   C1B70627  21.693  34.725   6.161
 5475POPC   C2B70628  21.661  34.428   6.493
 5475POPC   C3B70629  21.803  34.427   6.885
 5475POPC   C4B70630  21.537  34.703   7.099
 5476POPC   NC370631  36.038  16.340   5.481
 5476POPC   PO470632  36.301  15.718   5.394
 5476POPC   GL170633  36.102  15.853   5.800
 5476POPC   GL270634  36.060  16.198   5.971
 5476POPC   C1A70635  36.294  15.818   6.231
 5476POPC   D2A70636  36.447  15.707   6.632
 5476POPC   C3A70637  36.263  15.573   7.005
 5476POPC   C4A70638  36.134  15.891   7.276
 5476POPC   C1B70639  35.803  15.922   6.258
 5476POPC   C2B70640  35.929  15.908   6.681
 5476POPC   C3B70641  35.729  16.050   7.023
 5476POPC   C4B70642  35.801  16.270   7.387
 5477POPC   NC370643  14.081  43.998   5.400
 5477POPC   PO470644  14.470  43.546   5.610
 5477POPC   GL170645  14.242  43.859   5.862
 5477POPC   GL270646  14.415  44.180   5.769
 5477POPC   C1A70647  14.185  43.871   6.285
 5477POPC   D2A70648  14.449  43.739   6.619
 5477POPC   C3A70649  14.251  43.813   6.989
 5477POPC   C4A70650  14.180  43.595   7.354
 5477POPC   C1B70651  14.444  44.297   6.195
 5477POPC   C2B70652  14.295  44.262   6.612
 5477POPC   C3B70653  14.428  44.290   7.016
 5477POPC   C4B70654  14.103  44.232   7.297
 5478POPC   NC370655  13.398   0.324   5.275
 5478POPC   PO470656  13.758   0.863   5.085
 5478POPC   GL170657  13.861   0.651   5.534
 5478POPC   GL270658  13.570   0.561   5.674
 5478POPC   C1A70659  13.901   0.450   6.003
 5478POPC   D2A70660  13.662   0.224   6.300
 5478POPC   C3A70661  13.784   0.378   6.696
 5478POPC   C4A70662  13.859   0.428   7.119
 5478POPC   C1B70663  13.445   0.700   6.072
 5478POPC   C2B70664  13.367   0.624   6.488
 5478POPC   C3B70665  13.400   0.793   6.883
 5478POPC   C4B70666  13.302   0.602   7.236
 5479POPC   NC370667  30.492   8.092   5.510
 5479POPC   PO470668  31.061   8.073   5.212
 5479POPC   GL170669  31.016   8.184   5.714
 5479POPC   GL270670  30.696   8.122   5.957
 5479POPC   C1A70671  31.090   8.255   6.204
 5479POPC   D2A70672  30.814   8.297   6.589
 5479POPC   C3A70673  30.979   8.263   7.002
 5479POPC   C4A70674  30.877   8.438   7.370
 5479POPC   C1B70675  30.428   8.405   6.238
 5479POPC   C2B70676  30.256   8.383   6.667
 5479POPC   C3B70677  30.480   8.436   7.028
 5479POPC   C4B70678  30.561   8.062   7.225
 5480POPC   NC370679  32.081   9.039   5.269
 5480POPC   PO470680  32.609   8.756   5.456
 5480POPC   GL170681  32.368   9.005   5.755
 5480POPC   GL270682  31.974   9.005   5.766
 5480POPC   C1A70683  32.358   9.045   6.205
 5480POPC   D2A70684  32.415   8.890   6.623
 5480POPC   C3A70685  32.271   9.055   6.990
 5480POPC   C4A70686  32.102   8.759   7.250
 5480POPC   C1B70687  31.806   8.966   6.184
 5480POPC   C2B70688  31.896   8.989   6.627
 5480POPC   C3B70689  31.716   9.056   7.047
 5480POPC   C4B70690  31.963   9.254   7.381
 5481POPC   NC370691   9.085  30.742   5.311
 5481POPC   PO470692   8.611  31.164   5.553
 5481POPC   GL170693   8.966  31.012   5.814
 5481POPC   GL270694   8.997  30.657   5.797
 5481POPC   C1A70695   9.162  30.870   6.232
 5481POPC   D2A70696   9.130  30.612   6.614
 5481POPC   C3A70697   9.132  30.885   6.997
 5481POPC   C4A70698   9.481  30.945   7.341
 5481POPC   C1B70699   8.745  30.566   6.156
 5481POPC   C2B70700   8.601  30.753   6.552
 5481POPC   C3B70701   8.554  30.556   6.948
 5481POPC   C4B70702   8.753  30.453   7.313
 5482POPC   NC370703  37.414  18.090   5.427
 5482POPC   PO470704  37.953  18.382   5.527
 5482POPC   GL170705  37.708  18.203   5.839
 5482POPC   GL270706  37.455  18.393   5.978
 5482POPC   C1A70707  37.578  17.962   6.208
 5482POPC   D2A70708  37.487  17.945   6.636
 5482POPC   C3A70709  37.768  18.204   6.873
 5482POPC   C4A70710  37.954  18.172   7.264
 5482POPC   C1B70711  37.180  18.313   6.286
 5482POPC   C2B70712  37.183  18.410   6.684
 5482POPC   C3B70713  37.253  18.207   7.007
 5482POPC   C4B70714  37.430  18.212   7.377
 5483POPC   NC370715  33.605   9.263   5.309
 5483POPC   PO470716  34.234   9.208   5.556
 5483POPC   GL170717  34.021   8.888   5.813
 5483POPC   GL270718  33.676   8.916   5.781
 5483POPC   C1A70719  33.995   8.916   6.229
 5483POPC   D2A70720  33.690   8.934   6.507
 5483POPC   C3A70721  33.853   8.949   6.880
 5483POPC   C4A70722  33.740   8.979   7.283
 5483POPC   C1B70723  33.657   8.569   6.112
 5483POPC   C2B70724  33.501   8.462   6.572
 5483POPC   C3B70725  33.375   8.722   6.870
 5483POPC   C4B70726  33.399   8.627   7.261
 5484POPC   NC370727  13.870  17.006   5.474
 5484POPC   PO470728  13.469  17.584   5.449
 5484POPC   GL170729  13.709  17.609   5.760
 5484POPC   GL270730  13.576  17.250   5.839
 5484POPC   C1A70731  13.588  17.770   6.133
 5484POPC   D2A70732  13.421  17.512   6.480
 5484POPC   C3A70733  13.456  17.700   6.876
 5484POPC   C4A70734  13.471  17.646   7.294
 5484POPC   C1B70735  13.504  17.052   6.239
 5484POPC   C2B70736  13.434  16.997   6.669
 5484POPC   C3B70737  13.395  17.195   7.059
 5484POPC   C4B70738  13.590  17.205   7.474
 5485POPC   NC370739  31.940  38.706   5.386
 5485POPC   PO470740  32.542  38.323   5.397
 5485POPC   GL170741  32.276  38.478   5.733
 5485POPC   GL270742  31.967  38.295   5.694
 5485POPC   C1A70743  32.299  38.286   6.148
 5485POPC   D2A70744  32.451  38.354   6.562
 5485POPC   C3A70745  32.381  38.627   6.938
 5485POPC   C4A70746  32.496  38.510   7.382
 5485POPC   C1B70747  31.802  38.342   6.101
 5485POPC   C2B70748  31.898  38.399   6.513
 5485POPC   C3B70749  32.025  38.229   6.890
 5485POPC   C4B70750  31.999  38.497   7.253
 5486POPC   NC370751  27.352  37.299   5.422
 5486POPC   PO470752  26.678  37.605   5.321
 5486POPC   GL170753  26.818  37.822   5.716
 5486POPC   GL270754  26.543  37.969   5.891
 5486POPC   C1A70755  27.091  37.745   6.094
 5486POPC   D2A70756  27.087  37.454   6.475
 5486POPC   C3A70757  26.848  37.551   6.846
 5486POPC   C4A70758  26.951  37.482   7.261
 5486POPC   C1B70759  26.751  38.059   6.297
 5486POPC   C2B70760  27.038  38.007   6.649
 5486POPC   C3B70761  26.904  38.050   7.078
 5486POPC   C4B70762  26.840  37.911   7.497
 5487POPC   NC370763  31.104   9.161   5.445
 5487POPC   PO470764  31.649   8.876   5.307
 5487POPC   GL170765  31.432   8.806   5.682
 5487POPC   GL270766  31.444   9.102   5.840
 5487POPC   C1A70767  31.411   8.633   6.107
 5487POPC   D2A70768  31.536   8.650   6.553
 5487POPC   C3A70769  31.298   8.663   6.967
 5487POPC   C4A70770  31.183   8.850   7.401
 5487POPC   C1B70771  31.253   9.099   6.250
 5487POPC   C2B70772  31.252   9.087   6.698
 5487POPC   C3B70773  31.158   9.252   7.102
 5487POPC   C4B70774  31.044   9.629   7.350
 5488POPC   NC370775   7.422  18.813   5.379
 5488POPC   PO470776   7.540  18.194   5.392
 5488POPC   GL170777   7.738  18.373   5.776
 5488POPC   GL270778   7.700  18.735   5.807
 5488POPC   C1A70779   7.777  18.267   6.228
 5488POPC   D2A70780   7.470  18.282   6.564
 5488POPC   C3A70781   7.606  18.256   6.973
 5488POPC   C4A70782   7.374  18.284   7.336
 5488POPC   C1B70783   7.388  18.576   6.119
 5488POPC   C2B70784   7.233  18.733   6.520
 5488POPC   C3B70785   7.251  18.643   6.946
 5488POPC   C4B70786   7.056  18.683   7.331
 5489POPC   NC370787  34.107  28.445   5.021
 5489POPC   PO470788  33.655  28.271   5.478
 5489POPC   GL170789  33.912  28.435   5.796
 5489POPC   GL270790  33.607  28.524   5.945
 5489POPC   C1A70791  34.009  28.704   6.181
 5489POPC   D2A70792  33.787  28.693   6.542
 5489POPC   C3A70793  33.980  28.463   6.901
 5489POPC   C4A70794  33.851  28.543   7.299
 5489POPC   C1B70795  33.806  28.190   6.241
 5489POPC   C2B70796  33.841  28.014   6.700
 5489POPC   C3B70797  33.596  28.119   7.112
 5489POPC   C4B70798  33.552  28.185   7.570
 5490POPC   NC370799   2.183   5.923   5.343
 5490POPC   PO470800   1.545   5.737   5.208
 5490POPC   GL170801   1.690   5.958   5.660
 5490POPC   GL270802   2.022   6.108   5.773
 5490POPC   C1A70803   1.703   6.143   6.143
 5490POPC   D2A70804   1.923   6.190   6.558
 5490POPC   C3A70805   1.804   5.886   6.868
 5490POPC   C4A70806   1.832   5.804   7.313
 5490POPC   C1B70807   2.259   6.171   6.155
 5490POPC   C2B70808   2.438   6.042   6.566
 5490POPC   C3B70809   2.275   6.099   6.993
 5490POPC   C4B70810   2.423   6.206   7.389
 5491POPC   NC370811   9.006  14.701   5.396
 5491POPC   PO470812   9.454  14.162   5.515
 5491POPC   GL170813   9.260  14.452   5.822
 5491POPC   GL270814   8.896  14.561   5.862
 5491POPC   C1A70815   9.112  14.383   6.255
 5491POPC   D2A70816   8.971  14.057   6.509
 5491POPC   C3A70817   8.947  14.221   6.901
 5491POPC   C4A70818   8.893  14.183   7.343
 5491POPC   C1B70819   8.905  14.852   6.244
 5491POPC   C2B70820   8.993  14.729   6.694
 5491POPC   C3B70821   8.809  14.658   7.123
 5491POPC   C4B70822   8.795  14.620   7.619
 5492POPC   NC370823  35.032  35.851   5.572
 5492POPC   PO470824  35.382  36.300   5.243
 5492POPC   GL170825  35.386  36.301   5.703
 5492POPC   GL270826  35.087  36.445   5.853
 5492POPC   C1A70827  35.614  36.314   6.128
 5492POPC   D2A70828  35.412  36.404   6.536
 5492POPC   C3A70829  35.443  36.195   6.909
 5492POPC   C4A70830  35.267  36.068   7.315
 5492POPC   C1B70831  35.148  36.102   6.150
 5492POPC   C2B70832  35.064  36.015   6.554
 5492POPC   C3B70833  34.947  36.315   6.827
 5492POPC   C4B70834  34.810  36.304   7.224
 5493POPC   NC370835  39.059  32.633   5.575
 5493POPC   PO470836  39.440  32.018   5.546
 5493POPC   GL170837  39.231  32.231   5.832
 5493POPC   GL270838  39.452  32.518   5.902
 5493POPC   C1A70839  39.044  32.145   6.187
 5493POPC   D2A70840  39.204  32.122   6.562
 5493POPC   C3A70841  38.953  32.282   6.895
 5493POPC   C4A70842  39.004  32.169   7.326
 5493POPC   C1B70843  39.256  32.607   6.315
 5493POPC   C2B70844  39.390  32.550   6.759
 5493POPC   C3B70845  39.432  32.383   7.177
 5493POPC   C4B70846  39.445  32.609   7.621
 5494POPC   NC370847  27.453  39.573   5.461
 5494POPC   PO470848  27.210  38.992   5.461
 5494POPC   GL170849  26.881  38.955   5.803
 5494POPC   GL270850  26.600  39.198   5.792
 5494POPC   C1A70851  26.675  38.977   6.233
 5494POPC   D2A70852  26.802  38.870   6.629
 5494POPC   C3A70853  26.803  39.090   7.002
 5494POPC   C4A70854  26.795  38.923   7.416
 5494POPC   C1B70855  26.880  39.421   6.100
 5494POPC   C2B70856  26.937  39.400   6.558
 5494POPC   C3B70857  27.032  39.561   6.982
 5494POPC   C4B70858  26.939  39.406   7.393
 5495POPC   NC370859  24.425  25.749   5.369
 5495POPC   PO470860  24.426  25.111   5.102
 5495POPC   GL170861  24.432  25.164   5.557
 5495POPC   GL270862  24.150  24.961   5.680
 5495POPC   C1A70863  24.614  25.214   5.990
 5495POPC   D2A70864  24.562  25.165   6.467
 5495POPC   C3A70865  24.768  25.304   6.868
 5495POPC   C4A70866  24.581  25.487   7.221
 5495POPC   C1B70867  24.091  25.261   6.033
 5495POPC   C2B70868  24.041  25.260   6.478
 5495POPC   C3B70869  24.252  25.352   6.850
 5495POPC   C4B70870  24.376  25.024   7.116
 5496POPC   NC370871   7.882  26.224   5.479
 5496POPC   PO470872   8.427  25.829   5.523
 5496POPC   GL170873   8.267  26.069   5.859
 5496POPC   GL270874   7.960  25.911   5.892
 5496POPC   C1A70875   8.275  25.991   6.322
 5496POPC   D2A70876   8.476  25.954   6.713
 5496POPC   C3A70877   8.269  26.189   7.074
 5496POPC   C4A70878   8.173  26.078   7.492
 5496POPC   C1B70879   7.777  26.041   6.311
 5496POPC   C2B70880   7.939  25.993   6.736
 5496POPC   C3B70881   7.796  25.969   7.164
 5496POPC   C4B70882   7.375  25.978   7.410
 5497POPC   NC370883   4.077  39.274   5.416
 5497POPC   PO470884   4.655  39.502   5.259
 5497POPC   GL170885   4.405  39.558   5.686
 5497POPC   GL270886   4.467  39.217   5.799
 5497POPC   C1A70887   4.124  39.473   6.100
 5497POPC   D2A70888   4.005  39.179   6.441
 5497POPC   C3A70889   4.096  39.033   6.863
 5497POPC   C4A70890   4.137  39.331   7.167
 5497POPC   C1B70891   4.525  39.219   6.272
 5497POPC   C2B70892   4.512  39.278   6.719
 5497POPC   C3B70893   4.644  39.352   7.142
 5497POPC   C4B70894   4.609  39.105   7.538
 5498POPC   NC370895  23.402  21.809   5.541
 5498POPC   PO470896  23.894  22.266   5.470
 5498POPC   GL170897  23.565  22.259   5.765
 5498POPC   GL270898  23.723  21.980   5.911
 5498POPC   C1A70899  23.509  22.368   6.194
 5498POPC   D2A70900  23.841  22.155   6.446
 5498POPC   C3A70901  23.791  22.208   6.883
 5498POPC   C4A70902  23.580  22.203   7.269
 5498POPC   C1B70903  23.418  21.870   6.221
 5498POPC   C2B70904  23.370  22.022   6.650
 5498POPC   C3B70905  23.307  21.776   6.993
 5498POPC   C4B70906  23.385  21.680   7.387
 5499POPC   NC370907  27.730   6.269   5.505
 5499POPC   PO470908  27.306   5.713   5.508
 5499POPC   GL170909  27.450   5.890   5.881
 5499POPC   GL270910  27.816   5.890   5.943
 5499POPC   C1A70911  27.500   5.827   6.346
 5499POPC   D2A70912  27.902   5.946   6.531
 5499POPC   C3A70913  27.884   5.788   6.932
 5499POPC   C4A70914  27.546   5.899   7.198
 5499POPC   C1B70915  27.631   6.280   6.163
 5499POPC   C2B70916  27.400   6.367   6.536
 5499POPC   C3B70917  27.542   6.388   6.949
 5499POPC   C4B70918  27.323   6.333   7.348
 5500POPC   NC370919  19.355  36.126   5.440
 5500POPC   PO470920  18.844  35.812   5.657
 5500POPC   GL170921  19.112  36.134   5.883
 5500POPC   GL270922  18.957  36.425   5.961
 5500POPC   C1A70923  19.327  36.238   6.284
 5500POPC   D2A70924  19.149  35.997   6.626
 5500POPC   C3A70925  19.206  36.062   7.053
 5500POPC   C4A70926  18.879  35.990   7.371
 5500POPC   C1B70927  18.809  36.238   6.302
 5500POPC   C2B70928  18.599  36.228   6.639
 5500POPC   C3B70929  18.720  36.303   7.004
 5500POPC   C4B70930  18.996  36.502   7.238
 5501POPC   NC370931  41.110  10.140   5.497
 5501POPC   PO470932  41.771  10.415   5.367
 5501POPC   GL170933  41.802  10.328   5.824
 5501POPC   GL270934  41.506  10.179   5.819
 5501POPC   C1A70935  41.875  10.485   6.202
 5501POPC   D2A70936  41.652  10.597   6.557
 5501POPC   C3A70937  41.581  10.552   6.990
 5501POPC   C4A70938  41.660  10.740   7.379
 5501POPC   C1B70939  41.438  10.209   6.238
 5501POPC   C2B70940  41.440  10.058   6.659
 5501POPC   C3B70941  41.201  10.184   7.023
 5501POPC   C4B70942  41.138  10.573   7.290
 5502POPC   NC370943  26.277  28.560   5.185
 5502POPC   PO470944  25.735  28.203   5.214
 5502POPC   GL170945  26.063  28.229   5.589
 5502POPC   GL270946  26.224  28.535   5.711
 5502POPC   C1A70947  25.986  28.267   6.079
 5502POPC   D2A70948  25.668  28.503   6.357
 5502POPC   C3A70949  25.717  28.485   6.812
 5502POPC   C4A70950  25.666  28.305   7.215
 5502POPC   C1B70951  26.385  28.593   6.152
 5502POPC   C2B70952  26.155  28.544   6.521
 5502POPC   C3B70953  26.211  28.544   6.939
 5502POPC   C4B70954  26.321  28.441   7.301
 5503POPC   NC370955  12.855  20.835   5.419
 5503POPC   PO470956  12.871  21.504   5.336
 5503POPC   GL170957  12.737  21.537   5.745
 5503POPC   GL270958  12.619  21.183   5.794
 5503POPC   C1A70959  12.992  21.737   6.063
 5503POPC   D2A70960  13.210  21.763   6.468
 5503POPC   C3A70961  13.006  21.511   6.768
 5503POPC   C4A70962  12.699  21.630   7.063
 5503POPC   C1B70963  12.749  21.246   6.189
 5503POPC   C2B70964  12.915  21.045   6.512
 5503POPC   C3B70965  12.973  21.019   6.930
 5503POPC   C4B70966  12.632  21.138   7.150
 5504POPC   NC370967   4.579  29.728   5.494
 5504POPC   PO470968   3.980  29.644   5.509
 5504POPC   GL170969   4.213  29.707   5.914
 5504POPC   GL270970   4.560  29.823   5.983
 5504POPC   C1A70971   4.239  29.680   6.377
 5504POPC   D2A70972   4.461  29.539   6.762
 5504POPC   C3A70973   4.528  29.766   7.152
 5504POPC   C4A70974   4.394  29.884   7.580
 5504POPC   C1B70975   4.721  29.867   6.392
 5504POPC   C2B70976   4.892  30.012   6.772
 5504POPC   C3B70977   4.813  30.180   7.165
 5504POPC   C4B70978   4.399  30.328   7.290
 5505POPC   NC370979  12.946  42.914   5.532
 5505POPC   PO470980  13.174  42.189   5.379
 5505POPC   GL170981  12.958  42.292   5.767
 5505POPC   GL270982  13.145  42.571   5.836
 5505POPC   C1A70983  12.735  42.346   6.189
 5505POPC   D2A70984  12.786  42.223   6.625
 5505POPC   C3A70985  12.596  42.354   7.032
 5505POPC   C4A70986  12.722  42.327   7.489
 5505POPC   C1B70987  12.958  42.815   6.184
 5505POPC   C2B70988  12.778  42.755   6.604
 5505POPC   C3B70989  12.959  42.712   7.003
 5505POPC   C4B70990  13.158  42.578   7.394
 5506POPC   NC370991  28.651   5.585   5.421
 5506POPC   PO470992  28.031   5.919   5.472
 5506POPC   GL170993  28.276   5.703   5.764
 5506POPC   GL270994  28.518   5.963   5.783
 5506POPC   C1A70995  28.308   5.499   6.169
 5506POPC   D2A70996  28.526   5.590   6.552
 5506POPC   C3A70997  28.315   5.498   6.922
 5506POPC   C4A70998  28.458   5.654   7.291
 5506POPC   C1B70999  28.291   6.006   6.192
 5506POPC   C2B71000  28.428   6.112   6.606
 5506POPC   C3B71001  28.310   6.084   7.032
 5506POPC   C4B71002  27.942   6.234   7.184
 5507POPC   NC371003  31.146   6.735   5.379
 5507POPC   PO471004  31.570   6.256   5.413
 5507POPC   GL171005  31.519   6.600   5.720
 5507POPC   GL271006  31.255   6.362   5.801
 5507POPC   C1A71007  31.318   6.736   6.135
 5507POPC   D2A71008  31.197   6.554   6.524
 5507POPC   C3A71009  31.286   6.736   6.917
 5507POPC   C4A71010  31.283   7.027   7.234
 5507POPC   C1B71011  31.570   6.290   6.117
 5507POPC   C2B71012  31.696   6.401   6.511
 5507POPC   C3B71013  31.525   6.284   6.883
 5507POPC   C4B71014  31.612   6.449   7.250
 5508POPC   NC371015  32.610  34.403   5.563
 5508POPC   PO471016  33.053  34.828   5.186
 5508POPC   GL171017  33.102  34.619   5.644
 5508POPC   GL271018  33.153  34.232   5.613
 5508POPC   C1A71019  32.988  34.633   6.119
 5508POPC   D2A71020  32.798  34.641   6.556
 5508POPC   C3A71021  32.990  34.851   6.939
 5508POPC   C4A71022  33.344  34.743   7.203
 5508POPC   C1B71023  33.006  34.135   6.041
 5508POPC   C2B71024  33.127  34.221   6.430
 5508POPC   C3B71025  33.224  34.430   6.785
 5508POPC   C4B71026  33.043  34.325   7.138
 5509POPC   NC371027  11.082  35.758   5.520
 5509POPC   PO471028  11.489  36.264   5.187
 5509POPC   GL171029  11.139  36.235   5.624
 5509POPC   GL271030  11.252  36.419   5.873
 5509POPC   C1A71031  11.151  36.014   6.116
 5509POPC   D2A71032  11.117  36.257   6.494
 5509POPC   C3A71033  11.171  36.069   6.897
 5509POPC   C4A71034  10.879  36.128   7.253
 5509POPC   C1B71035  11.565  36.340   6.234
 5509POPC   C2B71036  11.671  36.228   6.658
 5509POPC   C3B71037  11.673  36.412   7.066
 5509POPC   C4B71038  11.355  36.290   7.337
 5510POPC   NC371039  15.550   1.414   5.394
 5510POPC   PO471040  14.972   1.118   5.374
 5510POPC   GL171041  15.199   1.198   5.765
 5510POPC   GL271042  15.403   0.895   5.710
 5510POPC   C1A71043  15.087   1.404   6.176
 5510POPC   D2A71044  14.941   1.719   6.470
 5510POPC   C3A71045  14.925   1.496   6.875
 5510POPC   C4A71046  14.795   1.451   7.301
 5510POPC   C1B71047  15.600   0.811   6.129
 5510POPC   C2B71048  15.450   0.921   6.532
 5510POPC   C3B71049  15.509   1.029   6.958
 5510POPC   C4B71050  15.163   1.114   7.237
 5511POPC   NC371051  24.887  13.020   5.060
 5511POPC   PO471052  24.344  12.921   5.480
 5511POPC   GL171053  24.432  12.785   5.885
 5511POPC   GL271054  24.313  13.118   5.952
 5511POPC   C1A71055  24.706  12.848   6.248
 5511POPC   D2A71056  24.550  12.783   6.675
 5511POPC   C3A71057  24.808  12.793   7.036
 5511POPC   C4A71058  24.721  12.710   7.451
 5511POPC   C1B71059  24.241  13.036   6.342
 5511POPC   C2B71060  24.062  13.194   6.676
 5511POPC   C3B71061  24.014  12.833   6.848
 5511POPC   C4B71062  24.315  12.707   7.122
 5512POPC   NC371063  16.917  35.546   5.426
 5512POPC   PO471064  16.298  35.260   5.016
 5512POPC   GL171065  16.419  35.412   5.536
 5512POPC   GL271066  16.490  35.177   5.732
 5512POPC   C1A71067  16.728  35.516   6.017
 5512POPC   D2A71068  16.931  35.322   6.399
 5512POPC   C3A71069  16.888  35.483   6.814
 5512POPC   C4A71070  16.778  35.353   7.226
 5512POPC   C1B71071  16.519  35.080   6.189
 5512POPC   C2B71072  16.605  34.956   6.652
 5512POPC   C3B71073  16.493  34.929   7.115
 5512POPC   C4B71074  16.208  35.038   7.463
 5513POPC   NC371075  41.604  40.236   5.527
 5513POPC   PO471076  41.262  39.760   5.217
 5513POPC   GL171077  41.461  39.807   5.758
 5513POPC   GL271078  41.691  40.079   5.971
 5513POPC   C1A71079  41.296  39.946   6.226
 5513POPC   D2A71080  41.329  40.168   6.651
 5513POPC   C3A71081  41.442  39.967   7.043
 5513POPC   C4A71082  41.647  40.222   7.269
 5513POPC   C1B71083  41.830  39.970   6.335
 5513POPC   C2B71084  41.840  40.003   6.744
 5513POPC   C3B71085  42.099  40.153   7.030
 5513POPC   C4B71086  42.114  40.176   7.443
 5514POPC   NC371087  28.724  19.009   5.640
 5514POPC   PO471088  29.313  19.190   5.459
 5514POPC   GL171089  29.230  18.963   5.820
 5514POPC   GL271090  29.381  18.642   5.777
 5514POPC   C1A71091  29.088  19.077   6.238
 5514POPC   D2A71092  28.819  19.110   6.586
 5514POPC   C3A71093  28.953  18.987   6.978
 5514POPC   C4A71094  29.286  19.122   7.227
 5514POPC   C1B71095  29.278  18.616   6.226
 5514POPC   C2B71096  29.319  18.841   6.640
 5514POPC   C3B71097  29.326  18.630   7.066
 5514POPC   C4B71098  29.457  18.626   7.496
 5515POPC   NC371099  44.048  36.336   5.354
 5515POPC   PO471100  43.390  35.977   5.363
 5515POPC   GL171101  43.705  36.083   5.655
 5515POPC   GL271102  43.764  36.444   5.782
 5515POPC   C1A71103  43.707  35.961   6.077
 5515POPC   D2A71104  43.603  36.152   6.464
 5515POPC   C3A71105  43.569  35.875   6.826
 5515POPC   C4A71106  43.526  36.154   7.163
 5515POPC   C1B71107  44.112  36.266   6.071
 5515POPC   C2B71108  44.103  36.034   6.468
 5515POPC   C3B71109  44.027  36.142   6.897
 5515POPC   C4B71110  44.296  36.204   7.236
 5516POPC   NC371111  32.561  19.626   5.443
 5516POPC   PO471112  31.954  19.989   5.374
 5516POPC   GL171113  32.203  19.828   5.741
 5516POPC   GL271114  32.515  20.026   5.839
 5516POPC   C1A71115  32.334  19.655   6.151
 5516POPC   D2A71116  32.120  19.723   6.537
 5516POPC   C3A71117  32.322  19.813   6.907
 5516POPC   C4A71118  32.193  19.850   7.340
 5516POPC   C1B71119  32.497  20.264   6.290
 5516POPC   C2B71120  32.577  20.307   6.775
 5516POPC   C3B71121  32.614  20.123   7.212
 5516POPC   C4B71122  32.555  20.011   7.643
 5517POPC   NC371123  18.821  32.014   5.485
 5517POPC   PO471124  19.039  32.599   5.546
 5517POPC   GL171125  19.174  32.256   5.810
 5517POPC   GL271126  18.950  32.026   5.987
 5517POPC   C1A71127  19.324  32.283   6.226
 5517POPC   D2A71128  19.321  32.532   6.583
 5517POPC   C3A71129  19.272  32.336   6.967
 5517POPC   C4A71130  19.408  32.124   7.324
 5517POPC   C1B71131  18.842  32.409   6.274
 5517POPC   C2B71132  18.813  32.501   6.739
 5517POPC   C3B71133  18.792  32.351   7.174
 5517POPC   C4B71134  18.718  32.517   7.639
 5518POPC   NC371135  14.683  10.222   5.537
 5518POPC   PO471136  14.287  10.713   5.333
 5518POPC   GL171137  14.417  10.635   5.813
 5518POPC   GL271138  14.725  10.437   5.987
 5518POPC   C1A71139  14.302  10.499   6.273
 5518POPC   D2A71140  14.343  10.311   6.682
 5518POPC   C3A71141  14.357  10.534   7.050
 5518POPC   C4A71142  14.264  10.347   7.403
 5518POPC   C1B71143  14.727  10.777   6.259
 5518POPC   C2B71144  14.544  10.824   6.664
 5518POPC   C3B71145  14.710  10.901   7.082
 5518POPC   C4B71146  14.724  10.602   7.449
 5519POPC   NC371147  18.715   7.002   5.415
 5519POPC   PO471148  19.135   7.477   5.399
 5519POPC   GL171149  19.125   7.381   5.813
 5519POPC   GL271150  18.791   7.363   5.923
 5519POPC   C1A71151  19.239   7.400   6.245
 5519POPC   D2A71152  19.249   7.643   6.630
 5519POPC   C3A71153  19.098   7.409   6.982
 5519POPC   C4A71154  19.278   7.373   7.373
 5519POPC   C1B71155  18.796   7.653   6.310
 5519POPC   C2B71156  18.666   7.677   6.750
 5519POPC   C3B71157  18.664   7.656   7.193
 5519POPC   C4B71158  18.941   7.689   7.531
 5520POPC   NC371159  41.793  19.199   5.568
 5520POPC   PO471160  41.198  19.194   5.476
 5520POPC   GL171161  41.378  19.050   5.903
 5520POPC   GL271162  41.730  18.942   5.987
 5520POPC   C1A71163  41.375  19.097   6.354
 5520POPC   D2A71164  41.729  19.229   6.608
 5520POPC   C3A71165  41.524  19.207   6.997
 5520POPC   C4A71166  41.263  18.906   7.194
 5520POPC   C1B71167  41.762  18.744   6.354
 5520POPC   C2B71168  41.639  18.758   6.776
 5520POPC   C3B71169  41.792  18.793   7.189
 5520POPC   C4B71170  41.752  18.658   7.599
 5521POPC   NC371171  37.266  37.042   5.644
 5521POPC   PO471172  37.858  36.822   5.479
 5521POPC   GL171173  37.702  36.838   5.859
 5521POPC   GL271174  37.445  36.638   5.852
 5521POPC   C1A71175  37.608  36.876   6.287
 5521POPC   D2A71176  37.463  37.042   6.638
 5521POPC   C3A71177  37.676  37.010   6.987
 5521POPC   C4A71178  37.451  37.128   7.302
 5521POPC   C1B71179  37.266  36.536   6.216
 5521POPC   C2B71180  37.408  36.522   6.624
 5521POPC   C3B71181  37.317  36.667   7.031
 5521POPC   C4B71182  37.390  36.627   7.453
 5522POPC   NC371183  40.822   9.589   5.279
 5522POPC   PO471184  40.674  10.246   5.540
 5522POPC   GL171185  40.725   9.861   5.835
 5522POPC   GL271186  41.059   9.839   5.932
 5522POPC   C1A71187  40.684   9.624   6.280
 5522POPC   D2A71188  40.633   9.394   6.709
 5522POPC   C3A71189  40.408   9.601   7.056
 5522POPC   C4A71190  40.566   9.617   7.478
 5522POPC   C1B71191  40.950  10.046   6.324
 5522POPC   C2B71192  40.712   9.919   6.704
 5522POPC   C3B71193  40.876   9.775   7.076
 5522POPC   C4B71194  40.824  10.094   7.385
 5523POPC   NC371195   3.284  37.204   5.428
 5523POPC   PO471196   2.649  36.895   5.343
 5523POPC   GL171197   2.728  36.995   5.741
 5523POPC   GL271198   2.432  37.194   5.790
 5523POPC   C1A71199   2.930  36.838   6.106
 5523POPC   D2A71200   2.830  36.758   6.528
 5523POPC   C3A71201   3.060  36.943   6.842
 5523POPC   C4A71202   2.995  36.724   7.220
 5523POPC   C1B71203   2.423  37.019   6.195
 5523POPC   C2B71204   2.364  37.010   6.626
 5523POPC   C3B71205   2.541  36.896   7.012
 5523POPC   C4B71206   2.540  36.922   7.455
 5524POPC   NC371207   1.831  17.441   5.390
 5524POPC   PO471208   2.536  17.709   5.362
 5524POPC   GL171209   2.204  17.718   5.690
 5524POPC   GL271210   2.138  17.384   5.796
 5524POPC   C1A71211   2.020  17.747   6.119
 5524POPC   D2A71212   1.888  17.923   6.494
 5524POPC   C3A71213   1.914  17.720   6.873
 5524POPC   C4A71214   2.075  17.845   7.272
 5524POPC   C1B71215   2.137  17.194   6.198
 5524POPC   C2B71216   1.974  17.161   6.620
 5524POPC   C3B71217   2.123  17.285   7.046
 5524POPC   C4B71218   2.003  17.324   7.498
 5525POPC   NC371219   8.608  26.177   5.304
 5525POPC   PO471220   8.831  25.612   5.137
 5525POPC   GL171221   8.900  25.776   5.674
 5525POPC   GL271222   9.085  26.100   5.812
 5525POPC   C1A71223   8.737  25.950   6.133
 5525POPC   D2A71224   8.852  26.263   6.507
 5525POPC   C3A71225   8.799  26.203   6.994
 5525POPC   C4A71226   8.610  25.892   7.298
 5525POPC   C1B71227   9.219  25.969   6.248
 5525POPC   C2B71228   8.982  25.782   6.618
 5525POPC   C3B71229   9.033  25.743   7.075
 5525POPC   C4B71230   9.092  26.071   7.418
 5526POPC   NC371231  40.485  35.265   5.556
 5526POPC   PO471232  41.107  35.104   5.619
 5526POPC   GL171233  40.833  35.307   5.963
 5526POPC   GL271234  40.601  35.577   5.941
 5526POPC   C1A71235  40.901  35.318   6.449
 5526POPC   D2A71236  40.786  35.638   6.748
 5526POPC   C3A71237  40.717  35.513   7.141
 5526POPC   C4A71238  40.838  35.089   7.172
 5526POPC   C1B71239  40.444  35.518   6.374
 5526POPC   C2B71240  40.462  35.141   6.703
 5526POPC   C3B71241  40.335  35.090   7.156
 5526POPC   C4B71242  40.387  35.380   7.523
 5527POPC   NC371243  36.040  15.341   5.425
 5527POPC   PO471244  36.216  14.723   5.437
 5527POPC   GL171245  36.233  15.015   5.820
 5527POPC   GL271246  36.355  15.388   5.850
 5527POPC   C1A71247  36.218  14.935   6.277
 5527POPC   D2A71248  36.244  15.222   6.605
 5527POPC   C3A71249  36.001  15.112   6.947
 5527POPC   C4A71250  36.297  14.995   7.204
 5527POPC   C1B71251  35.999  15.401   6.177
 5527POPC   C2B71252  35.783  15.445   6.610
 5527POPC   C3B71253  35.757  15.554   7.080
 5527POPC   C4B71254  36.000  15.400   7.455
 5528POPC   NC371255  25.343  14.704   4.993
 5528POPC   PO471256  25.526  14.192   5.470
 5528POPC   GL171257  25.278  14.330   5.787
 5528POPC   GL271258  25.310  14.011   5.909
 5528POPC   C1A71259  25.287  14.641   6.143
 5528POPC   D2A71260  25.088  14.587   6.542
 5528POPC   C3A71261  25.267  14.638   6.964
 5528POPC   C4A71262  25.120  14.480   7.351
 5528POPC   C1B71263  25.401  14.163   6.317
 5528POPC   C2B71264  25.325  14.177   6.751
 5528POPC   C3B71265  25.531  14.184   7.157
 5528POPC   C4B71266  25.386  14.005   7.542
 5529POPC   NC371267  20.876  38.743   5.413
 5529POPC   PO471268  20.486  38.195   5.400
 5529POPC   GL171269  20.685  38.385   5.744
 5529POPC   GL271270  20.593  38.732   5.849
 5529POPC   C1A71271  20.848  38.366   6.154
 5529POPC   D2A71272  20.635  38.365   6.565
 5529POPC   C3A71273  20.820  38.354   6.960
 5529POPC   C4A71274  20.648  38.421   7.346
 5529POPC   C1B71275  20.754  38.837   6.308
 5529POPC   C2B71276  20.935  38.776   6.707
 5529POPC   C3B71277  20.831  38.834   7.150
 5529POPC   C4B71278  20.683  38.879   7.605
 5530POPC   NC371279  35.814  24.655   5.371
 5530POPC   PO471280  36.268  24.216   5.417
 5530POPC   GL171281  36.174  24.431   5.805
 5530POPC   GL271282  36.416  24.697   5.872
 5530POPC   C1A71283  35.955  24.310   6.222
 5530POPC   D2A71284  36.109  24.175   6.617
 5530POPC   C3A71285  35.975  24.322   7.007
 5530POPC   C4A71286  36.332  24.529   7.255
 5530POPC   C1B71287  36.037  24.803   6.151
 5530POPC   C2B71288  36.074  24.902   6.587
 5530POPC   C3B71289  35.976  24.832   7.023
 5530POPC   C4B71290  35.870  24.637   7.418
 5531POPC   NC371291  14.597  20.974   5.630
 5531POPC   PO471292  14.362  20.531   5.202
 5531POPC   GL171293  14.608  20.538   5.810
 5531POPC   GL271294  14.718  20.263   5.949
 5531POPC   C1A71295  14.443  20.783   6.253
 5531POPC   D2A71296  14.401  20.897   6.730
 5531POPC   C3A71297  14.268  20.716   7.143
 5531POPC   C4A71298  14.206  20.639   7.608
 5531POPC   C1B71299  14.363  20.251   6.226
 5531POPC   C2B71300  14.222  20.414   6.620
 5531POPC   C3B71301  14.285  20.223   7.008
 5531POPC   C4B71302  14.540  20.316   7.366
 5532POPC   NC371303   8.190  11.680   5.432
 5532POPC   PO471304   7.983  12.299   5.391
 5532POPC   GL171305   8.230  12.123   5.754
 5532POPC   GL271306   8.424  11.801   5.877
 5532POPC   C1A71307   8.337  12.264   6.141
 5532POPC   D2A71308   8.496  12.434   6.523
 5532POPC   C3A71309   8.359  12.114   6.797
 5532POPC   C4A71310   8.372  12.158   7.227
 5532POPC   C1B71311   8.042  11.780   6.179
 5532POPC   C2B71312   7.877  11.738   6.649
 5532POPC   C3B71313   8.144  11.714   7.059
 5532POPC   C4B71314   8.584  11.710   7.083
 5533POPC   NC371315  14.641  39.772   5.520
 5533POPC   PO471316  14.146  40.330   5.538
 5533POPC   GL171317  14.282  39.990   5.805
 5533POPC   GL271318  14.648  40.056   5.945
 5533POPC   C1A71319  14.208  39.956   6.223
 5533POPC   D2A71320  14.414  40.236   6.506
 5533POPC   C3A71321  14.155  40.368   6.849
 5533POPC   C4A71322  14.293  40.367   7.273
 5533POPC   C1B71323  14.641  39.693   6.243
 5533POPC   C2B71324  14.424  39.736   6.632
 5533POPC   C3B71325  14.495  39.988   6.994
 5533POPC   C4B71326  14.448  39.842   7.410
 5534POPC   NC371327  42.616  43.147   5.595
 5534POPC   PO471328  42.098  42.714   5.621
 5534POPC   GL171329  42.291  42.926   5.954
 5534POPC   GL271330  42.201  43.226   5.885
 5534POPC   C1A71331  42.649  43.073   6.225
 5534POPC   D2A71332  42.695  43.276   6.612
 5534POPC   C3A71333  42.469  43.070   6.941
 5534POPC   C4A71334  42.641  43.150   7.331
 5534POPC   C1B71335  41.974  43.338   6.232
 5534POPC   C2B71336  42.103  43.410   6.653
 5534POPC   C3B71337  41.923  43.586   7.051
 5534POPC   C4B71338  42.102  43.563   7.491
 5535POPC   NC371339   2.652  17.243   5.461
 5535POPC   PO471340   3.294  17.505   5.407
 5535POPC   GL171341   3.102  17.363   5.749
 5535POPC   GL271342   2.856  17.616   5.765
 5535POPC   C1A71343   3.058  17.462   6.193
 5535POPC   D2A71344   2.820  17.660   6.514
 5535POPC   C3A71345   2.859  17.508   6.902
 5535POPC   C4A71346   2.995  17.707   7.283
 5535POPC   C1B71347   2.525  17.541   6.083
 5535POPC   C2B71348   2.310  17.588   6.507
 5535POPC   C3B71349   2.418  17.741   6.919
 5535POPC   C4B71350   2.511  17.491   7.314
 5536POPC   NC371351  38.702  38.348   5.340
 5536POPC   PO471352  38.072  38.597   5.445
 5536POPC   GL171353  38.463  38.676   5.685
 5536POPC   GL271354  38.514  38.338   5.824
 5536POPC   C1A71355  38.569  38.797   6.114
 5536POPC   D2A71356  38.279  38.578   6.384
 5536POPC   C3A71357  38.319  38.669   6.809
 5536POPC   C4A71358  38.324  38.508   7.215
 5536POPC   C1B71359  38.634  38.010   6.103
 5536POPC   C2B71360  38.543  37.950   6.509
 5536POPC   C3B71361  38.559  38.169   6.904
 5536POPC   C4B71362  38.545  38.049   7.301
 5537POPC   NC371363   2.752  20.545   5.328
 5537POPC   PO471364   3.471  20.502   5.296
 5537POPC   GL171365   3.227  20.680   5.711
 5537POPC   GL271366   2.843  20.693   5.810
 5537POPC   C1A71367   3.158  20.652   6.198
 5537POPC   D2A71368   3.054  20.727   6.641
 5537POPC   C3A71369   2.883  20.658   7.064
 5537POPC   C4A71370   3.116  20.589   7.494
 5537POPC   C1B71371   2.616  20.554   6.194
 5537POPC   C2B71372   2.659  20.391   6.608
 5537POPC   C3B71373   2.411  20.465   6.932
 5537POPC   C4B71374   2.370  20.771   7.238
 5538POPC   NC371375  25.724  41.484   5.386
 5538POPC   PO471376  25.028  41.709   5.428
 5538POPC   GL171377  25.214  41.607   5.785
 5538POPC   GL271378  25.033  41.290   5.821
 5538POPC   C1A71379  25.137  41.837   6.180
 5538POPC   D2A71380  25.273  41.911   6.608
 5538POPC   C3A71381  25.479  41.577   6.829
 5538POPC   C4A71382  25.449  41.413   7.249
 5538POPC   C1B71383  25.183  41.356   6.235
 5538POPC   C2B71384  24.919  41.463   6.559
 5538POPC   C3B71385  25.002  41.341   6.955
 5538POPC   C4B71386  24.893  41.552   7.290
 5539POPC   NC371387  41.147   2.238   5.564
 5539POPC   PO471388  40.642   1.838   5.561
 5539POPC   GL171389  40.728   2.141   5.880
 5539POPC   GL271390  40.495   2.403   5.903
 5539POPC   C1A71391  40.917   2.057   6.287
 5539POPC   D2A71392  41.171   2.046   6.667
 5539POPC   C3A71393  41.056   1.740   7.004
 5539POPC   C4A71394  40.654   1.680   7.116
 5539POPC   C1B71395  40.396   2.348   6.342
 5539POPC   C2B71396  40.491   2.069   6.712
 5539POPC   C3B71397  40.767   2.185   7.050
 5539POPC   C4B71398  40.626   2.460   7.372
 5540POPC   NC371399  14.698   6.022   4.909
 5540POPC   PO471400  14.285   5.947   5.392
 5540POPC   GL171401  14.300   5.857   5.840
 5540POPC   GL271402  14.619   5.685   5.916
 5540POPC   C1A71403  14.207   5.745   6.249
 5540POPC   D2A71404  14.082   5.919   6.615
 5540POPC   C3A71405  14.394   5.934   6.934
 5540POPC   C4A71406  14.264   5.923   7.333
 5540POPC   C1B71407  14.586   6.099   6.164
 5540POPC   C2B71408  14.682   6.185   6.579
 5540POPC   C3B71409  14.882   6.301   6.952
 5540POPC   C4B71410  14.768   6.089   7.289
 5541POPC   NC371411  29.561   1.488   5.378
 5541POPC   PO471412  29.472   0.783   5.601
 5541POPC   GL171413  29.650   1.146   5.740
 5541POPC   GL271414  29.956   1.219   5.597
 5541POPC   C1A71415  29.634   1.403   6.087
 5541POPC   D2A71416  29.774   1.383   6.489
 5541POPC   C3A71417  29.586   1.571   6.833
 5541POPC   C4A71418  29.838   1.598   7.195
 5541POPC   C1B71419  30.103   1.252   6.028
 5541POPC   C2B71420  30.279   1.364   6.463
 5541POPC   C3B71421  30.144   1.317   6.895
 5541POPC   C4B71422  30.130   0.942   7.112
 5542POPC   NC371423  36.630  10.910   5.281
 5542POPC   PO471424  37.260  11.013   5.459
 5542POPC   GL171425  37.020  11.120   5.824
 5542POPC   GL271426  36.643  11.038   5.797
 5542POPC   C1A71427  37.151  11.028   6.239
 5542POPC   D2A71428  37.020  11.089   6.677
 5542POPC   C3A71429  37.188  11.437   6.944
 5542POPC   C4A71430  37.126  11.347   7.385
 5542POPC   C1B71431  36.670  11.259   6.210
 5542POPC   C2B71432  36.492  11.287   6.632
 5542POPC   C3B71433  36.695  11.299   7.035
 5542POPC   C4B71434  36.629  11.524   7.395
 5543POPC   NC371435  38.023   8.841   5.567
 5543POPC   PO471436  38.666   8.949   5.355
 5543POPC   GL171437  38.491   8.753   5.746
 5543POPC   GL271438  38.342   9.047   5.909
 5543POPC   C1A71439  38.340   8.632   6.180
 5543POPC   D2A71440  38.525   8.634   6.602
 5543POPC   C3A71441  38.636   8.839   6.977
 5543POPC   C4A71442  38.609   8.675   7.341
 5543POPC   C1B71443  38.239   9.114   6.341
 5543POPC   C2B71444  38.232   9.058   6.769
 5543POPC   C3B71445  38.175   8.998   7.212
 5543POPC   C4B71446  38.134   9.187   7.618
 5544POPC   NC371447  44.446   8.950   5.601
 5544POPC   PO471448  43.875   9.278   5.360
 5544POPC   GL171449  43.860   9.312   5.859
 5544POPC   GL271450  44.196   9.257   5.986
 5544POPC   C1A71451  43.834   9.046   6.303
 5544POPC   D2A71452  43.900   8.668   6.606
 5544POPC   C3A71453  43.886   8.754   7.071
 5544POPC   C4A71454  43.737   9.068   7.393
 5544POPC   C1B71455  44.081   9.487   6.384
 5544POPC   C2B71456  43.924   9.468   6.812
 5544POPC   C3B71457  44.124   9.331   7.192
 5544POPC   C4B71458  44.220   9.185   7.598
 5545POPC   NC371459  33.569  21.960   5.420
 5545POPC   PO471460  33.972  21.374   5.369
 5545POPC   GL171461  33.757  21.337   5.776
 5545POPC   GL271462  33.655  21.658   5.838
 5545POPC   C1A71463  33.731  21.290   6.233
 5545POPC   D2A71464  33.452  21.196   6.594
 5545POPC   C3A71465  33.710  21.259   6.910
 5545POPC   C4A71466  33.719  21.316   7.319
 5545POPC   C1B71467  33.968  21.778   6.140
 5545POPC   C2B71468  34.096  21.868   6.579
 5545POPC   C3B71469  33.965  21.694   6.998
 5545POPC   C4B71470  34.152  21.595   7.427
 5546POPC   NC371471  11.000  25.289   5.426
 5546POPC   PO471472  10.345  25.367   5.415
 5546POPC   GL171473  10.598  25.163   5.751
 5546POPC   GL271474  10.372  24.905   5.900
 5546POPC   C1A71475  10.742  25.101   6.195
 5546POPC   D2A71476  10.538  24.915   6.583
 5546POPC   C3A71477  10.678  25.096   6.970
 5546POPC   C4A71478  10.846  25.465   7.172
 5546POPC   C1B71479  10.270  25.288   6.142
 5546POPC   C2B71480  10.438  25.463   6.514
 5546POPC   C3B71481  10.365  25.492   6.944
 5546POPC   C4B71482  10.285  25.656   7.328
 5547POPC   NC371483  36.201  35.544   5.445
 5547POPC   PO471484  35.568  35.334   5.420
 5547POPC   GL171485  35.838  35.314   5.811
 5547POPC   GL271486  36.188  35.172   5.792
 5547POPC   C1A71487  35.787  35.354   6.279
 5547POPC   D2A71488  35.916  35.100   6.667
 5547POPC   C3A71489  36.076  35.298   7.055
 5547POPC   C4A71490  36.352  35.181   7.375
 5547POPC   C1B71491  36.269  35.424   6.174
 5547POPC   C2B71492  36.409  35.313   6.614
 5547POPC   C3B71493  36.531  35.538   6.991
 5547POPC   C4B71494  36.762  35.453   7.379
 5548POPC   NC371495  24.623   9.298   5.163
 5548POPC   PO471496  24.261   9.390   5.677
 5548POPC   GL171497  24.437   8.953   5.697
 5548POPC   GL271498  24.190   8.764   5.857
 5548POPC   C1A71499  24.739   8.835   6.060
 5548POPC   D2A71500  24.777   9.196   6.372
 5548POPC   C3A71501  24.751   9.149   6.835
 5548POPC   C4A71502  24.701   9.334   7.215
 5548POPC   C1B71503  24.294   9.045   6.236
 5548POPC   C2B71504  24.291   9.277   6.650
 5548POPC   C3B71505  24.235   9.170   7.108
 5548POPC   C4B71506  24.083   8.891   7.473
 5549POPC   NC371507   2.239  40.730   5.457
 5549POPC   PO471508   1.621  40.750   5.481
 5549POPC   GL171509   1.874  40.618   5.847
 5549POPC   GL271510   2.224  40.781   5.956
 5549POPC   C1A71511   1.811  40.621   6.312
 5549POPC   D2A71512   1.965  40.794   6.696
 5549POPC   C3A71513   1.736  40.769   7.095
 5549POPC   C4A71514   1.760  40.938   7.516
 5549POPC   C1B71515   2.245  40.373   6.156
 5549POPC   C2B71516   2.183  40.234   6.576
 5549POPC   C3B71517   2.204  40.432   6.983
 5549POPC   C4B71518   2.408  40.619   7.342
 5550POPC   NC371519  32.727   9.614   4.880
 5550POPC   PO471520  33.212   9.547   5.349
 5550POPC   GL171521  33.024   9.495   5.804
 5550POPC   GL271522  32.655   9.452   5.852
 5550POPC   C1A71523  33.025   9.612   6.271
 5550POPC   D2A71524  33.067   9.575   6.737
 5550POPC   C3A71525  33.168   9.741   7.127
 5550POPC   C4A71526  33.355   9.932   7.478
 5550POPC   C1B71527  32.512   9.619   6.240
 5550POPC   C2B71528  32.573   9.753   6.663
 5550POPC   C3B71529  32.638   9.616   7.077
 5550POPC   C4B71530  32.775   9.826   7.455
 5551POPC   NC371531  36.493  12.877   5.057
 5551POPC   PO471532  36.698  12.463   5.490
 5551POPC   GL171533  36.705  12.430   5.952
 5551POPC   GL271534  37.045  12.472   5.965
 5551POPC   C1A71535  36.766  12.585   6.411
 5551POPC   D2A71536  36.984  12.918   6.711
 5551POPC   C3A71537  36.755  13.034   7.082
 5551POPC   C4A71538  36.519  12.691   7.157
 5551POPC   C1B71539  37.232  12.399   6.353
 5551POPC   C2B71540  37.339  12.550   6.772
 5551POPC   C3B71541  37.230  12.704   7.182
 5551POPC   C4B71542  37.185  13.125   7.356
 5552POPC   NC371543  27.072  21.087   5.389
 5552POPC   PO471544  27.301  21.682   5.647
 5552POPC   GL171545  27.470  21.290   5.873
 5552POPC   GL271546  27.863  21.193   5.826
 5552POPC   C1A71547  27.349  21.293   6.328
 5552POPC   D2A71548  27.469  21.564   6.715
 5552POPC   C3A71549  27.486  21.355   7.126
 5552POPC   C4A71550  27.301  20.980   7.294
 5552POPC   C1B71551  27.855  21.389   6.244
 5552POPC   C2B71552  28.005  21.516   6.643
 5552POPC   C3B71553  28.000  21.335   7.030
 5552POPC   C4B71554  27.918  21.507   7.416
 5553POPC   NC371555   5.993  16.945   5.288
 5553POPC   PO471556   5.389  16.697   5.335
 5553POPC   GL171557   5.673  16.705   5.748
 5553POPC   GL271558   6.012  16.819   5.794
 5553POPC   C1A71559   5.706  16.539   6.206
 5553POPC   D2A71560   5.693  16.745   6.639
 5553POPC   C3A71561   5.714  16.497   7.054
 5553POPC   C4A71562   5.698  16.559   7.530
 5553POPC   C1B71563   6.187  16.700   6.195
 5553POPC   C2B71564   6.210  16.714   6.628
 5553POPC   C3B71565   6.053  16.855   7.022
 5553POPC   C4B71566   6.252  16.835   7.398
 5554POPC   NC371567   7.713  22.038   5.448
 5554POPC   PO471568   8.347  22.196   5.487
 5554POPC   GL171569   8.108  22.039   5.802
 5554POPC   GL271570   8.040  22.369   5.896
 5554POPC   C1A71571   8.143  21.918   6.226
 5554POPC   D2A71572   8.260  22.007   6.624
 5554POPC   C3A71573   7.975  22.181   6.897
 5554POPC   C4A71574   8.012  22.132   7.300
 5554POPC   C1B71575   8.451  22.333   6.138
 5554POPC   C2B71576   8.591  22.404   6.555
 5554POPC   C3B71577   8.488  22.308   6.981
 5554POPC   C4B71578   8.519  22.354   7.415
 5555POPC   NC371579  11.457  14.271   5.397
 5555POPC   PO471580  10.820  14.190   5.546
 5555POPC   GL171581  11.135  14.366   5.822
 5555POPC   GL271582  11.502  14.463   5.856
 5555POPC   C1A71583  11.288  14.141   6.189
 5555POPC   D2A71584  11.515  14.196   6.558
 5555POPC   C3A71585  11.288  14.131   6.934
 5555POPC   C4A71586  11.203  14.224   7.346
 5555POPC   C1B71587  11.349  14.641   6.244
 5555POPC   C2B71588  11.603  14.718   6.599
 5555POPC   C3B71589  11.625  14.519   6.978
 5555POPC   C4B71590  11.586  14.555   7.409
 5556POPC   NC371591  24.587  27.778   5.529
 5556POPC   PO471592  24.638  27.119   5.522
 5556POPC   GL171593  24.410  27.394   5.828
 5556POPC   GL271594  24.732  27.475   5.908
 5556POPC   C1A71595  24.198  27.652   6.173
 5556POPC   D2A71596  24.340  27.832   6.591
 5556POPC   C3A71597  24.224  27.681   7.000
 5556POPC   C4A71598  24.465  27.667   7.372
 5556POPC   C1B71599  24.678  27.544   6.313
 5556POPC   C2B71600  24.936  27.520   6.636
 5556POPC   C3B71601  24.831  27.575   7.032
 5556POPC   C4B71602  24.942  27.333   7.366
 5557POPC   NC371603  35.447  17.068   5.405
 5557POPC   PO471604  35.387  17.741   5.481
 5557POPC   GL171605  35.258  17.581   5.911
 5557POPC   GL271606  35.195  17.225   5.817
 5557POPC   C1A71607  35.264  17.606   6.412
 5557POPC   D2A71608  35.612  17.533   6.706
 5557POPC   C3A71609  35.648  17.738   7.128
 5557POPC   C4A71610  35.623  17.515   7.535
 5557POPC   C1B71611  35.451  17.200   6.209
 5557POPC   C2B71612  35.306  17.128   6.620
 5557POPC   C3B71613  35.571  17.093   6.996
 5557POPC   C4B71614  35.293  17.337   7.195
 5558POPC   NC371615  42.297  31.232   5.488
 5558POPC   PO471616  42.254  31.846   5.468
 5558POPC   GL171617  42.445  31.571   5.841
 5558POPC   GL271618  42.667  31.247   5.841
 5558POPC   C1A71619  42.259  31.320   6.208
 5558POPC   D2A71620  42.035  31.402   6.624
 5558POPC   C3A71621  42.031  31.207   7.040
 5558POPC   C4A71622  42.161  31.414   7.426
 5558POPC   C1B71623  42.778  31.289   6.280
 5558POPC   C2B71624  42.554  31.545   6.581
 5558POPC   C3B71625  42.407  31.608   6.973
 5558POPC   C4B71626  42.663  31.456   7.276
 5559POPC   NC371627  44.937  23.032   5.416
 5559POPC   PO471628  44.287  23.151   5.262
 5559POPC   GL171629  44.516  22.881   5.670
 5559POPC   GL271630  44.754  23.057   5.872
 5559POPC   C1A71631  44.634  22.696   6.168
 5559POPC   D2A71632  44.806  22.907   6.571
 5559POPC   C3A71633  44.623  22.893   7.001
 5559POPC   C4A71634  44.441  22.690   7.412
 5559POPC   C1B71635  44.381  23.128   6.130
 5559POPC   C2B71636  44.437  23.307   6.548
 5559POPC   C3B71637  44.356  23.322   6.961
 5559POPC   C4B71638  44.264  23.160   7.338
 5560POPC   NC371639  40.891  25.348   5.491
 5560POPC   PO471640  40.295  24.958   5.487
 5560POPC   GL171641  40.589  25.088   5.797
 5560POPC   GL271642  40.572  25.473   5.887
 5560POPC   C1A71643  40.772  25.016   6.200
 5560POPC   D2A71644  40.697  25.036   6.665
 5560POPC   C3A71645  40.721  25.461   6.856
 5560POPC   C4A71646  40.465  25.678   7.187
 5560POPC   C1B71647  40.942  25.500   6.146
 5560POPC   C2B71648  41.187  25.296   6.464
 5560POPC   C3B71649  41.164  25.180   6.880
 5560POPC   C4B71650  40.867  25.077   7.180
 5561POPC   NC371651   4.660  39.965   5.414
 5561POPC   PO471652   3.964  39.773   5.561
 5561POPC   GL171653   4.076  39.991   5.927
 5561POPC   GL271654   4.393  40.090   5.836
 5561POPC   C1A71655   4.189  39.900   6.362
 5561POPC   D2A71656   4.161  39.632   6.720
 5561POPC   C3A71657   3.936  39.794   7.061
 5561POPC   C4A71658   4.047  40.021   7.415
 5561POPC   C1B71659   4.405  40.356   6.202
 5561POPC   C2B71660   4.444  40.267   6.626
 5561POPC   C3B71661   4.437  39.985   7.017
 5561POPC   C4B71662   4.704  39.918   7.389
 5562POPC   NC371663   9.109  16.577   5.123
 5562POPC   PO471664   8.597  16.812   5.361
 5562POPC   GL171665   8.826  16.594   5.663
 5562POPC   GL271666   9.165  16.570   5.647
 5562POPC   C1A71667   8.890  16.829   6.054
 5562POPC   D2A71668   8.842  17.141   6.363
 5562POPC   C3A71669   8.829  17.008   6.798
 5562POPC   C4A71670   8.743  16.633   7.046
 5562POPC   C1B71671   9.140  16.399   6.075
 5562POPC   C2B71672   9.085  16.451   6.525
 5562POPC   C3B71673   9.070  16.244   6.911
 5562POPC   C4B71674   9.147  16.442   7.307
 5563POPC   NC371675  21.253  37.269   5.330
 5563POPC   PO471676  21.650  37.834   5.252
 5563POPC   GL171677  21.292  37.758   5.565
 5563POPC   GL271678  21.533  37.868   5.776
 5563POPC   C1A71679  21.196  37.641   6.058
 5563POPC   D2A71680  21.396  37.735   6.486
 5563POPC   C3A71681  21.278  37.524   6.891
 5563POPC   C4A71682  21.077  37.548   7.316
 5563POPC   C1B71683  21.808  37.934   6.105
 5563POPC   C2B71684  21.821  38.064   6.516
 5563POPC   C3B71685  21.714  37.858   6.897
 5563POPC   C4B71686  21.515  37.786   7.286
 5564POPC   NC371687  32.820  29.029   4.954
 5564POPC   PO471688  32.882  29.543   5.381
 5564POPC   GL171689  33.005  29.189   5.692
 5564POPC   GL271690  33.138  28.817   5.744
 5564POPC   C1A71691  33.044  29.232   6.165
 5564POPC   D2A71692  32.932  29.471   6.557
 5564POPC   C3A71693  32.803  29.268   6.951
 5564POPC   C4A71694  32.755  28.804   7.098
 5564POPC   C1B71695  33.251  28.754   6.209
 5564POPC   C2B71696  33.051  28.737   6.621
 5564POPC   C3B71697  33.214  28.973   6.959
 5564POPC   C4B71698  33.576  28.961   7.226
 5565POPC   NC371699   9.759  14.501   5.473
 5565POPC   PO471700  10.106  14.992   5.236
 5565POPC   GL171701  10.143  14.686   5.714
 5565POPC   GL271702   9.954  14.361   5.892
 5565POPC   C1A71703  10.022  14.715   6.234
 5565POPC   D2A71704   9.769  14.611   6.636
 5565POPC   C3A71705   9.724  14.733   7.082
 5565POPC   C4A71706  10.026  14.644   7.383
 5565POPC   C1B71707   9.630  14.352   6.205
 5565POPC   C2B71708   9.422  14.240   6.613
 5565POPC   C3B71709   9.432  14.326   7.012
 5565POPC   C4B71710   9.718  14.242   7.328
 5566POPC   NC371711  17.374  35.015   5.303
 5566POPC   PO471712  17.341  35.618   5.267
 5566POPC   GL171713  17.448  35.450   5.690
 5566POPC   GL271714  17.671  35.139   5.710
 5566POPC   C1A71715  17.384  35.389   6.147
 5566POPC   D2A71716  17.383  35.082   6.516
 5566POPC   C3A71717  17.359  35.293   6.931
 5566POPC   C4A71718  17.411  35.561   7.298
 5566POPC   C1B71719  17.733  35.008   6.146
 5566POPC   C2B71720  17.900  34.914   6.572
 5566POPC   C3B71721  18.024  35.031   6.989
 5566POPC   C4B71722  17.723  35.155   7.301
 5567POPC   NC371723  30.981  43.252   5.273
 5567POPC   PO471724  30.639  42.673   5.499
 5567POPC   GL171725  30.574  43.033   5.816
 5567POPC   GL271726  30.847  43.310   5.787
 5567POPC   C1A71727  30.521  43.214   6.230
 5567POPC   D2A71728  30.772  43.120   6.604
 5567POPC   C3A71729  30.604  43.217   7.001
 5567POPC   C4A71730  30.544  43.002   7.384
 5567POPC   C1B71731  31.009  43.368   6.207
 5567POPC   C2B71732  31.164  43.502   6.608
 5567POPC   C3B71733  31.120  43.233   6.970
 5567POPC   C4B71734  30.961  43.273   7.378
 5568POPC   NC371735  10.597   6.049   5.337
 5568POPC   PO471736  10.838   5.440   5.357
 5568POPC   GL171737  10.628   5.697   5.755
 5568POPC   GL271738  10.420   6.031   5.833
 5568POPC   C1A71739  10.545   5.712   6.225
 5568POPC   D2A71740  10.567   5.545   6.655
 5568POPC   C3A71741  10.525   5.939   6.872
 5568POPC   C4A71742  10.792   6.074   7.172
 5568POPC   C1B71743  10.059   5.828   6.102
 5568POPC   C2B71744  10.065   5.620   6.526
 5568POPC   C3B71745  10.050   5.723   6.958
 5568POPC   C4B71746  10.086   6.132   7.154
 5569POPC   NC371747  43.843   2.269   5.195
 5569POPC   PO471748  43.277   2.020   5.280
 5569POPC   GL171749  43.497   2.214   5.648
 5569POPC   GL271750  43.822   2.085   5.765
 5569POPC   C1A71751  43.487   2.318   6.102
 5569POPC   D2A71752  43.551   2.186   6.554
 5569POPC   C3A71753  43.893   2.244   6.873
 5569POPC   C4A71754  43.828   2.124   7.339
 5569POPC   C1B71755  43.974   1.973   6.201
 5569POPC   C2B71756  44.184   1.647   6.485
 5569POPC   C3B71757  44.295   1.590   6.910
 5569POPC   C4B71758  43.967   1.649   7.217
 5570POPC   NC371759   5.319  17.155   5.435
 5570POPC   PO471760   4.757  17.455   5.494
 5570POPC   GL171761   5.004  17.551   5.874
 5570POPC   GL271762   5.138  17.267   5.897
 5570POPC   C1A71763   5.117  17.540   6.342
 5570POPC   D2A71764   5.341  17.759   6.706
 5570POPC   C3A71765   5.047  17.862   7.062
 5570POPC   C4A71766   4.974  17.791   7.510
 5570POPC   C1B71767   5.545  17.408   6.086
 5570POPC   C2B71768   5.526  17.268   6.516
 5570POPC   C3B71769   5.239  17.234   6.857
 5570POPC   C4B71770   5.212  17.394   7.274
 5571POPC   NC371771  27.106  35.974   5.509
 5571POPC   PO471772  26.681  36.485   5.362
 5571POPC   GL171773  26.708  36.167   5.758
 5571POPC   GL271774  26.437  35.934   5.806
 5571POPC   C1A71775  26.974  36.073   6.135
 5571POPC   D2A71776  27.167  36.074   6.516
 5571POPC   C3A71777  27.078  36.118   6.924
 5571POPC   C4A71778  27.012  36.159   7.343
 5571POPC   C1B71779  26.470  36.088   6.206
 5571POPC   C2B71780  26.646  36.126   6.595
 5571POPC   C3B71781  26.562  35.994   6.988
 5571POPC   C4B71782  26.497  36.190   7.365
 5572POPC   NC371783  14.005  26.088   5.235
 5572POPC   PO471784  13.428  26.012   5.608
 5572POPC   GL171785  13.701  25.908   5.897
 5572POPC   GL271786  13.810  25.599   5.819
 5572POPC   C1A71787  13.890  26.022   6.287
 5572POPC   D2A71788  13.866  26.262   6.669
 5572POPC   C3A71789  13.611  26.174   7.042
 5572POPC   C4A71790  13.200  26.336   7.150
 5572POPC   C1B71791  13.647  25.570   6.281
 5572POPC   C2B71792  13.632  25.767   6.711
 5572POPC   C3B71793  13.588  25.701   7.179
 5572POPC   C4B71794  13.663  25.638   7.651
 5573POPC   NC371795   6.623  22.455   5.651
 5573POPC   PO471796   6.708  21.809   5.402
 5573POPC   GL171797   6.575  21.948   5.809
 5573POPC   GL271798   6.358  21.735   5.981
 5573POPC   C1A71799   6.760  22.028   6.226
 5573POPC   D2A71800   6.709  21.965   6.692
 5573POPC   C3A71801   6.934  22.265   6.991
 5573POPC   C4A71802   6.716  22.613   7.188
 5573POPC   C1B71803   6.263  22.088   6.277
 5573POPC   C2B71804   6.255  22.297   6.689
 5573POPC   C3B71805   6.430  22.161   7.087
 5573POPC   C4B71806   6.747  21.847   7.217
 5574POPC   NC371807   4.081  42.510   5.369
 5574POPC   PO471808   4.495  42.085   5.451
 5574POPC   GL171809   4.390  42.348   5.809
 5574POPC   GL271810   4.129  42.589   5.885
 5574POPC   C1A71811   4.536  42.440   6.216
 5574POPC   D2A71812   4.428  42.504   6.635
 5574POPC   C3A71813   4.630  42.294   6.934
 5574POPC   C4A71814   4.341  42.354   7.211
 5574POPC   C1B71815   4.034  42.409   6.296
 5574POPC   C2B71816   3.910  42.423   6.749
 5574POPC   C3B71817   3.984  42.696   7.111
 5574POPC   C4B71818   4.170  42.700   7.559
 5575POPC   NC371819   0.705  26.843   5.375
 5575POPC   PO471820   1.257  27.140   5.471
 5575POPC   GL171821   1.259  26.825   5.799
 5575POPC   GL271822   0.971  26.896   5.877
 5575POPC   C1A71823   1.222  26.669   6.267
 5575POPC   D2A71824   1.184  26.835   6.700
 5575POPC   C3A71825   1.168  26.706   7.141
 5575POPC   C4A71826   1.383  26.432   7.438
 5575POPC   C1B71827   0.968  27.113   6.288
 5575POPC   C2B71828   0.974  27.292   6.684
 5575POPC   C3B71829   1.017  27.202   7.082
 5575POPC   C4B71830   1.081  27.071   7.500
 5576POPC   NC371831  27.766  18.500   5.520
 5576POPC   PO471832  27.673  17.978   5.173
 5576POPC   GL171833  27.569  18.078   5.682
 5576POPC   GL271834  27.281  18.195   5.811
 5576POPC   C1A71835  27.662  18.309   6.133
 5576POPC   D2A71836  27.741  18.149   6.533
 5576POPC   C3A71837  27.850  18.319   6.925
 5576POPC   C4A71838  27.946  18.048   7.303
 5576POPC   C1B71839  27.155  18.287   6.242
 5576POPC   C2B71840  27.258  18.371   6.673
 5576POPC   C3B71841  27.120  18.292   7.053
 5576POPC   C4B71842  27.459  18.132   7.220
 5577POPC   NC371843  19.998  39.214   5.335
 5577POPC   PO471844  19.450  38.923   5.401
 5577POPC   GL171845  19.745  39.036   5.761
 5577POPC   GL271846  19.785  39.385   5.869
 5577POPC   C1A71847  19.935  38.995   6.185
 5577POPC   D2A71848  20.031  39.203   6.577
 5577POPC   C3A71849  19.996  38.997   6.969
 5577POPC   C4A71850  19.676  38.924   7.269
 5577POPC   C1B71851  19.743  39.578   6.308
 5577POPC   C2B71852  19.556  39.691   6.693
 5577POPC   C3B71853  19.757  39.492   6.998
 5577POPC   C4B71854  20.210  39.483   6.951
 5578POPC   NC371855  39.500  40.814   5.422
 5578POPC   PO471856  38.828  40.610   5.450
 5578POPC   GL171857  39.059  40.856   5.738
 5578POPC   GL271858  39.285  40.676   5.867
 5578POPC   C1A71859  39.092  41.039   6.152
 5578POPC   D2A71860  39.154  41.232   6.532
 5578POPC   C3A71861  39.256  40.999   6.884
 5578POPC   C4A71862  39.052  41.107   7.270
 5578POPC   C1B71863  39.430  40.409   6.182
 5578POPC   C2B71864  39.289  40.259   6.555
 5578POPC   C3B71865  39.378  40.428   6.938
 5578POPC   C4B71866  39.217  40.629   7.272
 5579POPC   NC371867  39.062   9.152   5.473
 5579POPC   PO471868  39.284   8.517   5.495
 5579POPC   GL171869  39.033   8.750   5.808
 5579POPC   GL271870  38.848   9.070   5.898
 5579POPC   C1A71871  39.241   8.914   6.181
 5579POPC   D2A71872  39.284   9.164   6.551
 5579POPC   C3A71873  39.449   8.944   6.891
 5579POPC   C4A71874  39.634   9.075   7.273
 5579POPC   C1B71875  38.734   8.992   6.288
 5579POPC   C2B71876  38.772   9.198   6.655
 5579POPC   C3B71877  39.013   9.184   7.037
 5579POPC   C4B71878  39.117   8.766   7.245
 5580POPC   NC371879  37.384  19.694   5.486
 5580POPC   PO471880  37.857  20.094   5.207
 5580POPC   GL171881  37.839  19.858   5.650
 5580POPC   GL271882  38.069  19.957   5.888
 5580POPC   C1A71883  37.728  19.646   6.080
 5580POPC   D2A71884  37.513  19.713   6.469
 5580POPC   C3A71885  37.732  19.706   6.865
 5580POPC   C4A71886  37.770  19.490   7.277
 5580POPC   C1B71887  37.891  20.186   6.267
 5580POPC   C2B71888  37.562  20.210   6.624
 5580POPC   C3B71889  37.571  20.138   7.073
 5580POPC   C4B71890  37.983  19.961   7.241
 5581POPC   NC371891   7.614  35.357   5.373
 5581POPC   PO471892   7.035  35.634   5.594
 5581POPC   GL171893   7.305  35.333   5.782
 5581POPC   GL271894   7.601  35.523   5.866
 5581POPC   C1A71895   7.425  35.135   6.140
 5581POPC   D2A71896   7.259  35.246   6.533
 5581POPC   C3A71897   7.523  35.100   6.825
 5581POPC   C4A71898   7.550  35.151   7.249
 5581POPC   C1B71899   7.598  35.584   6.330
 5581POPC   C2B71900   7.841  35.501   6.710
 5581POPC   C3B71901   7.712  35.622   7.129
 5581POPC   C4B71902   7.757  35.878   7.512
 5582POPC   NC371903  38.355  37.437   5.378
 5582POPC   PO471904  38.878  37.891   5.403
 5582POPC   GL171905  38.706  37.641   5.725
 5582POPC   GL271906  38.371  37.811   5.730
 5582POPC   C1A71907  38.709  37.522   6.177
 5582POPC   D2A71908  38.528  37.439   6.617
 5582POPC   C3A71909  38.733  37.653   6.940
 5582POPC   C4A71910  38.817  37.637   7.366
 5582POPC   C1B71911  38.204  37.585   6.080
 5582POPC   C2B71912  38.082  37.676   6.500
 5582POPC   C3B71913  38.230  37.787   6.882
 5582POPC   C4B71914  38.328  37.595   7.239
 5583POPC   NC371915   9.075  27.723   5.258
 5583POPC   PO471916   8.575  27.343   5.458
 5583POPC   GL171917   8.876  27.577   5.734
 5583POPC   GL271918   9.228  27.432   5.727
 5583POPC   C1A71919   9.040  27.649   6.172
 5583POPC   D2A71920   8.997  27.459   6.584
 5583POPC   C3A71921   8.815  27.625   6.987
 5583POPC   C4A71922   8.953  27.568   7.427
 5583POPC   C1B71923   9.509  27.365   6.115
 5583POPC   C2B71924   9.500  27.487   6.558
 5583POPC   C3B71925   9.338  27.469   6.968
 5583POPC   C4B71926   9.379  27.262   7.357
 5584POPC   NC371927  27.561  36.552   5.592
 5584POPC   PO471928  27.899  37.066   5.355
 5584POPC   GL171929  27.707  37.035   5.714
 5584POPC   GL271930  27.971  36.819   5.825
 5584POPC   C1A71931  27.507  37.012   6.101
 5584POPC   D2A71932  27.700  36.909   6.489
 5584POPC   C3A71933  27.521  37.066   6.863
 5584POPC   C4A71934  27.773  37.109   7.230
 5584POPC   C1B71935  27.903  36.531   6.195
 5584POPC   C2B71936  28.072  36.564   6.623
 5584POPC   C3B71937  27.807  36.652   6.980
 5584POPC   C4B71938  27.900  36.637   7.415
 5585POPC   NC371939  25.164  42.161   5.408
 5585POPC   PO471940  24.943  42.742   5.727
 5585POPC   GL171941  25.211  42.424   5.872
 5585POPC   GL271942  25.396  42.098   5.850
 5585POPC   C1A71943  25.206  42.329   6.292
 5585POPC   D2A71944  25.383  42.418   6.644
 5585POPC   C3A71945  25.287  42.699   6.869
 5585POPC   C4A71946  25.134  42.505   7.193
 5585POPC   C1B71947  25.657  42.037   6.231
 5585POPC   C2B71948  25.787  42.143   6.662
 5585POPC   C3B71949  25.488  42.104   7.048
 5585POPC   C4B71950  25.052  42.006   7.098
 5586POPC   NC371951  43.096   1.708   5.561
 5586POPC   PO471952  43.111   1.077   5.353
 5586POPC   GL171953  43.010   1.057   5.816
 5586POPC   GL271954  43.052   1.399   5.971
 5586POPC   C1A71955  43.071   0.956   6.279
 5586POPC   D2A71956  43.261   1.150   6.668
 5586POPC   C3A71957  43.170   1.054   7.099
 5586POPC   C4A71958  43.401   1.431   7.194
 5586POPC   C1B71959  42.913   1.429   6.408
 5586POPC   C2B71960  42.787   1.137   6.771
 5586POPC   C3B71961  42.900   1.484   7.054
 5586POPC   C4B71962  42.676   1.672   7.373
 5587POPC   NC371963  35.891  21.415   5.139
 5587POPC   PO471964  36.363  21.488   5.561
 5587POPC   GL171965  36.081  21.624   5.840
 5587POPC   GL271966  36.319  21.872   5.915
 5587POPC   C1A71967  36.003  21.445   6.267
 5587POPC   D2A71968  36.268  21.343   6.628
 5587POPC   C3A71969  36.050  21.255   7.007
 5587POPC   C4A71970  35.671  21.273   7.215
 5587POPC   C1B71971  36.507  21.606   6.209
 5587POPC   C2B71972  36.687  21.650   6.588
 5587POPC   C3B71973  36.513  21.590   7.002
 5587POPC   C4B71974  36.330  21.486   7.406
 5588POPC   NC371975  34.335  27.019   5.579
 5588POPC   PO471976  34.711  26.318   5.521
 5588POPC   GL171977  34.578  26.513   5.880
 5588POPC   GL271978  34.672  26.857   5.930
 5588POPC   C1A71979  34.477  26.516   6.324
 5588POPC   D2A71980  34.733  26.556   6.704
 5588POPC   C3A71981  34.514  26.660   7.080
 5588POPC   C4A71982  34.223  26.694   7.422
 5588POPC   C1B71983  34.797  26.956   6.356
 5588POPC   C2B71984  34.909  27.038   6.791
 5588POPC   C3B71985  34.895  26.992   7.220
 5588POPC   C4B71986  34.509  27.123   7.447
 5589POPC   NC371987   2.254  15.633   5.486
 5589POPC   PO471988   2.016  16.311   5.411
 5589POPC   GL171989   2.041  16.010   5.750
 5589POPC   GL271990   1.714  15.880   5.858
 5589POPC   C1A71991   2.125  15.758   6.136
 5589POPC   D2A71992   1.863  15.793   6.539
 5589POPC   C3A71993   2.045  15.765   6.981
 5589POPC   C4A71994   2.134  15.787   7.461
 5589POPC   C1B71995   1.711  16.213   6.214
 5589POPC   C2B71996   1.607  16.199   6.689
 5589POPC   C3B71997   1.633  16.100   7.133
 5589POPC   C4B71998   1.555  16.364   7.481
 5590POPC   NC371999  40.735  38.034   5.377
 5590POPC   PO472000  40.438  37.384   5.466
 5590POPC   GL172001  40.635  37.576   5.792
 5590POPC   GL272002  40.977  37.527   5.687
 5590POPC   C1A72003  40.592  37.753   6.213
 5590POPC   D2A72004  40.562  38.036   6.561
 5590POPC   C3A72005  40.583  37.744   6.902
 5590POPC   C4A72006  40.795  37.758   7.294
 5590POPC   C1B72007  41.074  37.605   6.123
 5590POPC   C2B72008  41.016  37.753   6.550
 5590POPC   C3B72009  41.045  37.506   6.914
 5590POPC   C4B72010  41.078  37.297   7.287
 5591POPC   NC372011  40.621  41.855   5.415
 5591POPC   PO472012  40.687  42.584   5.354
 5591POPC   GL172013  40.619  42.487   5.745
 5591POPC   GL272014  40.426  42.788   5.802
 5591POPC   C1A72015  40.652  42.256   6.124
 5591POPC   D2A72016  40.896  42.292   6.468
 5591POPC   C3A72017  40.925  42.106   6.870
 5591POPC   C4A72018  41.165  42.328   7.184
 5591POPC   C1B72019  40.379  42.723   6.256
 5591POPC   C2B72020  40.465  42.526   6.671
 5591POPC   C3B72021  40.520  42.509   7.114
 5591POPC   C4B72022  40.483  42.815   7.496
 5592POPC   NC372023  38.194  30.965   5.450
 5592POPC   PO472024  38.562  30.429   5.470
 5592POPC   GL172025  38.504  30.700   5.786
 5592POPC   GL272026  38.178  30.607   5.829
 5592POPC   C1A72027  38.541  30.782   6.207
 5592POPC   D2A72028  38.478  30.615   6.596
 5592POPC   C3A72029  38.668  30.861   6.921
 5592POPC   C4A72030  38.665  30.657   7.327
 5592POPC   C1B72031  37.973  30.815   6.163
 5592POPC   C2B72032  37.940  30.746   6.594
 5592POPC   C3B72033  38.167  30.745   6.988
 5592POPC   C4B72034  37.866  30.815   7.266
 5593POPC   NC372035  26.363  20.587   5.613
 5593POPC   PO472036  25.818  20.406   5.276
 5593POPC   GL172037  25.851  20.405   5.748
 5593POPC   GL272038  25.982  20.744   5.905
 5593POPC   C1A72039  25.802  20.402   6.212
 5593POPC   D2A72040  25.875  20.741   6.508
 5593POPC   C3A72041  26.011  20.593   6.902
 5593POPC   C4A72042  25.817  20.540   7.272
 5593POPC   C1B72043  26.363  20.699   6.221
 5593POPC   C2B72044  26.473  20.733   6.636
 5593POPC   C3B72045  26.500  20.533   7.039
 5593POPC   C4B72046  26.320  20.702   7.408
 5594POPC   NC372047  11.482  20.078   5.462
 5594POPC   PO472048  11.107  19.566   5.561
 5594POPC   GL172049  11.322  19.781   5.850
 5594POPC   GL272050  11.092  20.051   5.803
 5594POPC   C1A72051  11.551  19.848   6.209
 5594POPC   D2A72052  11.677  19.651   6.569
 5594POPC   C3A72053  11.474  19.891   6.859
 5594POPC   C4A72054  11.587  19.744   7.251
 5594POPC   C1B72055  11.035  20.018   6.249
 5594POPC   C2B72056  11.022  20.161   6.679
 5594POPC   C3B72057  10.905  20.376   7.042
 5594POPC   C4B72058  10.916  20.180   7.442
 5595POPC   NC372059  25.613  14.640   5.564
 5595POPC   PO472060  25.374  15.171   5.329
 5595POPC   GL172061  25.349  15.048   5.763
 5595POPC   GL272062  25.259  15.363   5.808
 5595POPC   C1A72063  25.473  15.142   6.214
 5595POPC   D2A72064  25.365  15.005   6.620
 5595POPC   C3A72065  25.527  15.128   7.013
 5595POPC   C4A72066  25.399  14.915   7.375
 5595POPC   C1B72067  25.011  15.360   6.150
 5595POPC   C2B72068  25.156  15.458   6.539
 5595POPC   C3B72069  25.061  15.312   6.945
 5595POPC   C4B72070  25.201  15.353   7.364
 5596POPC   NC372071  21.872  42.972   5.311
 5596POPC   PO472072  21.952  43.659   5.236
 5596POPC   GL172073  21.952  43.473   5.690
 5596POPC   GL272074  22.188  43.173   5.696
 5596POPC   C1A72075  21.985  43.378   6.170
 5596POPC   D2A72076  21.963  43.083   6.551
 5596POPC   C3A72077  22.020  43.316   6.945
 5596POPC   C4A72078  21.990  43.300   7.402
 5596POPC   C1B72079  22.135  42.883   6.056
 5596POPC   C2B72080  22.378  42.785   6.424
 5596POPC   C3B72081  22.406  42.841   6.857
 5596POPC   C4B72082  22.107  42.842   7.165
 5597POPC   NC372083  32.914   8.424   5.481
 5597POPC   PO472084  33.381   7.972   5.471
 5597POPC   GL172085  33.210   8.151   5.831
 5597POPC   GL272086  32.863   8.349   5.990
 5597POPC   C1A72087  33.287   8.240   6.197
 5597POPC   D2A72088  33.011   8.256   6.533
 5597POPC   C3A72089  33.175   8.258   6.959
 5597POPC   C4A72090  32.842   8.210   7.249
 5597POPC   C1B72091  32.718   8.633   6.285
 5597POPC   C2B72092  32.893   8.722   6.695
 5597POPC   C3B72093  32.914   8.703   7.151
 5597POPC   C4B72094  32.671   8.663   7.538
 5598POPC   NC372095  31.642  37.114   5.218
 5598POPC   PO472096  31.615  36.453   5.422
 5598POPC   GL172097  31.670  36.765   5.798
 5598POPC   GL272098  31.343  36.971   5.833
 5598POPC   C1A72099  31.646  36.974   6.261
 5598POPC   D2A72100  31.371  36.986   6.661
 5598POPC   C3A72101  31.650  37.059   7.029
 5598POPC   C4A72102  31.612  37.216   7.497
 5598POPC   C1B72103  31.248  36.668   6.196
 5598POPC   C2B72104  31.544  36.525   6.535
 5598POPC   C3B72105  31.632  36.549   7.006
 5598POPC   C4B72106  31.527  36.552   7.467
 5599POPC   NC372107  30.885  35.366   5.379
 5599POPC   PO472108  30.427  34.982   5.546
 5599POPC   GL172109  30.604  35.229   5.846
 5599POPC   GL272110  30.915  35.096   5.809
 5599POPC   C1A72111  30.460  35.427   6.239
 5599POPC   D2A72112  30.481  35.611   6.676
 5599POPC   C3A72113  30.448  35.348   7.055
 5599POPC   C4A72114  30.523  35.294   7.525
 5599POPC   C1B72115  30.900  35.036   6.232
 5599POPC   C2B72116  30.919  35.338   6.526
 5599POPC   C3B72117  31.027  35.281   6.933
 5599POPC   C4B72118  30.795  34.988   7.185
 5600POPC   NC372119  32.873  41.753   5.264
 5600POPC   PO472120  33.463  41.691   5.579
 5600POPC   GL172121  33.052  41.717   5.754
 5600POPC   GL272122  32.838  41.432   5.676
 5600POPC   C1A72123  32.770  41.742   6.116
 5600POPC   D2A72124  32.825  41.801   6.560
 5600POPC   C3A72125  33.187  41.650   6.755
 5600POPC   C4A72126  33.209  41.589   7.170
 5600POPC   C1B72127  33.035  41.282   6.061
 5600POPC   C2B72128  32.964  41.267   6.474
 5600POPC   C3B72129  32.935  41.227   6.896
 5600POPC   C4B72130  32.728  41.381   7.244
 5601POPC   NC372131  35.467  11.690   5.398
 5601POPC   PO472132  35.179  12.268   5.177
 5601POPC   GL172133  35.317  12.137   5.601
 5601POPC   GL272134  35.076  11.885   5.703
 5601POPC   C1A72135  35.478  11.982   6.025
 5601POPC   D2A72136  35.491  12.101   6.477
 5601POPC   C3A72137  35.437  12.018   6.940
 5601POPC   C4A72138  35.373  12.293   7.319
 5601POPC   C1B72139  34.993  11.787   6.164
 5601POPC   C2B72140  35.093  11.764   6.630
 5601POPC   C3B72141  34.958  11.864   7.083
 5601POPC   C4B72142  34.855  11.831   7.531
 5602W        W72143   2.368  21.134  10.742
 5603W        W72144  11.642  29.088  14.372
 5604W        W72145  26.273  20.517  12.611
 5605W        W72146   3.463   8.239   3.801
 5606W        W72147  33.642  37.221   4.697
 5607W        W72148   6.766  29.443  15.000
 5608W        W72149  17.466  35.498  11.774
 5609W        W72150  13.291  20.730   0.296
 5610W        W72151  29.129  22.995  11.714
 5611W        W72152  38.870  26.608  12.427
 5612W        W72153   7.727   4.481   4.934
 5613W        W72154  40.744  36.013  13.830
 5614W        W72155  34.598  11.425  11.448
 5615W        W72156  26.247  13.244  13.486
 5616W        W72157  29.377  35.245   0.136
 5617W        W72158  20.519  20.611   4.055
 5618W        W72159  26.867  41.979   2.252
 5619W        W72160  16.635  44.313  11.801
 5620W        W72161  14.417  28.985   0.473
 5621W        W72162  40.513   2.597   4.059
 5622W        W72163  23.337  17.951   4.168
 5623W        W72164  14.790  14.679  11.448
 5624W        W72165  33.533  14.071   0.853
 5625W        W72166  11.348  10.248  14.249
 5626W        W72167   2.921  11.719   4.048
 5627W        W72168   4.252  41.724   1.028
 5628W        W72169  40.784  19.687   0.564
 5629W        W72170  32.209  13.375  13.532
 5630W        W72171   1.266  10.347   4.827
 5631W        W72172  20.990  34.597  12.496
 5632W        W72173   8.188   3.378  10.719
 5633W        W72174  20.011  28.243  14.490
 5634W        W72175  38.590  17.722   3.755
 5635W        W72176  25.477  40.259   0.440
 5636W        W72177  42.793  41.871  11.963
 5637W        W72178  26.168   3.016   2.796
 5638W        W72179  30.786  37.133  14.219
 5639W        W72180  14.536  14.132  14.657
 5640W        W72181   9.279  39.436  11.665
 5641W        W72182  30.000  35.368   0.675
 5642W        W72183  34.398  13.605   0.307
 5643W        W72184   8.448   6.425   3.767
 5644W        W72185  40.021  16.793  14.568
 5645W        W72186  32.644   0.428  12.587
 5646W        W72187  32.371  18.784   3.647
 5647W        W72188   8.970  14.387  11.957
 5648W        W72189  10.092  38.064   1.792
 5649W        W72190  32.064  26.780   4.912
 5650W        W72191  15.158   5.240   1.659
 5651W        W72192  20.226  29.521   0.688
 5652W        W72193   6.582  25.423  12.042
 5653W        W72194  28.682   4.746  14.673
 5654W        W72195  34.060  21.089   3.939
 5655W        W72196  34.676  32.660  14.344
 5656W        W72197   0.052  15.590  11.201
 5657W        W72198  19.605  11.300  10.609
 5658W        W72199  25.482  40.864  14.579
 5659W        W72200  31.596   1.234  13.102
 5660W        W72201  14.703  15.328  11.068
 5661W        W72202  21.096  42.306  12.025
 5662W        W72203  11.341  19.183   2.324
 5663W        W72204  21.506   9.348   3.668
 5664W        W72205   7.336  31.438  13.586
 5665W        W72206  10.048   4.658   2.653
 5666W        W72207  10.409  30.572   4.919
 5667W        W72208  24.202  38.331   1.768
 5668W        W72209  18.731  41.963  13.054
 5669W        W72210  34.979  13.840  12.112
 5670W        W72211  37.532  30.609  11.521
 5671W        W72212  24.217  31.211   1.527
 5672W        W72213  11.139  32.469  13.945
 5673W        W72214   6.907  40.492  14.405
 5674W        W72215   0.432   8.635  11.577
 5675W        W72216  27.119  42.306  10.718
 5676W        W72217  28.967  33.553  14.635
 5677W        W72218   1.712  26.745   4.119
 5678W        W72219  19.364  29.527  13.004
 5679W        W72220  16.802  32.268  12.812
 5680W        W72221   3.278  15.240  11.314
 5681W        W72222   6.531  37.662  10.964
 5682W        W72223  22.248  42.723  12.545
 5683W        W72224  18.391   3.037  13.403
 5684W        W72225  14.144  29.494   4.680
 5685W        W72226   9.802   6.688   1.885
 5686W        W72227  11.612   9.089  10.487
 5687W        W72228  19.816  13.504   1.782
 5688W        W72229   0.589  16.422   2.865
 5689W        W72230  42.552  20.545  14.423
 5690W        W72231  24.945  43.019  13.376
 5691W        W72232  28.114  26.646   0.711
 5692W        W72233  31.738   8.894  12.051
 5693W        W72234  31.675  28.135  14.997
 5694W        W72235  14.570  22.203  12.562
 5695W        W72236  16.451   2.991  14.313
 5696W        W72237  17.036  40.293  14.396
 5697W        W72238   4.118  28.153   4.680
 5698W        W72239  23.971  12.194   2.390
 5699W        W72240   8.185  11.919   0.873
 5700W        W72241   5.447  31.880  13.154
 5701W        W72242  38.127  14.161   2.394
 5702W        W72243  32.194   7.956   4.053
 5703W        W72244  44.363  18.233   4.141
 5704W        W72245  36.484  20.951   2.998
 5705W        W72246  30.726  25.161  13.036
 5706W        W72247   6.022  44.121  10.499
 5707W        W72248  28.354  12.488   4.639
 5708W        W72249  20.668   7.936   3.868
 5709W        W72250  32.575   9.861  11.013
 5710W        W72251  14.603  41.725  13.982
 5711W        W72252  29.232  22.506   3.824
 5712W        W72253  20.705  32.133  13.415
 5713W        W72254  40.005  35.564   3.931
 5714W        W72255  32.561  15.652   4.658
 5715W        W72256   1.656  21.045   0.516
 5716W        W72257  40.604  24.104   3.854
 5717W        W72258   2.399   8.667   2.381
 5718W        W72259  13.603   6.270   2.511
 5719W        W72260  41.847  39.561  13.753
 5720W        W72261   1.478  26.467   1.849
 5721W        W72262  15.787  29.858   4.002
 5722W        W72263  28.638  23.028  11.520
 5723W        W72264   1.865  28.172  10.527
 5724W        W72265  38.302  28.283  11.040
 5725W        W72266  33.903  10.789  12.597
 5726W        W72267   9.939  40.161   0.293
 5727W        W72268  27.014   3.579  13.047
 5728W        W72269  33.924  35.354  12.859
 5729W        W72270   6.044  25.738  13.918
 5730W        W72271   6.702  23.405   4.725
 5731W        W72272   7.822  22.532  11.655
 5732W        W72273   7.813  37.273  14.970
 5733W        W72274  27.977  14.608  14.364
 5734W        W72275   9.393  44.014   0.191
 5735W        W72276  43.109   9.405  14.065
 5736W        W72277  13.632  28.909  11.562
 5737W        W72278   7.893  37.715  10.735
 5738W        W72279   7.502  41.576  13.820
 5739W        W72280  19.853  18.954  14.759
 5740W        W72281   3.576   7.741  11.938
 5741W        W72282   7.209  20.732  13.893
 5742W        W72283  16.476  37.546   5.004
 5743W        W72284  14.266  40.219   0.223
 5744W        W72285  24.922   5.489   5.553
 5745W        W72286   8.090  19.800  14.426
 5746W        W72287   1.913  29.814   5.026
 5747W        W72288  16.518  41.307   3.444
 5748W        W72289  25.937  37.312   2.743
 5749W        W72290   5.274  41.272  10.280
 5750W        W72291  15.220   7.272   1.789
 5751W        W72292  15.707  39.588   1.995
 5752W        W72293   4.335  44.821  12.362
 5753W        W72294  26.540  35.033  12.982
 5754W        W72295  27.213  27.045   3.691
 5755W        W72296   9.991  23.947   3.547
 5756W        W72297  36.915  42.493   2.426
 5757W        W72298  40.242  31.520   0.183
 5758W        W72299  36.708  16.804  13.511
 5759W        W72300  41.066  11.398  10.703
 5760W        W72301   0.388   6.671   0.316
 5761W        W72302  17.783  16.809   2.333
 5762W        W72303  33.559  33.062   0.167
 5763W        W72304  10.662  12.372  14.767
 5764W        W72305  37.569  10.114   2.331
 5765W        W72306  14.812  22.546   0.807
 5766W        W72307  34.873  36.381   1.985
 5767W        W72308  44.896  20.334   3.691
 5768W        W72309  19.810   8.932  11.218
 5769W        W72310   5.912  27.501  14.274
 5770W        W72311   2.482   4.365  13.530
 5771W        W72312  16.041  23.679  14.407
 5772W        W72313  44.398   9.396  13.390
 5773W        W72314  34.993  44.961  10.413
 5774W        W72315  41.916   5.198   1.236
 5775W        W72316   3.681   8.136   0.836
 5776W        W72317   0.230  41.343  12.013
 5777W        W72318  31.846  13.590   2.557
 5778W        W72319  21.564  10.705   0.745
 5779W        W72320   2.197  44.926   1.935
 5780W        W72321   1.323  22.806  11.477
 5781W        W72322  38.016   1.510   2.055
 5782W        W72323  15.593   9.870  11.141
 5783W        W72324   5.979   4.066   0.492
 5784W        W72325  12.955   0.585   4.060
 5785W        W72326  12.830  13.534  14.490
 5786W        W72327   8.761  35.438   2.589
 5787W        W72328   7.351  23.847  12.439
 5788W        W72329  14.925  22.562  11.519
 5789W        W72330  12.728  12.164  14.800
 5790W        W72331  32.901  23.486   0.393
 5791W        W72332  30.813  17.281   2.813
 5792W        W72333  27.488  10.638  14.151
 5793W        W72334  22.066  22.196  13.388
 5794W        W72335  29.025  39.462   4.942
 5795W        W72336  30.153  11.349   4.675
 5796W        W72337  11.126  36.464   0.917
 5797W        W72338   3.290  13.466   2.409
 5798W        W72339   8.444   1.558   1.286
 5799W        W72340  15.927  28.735   2.333
 5800W        W72341  32.112   6.370   0.896
 5801W        W72342  12.762  23.186  10.692
 5802W        W72343  33.822   9.252   4.835
 5803W        W72344   9.653  35.775   0.781
 5804W        W72345   1.202   5.367  14.589
 5805W        W72346  10.741  37.131  14.480
 5806W        W72347  27.148  44.271  11.941
 5807W        W72348  39.451  23.617   4.160
 5808W        W72349   1.949  22.020   3.158
 5809W        W72350  19.803  14.867  11.595
 5810W        W72351  42.521  44.850   1.302
 5811W        W72352  29.634  42.555   1.596
 5812W        W72353   2.947  22.609  14.057
 5813W        W72354  18.563  29.516   1.337
 5814W        W72355  33.509  43.466  13.510
 5815W        W72356  12.264  36.632   3.818
 5816W        W72357  44.937  27.520   1.483
 5817W        W72358  41.169  23.682  11.680
 5818W        W72359  28.382  31.395  11.082
 5819W        W72360  34.890  27.153   0.782
 5820W        W72361  11.828   1.194  14.347
 5821W        W72362  14.740  23.676  11.630
 5822W        W72363   4.668  27.368   3.678
 5823W        W72364  15.089  27.424   4.321
 5824W        W72365   7.403  15.844   0.419
 5825W        W72366  36.012  23.635  14.029
 5826W        W72367  25.425  17.778   3.236
 5827W        W72368  31.077  32.117   1.464
 5828W        W72369  20.388  21.580   3.405
 5829W        W72370  39.299  30.613  11.937
 5830W        W72371   3.871  21.976  14.962
 5831W        W72372  33.731  18.756  14.043
 5832W        W72373  16.098  11.796   2.889
 5833W        W72374  32.064  31.293   4.865
 5834W        W72375  36.837   7.663  11.073
 5835W        W72376  30.543  36.108  10.768
 5836W        W72377   4.012  35.953  13.916
 5837W        W72378  30.116  10.348  10.844
 5838W        W72379  36.012   8.387   0.748
 5839W        W72380  12.580   4.390  10.832
 5840W        W72381  32.133  12.145  13.980
 5841W        W72382  28.605   0.514   4.836
 5842W        W72383  12.677  41.700   1.755
 5843W        W72384  32.252  37.949  13.420
 5844W        W72385  42.513   0.766  14.042
 5845W        W72386  27.522  40.583   2.879
 5846W        W72387  39.171  16.274   3.591
 5847W        W72388   0.434   7.856  13.020
 5848W        W72389  29.610   2.741  12.090
 5849W        W72390   4.361   7.752  10.590
 5850W        W72391  21.244  20.696   1.907
 5851W        W72392  41.584  17.507   3.916
 5852W        W72393   2.735  13.236  10.558
 5853W        W72394   2.677  17.858  11.092
 5854W        W72395  20.184  24.089   4.133
 5855W        W72396  40.638  38.755   1.741
 5856W        W72397  41.063  22.049  11.729
 5857W        W72398   0.745  10.299   0.189
 5858W        W72399   5.955  35.038  14.455
 5859W        W72400   6.646  34.966  12.762
 5860W        W72401  12.248  38.410  12.932
 5861W        W72402  14.421  17.286   4.502
 5862W        W72403   3.336  33.359   3.543
 5863W        W72404  19.105   9.219  11.161
 5864W        W72405  40.551  11.041   3.813
 5865W        W72406  37.269  38.204  14.869
 5866W        W72407  36.020  18.317   1.982
 5867W        W72408  17.813   7.226   4.574
 5868W        W72409  28.007   4.443   1.974
 5869W        W72410  25.213  22.299  12.007
 5870W        W72411  18.199  26.093  10.726
 5871W        W72412  40.775  28.221   4.917
 5872W        W72413  27.901  29.116  13.897
 5873W        W72414  11.290   6.434  14.501
 5874W        W72415  32.044  41.486  13.333
 5875W        W72416  37.528  32.040   2.297
 5876W        W72417  44.972  25.670   0.884
 5877W        W72418  21.814  30.498   1.820
 5878W        W72419   1.166  35.906   9.847
 5879W        W72420   3.185  24.067   4.576
 5880W        W72421  26.670  26.255   1.399
 5881W        W72422  19.776  42.989   0.754
 5882W        W72423  32.731  22.010   4.154
 5883W        W72424   2.367  15.239  10.682
 5884W        W72425  38.600  18.811   1.225
 5885W        W72426  35.212   4.482   0.325
 5886W        W72427  30.409   5.319   0.850
 5887W        W72428  13.720  10.314   4.268
 5888W        W72429  28.257  30.440  14.935
 5889W        W72430  42.480  20.580  11.484
 5890W        W72431  24.084   1.746   4.614
 5891W        W72432   1.942   0.041   3.363
 5892W        W72433   3.405  42.046  13.938
 5893W        W72434  28.116  12.786  13.724
 5894W        W72435   9.295  42.066  12.498
 5895W        W72436  40.346  17.086  11.978
 5896W        W72437  31.950  36.823  11.507
 5897W        W72438   2.309  18.619  11.302
 5898W        W72439  10.610   9.411  12.603
 5899W        W72440   1.859  14.723  11.663
 5900W        W72441  44.325  29.943   1.780
 5901W        W72442  33.180  28.484   0.387
 5902W        W72443  16.647  28.623   3.675
 5903W        W72444   9.383  36.275   4.093
 5904W        W72445  16.656  23.777  12.547
 5905W        W72446   7.399  26.021  11.964
 5906W        W72447  16.612  39.784   2.933
 5907W        W72448  40.304  22.973  12.238
 5908W        W72449  42.740  13.109  11.915
 5909W        W72450  28.133  29.452   1.781
 5910W        W72451   0.941  21.029  13.932
 5911W        W72452  31.615  13.264  14.360
 5912W        W72453   7.787  25.135   3.904
 5913W        W72454  30.045   1.163   1.284
 5914W        W72455  25.617   6.333   1.479
 5915W        W72456  42.842   4.687  14.378
 5916W        W72457  39.840  22.573  11.494
 5917W        W72458  33.910  37.402   2.985
 5918W        W72459  43.747  43.309  12.231
 5919W        W72460  17.530  21.909  10.540
 5920W        W72461  16.221  25.856   1.092
 5921W        W72462  40.533  25.183  11.708
 5922W        W72463  30.686  42.758   0.885
 5923W        W72464  26.269  23.470   0.422
 5924W        W72465  25.642  40.823  13.716
 5925W        W72466  22.718  42.958   1.835
 5926W        W72467   5.295  34.334  14.901
 5927W        W72468   4.260  38.228   1.103
 5928W        W72469  38.944  19.663  10.007
 5929W        W72470  21.163   1.489   0.749
 5930W        W72471  32.912  20.176  10.730
 5931W        W72472  26.002   4.258  13.381
 5932W        W72473   6.451   5.409  13.662
 5933W        W72474  18.110  16.593   3.791
 5934W        W72475  38.207  41.641  14.548
 5935W        W72476   0.348  31.628  14.789
 5936W        W72477  28.928  27.685   3.755
 5937W        W72478   8.947  12.923  13.368
 5938W        W72479   1.884  21.904  12.933
 5939W        W72480  15.326  22.828   2.149
 5940W        W72481  16.029  33.102   0.798
 5941W        W72482  42.772  21.097  13.073
 5942W        W72483  44.397  21.782  14.481
 5943W        W72484   5.343   4.425   1.824
 5944W        W72485  19.259  31.978  13.443
 5945W        W72486  36.442  43.739  14.760
 5946W        W72487  36.961  37.031   0.668
 5947W        W72488  39.913  13.237   1.075
 5948W        W72489  35.099  31.515  14.845
 5949W        W72490  16.352   4.356  11.362
 5950W        W72491  41.111  17.495   2.663
 5951W        W72492  40.141  17.269   5.010
 5952W        W72493  27.603  20.291  12.134
 5953W        W72494  15.252  25.334  11.103
 5954W        W72495  30.317  31.032   1.770
 5955W        W72496   4.573  12.155  10.584
 5956W        W72497  34.529   2.910   3.630
 5957W        W72498  33.617  39.857  11.607
 5958W        W72499  26.258  19.525   1.847
 5959W        W72500  22.724  27.857   2.895
 5960W        W72501   2.049   5.876   4.327
 5961W        W72502   2.837  20.168  13.105
 5962W        W72503  32.037  21.933  11.595
 5963W        W72504   1.307  44.798   1.847
 5964W        W72505  17.273   3.516  14.683
 5965W        W72506  28.015  18.786   1.284
 5966W        W72507   3.936  26.505  11.722
 5967W        W72508  14.589  40.974  13.331
 5968W        W72509  13.130  17.279  13.342
 5969W        W72510   5.855  43.633  10.532
 5970W        W72511  16.274  30.215   3.327
 5971W        W72512  19.869  39.781   3.693
 5972W        W72513   4.506  36.395  10.835
 5973W        W72514  28.241   4.647  12.523
 5974W        W72515  19.198  41.360   0.886
 5975W        W72516  22.699  15.744   0.739
 5976W        W72517  40.391   7.320  11.523
 5977W        W72518  13.081  22.535   0.474
 5978W        W72519  30.374  24.071   1.938
 5979W        W72520  17.590  35.837  14.302
 5980W        W72521  25.781   9.825   0.757
 5981W        W72522  24.815  17.294   1.370
 5982W        W72523  12.622  32.907   0.543
 5983W        W72524  12.084  24.328  11.548
 5984W        W72525  33.539  30.091  11.534
 5985W        W72526  29.538   3.834  13.544
 5986W        W72527  33.518  12.105  13.558
 5987W        W72528  40.105  20.714   4.854
 5988W        W72529  21.511  25.427   1.658
 5989W        W72530  44.421  10.754   2.603
 5990W        W72531  10.229  11.346  11.909
 5991W        W72532  20.777  10.524   0.248
 5992W        W72533  39.449  13.120   0.437
 5993W        W72534   3.354  40.906   4.649
 5994W        W72535  13.386   9.354   0.360
 5995W        W72536   7.289   0.276  11.728
 5996W        W72537  24.744  22.219  13.473
 5997W        W72538  37.254  39.813   3.735
 5998W        W72539  26.634  23.563  14.976
 5999W        W72540  10.278  29.462   0.334
 6000W        W72541   9.406   0.881  13.853
 6001W        W72542   7.817  36.452   5.107
 6002W        W72543   7.948  31.920   0.937
 6003W        W72544  35.490   8.990  12.888
 6004W        W72545  15.197   4.833  11.192
 6005W        W72546  30.444  22.566  12.143
 6006W        W72547  20.277  22.958  11.979
 6007W        W72548  20.561   5.322  13.441
 6008W        W72549   0.052  31.096   3.610
 6009W        W72550  42.380  28.253   3.839
 6010W        W72551  19.657  31.973   1.237
 6011W        W72552  26.015  39.447   4.644
 6012W        W72553   9.178  21.805  13.536
 6013W        W72554  17.105  37.817  12.075
 6014W        W72555   7.726   3.488   1.210
 6015W        W72556  12.708  35.642   4.730
 6016W        W72557  38.605  35.545  12.924
 6017W        W72558  25.221   8.326   2.382
 6018W        W72559   7.688  22.181  14.612
 6019W        W72560  32.684  16.300  13.838
 6020W        W72561  38.940   4.141  12.838
 6021W        W72562  13.728  37.041  11.392
 6022W        W72563  32.316  23.690  14.504
 6023W        W72564  11.605  29.608   4.929
 6024W        W72565  30.635  42.125  11.802
 6025W        W72566  10.601   1.425  14.836
 6026W        W72567  37.134  12.124  14.874
 6027W        W72568  16.712  14.922  10.101
 6028W        W72569  34.657   9.931   1.307
 6029W        W72570  17.193  11.223  12.572
 6030W        W72571   6.169  20.629  14.315
 6031W        W72572   4.566  34.130   2.601
 6032W        W72573   1.167  12.769  11.201
 6033W        W72574  35.556  25.522  12.855
 6034W        W72575  21.812   9.590   0.193
 6035W        W72576  14.079  34.612   0.894
 6036W        W72577  20.184  18.608  13.997
 6037W        W72578  14.603  39.331  10.617
 6038W        W72579  14.821  28.658  12.066
 6039W        W72580  38.930  23.578  14.398
 6040W        W72581  35.821  13.961  14.976
 6041W        W72582  21.810   9.961   3.085
 6042W        W72583  35.567  19.489  13.393
 6043W        W72584  20.820   4.205  14.047
 6044W        W72585  31.992   1.789   4.487
 6045W        W72586  31.454  36.571  11.596
 6046W        W72587  19.762  32.557   4.267
 6047W        W72588  39.385  32.541  13.567
 6048W        W72589   4.362  41.435  14.323
 6049W        W72590   8.903  42.897   3.812
 6050W        W72591  35.434   2.199   0.495
 6051W        W72592  18.013  33.111  12.375
 6052W        W72593  10.688  41.042  13.147
 6053W        W72594   0.975  34.100   3.197
 6054W        W72595   2.691  21.794   3.131
 6055W        W72596  30.605   2.320   3.180
 6056W        W72597  32.508  22.946   3.141
 6057W        W72598   2.671  12.281   0.978
 6058W        W72599  38.974  17.743  13.657
 6059W        W72600   6.167  27.018   1.299
 6060W        W72601  40.343   3.499   4.169
 6061W        W72602  28.414  32.516   2.380
 6062W        W72603  33.639  25.280  12.028
 6063W        W72604  27.151  32.314  12.528
 6064W        W72605  28.548  33.878  12.655
 6065W        W72606  16.205   6.768   2.714
 6066W        W72607  28.138   2.434  13.008
 6067W        W72608  40.433   4.771   2.102
 6068W        W72609  38.787  12.354   2.771
 6069W        W72610  31.228   5.571  14.965
 6070W        W72611  20.343  16.645   2.575
 6071W        W72612  12.527  24.101  12.854
 6072W        W72613  41.433  32.186   5.174
 6073W        W72614   4.238  17.101   1.119
 6074W        W72615   0.925  18.808  12.844
 6075W        W72616  29.822  26.703  12.911
 6076W        W72617  26.069   0.718  14.476
 6077W        W72618   8.772   9.129   1.703
 6078W        W72619   5.965  27.647  12.955
 6079W        W72620  25.197  19.524   4.444
 6080W        W72621  39.492  23.979   2.716
 6081W        W72622  17.206   4.922   3.661
 6082W        W72623  34.849  38.002  11.514
 6083W        W72624  17.091  33.038  12.349
 6084W        W72625   3.230  29.786  11.599
 6085W        W72626  31.549   8.834   4.161
 6086W        W72627  28.972  15.494   0.747
 6087W        W72628  11.319   8.431  12.026
 6088W        W72629  17.114   1.755  11.542
 6089W        W72630  24.479   2.366   4.746
 6090W        W72631  11.672  41.740  11.516
 6091W        W72632  34.480  27.459  10.689
 6092W        W72633  31.382  40.928  13.572
 6093W        W72634  32.300  35.817   1.490
 6094W        W72635  10.929  33.798   4.169
 6095W        W72636  29.002   6.812   3.393
 6096W        W72637  40.978  22.052  11.236
 6097W        W72638   1.389   6.393   1.255
 6098W        W72639   2.554  43.988  13.861
 6099W        W72640  44.642  38.461  14.248
 6100W        W72641  38.601  32.494  13.055
 6101W        W72642  17.714  29.683  11.348
 6102W        W72643  19.146  20.984  13.260
 6103W        W72644  42.881  29.627   1.460
 6104W        W72645  34.139  32.518  12.796
 6105W        W72646  13.358  29.391   1.646
 6106W        W72647   2.487   4.793   1.080
 6107W        W72648  16.316  38.458   0.690
 6108W        W72649  24.109  24.775   4.817
 6109W        W72650  35.424   0.808   2.821
 6110W        W72651   5.403  23.275   3.644
 6111W        W72652  31.087  17.093  10.972
 6112W        W72653  38.164  13.028  13.315
 6113W        W72654  15.289   2.320  12.610
 6114W        W72655  19.546  15.576   0.230
 6115W        W72656  16.376   1.406   3.589
 6116W        W72657  31.065  38.001   4.131
 6117W        W72658  16.706  39.479   3.686
 6118W        W72659  33.587   4.618  14.927
 6119W        W72660  32.466  22.211  11.557
 6120W        W72661  35.830  31.426   2.927
 6121W        W72662  22.428   4.634   4.860
 6122W        W72663  23.073  30.842  13.199
 6123W        W72664   1.332  31.387   1.856
 6124W        W72665  20.947  15.379   5.264
 6125W        W72666  44.952  29.456   0.982
 6126W        W72667   4.477  39.544  12.879
 6127W        W72668  27.922   3.300   4.679
 6128W        W72669   8.429  23.741  11.471
 6129W        W72670  11.520  42.939   3.641
 6130W        W72671  31.026  27.067   0.903
 6131W        W72672  27.583  44.781   3.686
 6132W        W72673  14.407  11.615  13.825
 6133W        W72674  23.116  38.136   0.961
 6134W        W72675   1.994  20.530   1.283
 6135W        W72676  30.893  27.090  11.056
 6136W        W72677  43.258   3.916   1.872
 6137W        W72678  25.112  28.368  10.622
 6138W        W72679  22.710  22.454   2.621
 6139W        W72680   6.168   3.540  14.312
 6140W        W72681   4.830  23.201   5.152
 6141W        W72682   6.648  19.683  13.563
 6142W        W72683  19.173  27.942  11.277
 6143W        W72684  14.071  31.614  14.963
 6144W        W72685  13.852  39.923  14.318
 6145W        W72686  32.111  10.768   2.458
 6146W        W72687  18.381   9.258   4.682
 6147W        W72688  30.084  31.458   2.467
 6148W        W72689  38.071  31.411   4.408
 6149W        W72690  27.172   3.255  11.587
 6150W        W72691  11.728  10.168   4.925
 6151W        W72692  35.512  26.343   4.805
 6152W        W72693  30.179  35.851   1.824
 6153W        W72694   3.066  13.896   4.618
 6154W        W72695  18.133   6.344  11.616
 6155W        W72696  24.507  35.356   0.916
 6156W        W72697  11.684  34.028  13.493
 6157W        W72698  12.710  21.166   2.533
 6158W        W72699  24.657  13.199   1.438
 6159W        W72700  32.971  22.175   0.919
 6160W        W72701  26.029  11.482   4.392
 6161W        W72702  27.025  43.276  13.351
 6162W        W72703   5.375   9.396  13.844
 6163W        W72704  12.250  29.521  13.830
 6164W        W72705  24.833   7.514  11.089
 6165W        W72706  35.184   7.647  11.638
 6166W        W72707  26.985   2.786  11.503
 6167W        W72708   6.369  41.412   2.207
 6168W        W72709   8.667  12.059   0.718
 6169W        W72710  15.116   3.280   0.350
 6170W        W72711  21.097  44.560   5.306
 6171W        W72712  35.905   8.495  12.353
 6172W        W72713  30.535  12.343  12.568
 6173W        W72714  30.081  23.343  13.052
 6174W        W72715   7.795  37.836  13.661
 6175W        W72716  40.663  43.710   4.825
 6176W        W72717  19.587  41.548  11.123
 6177W        W72718  12.648   7.859   0.394
 6178W        W72719  26.578  23.291  13.070
 6179W        W72720  17.450  18.001   9.744
 6180W        W72721  41.438  31.529   3.359
 6181W        W72722  43.712   1.477  10.970
 6182W        W72723  17.267  10.194  13.349
 6183W        W72724  33.844  44.561  10.861
 6184W        W72725   9.037  34.462   3.265
 6185W        W72726  33.209   9.170  13.930
 6186W        W72727   7.262  43.611   1.473
 6187W        W72728  12.100  22.939   1.902
 6188W        W72729  30.237  42.032  14.929
 6189W        W72730   1.537  42.470  12.375
 6190W        W72731  28.918   1.963  13.976
 6191W        W72732  43.753   5.814  11.764
 6192W        W72733   6.297  34.620  13.779
 6193W        W72734  32.997   9.691   4.081
 6194W        W72735  38.569   3.022   4.526
 6195W        W72736   4.226  23.335   9.749
 6196W        W72737  18.075  27.952   2.774
 6197W        W72738  26.922  34.861   3.734
 6198W        W72739  33.337  36.407  14.267
 6199W        W72740  22.622  39.030   4.565
 6200W        W72741  34.958  29.657   2.141
 6201W        W72742  23.818  14.128  12.151
 6202W        W72743  22.287  17.924  11.037
 6203W        W72744  32.673  39.029   2.740
 6204W        W72745   1.485  12.779  12.040
 6205W        W72746  32.095   2.899  12.222
 6206W        W72747  19.781  11.828   1.552
 6207W        W72748  32.136   4.143  12.688
 6208W        W72749  42.745  31.448  12.330
 6209W        W72750  34.325  11.405  13.812
 6210W        W72751  29.242  28.110  12.389
 6211W        W72752  30.329  21.562  11.826
 6212W        W72753  27.145  31.935  14.353
 6213W        W72754   1.467   3.782   3.284
 6214W        W72755   1.054  41.796  14.398
 6215W        W72756  25.959   0.121   3.924
 6216W        W72757  25.063  27.718   4.655
 6217W        W72758  10.307   6.854  12.943
 6218W        W72759  36.964   6.652  12.726
 6219W        W72760  41.122  20.582  11.139
 6220W        W72761  12.654  27.948   4.827
 6221W        W72762  26.676   6.997   3.856
 6222W        W72763  27.043  39.988   4.164
 6223W        W72764  27.005   2.266  13.134
 6224W        W72765   2.614   9.387   3.542
 6225W        W72766  18.287  34.094  13.078
 6226W        W72767  14.456  22.800  11.499
 6227W        W72768  27.161   5.669  12.419
 6228W        W72769  24.652  38.586   1.954
 6229W        W72770  30.741  27.205  14.925
 6230W        W72771  41.217  37.499  13.382
 6231W        W72772  13.885   8.611  10.772
 6232W        W72773  24.570  29.871   4.815
 6233W        W72774  10.243  40.856  12.963
 6234W        W72775  30.413  27.403  12.633
 6235W        W72776  12.347   3.472  14.796
 6236W        W72777  22.308  25.709  13.796
 6237W        W72778  37.931  41.430   2.748
 6238W        W72779   5.301   4.363   4.294
 6239W        W72780   1.438  32.601   2.168
 6240W        W72781  34.529  35.434   4.069
 6241W        W72782  33.540  27.213   0.300
 6242W        W72783  22.750  37.529   1.385
 6243W        W72784  44.702   3.426   0.795
 6244W        W72785  33.189  30.451  11.563
 6245W        W72786  37.081  13.330   2.860
 6246W        W72787  33.561  38.940  10.943
 6247W        W72788  17.563  25.970  14.451
 6248W        W72789   4.719   5.038   4.963
 6249W        W72790  25.990   7.465   1.799
 6250W        W72791  15.744  28.500  13.098
 6251W        W72792   6.196  22.616   4.675
 6252W        W72793  29.862  32.144   1.569
 6253W        W72794  23.712  26.874  11.539
 6254W        W72795  16.346   2.237   4.803
 6255W        W72796  23.516   0.057  13.811
 6256W        W72797   2.927  34.945   4.952
 6257W        W72798   3.532  41.043   4.158
 6258W        W72799  32.573  27.500   0.796
 6259W        W72800  28.343  43.716   0.632
 6260W        W72801   6.323   6.673  11.567
 6261W        W72802   4.295  13.193  13.021
 6262W        W72803   4.192  14.530   2.851
 6263W        W72804  13.587  42.024   0.299
 6264W        W72805  13.894  20.189   4.659
 6265W        W72806  11.626  13.691   4.810
 6266W        W72807  12.619  31.113   3.744
 6267W        W72808  38.821  16.660   0.365
 6268W        W72809  31.973  23.209  11.417
 6269W        W72810  42.270  26.482  10.922
 6270W        W72811  34.543   4.758   3.856
 6271W        W72812  10.886  29.141   3.850
 6272W        W72813  17.271   4.375   2.781
 6273W        W72814  16.347   6.395   1.794
 6274W        W72815  42.012  35.327  12.465
 6275W        W72816  28.840  21.926   0.326
 6276W        W72817  15.767  41.397   5.082
 6277W        W72818  13.230   4.564   5.319
 6278W        W72819  41.995  11.427   4.779
 6279W        W72820  24.202   1.478   5.083
 6280W        W72821  22.738  43.008  10.955
 6281W        W72822   6.016  41.826   4.125
 6282W        W72823   9.163  44.884  12.182
 6283W        W72824  32.198  25.721   4.116
 6284W        W72825  24.647   7.337  13.106
 6285W        W72826  16.169   9.260  10.663
 6286W        W72827  19.459  35.812   1.790
 6287W        W72828  18.590  41.275   5.223
 6288W        W72829  28.047  25.319  13.032
 6289W        W72830  16.615  35.349   1.167
 6290W        W72831  34.072  34.121   2.926
 6291W        W72832   1.033  34.347  12.487
 6292W        W72833   0.051  31.232   1.544
 6293W        W72834  23.149  19.964   3.177
 6294W        W72835   8.678  34.847  13.431
 6295W        W72836   3.116  21.429  12.880
 6296W        W72837   5.755  17.809   2.020
 6297W        W72838  40.680  27.568  12.010
 6298W        W72839   5.928  17.409  11.027
 6299W        W72840   3.236  16.219   0.727
 6300W        W72841  34.834   7.369   1.865
 6301W        W72842  32.540  36.150  13.843
 6302W        W72843  33.684  39.488   3.118
 6303W        W72844  41.813  15.124  14.469
 6304W        W72845   4.833  11.895   4.158
 6305W        W72846  10.873  21.746   2.218
 6306W        W72847   7.229   5.706   0.574
 6307W        W72848   3.539  31.084  11.743
 6308W        W72849   6.976  21.300   1.433
 6309W        W72850  24.095  31.217  13.648
 6310W        W72851  12.871  40.870   3.773
 6311W        W72852  34.674  43.060  13.906
 6312W        W72853   2.362  17.047  13.041
 6313W        W72854  14.887  30.416  10.645
 6314W        W72855  38.014  26.142   2.343
 6315W        W72856  31.752  37.929  14.236
 6316W        W72857  43.236   7.256  12.476
 6317W        W72858   9.411  22.280  11.329
 6318W        W72859  17.568  28.955  13.983
 6319W        W72860  39.642  38.460   3.903
 6320W        W72861   2.796  22.005   1.833
 6321W        W72862   2.353  42.385  14.056
 6322W        W72863  18.146  41.433  10.771
 6323W        W72864  30.879  43.730   0.239
 6324W        W72865  15.786  29.238   4.941
 6325W        W72866  37.870  20.538   0.758
 6326W        W72867  21.770  41.847  10.704
 6327W        W72868  26.767  24.541   1.402
 6328W        W72869   0.720  13.393   1.282
 6329W        W72870   5.326   4.146  13.030
 6330W        W72871  27.504  14.258   0.206
 6331W        W72872   6.741  11.772   4.714
 6332W        W72873  38.804  14.567  12.357
 6333W        W72874  29.395  34.020   2.816
 6334W        W72875  37.275  32.357   0.753
 6335W        W72876  36.259  30.151  12.533
 6336W        W72877  33.930  21.251  10.957
 6337W        W72878  33.846   7.389  11.615
 6338W        W72879  32.899  23.924  12.016
 6339W        W72880   9.194  33.521  11.603
 6340W        W72881  37.636  22.572  14.060
 6341W        W72882   0.005   2.906  10.384
 6342W        W72883  14.913  21.599  13.880
 6343W        W72884  21.058  16.227  11.581
 6344W        W72885   6.940  14.843   0.811
 6345W        W72886   1.325  41.482  13.328
 6346W        W72887   7.425  35.380   0.207
 6347W        W72888  11.363  12.476  11.155
 6348W        W72889  17.337  17.408   1.208
 6349W        W72890  32.327   4.661   0.299
 6350W        W72891  24.262   8.430   2.276
 6351W        W72892  25.562  36.032   4.650
 6352W        W72893  20.269  35.669  13.941
 6353W        W72894  21.532  17.739   4.942
 6354W        W72895  18.371  11.252   1.232
 6355W        W72896  19.302  24.638  12.864
 6356W        W72897   1.823  17.600  14.693
 6357W        W72898  19.687  17.662   0.919
 6358W        W72899  38.837  25.009  10.894
 6359W        W72900  22.014  36.161  12.547
 6360W        W72901  16.732  27.638   4.641
 6361W        W72902   4.576  26.144   3.974
 6362W        W72903  17.719  23.629  11.872
 6363W        W72904  23.620  10.807   3.262
 6364W        W72905   6.583  10.896  11.573
 6365W        W72906  38.116  36.198   4.625
 6366W        W72907  11.768  15.566  11.896
 6367W        W72908  10.360  34.277   3.665
 6368W        W72909   9.677  15.606   0.049
 6369W        W72910  41.333  36.318   2.745
 6370W        W72911   9.370  13.696   4.187
 6371W        W72912  22.299  40.383  10.763
 6372W        W72913  36.836  13.238  13.975
 6373W        W72914   4.814  39.287   0.243
 6374W        W72915  14.242  44.243   2.723
 6375W        W72916  20.942  39.040   2.614
 6376W        W72917  41.933  42.513   4.844
 6377W        W72918  40.497  35.008  10.858
 6378W        W72919   5.774  41.439   1.458
 6379W        W72920  41.384  16.171  11.134
 6380W        W72921  25.684   2.078  11.113
 6381W        W72922  26.422  29.876  12.632
 6382W        W72923   5.279  25.197  12.120
 6383W        W72924   1.343  15.487  13.109
 6384W        W72925  40.732  11.031  12.456
 6385W        W72926  41.848  33.801   2.883
 6386W        W72927  28.325  38.774   0.924
 6387W        W72928  34.353   9.830   2.644
 6388W        W72929  14.754  23.054   1.043
 6389W        W72930  39.534  43.960   4.879
 6390W        W72931  27.080   3.324  13.530
 6391W        W72932  29.067   4.337   4.875
 6392W        W72933   4.952  35.997   3.213
 6393W        W72934  23.711  11.562   2.780
 6394W        W72935   4.128  11.372  11.086
 6395W        W72936   2.285  27.415  13.372
 6396W        W72937  28.439  28.057   1.759
 6397W        W72938  12.087  43.563  12.789
 6398W        W72939   4.764   6.395  12.571
 6399W        W72940  43.394  33.943   4.564
 6400W        W72941   2.590   3.270   2.201
 6401W        W72942  36.967  35.626  12.497
 6402W        W72943  34.003   3.228  11.693
 6403W        W72944  36.954  40.256   2.338
 6404W        W72945  12.255  17.828   0.885
 6405W        W72946  15.344  44.033   0.022
 6406W        W72947  26.093  11.745   0.388
 6407W        W72948  36.833  11.745   0.032
 6408W        W72949  22.926   5.737  11.662
 6409W        W72950  15.228  38.816   3.257
 6410W        W72951  27.241  44.589  12.348
 6411W        W72952   5.475   7.025   3.097
 6412W        W72953   4.458   3.969  14.967
 6413W        W72954  10.188  14.135   0.549
 6414W        W72955   3.782  25.533  12.634
 6415W        W72956   2.993  20.119   0.039
 6416W        W72957   8.194   5.989  11.129
 6417W        W72958   5.154   1.019   4.039
 6418W        W72959  43.489  27.486   3.256
 6419W        W72960  16.688  30.442   1.351
 6420W        W72961  30.466  37.359   3.725
 6421W        W72962   4.097  21.764  12.936
 6422W        W72963   9.676  41.019   4.144
 6423W        W72964  31.423  19.494   1.256
 6424W        W72965   8.879  24.237   0.552
 6425W        W72966  19.005   6.788  14.468
 6426W        W72967  20.265   7.309   4.382
 6427W        W72968  38.403  10.186  11.565
 6428W        W72969  27.187  28.816  13.534
 6429W        W72970   1.445  42.916   3.254
 6430W        W72971  16.673   3.865  11.984
 6431W        W72972   0.465  10.703   0.362
 6432W        W72973  39.431   4.194   0.018
 6433W        W72974  26.733  37.879  12.306
 6434W        W72975  25.950   5.912   3.649
 6435W        W72976  27.115  11.311   0.103
 6436W        W72977  30.362   9.944  13.375
 6437W        W72978  18.031  36.002  12.410
 6438W        W72979  43.764  25.554   0.206
 6439W        W72980  22.472  19.411   0.118
 6440W        W72981  19.120  28.887   4.279
 6441W        W72982   8.241  33.932  13.490
 6442W        W72983  15.257  38.539   2.738
 6443W        W72984   3.071  44.670  14.141
 6444W        W72985  29.196  25.059  14.517
 6445W        W72986  36.585  24.162   0.801
 6446W        W72987  14.273   5.869   3.236
 6447W        W72988  29.411   8.359   4.339
 6448W        W72989  27.570   6.780   3.800
 6449W        W72990  13.846  44.770  14.611
 6450W        W72991   2.930  16.739   4.470
 6451W        W72992   3.896   2.041  14.377
 6452W        W72993  29.462  13.110   3.801
 6453W        W72994  21.464   2.539  13.852
 6454W        W72995   9.216  35.349  10.742
 6455W        W72996  11.125  29.114  11.187
 6456W        W72997  36.651  20.157   4.768
 6457W        W72998  26.538  19.212   2.685
 6458W        W72999  30.172  20.712   2.716
 6459W        W73000  10.441  27.641   4.606
 6460W        W73001  24.994  37.777   0.669
 6461W        W73002  19.079   0.030  13.431
 6462W        W73003  12.649  12.108   2.581
 6463W        W73004  14.446  30.184  14.968
 6464W        W73005  41.827  29.522   4.265
 6465W        W73006  19.473  26.234  11.182
 6466W        W73007  20.141   8.690   3.141
 6467W        W73008   0.780   1.286   1.846
 6468W        W73009  36.442  39.924   4.187
 6469W        W73010  26.091  42.803   1.762
 6470W        W73011  41.883  43.876  11.935
 6471W        W73012  14.245  35.614  14.828
 6472W        W73013   9.237   1.925  13.918
 6473W        W73014  28.221  18.003   3.752
 6474W        W73015  29.303  42.929   0.422
 6475W        W73016  14.850   8.681  10.730
 6476W        W73017  32.981  42.937   1.218
 6477W        W73018  38.331  12.809  12.874
 6478W        W73019  33.547  31.613  10.202
 6479W        W73020  42.843  42.002   3.138
 6480W        W73021   8.277  25.824   2.751
 6481W        W73022  30.117   9.272  13.054
 6482W        W73023  43.598  20.233   3.866
 6483W        W73024   7.385  42.890   2.161
 6484W        W73025   8.850  10.399   1.054
 6485W        W73026  20.137  23.129  14.343
 6486W        W73027   8.791  40.077  12.527
 6487W        W73028  26.465   0.757   3.162
 6488W        W73029  25.083   3.911  13.925
 6489W        W73030   1.027  29.209   4.570
 6490W        W73031   2.929  37.534   0.415
 6491W        W73032  39.001   8.860   0.971
 6492W        W73033   3.835  14.569  12.904
 6493W        W73034   7.759  25.917   2.800
 6494W        W73035  42.715  27.340  11.148
 6495W        W73036   2.448  25.659  14.080
 6496W        W73037  26.041  42.737   0.794
 6497W        W73038   6.690  33.316  12.550
 6498W        W73039  16.348  33.128   3.745
 6499W        W73040   8.469  19.082   2.408
 6500W        W73041   0.752  23.099   3.594
 6501W        W73042  35.318  27.942   1.313
 6502W        W73043  16.369  26.989  13.335
 6503W        W73044   1.238  37.392   3.185
 6504W        W73045  42.852  22.987  14.342
 6505W        W73046  20.821  34.056   3.177
 6506W        W73047  31.393  22.188   4.174
 6507W        W73048  21.019  41.530   3.300
 6508W        W73049  36.046  39.374   1.457
 6509W        W73050  39.044  38.114   1.269
 6510W        W73051  26.429  19.298  12.912
 6511W        W73052  10.592  22.234  12.171
 6512W        W73053  23.840  11.372   1.472
 6513W        W73054  30.475   2.228  12.111
 6514W        W73055  38.898  10.204   0.735
 6515W        W73056  37.715  12.768   3.142
 6516W        W73057  16.042   7.684   3.592
 6517W        W73058  40.863  42.444  12.016
 6518W        W73059  36.413  16.683   1.269
 6519W        W73060   7.884   5.828  10.745
 6520W        W73061   7.478  16.750   3.366
 6521W        W73062  24.005  22.166   0.758
 6522W        W73063  19.333  44.708  11.450
 6523W        W73064  33.029  24.503   4.289
 6524W        W73065  36.597  40.064   1.850
 6525W        W73066  21.339  27.593  13.258
 6526W        W73067  19.894  17.358   4.514
 6527W        W73068   8.182  14.605  12.330
 6528W        W73069  33.399  34.549   3.302
 6529W        W73070  16.330  35.983   3.822
 6530W        W73071  36.915  22.964   0.514
 6531W        W73072   9.388   3.371  13.122
 6532W        W73073   6.876  43.929   2.873
 6533W        W73074   2.290  33.321  12.277
 6534W        W73075  16.649  41.117  14.342
 6535W        W73076  44.485  16.614  12.957
 6536W        W73077  12.233  31.906  14.927
 6537W        W73078  18.371  41.782   3.678
 6538W        W73079  13.759  10.181  10.767
 6539W        W73080  30.130  13.130  12.889
 6540W        W73081  32.605  25.353  13.617
 6541W        W73082  34.927  15.635   4.134
 6542W        W73083  21.967   6.474   2.310
 6543W        W73084  43.851   1.435  14.140
 6544W        W73085   0.275   0.905  10.682
 6545W        W73086   9.356  38.095  11.091
 6546W        W73087  13.863  33.606   4.243
 6547W        W73088  27.502  12.888  10.876
 6548W        W73089  15.614  39.496   0.422
 6549W        W73090  42.996  31.945  14.852
 6550W        W73091  35.419   1.198   1.329
 6551W        W73092  42.555   9.675   3.912
 6552W        W73093  23.728  20.748   2.595
 6553W        W73094  44.501  30.988  11.028
 6554W        W73095  33.647  27.453  10.924
 6555W        W73096  33.050  37.611   3.425
 6556W        W73097  39.077   5.686   0.775
 6557W        W73098  13.590   1.215   3.726
 6558W        W73099   7.324  16.689  14.322
 6559W        W73100  39.034   2.310   0.823
 6560W        W73101  41.852  25.881   0.998
 6561W        W73102   7.975  10.000  11.632
 6562W        W73103  25.292  15.032   4.583
 6563W        W73104  23.225  38.607   2.703
 6564W        W73105  28.155  27.121   4.311
 6565W        W73106  26.152   9.888   2.855
 6566W        W73107  36.461   5.696  13.689
 6567W        W73108  39.864  38.777  14.844
 6568W        W73109  26.856  39.102  14.704
 6569W        W73110  18.771   7.230   0.334
 6570W        W73111  44.840  44.025  11.761
 6571W        W73112  41.988  42.600   3.415
 6572W        W73113  36.489  17.675  12.618
 6573W        W73114  35.043   8.935   3.681
 6574W        W73115  41.014  14.361  14.002
 6575W        W73116  36.740  25.701  13.799
 6576W        W73117   9.878  41.796  11.939
 6577W        W73118  16.596  34.083   2.665
 6578W        W73119  18.322  34.510   4.308
 6579W        W73120  18.012  22.062   4.177
 6580W        W73121  12.357  34.702   2.292
 6581W        W73122   1.347  13.408  11.661
 6582W        W73123  40.494  26.236   0.979
 6583W        W73124  27.118  13.179  12.026
 6584W        W73125  42.461  43.225   3.960
 6585W        W73126   9.742   2.906   0.270
 6586W        W73127  43.279  40.156  10.940
 6587W        W73128  19.102  31.978   2.835
 6588W        W73129  25.959   4.928  13.613
 6589W        W73130  27.043  34.599  11.696
 6590W        W73131   8.172   8.251   3.606
 6591W        W73132  27.440  31.932   1.750
 6592W        W73133  34.903  18.721  11.529
 6593W        W73134  13.098  15.759   2.215
 6594W        W73135  19.515  31.609  14.900
 6595W        W73136  23.606  33.823  11.534
 6596W        W73137  42.421  12.884   0.299
 6597W        W73138  22.141  32.577   2.434
 6598W        W73139  41.434  25.547  11.456
 6599W        W73140  21.243  41.499   0.841
 6600W        W73141  34.421   6.211   1.296
 6601W        W73142  14.585  35.201  10.253
 6602W        W73143   9.375  28.322   3.642
 6603W        W73144   0.278   8.959   0.764
 6604W        W73145  14.884  29.177  14.172
 6605W        W73146  38.963  39.460   1.209
 6606W        W73147   8.368   2.779  11.478
 6607W        W73148  29.086  31.647  12.590
 6608W        W73149  42.915  35.370   4.091
 6609W        W73150  11.389  36.025  13.506
 6610W        W73151  32.076  23.692  10.733
 6611W        W73152  24.761  29.676  12.495
 6612W        W73153   1.027   2.520  11.933
 6613W        W73154  30.152  37.608  13.123
 6614W        W73155  24.069  22.443   1.203
 6615W        W73156  13.579  20.750  13.426
 6616W        W73157  26.471   9.469   5.053
 6617W        W73158  42.049  24.231   2.451
 6618W        W73159  27.228  19.770   2.892
 6619W        W73160  42.890  15.672  10.603
 6620W        W73161  26.391  39.065   1.916
 6621W        W73162  17.656  33.506   2.099
 6622W        W73163  12.579  27.533   3.828
 6623W        W73164  19.029  34.946  11.151
 6624W        W73165  16.803  44.701   4.523
 6625W        W73166  30.524  29.186  11.709
 6626W        W73167   4.112   1.215  10.002
 6627W        W73168  13.823  14.775   1.269
 6628W        W73169  14.384  40.527   2.208
 6629W        W73170   1.383  11.686  13.006
 6630W        W73171  30.207   0.955   2.310
 6631W        W73172  42.064  14.757   0.412
 6632W        W73173  23.296   9.439  11.678
 6633W        W73174  27.997  43.847   4.676
 6634W        W73175  12.815  44.195   3.705
 6635W        W73176  11.940  43.968   1.662
 6636W        W73177  23.091  15.174  11.300
 6637W        W73178  36.505  21.877   1.694
 6638W        W73179  42.659  34.865  12.875
 6639W        W73180  19.805  23.017  14.868
 6640W        W73181  22.945  25.732  11.922
 6641W        W73182  33.076  21.261   4.231
 6642W        W73183   4.217  37.765  10.969
 6643W        W73184  22.190   6.895  14.517
 6644W        W73185  29.660  41.558   2.199
 6645W        W73186  16.837  13.297   1.783
 6646W        W73187  24.925  34.345   1.797
 6647W        W73188  39.745  43.949  12.589
 6648W        W73189  29.152  21.124   3.129
 6649W        W73190   0.335  37.809   0.169
 6650W        W73191  29.003   3.467   1.792
 6651W        W73192  35.907  19.181  13.727
 6652W        W73193  27.475  18.253   2.640
 6653W        W73194   8.450  37.940   2.172
 6654W        W73195  36.851  21.058  13.429
 6655W        W73196   3.262  42.803   2.829
 6656W        W73197  39.080  21.162   0.813
 6657W        W73198  42.788  18.188  11.050
 6658W        W73199  18.948  10.721  14.476
 6659W        W73200   5.677  27.272   3.593
 6660W        W73201  19.315   4.360   3.823
 6661W        W73202  14.980  25.015  13.573
 6662W        W73203  25.569  14.127   0.361
 6663W        W73204  19.088  22.194   0.529
 6664W        W73205  29.202  11.161   2.482
 6665W        W73206   7.756  18.190  12.630
 6666W        W73207  21.279  37.035  14.809
 6667W        W73208  28.558  15.862  12.466
 6668W        W73209  21.698  38.608  12.013
 6669W        W73210   4.753   2.404  12.582
 6670W        W73211   9.278  24.114   3.712
 6671W        W73212  20.195   6.885   3.060
 6672W        W73213   8.720  14.901   0.242
 6673W        W73214  23.554  35.885   2.508
 6674W        W73215  23.931   6.338  11.331
 6675W        W73216  18.115  39.763   3.687
 6676W        W73217   8.689  10.412   1.568
 6677W        W73218  28.545  12.152  10.492
 6678W        W73219   9.252  39.549   2.666
 6679W        W73220   0.909   7.861   0.480
 6680W        W73221   1.172  29.762  10.732
 6681W        W73222  32.414  23.955  13.845
 6682W        W73223  30.450  43.631  11.539
 6683W        W73224   7.888  34.541  10.784
 6684W        W73225  41.835   7.952   0.963
 6685W        W73226  17.113   0.507   4.746
 6686W        W73227   5.349  36.628  12.022
 6687W        W73228  30.974  27.682  11.779
 6688W        W73229  39.580  33.955  12.902
 6689W        W73230   2.152  39.121  10.103
 6690W        W73231  38.821  44.588   3.431
 6691W        W73232  16.263  29.671   4.176
 6692W        W73233   1.580  26.745   2.309
 6693W        W73234   9.148  10.557  12.205
 6694W        W73235  15.895   7.930   2.355
 6695W        W73236  36.502   4.882   4.600
 6696W        W73237  36.076   0.037   4.535
 6697W        W73238   7.900  10.229   3.223
 6698W        W73239  19.506  19.754  14.392
 6699W        W73240   7.361   3.312   0.440
 6700W        W73241  18.355  32.937  10.931
 6701W        W73242  19.115  12.897   9.668
 6702W        W73243   8.852  17.988  13.314
 6703W        W73244  24.803  12.725  12.144
 6704W        W73245  42.797  33.468   1.810
 6705W        W73246  23.932   0.981  10.704
 6706W        W73247  41.107  42.286   0.339
 6707W        W73248  35.339  21.108  12.612
 6708W        W73249  37.421  26.095  10.544
 6709W        W73250  36.858  24.565   3.410
 6710W        W73251  28.642  43.298   4.120
 6711W        W73252  35.647   7.534  12.671
 6712W        W73253   8.378   4.856  10.750
 6713W        W73254  24.757  42.463   1.177
 6714W        W73255  22.990  20.952  11.078
 6715W        W73256  14.802  10.340   3.749
 6716W        W73257  12.370  16.785   0.991
 6717W        W73258  40.524  13.792   3.193
 6718W        W73259  28.818  16.394  14.792
 6719W        W73260  30.461  24.075   1.432
 6720W        W73261  41.957   4.192  13.487
 6721W        W73262  21.184   5.833   1.007
 6722W        W73263  25.479  22.692  12.491
 6723W        W73264  39.454  17.872  14.828
 6724W        W73265   5.494  28.328  11.091
 6725W        W73266  40.279  33.668  11.806
 6726W        W73267  13.968   2.715  11.106
 6727W        W73268  21.752  36.099   4.486
 6728W        W73269  20.564  37.170  13.494
 6729W        W73270  34.648  42.954   3.227
 6730W        W73271  18.420  37.405   1.105
 6731W        W73272  37.738  43.477  12.098
 6732W        W73273  17.072  19.989   2.031
 6733W        W73274  14.771  26.940  11.388
 6734W        W73275   2.733  36.972   3.250
 6735W        W73276   4.247  17.175  10.494
 6736W        W73277  24.405   9.970   2.447
 6737W        W73278  13.053  28.815   4.090
 6738W        W73279  26.976  24.798   0.000
 6739W        W73280  41.585  10.675   1.763
 6740W        W73281  37.043   0.064   2.273
 6741W        W73282  44.479  13.476   3.458
 6742W        W73283  17.357  22.656   3.236
 6743W        W73284  22.099  44.338  12.515
 6744W        W73285  16.485  42.814  10.713
 6745W        W73286  20.036  44.483   3.679
 6746W        W73287  43.209  26.387   0.302
 6747W        W73288  42.720  10.868  11.529
 6748W        W73289  13.673  10.723   4.598
 6749W        W73290  18.537  34.857  13.973
 6750W        W73291  42.475  37.964   2.414
 6751W        W73292   4.277   2.632   1.240
 6752W        W73293  12.042  11.389   2.987
 6753W        W73294  30.673  24.545  11.696
 6754W        W73295   4.191  37.967   2.887
 6755W        W73296  10.279  32.535   3.042
 6756W        W73297  25.498   7.807  14.426
 6757W        W73298   2.982  26.184   2.749
 6758W        W73299   7.106  19.199  12.021
 6759W        W73300  27.160  23.194  14.104
 6760W        W73301  29.959  32.638  14.068
 6761W        W73302  13.088   7.201  11.400
 6762W        W73303   9.485  11.404  11.154
 6763W        W73304   5.023  35.483   2.297
 6764W        W73305  19.258  26.548  11.930
 6765W        W73306  15.279  36.825   0.603
 6766W        W73307  20.193   8.922  11.587
 6767W        W73308   7.895   3.978   0.402
 6768W        W73309   1.269  23.438  12.805
 6769W        W73310  41.799  33.328  13.475
 6770W        W73311  31.071  34.385   3.771
 6771W        W73312  14.155  35.074  11.254
 6772W        W73313   6.137   8.258   0.280
 6773W        W73314  13.128  20.455   2.220
 6774W        W73315  24.496   1.651  10.788
 6775W        W73316  40.383  12.868  12.048
 6776W        W73317  32.316   2.742  13.942
 6777W        W73318  29.053  12.166   0.311
 6778W        W73319  28.528   9.253   1.902
 6779W        W73320  43.873  20.678   3.266
 6780W        W73321  18.804   0.712  13.289
 6781W        W73322  10.735   6.880  12.557
 6782W        W73323  34.505  14.055   0.562
 6783W        W73324  34.904   7.914   1.165
 6784W        W73325  37.610  27.695  14.484
 6785W        W73326  21.094   3.248  10.481
 6786W        W73327  16.802  22.815  11.618
 6787W        W73328  34.025   9.367  14.404
 6788W        W73329  41.005  20.712  13.099
 6789W        W73330  40.137   7.885   2.741
 6790W        W73331  18.660  35.014   0.581
 6791W        W73332  12.475  18.161  10.736
 6792W        W73333  10.203  12.112  14.789
 6793W        W73334  25.515  38.913  12.084
 6794W        W73335  26.219  40.588   0.335
 6795W        W73336  44.446  21.995   0.873
 6796W        W73337  40.871  23.195   4.412
 6797W        W73338  37.399   8.293   4.118
 6798W        W73339  13.439  26.446  11.685
 6799W        W73340  17.699  24.031   0.507
 6800W        W73341  35.484  26.126   0.695
 6801W        W73342  36.364  22.192  13.459
 6802W        W73343  42.970  31.888  11.528
 6803W        W73344  11.378  23.206   2.211
 6804W        W73345  34.577  24.430   1.911
 6805W        W73346  32.731   0.452   0.329
 6806W        W73347  22.589  35.433  11.678
 6807W        W73348   4.270  17.401  13.759
 6808W        W73349  40.934  27.605   0.036
 6809W        W73350  27.670  15.988  14.321
 6810W        W73351  19.179   5.711  10.085
 6811W        W73352  30.363  42.926  13.058
 6812W        W73353  33.336  15.492  10.991
 6813W        W73354  37.082  43.344  14.239
 6814W        W73355  41.039  35.716  13.527
 6815W        W73356   4.897  13.624  11.174
 6816W        W73357  27.934  32.533  13.238
 6817W        W73358  26.106  39.131   0.426
 6818W        W73359  17.061  27.271   4.482
 6819W        W73360  10.422  17.135   3.672
 6820W        W73361  23.504   8.722   2.703
 6821W        W73362   0.396  10.671   1.789
 6822W        W73363   0.809  26.057   3.363
 6823W        W73364  41.966  29.095  12.581
 6824W        W73365   5.188  21.512   1.419
 6825W        W73366  44.088  17.849   4.325
 6826W        W73367   1.074  40.882   4.346
 6827W        W73368  43.257  23.666   1.904
 6828W        W73369  42.363   9.933  11.603
 6829W        W73370  44.395  34.384   4.862
 6830W        W73371   8.265  22.188   1.337
 6831W        W73372   1.431  30.705   4.722
 6832W        W73373   5.537  30.979   0.346
 6833W        W73374  12.859   3.554  11.131
 6834W        W73375  19.300   7.689   2.773
 6835W        W73376  43.783  35.163   2.714
 6836W        W73377   6.268  12.699  11.166
 6837W        W73378  20.070  39.325   1.204
 6838W        W73379  12.759  37.249   1.384
 6839W        W73380  30.672   1.890   2.866
 6840W        W73381  30.410   3.889  10.217
 6841W        W73382  22.213  25.450  13.294
 6842W        W73383  32.854  14.320  12.479
 6843W        W73384  16.304  18.009  11.258
 6844W        W73385  14.156  16.325  12.099
 6845W        W73386   7.774  40.261  12.403
 6846W        W73387  19.244  37.775  13.810
 6847W        W73388  32.710   5.876  14.823
 6848W        W73389  35.125  34.830   2.304
 6849W        W73390   7.143  28.910  11.221
 6850W        W73391  11.856   9.799  14.951
 6851W        W73392   5.762  31.940  13.843
 6852W        W73393  28.840  21.480   2.450
 6853W        W73394  33.289  21.738  10.637
 6854W        W73395  15.063   3.284  13.423
 6855W        W73396  30.989   1.029   0.816
 6856W        W73397  24.299  43.703   2.644
 6857W        W73398  10.746   7.167   4.203
 6858W        W73399  19.727  10.909  12.398
 6859W        W73400  20.745  17.184  14.470
 6860W        W73401  35.301  20.850  11.909
 6861W        W73402  21.988  33.078   4.595
 6862W        W73403  17.388  20.519  14.224
 6863W        W73404  40.104  34.617   1.466
 6864W        W73405  14.589  32.733  10.798
 6865W        W73406   3.430  13.921   0.280
 6866W        W73407   6.729   6.628   3.750
 6867W        W73408  19.275  32.558   0.204
 6868W        W73409  24.781  44.569   1.024
 6869W        W73410  25.289   4.254   3.137
 6870W        W73411  20.368  42.039  12.422
 6871W        W73412  13.704   8.171   2.759
 6872W        W73413  32.906  18.754  13.825
 6873W        W73414  11.341  38.361   4.694
 6874W        W73415  26.813  26.640  13.067
 6875W        W73416  39.853   7.234  11.431
 6876W        W73417  24.537  10.702   3.417
 6877W        W73418   6.177   7.105   0.731
 6878W        W73419  17.735  26.690   2.652
 6879W        W73420  28.945   5.465   0.704
 6880W        W73421  14.827  26.100   1.872
 6881W        W73422  37.944  11.476  11.986
 6882W        W73423  23.393  24.752   1.406
 6883W        W73424   5.862  40.001   3.649
 6884W        W73425   7.014   1.271   1.281
 6885W        W73426  14.169  19.789   0.269
 6886W        W73427  40.556  10.235   3.032
 6887W        W73428  23.259  38.429   1.739
 6888W        W73429  27.949  23.084  11.998
 6889W        W73430  26.576  39.228   1.438
 6890W        W73431  18.212  18.681  10.595
 6891W        W73432  33.275  41.992   3.377
 6892W        W73433  33.489  40.640   4.056
 6893W        W73434  36.538  16.674   2.642
 6894W        W73435  11.552  10.335  11.131
 6895W        W73436   5.030  39.472   4.066
 6896W        W73437  12.745  17.689   3.798
 6897W        W73438  43.427  39.980  14.264
 6898W        W73439  42.035  31.180  13.702
 6899W        W73440  29.496   9.805  14.711
 6900W        W73441  42.811  42.024   0.777
 6901W        W73442  14.661  24.231   4.192
 6902W        W73443  40.260  31.049  12.061
 6903W        W73444   3.909  27.361  11.409
 6904W        W73445  40.073  19.110  11.986
 6905W        W73446  28.582   1.206  13.999
 6906W        W73447  17.318  22.798  14.103
 6907W        W73448  29.605  27.640   3.190
 6908W        W73449   1.461  10.137   2.912
 6909W        W73450  12.728  41.602   2.653
 6910W        W73451  11.929  21.526   0.321
 6911W        W73452  41.067  20.702   4.565
 6912W        W73453  16.786  37.722   3.867
 6913W        W73454  30.817  38.914  13.914
 6914W        W73455  14.022  19.658  11.836
 6915W        W73456  39.441  33.767  14.052
 6916W        W73457  11.758  29.949   0.669
 6917W        W73458  27.985   1.020  10.522
 6918W        W73459  25.472   2.146   9.954
 6919W        W73460  36.062  42.510   0.797
 6920W        W73461  13.850  25.194   0.150
 6921W        W73462  36.970  34.127   0.026
 6922W        W73463  12.137  10.323  12.172
 6923W        W73464  23.873  36.221   0.894
 6924W        W73465  35.652   0.358  11.384
 6925W        W73466  30.083   1.337   4.968
 6926W        W73467  20.378  18.078  10.682
 6927W        W73468  23.599  28.845   1.666
 6928W        W73469   9.835  42.213   0.408
 6929W        W73470   2.278  25.516   0.012
 6930W        W73471  37.601  15.990  12.056
 6931W        W73472  17.404  32.908  10.607
 6932W        W73473   9.626  24.482  10.853
 6933W        W73474  30.674  41.560  10.567
 6934W        W73475  40.726   4.450  11.231
 6935W        W73476  26.256   6.310  10.979
 6936W        W73477  34.161  24.675  14.953
 6937W        W73478  15.091  25.586  11.581
 6938W        W73479  21.779  32.369  14.925
 6939W        W73480  40.860  29.969  14.402
 6940W        W73481  21.045   2.225  13.768
 6941W        W73482  19.630   8.675   3.298
 6942W        W73483  42.406  18.256  12.882
 6943W        W73484  36.833   1.890  14.730
 6944W        W73485  17.534   4.718   1.347
 6945W        W73486  43.839  40.956  10.801
 6946W        W73487  14.498  25.023  13.406
 6947W        W73488  15.522   7.304  12.360
 6948W        W73489  26.317  12.099  12.091
 6949W        W73490  17.023   6.402   2.926
 6950W        W73491  14.872  19.651  11.518
 6951W        W73492  40.584  28.904  13.911
 6952W        W73493   9.690  24.353  11.550
 6953W        W73494  12.061  30.734   1.377
 6954W        W73495  27.097  22.082   0.807
 6955W        W73496  36.008  29.361   4.142
 6956W        W73497  32.451  35.089  14.378
 6957W        W73498   4.619   7.629   4.559
 6958W        W73499  10.075  36.495  13.130
 6959W        W73500  30.427   9.441  14.413
 6960W        W73501  19.656  10.158  14.292
 6961W        W73502   8.836  42.771   5.309
 6962W        W73503  37.015  19.051   4.114
 6963W        W73504  12.206  36.543   1.784
 6964W        W73505  35.442  33.846   4.253
 6965W        W73506   4.963   3.365   2.632
 6966W        W73507   0.364  26.017  10.944
 6967W        W73508  21.079  39.388  12.055
 6968W        W73509  14.263  23.116   4.555
 6969W        W73510  39.084  33.508   0.341
 6970W        W73511  14.871  17.169  10.593
 6971W        W73512  12.595  29.046   4.237
 6972W        W73513  28.512  34.991  13.475
 6973W        W73514   8.911  32.355   2.874
 6974W        W73515   5.515  19.995   2.986
 6975W        W73516   8.443  18.615   2.653
 6976W        W73517  26.176  39.917   0.945
 6977W        W73518   4.886   0.074   0.394
 6978W        W73519  13.415  25.387  14.927
 6979W        W73520  35.125  20.825   0.222
 6980W        W73521  22.037  31.662  11.598
 6981W        W73522  16.601  41.681   3.083
 6982W        W73523  43.368  23.099  12.509
 6983W        W73524   7.932   6.836   3.179
 6984W        W73525  20.050  29.156   3.992
 6985W        W73526  23.493   3.235   3.645
 6986W        W73527   2.649  10.378  14.491
 6987W        W73528  27.140  25.442  12.553
 6988W        W73529  29.446  36.676   0.970
 6989W        W73530  21.480  18.549   2.948
 6990W        W73531   6.073  11.721  14.418
 6991W        W73532  32.189  22.599  13.069
 6992W        W73533  31.394   5.981  13.846
 6993W        W73534  30.637  26.529  11.119
 6994W        W73535  30.240   5.119  11.631
 6995W        W73536  28.889  18.774  14.021
 6996W        W73537  36.958  20.156   3.095
 6997W        W73538  23.268  41.641  11.062
 6998W        W73539  42.779  17.972   0.431
 6999W        W73540   7.232  10.371   0.751
 7000W        W73541  25.113  36.715   2.834
 7001W        W73542  13.620  17.356  13.520
 7002W        W73543  16.671  37.341   0.987
 7003W        W73544  11.082  33.357   2.554
 7004W        W73545  29.919   2.471   2.784
 7005W        W73546  29.584  40.831  13.750
 7006W        W73547  40.153  34.461   4.604
 7007W        W73548   1.295  18.880   3.452
 7008W        W73549  37.383   3.426  13.407
 7009W        W73550  44.520  16.197   1.008
 7010W        W73551  40.282  19.194   0.800
 7011W        W73552  21.677  28.167  12.065
 7012W        W73553   3.448  19.525   1.115
 7013W        W73554  12.831  36.678  11.702
 7014W        W73555  41.509   2.304   2.794
 7015W        W73556  38.411  33.216  12.514
 7016W        W73557  11.956  22.245  13.267
 7017W        W73558   3.746  12.794   2.935
 7018W        W73559   7.646  41.600   2.260
 7019W        W73560  41.869   8.975  11.977
 7020W        W73561  28.728  15.646  13.785
 7021W        W73562  30.572  19.092  13.484
 7022W        W73563   0.935   7.678   0.970
 7023W        W73564  29.493  39.680   3.455
 7024W        W73565  31.483  13.378  13.871
 7025W        W73566   7.785  36.310  10.222
 7026W        W73567  42.465  36.998   1.979
 7027W        W73568   6.397  15.191   2.705
 7028W        W73569   6.487  34.888  14.550
 7029W        W73570   0.791  16.129   0.012
 7030W        W73571  20.101  44.876   4.040
 7031W        W73572   5.115   4.795   1.014
 7032W        W73573  14.812  33.533   3.979
 7033W        W73574  25.310   9.218   4.444
 7034W        W73575  29.874  16.711  12.123
 7035W        W73576   1.826   1.762  13.517
 7036W        W73577   5.766  42.881   0.359
 7037W        W73578  42.616  27.370   3.568
 7038W        W73579  30.474  27.959  14.470
 7039W        W73580  34.129  42.041   1.713
 7040W        W73581  16.635  23.256  10.858
 7041W        W73582  37.587   9.109   3.686
 7042W        W73583  32.416  39.017  10.547
 7043W        W73584  43.522  10.868  12.904
 7044W        W73585   6.097   0.816  10.273
 7045W        W73586   5.697  42.611   1.768
 7046W        W73587  21.135  15.251   1.276
 7047W        W73588  23.784  30.941   4.195
 7048W        W73589  27.487   7.816   3.377
 7049W        W73590  36.516  23.411  13.077
 7050W        W73591  40.435  18.534   5.004
 7051W        W73592  42.313  42.786  11.989
 7052W        W73593  25.778  30.432   3.668
 7053W        W73594  16.262   2.856   3.670
 7054W        W73595  25.203  33.662   1.225
 7055W        W73596  13.507  27.894   3.698
 7056W        W73597   1.184   0.477   0.921
 7057W        W73598  12.620  16.755   1.459
 7058W        W73599  32.873  31.557  12.068
 7059W        W73600   9.692  40.999   1.281
 7060W        W73601  36.048   7.177   3.099
 7061W        W73602  22.833  34.850   4.987
 7062W        W73603   2.435  41.235   1.205
 7063W        W73604  21.468   9.774   2.741
 7064W        W73605  42.200  33.396   5.008
 7065W        W73606  34.333  39.317   3.572
 7066W        W73607  24.587   2.534  12.974
 7067W        W73608   7.601   5.786  12.469
 7068W        W73609  41.811   6.678  12.415
 7069W        W73610  27.939  33.462  11.954
 7070W        W73611  27.560  41.473   2.540
 7071W        W73612  19.726   3.208  12.871
 7072W        W73613  24.036  29.650   1.808
 7073W        W73614  18.724  10.775   4.579
 7074W        W73615  29.876  28.903  13.694
 7075W        W73616  25.841  26.605  10.368
 7076W        W73617  32.153  14.661   0.723
 7077W        W73618   1.849  43.545  14.865
 7078W        W73619  39.960  19.471   4.639
 7079W        W73620  40.101  40.019   2.295
 7080W        W73621   4.170   1.435   4.005
 7081W        W73622  38.370  36.534  13.058
 7082W        W73623  25.607  41.951   0.968
 7083W        W73624  22.057  14.302   2.723
 7084W        W73625  20.330  12.197  11.890
 7085W        W73626   8.290  22.286   4.557
 7086W        W73627  19.835   4.269   2.436
 7087W        W73628  32.169  14.772  10.533
 7088W        W73629   9.958   8.240  12.307
 7089W        W73630   6.465  28.060  10.015
 7090W        W73631  31.561  39.566  13.770
 7091W        W73632   3.162  34.957   0.836
 7092W        W73633  36.948   7.473   1.356
 7093W        W73634  29.071  44.595   2.267
 7094W        W73635  42.572   7.313  11.490
 7095W        W73636  10.367   0.236   0.191
 7096W        W73637   1.279  40.089   4.126
 7097W        W73638   4.427  15.114  13.389
 7098W        W73639   3.091   1.393  14.530
 7099W        W73640  11.541   2.354  11.984
 7100W        W73641  31.549   6.825   1.780
 7101W        W73642   1.687  34.380  11.622
 7102W        W73643   1.382  24.558  12.047
 7103W        W73644  13.682  23.449  11.551
 7104W        W73645  30.970  22.280   0.440
 7105W        W73646  18.156  18.756   3.239
 7106W        W73647  20.218  36.348  14.316
 7107W        W73648  36.914  24.247  12.749
 7108W        W73649  34.860  35.329  10.816
 7109W        W73650  13.106  26.295   0.952
 7110W        W73651  34.192  11.292   0.703
 7111W        W73652  24.416  23.668   3.164
 7112W        W73653  31.016  25.126  12.488
 7113W        W73654  36.453  44.156   2.876
 7114W        W73655  17.079  35.457  12.594
 7115W        W73656  13.796  21.044  12.992
 7116W        W73657  36.942  36.123  11.675
 7117W        W73658  21.999  28.221   3.213
 7118W        W73659  31.700  40.428  10.785
 7119W        W73660  31.046  38.512   1.893
 7120W        W73661   8.951  41.735   3.334
 7121W        W73662  23.298  34.059  10.530
 7122W        W73663  32.417  15.722   1.398
 7123W        W73664  16.400  19.653   4.529
 7124W        W73665  35.832  27.691  12.435
 7125W        W73666  11.250  40.727   3.777
 7126W        W73667  12.924  44.886   2.379
 7127W        W73668   6.443  32.119   3.073
 7128W        W73669  31.000  26.884   2.631
 7129W        W73670   1.655   4.326  11.107
 7130W        W73671  18.510  42.643  14.891
 7131W        W73672  43.252  28.363  13.392
 7132W        W73673  42.309  16.998   0.778
 7133W        W73674   9.182  13.642  14.004
 7134W        W73675   5.230  13.276   3.997
 7135W        W73676  18.609   3.885  12.298
 7136W        W73677   2.818  40.558   3.335
 7137W        W73678  23.185  41.571  14.895
 7138W        W73679  28.220  32.537   2.853
 7139W        W73680  27.149  20.831   1.352
 7140W        W73681  32.093  12.337   0.405
 7141W        W73682  21.155  18.295   3.243
 7142W        W73683  35.752  10.393  11.997
 7143W        W73684   9.675  20.176  11.051
 7144W        W73685   7.908  31.549  12.804
 7145W        W73686  38.583  33.868   3.649
 7146W        W73687  35.130  15.205   4.357
 7147W        W73688  31.475  15.120   4.024
 7148W        W73689   8.777  38.015  12.418
 7149W        W73690  20.628  16.393  10.672
 7150W        W73691  26.355  37.060   9.956
 7151W        W73692  15.148  44.981   4.332
 7152W        W73693  19.472  10.779   3.756
 7153W        W73694  44.941  24.528  12.003
 7154W        W73695   0.942   7.623  14.995
 7155W        W73696  40.044   6.121  14.242
 7156W        W73697   5.398  22.174  12.045
 7157W        W73698  13.458  22.854  14.568
 7158W        W73699   0.976  22.239  10.194
 7159W        W73700   5.654  20.728   1.654
 7160W        W73701  17.693   8.854   4.994
 7161W        W73702   1.276  22.194   2.205
 7162W        W73703  30.341  25.978   1.440
 7163W        W73704  27.968  41.789  11.629
 7164W        W73705  18.357   0.452  14.040
 7165W        W73706  14.618  31.501   0.713
 7166W        W73707  27.777  34.074   1.029
 7167W        W73708   7.163  29.902  12.509
 7168W        W73709  26.416   0.673  10.296
 7169W        W73710  32.400  13.215   2.770
 7170W        W73711   4.064  31.835   0.718
 7171W        W73712  43.430  20.667  12.550
 7172W        W73713  19.914   6.979   4.539
 7173W        W73714  14.570  44.365  13.028
 7174W        W73715  40.614   3.800  11.705
 7175W        W73716  10.161  19.166   0.870
 7176W        W73717  19.674   2.016  13.953
 7177W        W73718  11.200  28.302   0.144
 7178W        W73719   6.143  24.503  12.460
 7179W        W73720  25.738  37.510  14.028
 7180W        W73721  35.189   4.429  11.167
 7181W        W73722  44.022  12.771  10.520
 7182W        W73723  27.690  27.142  13.550
 7183W        W73724  25.686  43.513   4.980
 7184W        W73725  42.834  31.419   0.955
 7185W        W73726  37.329  28.023   0.832
 7186W        W73727  23.481  16.031  13.030
 7187W        W73728  43.748  37.699   4.526
 7188W        W73729  11.641   9.128  13.852
 7189W        W73730  24.640  18.756   2.126
 7190W        W73731   6.381  32.315  14.180
 7191W        W73732  22.294  24.127   2.395
 7192W        W73733  44.384  11.731   0.188
 7193W        W73734  31.562  44.937   0.794
 7194W        W73735   6.671  23.542   0.802
 7195W        W73736  26.919  16.144   4.943
 7196W        W73737  42.709  31.067  14.458
 7197W        W73738  25.469  40.448   0.935
 7198W        W73739   5.179  35.283  10.343
 7199W        W73740  18.433  30.922   4.694
 7200W        W73741  12.751  31.651  13.898
 7201W        W73742  42.510  28.519   2.371
 7202W        W73743  24.240  27.444  13.019
 7203W        W73744  29.115  14.282   4.927
 7204W        W73745   7.576  18.298   1.360
 7205W        W73746  38.564  42.238   4.564
 7206W        W73747  21.045   1.720  13.932
 7207W        W73748  18.632   7.924   1.654
 7208W        W73749   0.349  14.016   0.948
 7209W        W73750   8.725  31.675   9.896
 7210W        W73751   2.751   0.551   0.948
 7211W        W73752  26.995  38.759  10.554
 7212W        W73753  17.226  33.364   0.470
 7213W        W73754   0.236  37.118   0.865
 7214W        W73755  13.567  10.216  13.925
 7215W        W73756  31.117  40.939  14.238
 7216W        W73757  42.974  38.336  12.667
 7217W        W73758  44.929  41.350  10.752
 7218W        W73759  25.262  30.843   4.155
 7219W        W73760  11.252  42.337   4.329
 7220W        W73761  39.628  30.527   2.146
 7221W        W73762  19.630  20.080  11.625
 7222W        W73763   6.496   1.390  11.368
 7223W        W73764  20.557  11.799  12.946
 7224W        W73765  27.212  15.098  12.152
 7225W        W73766  36.061  32.516   4.153
 7226W        W73767  13.455  12.295  14.360
 7227W        W73768  44.267  16.723   0.269
 7228W        W73769   6.564  39.798  12.150
 7229W        W73770  25.384   4.335   2.210
 7230W        W73771  40.863  35.084  10.500
 7231W        W73772   7.336  36.997  12.637
 7232W        W73773  14.679  18.503  12.895
 7233W        W73774  32.942  42.009  13.933
 7234W        W73775  33.914  36.938   0.233
 7235W        W73776  44.328  44.236   4.219
 7236W        W73777  29.913  10.833   4.837
 7237W        W73778  21.972  17.108   2.853
 7238W        W73779   7.246  34.518   0.846
 7239W        W73780  11.275   5.381  14.470
 7240W        W73781   0.944  17.101   3.341
 7241W        W73782  37.203   4.732   2.539
 7242W        W73783  26.049  22.183  12.660
 7243W        W73784  20.474  34.139  13.387
 7244W        W73785  22.916  13.315  13.523
 7245W        W73786   7.350   3.399  12.393
 7246W        W73787  34.490   1.723   4.154
 7247W        W73788  39.814  31.934   1.862
 7248W        W73789   3.446   5.513  10.549
 7249W        W73790  21.155  14.850   4.424
 7250W        W73791  40.480   8.965  11.907
 7251W        W73792  38.768  13.880  11.759
 7252W        W73793  12.651  35.694   1.859
 7253W        W73794  40.868  33.688  12.737
 7254W        W73795   6.505  11.431  13.541
 7255W        W73796  33.010  22.698   1.129
 7256W        W73797  24.873  30.328   0.681
 7257W        W73798   1.347  30.857   1.912
 7258W        W73799  23.501   3.769  12.997
 7259W        W73800  32.850  44.545  13.978
 7260W        W73801   5.460  11.295  13.780
 7261W        W73802  39.000  31.627  10.119
 7262W        W73803  28.572  31.723   4.858
 7263W        W73804  14.252  28.146  10.657
 7264W        W73805  30.797  12.091  10.630
 7265W        W73806   5.782  40.755  12.290
 7266W        W73807  16.248  12.898  12.936
 7267W        W73808  29.997   8.163  14.485
 7268W        W73809  13.411   3.862  12.464
 7269W        W73810   3.345  28.284   2.423
 7270W        W73811   5.806  24.117  11.215
 7271W        W73812  27.384  43.972  13.008
 7272W        W73813  16.736  13.786   1.664
 7273W        W73814  35.128   8.691  13.111
 7274W        W73815  32.413   7.212  14.592
 7275W        W73816   9.704   6.261  14.851
 7276W        W73817  37.362  21.698  14.740
 7277W        W73818  16.002  42.505  10.736
 7278W        W73819   3.464  16.555   4.903
 7279W        W73820  43.100  12.781  10.346
 7280W        W73821  27.255  43.960   3.296
 7281W        W73822  21.563  38.889  14.395
 7282W        W73823  38.969   4.949   2.153
 7283W        W73824  18.077  11.172  13.052
 7284W        W73825  32.897   8.819   1.218
 7285W        W73826  35.324  42.507  14.437
 7286W        W73827  41.662  42.886  11.173
 7287W        W73828  16.697  27.625   0.384
 7288W        W73829  44.161  32.121  10.304
 7289W        W73830  14.852  23.663  13.518
 7290W        W73831   1.314   0.478  12.534
 7291W        W73832  22.050  36.630   3.261
 7292W        W73833  41.011  37.360  13.838
 7293W        W73834   7.832  10.418   2.338
 7294W        W73835  11.680  15.567   3.713
 7295W        W73836   1.695  32.080   1.748
 7296W        W73837  12.319  21.304   2.233
 7297W        W73838  33.569  15.837   4.405
 7298W        W73839  25.499  22.113   1.330
 7299W        W73840  27.813  36.822  13.117
 7300W        W73841  16.810   9.665  14.372
 7301W        W73842  27.039  13.699   2.261
 7302W        W73843  30.491  30.494  14.573
 7303W        W73844  33.845   7.410  12.125
 7304W        W73845  27.650   1.185   2.809
 7305W        W73846   4.683  34.448   3.828
 7306W        W73847  18.229  21.223  14.889
 7307W        W73848  41.295  13.781  14.726
 7308W        W73849  13.162  41.282   0.505
 7309W        W73850   9.172  36.486   3.672
 7310W        W73851  34.701  36.747   4.526
 7311W        W73852  38.268  26.603   1.884
 7312W        W73853  10.203  33.017  13.000
 7313W        W73854  11.159  10.378  12.384
 7314W        W73855  22.671  11.819   1.922
 7315W        W73856  27.103  34.619   1.618
 7316W        W73857   1.820  13.986  11.156
 7317W        W73858  10.370  23.450   4.165
 7318W        W73859  14.261  10.178  12.583
 7319W        W73860   3.624  32.465  13.599
 7320W        W73861  28.101  35.066   3.810
 7321W        W73862  37.571  18.158  13.262
 7322W        W73863  24.409  19.107   0.786
 7323W        W73864   4.902  16.858  13.464
 7324W        W73865  15.665  20.024   3.323
 7325W        W73866   4.922  11.526  11.108
 7326W        W73867  25.717  42.091  12.946
 7327W        W73868   5.646  25.920   3.308
 7328W        W73869   7.261  10.872   3.765
 7329W        W73870   8.869  41.034  11.184
 7330W        W73871   8.802  28.444  13.927
 7331W        W73872  22.705  33.643  14.007
 7332W        W73873  22.419  26.487   4.173
 7333W        W73874  38.615  12.707  12.458
 7334W        W73875   0.414  37.956   4.750
 7335W        W73876   3.300  40.089   2.666
 7336W        W73877  40.780   4.262  14.161
 7337W        W73878  13.994  24.884  13.522
 7338W        W73879  40.757  15.634  13.496
 7339W        W73880  21.623   1.083   4.714
 7340W        W73881  38.079  41.759  13.932
 7341W        W73882  11.386  14.234   3.401
 7342W        W73883  33.718   9.143  13.051
 7343W        W73884  43.426  21.919  13.964
 7344W        W73885  24.241   2.863   4.811
 7345W        W73886  35.891  27.717  13.998
 7346W        W73887  36.297  33.129  14.527
 7347W        W73888  43.778  38.435   3.767
 7348W        W73889  12.505  16.113   0.828
 7349W        W73890  40.867  23.556  12.181
 7350W        W73891   8.285  16.065   2.826
 7351W        W73892  37.881   6.004   0.872
 7352W        W73893  20.815  20.396   3.683
 7353W        W73894   8.436   9.888   3.722
 7354W        W73895  13.189   7.352   3.653
 7355W        W73896  22.390   8.888  12.638
 7356W        W73897  17.231  17.742  10.860
 7357W        W73898  39.041  39.442  13.384
 7358W        W73899   2.653   7.000   0.764
 7359W        W73900  10.388  41.886  13.565
 7360W        W73901   5.438   4.194   2.298
 7361W        W73902  15.624  29.592  10.262
 7362W        W73903  32.127  17.327  13.101
 7363W        W73904  42.888  16.534  12.015
 7364W        W73905  28.279   4.576  13.399
 7365W        W73906  31.994  31.083  12.927
 7366W        W73907  38.510  19.471  12.587
 7367W        W73908   3.031  12.286  13.548
 7368W        W73909   7.965  41.201   5.129
 7369W        W73910  18.270  36.419  12.631
 7370W        W73911  13.393  36.309   1.182
 7371W        W73912  17.637   6.202   1.223
 7372W        W73913  36.949   6.697  11.734
 7373W        W73914  10.393  44.010  13.879
 7374W        W73915  41.229  17.588  14.758
 7375W        W73916  18.975  27.213  12.572
 7376W        W73917   9.457   4.668   2.638
 7377W        W73918  17.174  43.910  13.051
 7378W        W73919   5.222  29.666   0.418
 7379W        W73920   1.801  15.155   3.032
 7380W        W73921   3.842  16.093   2.784
 7381W        W73922  24.085  41.748  10.511
 7382W        W73923   9.879  28.055  14.926
 7383W        W73924  33.591  19.240  13.822
 7384W        W73925   0.695  18.147  12.083
 7385W        W73926  35.402  41.841  12.154
 7386W        W73927  14.520  38.759  14.984
 7387W        W73928  21.321  12.236   0.448
 7388W        W73929  26.014  18.365  12.020
 7389W        W73930  22.786  17.096   5.273
 7390W        W73931  37.855  13.776   2.687
 7391W        W73932  28.182  39.011   3.300
 7392W        W73933  10.328  29.595  12.637
 7393W        W73934  31.667   6.229  11.015
 7394W        W73935  27.105  10.330   2.916
 7395W        W73936  38.959   1.934  10.886
 7396W        W73937   1.753  36.056  13.489
 7397W        W73938  26.526  41.999   1.819
 7398W        W73939  13.250  24.321   1.262
 7399W        W73940   9.771  30.061  11.561
 7400W        W73941   5.400  32.737  11.860
 7401W        W73942  25.337  19.614  12.460
 7402W        W73943   1.300  13.563   4.336
 7403W        W73944  32.130  19.611   0.526
 7404W        W73945  42.916  43.958   2.775
 7405W        W73946  26.071  16.885  11.595
 7406W        W73947   8.335   5.197  12.069
 7407W        W73948  19.614   8.164   1.907
 7408W        W73949  12.875  44.804  13.908
 7409W        W73950  43.436  33.821   2.250
 7410W        W73951  44.850   8.695   0.014
 7411W        W73952  26.402  14.487  12.854
 7412W        W73953  17.967  25.126   2.293
 7413W        W73954  34.936  34.386   3.164
 7414W        W73955  13.534  35.455   1.547
 7415W        W73956  21.609  12.810  11.261
 7416W        W73957  43.621  14.767   0.291
 7417W        W73958   6.445  24.754  10.032
 7418W        W73959  14.777   9.551   0.015
 7419W        W73960  15.353  26.147  12.477
 7420W        W73961  18.704  35.666  10.764
 7421W        W73962   1.952  34.146  14.909
 7422W        W73963  24.702  44.026  12.924
 7423W        W73964  22.322   1.820  11.922
 7424W        W73965   4.674  34.510   1.436
 7425W        W73966  23.079  14.507   1.013
 7426W        W73967  32.541  22.132   3.306
 7427W        W73968  32.055   6.219  12.963
 7428W        W73969  29.189  15.684   2.480
 7429W        W73970  16.029  28.930   4.601
 7430W        W73971  24.902  22.089  11.054
 7431W        W73972  41.133  10.190  12.084
 7432W        W73973   4.433  35.351  13.931
 7433W        W73974  26.003  24.726   0.944
 7434W        W73975  27.494  30.713  14.082
 7435W        W73976   2.501  11.679   3.688
 7436W        W73977  25.958  37.332  13.088
 7437W        W73978  42.333  19.993   2.091
 7438W        W73979  42.860  22.918  13.791
 7439W        W73980  21.207  18.034   3.695
 7440W        W73981  22.007  27.153   1.957
 7441W        W73982  42.323  44.697  14.730
 7442W        W73983  11.485  22.840  12.241
 7443W        W73984   2.502  25.817   2.677
 7444W        W73985  31.915   6.094   0.494
 7445W        W73986  41.523  14.394   3.602
 7446W        W73987   6.843  43.818  10.695
 7447W        W73988   0.806  13.890  13.431
 7448W        W73989   9.126   0.706  14.316
 7449W        W73990  16.191   3.747  13.006
 7450W        W73991   0.926   4.047   5.042
 7451W        W73992  43.853  14.233   1.151
 7452W        W73993  31.257   3.999  14.775
 7453W        W73994  29.390  15.639   3.461
 7454W        W73995   3.771  39.392  13.361
 7455W        W73996  24.352   9.133   2.776
 7456W        W73997  19.788   4.213   0.336
 7457W        W73998  43.522   3.805  10.971
 7458W        W73999   3.863  36.612  12.944
 7459W        W74000  21.471  23.245  11.331
 7460W        W74001  40.298  40.659  12.178
 7461W        W74002  43.873   3.537   1.791
 7462W        W74003  28.751  22.530   3.619
 7463W        W74004  27.376   4.633   4.613
 7464W        W74005  30.550   1.931   3.781
 7465W        W74006   3.805   4.562  10.846
 7466W        W74007  22.759  31.597  12.059
 7467W        W74008  35.374   4.660   0.825
 7468W        W74009  31.959  16.285  11.546
 7469W        W74010  30.135  20.820   3.627
 7470W        W74011  29.599   0.832  13.917
 7471W        W74012   2.696  33.147   4.569
 7472W        W74013   2.463  26.305   2.802
 7473W        W74014  15.603  41.751   0.750
 7474W        W74015  31.373  18.699  14.969
 7475W        W74016  36.927  21.998  10.646
 7476W        W74017  36.980   1.540   4.586
 7477W        W74018  33.351  15.223   2.415
 7478W        W74019   3.507  17.034  13.415
 7479W        W74020   7.321   2.368   1.284
 7480W        W74021   6.412   5.686  14.446
 7481W        W74022   3.087  28.427  13.924
 7482W        W74023  10.787   8.951  14.837
 7483W        W74024  41.478  27.731   1.516
 7484W        W74025  24.916  37.161  13.934
 7485W        W74026  36.618  29.907   2.323
 7486W        W74027  32.103   7.746   4.535
 7487W        W74028  41.790  32.764   1.891
 7488W        W74029  37.561  36.119   2.711
 7489W        W74030  26.203  10.056  13.494
 7490W        W74031  20.300   8.069  11.269
 7491W        W74032  43.023  27.452  11.566
 7492W        W74033  11.227  33.824   0.768
 7493W        W74034  16.073  28.863  11.697
 7494W        W74035  35.135  11.345  12.981
 7495W        W74036  36.883  11.823   0.521
 7496W        W74037  25.606  25.596  10.745
 7497W        W74038  22.775   5.279   3.125
 7498W        W74039  16.747   5.460   2.754
 7499W        W74040  33.980   0.537   2.784
 7500W        W74041  36.648   2.852   5.015
 7501W        W74042  26.715  39.540   1.847
 7502W        W74043  21.562   0.042  14.822
 7503W        W74044  12.178  30.086  11.096
 7504W        W74045   1.539  10.205   1.227
 7505W        W74046  31.965  15.378   2.907
 7506W        W74047  41.734  10.706  11.573
 7507W        W74048  14.445  12.613  12.055
 7508W        W74049  13.208  26.646   2.257
 7509W        W74050   5.082  15.198  11.180
 7510W        W74051  36.579  31.928   0.342
 7511W        W74052  30.398  19.182   3.733
 7512W        W74053  36.871   9.489   4.206
 7513W        W74054  24.213   8.435   1.663
 7514W        W74055   2.221  29.920   5.428
 7515W        W74056   6.336  38.874  11.580
 7516W        W74057  29.720  33.636  11.685
 7517W        W74058  43.432  14.586  11.846
 7518W        W74059  42.097  14.926  10.359
 7519W        W74060  19.377  26.168   2.967
 7520W        W74061   8.744   0.543  11.637
 7521W        W74062   7.744   4.735  14.242
 7522W        W74063  16.821  31.348   1.727
 7523W        W74064  19.276  15.237  13.295
 7524W        W74065  13.384  25.400   1.288
 7525W        W74066  13.489   3.079  10.193
 7526W        W74067  30.149  22.248   3.635
 7527W        W74068  42.348   5.217   4.376
 7528W        W74069  38.030  11.791  13.939
 7529W        W74070  43.198  24.136   1.682
 7530W        W74071  40.441  35.171   1.413
 7531W        W74072   3.219  32.077  13.918
 7532W        W74073  38.962  23.029  13.415
 7533W        W74074   6.098   9.278   2.106
 7534W        W74075   2.276  15.456   4.277
 7535W        W74076  42.308   8.921   1.422
 7536W        W74077  23.624  14.927   2.334
 7537W        W74078  28.024  40.836  10.363
 7538W        W74079  11.233   2.645  14.784
 7539W        W74080  38.466  43.353  11.290
 7540W        W74081  32.391  22.621   1.971
 7541W        W74082  28.400   0.825   2.244
 7542W        W74083   7.124  37.368  13.333
 7543W        W74084  28.153  43.110  12.014
 7544W        W74085  41.327  41.213   1.819
 7545W        W74086  10.306  22.557   3.611
 7546W        W74087  18.575  21.226   1.637
 7547W        W74088  12.920  44.395  10.759
 7548W        W74089   4.846  27.040  10.430
 7549W        W74090  29.221  11.589   3.469
 7550W        W74091  23.594  24.912   4.741
 7551W        W74092  25.285  29.525  10.859
 7552W        W74093  25.596  37.591   3.084
 7553W        W74094  27.815  36.067  13.585
 7554W        W74095  23.221  34.086   0.327
 7555W        W74096  24.070  40.367  12.960
 7556W        W74097  26.038  34.621  12.643
 7557W        W74098  43.342  19.802  11.038
 7558W        W74099  40.359  32.010   3.705
 7559W        W74100  41.444   7.184   0.862
 7560W        W74101  43.870  43.931  13.927
 7561W        W74102   2.430  15.679   2.676
 7562W        W74103  29.744  28.377  13.855
 7563W        W74104  39.397  11.330   0.428
 7564W        W74105  11.979  34.896   1.854
 7565W        W74106  16.116  36.371  11.990
 7566W        W74107  24.256  10.724  11.602
 7567W        W74108   0.120  32.965  12.434
 7568W        W74109   0.987  29.395  10.425
 7569W        W74110  44.946  37.594  12.845
 7570W        W74111   1.979  28.585   0.851
 7571W        W74112   9.771  41.511  11.007
 7572W        W74113  28.886  24.220  11.054
 7573W        W74114   0.716  36.403  14.307
 7574W        W74115  23.779  36.473  12.487
 7575W        W74116  34.937  34.812  14.046
 7576W        W74117  12.312   2.819   4.134
 7577W        W74118  28.010  27.575   1.176
 7578W        W74119  16.199   2.474   5.225
 7579W        W74120  36.642  38.952   0.074
 7580W        W74121  21.500  12.310   1.223
 7581W        W74122   5.233  43.746   4.100
 7582W        W74123  26.977  44.374  10.425
 7583W        W74124  30.469  26.552  12.628
 7584W        W74125  40.717  35.953   4.971
 7585W        W74126  11.059  17.144  10.068
 7586W        W74127   8.133  41.284  14.959
 7587W        W74128  35.429  30.025  14.334
 7588W        W74129  38.006  16.779  12.087
 7589W        W74130   0.575  44.363   3.708
 7590W        W74131  42.094  22.085   5.000
 7591W        W74132  38.311  41.674  12.219
 7592W        W74133  14.500  39.378   4.204
 7593W        W74134  36.008   8.936  10.683
 7594W        W74135  17.645   1.376   3.232
 7595W        W74136  19.857  18.478   3.750
 7596W        W74137  30.906  17.161   1.903
 7597W        W74138  16.983  24.948   3.554
 7598W        W74139  17.549  15.799  10.931
 7599W        W74140  36.886  14.739  13.400
 7600W        W74141  40.319  30.135  13.322
 7601W        W74142  26.172   0.790   2.723
 7602W        W74143  26.531  11.332  11.618
 7603W        W74144  33.006  20.983   3.294
 7604W        W74145   0.916  14.988   3.172
 7605W        W74146  38.034  20.843   4.343
 7606W        W74147  25.985   4.744  12.626
 7607W        W74148  29.969  36.098  11.980
 7608W        W74149  36.520  15.843   2.303
 7609W        W74150  38.333   3.325   2.010
 7610W        W74151   3.166  10.304   3.581
 7611W        W74152  42.806  23.109   1.672
 7612W        W74153  44.212  44.482   1.411
 7613W        W74154  12.823  33.774   0.281
 7614W        W74155   3.746  43.463   2.863
 7615W        W74156   6.936  21.032   4.967
 7616W        W74157  39.399   3.456   3.240
 7617W        W74158   1.213  21.069   2.242
 7618W        W74159  28.527  19.998  11.040
 7619W        W74160  15.727  24.224  14.590
 7620W        W74161  29.959  36.970   3.877
 7621W        W74162   2.405  22.188   1.544
 7622W        W74163  34.612   2.877   0.807
 7623W        W74164  19.357  39.281  11.170
 7624W        W74165  38.048   3.228   2.632
 7625W        W74166   3.005  44.428   2.417
 7626W        W74167  22.240   4.382   5.273
 7627W        W74168   4.283  19.736  12.946
 7628W        W74169  24.200  34.670   1.333
 7629W        W74170   7.525  43.607  11.104
 7630W        W74171  44.235  29.598   3.437
 7631W        W74172  21.929   5.836   3.986
 7632W        W74173   3.351   5.774   1.490
 7633W        W74174  23.641  23.415   3.683
 7634W        W74175   5.686  39.370  12.594
 7635W        W74176   6.720   9.625   3.658
 7636W        W74177  33.197  38.075   2.673
 7637W        W74178  37.071  12.114  12.982
 7638W        W74179  43.758  22.750   2.597
 7639W        W74180  19.994   1.345  10.401
 7640W        W74181  41.023  33.760   1.364
 7641W        W74182  31.845  10.435   2.123
 7642W        W74183   9.994  24.112   4.474
 7643W        W74184  39.451  32.471   4.422
 7644W        W74185  21.297  25.084  11.735
 7645W        W74186   7.323  29.983  14.802
 7646W        W74187  38.445  41.670   0.167
 7647W        W74188  41.462  32.366   1.865
 7648W        W74189  40.015   6.664  13.394
 7649W        W74190  17.102  27.673  14.686
 7650W        W74191  12.330  35.563   0.758
 7651W        W74192  17.277   5.890   3.143
 7652W        W74193  42.881  15.114   3.321
 7653W        W74194  37.925  14.014  13.451
 7654W        W74195  39.246  24.698   4.120
 7655W        W74196  32.643  41.833   0.671
 7656W        W74197  19.299  35.595  12.029
 7657W        W74198  35.551  26.196  14.356
 7658W        W74199  21.105  32.071   3.905
 7659W        W74200  42.946  12.721   0.974
 7660W        W74201   6.727  13.409  12.504
 7661W        W74202  18.196  30.070  12.016
 7662W        W74203  29.520  35.341   1.374
 7663W        W74204  41.346   8.717  14.946
 7664W        W74205  11.738   3.453  11.174
 7665W        W74206  16.154  36.620  13.341
 7666W        W74207  43.802  15.624  13.356
 7667W        W74208  43.457  16.009   1.510
 7668W        W74209  41.789  26.417  13.822
 7669W        W74210  39.003  31.503   4.828
 7670W        W74211  18.117  12.189  13.765
 7671W        W74212  42.467  15.758   0.361
 7672W        W74213   8.180  27.733   4.690
 7673W        W74214  42.448  13.405   0.324
 7674W        W74215  22.677  15.286   0.994
 7675W        W74216  11.882  14.623   4.010
 7676W        W74217   7.993  30.084   1.888
 7677W        W74218  38.316  31.108  14.317
 7678W        W74219  19.205  38.560  14.457
 7679W        W74220  39.299   3.930  13.663
 7680W        W74221  39.224  43.552   1.423
 7681W        W74222  22.933  44.258   4.206
 7682W        W74223  14.300   7.637   4.654
 7683W        W74224   9.738  23.456   0.932
 7684W        W74225  35.851  43.889  12.972
 7685W        W74226  43.396  14.307   2.921
 7686W        W74227  14.206  23.900  13.743
 7687W        W74228  41.276  23.078   4.755
 7688W        W74229  10.330  20.763  10.827
 7689W        W74230  42.810   1.919  13.527
 7690W        W74231  23.715  15.160   1.526
 7691W        W74232   8.970  19.211  14.469
 7692W        W74233  42.356  27.449   3.117
 7693W        W74234  13.302  26.202   1.950
 7694W        W74235  42.407   5.708  12.290
 7695W        W74236  23.162  23.117  11.643
 7696W        W74237  30.249  22.519  12.646
 7697W        W74238  13.179  21.942   2.547
 7698W        W74239   3.890  28.202  10.542
 7699W        W74240  42.856  28.449   4.564
 7700W        W74241  24.298  16.692  11.403
 7701W        W74242  10.643  14.442   0.537
 7702W        W74243  32.962  16.836   1.491
 7703W        W74244  37.563  29.580  10.721
 7704W        W74245  20.981   4.680  13.900
 7705W        W74246   8.302   1.434  11.972
 7706W        W74247  36.163   1.932   0.886
 7707W        W74248  16.525  25.137  13.395
 7708W        W74249   3.943   3.554   1.250
 7709W        W74250  37.342   2.584  12.987
 7710W        W74251  32.768  42.259   0.337
 7711W        W74252  38.776   1.915  12.574
 7712W        W74253   2.223  25.520  14.508
 7713W        W74254  11.130  15.664   3.532
 7714W        W74255  15.779   8.296   0.336
 7715W        W74256  35.853  43.145  13.948
 7716W        W74257  35.388  21.048   1.669
 7717W        W74258  30.822   4.988  12.984
 7718W        W74259   0.863  24.067  12.207
 7719W        W74260   8.333  37.463  10.722
 7720W        W74261   7.205  13.504   4.834
 7721W        W74262  22.290  33.978   4.617
 7722W        W74263  13.561  43.522  13.453
 7723W        W74264  35.496  16.756   2.219
 7724W        W74265  29.928  31.896  13.026
 7725W        W74266   8.282  43.257   4.811
 7726W        W74267   2.177  41.915   4.108
 7727W        W74268  14.606  10.254   4.794
 7728W        W74269  26.429  34.506  12.969
 7729W        W74270  25.502  29.607   0.001
 7730W        W74271  15.167  17.129   1.276
 7731W        W74272   5.184  38.735   1.840
 7732W        W74273   6.300  20.322  11.578
 7733W        W74274  18.931   5.278   3.077
 7734W        W74275  21.089  39.750   0.400
 7735W        W74276  32.237  28.892   2.938
 7736W        W74277  35.470  31.170  14.811
 7737W        W74278  10.815   4.241   1.191
 7738W        W74279  28.067   4.989   3.028
 7739W        W74280  18.345   6.833  11.636
 7740W        W74281  39.353  32.064  11.652
 7741W        W74282  20.462  43.759  13.947
 7742W        W74283  19.098  19.585  11.214
 7743W        W74284   7.406  43.040  10.413
 7744W        W74285  10.195  18.039   2.722
 7745W        W74286  20.672  12.918  12.069
 7746W        W74287  24.929  10.735   0.798
 7747W        W74288  30.122  30.894   3.720
 7748W        W74289  37.077  13.881  11.314
 7749W        W74290   4.821  18.356  14.468
 7750W        W74291   2.988   9.874   3.783
 7751W        W74292  44.510  18.340  13.101
 7752W        W74293  34.105  30.941  14.820
 7753W        W74294  27.902   6.621   1.429
 7754W        W74295  39.966  18.576  12.830
 7755W        W74296   6.884   8.371  14.463
 7756W        W74297  13.763  25.500  12.851
 7757W        W74298  44.069  31.448  14.286
 7758W        W74299  26.224  15.161   1.623
 7759W        W74300  42.010  32.940  11.672
 7760W        W74301  10.332  29.134   3.281
 7761W        W74302  11.419   9.729  12.456
 7762W        W74303  11.885   2.876   4.949
 7763W        W74304  20.709  39.407  12.417
 7764W        W74305   6.511  29.392   3.666
 7765W        W74306  38.376  37.040   2.660
 7766W        W74307  13.320  41.426   1.011
 7767W        W74308   5.735  10.780   2.332
 7768W        W74309  24.390  24.197   1.365
 7769W        W74310   0.787   2.312  14.854
 7770W        W74311  26.069  29.512  14.283
 7771W        W74312  16.130  25.294  14.048
 7772W        W74313  41.226  25.258  14.542
 7773W        W74314  25.663  29.439   4.073
 7774W        W74315  26.173  32.041  14.816
 7775W        W74316   5.428  25.757  10.329
 7776W        W74317  32.544  22.117   1.236
 7777W        W74318  17.793  15.743   2.317
 7778W        W74319  36.543  37.983  14.552
 7779W        W74320  44.065  23.507   3.687
 7780W        W74321  32.345  33.962  12.023
 7781W        W74322   1.977  25.645  13.891
 7782W        W74323  14.449  34.402   4.521
 7783W        W74324  28.523  12.844   0.194
 7784W        W74325  19.832  38.152  13.027
 7785W        W74326  29.572  43.514  12.917
 7786W        W74327   1.387   9.628   2.866
 7787W        W74328  40.559  36.483  13.611
 7788W        W74329  32.138  10.516  12.174
 7789W        W74330  16.496  11.217  14.234
 7790W        W74331  38.296  12.236  10.728
 7791W        W74332  34.067   8.421   1.218
 7792W        W74333  41.475  29.424   4.687
 7793W        W74334  29.354  12.343  11.667
 7794W        W74335  35.946  43.679  11.540
 7795W        W74336  19.814  26.880   1.241
 7796W        W74337  31.991  21.084  14.010
 7797W        W74338   7.741   4.756  12.805
 7798W        W74339  29.016   4.090  13.074
 7799W        W74340   8.842   8.930   1.239
 7800W        W74341  10.116   8.347   3.705
 7801W        W74342  13.552  33.020  11.559
 7802W        W74343  16.805  38.741   1.891
 7803W        W74344  24.026  14.749  14.364
 7804W        W74345  16.149  33.543  10.927
 7805W        W74346   2.266  29.664   0.747
 7806W        W74347  14.076  11.977   5.183
 7807W        W74348  35.972   3.689   2.710
 7808W        W74349  39.129   2.123   2.398
 7809W        W74350  15.639  25.140   1.035
 7810W        W74351  42.770   2.250  10.604
 7811W        W74352  39.796  15.789  11.265
 7812W        W74353  40.547  35.431   0.059
 7813W        W74354  34.888  13.887  14.426
 7814W        W74355  15.732  11.371  10.929
 7815W        W74356  41.360  34.980   2.362
 7816W        W74357  39.701  43.277   3.277
 7817W        W74358  36.954  38.687  13.731
 7818W        W74359  19.664  31.927   0.352
 7819W        W74360  21.023  21.297  12.874
 7820W        W74361  13.086  41.362   1.829
 7821W        W74362   2.270   6.711   3.907
 7822W        W74363   1.319  18.099   1.043
 7823W        W74364   3.351  22.130   1.711
 7824W        W74365  39.500   6.430  13.421
 7825W        W74366  15.311  29.718   4.151
 7826W        W74367  12.389  27.893  14.033
 7827W        W74368  11.138  21.482  12.066
 7828W        W74369  20.881   2.973  11.665
 7829W        W74370  34.945  11.835  12.936
 7830W        W74371   4.445   8.665  11.483
 7831W        W74372   9.826  17.004   3.275
 7832W        W74373  42.956  17.436   4.595
 7833W        W74374  35.463  39.783   2.161
 7834W        W74375  34.906  10.254   4.673
 7835W        W74376  22.665  14.153   2.190
 7836W        W74377   4.965  38.441   3.786
 7837W        W74378  12.267  41.739  14.309
 7838W        W74379  12.852  10.071  11.631
 7839W        W74380   8.098  19.411  11.497
 7840W        W74381  29.662  18.153  14.932
 7841W        W74382  29.134  31.029  12.021
 7842W        W74383  18.633  31.015  13.017
 7843W        W74384  28.968  26.535   2.345
 7844W        W74385  44.842  26.229  13.500
 7845W        W74386  34.056  28.656  14.075
 7846W        W74387  28.613   8.657   0.886
 7847W        W74388  10.976  23.144   4.273
 7848W        W74389  16.814  24.791   0.906
 7849W        W74390  14.195   5.539   2.410
 7850W        W74391  43.298  13.658  11.945
 7851W        W74392   3.912   3.254  13.010
 7852W        W74393   3.267   1.607   2.196
 7853W        W74394  31.511   5.431  11.570
 7854W        W74395  33.480   7.171   3.674
 7855W        W74396  35.651  32.838   4.078
 7856W        W74397  43.392  12.889  11.192
 7857W        W74398  25.274  39.293   0.683
 7858W        W74399  21.851   1.955  11.720
 7859W        W74400  27.451  32.033   2.715
 7860W        W74401   7.660   1.879   5.112
 7861W        W74402  24.169  27.975   1.518
 7862W        W74403  30.088  32.996   4.740
 7863W        W74404   1.274  24.097   1.772
 7864W        W74405   9.594  24.426   4.609
 7865W        W74406  16.371  20.175  10.570
 7866W        W74407  29.756  15.004  12.809
 7867W        W74408  27.327   7.443  13.606
 7868W        W74409  40.865  21.224  10.878
 7869W        W74410  44.286   9.123   5.083
 7870W        W74411   7.482  33.024   0.021
 7871W        W74412   4.939   1.396  13.471
 7872W        W74413  18.046  42.801  13.741
 7873W        W74414  39.803   4.801  13.295
 7874W        W74415  26.229  12.625   3.639
 7875W        W74416  37.189  15.680  11.904
 7876W        W74417  29.086  17.140   0.031
 7877W        W74418   1.464   1.045  10.729
 7878W        W74419  43.955  37.832   0.846
 7879W        W74420  10.755  43.680  14.273
 7880W        W74421  40.716  26.168   4.220
 7881W        W74422   7.517  38.103  10.714
 7882W        W74423  39.997  44.128   1.329
 7883W        W74424  22.559  29.416  11.564
 7884W        W74425  28.995   4.922   3.360
 7885W        W74426   4.281  15.042  10.667
 7886W        W74427  11.648   4.391   3.684
 7887W        W74428   5.621  17.673   3.756
 7888W        W74429  19.291  39.803  14.266
 7889W        W74430  41.231   9.214   0.112
 7890W        W74431  36.933  10.759   3.151
 7891W        W74432   8.060  41.912   2.847
 7892W        W74433  34.522  15.955  10.573
 7893W        W74434   6.116  24.467  11.466
 7894W        W74435  21.280  32.369   4.290
 7895W        W74436  13.061  39.529  14.323
 7896W        W74437  26.063  41.513   0.438
 7897W        W74438  30.408   4.269  13.887
 7898W        W74439  35.403  18.327   4.094
 7899W        W74440   8.679  10.956  14.782
 7900W        W74441  15.046  22.785  12.918
 7901W        W74442   2.791  22.067   4.066
 7902W        W74443  36.123   8.336  14.749
 7903W        W74444  14.369  43.347   3.615
 7904W        W74445  24.162  22.640  13.256
 7905W        W74446  17.747  42.069   1.483
 7906W        W74447  44.505   0.423  14.492
 7907W        W74448   3.347   6.034  14.045
 7908W        W74449  41.247  19.727   0.203
 7909W        W74450   1.014  25.704  11.663
 7910W        W74451  31.992  37.801   1.427
 7911W        W74452  13.797  35.439  10.518
 7912W        W74453  14.104   7.484   3.231
 7913W        W74454  33.953  39.629  12.524
 7914W        W74455  20.719  18.883  13.705
 7915W        W74456  16.747  44.791   0.855
 7916W        W74457   6.759  12.692   0.534
 7917W        W74458  24.559  31.217   0.324
 7918W        W74459   9.215  12.203  10.912
 7919W        W74460  39.246  32.778  11.083
 7920W        W74461  25.555  17.001   1.824
 7921W        W74462  36.347  11.352  11.181
 7922W        W74463   4.174   3.729  14.546
 7923W        W74464  11.250  36.044   3.289
 7924W        W74465  19.095  43.886  11.895
 7925W        W74466  18.307  16.768  13.417
 7926W        W74467  18.195  41.113   1.085
 7927W        W74468  16.391  36.942   3.697
 7928W        W74469   0.854   0.147  12.164
 7929W        W74470   3.715  40.707   2.051
 7930W        W74471  29.559  17.655  12.951
 7931W        W74472  39.828  17.789   1.405
 7932W        W74473   0.789  32.121   1.742
 7933W        W74474   3.210  28.553  13.448
 7934W        W74475  40.953  11.381   1.672
 7935W        W74476   7.591  29.452   1.354
 7936W        W74477  36.905  18.622   0.423
 7937W        W74478  36.839  39.909   0.699
 7938W        W74479   0.233   1.403   3.816
 7939W        W74480  44.017  41.824   0.355
 7940W        W74481  14.446  26.613  11.617
 7941W        W74482   0.172  38.319  14.384
 7942W        W74483  25.127  22.793   0.746
 7943W        W74484  17.164   4.089   3.223
 7944W        W74485  22.482  20.955  12.875
 7945W        W74486  14.635  22.651   1.316
 7946W        W74487  34.637  15.718   1.384
 7947W        W74488  37.306  41.331   4.658
 7948W        W74489  37.324  20.199   0.727
 7949W        W74490   0.183  15.878  13.481
 7950W        W74491  14.282  25.237   1.176
 7951W        W74492   9.758   2.284  10.904
 7952W        W74493  39.261  40.534  11.468
 7953W        W74494  31.978  31.260   0.728
 7954W        W74495   3.773  28.755   1.715
 7955W        W74496   8.294  36.712  12.934
 7956W        W74497  41.484  32.467  11.148
 7957W        W74498  19.765  31.445  10.738
 7958W        W74499   5.865  38.282   4.981
 7959W        W74500  19.616  15.611   5.069
 7960W        W74501  43.950  27.407   3.614
 7961W        W74502  30.821  24.132   3.315
 7962W        W74503   6.385   4.270   0.775
 7963W        W74504  43.383   4.847   1.699
 7964W        W74505  43.401  42.219   4.548
 7965W        W74506  42.286  22.451   5.323
 7966W        W74507   4.084  14.335   1.833
 7967W        W74508  42.861   7.682   0.914
 7968W        W74509  41.461   6.409  13.969
 7969W        W74510   1.015  14.761   4.608
 7970W        W74511  20.022  22.642  10.727
 7971W        W74512  14.896  31.099   0.416
 7972W        W74513  34.855  16.191  14.056
 7973W        W74514   4.260   5.611   0.530
 7974W        W74515  39.360  38.820  14.942
 7975W        W74516  21.590  13.594   4.617
 7976W        W74517  16.783   0.554  11.919
 7977W        W74518  32.296   5.526   5.077
 7978W        W74519  43.659  11.061   1.477
 7979W        W74520  18.571  30.613  10.765
 7980W        W74521  30.382   6.267   0.913
 7981W        W74522   3.146  35.522   2.463
 7982W        W74523  23.055  39.373   1.809
 7983W        W74524  34.884   1.897  12.580
 7984W        W74525  28.826   5.335   2.421
 7985W        W74526  14.643   0.430   2.949
 7986W        W74527   7.055   1.474   2.767
 7987W        W74528  23.815  24.660  14.937
 7988W        W74529   1.751  29.692  12.002
 7989W        W74530  22.594  20.009   2.803
 7990W        W74531  26.168  22.112  13.640
 7991W        W74532  17.660  11.294  12.789
 7992W        W74533  25.679  12.823  13.361
 7993W        W74534  38.111  19.710   3.016
 7994W        W74535  12.743  27.864  11.589
 7995W        W74536   5.253  40.673  13.042
 7996W        W74537  13.034  21.790  11.857
 7997W        W74538  11.481   1.721   4.101
 7998W        W74539  35.807  41.117   1.832
 7999W        W74540   8.505  36.278  13.603
 8000W        W74541   2.316  32.760  12.364
 8001W        W74542  40.781  41.408  13.857
 8002W        W74543   8.423   7.865   1.675
 8003W        W74544   4.184   3.344   2.383
 8004W        W74545  17.601  32.336   0.906
 8005W        W74546  28.496  14.593  11.128
 8006W        W74547  20.551  34.789   2.540
 8007W        W74548  44.337  15.459  12.537
 8008W        W74549  10.224  30.702   2.915
 8009W        W74550  19.821  18.203   1.176
 8010W        W74551  28.610   1.490   3.467
 8011W        W74552  20.076  32.178  12.912
 8012W        W74553  43.915   6.132   3.681
 8013W        W74554  36.140  18.873  12.908
 8014W        W74555  28.597  28.401   2.754
 8015W        W74556  21.139  20.986  11.077
 8016W        W74557  27.905  29.377  11.101
 8017W        W74558  43.515  41.126  11.166
 8018W        W74559   0.117   7.846  12.116
 8019W        W74560   4.222  22.559   1.279
 8020W        W74561  28.395  39.494  11.135
 8021W        W74562  17.194  23.264  12.291
 8022W        W74563  33.170  10.002   4.747
 8023W        W74564   2.855  44.346   0.419
 8024W        W74565  34.891  26.256  11.011
 8025W        W74566  41.494  12.394   0.439
 8026W        W74567  31.937  12.302   3.893
 8027W        W74568  15.912  26.700   1.359
 8028W        W74569   0.516  11.391   3.163
 8029W        W74570  25.704  12.882  14.932
 8030W        W74571  11.433  43.896  13.976
 8031W        W74572  16.201  17.741   0.009
 8032W        W74573  10.417  27.959   0.780
 8033W        W74574  42.526  26.726  14.441
 8034W        W74575  43.056  44.425  14.233
 8035W        W74576  44.794  38.945  14.333
 8036W        W74577   4.003  38.081   0.653
 8037W        W74578  14.091  14.347  14.836
 8038W        W74579  36.483  24.846  12.060
 8039W        W74580  36.908  38.088   1.235
 8040W        W74581  19.272  33.732   3.795
 8041W        W74582   4.595  28.445  11.277
 8042W        W74583  33.521  36.840  14.794
 8043W        W74584  15.260   4.793   1.939
 8044W        W74585  31.875   5.205  13.879
 8045W        W74586  32.952  36.480   2.820
 8046W        W74587  12.386  14.759  13.548
 8047W        W74588   9.936  44.446  11.047
 8048W        W74589  32.087  38.360  14.395
 8049W        W74590   7.289  44.862   0.653
 8050W        W74591  18.302  40.211   0.979
 8051W        W74592  35.536  42.404   1.708
 8052W        W74593  22.119  44.276  11.559
 8053W        W74594  32.163  40.017   0.559
 8054W        W74595   5.436  30.108  12.032
 8055W        W74596  42.899   3.566   1.722
 8056W        W74597  22.381  31.688   2.226
 8057W        W74598   8.179  33.101  11.074
 8058W        W74599  24.536   8.439   3.248
 8059W        W74600  35.091   3.992   4.144
 8060W        W74601   7.897   4.235  11.981
 8061W        W74602  21.822  30.082   3.645
 8062W        W74603  10.304  43.683  10.788
 8063W        W74604  18.136   2.654   1.380
 8064W        W74605   1.714  26.004  13.456
 8065W        W74606   0.871   9.698   1.240
 8066W        W74607  25.201  43.170  12.925
 8067W        W74608  26.390   4.737  13.865
 8068W        W74609   1.501  39.282   0.387
 8069W        W74610   5.686  18.737   4.741
 8070W        W74611  41.396  34.628  13.317
 8071W        W74612   4.335  36.344  12.966
 8072W        W74613  37.348  35.677   4.527
 8073W        W74614  33.098  15.727   3.654
 8074W        W74615  37.215   8.839   1.389
 8075W        W74616  34.147  33.001  12.589
 8076W        W74617  22.857  44.473   2.048
 8077W        W74618  34.577  16.169   3.251
 8078W        W74619  23.272  13.667  13.360
 8079W        W74620  15.041  27.743   0.168
 8080W        W74621  36.870  23.668   2.075
 8081W        W74622   1.730  21.806   4.137
 8082W        W74623   3.239  35.134   3.709
 8083W        W74624  14.576  28.800  12.514
 8084W        W74625  19.583   6.624  13.656
 8085W        W74626  34.707  10.071   2.320
 8086W        W74627  19.355   6.209  13.871
 8087W        W74628  15.846  33.159   3.111
 8088W        W74629  12.311  13.316   2.143
 8089W        W74630  34.356  17.239   3.008
 8090W        W74631  41.453  25.844   2.867
 8091W        W74632  10.976   0.430  12.791
 8092W        W74633  33.031  43.531   2.793
 8093W        W74634  37.326  11.676   0.289
 8094W        W74635  32.525   7.216  14.101
 8095W        W74636  38.759  10.742  13.913
 8096W        W74637  20.710  43.769  14.428
 8097W        W74638  21.685  13.093   2.602
 8098W        W74639  18.697  25.351  13.751
 8099W        W74640  19.233   5.297  13.848
 8100W        W74641  18.413  10.356  11.550
 8101W        W74642  28.609  18.649   4.619
 8102W        W74643  41.429   6.783   4.523
 8103W        W74644   0.864  21.400  10.032
 8104W        W74645   9.773  21.986   0.769
 8105W        W74646  21.012  25.344  13.669
 8106W        W74647   5.424   5.796  14.479
 8107W        W74648  32.772  20.209   2.908
 8108W        W74649  25.636  39.917   2.989
 8109W        W74650  10.217  20.122   3.693
 8110W        W74651   5.480  29.246   4.660
 8111W        W74652   0.435   6.320  12.665
 8112W        W74653  33.235  13.619   1.186
 8113W        W74654  37.639  28.036  11.576
 8114W        W74655  41.964  42.101   3.294
 8115W        W74656   9.314  29.744  12.875
 8116W        W74657  17.200   2.272   0.469
 8117W        W74658  10.039  29.341   0.759
 8118W        W74659  26.301  31.006  13.678
 8119W        W74660  36.075  16.716   2.880
 8120W        W74661  15.601   0.997   2.651
 8121W        W74662   7.569  30.640   3.245
 8122W        W74663  35.069  38.421   0.926
 8123W        W74664  14.605  19.654   0.567
 8124W        W74665  22.439   8.887   2.761
 8125W        W74666  42.665  13.826   2.750
 8126W        W74667  43.456  31.978   4.536
 8127W        W74668  30.490   5.033  14.397
 8128W        W74669  27.237  25.983  12.543
 8129W        W74670  21.440  32.528   0.309
 8130W        W74671  27.420  34.143  13.467
 8131W        W74672  22.429  26.505   3.285
 8132W        W74673   1.511  33.809  12.886
 8133W        W74674  17.130  18.490   0.374
 8134W        W74675   4.762  44.405   3.688
 8135W        W74676   2.315  10.405  11.258
 8136W        W74677  19.373  15.805  14.223
 8137W        W74678  33.363  22.012   2.735
 8138W        W74679  17.842  12.515   0.257
 8139W        W74680  21.495  33.362  12.638
 8140W        W74681   9.985   1.012  12.114
 8141W        W74682  22.982  29.148  11.714
 8142W        W74683  43.812   1.830  14.489
 8143W        W74684   5.901   9.590   0.553
 8144W        W74685   0.810  17.544   1.229
 8145W        W74686   2.064   4.649  10.572
 8146W        W74687  11.637  20.814   4.473
 8147W        W74688  21.751   4.302   0.864
 8148W        W74689  10.673  36.716   0.925
 8149W        W74690  13.657  17.784  14.312
 8150W        W74691  23.137  24.260   3.781
 8151W        W74692  20.128  27.251   0.344
 8152W        W74693  21.537  22.651  12.975
 8153W        W74694  21.566  40.848  12.684
 8154W        W74695  29.016  35.423   1.204
 8155W        W74696  33.750  25.063   1.883
 8156W        W74697  22.304  36.913   3.629
 8157W        W74698  34.678  29.726   0.374
 8158W        W74699  16.373   6.342   3.482
 8159W        W74700  12.379  13.576  12.460
 8160W        W74701   8.611  26.952  10.675
 8161W        W74702  39.928  42.041   0.397
 8162W        W74703  19.292   4.743  12.484
 8163W        W74704  23.775  22.495   4.618
 8164W        W74705  21.910  36.459   1.913
 8165W        W74706  31.050  12.839   0.639
 8166W        W74707   7.711  17.180  10.827
 8167W        W74708  41.765  32.199  13.855
 8168W        W74709   3.480   5.958  10.827
 8169W        W74710  24.248  30.009  14.939
 8170W        W74711  21.134   3.021   0.851
 8171W        W74712   1.394  18.584  12.839
 8172W        W74713  30.651  25.692   5.120
 8173W        W74714  21.453  20.622   1.423
 8174W        W74715  21.671   3.794   1.014
 8175W        W74716  36.437  13.214   1.521
 8176W        W74717   7.945  12.295  11.972
 8177W        W74718  36.620  22.092  14.954
 8178W        W74719  41.333  38.842  13.019
 8179W        W74720  25.678  34.440   3.783
 8180W        W74721  44.580   9.456  12.461
 8181W        W74722  15.707   1.944   2.814
 8182W        W74723  18.713  31.013  11.093
 8183W        W74724  41.429  43.399   2.677
 8184W        W74725  41.940  10.059   3.446
 8185W        W74726  39.081  33.204  13.584
 8186W        W74727  11.935  28.117  11.181
 8187W        W74728  24.462  10.236   4.182
 8188W        W74729  43.515  27.074   0.837
 8189W        W74730   3.327  23.972  14.399
 8190W        W74731   4.702   4.306  13.269
 8191W        W74732   7.846  25.953  11.721
 8192W        W74733   2.968  38.499   3.889
 8193W        W74734   9.268  42.828  11.049
 8194W        W74735   9.828  15.532   0.899
 8195W        W74736  23.242   6.105   2.186
 8196W        W74737  19.584  16.322  13.049
 8197W        W74738  42.989  17.846  13.669
 8198W        W74739  29.031  10.665   2.292
 8199W        W74740  42.614  23.076   0.716
 8200W        W74741  11.082   2.066  11.099
 8201W        W74742  32.731   5.237  10.443
 8202W        W74743  25.482  23.159  13.790
 8203W        W74744   3.958   0.832  11.544
 8204W        W74745  28.139  21.207   0.951
 8205W        W74746  30.136   7.731   0.733
 8206W        W74747   3.849  32.366   2.440
 8207W        W74748  11.092  43.355  13.351
 8208W        W74749  16.650  38.394  13.896
 8209W        W74750  19.526  19.657  13.005
 8210W        W74751  28.282  12.162   4.211
 8211W        W74752  29.603  26.400  14.162
 8212W        W74753  42.000  11.460   2.091
 8213W        W74754   3.448  35.048  11.723
 8214W        W74755  13.561  37.465  12.495
 8215W        W74756  28.164  34.092  11.096
 8216W        W74757  42.024  34.098  11.651
 8217W        W74758  38.878  41.362  11.408
 8218W        W74759  28.101  29.133  10.693
 8219W        W74760  44.572   1.262  11.249
 8220W        W74761  22.898  20.738  13.547
 8221W        W74762   3.917  24.454   1.496
 8222W        W74763  38.594  38.178  12.882
 8223W        W74764  34.385  27.399   0.021
 8224W        W74765  25.001  28.984  12.088
 8225W        W74766  15.797   7.207   3.595
 8226W        W74767  24.415  18.386  11.156
 8227W        W74768  32.373  27.164   3.197
 8228W        W74769  24.468   2.724  12.416
 8229W        W74770   7.323  41.272   4.780
 8230W        W74771  38.202  41.270  12.539
 8231W        W74772  10.764   6.366   3.801
 8232W        W74773  10.789  21.300   1.589
 8233W        W74774   2.375  21.720  14.403
 8234W        W74775  14.256  17.630   2.747
 8235W        W74776  18.113   8.952   4.239
 8236W        W74777  42.890   5.551   0.929
 8237W        W74778  39.306   7.746   3.717
 8238W        W74779  29.820  29.941   0.292
 8239W        W74780  28.473  37.555   0.372
 8240W        W74781   4.824  37.223   2.637
 8241W        W74782  22.320  25.565  10.613
 8242W        W74783  42.860   4.263   0.335
 8243W        W74784  34.146  19.189   3.851
 8244W        W74785   0.271  37.387   2.099
 8245W        W74786  43.356  10.442   2.217
 8246W        W74787  34.847  41.477   0.349
 8247W        W74788   8.877  31.948  12.514
 8248W        W74789  44.981   1.161  13.428
 8249W        W74790  26.561  33.439  14.507
 8250W        W74791  31.371   8.209   3.898
 8251W        W74792  21.771  38.377   0.169
 8252W        W74793   0.366  29.552   1.305
 8253W        W74794  11.720  42.503  11.095
 8254W        W74795   3.064  24.505   2.677
 8255W        W74796  32.420  21.160  10.462
 8256W        W74797  42.475  15.467  14.928
 8257W        W74798  30.779  11.605   5.422
 8258W        W74799  31.855  30.468  10.745
 8259W        W74800  31.867   8.206  10.921
 8260W        W74801  39.535   2.836  12.834
 8261W        W74802  19.751  40.070   2.869
 8262W        W74803  39.381  37.440   1.665
 8263W        W74804  35.938   5.907   4.825
 8264W        W74805  36.562  44.740   3.711
 8265W        W74806  21.315   7.931  12.583
 8266W        W74807   4.706  35.820  12.561
 8267W        W74808  36.313  37.613   4.151
 8268W        W74809  36.981  44.849  14.418
 8269W        W74810  26.861  35.369  13.841
 8270W        W74811  14.291  12.706   0.883
 8271W        W74812  18.984  32.601  11.906
 8272W        W74813  26.070  33.399   4.380
 8273W        W74814  14.957  32.964   4.881
 8274W        W74815  40.153  22.552  14.998
 8275W        W74816   2.847   6.400  10.583
 8276W        W74817   4.756  13.572   1.352
 8277W        W74818   1.989  16.257  10.680
 8278W        W74819  31.873  42.336  10.630
 8279W        W74820   1.338  17.543   1.079
 8280W        W74821  19.339  10.406  10.753
 8281W        W74822  39.869  15.145  11.941
 8282W        W74823  22.718  32.483  12.168
 8283W        W74824  16.285   5.248  10.901
 8284W        W74825  18.839   1.883   4.233
 8285W        W74826  13.338  25.230   3.495
 8286W        W74827  15.781  12.671  11.499
 8287W        W74828  23.316   6.266   0.230
 8288W        W74829  26.296  14.273  14.867
 8289W        W74830  11.104  15.545   3.037
 8290W        W74831   3.323   3.286  14.859
 8291W        W74832  31.202   8.436  11.533
 8292W        W74833  24.704  35.845   1.956
 8293W        W74834  15.326   4.934  14.833
 8294W        W74835  18.777  35.405   2.575
 8295W        W74836  39.303   1.774  11.686
 8296W        W74837   2.644   9.044   2.771
 8297W        W74838   9.319  25.127  11.592
 8298W        W74839  17.922  41.256  12.070
 8299W        W74840  37.410  17.912  14.008
 8300W        W74841   9.996  27.611  10.744
 8301W        W74842  23.422  36.615   4.152
 8302W        W74843   9.700  40.305  11.512
 8303W        W74844  12.105   9.943  14.264
 8304W        W74845  41.315   1.259  11.963
 8305W        W74846  31.544  24.695   1.816
 8306W        W74847  22.737  15.812   4.625
 8307W        W74848  29.142  14.986   0.757
 8308W        W74849  23.769  33.900  10.707
 8309W        W74850  18.182  10.675  12.969
 8310W        W74851  27.108  14.183  10.514
 8311W        W74852  22.561  30.324  12.498
 8312W        W74853  29.628  21.985   2.725
 8313W        W74854  43.000  15.384   4.156
 8314W        W74855  29.906  22.117  13.970
 8315W        W74856   1.279   1.794   4.078
 8316W        W74857   7.573  23.723   2.343
 8317W        W74858  14.728  31.914  12.421
 8318W        W74859  36.709   4.553   3.826
 8319W        W74860  25.557  32.176   4.265
 8320W        W74861   3.357   0.529   4.249
 8321W        W74862   5.373   8.378   1.360
 8322W        W74863  16.468  26.291   0.958
 8323W        W74864  26.652  37.086   2.688
 8324W        W74865   4.302  39.860   0.390
 8325W        W74866  43.430  30.724  14.170
 8326W        W74867  12.255  32.992   3.505
 8327W        W74868  40.596   3.050   3.151
 8328W        W74869  17.618  11.356  12.289
 8329W        W74870   9.693  33.991   2.309
 8330W        W74871  16.198  40.580   4.922
 8331W        W74872  25.280  40.990  14.064
 8332W        W74873  20.631  26.236   3.811
 8333W        W74874   9.480  40.979  11.725
 8334W        W74875  24.934  34.022  11.446
 8335W        W74876   6.010  36.487   2.623
 8336W        W74877  39.019  15.411   0.812
 8337W        W74878   4.964  36.251   2.746
 8338W        W74879  30.472  11.545  11.617
 8339W        W74880  22.772   2.376  12.613
 8340W        W74881  24.709   7.865   3.781
 8341W        W74882  37.856  10.937   2.347
 8342W        W74883  39.573   9.149  11.984
 8343W        W74884  22.128  16.891   4.183
 8344W        W74885  23.348  28.817  12.583
 8345W        W74886  13.720  34.206   0.286
 8346W        W74887  37.529  37.066  12.930
 8347W        W74888  35.850  35.075  11.603
 8348W        W74889  44.390   0.028  12.885
 8349W        W74890  30.545  44.067   0.063
 8350W        W74891  43.701  42.830   1.725
 8351W        W74892  12.806  15.195  12.429
 8352W        W74893  41.624  19.747  12.512
 8353W        W74894  10.973   4.938  13.881
 8354W        W74895  18.729  15.753   4.930
 8355W        W74896  22.979   0.536   1.154
 8356W        W74897  23.678   0.759   3.756
 8357W        W74898  25.575  18.184   4.677
 8358W        W74899   6.391  42.550   4.492
 8359W        W74900  34.838  29.376  14.055
 8360W        W74901  20.242  42.931   4.747
 8361W        W74902  27.841   3.531   0.196
 8362W        W74903  36.101  44.153  11.607
 8363W        W74904  34.138   3.735   3.645
 8364W        W74905  38.826  39.817   4.043
 8365W        W74906  29.052   4.636   0.077
 8366W        W74907  44.582  26.936   4.248
 8367W        W74908  16.192   1.855   4.478
 8368W        W74909  35.888  43.999  14.361
 8369W        W74910  13.786  25.207   4.506
 8370W        W74911   1.267   1.411  14.053
 8371W        W74912  43.790  40.904  14.056
 8372W        W74913   8.771  22.155  11.513
 8373W        W74914   4.796  19.797  11.630
 8374W        W74915  13.273   1.704  14.101
 8375W        W74916  11.580  28.039  12.092
 8376W        W74917  16.128  14.783  13.478
 8377W        W74918  18.467   0.920   1.758
 8378W        W74919  14.813  11.340   2.749
 8379W        W74920  34.012   4.724   0.736
 8380W        W74921  44.776  40.307  13.162
 8381W        W74922  17.636  22.203  14.039
 8382W        W74923  21.601  22.714   9.768
 8383W        W74924   7.319  36.133  12.580
 8384W        W74925   9.108   0.475   0.681
 8385W        W74926  22.531  12.611   2.319
 8386W        W74927   9.866  17.956   4.466
 8387W        W74928   7.696  28.697  13.355
 8388W        W74929  34.813   7.625  13.026
 8389W        W74930  36.894  35.869  12.931
 8390W        W74931  43.415  36.765  13.330
 8391W        W74932  34.276  16.662  14.362
 8392W        W74933   2.730   5.866  12.442
 8393W        W74934  13.724  38.775  13.447
 8394W        W74935  43.898  41.981   4.499
 8395W        W74936  16.066  21.573   0.413
 8396W        W74937  38.508  15.669  13.009
 8397W        W74938  13.320  13.280   2.288
 8398W        W74939  40.811   1.463   1.253
 8399W        W74940  41.327  28.502   0.827
 8400W        W74941  39.534  15.355   0.866
 8401W        W74942  35.729  42.503  13.423
 8402W        W74943  39.793  21.781  12.461
 8403W        W74944  24.468  14.351   1.726
 8404W        W74945  27.686  28.216  14.232
 8405W        W74946  28.070  26.023   2.496
 8406W        W74947  17.771  37.982   4.315
 8407W        W74948  28.957   9.582  13.385
 8408W        W74949  24.803  13.153  10.746
 8409W        W74950   2.877  22.156  11.199
 8410W        W74951  13.740  15.724   4.520
 8411W        W74952  43.183  30.612   2.761
 8412W        W74953  35.908  33.970   0.756
 8413W        W74954  29.879  35.496  13.945
 8414W        W74955  11.053   3.941  14.520
 8415W        W74956   7.929  30.375   1.465
 8416W        W74957   4.980  11.230  10.684
 8417W        W74958  32.937  22.124   3.663
 8418W        W74959  22.993   9.744   0.203
 8419W        W74960  29.435  44.923  13.996
 8420W        W74961  43.724  11.725   3.231
 8421W        W74962  39.467  25.030   2.327
 8422W        W74963  36.279  32.337   0.383
 8423W        W74964   4.311   3.759  12.423
 8424W        W74965  16.127   0.935   2.468
 8425W        W74966  30.055  41.717  13.792
 8426W        W74967   1.202  36.520   4.524
 8427W        W74968   3.929  41.413   0.458
 8428W        W74969  38.132  31.793  13.132
 8429W        W74970  41.278  14.610  13.516
 8430W        W74971   8.170  34.854  14.733
 8431W        W74972  32.140  42.802  10.716
 8432W        W74973   8.938  14.179  14.026
 8433W        W74974  41.322  12.690  10.425
 8434W        W74975   4.230  26.028   2.174
 8435W        W74976  37.806  26.119   2.842
 8436W        W74977  17.149  10.677   0.744
 8437W        W74978   2.765  12.584  12.493
 8438W        W74979  39.073  15.084   2.905
 8439W        W74980  16.909  11.897   1.877
 8440W        W74981   0.971  20.602   1.427
 8441W        W74982  32.540  14.591   2.935
 8442W        W74983  38.446   2.319  13.108
 8443W        W74984  22.495  38.430  11.169
 8444W        W74985  30.040  25.079  14.508
 8445W        W74986  30.203  20.420  12.320
 8446W        W74987  43.984   3.244   1.373
 8447W        W74988  21.926  34.096   1.257
 8448W        W74989  22.695  19.158   3.752
 8449W        W74990  34.524   1.090   0.243
 8450W        W74991  41.953  26.544  14.739
 8451W        W74992  28.940   9.335  14.807
 8452W        W74993   5.206  10.297  14.076
 8453W        W74994  14.633  13.631   2.327
 8454W        W74995  44.340  24.133  12.969
 8455W        W74996  23.548  40.640   4.770
 8456W        W74997  12.293  38.443   1.895
 8457W        W74998  44.496  43.367  13.299
 8458W        W74999  33.021   6.601  14.639
 8459W        W75000  20.059  30.828   1.553
 8460W        W75001  10.221  25.872   3.792
 8461W        W75002  14.714  38.933   0.458
 8462W        W75003  30.595  19.087  12.147
 8463W        W75004  38.457  21.741   1.333
 8464W        W75005   7.096  23.635  11.153
 8465W        W75006   4.715  40.063   2.905
 8466W        W75007   8.661  33.989  11.028
 8467W        W75008  37.847  26.654   2.170
 8468W        W75009  33.822  44.415  11.851
 8469W        W75010  24.258   5.270   1.849
 8470W        W75011  14.313  20.640  14.934
 8471W        W75012  36.907  19.431  13.399
 8472W        W75013  25.562   7.489   2.484
 8473W        W75014   0.892   6.264   0.968
 8474W        W75015  18.760  15.372   3.624
 8475W        W75016   3.894  30.671  12.479
 8476W        W75017   7.766  41.706  12.042
 8477W        W75018  13.820   1.223  14.824
 8478W        W75019  33.067  26.739  12.161
 8479W        W75020  36.048  35.024   0.174
 8480W        W75021  39.269   0.272   1.828
 8481W        W75022  30.043  11.131   5.609
 8482W        W75023  33.253  41.418   5.197
 8483W        W75024  28.061  12.400   5.054
 8484W        W75025  16.709   1.978  12.652
 8485W        W75026   0.391  13.259  14.462
 8486W        W75027  19.380   7.320  12.032
 8487W        W75028  20.500  42.984   1.491
 8488W        W75029  20.528  19.970  11.544
 8489W        W75030  23.894   9.260   2.322
 8490W        W75031  25.366   3.043  14.011
 8491W        W75032   3.324  34.131   3.902
 8492W        W75033  11.389  19.007  11.414
 8493W        W75034  41.501  27.627  14.871
 8494W        W75035  34.501  37.659  14.283
 8495W        W75036   3.380  36.237   3.176
 8496W        W75037  44.778   2.839   0.225
 8497W        W75038   8.617  24.896  13.747
 8498W        W75039  31.965  33.177  13.511
 8499W        W75040  20.539  36.165   1.865
 8500W        W75041   7.898  44.327   2.177
 8501W        W75042  20.280   5.148   0.315
 8502W        W75043  23.520  12.174  12.091
 8503W        W75044   2.986  39.004   4.566
 8504W        W75045  29.690   7.208  12.642
 8505W        W75046   0.282  15.774  10.783
 8506W        W75047  15.121  13.696   1.476
 8507W        W75048  40.481  21.518  11.575
 8508W        W75049  39.506  18.862   2.694
 8509W        W75050  23.856  32.124   3.080
 8510W        W75051  44.273  44.219  13.648
 8511W        W75052  24.456  24.958   2.738
 8512W        W75053  37.227   6.251   3.102
 8513W        W75054  39.350  16.842   3.573
 8514W        W75055   9.226  28.605  12.623
 8515W        W75056  39.811   2.365   4.556
 8516W        W75057  24.217  26.572   4.423
 8517W        W75058   9.100   4.679   1.479
 8518W        W75059  30.985  24.217  14.359
 8519W        W75060   9.110  22.187   4.555
 8520W        W75061  13.103  43.288  13.338
 8521W        W75062  11.939   3.959   3.007
 8522W        W75063  30.486   1.711  14.032
 8523W        W75064  16.771  42.320  10.706
 8524W        W75065   5.566  43.792  14.981
 8525W        W75066  10.160  13.860  12.987
 8526W        W75067  20.580   7.161   2.297
 8527W        W75068   7.805  37.365  13.905
 8528W        W75069  18.278  32.352   3.678
 8529W        W75070  14.130  39.892  13.065
 8530W        W75071  15.341  44.579   0.810
 8531W        W75072  36.344  18.490  11.100
 8532W        W75073   6.508  44.492  11.111
 8533W        W75074  23.473  30.012  12.927
 8534W        W75075   5.984  13.157   9.873
 8535W        W75076   4.389  24.237  10.634
 8536W        W75077  11.629  11.669  13.622
 8537W        W75078   0.343  36.930  14.009
 8538W        W75079   3.553   6.938  13.901
 8539W        W75080   2.390  44.604  11.552
 8540W        W75081  34.897  15.831   3.635
 8541W        W75082  27.431  34.816   3.751
 8542W        W75083  39.813  39.379  13.905
 8543W        W75084  23.288  16.801   0.488
 8544W        W75085   4.523   0.902   0.427
 8545W        W75086   7.073  15.233   3.357
 8546W        W75087  12.840  36.874  13.466
 8547W        W75088   3.449  43.326  12.144
 8548W        W75089  10.165  20.601  14.436
 8549W        W75090  35.372  37.441   3.362
 8550W        W75091  26.115  40.131   2.833
 8551W        W75092  10.693   0.871  10.155
 8552W        W75093   6.931  25.570   9.839
 8553W        W75094   1.846  11.423  12.975
 8554W        W75095  15.276   6.401  11.533
 8555W        W75096  23.722  32.680  13.122
 8556W        W75097  24.175  27.135  13.820
 8557W        W75098  22.271  39.725   0.481
 8558W        W75099   9.726  26.815  11.590
 8559W        W75100  28.916   5.845   2.341
 8560W        W75101  41.762   4.712   1.117
 8561W        W75102  44.745   1.253   1.730
 8562W        W75103  23.194  24.498   3.297
 8563W        W75104  39.638  12.684  12.439
 8564W        W75105  38.538  14.320   0.825
 8565W        W75106   2.410   4.333   0.865
 8566W        W75107  33.586  24.659  14.297
 8567W        W75108  21.230  30.950  14.465
 8568W        W75109  30.215   4.049   1.380
 8569W        W75110   2.214  44.582   4.173
 8570W        W75111   7.795  16.223   2.929
 8571W        W75112  40.456   1.055  11.242
 8572W        W75113  24.747  43.742  14.887
 8573W        W75114  29.007  37.063  10.959
 8574W        W75115  19.749  35.838   3.329
 8575W        W75116  27.408  13.275   2.207
 8576W        W75117  22.791  43.370   3.723
 8577W        W75118  36.590  26.412   4.449
 8578W        W75119   8.655  44.879   1.809
 8579W        W75120   9.129  39.564  13.442
 8580W        W75121  14.468  22.664  14.416
 8581W        W75122  24.106  14.295   2.944
 8582W        W75123   2.213   9.232  12.043
 8583W        W75124  39.527  22.328   4.557
 8584W        W75125   2.429   4.839   3.373
 8585W        W75126  31.003  42.486  12.869
 8586W        W75127  24.082  34.383   4.786
 8587W        W75128  16.483  26.135  13.792
 8588W        W75129  15.063  26.574   4.082
 8589W        W75130  14.261  12.105  13.818
 8590W        W75131  25.516   5.278   3.188
 8591W        W75132  18.932  10.435  11.565
 8592W        W75133   9.768   1.188  13.021
 8593W        W75134  39.191  27.618   4.415
 8594W        W75135  17.197   5.844   2.629
 8595W        W75136  10.144  42.879  10.513
 8596W        W75137  23.492  42.279  13.873
 8597W        W75138  33.956  17.560  11.216
 8598W        W75139  11.899  20.277   1.899
 8599W        W75140  32.361   9.630  14.057
 8600W        W75141  40.615  12.420  11.941
 8601W        W75142   6.894   4.672  11.661
 8602W        W75143  17.674  10.932  14.848
 8603W        W75144  35.394  40.828  14.728
 8604W        W75145  41.770  16.244  12.801
 8605W        W75146  28.607  14.237   1.706
 8606W        W75147  17.218  20.529   1.864
 8607W        W75148  40.828   0.039   2.780
 8608W        W75149   8.163  44.167   4.933
 8609W        W75150  20.186  38.658   0.973
 8610W        W75151  14.086  13.528  13.374
 8611W        W75152  25.949  22.385   1.433
 8612W        W75153  19.236   7.291   4.921
 8613W        W75154  43.079  17.285   5.082
 8614W        W75155  12.685  35.052   4.068
 8615W        W75156  19.131  40.266  12.398
 8616W        W75157  13.663  19.541   0.488
 8617W        W75158  34.304  13.372   0.782
 8618W        W75159  24.193   7.408   2.265
 8619W        W75160  37.561  35.194  12.509
 8620W        W75161  43.234  13.115  12.025
 8621W        W75162   3.326  31.717   1.191
 8622W        W75163  41.393  15.805   3.219
 8623W        W75164   8.882  34.303   2.768
 8624W        W75165   7.710  34.869   5.239
 8625W        W75166  35.378  42.992   2.406
 8626W        W75167  41.035  14.713  14.426
 8627W        W75168   0.261  26.397   0.335
 8628W        W75169  21.972  37.358   0.953
 8629W        W75170  23.757  10.867   2.297
 8630W        W75171  23.601  14.673  11.486
 8631W        W75172  41.368  24.481   4.868
 8632W        W75173  32.668  28.623   2.402
 8633W        W75174  23.175   1.742   1.722
 8634W        W75175  39.457  25.035   1.263
 8635W        W75176  18.140  33.562   0.380
 8636W        W75177  30.375  18.811  14.735
 8637W        W75178  15.241  10.141  12.438
 8638W        W75179  26.784  12.592  13.326
 8639W        W75180   0.985  28.029  11.698
 8640W        W75181   4.416  22.982   3.662
 8641W        W75182  32.944  34.095   1.231
 8642W        W75183   8.727  21.709  14.870
 8643W        W75184  43.021  42.876   4.430
 8644W        W75185  15.737  34.634   3.216
 8645W        W75186  29.487  13.244  13.160
 8646W        W75187  42.937  23.564   2.885
 8647W        W75188   4.250   1.412   2.085
 8648W        W75189   9.713  15.959  11.707
 8649W        W75190   2.189   4.844   1.508
 8650W        W75191   2.409  26.645  10.462
 8651W        W75192  10.148  40.978   2.291
 8652W        W75193  10.814   0.737   1.628
 8653W        W75194  25.620  21.739  12.199
 8654W        W75195  25.561  11.216  11.946
 8655W        W75196  43.913  37.988   4.123
 8656W        W75197   2.675  44.050   1.708
 8657W        W75198  25.109   6.214   2.161
 8658W        W75199  39.799   7.125   1.347
 8659W        W75200  43.540  11.551   1.554
 8660W        W75201  34.044   1.212  10.270
 8661W        W75202  29.865  22.291  11.967
 8662W        W75203  34.140  38.823   3.714
 8663W        W75204  22.238  18.446  11.054
 8664W        W75205   0.429  13.315  11.205
 8665W        W75206  17.626  38.995  13.125
 8666W        W75207  41.327  40.784  13.906
 8667W        W75208  20.843   1.714   1.676
 8668W        W75209  11.951  34.075   1.847
 8669W        W75210  44.354  40.342  12.383
 8670W        W75211   7.333   6.282   2.309
 8671W        W75212  36.849  17.845  10.503
 8672W        W75213   4.862   2.830  12.872
 8673W        W75214  32.532  39.523  14.123
 8674W        W75215   3.888  11.235  11.742
 8675W        W75216  15.153  25.366   4.512
 8676W        W75217  27.195  38.750   4.787
 8677W        W75218  22.206  15.785   9.844
 8678W        W75219  19.044  38.522   4.220
 8679W        W75220  29.723  27.477  11.095
 8680W        W75221   4.615  27.610   4.962
 8681W        W75222  25.040  38.599  10.615
 8682W        W75223  39.007  21.276  13.828
 8683W        W75224  44.974   3.829  10.904
 8684W        W75225  11.404  10.950  11.167
 8685W        W75226  26.708  25.061  14.604
 8686W        W75227  15.905  11.105   1.858
 8687W        W75228  29.121   0.270   4.714
 8688W        W75229  14.543   3.876   0.115
 8689W        W75230  19.036  33.438   1.901
 8690W        W75231  27.564  25.301   2.457
 8691W        W75232   5.343  33.550  11.202
 8692W        W75233   7.786   2.328   3.561
 8693W        W75234  12.140  28.015   1.465
 8694W        W75235  22.780  31.444  10.818
 8695W        W75236  38.433  43.823  11.504
 8696W        W75237   0.373  34.907   2.672
 8697W        W75238  26.617  40.857  12.319
 8698W        W75239   2.445  36.288  10.733
 8699W        W75240  15.294  31.033  13.983
 8700W        W75241  35.327  19.877  14.677
 8701W        W75242  24.167  23.879  11.931
 8702W        W75243  16.054  21.757  14.905
 8703W        W75244  24.459  15.214  12.093
 8704W        W75245   1.235  26.333   2.301
 8705W        W75246  22.635  37.404  13.885
 8706W        W75247  14.962  30.081  13.954
 8707W        W75248  30.722  33.432  12.678
 8708W        W75249  35.954  36.842   4.394
 8709W        W75250  39.070  18.416  10.620
 8710W        W75251  28.271  25.683  13.383
 8711W        W75252  18.820  44.373   1.836
 8712W        W75253  36.386  34.647   2.884
 8713W        W75254  44.761   3.261  14.245
 8714W        W75255  36.451   2.751   0.505
 8715W        W75256  16.681  25.924  12.115
 8716W        W75257  38.044  14.680   3.694
 8717W        W75258  18.021  35.014   3.053
 8718W        W75259  19.571   0.431   3.682
 8719W        W75260  16.783  38.225  11.987
 8720W        W75261  23.600  29.242  11.977
 8721W        W75262  38.464  37.532  12.125
 8722W        W75263  20.226  38.391   3.652
 8723W        W75264   4.254  40.377   0.396
 8724W        W75265  42.396  43.097  11.582
 8725W        W75266   2.483   9.066   4.147
 8726W        W75267  43.925  29.097  12.518
 8727W        W75268  12.793   1.585  14.253
 8728W        W75269  34.839  38.033   0.390
 8729W        W75270   5.359   3.233   3.910
 8730W        W75271  11.231  22.494   0.413
 8731W        W75272  14.296  23.604   0.509
 8732W        W75273  17.423  15.413   4.112
 8733W        W75274  14.241   7.088   1.169
 8734W        W75275  31.976  14.523  12.652
 8735W        W75276  22.955  16.539  11.124
 8736W        W75277  28.974  43.582  14.113
 8737W        W75278  22.564  35.435   4.536
 8738W        W75279  10.500  29.730  11.158
 8739W        W75280  21.445  16.129   3.718
 8740W        W75281  35.183  34.016  12.622
 8741W        W75282  25.472  25.120   2.683
 8742W        W75283  26.733  20.086   4.444
 8743W        W75284  44.315   4.079   0.389
 8744W        W75285  42.909  10.262   3.117
 8745W        W75286  23.580  42.032   4.037
 8746W        W75287  15.846  44.524   1.710
 8747W        W75288  25.007   1.700   1.712
 8748W        W75289  19.286  41.575  14.925
 8749W        W75290  41.077   5.309  11.103
 8750W        W75291  40.122  25.112   4.226
 8751W        W75292  25.164  33.044   2.849
 8752W        W75293  39.973  17.805   0.907
 8753W        W75294  42.034   9.010  14.453
 8754W        W75295  23.718  11.754   3.642
 8755W        W75296   7.811  11.517   4.110
 8756W        W75297  37.293  25.666   2.262
 8757W        W75298  22.594   0.905   9.910
 8758W        W75299  32.962  35.137   1.964
 8759W        W75300  24.539   0.400   0.822
 8760W        W75301  26.456  16.908   0.568
 8761W        W75302  11.124  35.793   3.780
 8762W        W75303  14.349   1.279   2.076
 8763W        W75304   9.723  34.035  11.962
 8764W        W75305  21.265  43.907   0.216
 8765W        W75306  17.191  18.742   4.335
 8766W        W75307  16.973  34.889   3.283
 8767W        W75308  28.645  29.128  10.735
 8768W        W75309  15.266   6.423   0.710
 8769W        W75310   1.993   7.968   4.055
 8770W        W75311  38.373  30.432   1.933
 8771W        W75312  27.925  42.421   0.369
 8772W        W75313  16.527   6.756  13.136
 8773W        W75314  31.134  18.884  14.070
 8774W        W75315  22.286   5.238   0.833
 8775W        W75316  29.787  27.351   2.803
 8776W        W75317   6.477  41.935   1.964
 8777W        W75318  18.061   3.469  13.463
 8778W        W75319  10.868  40.402   4.319
 8779W        W75320  34.103   5.821  14.227
 8780W        W75321  13.768  27.368  11.580
 8781W        W75322  39.948  27.572  13.353
 8782W        W75323   4.992  14.600   1.248
 8783W        W75324  22.981  16.824   2.327
 8784W        W75325  40.872  28.524  11.513
 8785W        W75326  36.992  34.647  14.314
 8786W        W75327  23.808  13.661   4.788
 8787W        W75328   5.795  37.065  13.097
 8788W        W75329   4.430  12.332  11.056
 8789W        W75330  14.344  39.544  11.123
 8790W        W75331  29.551  24.205   1.403
 8791W        W75332  15.267   4.790  13.511
 8792W        W75333  39.301   9.163  13.764
 8793W        W75334   3.854  26.464   3.641
 8794W        W75335  28.506  35.580   0.401
 8795W        W75336  42.427  18.549  14.995
 8796W        W75337   3.636  28.964  11.920
 8797W        W75338  43.494  32.608  11.938
 8798W        W75339   0.259   6.471  10.712
 8799W        W75340  35.008  22.136   1.904
 8800W        W75341  37.892  24.484   3.381
 8801W        W75342  43.283  25.666  14.278
 8802W        W75343  25.911  36.503  11.024
 8803W        W75344  21.291  26.761  10.963
 8804W        W75345  23.600   1.137   1.453
 8805W        W75346  38.448  42.373   0.878
 8806W        W75347  23.278  38.918   1.030
 8807W        W75348   0.915  28.298   5.125
 8808W        W75349  33.992  44.204   0.786
 8809W        W75350   2.721  10.261  10.586
 8810W        W75351   0.005  18.601  14.559
 8811W        W75352  43.505   6.556   4.449
 8812W        W75353  27.112  26.276   0.204
 8813W        W75354  29.611  36.282   2.316
 8814W        W75355  35.065  32.092   2.844
 8815W        W75356  25.045  22.450  12.550
 8816W        W75357  16.841  17.246   4.460
 8817W        W75358  40.750   0.933  11.651
 8818W        W75359  27.920  21.813   2.270
 8819W        W75360  22.948   9.616  12.961
 8820W        W75361  12.694  18.287  11.204
 8821W        W75362  12.862   5.880  12.924
 8822W        W75363  16.297   4.477   3.636
 8823W        W75364  12.725  23.483   4.294
 8824W        W75365  16.493   4.769   1.460
 8825W        W75366  30.352   4.092  12.989
 8826W        W75367  18.785   8.164   4.288
 8827W        W75368  37.841  41.626  11.968
 8828W        W75369   2.232  24.431   2.284
 8829W        W75370  14.393  16.147   1.408
 8830W        W75371   7.770   8.229   1.881
 8831W        W75372  39.654   2.396  12.064
 8832W        W75373  11.114  42.863   4.518
 8833W        W75374  23.009  42.989  12.235
 8834W        W75375  28.988  22.561  11.946
 8835W        W75376  26.847  19.196  10.558
 8836W        W75377   6.379  41.454   4.216
 8837W        W75378  13.352  30.569  12.711
 8838W        W75379  29.543   8.490   1.260
 8839W        W75380  10.607  13.593  10.732
 8840W        W75381  11.158  32.419   3.242
 8841W        W75382  44.236  24.871  13.415
 8842W        W75383  18.701  33.826  13.962
 8843W        W75384  26.468   6.021   3.663
 8844W        W75385  10.883  41.432   5.639
 8845W        W75386  16.619  42.669   1.884
 8846W        W75387  27.638  26.152  12.165
 8847W        W75388  15.794   2.548  12.541
 8848W        W75389   6.546  13.885  13.920
 8849W        W75390  37.378  19.669  13.493
 8850W        W75391  18.834  22.968  13.585
 8851W        W75392   1.447  44.454  11.662
 8852W        W75393   7.151   3.305  12.889
 8853W        W75394  35.786  30.636  11.484
 8854W        W75395  23.995  29.462  11.375
 8855W        W75396  34.914  31.030  11.842
 8856W        W75397  41.538  30.092   2.223
 8857W        W75398   4.544  36.402  12.077
 8858W        W75399  27.205  26.012   2.651
 8859W        W75400  10.181  42.768  14.452
 8860W        W75401   4.804   0.177   3.988
 8861W        W75402  16.307   0.475  14.729
 8862W        W75403  31.046  19.765   3.371
 8863W        W75404  31.925  24.178  13.867
 8864W        W75405  16.351  14.507   0.020
 8865W        W75406  32.763  44.652  11.121
 8866W        W75407  19.138  13.904   2.740
 8867W        W75408  10.211  30.049  12.344
 8868W        W75409  43.081  23.350   0.754
 8869W        W75410  26.367  25.731   3.095
 8870W        W75411  40.780  28.561  12.200
 8871W        W75412  33.142  14.872   4.667
 8872W        W75413   7.313   2.726   4.840
 8873W        W75414  28.990  43.516  13.528
 8874W        W75415  33.388  15.084   2.907
 8875W        W75416   1.720  43.821   1.953
 8876W        W75417  10.242  43.550   0.388
 8877W        W75418  27.617  15.276  10.993
 8878W        W75419  36.610  14.155  10.213
 8879W        W75420  33.605  11.681   3.921
 8880W        W75421   7.679  32.133  14.679
 8881W        W75422  21.062  11.288  11.636
 8882W        W75423  31.605  29.086  13.688
 8883W        W75424  15.080   8.658   0.576
 8884W        W75425   3.420   9.848   1.277
 8885W        W75426   6.153  20.123  12.916
 8886W        W75427  41.103   1.056   1.131
 8887W        W75428  25.601  25.764   1.679
 8888W        W75429  30.361  32.116   0.830
 8889W        W75430  18.501  24.268   1.655
 8890W        W75431  12.578   5.748   0.815
 8891W        W75432  37.796   6.463  13.046
 8892W        W75433  16.859  37.491  12.453
 8893W        W75434  14.291  15.355  12.267
 8894W        W75435  41.434  23.579   3.823
 8895W        W75436  31.071  17.590  14.328
 8896W        W75437  19.250  11.902  13.056
 8897W        W75438  41.734  23.238  13.235
 8898W        W75439  44.615  38.977  12.632
 8899W        W75440  33.614   1.767  13.431
 8900W        W75441  31.077  11.834   1.751
 8901W        W75442   8.363  15.627   3.295
 8902W        W75443   2.117  16.317   4.360
 8903W        W75444   0.774  27.234  10.768
 8904W        W75445   5.484  18.156   1.764
 8905W        W75446  26.155  10.329  11.157
 8906W        W75447  34.783   2.719  13.420
 8907W        W75448  25.192  12.196   2.831
 8908W        W75449  42.477  34.955  10.679
 8909W        W75450  26.107  15.500   4.187
 8910W        W75451  22.504  15.015   3.914
 8911W        W75452  43.475  14.631   4.117
 8912W        W75453  15.484  21.096   5.237
 8913W        W75454   6.396   1.266  10.344
 8914W        W75455  24.786  32.847  11.592
 8915W        W75456  34.304  12.901  11.600
 8916W        W75457  44.472  44.526  14.585
 8917W        W75458  12.350  11.409   2.033
 8918W        W75459  27.478  25.841  13.867
 8919W        W75460  40.039  35.456  14.956
 8920W        W75461  26.059  29.176   3.769
 8921W        W75462  38.335  42.285   3.304
 8922W        W75463  12.679  11.891   3.987
 8923W        W75464   4.658  30.182   2.311
 8924W        W75465  39.890  34.988  12.897
 8925W        W75466  15.560  19.959  14.281
 8926W        W75467  27.482   8.781  12.030
 8927W        W75468  16.566  20.826  10.698
 8928W        W75469  28.433  35.680   3.314
 8929W        W75470  23.443   2.213   3.673
 8930W        W75471  32.150  37.672   4.499
 8931W        W75472  35.427  12.175   4.654
 8932W        W75473  25.476  31.440  14.934
 8933W        W75474  12.886  29.565   0.711
 8934W        W75475   8.962  26.579  10.581
 8935W        W75476  38.808  31.672   1.773
 8936W        W75477  40.901  20.091   1.400
 8937W        W75478   5.913  43.089   1.672
 8938W        W75479  22.003   0.327   1.379
 8939W        W75480  14.534  38.429   1.744
 8940W        W75481  12.862  33.141  13.412
 8941W        W75482  23.101  16.512   0.849
 8942W        W75483  11.288  21.325  12.944
 8943W        W75484  16.804  30.004  12.810
 8944W        W75485  40.102  27.014  14.355
 8945W        W75486  43.688  18.851   4.092
 8946W        W75487  24.079  24.741  11.618
 8947W        W75488  36.428  37.446  11.588
 8948W        W75489  28.507   4.848   1.214
 8949W        W75490   9.422  36.148  14.516
 8950W        W75491  33.399  39.326  11.435
 8951W        W75492  43.467   6.663  12.964
 8952W        W75493  23.114  10.129  12.819
 8953W        W75494   8.206  36.471   3.766
 8954W        W75495  42.936  25.615   4.251
 8955W        W75496  26.095  16.683   2.827
 8956W        W75497  15.569  19.201   1.755
 8957W        W75498  39.457  19.495  13.378
 8958W        W75499   8.656  26.209  11.888
 8959W        W75500   5.357  19.826  11.547
 8960W        W75501  20.524  33.526   2.312
 8961W        W75502  10.731  43.965   2.632
 8962W        W75503  34.426   0.687  12.826
 8963W        W75504  44.719  33.713  10.620
 8964W        W75505   5.019   6.902   2.944
 8965W        W75506  19.581  36.037  14.128
 8966W        W75507  44.148  13.893   2.699
 8967W        W75508   8.370  43.439   4.332
 8968W        W75509  44.429   3.987  11.145
 8969W        W75510   9.395  15.917   3.576
 8970W        W75511  14.139  41.805   2.767
 8971W        W75512  22.711  29.997   0.269
 8972W        W75513  17.375  18.036  11.680
 8973W        W75514  13.662   0.928   2.603
 8974W        W75515  28.951   9.556  12.497
 8975W        W75516  25.253  38.045  12.565
 8976W        W75517   8.729  37.379   1.719
 8977W        W75518  21.429  22.966   2.732
 8978W        W75519  28.366  41.268   2.809
 8979W        W75520   2.082  38.327  13.440
 8980W        W75521   6.284   5.472  11.034
 8981W        W75522  25.482  32.643  11.946
 8982W        W75523  17.701  23.150  14.031
 8983W        W75524  42.412  34.682  13.464
 8984W        W75525  32.114   6.589  13.880
 8985W        W75526  41.309  22.439   1.869
 8986W        W75527   4.898  35.155   4.147
 8987W        W75528   2.464  38.423  11.165
 8988W        W75529  36.962  26.737  11.965
 8989W        W75530  10.526  43.515   2.358
 8990W        W75531  20.049  43.871  11.658
 8991W        W75532   2.487  13.870  12.151
 8992W        W75533  31.159  18.367  13.883
 8993W        W75534  25.593   7.354   1.481
 8994W        W75535  11.110  23.650  10.747
 8995W        W75536  18.035  34.539   3.522
 8996W        W75537  38.361  36.296   2.262
 8997W        W75538   6.555  10.728  13.121
 8998W        W75539  16.308  35.921  13.966
 8999W        W75540  40.572  44.089  13.776
 9000W        W75541  13.066   8.243  11.542
 9001W        W75542  35.608  17.446  11.010
 9002W        W75543  34.826  42.345  11.602
 9003W        W75544  20.711  42.825  14.057
 9004W        W75545  22.100  24.466   0.813
 9005W        W75546  41.271  40.356   0.621
 9006W        W75547  18.225  17.771  10.627
 9007W        W75548  26.677  38.473   2.818
 9008W        W75549  42.895  34.171   3.384
 9009W        W75550   1.057   6.973  11.913
 9010W        W75551  29.554  40.746  11.460
 9011W        W75552  32.966  37.487  12.864
 9012W        W75553  32.522  18.349  14.541
 9013W        W75554   7.575  19.958  14.421
 9014W        W75555  44.265  11.342  11.496
 9015W        W75556  12.359   5.654   1.279
 9016W        W75557  44.573   7.862  11.051
 9017W        W75558  34.077  44.781   2.201
 9018W        W75559  24.404   0.943   1.007
 9019W        W75560  21.201  22.548   3.439
 9020W        W75561   5.867  26.207  12.685
 9021W        W75562  14.938  18.759   0.209
 9022W        W75563  38.339  36.617   1.791
 9023W        W75564  41.081  10.453   1.790
 9024W        W75565  24.502  19.671   4.668
 9025W        W75566   0.980  32.321   2.203
 9026W        W75567  12.222  30.859   1.847
 9027W        W75568  27.929  36.425   1.711
 9028W        W75569  42.911  43.898   0.384
 9029W        W75570  25.026   5.844  13.150
 9030W        W75571   0.419   3.984  11.178
 9031W        W75572  21.564  30.148  13.489
 9032W        W75573  14.047   6.715  12.635
 9033W        W75574  36.755  42.471   1.337
 9034W        W75575   7.085  21.505  10.617
 9035W        W75576  26.227  33.138  11.121
 9036W        W75577  33.587  37.338  14.899
 9037W        W75578  37.352  16.588  12.372
 9038W        W75579   3.471  30.353   4.637
 9039W        W75580  15.799   0.613  10.271
 9040W        W75581  37.475  13.346  11.962
 9041W        W75582  18.160  32.601  13.076
 9042W        W75583  40.447  31.112   2.675
 9043W        W75584  42.763  10.645  12.945
 9044W        W75585   3.322  36.873   0.246
 9045W        W75586  15.531  12.321  12.628
 9046W        W75587  14.409  30.176  10.660
 9047W        W75588  16.049  32.435   3.228
 9048W        W75589  42.167  42.217   2.600
 9049W        W75590  24.009  33.215   1.569
 9050W        W75591   3.042  42.790  10.694
 9051W        W75592  40.557  42.740  14.056
 9052W        W75593  22.171  40.526   0.887
 9053W        W75594   2.404   3.327  11.732
 9054W        W75595  40.925   2.147  13.052
 9055W        W75596  14.160   5.647   0.890
 9056W        W75597   8.185   5.059  14.275
 9057W        W75598  31.594   2.709  10.809
 9058W        W75599   9.904  40.554   4.034
 9059W        W75600  30.154   1.014   0.766
 9060W        W75601  30.010   6.641  10.614
 9061W        W75602   1.673   1.412  11.904
 9062W        W75603  31.392  35.576   4.372
 9063W        W75604  27.115  42.016   4.639
 9064W        W75605  37.536  39.067   0.410
 9065W        W75606  43.773   8.750  11.149
 9066W        W75607  21.583  37.970   4.725
 9067W        W75608  21.064  26.564  12.270
 9068W        W75609  42.394  10.441  11.543
 9069W        W75610  36.858   1.791  13.422
 9070W        W75611  21.005  12.134  14.316
 9071W        W75612  27.181  17.991   5.281
 9072W        W75613  25.785   4.319  14.307
 9073W        W75614  18.860  11.725   0.370
 9074W        W75615  37.481   8.677  14.753
 9075W        W75616   6.984  26.664   3.702
 9076W        W75617  13.322  38.736  12.831
 9077W        W75618  31.040   2.723  12.365
 9078W        W75619  15.107  22.690   2.601
 9079W        W75620  42.941  37.248   0.370
 9080W        W75621  20.210  40.924  12.969
 9081W        W75622   1.238  25.555   1.819
 9082W        W75623  23.495  41.499  11.509
 9083W        W75624  39.009   4.334  13.304
 9084W        W75625  26.471  21.063   1.777
 9085W        W75626   5.520  31.986  10.752
 9086W        W75627  23.002  37.632  11.426
 9087W        W75628  10.637  12.592   3.714
 9088W        W75629  44.569  28.421   0.993
 9089W        W75630  30.952   8.898   3.312
 9090W        W75631  15.874   2.413   4.794
 9091W        W75632  38.068  34.506  13.525
 9092W        W75633  20.987   9.174   3.151
 9093W        W75634   7.682  43.679   4.992
 9094W        W75635  36.276  16.138  11.923
 9095W        W75636  37.486  40.037  10.579
 9096W        W75637  14.586  14.834  11.003
 9097W        W75638  12.439  12.143  14.349
 9098W        W75639  37.081   1.313  11.191
 9099W        W75640   4.239   4.933  13.323
 9100W        W75641  33.745  40.069   0.426
 9101W        W75642  38.059  27.440   2.603
 9102W        W75643  18.795   0.858  11.515
 9103W        W75644  44.223  19.489   0.898
 9104W        W75645  34.529  10.456  13.729
 9105W        W75646   2.430  28.519  12.143
 9106W        W75647  34.312  14.285   2.359
 9107W        W75648  30.636  22.455   4.363
 9108W        W75649  18.909  26.910   1.377
 9109W        W75650  23.196   9.847   1.791
 9110W        W75651  35.927  16.269  11.217
 9111W        W75652  16.676   0.006  11.180
 9112W        W75653  22.484  29.051  12.852
 9113W        W75654  15.611  14.452   1.779
 9114W        W75655  36.317  23.955   2.661
 9115W        W75656  43.354  43.258   0.040
 9116W        W75657  23.814  27.042   2.212
 9117W        W75658  12.136   9.207  13.700
 9118W        W75659  29.605  41.803   1.191
 9119W        W75660  23.038  31.790  11.110
 9120W        W75661   3.189   5.219   3.519
 9121W        W75662  44.124  20.727   2.315
 9122W        W75663  13.852   2.615   2.144
 9123W        W75664   1.573  39.789  10.954
 9124W        W75665  40.069   0.360  14.749
 9125W        W75666  17.787  26.990  10.923
 9126W        W75667  41.566  27.105   3.321
 9127W        W75668  27.203  33.517  13.867
 9128W        W75669  41.663  27.705  12.064
 9129W        W75670  35.177  42.952   3.303
 9130W        W75671  19.707  19.266   4.067
 9131W        W75672  15.542   2.266  13.875
 9132W        W75673  43.784   5.384   3.210
 9133W        W75674  17.561  36.037   4.204
 9134W        W75675  14.785   0.962   0.970
 9135W        W75676  25.456  20.345  11.692
 9136W        W75677  43.661  23.637  12.807
 9137W        W75678  39.939  23.234   2.641
 9138W        W75679   8.737   9.275   0.843
 9139W        W75680   2.765  30.928   1.551
 9140W        W75681  14.240  15.329   4.090
 9141W        W75682  18.156  11.289  12.522
 9142W        W75683  34.456  31.204  10.715
 9143W        W75684  40.811  17.136   5.114
 9144W        W75685  43.326  35.504   4.402
 9145W        W75686  31.433   0.449   0.810
 9146W        W75687  16.595  36.485  13.621
 9147W        W75688  44.139  14.662   0.212
 9148W        W75689  18.569  29.174  11.103
 9149W        W75690  16.187  19.886   3.242
 9150W        W75691  10.168  15.570   4.595
 9151W        W75692  26.130  33.943  10.686
 9152W        W75693   8.370  28.941   0.890
 9153W        W75694  39.309  28.014   2.231
 9154W        W75695  18.718   0.463   1.215
 9155W        W75696  39.737  23.630  13.809
 9156W        W75697  42.722  44.995   0.827
 9157W        W75698  32.962  32.536  13.999
 9158W        W75699  21.599  35.922  12.314
 9159W        W75700   9.472  29.912   2.597
 9160W        W75701   4.987  37.400  13.345
 9161W        W75702   9.360  29.251  11.673
 9162W        W75703  27.931  26.631   4.125
 9163W        W75704  18.206  40.002  13.289
 9164W        W75705  31.569   1.255  14.013
 9165W        W75706  32.193  34.201   3.242
 9166W        W75707   0.867  28.986  14.274
 9167W        W75708  27.884  30.654  10.276
 9168W        W75709  11.129  23.220  12.729
 9169W        W75710  29.903  42.577  11.960
 9170W        W75711   7.345  38.376  11.623
 9171W        W75712  40.588  28.052   3.274
 9172W        W75713  20.617  39.487   4.658
 9173W        W75714  40.552  16.131  13.498
 9174W        W75715  26.234  27.721  11.915
 9175W        W75716  27.432  34.803   0.503
 9176W        W75717  16.359  44.352  13.615
 9177W        W75718  23.305   0.257   0.170
 9178W        W75719  21.338  17.832  14.854
 9179W        W75720  14.652  15.092  12.934
 9180W        W75721  20.269   2.385   1.772
 9181W        W75722  18.381  11.575  12.913
 9182W        W75723  23.494   0.949   1.969
 9183W        W75724  38.987  17.254  12.065
 9184W        W75725   6.111  24.834   1.768
 9185W        W75726  12.780  35.697  11.442
 9186W        W75727  34.090  26.641  13.003
 9187W        W75728   1.500  33.854   2.795
 9188W        W75729  13.847   1.746   0.684
 9189W        W75730  37.233  21.559   4.808
 9190W        W75731  36.535  16.768   3.663
 9191W        W75732  21.348  36.132  14.779
 9192W        W75733  10.962  44.262  11.024
 9193W        W75734   7.144  14.211  10.996
 9194W        W75735  40.628  11.811   4.450
 9195W        W75736  42.757  25.019  14.472
 9196W        W75737   1.681  24.173  12.198
 9197W        W75738   4.526   8.818  10.487
 9198W        W75739  18.174  14.598   0.532
 9199W        W75740   0.979  11.667  11.860
 9200W        W75741  16.795  13.624  11.497
 9201W        W75742  16.340   6.708   4.622
 9202W        W75743   1.814  17.282  10.648
 9203W        W75744   4.382  20.756  14.427
 9204W        W75745  14.630  34.025   1.364
 9205W        W75746   2.146   7.869  13.640
 9206W        W75747  28.956  24.290   1.828
 9207W        W75748  33.317  10.812   1.922
 9208W        W75749  25.368  25.687  14.501
 9209W        W75750  14.645  37.678  10.853
 9210W        W75751  22.638   3.387  10.984
 9211W        W75752  25.075  15.723   2.174
 9212W        W75753  43.380  37.496   3.796
 9213W        W75754  23.596  15.561  12.036
 9214W        W75755  35.296  39.005   4.773
 9215W        W75756  27.853   4.840  13.486
 9216W        W75757   4.784  25.017  11.081
 9217W        W75758  10.397  30.607  14.889
 9218W        W75759  19.144  32.166   3.671
 9219W        W75760  37.431   1.163  10.834
 9220W        W75761  44.299   2.233   0.702
 9221W        W75762   2.764  37.858  14.457
 9222W        W75763  12.079  31.167   1.126
 9223W        W75764   2.873  29.087  11.437
 9224W        W75765  10.358  27.028  13.353
 9225W        W75766  34.432  33.487   3.047
 9226W        W75767  43.298  31.772  10.678
 9227W        W75768  33.929  34.402   3.782
 9228W        W75769  25.476  27.539  10.737
 9229W        W75770  31.280   4.008   3.754
 9230W        W75771  14.462  27.964  14.523
 9231W        W75772  21.019  26.206  10.759
 9232W        W75773  10.080   6.007   0.910
 9233W        W75774   0.341  31.834   0.907
 9234W        W75775  24.632  10.775   1.239
 9235W        W75776  28.711  32.009   2.176
 9236W        W75777  21.056  32.875   1.500
 9237W        W75778   3.996  34.577   0.374
 9238W        W75779  19.868  10.177  12.013
 9239W        W75780  19.703  41.424  14.593
 9240W        W75781  16.315   3.377  11.686
 9241W        W75782  31.022  37.161  13.527
 9242W        W75783  17.109  22.566   0.064
 9243W        W75784  14.619  40.739   0.875
 9244W        W75785  17.927  13.709   2.904
 9245W        W75786  23.097   1.319  10.582
 9246W        W75787  15.281  39.913   4.290
 9247W        W75788  37.767  30.403   4.581
 9248W        W75789   1.267  26.681   1.221
 9249W        W75790  16.040   2.905   4.972
 9250W        W75791  19.628  12.752   1.362
 9251W        W75792  35.442  24.006   2.948
 9252W        W75793   5.441  18.643  12.145
 9253W        W75794  37.855   3.748   1.227
 9254W        W75795  14.794  23.061   4.729
 9255W        W75796  12.871  36.325   1.311
 9256W        W75797   1.546   4.647   0.902
 9257W        W75798   3.339  42.309   1.558
 9258W        W75799  42.303   5.381  10.511
 9259W        W75800  19.594  31.962   2.986
 9260W        W75801  17.726  13.291   1.188
 9261W        W75802  23.237   0.483  13.813
 9262W        W75803   6.860  12.840   2.792
 9263W        W75804  42.407   5.987   0.456
 9264W        W75805  29.002  31.120  12.528
 9265W        W75806  39.027  30.742   0.720
 9266W        W75807   2.641  28.959  12.972
 9267W        W75808  18.135  41.883  11.552
 9268W        W75809  37.996  19.415   1.208
 9269W        W75810  37.128   6.055  13.418
 9270W        W75811   4.285   8.832   0.830
 9271W        W75812   5.839  10.605   3.198
 9272W        W75813   3.786  33.861   1.611
 9273W        W75814  14.713  33.911  12.549
 9274W        W75815  26.334  40.317   3.278
 9275W        W75816  36.996  22.021   4.964
 9276W        W75817  37.309  12.809  14.566
 9277W        W75818  24.557  10.972  10.752
 9278W        W75819  44.560  22.583  12.095
 9279W        W75820  37.576  30.107  13.933
 9280W        W75821  39.692  29.653   1.476
 9281W        W75822  19.387  30.119   0.007
 9282W        W75823  23.598  13.935  10.790
 9283W        W75824  23.346  42.572  14.804
 9284W        W75825  24.439   8.820  11.173
 9285W        W75826  25.151   5.359   0.759
 9286W        W75827  35.742  15.799  11.160
 9287W        W75828  37.453   1.159   1.859
 9288W        W75829  12.228  10.938  10.685
 9289W        W75830  38.007  44.945   0.953
 9290W        W75831   0.955  41.440   3.672
 9291W        W75832  39.524  39.048   2.805
 9292W        W75833  31.422  40.687   2.890
 9293W        W75834  38.997  24.797   0.025
 9294W        W75835  31.073   6.721  11.644
 9295W        W75836  16.698  34.391  11.951
 9296W        W75837   7.968  29.095  12.531
 9297W        W75838  21.597  30.258  11.059
 9298W        W75839   9.729  11.172   2.218
 9299W        W75840  22.093  34.907   0.188
 9300W        W75841   4.439   8.278  10.727
 9301W        W75842   6.900  25.755   0.836
 9302W        W75843  11.657  24.325  10.610
 9303W        W75844  42.878  14.675   4.632
 9304W        W75845  23.068  11.381   1.798
 9305W        W75846  43.261  41.880   2.866
 9306W        W75847  27.589  34.813  13.797
 9307W        W75848   4.480   0.280  10.296
 9308W        W75849  39.489  23.137   4.979
 9309W        W75850   1.612  35.058  12.661
 9310W        W75851   7.758   8.488  13.844
 9311W        W75852  11.657  29.510   1.802
 9312W        W75853   9.949  29.387  12.305
 9313W        W75854  29.152  31.850   3.696
 9314W        W75855  28.623  24.011  12.698
 9315W        W75856   4.376  17.243   3.630
 9316W        W75857  40.518  44.333   4.230
 9317W        W75858   7.541  37.304   3.767
 9318W        W75859   4.445  15.276   2.124
 9319W        W75860   4.053  29.428   2.416
 9320W        W75861  41.923  22.875  14.215
 9321W        W75862  19.828  23.125  13.532
 9322W        W75863  38.761  14.363  11.898
 9323W        W75864  25.665  35.940   3.644
 9324W        W75865   9.754  39.409   1.004
 9325W        W75866  35.992   6.890  12.967
 9326W        W75867  24.262   9.808   3.262
 9327W        W75868  42.875   2.218   1.363
 9328W        W75869   7.955  42.856  11.521
 9329W        W75870  28.743  42.981  11.037
 9330W        W75871  37.983  43.345  14.786
 9331W        W75872  26.699  41.477   0.903
 9332W        W75873  19.760  34.588  12.019
 9333W        W75874  13.529  10.070   1.871
 9334W        W75875  18.032  12.798   0.692
 9335W        W75876   4.988  18.776   3.530
 9336W        W75877  12.859  36.081  11.100
 9337W        W75878  18.470  13.458  10.927
 9338W        W75879  21.098  26.907   4.152
 9339W        W75880  26.208  30.905  12.363
 9340W        W75881  12.547  27.476  11.296
 9341W        W75882  16.734  33.597   0.483
 9342W        W75883  10.167  36.878  12.386
 9343W        W75884  17.962  32.035   2.858
 9344W        W75885  38.959  30.628  10.274
 9345W        W75886   8.724  20.728  14.779
 9346W        W75887   6.856  16.164   2.881
 9347W        W75888  13.362  10.746   0.027
 9348W        W75889  39.602  27.594   4.067
 9349W        W75890  11.263  41.015  13.521
 9350W        W75891  29.577  30.671  14.296
 9351W        W75892   0.732  39.282   2.140
 9352W        W75893   4.806  34.276  11.487
 9353W        W75894  11.058   5.028   3.776
 9354W        W75895  26.650  18.937   0.405
 9355W        W75896   5.163   6.711  14.859
 9356W        W75897  30.581  15.825  11.418
 9357W        W75898  33.045  35.903  10.441
 9358W        W75899  14.196  25.057   4.208
 9359W        W75900  34.020  33.122   0.382
 9360W        W75901   2.678  25.017   3.668
 9361W        W75902  28.591  21.868   2.732
 9362W        W75903  14.355  13.247  10.687
 9363W        W75904   0.216  38.115  10.888
 9364W        W75905  20.200  42.326   2.594
 9365W        W75906  21.501  18.619  13.627
 9366W        W75907  11.206   8.722  12.547
 9367W        W75908  14.272  36.756  13.577
 9368W        W75909  39.528  34.606   1.844
 9369W        W75910  43.846  28.910   4.246
 9370W        W75911  32.555  14.781  11.243
 9371W        W75912  33.495  25.064   0.792
 9372W        W75913   4.289  41.307   1.362
 9373W        W75914  28.364  34.744   3.324
 9374W        W75915   8.426  20.755   0.460
 9375W        W75916  21.077   6.307   0.753
 9376W        W75917  44.569  24.349   0.227
 9377W        W75918  37.764  43.090  11.069
 9378W        W75919  10.062  39.464   0.606
 9379W        W75920   7.664  24.779   5.205
 9380W        W75921  23.550   3.784  14.797
 9381W        W75922  10.243   6.438   1.686
 9382W        W75923  15.802  34.147  14.479
 9383W        W75924  38.390  21.606  13.430
 9384W        W75925  17.831  13.366  14.847
 9385W        W75926  15.793   2.482   4.299
 9386W        W75927  22.524  38.843   0.489
 9387W        W75928  10.147  40.900  10.701
 9388W        W75929   5.961  11.045   1.911
 9389W        W75930  27.076  33.496  12.796
 9390W        W75931   9.491  41.340  13.866
 9391W        W75932  13.784  35.448  13.825
 9392W        W75933   0.408   4.714  13.045
 9393W        W75934  32.343   0.446  11.597
 9394W        W75935  29.567  24.981   0.794
 9395W        W75936   3.781  42.750   5.028
 9396W        W75937   5.470   2.842  13.509
 9397W        W75938  41.440  11.408  11.906
 9398W        W75939  24.706  14.151  10.776
 9399W        W75940  42.002   9.228   4.538
 9400W        W75941  37.457   6.445   5.047
 9401W        W75942   7.459  44.398   0.804
 9402W        W75943   6.168   2.632  11.014
 9403W        W75944  27.996  41.288  10.703
 9404W        W75945  22.974  43.445  10.777
 9405W        W75946   8.366  29.535   3.250
 9406W        W75947  21.663  38.485   2.253
 9407W        W75948  21.688  22.390   2.733
 9408W        W75949  44.321  43.258   4.401
 9409W        W75950  32.220   3.574  11.073
 9410W        W75951   2.239  17.990   3.712
 9411W        W75952  26.109   6.146   1.372
 9412W        W75953   3.256  40.929   2.411
 9413W        W75954  12.071  16.859   0.024
 9414W        W75955  29.377  26.572   4.206
 9415W        W75956   7.327  14.496  14.868
 9416W        W75957  31.923  31.399   1.232
 9417W        W75958  33.382  44.267  12.961
 9418W        W75959  27.098  29.003  14.316
 9419W        W75960  32.185  31.921  14.481
 9420W        W75961  19.592   1.441   2.644
 9421W        W75962   9.178  14.209   0.783
 9422W        W75963  10.686   9.380   0.958
 9423W        W75964   6.237  41.452   1.187
 9424W        W75965  37.135   9.831   2.317
 9425W        W75966  44.863  44.837  13.916
 9426W        W75967  40.561  40.463  13.486
 9427W        W75968   1.526  23.269   9.681
 9428W        W75969  26.656  12.738  11.363
 9429W        W75970   7.258   2.341   3.586
 9430W        W75971  41.910  13.140   1.288
 9431W        W75972  43.910  15.560   0.730
 9432W        W75973  11.389   1.887  14.373
 9433W        W75974  27.889  37.768  14.064
 9434W        W75975   2.382  22.030   0.244
 9435W        W75976  14.186   4.019  14.759
 9436W        W75977  25.625  39.781   4.719
 9437W        W75978  16.971  36.042  10.217
 9438W        W75979  26.798  13.840  12.388
 9439W        W75980  26.051  30.658  11.939
 9440W        W75981  30.909   0.284  13.341
 9441W        W75982  24.716   5.068  12.457
 9442W        W75983  18.046  16.198  12.055
 9443W        W75984  33.961  14.708   2.683
 9444W        W75985  40.069  25.461  11.519
 9445W        W75986  37.654  10.343   3.166
 9446W        W75987  40.425  15.608  12.534
 9447W        W75988   2.749   0.056  11.070
 9448W        W75989  25.162  16.117   0.219
 9449W        W75990  32.486  38.905  14.924
 9450W        W75991   9.798  43.592   2.712
 9451W        W75992  34.080  24.189   0.874
 9452W        W75993  37.071  34.014  11.147
 9453W        W75994  37.412  43.518  11.230
 9454W        W75995  25.469  26.251   1.798
 9455W        W75996   2.877  36.538  12.707
 9456W        W75997   8.142  20.344   2.324
 9457W        W75998   8.236  13.107  10.441
 9458W        W75999  35.194  30.897   1.097
 9459W        W76000  40.250  16.214  13.981
 9460W        W76001  15.615  34.694   0.743
 9461W        W76002  15.873  11.836   4.524
 9462W        W76003  10.040   6.688  11.713
 9463W        W76004  13.660  24.717   3.584
 9464W        W76005  15.095  21.089   1.854
 9465W        W76006  13.280  12.334   0.846
 9466W        W76007   8.299   1.473   4.177
 9467W        W76008   6.728  38.418   9.858
 9468W        W76009  34.043  16.714   4.646
 9469W        W76010  32.471  22.765  14.345
 9470W        W76011  10.583   6.249  13.365
 9471W        W76012  36.138  43.373   0.835
 9472W        W76013   8.279  35.968   9.892
 9473W        W76014  15.106  14.163   3.250
 9474W        W76015  10.434  29.899  13.576
 9475W        W76016   5.272  44.973   4.153
 9476W        W76017  39.931  26.578  13.632
 9477W        W76018  43.939  15.580  11.052
 9478W        W76019  12.671  38.472   4.590
 9479W        W76020  15.528   6.464   2.258
 9480W        W76021  39.574  41.799  14.479
 9481W        W76022  42.704   6.637  12.390
 9482W        W76023  24.536  43.360  12.636
 9483W        W76024  29.072  27.134  13.933
 9484W        W76025  41.950  11.142  12.916
 9485W        W76026  44.943   4.762   3.174
 9486W        W76027  20.558  14.602  14.481
 9487W        W76028  38.524   1.174  11.615
 9488W        W76029  22.460  19.506  10.345
 9489W        W76030  30.128  37.023   2.904
 9490W        W76031  38.856  15.361   4.428
 9491W        W76032  24.572  30.817  10.534
 9492W        W76033  34.949  20.197   0.723
 9493W        W76034  32.698  28.726  14.566
 9494W        W76035  20.290   8.896  12.934
 9495W        W76036  22.204  42.931   1.709
 9496W        W76037   1.736  10.700  10.721
 9497W        W76038  11.471  34.522   4.797
 9498W        W76039  43.851   9.730  11.183
 9499W        W76040  14.469  29.556   5.066
 9500W        W76041  21.623   5.856   1.767
 9501W        W76042  10.313   1.033  14.049
 9502W        W76043  23.751  14.779   3.687
 9503W        W76044  14.230  22.107  12.952
 9504W        W76045  22.011  31.073   4.426
 9505W        W76046  38.108  31.206   3.638
 9506W        W76047  26.666  43.544  13.597
 9507W        W76048  22.876  26.221   0.340
 9508W        W76049   8.734   3.664  13.067
 9509W        W76050  24.674  37.576   3.394
 9510W        W76051  44.362  17.682  13.989
 9511W        W76052  23.350  31.629   0.785
 9512W        W76053  33.421  26.680  14.438
 9513W        W76054   0.493   7.221  13.511
 9514W        W76055  22.693   9.138   0.922
 9515W        W76056   9.808  33.982  12.990
 9516W        W76057  42.902   1.996   1.857
 9517W        W76058  17.049   0.916  10.417
 9518W        W76059  13.364  24.580   0.821
 9519W        W76060  33.096  17.709   4.665
 9520W        W76061   8.161   7.714  13.068
 9521W        W76062  26.092  10.293   0.881
 9522W        W76063  13.873  42.283   1.244
 9523W        W76064   3.670   6.351   1.754
 9524W        W76065  39.311  11.057  13.868
 9525W        W76066  14.318  18.847   3.758
 9526W        W76067  23.513  29.451  11.499
 9527W        W76068  32.443  14.598  14.711
 9528W        W76069  34.031  32.147   3.324
 9529W        W76070  23.624  15.089  12.887
 9530W        W76071  38.360   1.533   1.000
 9531W        W76072   9.370   4.210   2.370
 9532W        W76073  40.941  40.011  11.144
 9533W        W76074   3.522  31.936   0.289
 9534W        W76075  30.689   2.345   4.088
 9535W        W76076  36.538  38.564   2.864
 9536W        W76077  39.316  15.992  11.601
 9537W        W76078  26.165   2.053  13.378
 9538W        W76079   3.322  29.428  13.299
 9539W        W76080  12.877  38.698   4.175
 9540W        W76081  40.649  30.566  12.988
 9541W        W76082  27.107  39.262  13.023
 9542W        W76083  42.040  44.917  11.941
 9543W        W76084  30.917   9.206  11.943
 9544W        W76085  28.894  41.509  11.649
 9545W        W76086  36.923  15.259  12.843
 9546W        W76087  11.824  18.798   4.617
 9547W        W76088  10.834  25.701  11.173
 9548W        W76089  21.062   4.688   5.459
 9549W        W76090  12.772  27.532   0.994
 9550W        W76091  15.244  32.096   5.415
 9551W        W76092   2.418   0.223   3.245
 9552W        W76093  28.110  26.055  12.438
 9553W        W76094  37.045  20.042   0.266
 9554W        W76095  14.588  16.320   0.968
 9555W        W76096  12.779   1.852  13.367
 9556W        W76097  15.029  15.872  12.942
 9557W        W76098   4.686  19.704   2.771
 9558W        W76099  19.833  22.419  13.472
 9559W        W76100  10.916  37.826  11.881
 9560W        W76101  36.498  32.878  11.978
 9561W        W76102   6.909  15.714   2.253
 9562W        W76103   5.691  27.028  14.159
 9563W        W76104  33.927  37.110  10.765
 9564W        W76105  27.436  22.520   2.289
 9565W        W76106  12.050  14.844  12.114
 9566W        W76107   6.110  25.850  11.956
 9567W        W76108  20.112  20.287   3.075
 9568W        W76109  27.206  29.310  13.408
 9569W        W76110   4.848  34.289  10.710
 9570W        W76111  27.690  23.822  14.370
 9571W        W76112  19.018  16.654   2.737
 9572W        W76113   2.166  38.827   4.272
 9573W        W76114  40.716  17.592  14.818
 9574W        W76115  33.733   1.838   2.161
 9575W        W76116  13.073   1.669   4.340
 9576W        W76117   4.205  32.703   2.218
 9577W        W76118   6.774   3.583   5.302
 9578W        W76119  11.138  25.129   1.428
 9579W        W76120  42.943  37.906  13.970
 9580W        W76121   6.170  28.001   4.106
 9581W        W76122  35.973  28.708   4.760
 9582W        W76123  40.936  43.208   2.668
 9583W        W76124  31.609  21.560   2.471
 9584W        W76125  14.078  26.672  14.322
 9585W        W76126   8.043   8.291  11.718
 9586W        W76127  19.285  15.166   1.278
 9587W        W76128  21.844  22.233  13.889
 9588W        W76129   9.945  20.777   3.197
 9589W        W76130  13.818  34.963  12.508
 9590W        W76131  38.555  21.591   0.298
 9591W        W76132  36.005  41.307   2.699
 9592W        W76133  40.903  34.852   2.116
 9593W        W76134  29.066  34.585  12.960
 9594W        W76135  10.578  36.048  11.911
 9595W        W76136  23.197  21.648   2.916
 9596W        W76137  36.639  24.972   3.653
 9597W        W76138   8.890   0.882   3.291
 9598W        W76139   6.468  41.452  13.379
 9599W        W76140  33.989  37.878  11.882
 9600W        W76141  17.301  37.251  14.586
 9601W        W76142  28.700  28.582  11.646
 9602W        W76143  22.630  15.128  13.102
 9603W        W76144  42.465   3.490  11.788
 9604W        W76145  10.061  11.161  14.938
 9605W        W76146  16.592  19.356   2.552
 9606W        W76147  42.366  10.880   2.742
 9607W        W76148  35.642  34.394   0.610
 9608W        W76149  20.837   4.708   0.306
 9609W        W76150  24.204   2.765  14.532
 9610W        W76151  20.829  44.734  13.453
 9611W        W76152   3.675  10.165   3.697
 9612W        W76153  43.454   2.113  13.120
 9613W        W76154  43.254  29.195  14.499
 9614W        W76155   1.797  21.509   3.148
 9615W        W76156  44.978  38.020  11.711
 9616W        W76157  24.409  27.758   5.031
 9617W        W76158  19.200  13.430  13.906
 9618W        W76159  38.745  39.369  11.767
 9619W        W76160  25.048  14.047   0.274
 9620W        W76161  31.228  44.907  13.962
 9621W        W76162  12.687   1.914   3.964
 9622W        W76163   2.879   2.834   2.178
 9623W        W76164  32.325  43.282  13.944
 9624W        W76165   6.184  27.926   4.993
 9625W        W76166  11.713  19.664   4.251
 9626W        W76167  35.957   7.879   3.875
 9627W        W76168  35.856  14.238   0.419
 9628W        W76169  33.221  28.156  12.571
 9629W        W76170  22.742  42.207  12.418
 9630W        W76171  33.399  33.990  11.681
 9631W        W76172  26.668  20.594  11.759
 9632W        W76173  33.677  34.948  12.071
 9633W        W76174  39.432  32.182  13.967
 9634W        W76175  40.963   4.773  14.870
 9635W        W76176  19.214  40.761  11.046
 9636W        W76177  43.338  36.693   3.509
 9637W        W76178  40.351  25.519   2.279
 9638W        W76179  36.817  38.432  12.832
 9639W        W76180  31.411  14.709  10.148
 9640W        W76181  44.880  25.495   1.377
 9641W        W76182   5.653  39.669  10.374
 9642W        W76183  41.888  25.589   2.229
 9643W        W76184   5.296   6.179  13.783
 9644W        W76185  27.520   0.692   2.799
 9645W        W76186  20.958  11.608  10.730
 9646W        W76187  24.060   7.603  12.047
 9647W        W76188  22.268  44.911   3.716
 9648W        W76189  27.155  14.215  13.519
 9649W        W76190  15.809  20.829  11.170
 9650W        W76191  24.403  33.899   0.922
 9651W        W76192   2.378  41.344  14.522
 9652W        W76193  24.069  16.197   1.334
 9653W        W76194   6.095  32.568  13.404
 9654W        W76195  43.302  20.933   3.250
 9655W        W76196  44.575  44.855   1.324
 9656W        W76197  30.150  23.530   3.241
 9657W        W76198  32.546  30.436   4.326
 9658W        W76199  33.487  11.466  11.239
 9659W        W76200   8.219  36.178   3.076
 9660W        W76201  15.220   0.547  14.862
 9661W        W76202  15.521  25.018   3.611
 9662W        W76203  35.180  20.596   1.882
 9663W        W76204   2.781  34.678   2.697
 9664W        W76205   7.744  28.231  10.724
 9665W        W76206  10.612  15.656   3.759
 9666W        W76207  23.564   6.985  12.098
 9667W        W76208   3.449  36.512   0.914
 9668W        W76209  29.030  30.550  12.545
 9669W        W76210  42.824  28.920  13.038
 9670W        W76211  11.661  12.120   3.056
 9671W        W76212  10.330  40.693  11.159
 9672W        W76213   8.459  30.689  14.226
 9673W        W76214  28.633  39.777   3.136
 9674W        W76215  44.652  20.068   5.079
 9675W        W76216  31.891  26.673   4.070
 9676W        W76217  18.214  33.668  14.418
 9677W        W76218   3.590  20.260   1.387
 9678W        W76219  22.222   0.292  11.089
 9679W        W76220  43.154  26.115  11.509
 9680W        W76221  32.847  23.300   2.699
 9681W        W76222  35.290  29.449   1.247
 9682W        W76223  16.631  26.518   0.026
 9683W        W76224  23.991  11.258   1.972
 9684W        W76225  25.155  18.681   3.908
 9685W        W76226   1.718  15.136   3.552
 9686W        W76227  33.367   1.062   3.142
 9687W        W76228  38.907   0.225   0.022
 9688W        W76229  16.290  18.710  14.735
 9689W        W76230   8.418  12.930   9.846
 9690W        W76231   3.406  40.845  13.364
 9691W        W76232  25.010  39.517   2.798
 9692W        W76233   4.731  29.704  13.650
 9693W        W76234  12.565   7.471  11.381
 9694W        W76235  21.068   4.607  10.679
 9695W        W76236  31.328  14.331   5.015
 9696W        W76237   1.215  28.234  11.143
 9697W        W76238  14.582  41.386  11.708
 9698W        W76239   2.557  42.432   0.912
 9699W        W76240  44.387  10.436  10.948
 9700W        W76241  35.143   5.296   4.350
 9701W        W76242   8.647  30.976   2.641
 9702W        W76243  13.162   4.267  13.772
 9703W        W76244  24.500  29.227  12.510
 9704W        W76245  39.844  29.957  11.478
 9705W        W76246   4.715  12.549  11.999
 9706W        W76247  22.663  20.255   1.684
 9707W        W76248   1.429   8.901   2.270
 9708W        W76249  36.166  10.509  13.286
 9709W        W76250  19.303  37.069  13.043
 9710W        W76251  15.649  36.646   0.261
 9711W        W76252  32.346   9.871   2.689
 9712W        W76253   5.821  30.350  14.417
 9713W        W76254  41.994  32.371  11.191
 9714W        W76255  43.014  16.223   1.310
 9715W        W76256  28.086  25.131  14.983
 9716W        W76257   5.838  23.584  11.555
 9717W        W76258  44.452  31.243   0.917
 9718W        W76259  43.266  20.698  12.066
 9719W        W76260   6.451  24.105   3.264
 9720W        W76261   6.935  22.704  11.640
 9721W        W76262   5.937  33.840  12.796
 9722W        W76263  35.242  30.627  10.311
 9723W        W76264  15.744  37.428  11.524
 9724W        W76265   8.323  44.303  11.506
 9725W        W76266   8.738   3.559  11.622
 9726W        W76267  27.693  11.941   0.283
 9727W        W76268  37.947  17.311  13.312
 9728W        W76269  38.459  34.008   2.726
 9729W        W76270  24.971  44.799   2.857
 9730W        W76271   2.768  40.057  13.551
 9731W        W76272  40.270  36.379   5.082
 9732W        W76273  22.078  34.506   4.242
 9733W        W76274  22.529  44.904  14.262
 9734W        W76275  28.957  15.043  12.601
 9735W        W76276  33.600   7.779   2.686
 9736W        W76277  34.870   9.208   4.116
 9737W        W76278  23.131  25.201   4.616
 9738W        W76279   8.693  22.098   4.285
 9739W        W76280  19.392  39.867   2.431
 9740W        W76281   0.709  32.879  13.569
 9741W        W76282   0.459   5.795   4.474
 9742W        W76283   0.792  11.469   2.015
 9743W        W76284  29.218  43.799  12.646
 9744W        W76285   9.712  15.678   2.651
 9745W        W76286  30.926  10.415  11.136
 9746W        W76287   7.725  43.774   1.296
 9747W        W76288  28.431  42.647  11.838
 9748W        W76289  38.764  23.464  11.602
 9749W        W76290  34.308  20.091   1.449
 9750W        W76291  22.228  23.718  14.785
 9751W        W76292   3.484  15.189   1.787
 9752W        W76293  20.546  22.637  12.791
 9753W        W76294  33.063  14.865   3.579
 9754W        W76295  44.430  28.030   2.423
 9755W        W76296  39.911  19.323  14.395
 9756W        W76297  26.675  40.538   3.605
 9757W        W76298   4.506  31.033   4.924
 9758W        W76299  25.645  24.174  12.952
 9759W        W76300   4.525  18.730   3.817
 9760W        W76301  21.868   9.292   5.667
 9761W        W76302   9.392  17.624  11.073
 9762W        W76303  24.725  33.547  11.316
 9763W        W76304  20.494  10.301   0.944
 9764W        W76305  36.438   2.174   2.270
 9765W        W76306  10.511  38.580  11.614
 9766W        W76307   3.546  26.801  14.345
 9767W        W76308  34.891  18.241  10.269
 9768W        W76309  28.234  27.113  13.551
 9769W        W76310  29.883  43.431  14.504
 9770W        W76311   2.761   9.993   2.758
 9771W        W76312  43.003  31.420  13.500
 9772W        W76313   7.963  26.009   4.133
 9773W        W76314  40.292  34.142   1.638
 9774W        W76315  17.248  44.787   2.212
 9775W        W76316  31.091  17.782   4.110
 9776W        W76317  33.626  30.359  12.894
 9777W        W76318  12.635  21.041   0.398
 9778W        W76319  22.442  26.647  12.971
 9779W        W76320  29.499  25.009   1.820
 9780W        W76321  25.664  10.737  12.105
 9781W        W76322  17.298   1.484   4.995
 9782W        W76323  25.690   1.732   2.525
 9783W        W76324  30.966  30.398  11.152
 9784W        W76325  43.977  14.411   4.041
 9785W        W76326  12.448  15.185   2.453
 9786W        W76327  31.132  18.077   0.391
 9787W        W76328  24.794  36.353  12.646
 9788W        W76329   0.250   2.218  11.457
 9789W        W76330  10.311  11.803  13.036
 9790W        W76331  26.615  44.479   3.657
 9791W        W76332  35.628  33.512   2.834
 9792W        W76333  33.633  37.112  12.631
 9793W        W76334  27.489  24.179  11.158
 9794W        W76335  17.007  25.635   4.733
 9795W        W76336  17.037  41.840   0.852
 9796W        W76337  10.705  28.962   1.198
 9797W        W76338  36.416   6.336   2.443
 9798W        W76339  13.765  27.912  10.670
 9799W        W76340  19.345  44.549  14.590
 9800W        W76341  26.319   9.132   0.333
 9801W        W76342  41.928  16.233   3.391
 9802W        W76343   1.338  23.397   1.355
 9803W        W76344   5.154  10.179  10.213
 9804W        W76345   5.297  33.948  12.550
 9805W        W76346  43.726  42.259  11.121
 9806W        W76347  24.639  21.410   1.715
 9807W        W76348  23.309  36.939   3.540
 9808W        W76349  37.138   5.619   2.425
 9809W        W76350  19.082   0.374   4.601
 9810W        W76351  16.039  24.840   1.317
 9811W        W76352  31.401  38.420   4.897
 9812W        W76353  19.553  28.340   1.665
 9813W        W76354  42.053  24.564  12.032
 9814W        W76355  31.431  16.813   2.253
 9815W        W76356  12.609  31.441  13.430
 9816W        W76357  44.057  16.847   3.766
 9817W        W76358  35.955  12.843  14.271
 9818W        W76359  33.531  31.363  13.065
 9819W        W76360  37.773  16.292   3.596
 9820W        W76361  25.615  24.155  13.957
 9821W        W76362  43.918  24.950   1.921
 9822W        W76363   3.498  27.512   3.065
 9823W        W76364   5.716  25.477  12.213
 9824W        W76365  21.461  31.872   4.238
 9825W        W76366  14.288  25.683   1.424
 9826W        W76367  15.796   1.967   1.327
 9827W        W76368  43.879  38.414  14.683
 9828W        W76369   6.212  38.121   1.727
 9829W        W76370  22.241   5.468   1.859
 9830W        W76371  27.941  36.911   3.825
 9831W        W76372   6.699  42.925   1.318
 9832W        W76373  40.409   4.719  10.191
 9833W        W76374   4.233  21.792   0.316
 9834W        W76375  42.021  14.342   3.808
 9835W        W76376  11.163   2.724   2.579
 9836W        W76377  44.450   4.448  13.250
 9837W        W76378  41.591   0.808  13.055
 9838W        W76379   9.139  23.101   0.839
 9839W        W76380  23.585  13.798   3.741
 9840W        W76381  40.106  24.601   3.164
 9841W        W76382  22.972  41.801  14.483
 9842W        W76383  22.160   2.227   4.292
 9843W        W76384  21.405  33.717   1.840
 9844W        W76385   1.385  33.884  13.792
 9845W        W76386  42.532  25.254   1.692
 9846W        W76387  28.776  10.389   9.993
 9847W        W76388  33.061  36.891  10.738
 9848W        W76389  11.718   3.723  11.665
 9849W        W76390  36.306  19.503  10.258
 9850W        W76391  25.531   1.568  12.838
 9851W        W76392   0.340   1.117   0.046
 9852W        W76393  40.529   7.004   3.198
 9853W        W76394   3.876  35.963   0.532
 9854W        W76395  30.869  20.227   2.223
 9855W        W76396  43.231   1.616   2.618
 9856W        W76397  30.931  35.337   0.926
 9857W        W76398  34.782  20.562  14.946
 9858W        W76399   7.265   3.902  11.635
 9859W        W76400  36.469  43.769  12.719
 9860W        W76401  39.386  17.106  14.284
 9861W        W76402  33.668  26.656   1.259
 9862W        W76403  38.743  25.975  14.437
 9863W        W76404  37.195   9.589  13.801
 9864W        W76405  37.354  27.666   2.189
 9865W        W76406  21.470  20.749   2.400
 9866W        W76407  24.436  18.535  14.699
 9867W        W76408   8.376   4.321  12.109
 9868W        W76409  38.040  28.489   4.620
 9869W        W76410  19.435  33.129  14.841
 9870W        W76411   1.429  27.651   3.261
 9871W        W76412   0.033  34.095   2.844
 9872W        W76413  15.580  42.053  11.971
 9873W        W76414  38.472  31.628   3.590
 9874W        W76415  35.741   5.770  11.483
 9875W        W76416   5.160   7.272  13.388
 9876W        W76417   4.447  29.684   3.292
 9877W        W76418   5.523   9.374   0.267
 9878W        W76419  30.455   0.601   1.508
 9879W        W76420  35.612  27.209   2.824
 9880W        W76421  33.430  39.986  12.099
 9881W        W76422  27.952  40.701   2.595
 9882W        W76423  30.110  12.617  13.774
 9883W        W76424  23.372   0.797   3.043
 9884W        W76425  34.532  43.605  10.959
 9885W        W76426  11.695  33.444  14.024
 9886W        W76427   5.251  32.186   4.827
 9887W        W76428  20.993  27.057   0.875
 9888W        W76429   7.178   1.914   4.882
 9889W        W76430  12.062  25.799  10.691
 9890W        W76431   5.321  39.865  11.185
 9891W        W76432  37.756  23.971  12.975
 9892W        W76433  27.233  25.593   4.124
 9893W        W76434  19.880  14.498   1.161
 9894W        W76435  17.543  20.984  14.452
 9895W        W76436  12.800  35.480   2.860
 9896W        W76437  43.405   1.274  13.948
 9897W        W76438  32.010  26.100  14.570
 9898W        W76439  14.295   7.585   1.370
 9899W        W76440  38.325   5.174  11.620
 9900W        W76441   6.240   6.762   1.469
 9901W        W76442  44.028  23.276   0.736
 9902W        W76443  24.143   1.739   0.425
 9903W        W76444   4.418  30.011   3.677
 9904W        W76445   6.224   5.352   0.154
 9905W        W76446  10.365  31.991  13.510
 9906W        W76447  12.252   5.677   2.971
 9907W        W76448  16.260  12.268   2.736
 9908W        W76449  44.761  42.414   2.366
 9909W        W76450  13.752   9.117   1.984
 9910W        W76451  39.293  44.335   0.406
 9911W        W76452  26.224  24.678   2.281
 9912W        W76453  22.344   9.525   0.941
 9913W        W76454   3.016  32.531  11.567
 9914W        W76455  17.389  12.090   1.997
 9915W        W76456   1.802  24.757   9.973
 9916W        W76457  13.364  29.039   0.505
 9917W        W76458  16.068  25.705   1.603
 9918W        W76459  40.587  14.754  11.374
 9919W        W76460   9.690  36.794  12.994
 9920W        W76461  38.014  19.598   1.680
 9921W        W76462  35.249  28.141  11.950
 9922W        W76463  32.139  41.984  11.216
 9923W        W76464  11.890  17.230  14.696
 9924W        W76465  17.528  27.448  14.932
 9925W        W76466   0.538   7.743  14.657
 9926W        W76467  27.700  13.253  11.178
 9927W        W76468  20.289   4.288  10.961
 9928W        W76469  36.881  37.749   2.769
 9929W        W76470  23.120   2.343   3.278
 9930W        W76471  18.965  14.729   4.066
 9931W        W76472  20.208   4.211  12.356
 9932W        W76473  30.042  14.705  12.479
 9933W        W76474  33.866  15.712  11.370
 9934W        W76475  33.520  11.733   1.247
 9935W        W76476  24.224  33.042  14.285
 9936W        W76477  24.185  15.838   3.328
 9937W        W76478  39.624  25.919  13.463
 9938W        W76479  17.586  13.441   4.850
 9939W        W76480  43.749  21.684   1.271
 9940W        W76481  16.323  33.107   1.245
 9941W        W76482  35.046  40.756  11.675
 9942W        W76483  19.519  13.193  14.413
 9943W        W76484  14.131  29.149  12.448
 9944W        W76485  13.710  24.519   1.357
 9945W        W76486  29.497   4.005  11.495
 9946W        W76487  30.589  20.660   4.783
 9947W        W76488  22.494  43.573  14.418
 9948W        W76489  35.149  40.899  12.725
 9949W        W76490   6.337  16.140   3.803
 9950W        W76491   9.183  44.870   1.429
 9951W        W76492  13.581  37.738  14.540
 9952W        W76493   6.568  27.182  12.095
 9953W        W76494  19.692  33.522  13.941
 9954W        W76495  27.647  32.145  13.418
 9955W        W76496  13.113  36.443  14.361
 9956W        W76497   8.331   6.447   3.270
 9957W        W76498  43.546   4.436   0.835
 9958W        W76499   8.268  27.507  12.600
 9959W        W76500  37.821  15.154  12.803
 9960W        W76501  12.810  11.964  12.531
 9961W        W76502  21.498  19.672  10.785
 9962W        W76503   3.397  20.173   0.446
 9963W        W76504  38.248  18.680   0.844
 9964W        W76505   4.015   8.468  11.690
 9965W        W76506  41.386  38.490   3.021
 9966W        W76507   8.813  32.369   3.704
 9967W        W76508   6.464  17.229   0.332
 9968W        W76509  16.094  17.347   2.865
 9969W        W76510   9.195   9.441   0.050
 9970W        W76511  28.658   9.590  14.031
 9971W        W76512   4.763  11.105   1.363
 9972W        W76513  37.013   5.642   3.896
 9973W        W76514  32.023  41.551   0.151
 9974W        W76515  14.113   2.241   2.874
 9975W        W76516  38.511  30.077  14.050
 9976W        W76517  25.272  25.550  13.526
 9977W        W76518  40.048  30.869   2.147
 9978W        W76519  27.037  28.653   2.620
 9979W        W76520   7.863  33.946  13.868
 9980W        W76521  20.294  35.170  13.868
 9981W        W76522  26.593  29.213   1.383
 9982W        W76523   6.484   6.969   3.320
 9983W        W76524  26.131  28.814   2.225
 9984W        W76525   1.917  27.868  12.035
 9985W        W76526  22.942  34.337   4.869
 9986W        W76527  36.524  15.796   0.506
 9987W        W76528   0.982   7.634  13.904
 9988W        W76529  14.207  34.567   4.112
 9989W        W76530  23.670  26.932  13.883
 9990W        W76531   0.716  42.869  12.346
 9991W        W76532   8.823  42.764   3.307
 9992W        W76533   5.449  42.446  13.293
 9993W        W76534  23.097  12.393  11.881
 9994W        W76535  10.283  15.535   1.810
 9995W        W76536  11.896  23.177  12.318
 9996W        W76537  31.965  27.801   4.340
 9997W        W76538  32.029  22.780  13.562
 9998W        W76539   5.651  33.559  10.400
 9999W        W76540  14.052  32.394   0.430
10000W        W76541  13.308  34.928  12.526
10001W        W76542  25.276  25.029   4.521
10002W        W76543  42.789  30.781   3.097
10003W        W76544   3.375  19.548  14.066
10004W        W76545   3.876  11.945  13.502
10005W        W76546  43.596  29.514  14.259
10006W        W76547  24.012   3.892   2.326
10007W        W76548  35.457  23.497  12.395
10008W        W76549  30.234  23.849  11.227
10009W        W76550  36.664   1.946   0.986
10010W        W76551  38.332   2.295   1.813
10011W        W76552  38.101  23.067  12.650
10012W        W76553   8.937  27.929   2.771
10013W        W76554  37.243  34.519  10.541
10014W        W76555  41.013  39.914   4.716
10015W        W76556   3.435  28.150  14.984
10016W        W76557  10.638  14.673  14.260
10017W        W76558  27.043  42.755  12.096
10018W        W76559  10.887   3.349  11.746
10019W        W76560  35.925  11.557  13.054
10020W        W76561  10.599  20.726   1.866
10021W        W76562   3.431  18.072   0.348
10022W        W76563  17.716  36.466   0.561
10023W        W76564  33.572  32.165   0.038
10024W        W76565  22.647   8.098  10.700
10025W        W76566  38.807  31.615   0.325
10026W        W76567  40.230  39.788  12.523
10027W        W76568  12.191   4.873  13.116
10028W        W76569  39.516  31.309   1.344
10029W        W76570   5.430   3.407  14.447
10030W        W76571  38.966  34.515  12.594
10031W        W76572  25.847   9.077   5.062
10032W        W76573  16.003  33.810   1.984
10033W        W76574  33.800  19.447   3.107
10034W        W76575   0.858  19.608  14.938
10035W        W76576  18.876   6.433  13.768
10036W        W76577  37.349  15.202  12.068
10037W        W76578  14.549   8.252   3.231
10038W        W76579  43.766   0.496  11.668
10039W        W76580  30.812   9.721  13.522
10040W        W76581  11.089  13.474  10.928
10041W        W76582  23.989  27.650   1.886
10042W        W76583   1.318  38.771   3.845
10043W        W76584  31.092  33.701  12.432
10044W        W76585  38.812  10.878   1.361
10045W        W76586  10.829  24.569   1.788
10046W        W76587  28.532  17.377  10.874
10047W        W76588  36.046  20.350  11.907
10048W        W76589  40.506  30.648   2.275
10049W        W76590  25.042  44.516  14.723
10050W        W76591  25.103  10.088  10.768
10051W        W76592  30.376  23.735   4.250
10052W        W76593  10.192  18.307   2.244
10053W        W76594  26.893  17.272  12.151
10054W        W76595  10.036  42.311  11.894
10055W        W76596  24.084  41.834   2.611
10056W        W76597  44.026  13.147   2.149
10057W        W76598  33.649  41.912  13.274
10058W        W76599  26.676  22.251  14.242
10059W        W76600  33.182   2.432  14.060
10060W        W76601  37.498  27.002   0.034
10061W        W76602   6.797  32.662  14.920
10062W        W76603  21.539  32.157  14.521
10063W        W76604  37.556  25.275   3.018
10064W        W76605  38.824  43.361  11.967
10065W        W76606   9.186  26.061   4.054
10066W        W76607  33.168   2.468   3.121
10067W        W76608  32.886   1.018   4.883
10068W        W76609  43.021  36.744   0.426
10069W        W76610  19.734  16.176   3.732
10070W        W76611  17.306  44.453   4.609
10071W        W76612  17.610  21.266  14.002
10072W        W76613   3.697  17.880   2.677
10073W        W76614  28.047  10.415  11.080
10074W        W76615  38.783  24.879   4.228
10075W        W76616  17.238  40.863   3.292
10076W        W76617   8.865  16.638   3.717
10077W        W76618  11.745  41.704   2.250
10078W        W76619  21.568  25.373   0.502
10079W        W76620  23.063  44.519   4.667
10080W        W76621  36.806  40.608  14.869
10081W        W76622  26.226  12.691  11.057
10082W        W76623  43.831  38.176  11.970
10083W        W76624  16.670  14.160  14.762
10084W        W76625  27.925  16.629  12.853
10085W        W76626   6.696  25.118   3.675
10086W        W76627  16.205   7.102  14.894
10087W        W76628  36.051  26.261  12.158
10088W        W76629  21.213  26.416  14.269
10089W        W76630  23.805   2.772  10.732
10090W        W76631  27.491   8.384  13.478
10091W        W76632  27.983  29.641   9.960
10092W        W76633  43.860  12.140  12.450
10093W        W76634  30.469  32.025  13.997
10094W        W76635  12.085  22.250   0.165
10095W        W76636  26.157  20.556   1.375
10096W        W76637  14.168  44.769   2.822
10097W        W76638   7.874  44.839   2.401
10098W        W76639  32.584  11.371   1.926
10099W        W76640   6.869   5.847  14.686
10100W        W76641  32.240   1.738  11.407
10101W        W76642   0.172  25.425   3.440
10102W        W76643  40.062  28.567   3.206
10103W        W76644  10.327   8.857  11.114
10104W        W76645  15.853   5.286  11.686
10105W        W76646  18.457   4.966   4.595
10106W        W76647   9.678  15.144  11.402
10107W        W76648   9.243   5.819  12.402
10108W        W76649  13.547   2.220  14.835
10109W        W76650  10.571  35.337  13.535
10110W        W76651  28.514  21.084   2.289
10111W        W76652  39.955  34.580  10.341
10112W        W76653  11.634  22.727   1.837
10113W        W76654  32.368  14.225   3.325
10114W        W76655   6.667   9.298  11.192
10115W        W76656  18.351  29.539  10.772
10116W        W76657   0.731  31.825   0.062
10117W        W76658  21.534  14.285   2.774
10118W        W76659  19.662  40.544   1.958
10119W        W76660  36.606  27.665  11.234
10120W        W76661   9.842   5.152   4.128
10121W        W76662   7.515   1.550  14.089
10122W        W76663  36.505   5.436  11.108
10123W        W76664  37.449  25.439   3.565
10124W        W76665  19.980  11.964   2.793
10125W        W76666  29.817  29.772   2.564
10126W        W76667  39.334  28.986   0.266
10127W        W76668  24.657  25.165  14.920
10128W        W76669   8.904  10.614  13.909
10129W        W76670  29.447  20.795   2.368
10130W        W76671   7.057  42.451  11.548
10131W        W76672  42.316  19.034   2.289
10132W        W76673  11.910   9.363   4.857
10133W        W76674  42.654  25.152  11.018
10134W        W76675  16.563  27.634  12.631
10135W        W76676  11.117  24.951   0.932
10136W        W76677   1.535  22.484   5.125
10137W        W76678  28.280  34.320  14.954
10138W        W76679  26.915  26.023   4.096
10139W        W76680  19.565  10.628  12.890
10140W        W76681   1.887  36.414  12.176
10141W        W76682  40.749   9.592   2.851
10142W        W76683  27.307  12.285   9.752
10143W        W76684   0.187  11.993   2.210
10144W        W76685  42.548  34.587  14.345
10145W        W76686   1.630  40.265  11.126
10146W        W76687  23.767   4.892   2.638
10147W        W76688   1.002  14.907  13.569
10148W        W76689   9.621  22.107   4.473
10149W        W76690  38.938   2.982   2.734
10150W        W76691  31.912  30.899   5.182
10151W        W76692   5.599  10.776  11.580
10152W        W76693   8.240  43.129  13.447
10153W        W76694  43.912  13.605   1.902
10154W        W76695  28.308  24.047  11.520
10155W        W76696  18.131  32.793  14.950
10156W        W76697   3.765  40.943  13.697
10157W        W76698  34.627  29.217  12.514
10158W        W76699  36.029  23.448  12.162
10159W        W76700  38.687  32.883  12.257
10160W        W76701  22.713  22.915   3.788
10161W        W76702  21.455  41.525   1.631
10162W        W76703  10.688  30.728   3.162
10163W        W76704  22.102  38.274   2.436
10164W        W76705  35.030  11.235   3.366
10165W        W76706  35.820  12.591  11.497
10166W        W76707  30.869   7.021  14.829
10167W        W76708  43.018  37.861   3.759
10168W        W76709  34.937  11.240   1.197
10169W        W76710  14.463   9.155  14.371
10170W        W76711  27.538   5.776  11.534
10171W        W76712   7.823   6.972  12.077
10172W        W76713  18.126  44.972  12.035
10173W        W76714  26.211  32.605   4.743
10174W        W76715   7.759   4.836   9.672
10175W        W76716  32.391   6.807  12.409
10176W        W76717  44.561  37.942   2.793
10177W        W76718  16.574  10.118   1.667
10178W        W76719  34.333  21.586  13.015
10179W        W76720  30.953   9.346  10.961
10180W        W76721  22.139  43.025   0.314
10181W        W76722  44.965  22.210   0.767
10182W        W76723  39.333  23.627  10.663
10183W        W76724  27.090  25.092   3.480
10184W        W76725   1.000  28.099   1.134
10185W        W76726  12.827  22.003   4.360
10186W        W76727  32.712  32.099   0.594
10187W        W76728  44.239   3.728   2.101
10188W        W76729   2.325  15.561  12.990
10189W        W76730  10.917   9.711   0.474
10190W        W76731  19.669  37.599  12.906
10191W        W76732  41.076  33.759  12.057
10192W        W76733   7.208  34.513   0.316
10193W        W76734  35.950  33.152  14.112
10194W        W76735  30.206  37.380   4.468
10195W        W76736   2.387  27.700   4.527
10196W        W76737  44.444  13.634   0.252
10197W        W76738  25.038  43.499   0.336
10198W        W76739  17.750   6.909   1.190
10199W        W76740  23.001  24.252  14.268
10200W        W76741  43.684  13.083   3.112
10201W        W76742   0.159  27.442  12.485
10202W        W76743   9.228  24.083  11.589
10203W        W76744  42.298  10.188   3.805
10204W        W76745   5.259   7.169  14.365
10205W        W76746  12.542  41.737  11.104
10206W        W76747  34.368  34.967   1.892
10207W        W76748   7.319  17.976   3.225
10208W        W76749  13.341  28.633  10.663
10209W        W76750   7.696  36.414   3.758
10210W        W76751  36.937  28.836   0.813
10211W        W76752  23.447   6.630  14.315
10212W        W76753  44.416   3.259   3.900
10213W        W76754   9.168  26.577   4.184
10214W        W76755  32.718  12.825  14.907
10215W        W76756   1.363   5.125  11.311
10216W        W76757  39.311   2.241   4.589
10217W        W76758  33.579  12.425  10.769
10218W        W76759  34.197  34.136   3.424
10219W        W76760  16.692  34.964  13.775
10220W        W76761  43.284  31.015  13.329
10221W        W76762  25.706  23.596   2.907
10222W        W76763   2.459  30.644   3.221
10223W        W76764  21.365  18.606   2.443
10224W        W76765   1.749  13.777  14.474
10225W        W76766  24.701  15.355   2.008
10226W        W76767  18.445  21.124  12.239
10227W        W76768  36.493  35.341  13.522
10228W        W76769  11.819  34.000   0.304
10229W        W76770  38.442  31.444   0.644
10230W        W76771  25.090   8.168  14.433
10231W        W76772  31.997  41.504   1.689
10232W        W76773  10.788  21.463  11.035
10233W        W76774  37.960  40.856  11.586
10234W        W76775   0.504  13.447  11.697
10235W        W76776  31.447  35.905  13.904
10236W        W76777  13.333  30.809  13.569
10237W        W76778  14.286   7.901   4.154
10238W        W76779  18.388  29.418  14.320
10239W        W76780  35.609  28.628   0.894
10240W        W76781  19.543  35.529  14.311
10241W        W76782  38.587  22.505  14.496
10242W        W76783  18.318  31.300  13.442
10243W        W76784  24.091  29.469   3.559
10244W        W76785  16.399  26.151  12.488
10245W        W76786  10.583  18.157  11.268
10246W        W76787   1.885  34.782  12.990
10247W        W76788   8.595  39.494   0.308
10248W        W76789  32.001  14.303  14.328
10249W        W76790  34.154  20.850  12.360
10250W        W76791  22.893   2.282   0.086
10251W        W76792  41.315  31.423   0.905
10252W        W76793  28.228  27.519  12.915
10253W        W76794   5.235  13.634  13.304
10254W        W76795  32.868  30.168   3.652
10255W        W76796  43.796   3.732  13.356
10256W        W76797  22.242  26.956  14.303
10257W        W76798  36.391  19.159  13.993
10258W        W76799  14.730  37.832  11.588
10259W        W76800  15.751  16.767  12.452
10260W        W76801   1.461   2.461   1.478
10261W        W76802  14.071   1.797  12.047
10262W        W76803  32.546  35.434   4.676
10263W        W76804  39.767  34.153   4.385
10264W        W76805  38.948  30.267  12.139
10265W        W76806   7.768  17.579   0.715
10266W        W76807  38.636   3.917  13.907
10267W        W76808  37.377  19.916  13.026
10268W        W76809  23.292  12.062  14.074
10269W        W76810  13.165  40.895  13.902
10270W        W76811  34.039  28.002   0.450
10271W        W76812  15.326  13.281   4.882
10272W        W76813   7.061  27.639   0.331
10273W        W76814   6.325  25.433   3.880
10274W        W76815   9.636   1.901  12.359
10275W        W76816  41.992   2.735   1.360
10276W        W76817  30.555   5.797   3.633
10277W        W76818  27.117  10.847   0.700
10278W        W76819  19.039  29.318  11.411
10279W        W76820  31.121  16.219  12.923
10280W        W76821  28.150  32.008  12.386
10281W        W76822  29.335  20.020   1.928
10282W        W76823   9.282  44.749  10.537
10283W        W76824  28.544  27.680  14.258
10284W        W76825  25.480  19.076   1.669
10285W        W76826  13.081  44.471  12.947
10286W        W76827  35.027  32.511   1.683
10287W        W76828  16.296  22.638  14.609
10288W        W76829  41.467   5.262  14.660
10289W        W76830  15.848  38.682  12.061
10290W        W76831  44.425  39.397  11.831
10291W        W76832  33.757  21.108  13.505
10292W        W76833  10.659  12.636  14.278
10293W        W76834  13.570   3.265   2.838
10294W        W76835   1.188   5.413   3.273
10295W        W76836  26.913  25.960  11.586
10296W        W76837  39.273  17.190  12.497
10297W        W76838  17.480  14.881  13.552
10298W        W76839  39.491  11.912  14.666
10299W        W76840   1.657   5.123  14.613
10300W        W76841  37.796   3.308  13.107
10301W        W76842  12.185  12.480   4.545
10302W        W76843  17.985   4.966   0.305
10303W        W76844  29.422  27.950  14.371
10304W        W76845  33.458  12.393   1.700
10305W        W76846  24.714  17.367  12.747
10306W        W76847  10.525  40.053  12.965
10307W        W76848  35.037  30.488   2.157
10308W        W76849  34.879   8.668   4.099
10309W        W76850   3.961  25.029   0.666
10310W        W76851   6.628  27.016  10.981
10311W        W76852  24.613  17.566  14.948
10312W        W76853  28.686  41.157  11.983
10313W        W76854  12.180  10.691   2.667
10314W        W76855   6.437   6.590   4.167
10315W        W76856   1.766  38.051   3.760
10316W        W76857  10.641  12.680   4.593
10317W        W76858  24.971  37.916   4.617
10318W        W76859  22.308  11.302  10.426
10319W        W76860  20.739   5.838   2.219
10320W        W76861  44.931  41.620   1.283
10321W        W76862  21.146  32.005   0.452
10322W        W76863  30.389  21.446  13.571
10323W        W76864  25.233   0.366  13.080
10324W        W76865   4.964   0.561  11.540
10325W        W76866  37.151  10.297   3.144
10326W        W76867  36.387  44.204  13.321
10327W        W76868  37.917  31.123   2.378
10328W        W76869   2.715   8.416  11.144
10329W        W76870   8.215  32.829   1.845
10330W        W76871   5.835  30.899   3.260
10331W        W76872  41.869   2.528   0.844
10332W        W76873  42.457  24.786   4.200
10333W        W76874  12.103  27.989   0.955
10334W        W76875  42.897  20.044   1.855
10335W        W76876  42.884  24.193   2.103
10336W        W76877   8.493   9.611  13.306
10337W        W76878  22.218  18.855   0.224
10338W        W76879  36.125  17.698  13.454
10339W        W76880  42.395  14.438   1.398
10340W        W76881  36.896  18.161   1.179
10341W        W76882  19.162  36.250  13.886
10342W        W76883  16.501  42.621   4.615
10343W        W76884  31.276  34.328   3.264
10344W        W76885   6.886  27.083   1.965
10345W        W76886   7.130  31.470   1.439
10346W        W76887  37.002  31.112   4.445
10347W        W76888  22.001  15.275   1.183
10348W        W76889  25.543  29.067  10.889
10349W        W76890  14.194  43.907   4.699
10350W        W76891  28.963  18.872   1.255
10351W        W76892   4.399  11.699   2.330
10352W        W76893  25.128  17.348  13.332
10353W        W76894  15.272   8.634  12.415
10354W        W76895  21.638   4.833   1.909
10355W        W76896   1.656  11.705   2.265
10356W        W76897  34.367   2.847  11.741
10357W        W76898  41.101  40.712   2.629
10358W        W76899  12.178  40.000  14.490
10359W        W76900  13.283  25.400  13.026
10360W        W76901   0.998  31.139  12.915
10361W        W76902   9.268  24.185   0.912
10362W        W76903   6.894  11.777   3.760
10363W        W76904  41.005  38.996   4.184
10364W        W76905  34.406  20.617   1.338
10365W        W76906  34.108  27.606  11.073
10366W        W76907  18.803  36.631  10.761
10367W        W76908   2.196  39.000  12.434
10368W        W76909  39.241   0.954  11.798
10369W        W76910  16.538  33.991   1.228
10370W        W76911   7.863  36.928   3.628
10371W        W76912  40.177  22.384  12.013
10372W        W76913  27.130  37.597  12.182
10373W        W76914  44.187  36.552   1.932
10374W        W76915  42.415  40.947  12.420
10375W        W76916   7.547  44.426   3.149
10376W        W76917   1.402  11.833  13.950
10377W        W76918  30.274  31.394  14.486
10378W        W76919  39.977  21.741  14.200
10379W        W76920   0.140  21.086   2.212
10380W        W76921  41.609   8.682  14.446
10381W        W76922  13.194  15.169   3.125
10382W        W76923  12.375  22.502  12.395
10383W        W76924  40.332  37.774   2.698
10384W        W76925   8.333  30.019   2.308
10385W        W76926  16.321   6.651  13.915
10386W        W76927   9.616  10.675   2.915
10387W        W76928  37.314  44.253  12.528
10388W        W76929   7.359  17.630   0.325
10389W        W76930  36.783   9.163  12.687
10390W        W76931  11.421  14.731  11.219
10391W        W76932  37.784  26.945   0.765
10392W        W76933  27.858  22.801   0.926
10393W        W76934  11.246  15.313  11.883
10394W        W76935  13.819  42.761   5.107
10395W        W76936   1.854  41.763   2.388
10396W        W76937  32.625  34.800   3.906
10397W        W76938  34.149  25.155  11.118
10398W        W76939  19.271  14.112   4.180
10399W        W76940  10.872   2.550  13.491
10400W        W76941  12.306  26.664  11.096
10401W        W76942  36.812  23.710   0.778
10402W        W76943  36.734   0.756   3.652
10403W        W76944   3.222  23.108  10.533
10404W        W76945  28.674  34.502  13.280
10405W        W76946  44.199  36.911  11.948
10406W        W76947  24.469  23.815  14.420
10407W        W76948  24.295   5.795   1.688
10408W        W76949   2.684   6.362   1.932
10409W        W76950  18.194   6.102   2.039
10410W        W76951   9.900  43.107  14.717
10411W        W76952  36.545  34.310   2.200
10412W        W76953  36.984  30.527  13.352
10413W        W76954   6.731  18.790  14.631
10414W        W76955  27.508  14.632   1.989
10415W        W76956  15.612   4.913  14.362
10416W        W76957  38.373  34.580   1.833
10417W        W76958  25.103  37.173  12.466
10418W        W76959  39.807  41.403   3.367
10419W        W76960  42.297  22.605   1.447
10420W        W76961  42.831  31.512  10.704
10421W        W76962  22.549  32.777  14.372
10422W        W76963  37.948  13.533  14.476
10423W        W76964  23.833  36.261   4.027
10424W        W76965   7.628  31.068   2.719
10425W        W76966   4.194  39.940  14.373
10426W        W76967  21.768   5.219   0.978
10427W        W76968  19.512   3.416  11.504
10428W        W76969   8.366  16.793   4.435
10429W        W76970  24.215  25.557  12.578
10430W        W76971  28.666  16.410   2.232
10431W        W76972  23.208  24.998  12.961
10432W        W76973   7.416  24.257  11.041
10433W        W76974  44.856  29.640  11.393
10434W        W76975  16.019   8.802   0.360
10435W        W76976   0.942  20.094   2.629
10436W        W76977   2.015   0.865  12.046
10437W        W76978  31.461  34.817  14.321
10438W        W76979  26.463  29.001   1.868
10439W        W76980   9.101   2.811  11.554
10440W        W76981  11.807  16.251   2.261
10441W        W76982  42.970   9.365   0.194
10442W        W76983  20.490  40.544  12.031
10443W        W76984  18.327   6.239   3.218
10444W        W76985  30.490  34.558   1.460
10445W        W76986  13.350  10.684  13.986
10446W        W76987  14.095   6.863  14.528
10447W        W76988  10.132   5.267  12.284
10448W        W76989  14.459   0.962   0.356
10449W        W76990  43.153   8.775   4.373
10450W        W76991  31.187   1.853   2.951
10451W        W76992  26.442  42.895   2.694
10452W        W76993  17.034  28.444   0.838
10453W        W76994  26.906  18.612  12.127
10454W        W76995  32.157  37.054  14.176
10455W        W76996  35.632  42.924   1.960
10456W        W76997  27.704  41.286   3.351
10457W        W76998  40.998  31.634  10.538
10458W        W76999  36.799  41.625  12.098
10459W        W77000  22.625  13.801  14.731
10460W        W77001  35.974  14.811   1.779
10461W        W77002  32.938  14.565   1.387
10462W        W77003  33.072   1.988  14.786
10463W        W77004  37.036  30.653   1.168
10464W        W77005   8.223   2.917   4.440
10465W        W77006  18.402  37.084  14.293
10466W        W77007   2.086   6.102   0.142
10467W        W77008  14.856  29.531   0.786
10468W        W77009  39.081   6.851   0.723
10469W        W77010  16.994  21.618   3.719
10470W        W77011  33.460  41.555  10.745
10471W        W77012  18.099  28.667   0.926
10472W        W77013  13.099  32.235  11.922
10473W        W77014  34.241   0.260   2.203
10474W        W77015   4.753  13.800   3.238
10475W        W77016  10.793  20.815   1.375
10476W        W77017  35.817  36.294  12.087
10477W        W77018  33.051  19.578   0.940
10478W        W77019  21.757  12.845  13.043
10479W        W77020  10.716  16.709  14.627
10480W        W77021  41.521  31.854   1.844
10481W        W77022  17.411  30.023   3.756
10482W        W77023  10.902  27.593  10.421
10483W        W77024   1.391  25.414   0.883
10484W        W77025  24.183  40.506   4.481
10485W        W77026  44.856   6.247  14.147
10486W        W77027  22.072  24.985   1.877
10487W        W77028  13.789  42.559  14.463
10488W        W77029  11.817  36.406   0.218
10489W        W77030  19.059  22.564  14.910
10490W        W77031   7.599   8.174   3.635
10491W        W77032  32.217   1.777   2.690
10492W        W77033  14.367  23.001  14.777
10493W        W77034  34.484  31.762  14.321
10494W        W77035  38.794   6.184   3.677
10495W        W77036  36.543  17.330  13.590
10496W        W77037  41.013  20.249   2.399
10497W        W77038  36.654  43.334   0.819
10498W        W77039  16.255  34.286   5.109
10499W        W77040  30.939  35.187  11.535
10500W        W77041  24.297  43.305  11.638
10501W        W77042  42.907   6.341   2.735
10502W        W77043  43.382  14.146  12.128
10503W        W77044   6.621   0.325  10.496
10504W        W77045  33.621  32.529  14.379
10505W        W77046   2.926  39.971   4.565
10506W        W77047  35.238  26.938  11.996
10507W        W77048  41.019  15.809  11.148
10508W        W77049  32.440  25.559   3.681
10509W        W77050  38.787  43.027  14.854
10510W        W77051  43.275  19.484   0.593
10511W        W77052  12.368  30.939  14.695
10512W        W77053   7.377  13.821  11.214
10513W        W77054  20.218  42.067  14.937
10514W        W77055  29.033  25.713  10.701
10515W        W77056   0.940  41.159   3.242
10516W        W77057  29.187  43.757   1.859
10517W        W77058  23.438  15.548   1.755
10518W        W77059  39.307   0.893   2.647
10519W        W77060  10.836   0.733  12.369
10520W        W77061  44.730  21.144   0.188
10521W        W77062  14.635  20.649  12.126
10522W        W77063  26.720  29.414   0.066
10523W        W77064  30.626  10.914  13.371
10524W        W77065  20.952   1.225   1.801
10525W        W77066  33.768  29.099  14.027
10526W        W77067  12.566  36.765   1.222
10527W        W77068  26.779   5.671   0.549
10528W        W77069  10.379  26.079  14.572
10529W        W77070   6.263  39.003   3.639
10530W        W77071  31.101  25.805  10.564
10531W        W77072  33.138  41.522  13.918
10532W        W77073  12.254  14.329  11.130
10533W        W77074  28.683  30.267  14.285
10534W        W77075   3.556  14.927  12.146
10535W        W77076  21.984  32.873   0.849
10536W        W77077  10.594  38.807  13.262
10537W        W77078  39.609  40.079   1.151
10538W        W77079  36.373  28.814   3.298
10539W        W77080  34.040  10.821  11.590
10540W        W77081  16.806   7.292   1.826
10541W        W77082   0.802   2.157  11.064
10542W        W77083   2.368   6.270  11.555
10543W        W77084   9.940  24.507  13.869
10544W        W77085  42.539  33.306   3.178
10545W        W77086  23.228  10.778   2.205
10546W        W77087  32.981  40.784  12.032
10547W        W77088  13.664  17.539   0.658
10548W        W77089  42.436  43.868  12.606
10549W        W77090  44.799  32.529  12.490
10550W        W77091  28.528  10.238  11.185
10551W        W77092  24.788  21.109  14.351
10552W        W77093  24.247  40.359  13.851
10553W        W77094  43.249  11.718   4.969
10554W        W77095  44.058  35.358   2.283
10555W        W77096   4.858  43.881   0.880
10556W        W77097  27.661   9.244   3.309
10557W        W77098  25.995   3.743   1.754
10558W        W77099  39.124  17.639   3.596
10559W        W77100  19.693  34.837  12.510
10560W        W77101  16.503  12.763  14.876
10561W        W77102  13.187  43.588  14.326
10562W        W77103  31.879  14.938   0.374
10563W        W77104  29.168   3.715   2.218
10564W        W77105  25.068  12.234  11.382
10565W        W77106  36.259   1.045   3.365
10566W        W77107  29.934  28.617  12.239
10567W        W77108   6.189   3.661   2.634
10568W        W77109   8.292  13.859  13.581
10569W        W77110  29.022  27.294  10.717
10570W        W77111  16.571   0.485   1.358
10571W        W77112  14.789  15.315  13.367
10572W        W77113   3.815  26.947   0.825
10573W        W77114   6.972  38.112   1.301
10574W        W77115   7.818   9.852   0.404
10575W        W77116  17.007   2.184  11.244
10576W        W77117  28.448   6.363  12.866
10577W        W77118  22.726  42.659   4.001
10578W        W77119   1.380  40.815  11.264
10579W        W77120  12.125  20.497  13.370
10580W        W77121  19.544   3.457  10.611
10581W        W77122  28.598  12.445   5.094
10582W        W77123  22.155   6.793  10.701
10583W        W77124  20.935  40.489   0.014
10584W        W77125   8.452   5.913   3.653
10585W        W77126  20.776  30.423   3.314
10586W        W77127   3.393  16.964   4.599
10587W        W77128   9.699  32.686  11.591
10588W        W77129  44.923   5.970   0.003
10589W        W77130   1.149   4.233  14.540
10590W        W77131  40.270  44.904  14.863
10591W        W77132   0.251  16.073  11.251
10592W        W77133  22.957  10.637  11.131
10593W        W77134  28.533  24.507  14.213
10594W        W77135  42.369   2.034   2.169
10595W        W77136  33.205  24.047   5.053
10596W        W77137   2.314  24.013   0.358
10597W        W77138  39.490  20.695   0.337
10598W        W77139  37.904   2.327   0.990
10599W        W77140  10.829   5.470   0.666
10600W        W77141   9.421  14.154  10.476
10601W        W77142  36.005  41.311   3.554
10602W        W77143   5.894  40.576   2.864
10603W        W77144  43.882   2.861   4.734
10604W        W77145  35.026  39.773   1.409
10605W        W77146  27.110  19.589   0.025
10606W        W77147  10.630  18.039  10.657
10607W        W77148  31.628  31.902  10.218
10608W        W77149  39.444  38.421  10.423
10609W        W77150  43.227  27.414  11.101
10610W        W77151  27.208  38.047   3.973
10611W        W77152   1.735  40.584  14.855
10612W        W77153  20.078  15.126   1.883
10613W        W77154  36.970   9.315  12.194
10614W        W77155  38.955  19.605  13.330
10615W        W77156  39.694  27.786  12.029
10616W        W77157  37.562   4.732   2.899
10617W        W77158   4.473   3.541  13.087
10618W        W77159   1.646  43.063  14.863
10619W        W77160  12.550  39.306  12.520
10620W        W77161  28.709   6.250  10.385
10621W        W77162  21.689  18.779   1.421
10622W        W77163  35.017  42.695   5.052
10623W        W77164  16.032  19.362  11.117
10624W        W77165  36.395   2.013  11.610
10625W        W77166  20.833  13.908  11.957
10626W        W77167  28.171  36.325   0.756
10627W        W77168   4.813  42.162   5.027
10628W        W77169  17.603  14.070   2.694
10629W        W77170  15.785  44.319   3.385
10630W        W77171  23.182  42.385   0.261
10631W        W77172  43.704  40.948   1.329
10632W        W77173  43.291  33.858  13.362
10633W        W77174  41.197  19.727   2.616
10634W        W77175  36.869   3.049   3.277
10635W        W77176  21.498  44.871  13.944
10636W        W77177  24.119  10.179  10.432
10637W        W77178  30.075  27.156  12.961
10638W        W77179  14.657  12.110   2.371
10639W        W77180  34.981  36.782  12.939
10640W        W77181   3.601   5.287  14.881
10641W        W77182  38.947  38.399   3.381
10642W        W77183  22.718  20.052  13.794
10643W        W77184  17.519  18.654  12.996
10644W        W77185   6.854  32.314  13.881
10645W        W77186  23.716   4.487  12.054
10646W        W77187   5.895  17.505  11.938
10647W        W77188  44.027  42.755   2.113
10648W        W77189  27.581  19.265  12.113
10649W        W77190  18.763  35.510   0.703
10650W        W77191   7.009  20.738  12.068
10651W        W77192  33.189  23.163  13.945
10652W        W77193  17.209  23.620   2.799
10653W        W77194  13.752  22.482   3.342
10654W        W77195  12.814  42.425   4.325
10655W        W77196   4.816  19.171   3.833
10656W        W77197  10.957  14.879   0.290
10657W        W77198  27.556   2.429  12.323
10658W        W77199   8.047   4.025  12.422
10659W        W77200   8.272   8.459  14.003
10660W        W77201  36.025  22.240   1.367
10661W        W77202   0.032  20.756  11.598
10662W        W77203  42.319  37.461   1.127
10663W        W77204  36.387  19.695  13.976
10664W        W77205  35.568  37.366   4.849
10665W        W77206  22.281  33.031  11.504
10666W        W77207   7.431  10.645  11.252
10667W        W77208  41.417   5.276   2.394
10668W        W77209   8.216   2.153  12.601
10669W        W77210  10.904   1.660  12.915
10670W        W77211   3.452  11.595  14.882
10671W        W77212  34.187  26.829  11.550
10672W        W77213  27.141   2.263  13.649
10673W        W77214   9.875  22.401  11.926
10674W        W77215  41.337   0.311  13.390
10675W        W77216   3.583   3.004   3.606
10676W        W77217  18.554   6.298  12.735
10677W        W77218   7.409  38.161  13.011
10678W        W77219   1.677  37.870   1.190
10679W        W77220  10.301   5.355   4.424
10680W        W77221   1.219  21.566  13.073
10681W        W77222  20.212  25.463  14.633
10682W        W77223   0.741  32.957  14.460
10683W        W77224  36.430  25.939  12.021
10684W        W77225  34.654   4.370  13.414
10685W        W77226  22.594  36.494   3.565
10686W        W77227  44.732  17.272  13.923
10687W        W77228  38.296   3.134  14.969
10688W        W77229  16.329  22.189  13.311
10689W        W77230  25.768   4.675  11.356
10690W        W77231   2.417  40.824  14.382
10691W        W77232  28.459   6.929   4.716
10692W        W77233  10.098  23.247   0.577
10693W        W77234  37.858  10.661  12.986
10694W        W77235  28.949  20.008  14.760
10695W        W77236   5.228  17.991   1.349
10696W        W77237  20.968  16.218   1.204
10697W        W77238  39.589  21.252   1.256
10698W        W77239  40.307  28.940  10.424
10699W        W77240   1.427   1.305   4.030
10700W        W77241  43.537  32.471  12.865
10701W        W77242  28.079   5.805   1.673
10702W        W77243  12.246  24.548  12.973
10703W        W77244  26.749  42.363  13.332
10704W        W77245   3.320  16.637   3.818
10705W        W77246  22.257  32.195   2.108
10706W        W77247   7.741  43.284   4.656
10707W        W77248  33.989  23.604  13.487
10708W        W77249  31.657  10.813  11.519
10709W        W77250  24.752  40.834  11.590
10710W        W77251  34.221  31.607  12.647
10711W        W77252  23.540  19.830  13.500
10712W        W77253  22.531  38.543   2.253
10713W        W77254  36.613   0.377   5.025
10714W        W77255   1.326  44.291   4.545
10715W        W77256  17.224  41.599   1.921
10716W        W77257  22.248  30.908  14.465
10717W        W77258  11.013  44.298  13.080
10718W        W77259  26.404  14.707  14.520
10719W        W77260  24.085  16.600   4.363
10720W        W77261  39.254  26.918   2.281
10721W        W77262  22.107  38.803   2.387
10722W        W77263  23.193   2.882  11.972
10723W        W77264   4.306  30.096   0.257
10724W        W77265  11.352  42.463  10.414
10725W        W77266  13.164  38.817   4.717
10726W        W77267  18.139  16.260  11.519
10727W        W77268  19.984  28.378   1.338
10728W        W77269   1.845  43.805  12.554
10729W        W77270  29.101  36.891   1.315
10730W        W77271  29.393  27.485   3.630
10731W        W77272  29.404  34.363  12.055
10732W        W77273  44.111  23.111   4.247
10733W        W77274   1.787  38.720  13.646
10734W        W77275   3.185  26.545  12.747
10735W        W77276  17.865  10.714   2.364
10736W        W77277  15.201  43.363   1.473
10737W        W77278  36.679   2.668   5.481
10738W        W77279  36.409   8.126   0.918
10739W        W77280  16.610  13.900  12.197
10740W        W77281  40.613  40.632   4.555
10741W        W77282   5.198  36.489   3.149
10742W        W77283  19.683  44.358   0.414
10743W        W77284  12.588  29.371   4.646
10744W        W77285  17.824  44.785  13.257
10745W        W77286   1.897  14.484  11.208
10746W        W77287  39.828  32.534  13.826
10747W        W77288  43.134  35.637  12.298
10748W        W77289  17.501  20.283   3.260
10749W        W77290  21.341  40.591   5.012
10750W        W77291  13.701  21.027   3.886
10751W        W77292  37.617  26.989  13.279
10752W        W77293  36.940  32.996   0.354
10753W        W77294  11.188   4.428   4.448
10754W        W77295   2.187  28.425  11.278
10755W        W77296  18.958   4.224   0.691
10756W        W77297   9.785  23.686  11.455
10757W        W77298  29.375   8.274  11.776
10758W        W77299  35.855   7.200   2.618
10759W        W77300  33.466  15.581  12.010
10760W        W77301  36.940   4.455  14.639
10761W        W77302  25.100   7.856   2.941
10762W        W77303  34.302  43.354   4.181
10763W        W77304  37.106   1.290  13.381
10764W        W77305   5.810   4.917   1.660
10765W        W77306   0.525  28.546   0.760
10766W        W77307  12.158  36.614   0.879
10767W        W77308  29.128  23.200  14.878
10768W        W77309  35.866  27.552   4.311
10769W        W77310  20.654  42.513   0.442
10770W        W77311  44.231  26.043   3.979
10771W        W77312  25.476  20.739   3.397
10772W        W77313  36.470  37.121  12.933
10773W        W77314  20.175  33.120   1.411
10774W        W77315   1.394  31.360  14.569
10775W        W77316   9.155   7.366  14.722
10776W        W77317  12.868  28.378  11.832
10777W        W77318   1.475  22.185  10.943
10778W        W77319  22.737  12.464   1.424
10779W        W77320  38.409  18.956   4.173
10780W        W77321  31.596   7.257   3.489
10781W        W77322  44.126  29.142  14.920
10782W        W77323  25.476   4.175  13.393
10783W        W77324  30.095  43.891   2.805
10784W        W77325  19.681  20.005  12.163
10785W        W77326  23.650  35.465   2.230
10786W        W77327  31.318  32.481   1.145
10787W        W77328   7.286  21.115   3.508
10788W        W77329  32.517  22.703   0.963
10789W        W77330  24.231   5.686  14.467
10790W        W77331  16.011  36.620   2.486
10791W        W77332  26.409  20.068  10.983
10792W        W77333  31.339  15.339   4.715
10793W        W77334  28.624  27.695   0.447
10794W        W77335  13.193  13.355   0.944
10795W        W77336  32.872   0.426  11.582
10796W        W77337   7.167  10.591  13.173
10797W        W77338  43.372  41.797  12.666
10798W        W77339  41.033  12.072  13.844
10799W        W77340  32.939  30.632  11.999
10800W        W77341  24.200   7.952   3.215
10801W        W77342  32.179   6.416   3.584
10802W        W77343  10.234  10.825  10.996
10803W        W77344  20.046  30.616   3.874
10804W        W77345   7.117  13.703  12.161
10805W        W77346   7.425  10.154   2.138
10806W        W77347  33.905  37.461   1.037
10807W        W77348  38.211  21.937  11.154
10808W        W77349   5.383   6.658  14.330
10809W        W77350  27.601   4.688  13.048
10810W        W77351   2.140   2.153  14.899
10811W        W77352  20.089  10.572   4.648
10812W        W77353  31.189  24.965  13.024
10813W        W77354  41.488   3.830  12.424
10814W        W77355  35.131   6.819  12.622
10815W        W77356  21.674  19.294   4.738
10816W        W77357  17.841   1.415  13.449
10817W        W77358   6.431  36.093  14.397
10818W        W77359  36.243  14.869  12.383
10819W        W77360  19.327   0.656  10.840
10820W        W77361   5.617  12.169   3.743
10821W        W77362   0.365  20.795  11.209
10822W        W77363  22.469  13.615  11.987
10823W        W77364  14.745  16.605  14.086
10824W        W77365  37.466  17.511   0.859
10825W        W77366  13.322  24.857   1.331
10826W        W77367  33.889   9.129   3.376
10827W        W77368  18.836  10.369   4.189
10828W        W77369  14.338  17.617   0.380
10829W        W77370  36.491  42.894  10.044
10830W        W77371  27.460  20.783  13.058
10831W        W77372   4.404   0.701   1.349
10832W        W77373  30.705  31.972   2.390
10833W        W77374  30.696  32.915  14.463
10834W        W77375  10.672  39.655  14.832
10835W        W77376   2.992  11.333   1.651
10836W        W77377  35.013  26.587  14.903
10837W        W77378  16.550  32.893  14.838
10838W        W77379  29.378   9.643  10.740
10839W        W77380  20.162  38.352  10.880
10840W        W77381   5.160  32.144   4.327
10841W        W77382  29.451  31.900   4.991
10842W        W77383  23.991  25.354  14.405
10843W        W77384   5.892   3.805  10.700
10844W        W77385  34.380  32.100   2.390
10845W        W77386  40.757  29.700   2.616
10846W        W77387  26.972  16.958  10.674
10847W        W77388  37.645  13.177  12.430
10848W        W77389  26.308  34.602  10.368
10849W        W77390  12.113   3.756   0.980
10850W        W77391  38.471  25.096   2.519
10851W        W77392  19.964  34.315   1.891
10852W        W77393  30.659   6.682  12.562
10853W        W77394   1.958  28.035  11.540
10854W        W77395  25.040  10.298  11.632
10855W        W77396   8.272  22.338   0.283
10856W        W77397  33.034   3.510  13.269
10857W        W77398  39.047  31.869  13.091
10858W        W77399  44.796  25.172  12.830
10859W        W77400  37.906  16.631   4.994
10860W        W77401  15.085  41.895  11.849
10861W        W77402  40.518  15.099   3.709
10862W        W77403  36.741  14.617   0.009
10863W        W77404   1.781   3.844   4.299
10864W        W77405  19.110  10.369   3.751
10865W        W77406   7.385  28.149   4.317
10866W        W77407   2.015  17.167  13.405
10867W        W77408  29.805  30.376   4.505
10868W        W77409  37.088  22.826   1.049
10869W        W77410  30.316  14.576  10.779
10870W        W77411   8.858  13.684   4.269
10871W        W77412  28.941  19.078  10.955
10872W        W77413  35.408  17.066  11.241
10873W        W77414  30.851   8.142   3.929
10874W        W77415  25.561  21.746   3.169
10875W        W77416  30.148  31.912   3.764
10876W        W77417  15.638   1.971   0.401
10877W        W77418   7.317  15.631  12.721
10878W        W77419  19.865  29.005  10.591
10879W        W77420  40.967  10.399   4.163
10880W        W77421  36.829  26.040   3.163
10881W        W77422  38.865  23.381   2.245
10882W        W77423  36.557  31.965   1.322
10883W        W77424  18.477  15.903   4.457
10884W        W77425  40.704  27.610  12.916
10885W        W77426  41.091  38.571  12.065
10886W        W77427  31.992   9.480   5.033
10887W        W77428  43.259  37.770  14.495
10888W        W77429  40.929  12.295   3.824
10889W        W77430  18.070  17.759   2.685
10890W        W77431  38.797  39.297   4.093
10891W        W77432  13.088  44.790  13.435
10892W        W77433  20.716  29.583   1.771
10893W        W77434  20.763   2.850  10.443
10894W        W77435  43.295  29.621   1.119
10895W        W77436  18.969   5.595   5.211
10896W        W77437  20.783  34.099  14.216
10897W        W77438  12.360  10.573  14.963
10898W        W77439  14.368  14.146   1.334
10899W        W77440  15.311   5.317   4.120
10900W        W77441   0.282  38.290   2.317
10901W        W77442  37.455  43.242  12.487
10902W        W77443  40.213  35.964   2.159
10903W        W77444   1.976  33.732   9.729
10904W        W77445  31.278  30.081  11.737
10905W        W77446  22.655  40.029   0.668
10906W        W77447  39.529  34.394   3.973
10907W        W77448   0.859   3.813  14.706
10908W        W77449  39.274  41.206  11.107
10909W        W77450   3.680  42.474  13.872
10910W        W77451  22.473  22.308   1.309
10911W        W77452   5.307  13.790   2.246
10912W        W77453  12.974  30.148  14.210
10913W        W77454  29.692  42.439  12.421
10914W        W77455  30.729  38.063   1.918
10915W        W77456  29.533  21.140  13.360
10916W        W77457   0.199  24.586   2.744
10917W        W77458  29.426  24.286   3.232
10918W        W77459   5.425   7.968  12.981
10919W        W77460  19.669  22.159   4.734
10920W        W77461   1.729   3.342   3.177
10921W        W77462  37.040  20.953   0.879
10922W        W77463   7.307   3.296   3.703
10923W        W77464  33.669  23.481  12.551
10924W        W77465  23.207  29.642   3.710
10925W        W77466  32.319   1.911   3.639
10926W        W77467  27.201   3.508   1.270
10927W        W77468  37.036  32.632  10.712
10928W        W77469  20.484  42.869   0.078
10929W        W77470  30.777  36.983   4.175
10930W        W77471   8.809  23.462   4.352
10931W        W77472   7.611  33.002  14.055
10932W        W77473  35.886  21.733   0.977
10933W        W77474  40.298   9.857  12.062
10934W        W77475  13.645  12.339  14.863
10935W        W77476  24.558  33.710   2.640
10936W        W77477  25.539   4.985   1.365
10937W        W77478  10.858  19.453  12.760
10938W        W77479  38.164  19.666   5.305
10939W        W77480  42.769  11.871  10.688
10940W        W77481  31.048  39.421   4.538
10941W        W77482   2.377  20.730  13.385
10942W        W77483  33.496  43.635   1.268
10943W        W77484  38.313  36.775   4.787
10944W        W77485  30.522  40.808  13.578
10945W        W77486  17.524   2.842   3.312
10946W        W77487  13.592  15.074   1.859
10947W        W77488   9.354  20.067  14.876
10948W        W77489  19.851  15.271  11.235
10949W        W77490  18.750  12.289  12.019
10950W        W77491  39.729  25.492  10.623
10951W        W77492  42.780  19.193   2.140
10952W        W77493  28.561  19.080  10.594
10953W        W77494  42.329  30.979   3.219
10954W        W77495  41.391   8.454   4.570
10955W        W77496  40.928  27.530  11.552
10956W        W77497  19.063   3.304  14.788
10957W        W77498  23.464   2.438  11.020
10958W        W77499  18.227  28.179  13.101
10959W        W77500   5.833  27.893  11.974
10960W        W77501   6.770   8.882  14.528
10961W        W77502  39.506   5.454  11.884
10962W        W77503  30.287  10.884   5.210
10963W        W77504  15.829  42.954  12.153
10964W        W77505  26.141   2.040   0.131
10965W        W77506  38.521  18.128  11.191
10966W        W77507  24.189  16.598   4.893
10967W        W77508   6.776  15.332   4.885
10968W        W77509  36.994  33.707   1.794
10969W        W77510  28.486  10.423   9.559
10970W        W77511   9.893  42.727   0.123
10971W        W77512  41.480   4.807   4.573
10972W        W77513  40.280  41.337  12.471
10973W        W77514  10.889   8.695  12.138
10974W        W77515  39.885   4.240   1.638
10975W        W77516  10.234  26.636   1.788
10976W        W77517  12.577  14.123   0.903
10977W        W77518  18.249  34.026   1.716
10978W        W77519  24.944   6.970   4.481
10979W        W77520  19.469   9.707   4.284
10980W        W77521  15.543  14.765   3.897
10981W        W77522  20.299  13.416  13.995
10982W        W77523  39.444  36.321   4.440
10983W        W77524  10.301  18.826   2.226
10984W        W77525  25.977   0.301   0.804
10985W        W77526  42.873  10.291  14.923
10986W        W77527  23.930  38.278  11.166
10987W        W77528  33.911  19.321  10.713
10988W        W77529  23.253  12.682  11.426
10989W        W77530   6.194  42.390   3.239
10990W        W77531  33.159  35.000   3.281
10991W        W77532  23.009  20.093   0.812
10992W        W77533  11.184  31.340   4.142
10993W        W77534  41.366  26.626   3.237
10994W        W77535  21.284  35.044  11.669
10995W        W77536  14.654  17.894   3.672
10996W        W77537   3.723  40.599   3.215
10997W        W77538  37.766  21.167  10.619
10998W        W77539  20.612  11.209  10.713
10999W        W77540  41.835  30.923  13.306
11000W        W77541  29.218   5.285  12.476
11001W        W77542  32.607  42.656  12.872
11002W        W77543  14.705  27.099  13.763
11003W        W77544   0.836   6.877  13.329
11004W        W77545  28.040  29.621  12.357
11005W        W77546  11.853   9.388   4.339
11006W        W77547  41.376  27.549  10.764
11007W        W77548  40.947  19.901   4.132
11008W        W77549  20.695  41.618   1.766
11009W        W77550  25.043   4.178  12.516
11010W        W77551  30.617   8.299   1.389
11011W        W77552   2.775  14.237   2.504
11012W        W77553  28.628  26.963  14.815
11013W        W77554  21.208  18.921  11.218
11014W        W77555  42.305   8.250   1.466
11015W        W77556  11.765  37.097   2.352
11016W        W77557  42.012  34.438   0.283
11017W        W77558  33.558   4.202  14.268
11018W        W77559  41.384  27.512  14.335
11019W        W77560   1.660   8.821  13.780
11020W        W77561  37.240   0.123   0.781
11021W        W77562   6.317   6.816  12.057
11022W        W77563  21.691  41.456   4.484
11023W        W77564  29.492   9.349   1.873
11024W        W77565  29.068  39.278   2.218
11025W        W77566   5.885   1.354  12.626
11026W        W77567  13.801  24.990  12.829
11027W        W77568  37.626   1.855   4.169
11028W        W77569  21.946  12.356   4.035
11029W        W77570  34.311   6.953   0.904
11030W        W77571  42.392  39.597   2.270
11031W        W77572   5.319   4.346   1.257
11032W        W77573  40.852  29.218   3.269
11033W        W77574   1.623   8.161  14.353
11034W        W77575  18.973  24.955  14.933
11035W        W77576  13.654  11.388  12.754
11036W        W77577   3.479  33.042   2.757
11037W        W77578   7.192  24.818  12.434
11038W        W77579  40.990  16.791   1.914
11039W        W77580  40.435   5.249  11.754
11040W        W77581  19.465  41.762  12.404
11041W        W77582  44.593  10.937   0.499
11042W        W77583  23.703  21.932   2.261
11043W        W77584  40.356  27.594   1.650
11044W        W77585  23.201  32.062   4.124
11045W        W77586  14.786  41.762   4.712
11046W        W77587  35.533  38.052  13.802
11047W        W77588   7.568  44.770  13.482
11048W        W77589  38.285   4.094   3.134
11049W        W77590  43.913  23.150   1.213
11050W        W77591   7.961   2.233   0.386
11051W        W77592  33.453  34.579   4.232
11052W        W77593  38.546  14.545   4.578
11053W        W77594  18.359  44.185  12.054
11054W        W77595  17.589  23.181   1.060
11055W        W77596  29.184   2.291   4.344
11056W        W77597  19.275   3.695  14.389
11057W        W77598  20.994  22.704   1.385
11058W        W77599  25.043   4.851   3.400
11059W        W77600  39.439  25.262  14.255
11060W        W77601  17.686  30.451   4.505
11061W        W77602  42.888  32.085  10.514
11062W        W77603  26.131  30.519  13.948
11063W        W77604  17.226   2.153   1.371
11064W        W77605   0.391  39.034  10.913
11065W        W77606  37.820  16.094  14.377
11066W        W77607  33.384  33.933  10.657
11067W        W77608  41.003  22.431  12.482
11068W        W77609  17.733   3.633  12.081
11069W        W77610  15.827  29.865  14.022
11070W        W77611  29.287  28.612  11.119
11071W        W77612  30.410  12.068   0.510
11072W        W77613  41.968  32.622  12.067
11073W        W77614  30.389  19.821  12.940
11074W        W77615   8.375  39.687   5.041
11075W        W77616  11.162  31.530   2.334
11076W        W77617  31.529  13.288  10.324
11077W        W77618  21.311  23.530  12.521
11078W        W77619  13.064  29.046   1.939
11079W        W77620   5.280  31.680  14.518
11080W        W77621  24.753  12.654   4.676
11081W        W77622  32.083  43.782   4.317
11082W        W77623  33.468   5.330   4.199
11083W        W77624  14.049  22.340   3.949
11084W        W77625   5.773   4.721  13.384
11085W        W77626   3.538  35.776  14.019
11086W        W77627  18.153  44.553  10.815
11087W        W77628  29.505   8.163  12.269
11088W        W77629   1.418   0.733   0.499
11089W        W77630  10.369  33.257   0.583
11090W        W77631  16.016  32.596   0.527
11091W        W77632  37.792  36.559  10.837
11092W        W77633  30.406   5.317  14.818
11093W        W77634  20.346  37.172   1.308
11094W        W77635  24.599  26.141  14.302
11095W        W77636   9.047  41.426  13.440
11096W        W77637  44.956  19.989  14.115
11097W        W77638   4.909  11.817  14.987
11098W        W77639   5.362   8.352   3.187
11099W        W77640  21.433   5.147   2.245
11100W        W77641  38.777  42.012  13.529
11101W        W77642  11.641  23.696   2.301
11102W        W77643   9.863  22.728   0.323
11103W        W77644  36.604  32.956  12.551
11104W        W77645  24.499   1.844   0.794
11105W        W77646   6.445  25.171  13.074
11106W        W77647  13.561  13.137   1.806
11107W        W77648  35.007  41.777  13.026
11108W        W77649   6.912  41.495  13.101
11109W        W77650  24.001  28.145   1.981
11110W        W77651   4.428  30.351   4.400
11111W        W77652   6.707  23.452   4.195
11112W        W77653  37.768  31.378  13.108
11113W        W77654  12.285  23.687  13.080
11114W        W77655  15.961   5.902  12.943
11115W        W77656   0.522  26.643  14.938
11116W        W77657  33.799   8.652  12.429
11117W        W77658  44.756  10.615  13.717
11118W        W77659   0.284  12.042  10.926
11119W        W77660   1.759  19.935   4.173
11120W        W77661  31.179  35.215  12.766
11121W        W77662   6.724   8.717   0.399
11122W        W77663  11.231  38.122  13.815
11123W        W77664   9.427  37.097   1.592
11124W        W77665  44.450   6.343   4.954
11125W        W77666  43.771  18.320   2.834
11126W        W77667  21.742  17.545   1.258
11127W        W77668  29.523  20.953   0.780
11128W        W77669  37.832  13.116  12.920
11129W        W77670  25.414  37.889  14.911
11130W        W77671  27.693  24.882   2.160
11131W        W77672   2.214  23.814  10.776
11132W        W77673   6.939  32.431   2.426
11133W        W77674  31.061  35.831   4.722
11134W        W77675   1.018  33.557   0.728
11135W        W77676  15.727  32.706   1.813
11136W        W77677  33.135  19.991   4.086
11137W        W77678  18.645   8.245  10.858
11138W        W77679  16.642  18.756  11.568
11139W        W77680  20.054   6.495   4.431
11140W        W77681   4.576  10.421   0.014
11141W        W77682  30.625   6.178   1.389
11142W        W77683  38.709  44.340   1.997
11143W        W77684  16.792  12.819   1.662
11144W        W77685   6.905  11.410  14.417
11145W        W77686  31.898  38.371  13.355
11146W        W77687  22.856   7.278   4.150
11147W        W77688  13.133   2.538  14.863
11148W        W77689  23.059  30.310   0.507
11149W        W77690  31.863  40.541  12.460
11150W        W77691  21.289  23.569   4.554
11151W        W77692  29.898  36.024  13.841
11152W        W77693  39.342  28.644  11.094
11153W        W77694  39.846   5.905   4.637
11154W        W77695  22.989  14.713  10.475
11155W        W77696  32.734  17.694  11.506
11156W        W77697  29.157  30.713   0.541
11157W        W77698   7.067  10.385  12.691
11158W        W77699   0.253   7.327  14.838
11159W        W77700  24.172  29.985   3.658
11160W        W77701   7.779  32.075  14.160
11161W        W77702  11.711  21.737   1.182
11162W        W77703  14.809  39.011  13.594
11163W        W77704  23.893   4.259   1.756
11164W        W77705  31.177  42.689   4.523
11165W        W77706  21.965  40.866   2.216
11166W        W77707  23.300  19.273  10.740
11167W        W77708  28.079  33.806  10.639
11168W        W77709  13.528  23.845   5.000
11169W        W77710  39.389  29.646  11.664
11170W        W77711  15.695   0.522  12.866
11171W        W77712   9.361  42.902  10.227
11172W        W77713  29.968  13.438   1.743
11173W        W77714  36.916  24.217   4.209
11174W        W77715   5.182   1.774  14.828
11175W        W77716  32.169  41.257  13.792
11176W        W77717   5.082  14.381  11.645
11177W        W77718   9.820  17.049  12.749
11178W        W77719   4.769  10.500  10.392
11179W        W77720  12.244  25.700   4.587
11180W        W77721  32.798  24.608   0.881
11181W        W77722  23.995  37.803  13.989
11182W        W77723  37.986   4.551  10.656
11183W        W77724  44.458  40.816   3.707
11184W        W77725   6.328  12.575  14.013
11185W        W77726  14.239  43.830  13.596
11186W        W77727  37.919  32.125   4.102
11187W        W77728   6.849  36.358   2.004
11188W        W77729   6.159  17.432  14.827
11189W        W77730  31.715  34.557  10.623
11190W        W77731  14.137  40.536  11.158
11191W        W77732  26.792  11.403  13.390
11192W        W77733  44.075   7.050  11.448
11193W        W77734  10.946  36.461   4.136
11194W        W77735  11.292  39.610  14.070
11195W        W77736  44.770  33.192  10.679
11196W        W77737  22.687  16.847   1.865
11197W        W77738  31.913  27.235   0.041
11198W        W77739  30.038  15.781   2.264
11199W        W77740   9.237  35.154   0.140
11200W        W77741  11.665   4.875   0.234
11201W        W77742  17.815  11.592   0.405
11202W        W77743  25.032  25.875   2.612
11203W        W77744  20.551  11.213   3.670
11204W        W77745  24.145  14.830  12.222
11205W        W77746  10.394  24.793  13.996
11206W        W77747  43.784  37.061  13.020
11207W        W77748  35.388   5.822  10.237
11208W        W77749  18.324  14.541  11.629
11209W        W77750  29.754  41.629  11.956
11210W        W77751  36.930  18.914  13.461
11211W        W77752  15.561  33.795  14.839
11212W        W77753  44.657  10.833   1.242
11213W        W77754  43.441  36.918   1.028
11214W        W77755  17.804  27.366   1.324
11215W        W77756  30.453   6.039  10.555
11216W        W77757  30.753   3.916  11.619
11217W        W77758   0.602  38.830   5.316
11218W        W77759   6.917  42.637   2.878
11219W        W77760  17.046  20.498  11.665
11220W        W77761   8.899   4.136   4.926
11221W        W77762  25.931   9.767   4.214
11222W        W77763   0.218  12.864   3.498
11223W        W77764  19.282  40.942  13.830
11224W        W77765   6.690  10.075   5.094
11225W        W77766  10.066   4.697   5.043
11226W        W77767  33.419   4.011  10.747
11227W        W77768   5.902  41.721   0.888
11228W        W77769  37.888  12.446  10.476
11229W        W77770  38.354  22.146   3.935
11230W        W77771  43.572   5.757  14.013
11231W        W77772  13.716  42.371  14.934
11232W        W77773   8.891   9.574  13.671
11233W        W77774  14.878  35.063  13.788
11234W        W77775  42.926   4.617  10.736
11235W        W77776  14.568  24.760  11.585
11236W        W77777   2.420   3.916   3.194
11237W        W77778   4.740  20.303  11.603
11238W        W77779  33.478   7.970   4.056
11239W        W77780  18.571  19.524   4.017
11240W        W77781  24.806  41.967  14.032
11241W        W77782  39.637   2.767  14.827
11242W        W77783  12.156   8.911  13.278
11243W        W77784  26.247  26.174  11.055
11244W        W77785  10.709  35.089   3.554
11245W        W77786  32.610  12.824  12.980
11246W        W77787  28.252  26.580  14.797
11247W        W77788  22.599  13.194   0.475
11248W        W77789  18.142  33.748   3.883
11249W        W77790   3.256  13.518  12.582
11250W        W77791  42.888  22.575   3.649
11251W        W77792   7.688  22.745  10.809
11252W        W77793  44.007  41.618   0.826
11253W        W77794  21.608   4.017  12.984
11254W        W77795  21.638  34.155   1.685
11255W        W77796  44.448   0.525  13.012
11256W        W77797  41.278  43.984   1.035
11257W        W77798  20.074  16.075   4.650
11258W        W77799  20.008  40.500  14.045
11259W        W77800  16.337  12.593  14.369
11260W        W77801  25.130  25.822  12.478
11261W        W77802   5.362  39.391   3.625
11262W        W77803  14.828  15.643  10.658
11263W        W77804  29.102   2.018   2.742
11264W        W77805  19.980  33.652   0.512
11265W        W77806  16.735  24.270   4.562
11266W        W77807  22.260  20.080   3.806
11267W        W77808  42.322  37.925   1.362
11268W        W77809   9.207  26.297   2.580
11269W        W77810   3.198  30.649   2.810
11270W        W77811  15.693   0.097   4.123
11271W        W77812  40.525   7.937  13.513
11272W        W77813  43.782  34.415  14.798
11273W        W77814   6.985  22.603   4.170
11274W        W77815  25.723  29.443  10.572
11275W        W77816  14.256  41.995  12.652
11276W        W77817  43.417  24.798  12.222
11277W        W77818  27.546  43.942  11.718
11278W        W77819  27.106   4.710  11.534
11279W        W77820  10.692  17.360   0.925
11280W        W77821   4.841  33.885   0.732
11281W        W77822  16.561   7.944  12.249
11282W        W77823  32.511  41.578  10.554
11283W        W77824  32.303  23.449  11.988
11284W        W77825  17.022  35.623   4.530
11285W        W77826   8.817  31.005   4.969
11286W        W77827  30.696  30.820  11.027
11287W        W77828  18.664  10.410  13.729
11288W        W77829  29.187  28.469  14.509
11289W        W77830  35.408  37.960   4.019
11290W        W77831  18.171   2.509  11.618
11291W        W77832  35.138  35.367   2.377
11292W        W77833  12.057  42.441  14.703
11293W        W77834  25.495  37.976   2.760
11294W        W77835  20.189  15.302   1.320
11295W        W77836  34.786   1.244   4.945
11296W        W77837  27.162  36.390  14.796
11297W        W77838  17.118   5.924  13.839
11298W        W77839  21.012   0.284   3.766
11299W        W77840   9.272  43.282  13.027
11300W        W77841  13.992  20.025   1.343
11301W        W77842  39.581  27.152  14.379
11302W        W77843  34.582   9.939  13.733
11303W        W77844  27.792  14.487   2.939
11304W        W77845  39.054  24.596   4.603
11305W        W77846  36.792   8.758  13.042
11306W        W77847  16.091  17.135  13.823
11307W        W77848   6.270   5.365   3.852
11308W        W77849  26.560   0.770   1.425
11309W        W77850  14.605  19.579   3.388
11310W        W77851  11.721  35.562  14.464
11311W        W77852  40.529  22.566   3.611
11312W        W77853  12.005   1.207  13.584
11313W        W77854   9.472   8.317  11.027
11314W        W77855  12.720  15.132  11.933
11315W        W77856  34.379  37.787  14.767
11316W        W77857  35.287   9.032   2.416
11317W        W77858   9.873  36.011  14.282
11318W        W77859   8.070  42.979   4.401
11319W        W77860   6.160  29.556   5.094
11320W        W77861  31.049  33.296   4.584
11321W        W77862  24.016   8.887   4.937
11322W        W77863   8.821  19.771  10.767
11323W        W77864   6.571   3.245   4.201
11324W        W77865  33.134  16.245  14.799
11325W        W77866  19.018  21.172   1.369
11326W        W77867  41.244   5.405  13.049
11327W        W77868  27.644  16.161   0.453
11328W        W77869  19.333  37.120   2.277
11329W        W77870  31.885   2.997   4.084
11330W        W77871  36.378   2.210  12.949
11331W        W77872  24.014   1.466  10.920
11332W        W77873  26.941  10.322   3.427
11333W        W77874  24.280   0.550  10.704
11334W        W77875   5.315  35.042   1.013
11335W        W77876  30.653   7.629  14.073
11336W        W77877  33.698  40.944  12.877
11337W        W77878  36.968   6.698  11.217
11338W        W77879  18.135  36.895  14.842
11339W        W77880  41.806   5.094  10.683
11340W        W77881  37.080  18.575  14.413
11341W        W77882  20.136  44.168   0.178
11342W        W77883  35.724  25.937   4.083
11343W        W77884  40.404  39.395  14.487
11344W        W77885   7.852  27.456  13.500
11345W        W77886  28.098  18.715   0.328
11346W        W77887  44.506  42.399  12.857
11347W        W77888  28.100  38.895   5.063
11348W        W77889  12.558  10.118  12.965
11349W        W77890  22.603  39.889   1.700
11350W        W77891  22.072  31.602   2.669
11351W        W77892  21.025  11.578   2.312
11352W        W77893   8.919  16.199  14.902
11353W        W77894  32.869   5.855  13.897
11354W        W77895  34.394  37.293  10.590
11355W        W77896  11.783  11.202   3.390
11356W        W77897  11.832  26.526  12.912
11357W        W77898  23.702  12.098   1.947
11358W        W77899   9.818   3.339  11.832
11359W        W77900  11.581   7.647  14.289
11360W        W77901  27.740   4.838   0.232
11361W        W77902  17.319  32.380   0.077
11362W        W77903  13.863   8.353  11.975
11363W        W77904  18.759  21.988   0.908
11364W        W77905  11.218  12.118   0.531
11365W        W77906  33.052  24.466  13.661
11366W        W77907  12.212  16.268  11.284
11367W        W77908   0.479   1.936  10.497
11368W        W77909  21.109  41.556  12.541
11369W        W77910  18.833   8.723   2.607
11370W        W77911   5.952  17.221   0.262
11371W        W77912  44.298  36.035   1.917
11372W        W77913  42.149   8.940  13.566
11373W        W77914   2.061  15.209  14.430
11374W        W77915  11.756   3.140   0.218
11375W        W77916   8.892  42.422  10.916
11376W        W77917  17.957  31.314  10.030
11377W        W77918   8.478  43.002  13.882
11378W        W77919  40.788  33.585   1.843
11379W        W77920  12.789  26.923   0.453
11380W        W77921  40.395  41.801  10.746
11381W        W77922  31.161   7.118  10.103
11382W        W77923  27.508   2.769   4.090
11383W        W77924  18.568  21.501  12.592
11384W        W77925  24.177  26.189   1.072
11385W        W77926  27.648   0.917  12.141
11386W        W77927  19.915  31.968  14.875
11387W        W77928  35.503  44.910   2.009
11388W        W77929   3.841  13.897  11.239
11389W        W77930  26.483   6.935  13.415
11390W        W77931  26.900  25.500   2.292
11391W        W77932  31.403  37.772   3.803
11392W        W77933  40.783   2.506   0.318
11393W        W77934  11.734   6.979  12.550
11394W        W77935  42.019  19.211   1.143
11395W        W77936  21.502   3.319   2.778
11396W        W77937  43.403   5.507   0.869
11397W        W77938  36.974   2.735   9.850
11398W        W77939  16.658  28.955  14.887
11399W        W77940  32.745   0.408  13.999
11400W        W77941   3.368   9.847   3.409
11401W        W77942  10.184  28.739  13.093
11402W        W77943  34.025  11.778   0.681
11403W        W77944  39.436  32.014  10.663
11404W        W77945  31.712  37.821  14.724
11405W        W77946  34.116  38.100  11.063
11406W        W77947  23.741  16.120   3.197
11407W        W77948  11.080  30.126   2.854
11408W        W77949  32.828  17.119  13.820
11409W        W77950  11.068  15.569   1.143
11410W        W77951  32.003  21.699   2.825
11411W        W77952  11.627  32.343   3.554
11412W        W77953  39.155  18.456   5.007
11413W        W77954   4.956  32.661   0.182
11414W        W77955   0.353   3.487  11.021
11415W        W77956  29.172  31.897   0.712
11416W        W77957  43.521  38.494   3.329
11417W        W77958   3.941   4.020  14.897
11418W        W77959   0.479  38.400   0.907
11419W        W77960   8.438   2.755  13.042
11420W        W77961  35.145  31.841  13.703
11421W        W77962   8.611  34.934  12.120
11422W        W77963  44.498  30.446   1.723
11423W        W77964   0.038  24.621  13.922
11424W        W77965  10.240   3.671   3.212
11425W        W77966  31.135  31.856  12.512
11426W        W77967  42.587  29.529   2.804
11427W        W77968  19.231  40.343   2.216
11428W        W77969  20.638   9.981   2.363
11429W        W77970   1.318   2.139   3.619
11430W        W77971  39.737  31.481  14.993
11431W        W77972   3.468  29.036  13.595
11432W        W77973  26.133  33.399   1.205
11433W        W77974   9.980   0.517  11.950
11434W        W77975  26.172  12.850  10.550
11435W        W77976   3.451  21.045  10.724
11436W        W77977  32.286  30.894   0.903
11437W        W77978   0.894  37.343   5.018
11438W        W77979  22.126  41.523   0.612
11439W        W77980  14.364   8.349  11.979
11440W        W77981  37.064  23.514  10.514
11441W        W77982  15.548  20.313   2.896
11442W        W77983   2.780  40.843  10.638
11443W        W77984   8.192   2.906   2.668
11444W        W77985  43.772  38.924   3.420
11445W        W77986  11.391  38.866  10.186
11446W        W77987   5.463  28.112   2.376
11447W        W77988  38.156   1.404  11.900
11448W        W77989  18.848  11.688   1.762
11449W        W77990  29.255  21.700   0.572
11450W        W77991  26.582  12.438  14.665
11451W        W77992  43.075  38.995  14.882
11452W        W77993  21.027  24.935   1.425
11453W        W77994  41.864  12.265  12.412
11454W        W77995  12.792   5.279  13.608
11455W        W77996   6.028  32.141   3.347
11456W        W77997  16.772  31.901   4.943
11457W        W77998  24.428  17.531  10.786
11458W        W77999  42.760   2.416  12.375
11459W        W78000  18.278  42.738   3.469
11460W        W78001  26.079  43.866   2.633
11461W        W78002  42.998  27.216   2.331
11462W        W78003  35.537  37.207  11.907
11463W        W78004   4.125  22.623  12.596
11464W        W78005  34.591  37.387  12.432
11465W        W78006  28.965  39.851   0.462
11466W        W78007  43.882  39.129  10.991
11467W        W78008  27.097  17.249   3.796
11468W        W78009  22.980  27.330   1.139
11469W        W78010   0.719  21.201  14.670
11470W        W78011   6.845  37.440  12.914
11471W        W78012  22.095   4.463  12.738
11472W        W78013  39.439  22.398  11.251
11473W        W78014   1.477  31.012   2.896
11474W        W78015  43.876   6.356  11.951
11475W        W78016   3.711  31.614   1.753
11476W        W78017  32.886   3.352   0.518
11477W        W78018   4.102  21.089  13.772
11478W        W78019  25.234  24.079  14.298
11479W        W78020  35.904  27.241  13.784
11480W        W78021  10.273  33.058   3.791
11481W        W78022  28.929  28.513  12.371
11482W        W78023  35.612  10.648  14.072
11483W        W78024  20.697  22.067   2.332
11484W        W78025  22.571  41.616  11.554
11485W        W78026  14.560  32.345  14.729
11486W        W78027   7.276  19.301   2.790
11487W        W78028  39.817  37.274   1.456
11488W        W78029  22.699  41.422  12.043
11489W        W78030  39.876  22.627   0.479
11490W        W78031   8.860  15.475   4.895
11491W        W78032   8.187   4.812  11.687
11492W        W78033  29.844  14.133   0.490
11493W        W78034  31.163   2.500   1.320
11494W        W78035  32.796  23.155  13.432
11495W        W78036  44.420   4.549  11.227
11496W        W78037  32.868  22.002  11.824
11497W        W78038  29.489  12.042   2.279
11498W        W78039   0.543  24.567  13.849
11499W        W78040  43.629  39.564  14.569
11500W        W78041  14.878  16.354   3.680
11501W        W78042   9.411  18.095  10.259
11502W        W78043  39.366  17.539  13.343
11503W        W78044  17.941  17.495  12.816
11504W        W78045  41.836  22.542   1.195
11505W        W78046  20.445  12.517  13.438
11506W        W78047  34.473  36.585  12.887
11507W        W78048  43.475  15.152   4.160
11508W        W78049   6.100  34.993   3.624
11509W        W78050  40.344  12.551   0.788
11510W        W78051   4.454  44.641  13.844
11511W        W78052  26.646  33.496  13.978
11512W        W78053   1.906  13.484  11.172
11513W        W78054  40.463  24.389  12.359
11514W        W78055  22.107  37.393   4.244
11515W        W78056  13.753  40.485   3.529
11516W        W78057   7.577  27.402   1.001
11517W        W78058  25.677  31.400  13.958
11518W        W78059  13.201  36.875  12.075
11519W        W78060  35.080  39.374  13.904
11520W        W78061   1.564  41.033   4.247
11521W        W78062  34.949  13.554   2.682
11522W        W78063  40.910   4.947  11.920
11523W        W78064   9.199   9.697  11.049
11524W        W78065   9.802   3.872  13.893
11525W        W78066  28.004  16.310  14.089
11526W        W78067   0.998   5.737   0.873
11527W        W78068  21.320  23.011   0.701
11528W        W78069  22.053  44.291   3.785
11529W        W78070  24.248   9.400  11.892
11530W        W78071  40.723   8.588   4.579
11531W        W78072  20.292  41.880   3.559
11532W        W78073  43.498  40.625   4.909
11533W        W78074  18.137  15.082   0.249
11534W        W78075  37.385  17.385  14.038
11535W        W78076  13.367  43.240  12.488
11536W        W78077  25.593  33.543   3.663
11537W        W78078  14.351  39.064  14.622
11538W        W78079  26.373   2.339   3.733
11539W        W78080  31.280  32.483  13.732
11540W        W78081  16.531  37.047  14.448
11541W        W78082  39.947  10.311   3.810
11542W        W78083  44.805   0.935   4.466
11543W        W78084  23.580  22.791  13.985
11544W        W78085  14.226  43.940  11.668
11545W        W78086  34.297  22.552  10.875
11546W        W78087   9.790   0.959   4.209
11547W        W78088   3.523  32.485   0.790
11548W        W78089  28.952   3.418   4.506
11549W        W78090  16.214  28.246  13.044
11550W        W78091  30.524  37.322  12.419
11551W        W78092  41.989  29.426  13.520
11552W        W78093  16.802  28.079  13.930
11553W        W78094  39.824  33.018  12.919
11554W        W78095  31.333  12.870   0.203
11555W        W78096  38.873   2.058   3.052
11556W        W78097   0.490  38.032  11.877
11557W        W78098  20.906  10.247  10.492
11558W        W78099  31.005  21.972  12.500
11559W        W78100  10.065  35.469   0.726
11560W        W78101   4.239  27.010  12.210
11561W        W78102  41.343  34.358   0.792
11562W        W78103   2.087  12.916  12.956
11563W        W78104  30.669   1.359  11.995
11564W        W78105  38.379  32.886  13.860
11565W        W78106  27.921  42.114   1.634
11566W        W78107  25.119  11.516  11.236
11567W        W78108  41.331  38.359  13.776
11568W        W78109  34.667   7.271   1.360
11569W        W78110  42.914   4.789   5.389
11570W        W78111  20.020  37.475   2.475
11571W        W78112  38.705  42.218   3.655
11572W        W78113   9.427  43.043  12.536
11573W        W78114  22.061  29.883   3.225
11574W        W78115  23.578  14.661   0.901
11575W        W78116  27.688  38.830  13.436
11576W        W78117  40.433   7.784  12.553
11577W        W78118  34.966  36.931  13.767
11578W        W78119  14.296  36.532   2.647
11579W        W78120   0.367  40.021  10.875
11580W        W78121  24.052  25.630  13.960
11581W        W78122   5.401  20.294   4.258
11582W        W78123   7.957  42.080   0.926
11583W        W78124   3.218  43.230  13.153
11584W        W78125  13.827  16.656   0.811
11585W        W78126  28.127   2.451   2.731
11586W        W78127  32.981  18.661  12.895
11587W        W78128  37.721  31.888   5.105
11588W        W78129   2.886  30.616  11.572
11589W        W78130  36.063  18.635   3.291
11590W        W78131  17.463   7.599  13.875
11591W        W78132   9.695  31.646   2.250
11592W        W78133   9.862   2.331   2.459
11593W        W78134   9.051  29.920  14.217
11594W        W78135  40.976   2.746   2.214
11595W        W78136  13.826  13.178   2.376
11596W        W78137  36.634   8.259  13.308
11597W        W78138  25.110   7.498   1.607
11598W        W78139  32.869   7.778  14.585
11599W        W78140   9.107  18.080  11.099
11600W        W78141   6.317  32.614   3.197
11601W        W78142  10.062  17.136  12.289
11602W        W78143   6.779  11.832  13.349
11603W        W78144  19.148   8.702   3.771
11604W        W78145  31.116   9.622   1.282
11605W        W78146   8.920  22.343   1.861
11606W        W78147  32.586   2.781   1.112
11607W        W78148  36.399  15.563  14.327
11608W        W78149   1.281  17.125  11.199
11609W        W78150  41.974  33.430   2.405
11610W        W78151  28.153  17.601  13.317
11611W        W78152  37.798  28.652   4.158
11612W        W78153  41.793   7.774  12.445
11613W        W78154   9.824  22.887  12.958
11614W        W78155  13.042   7.457   2.748
11615W        W78156  42.550  43.745  10.940
11616W        W78157  27.639  36.991  11.116
11617W        W78158  21.994  16.255  10.430
11618W        W78159  10.411  31.582  11.203
11619W        W78160  13.546  18.022  11.597
11620W        W78161  35.283  33.089  14.864
11621W        W78162  24.659  16.352  11.087
11622W        W78163  36.831  30.633   3.619
11623W        W78164  19.278  36.789   3.627
11624W        W78165  33.998  31.765   2.362
11625W        W78166   8.487   7.028  11.116
11626W        W78167  18.795  44.776   2.223
11627W        W78168  17.839  17.189  11.548
11628W        W78169  28.649  42.433  12.586
11629W        W78170   5.683  42.809  13.045
11630W        W78171   2.419  12.772   0.128
11631W        W78172  39.172   8.475  12.515
11632W        W78173  29.587  22.618   1.364
11633W        W78174  42.143   5.989  14.508
11634W        W78175   6.437  34.504  11.166
11635W        W78176  37.254   0.218   2.787
11636W        W78177  21.700  15.782   1.828
11637W        W78178  30.885   4.809   1.300
11638W        W78179   5.816  11.768  12.564
11639W        W78180  34.438  26.892   0.094
11640W        W78181  15.614   4.662   3.184
11641W        W78182  10.622  22.969   4.732
11642W        W78183  16.737  32.334   3.757
11643W        W78184  40.904  10.056   2.699
11644W        W78185  21.462   9.469   3.163
11645W        W78186  29.288  31.007   1.892
11646W        W78187  11.663  34.009   1.402
11647W        W78188  43.844  42.106   0.814
11648W        W78189  18.546   4.300  13.070
11649W        W78190  16.965  38.851   4.506
11650W        W78191  29.534   4.736  12.996
11651W        W78192  44.806  27.691   0.473
11652W        W78193  26.988  25.579   3.671
11653W        W78194  15.804  40.821  11.670
11654W        W78195  11.603  41.288   4.978
11655W        W78196  32.582  20.877   0.728
11656W        W78197  15.009   7.293   4.101
11657W        W78198  20.554   1.487   1.274
11658W        W78199  14.579  41.278  14.942
11659W        W78200  20.776  29.138  14.319
11660W        W78201  35.865  14.291  12.159
11661W        W78202  31.572  10.753  13.811
11662W        W78203  28.961  39.315  13.071
11663W        W78204  24.635  25.939  11.248
11664W        W78205  17.048  23.087  10.557
11665W        W78206  35.128  14.199  10.630
11666W        W78207  16.390  33.375  10.011
11667W        W78208  18.415   9.073  13.745
11668W        W78209  41.465   0.675   1.965
11669W        W78210  29.092  24.016   2.251
11670W        W78211   6.680  23.540   1.755
11671W        W78212  42.041  37.922  13.460
11672W        W78213   4.634  35.106  12.672
11673W        W78214  27.754  28.892   2.428
11674W        W78215  41.000  12.431   1.887
11675W        W78216  43.873  36.907  13.516
11676W        W78217  42.413  44.519   2.797
11677W        W78218  43.019  43.413  11.041
11678W        W78219  18.505  43.154  14.910
11679W        W78220  16.735  12.087  12.161
11680W        W78221  37.440  27.925  12.813
11681W        W78222  33.711  20.836  10.721
11682W        W78223   5.406   9.370   4.523
11683W        W78224   3.191  27.629   2.218
11684W        W78225  28.269  22.662  11.470
11685W        W78226  14.638   5.123  13.970
11686W        W78227  20.120  15.431  13.044
11687W        W78228   1.953  26.199   1.664
11688W        W78229  28.662  29.858   2.372
11689W        W78230  31.141  15.110  11.572
11690W        W78231  16.498  19.609  11.121
11691W        W78232   1.850  27.712  14.944
11692W        W78233   3.772  41.518   1.488
11693W        W78234  16.811  18.080   2.676
11694W        W78235  30.461  18.168   4.589
11695W        W78236  14.244   4.359   1.302
11696W        W78237  23.250  23.461  13.957
11697W        W78238  11.673  40.687  10.659
11698W        W78239  28.538  24.875  12.345
11699W        W78240  17.835   2.379  14.608
11700W        W78241   4.697  30.476   3.615
11701W        W78242   2.746  14.064  14.390
11702W        W78243  29.990   0.025  10.567
11703W        W78244  16.232  38.738  11.212
11704W        W78245  26.428  38.161  11.627
11705W        W78246  10.341  14.888   4.128
11706W        W78247   2.714  41.092   0.813
11707W        W78248  18.882  20.140   3.919
11708W        W78249   4.942  16.544   2.292
11709W        W78250  26.678  37.907   4.033
11710W        W78251  17.292  43.396  13.894
11711W        W78252  27.440  36.750   3.771
11712W        W78253   5.293  15.717  11.087
11713W        W78254  29.497  29.644  13.362
11714W        W78255  15.276  14.382  13.046
11715W        W78256  14.827  44.769   1.696
11716W        W78257   7.468  24.277   4.093
11717W        W78258  40.401  20.172   1.708
11718W        W78259  12.853   5.811   4.107
11719W        W78260  42.615  36.030  11.487
11720W        W78261  31.416  19.744  12.126
11721W        W78262  22.047  12.415   2.341
11722W        W78263  25.670  26.539   1.424
11723W        W78264   3.704   2.761  13.570
11724W        W78265  33.234  44.911  13.999
11725W        W78266  34.596  18.730   2.407
11726W        W78267  31.556  25.652   3.143
11727W        W78268  28.999  11.068   3.327
11728W        W78269  39.219  40.394   4.723
11729W        W78270  40.521   1.283   1.644
11730W        W78271  13.342   4.728  13.959
11731W        W78272  37.250  16.793   0.307
11732W        W78273  19.504   4.834  12.973
11733W        W78274  19.518   8.347   0.365
11734W        W78275  37.946   8.785  12.086
11735W        W78276  40.605  32.151  11.134
11736W        W78277  13.498  38.448  10.823
11737W        W78278  29.882   1.861  11.113
11738W        W78279  21.070  14.395   1.881
11739W        W78280  20.003  13.198  12.613
11740W        W78281  40.933  31.811  11.480
11741W        W78282  30.613  32.643  13.340
11742W        W78283  24.257   9.131   4.473
11743W        W78284  16.199  15.789  10.687
11744W        W78285  36.341  29.582  12.070
11745W        W78286   0.246  11.207   4.559
11746W        W78287  34.892  38.485  13.449
11747W        W78288   7.819   1.274   9.766
11748W        W78289  20.378  42.824   2.333
11749W        W78290  13.478  22.738   1.942
11750W        W78291   5.487  43.395  13.764
11751W        W78292   6.689  13.307  10.732
11752W        W78293  44.695   3.044  14.729
11753W        W78294  21.252  43.774  14.417
11754W        W78295  32.462  12.166  10.148
11755W        W78296  24.619  32.737   4.063
11756W        W78297  17.087  37.801   2.210
11757W        W78298  37.498  37.235  11.020
11758W        W78299   1.881  22.415  13.075
11759W        W78300  33.423  12.527   5.084
11760W        W78301   3.747  36.600   5.084
11761W        W78302  28.411   5.497  14.426
11762W        W78303  25.030  38.560   0.217
11763W        W78304  34.697  35.598   2.244
11764W        W78305   6.111  33.410   1.949
11765W        W78306  29.569  11.568  10.294
11766W        W78307   6.233  34.665  12.853
11767W        W78308  34.817  14.363   2.233
11768W        W78309   1.952  27.039   4.560
11769W        W78310  43.273   6.838  10.829
11770W        W78311  16.959  42.523   1.509
11771W        W78312   9.234  27.687  12.401
11772W        W78313  18.691  19.691  14.007
11773W        W78314  10.959  32.828  13.470
11774W        W78315  30.812  11.159  11.495
11775W        W78316  22.225  11.644   4.668
11776W        W78317  30.516  17.166   3.656
11777W        W78318  11.912  13.823   1.683
11778W        W78319  37.432  13.414   5.070
11779W        W78320  10.253  24.231  12.986
11780W        W78321  27.129  14.678   5.525
11781W        W78322  23.118  11.393   4.231
11782W        W78323  30.051  17.606   4.631
11783W        W78324   9.710  36.276  13.885
11784W        W78325  28.005  25.829  12.930
11785W        W78326   8.293  15.196  13.056
11786W        W78327  11.706  24.964  13.057
11787W        W78328  17.493  22.180  13.032
11788W        W78329  31.533  35.478  13.033
11789W        W78330  35.261  16.308  11.600
11790W        W78331  32.390   3.933  11.514
11791W        W78332  39.363   4.976  10.978
11792W        W78333  36.027  19.264   1.837
11793W        W78334  26.029  21.225   3.640
11794W        W78335   8.673  38.972   2.742
11795W        W78336  26.967   3.705  12.543
11796W        W78337  12.364   8.080  12.963
11797W        W78338  30.047  31.400   3.739
11798W        W78339  24.329  37.035  11.663
11799W        W78340  26.485  19.232  14.260
11800W        W78341  29.648  27.121   1.515
11801W        W78342  24.662  28.147   1.300
11802W        W78343  43.509  41.741  13.626
11803W        W78344  11.814  21.897   4.235
11804W        W78345  38.814  24.174   4.782
11805W        W78346  34.039  40.818   2.441
11806W        W78347  12.751   5.329  14.493
11807W        W78348  30.570  40.980  11.846
11808W        W78349  25.479  21.315  14.708
11809W        W78350  36.144  12.453  13.971
11810W        W78351  30.074  42.654   3.748
11811W        W78352  37.972  31.379   0.435
11812W        W78353  28.963   5.572  14.774
11813W        W78354   2.291  26.492   2.357
11814W        W78355  38.857  24.747  12.094
11815W        W78356  28.488  13.277   0.507
11816W        W78357  36.077  13.415   3.039
11817W        W78358  12.904  20.482   3.237
11818W        W78359   4.792  15.791  14.270
11819W        W78360  20.886  44.446   1.823
11820W        W78361  44.489  36.089  13.421
11821W        W78362  40.867  25.581  10.568
11822W        W78363  35.630   7.224  13.100
11823W        W78364  13.673   9.781   0.736
11824W        W78365  31.331  11.595   0.672
11825W        W78366  23.313  21.839   4.310
11826W        W78367  23.650  11.308  14.616
11827W        W78368  14.861   9.550   0.534
11828W        W78369  44.726   0.732   1.878
11829W        W78370  34.847   8.566  11.208
11830W        W78371  19.319  22.764   4.502
11831W        W78372  23.665   8.317   5.441
11832W        W78373  40.980  41.558   0.761
11833W        W78374  11.658  28.645   0.786
11834W        W78375  38.045   3.922   4.722
11835W        W78376  28.193   2.679   3.221
11836W        W78377  26.016   6.153   2.264
11837W        W78378   8.806  39.863   1.813
11838W        W78379  21.591   5.629   2.274
11839W        W78380  43.046  20.108  10.739
11840W        W78381  15.556  43.366  13.500
11841W        W78382  10.757  10.013  12.906
11842W        W78383  36.384  38.367  13.235
11843W        W78384  14.620  20.004   0.193
11844W        W78385  36.619  26.043  11.557
11845W        W78386  32.711  35.693  13.514
11846W        W78387  30.121  25.240   3.602
11847W        W78388  24.672  20.592   3.713
11848W        W78389  18.025   2.932   3.133
11849W        W78390  24.114  34.871   3.761
11850W        W78391  23.021  16.283  12.739
11851W        W78392  28.407  35.309  13.020
11852W        W78393   8.372  38.493   2.845
11853W        W78394  11.641   1.846  10.643
11854W        W78395  42.598  25.673   3.842
11855W        W78396  24.549  20.901   1.698
11856W        W78397  13.069  18.028   1.240
11857W        W78398  16.834  16.439  13.992
11858W        W78399  24.254   7.677   2.745
11859W        W78400   7.339  11.197  11.994
11860W        W78401  18.714  29.065   1.021
11861W        W78402  11.121  20.449  12.057
11862W        W78403  10.704  39.299  13.425
11863W        W78404  24.961  39.804  14.869
11864W        W78405  21.001  33.908   3.660
11865W        W78406  10.095  21.153  13.960
11866W        W78407  16.644  28.949   0.863
11867W        W78408  17.888  40.794   0.818
11868W        W78409   3.421  40.576   0.684
11869W        W78410  11.383  16.075   1.508
11870W        W78411  40.024  42.927  11.901
11871W        W78412  19.254  20.625  11.153
11872W        W78413   2.837  28.561  11.508
11873W        W78414  17.828  24.334  11.974
11874W        W78415  16.377  30.183  13.629
11875W        W78416  15.185  15.785   0.748
11876W        W78417   3.199  15.247  12.903
11877W        W78418  23.743  43.885  10.672
11878W        W78419  42.727  40.721   2.309
11879W        W78420  11.183  15.624   1.653
11880W        W78421  29.159  34.629  11.086
11881W        W78422  10.870  17.832  14.110
11882W        W78423  25.033  31.933   1.792
11883W        W78424  34.952  36.977  14.292
11884W        W78425  15.532   5.515   1.888
11885W        W78426  36.032  24.281  10.719
11886W        W78427  19.679  22.295   4.234
11887W        W78428  11.306   1.258  11.422
11888W        W78429  32.237  27.726   1.608
11889W        W78430  24.636  25.618   3.707
11890W        W78431   9.946  19.242   1.333
11891W        W78432  19.529  32.518   1.117
11892W        W78433  43.949  14.103  14.340
11893W        W78434  27.965   5.616   4.533
11894W        W78435  37.575   9.665   0.925
11895W        W78436   9.085  10.117   1.770
11896W        W78437   8.300  31.058  11.607
11897W        W78438  40.138  22.841  11.794
11898W        W78439   0.391  30.797   9.824
11899W        W78440  42.891  13.113   0.232
11900W        W78441   4.968  10.209   3.163
11901W        W78442  16.247  14.830  10.817
11902W        W78443  36.861  21.025   0.333
11903W        W78444  43.941  36.859   2.266
11904W        W78445   0.776   0.134  13.995
11905W        W78446  11.179  43.843  13.491
11906W        W78447   1.912  37.880   3.279
11907W        W78448  43.315  37.544   0.171
11908W        W78449  44.521   0.270  10.455
11909W        W78450  43.426  30.854  12.838
11910W        W78451  34.812  32.849  14.813
11911W        W78452  27.454  19.758   0.844
11912W        W78453  29.105  17.424   0.813
11913W        W78454  44.254  41.069   1.425
11914W        W78455  28.584  31.250   4.617
11915W        W78456   0.282  25.618  13.430
11916W        W78457   9.870  18.293  12.438
11917W        W78458  20.488  42.296   4.893
11918W        W78459  13.403  42.319  12.484
11919W        W78460  32.548  44.576  12.649
11920W        W78461   5.872  32.146  14.319
11921W        W78462   9.054  42.844  12.862
11922W        W78463  37.292  35.831  13.682
11923W        W78464  37.678  15.532  11.849
11924W        W78465  11.554   7.432  11.189
11925W        W78466  15.021  13.227  11.770
11926W        W78467  19.042  40.672  13.441
11927W        W78468   1.304   7.372  12.105
11928W        W78469  24.954  33.905   4.860
11929W        W78470  43.149  20.624   4.951
11930W        W78471  20.222  20.150  13.976
11931W        W78472   7.719  29.632   1.813
11932W        W78473  20.657   8.826  11.411
11933W        W78474  26.528  35.562   1.993
11934W        W78475   2.763  40.126  11.086
11935W        W78476  24.130   6.627   0.413
11936W        W78477  36.644  31.612  12.555
11937W        W78478  42.457  16.280   0.310
11938W        W78479   5.764  11.471   2.222
11939W        W78480  28.015  36.915   4.348
11940W        W78481  44.940   0.511  12.884
11941W        W78482   2.860   7.442   3.802
11942W        W78483   2.146  25.061  11.170
11943W        W78484  31.490  40.278  12.872
11944W        W78485  41.509   6.957  12.873
11945W        W78486  26.520   5.887   0.957
11946W        W78487   6.703   9.407  12.137
11947W        W78488   0.380  14.067   1.474
11948W        W78489  16.804  15.315  13.006
11949W        W78490   1.742   3.209   0.981
11950W        W78491   2.705  20.663  11.276
11951W        W78492  15.067   7.239  14.267
11952W        W78493  15.196   2.677   1.668
11953W        W78494  34.922   1.337  12.459
11954W        W78495  44.404  21.232  14.375
11955W        W78496  21.335  27.704  13.760
11956W        W78497  42.189   4.798   4.100
11957W        W78498  41.820  40.856   1.136
11958W        W78499  44.210  30.551   3.664
11959W        W78500  33.618  44.335   0.455
11960W        W78501  23.259  18.687  11.570
11961W        W78502  11.608   2.695   0.448
11962W        W78503  37.524  18.307  11.534
11963W        W78504  22.723  26.183  12.107
11964W        W78505  20.814  13.248  13.069
11965W        W78506  33.038  30.304   4.148
11966W        W78507   4.663  11.836  11.432
11967W        W78508  33.969  12.307  11.082
11968W        W78509  11.268  39.372   3.189
11969W        W78510   9.695  28.988  13.754
11970W        W78511  31.373  13.064   2.828
11971W        W78512   6.415  28.573  12.909
11972W        W78513  14.222  11.163  13.049
11973W        W78514  37.551  43.538   3.643
11974W        W78515  44.982   3.980  13.785
11975W        W78516  42.924  25.177  13.494
11976W        W78517  18.150  29.433  11.219
11977W        W78518  32.495  12.539   3.800
11978W        W78519  29.136  28.700  11.961
11979W        W78520  35.687  22.706   1.121
11980W        W78521  27.111  21.015   3.678
11981W        W78522  16.304  22.572  11.451
11982W        W78523  25.244   7.356  14.817
11983W        W78524  38.028  20.699   3.816
11984W        W78525  38.024  26.962  14.377
11985W        W78526   9.206  11.838  11.312
11986W        W78527  10.160  27.512   0.700
11987W        W78528  27.172  39.716  12.572
11988W        W78529  37.168  38.733   4.216
11989W        W78530  11.078  23.067  11.432
11990W        W78531   5.298  22.476  12.447
11991W        W78532  39.271  30.830   2.697
11992W        W78533  37.696   3.809   5.101
11993W        W78534  40.468  27.451   0.233
11994W        W78535  20.717  16.734  14.728
11995W        W78536  22.718  23.440   3.816
11996W        W78537  22.757   8.406   2.486
11997W        W78538   0.234  15.387   1.722
11998W        W78539  24.094  24.397  10.648
11999W        W78540  28.047   4.858   2.492
12000W        W78541   4.237  24.168   1.962
12001W        W78542  32.324  42.527   2.454
12002W        W78543   1.059  21.554   0.051
12003W        W78544  44.490  40.537  13.868
12004W        W78545  12.366   2.634   5.007
12005W        W78546  25.008  40.491   3.626
12006W        W78547  37.638  31.619  10.560
12007W        W78548   8.148   0.486   4.515
12008W        W78549  23.271  13.190  13.130
12009W        W78550   7.280  11.814   4.148
12010W        W78551  42.294  21.166   3.168
12011W        W78552  35.608   9.326  14.964
12012W        W78553  14.438  16.709  11.174
12013W        W78554   2.699  42.348   4.308
12014W        W78555  39.942   2.911   4.835
12015W        W78556   0.087  33.517  14.642
12016W        W78557  20.392  43.307   0.747
12017W        W78558  35.936   1.235  14.293
12018W        W78559  10.299  29.528  13.144
12019W        W78560   5.809  30.061   2.897
12020W        W78561   6.762  41.838  14.503
12021W        W78562  18.747  41.500  13.768
12022W        W78563  38.104  19.329  13.818
12023W        W78564  42.049  23.787   3.741
12024W        W78565  23.063   8.878  14.383
12025W        W78566  42.031  17.819  11.588
12026W        W78567  33.392   7.307   2.739
12027W        W78568  44.400  38.157  13.361
12028W        W78569   0.228  33.038   0.070
12029W        W78570  40.253   9.492   0.812
12030W        W78571   1.539  23.107   1.741
12031W        W78572  31.066  36.627  13.503
12032W        W78573  38.388  31.976  11.467
12033W        W78574  38.475  19.506   1.898
12034W        W78575   3.219  35.643   3.754
12035W        W78576  18.086  22.425   3.737
12036W        W78577  16.765  21.114   4.239
12037W        W78578  29.052  43.385   1.270
12038W        W78579  38.032   1.809  10.651
12039W        W78580  26.616  17.575  11.848
12040W        W78581  23.729  25.176  14.974
12041W        W78582  25.994  38.926   0.925
12042W        W78583   7.629   0.473  14.312
12043W        W78584  39.429   0.376  14.990
12044W        W78585  13.752  27.607  14.558
12045W        W78586   2.771  24.511  13.241
12046W        W78587  29.465  31.842  12.297
12047W        W78588   4.165  29.561   3.746
12048W        W78589  25.309  41.089  12.491
12049W        W78590  29.869  29.408   2.203
12050W        W78591   4.688  36.442   3.163
12051W        W78592  41.456  38.935   4.418
12052W        W78593  37.828  42.208  14.819
12053W        W78594   1.796  42.319  12.838
12054W        W78595  38.857  24.989  11.486
12055W        W78596  14.986  43.256   1.945
12056W        W78597  24.535  22.791  11.466
12057W        W78598  24.666  44.789   3.283
12058W        W78599  25.066  36.983   0.327
12059W        W78600  24.793   5.887   4.117
12060W        W78601  25.467  22.654  13.015
12061W        W78602   4.304   8.470  13.759
12062W        W78603  27.731  30.043  14.257
12063W        W78604  28.410  42.736   0.342
12064W        W78605  33.837  40.080  13.848
12065W        W78606   3.284   3.782  12.599
12066W        W78607  44.790  15.553  13.454
12067W        W78608  36.939  19.714  14.847
12068W        W78609  13.796   7.332  13.544
12069W        W78610  10.445  18.372   4.024
12070W        W78611  34.140  27.058   3.941
12071W        W78612  29.723  17.863  14.467
12072W        W78613   2.431  19.830  14.543
12073W        W78614  42.534   1.335  14.179
12074W        W78615  11.571  44.702   0.422
12075W        W78616  33.379  18.371   4.486
12076W        W78617  26.708  30.991   0.876
12077W        W78618   1.649  43.276   4.317
12078W        W78619  41.416   3.919   2.440
12079W        W78620   2.963   9.849  12.003
12080W        W78621  33.460  15.664   1.839
12081W        W78622  27.505  41.345  10.999
12082W        W78623   6.478  43.959  12.004
12083W        W78624  20.158   1.453   2.799
12084W        W78625  26.641  37.924  13.833
12085W        W78626  31.600  26.279  14.153
12086W        W78627  16.499   9.546   3.746
12087W        W78628  39.527  20.796   3.710
12088W        W78629   8.331  44.944  13.960
12089W        W78630  40.365  41.335   9.889
12090W        W78631  28.668  35.697  12.494
12091W        W78632   5.930  23.290   3.557
12092W        W78633  32.970  40.233  12.071
12093W        W78634  44.629  12.717   9.913
12094W        W78635  44.771   6.371   3.095
12095W        W78636  18.009  42.524   1.412
12096W        W78637  20.177  36.763   4.501
12097W        W78638  35.609  14.853  13.553
12098W        W78639  18.123   9.160   0.842
12099W        W78640  19.005   6.641   2.262
12100W        W78641  38.292  33.542  14.909
12101W        W78642  42.421  29.967  12.368
12102W        W78643  23.725  31.902   3.527
12103W        W78644  28.175  38.859  13.278
12104W        W78645  34.483  15.574   4.392
12105W        W78646  30.199  38.744  12.013
12106W        W78647  14.069  37.997  12.929
12107W        W78648  24.295   8.704  14.435
12108W        W78649   6.629  43.046   2.732
12109W        W78650  22.697  35.305   1.394
12110W        W78651  11.337  32.032   4.652
12111W        W78652  44.418   9.915   1.223
12112W        W78653  14.501   4.189  13.887
12113W        W78654   4.221  20.096   3.321
12114W        W78655  37.712  14.283   4.582
12115W        W78656  18.025  20.570   0.847
12116W        W78657  16.128  26.291   0.559
12117W        W78658  35.920  43.827  12.048
12118W        W78659   8.737   7.712   3.188
12119W        W78660  41.109  37.042  13.108
12120W        W78661  31.473  44.832   4.031
12121W        W78662  41.764  26.529  10.177
12122W        W78663   2.112  21.209   0.729
12123W        W78664  21.205  28.063   4.566
12124W        W78665  15.710   7.017  11.955
12125W        W78666  39.394   5.443  10.634
12126W        W78667  33.919   9.938  13.517
12127W        W78668  36.780  32.387  12.003
12128W        W78669   3.431  25.758  14.450
12129W        W78670   4.900  17.295  11.638
12130W        W78671  32.475  19.025   1.297
12131W        W78672  33.546  37.638   2.280
12132W        W78673  21.450  40.934  10.697
12133W        W78674  22.461  38.539   4.439
12134W        W78675  43.369  14.265   1.427
12135W        W78676  39.110  11.933  13.894
12136W        W78677  17.119  17.178   2.154
12137W        W78678  44.105  40.994   4.746
12138W        W78679  19.636  36.178   2.500
12139W        W78680  13.833  21.508   0.842
12140W        W78681  43.032   0.615   3.581
12141W        W78682  15.704  11.630  14.057
12142W        W78683  31.644  15.831  14.396
12143W        W78684  29.137   2.526  11.933
12144W        W78685   9.123  40.337  14.416
12145W        W78686  30.931   2.225  12.400
12146W        W78687  39.007   4.635   4.909
12147W        W78688   6.124  28.414  13.348
12148W        W78689  28.507   4.728   0.696
12149W        W78690  41.052   1.681  12.139
12150W        W78691  14.130  16.824   3.209
12151W        W78692   8.208  23.216  14.816
12152W        W78693  39.425  19.010  10.650
12153W        W78694  27.917  32.033  13.871
12154W        W78695  25.207  42.850   1.797
12155W        W78696  39.072  30.017   3.356
12156W        W78697   5.238   6.434  12.820
12157W        W78698  16.757  15.904  14.042
12158W        W78699   1.370  22.685  10.591
12159W        W78700  35.322   7.751   4.635
12160W        W78701  44.375  40.366   1.905
12161W        W78702  38.336   4.349  14.556
12162W        W78703   3.225  10.250   0.194
12163W        W78704  16.783  34.735  11.577
12164W        W78705  22.049  10.233   1.629
12165W        W78706   4.849  42.348  10.938
12166W        W78707  26.029  25.033  13.356
12167W        W78708  22.420  42.445   1.846
12168W        W78709  31.450  20.573   4.399
12169W        W78710  12.009   9.684  11.102
12170W        W78711  17.113  29.504   2.880
12171W        W78712   4.240  23.201   1.866
12172W        W78713   8.481  21.624  12.071
12173W        W78714   5.966  27.697  14.932
12174W        W78715  23.154   9.066   5.004
12175W        W78716   8.218  31.487  11.898
12176W        W78717  34.885  44.952  12.396
12177W        W78718  18.222  24.184  12.843
12178W        W78719   8.545  19.070  14.725
12179W        W78720  39.692  24.605   2.697
12180W        W78721  31.779  14.439   0.409
12181W        W78722   9.739  29.391   0.041
12182W        W78723  29.439   4.243   3.673
12183W        W78724  21.640  10.636  13.284
12184W        W78725  28.430  35.926   2.358
12185W        W78726  37.701  16.036   1.843
12186W        W78727  33.544  17.165   3.639
12187W        W78728  33.984  20.366   3.185
12188W        W78729  10.689  43.809   0.293
12189W        W78730  17.503  31.769  10.003
12190W        W78731  37.175  30.730  12.836
12191W        W78732  24.738  30.885   4.157
12192W        W78733  32.402  22.691  10.690
12193W        W78734  20.097   3.165   2.383
12194W        W78735  42.345  19.623   1.399
12195W        W78736  27.185  37.450   2.225
12196W        W78737  41.950  29.015   1.275
12197W        W78738  16.042  29.274   1.228
12198W        W78739  12.569  31.900   0.355
12199W        W78740  37.868  26.472   4.232
12200W        W78741  14.667  34.081  14.455
12201W        W78742  23.527  39.351  12.081
12202W        W78743  17.438   7.914   0.220
12203W        W78744  28.541   2.095   2.777
12204W        W78745  24.102  42.840  13.068
12205W        W78746  22.824  22.102   4.387
12206W        W78747  41.351  24.574  12.898
12207W        W78748  32.115  40.385   3.272
12208W        W78749  27.004  17.590  11.223
12209W        W78750   9.067  23.241  11.088
12210W        W78751  34.028  35.130  12.383
12211W        W78752  25.653  10.841  13.445
12212W        W78753  21.889  44.821  12.627
12213W        W78754  37.994  14.233  11.451
12214W        W78755   6.443   6.926   4.566
12215W        W78756  29.039  40.519  13.523
12216W        W78757   6.460  37.499   1.365
12217W        W78758  32.170  43.852   2.352
12218W        W78759  24.306   7.686   4.122
12219W        W78760  13.593   9.753   4.790
12220W        W78761   3.796  16.882  11.733
12221W        W78762  24.241  17.371   3.131
12222W        W78763  42.051  34.322   4.522
12223W        W78764  38.132  11.136  12.868
12224W        W78765  38.086  29.189   2.452
12225W        W78766  15.613   2.907   0.781
12226W        W78767   8.793  36.823  12.894
12227W        W78768   5.802   6.222   3.043
12228W        W78769  28.980  21.608  14.586
12229W        W78770  15.823  28.046   2.196
12230W        W78771   1.243  23.435  10.075
12231W        W78772  28.952   0.269   1.800
12232W        W78773  41.781  32.575  10.740
12233W        W78774  32.640  32.067   1.428
12234W        W78775  13.390  15.144   1.398
12235W        W78776   9.100  44.706   2.838
12236W        W78777  15.726  21.638  10.701
12237W        W78778  19.649  43.032  12.016
12238W        W78779  43.436   0.512   0.171
12239W        W78780  30.019  11.478  14.379
12240W        W78781   4.001  31.472   9.867
12241W        W78782  23.683  37.271  11.129
12242W        W78783  41.018  13.929   3.219
12243W        W78784  22.251  33.898  13.772
12244W        W78785  37.261  11.626  14.781
12245W        W78786  36.440   6.712  11.944
12246W        W78787  28.041  11.191   4.520
12247W        W78788  38.569   8.682  12.901
12248W        W78789  24.407   9.282   1.500
12249W        W78790   0.976   2.384   1.312
12250W        W78791   6.248  17.537  12.992
12251W        W78792  42.797  16.893  13.496
12252W        W78793  43.511  38.294   4.244
12253W        W78794  36.768  20.057  13.448
12254W        W78795  31.736  42.875   1.840
12255W        W78796  39.107  20.564   1.797
12256W        W78797  32.565  36.828  14.928
12257W        W78798  28.400  43.414  14.812
12258W        W78799   8.013  33.961   4.476
12259W        W78800  40.308   3.231   2.760
12260W        W78801   4.018  34.390  11.921
12261W        W78802  25.942  30.920   2.974
12262W        W78803  33.683  31.978   1.052
12263W        W78804   8.152  31.352  12.394
12264W        W78805  33.942   7.162   1.850
12265W        W78806  27.377   1.880  13.953
12266W        W78807  17.725  35.064   4.029
12267W        W78808  14.792   0.709  10.622
12268W        W78809   0.494   7.942   2.295
12269W        W78810  36.085  36.071   0.722
12270W        W78811  37.197  31.917  11.178
12271W        W78812  12.155  33.676   2.262
12272W        W78813   3.693   6.353   4.229
12273W        W78814  29.978  42.682  13.928
12274W        W78815   8.978  37.966   4.571
12275W        W78816  12.403  42.393   4.652
12276W        W78817  26.706  17.853  14.435
12277W        W78818   4.962  21.743   0.096
12278W        W78819  23.066  30.677   3.725
12279W        W78820  18.677  13.179   4.932
12280W        W78821  40.345  12.919  11.144
12281W        W78822  33.793  41.212   0.312
12282W        W78823  13.372   6.504   0.462
12283W        W78824   9.379  23.552  13.053
12284W        W78825  13.382   0.240   2.590
12285W        W78826  43.673   9.774  14.477
12286W        W78827  24.982  41.370  13.440
12287W        W78828  17.398  14.537   2.785
12288W        W78829  40.553  44.157   5.039
12289W        W78830  14.369   3.704  13.725
12290W        W78831  13.774  37.201  13.477
12291W        W78832  12.935  32.521   0.718
12292W        W78833  19.720  38.351  12.540
12293W        W78834  36.126  38.710  13.584
12294W        W78835  26.460   3.271   2.376
12295W        W78836  36.037  14.102  11.593
12296W        W78837  30.420  21.072   1.262
12297W        W78838  31.646  43.376   1.680
12298W        W78839  40.328  44.525  13.925
12299W        W78840  18.721  21.719   4.095
12300W        W78841  39.655  44.181  11.619
12301W        W78842  34.408  30.760  14.002
12302W        W78843  31.499  17.522  14.063
12303W        W78844  44.642  28.545   4.472
12304W        W78845  16.306  15.307  12.832
12305W        W78846   5.799   0.227  11.934
12306W        W78847  39.116   0.407  14.554
12307W        W78848  44.180  39.614   2.444
12308W        W78849  11.861  28.961   1.694
12309W        W78850  41.468  19.764  12.008
12310W        W78851  44.822  25.735   3.188
12311W        W78852  41.974  25.655  11.520
12312W        W78853  33.439   2.390  12.663
12313W        W78854  11.729  37.983   0.992
12314W        W78855  41.438  33.920  14.882
12315W        W78856  30.109  16.586   4.995
12316W        W78857  31.366  26.192  11.158
12317W        W78858  17.556   3.416  13.469
12318W        W78859   8.963   6.886  14.446
12319W        W78860  31.903  41.067   3.339
12320W        W78861  28.481   4.802  10.379
12321W        W78862  39.990  16.659   4.166
12322W        W78863  13.451   4.407   2.301
12323W        W78864  11.374  40.176  14.057
12324W        W78865  36.614  11.839  13.463
12325W        W78866  14.641  18.346  13.530
12326W        W78867  12.546  31.994  11.158
12327W        W78868  37.125  39.901   3.237
12328W        W78869  29.203  44.301   1.735
12329W        W78870  35.096  31.595  13.005
12330W        W78871  35.236  14.688  14.012
12331W        W78872  23.248  36.442   0.347
12332W        W78873  37.767  15.624   0.107
12333W        W78874  22.351   0.842  13.180
12334W        W78875  26.250  35.501  12.877
12335W        W78876  40.386  15.092   0.710
12336W        W78877   4.766  38.286  12.395
12337W        W78878  14.213  40.381   1.727
12338W        W78879  27.007  23.445  12.319
12339W        W78880  24.693  34.623   2.175
12340W        W78881  10.379  42.030  14.562
12341W        W78882  34.611  15.479   0.027
12342W        W78883  31.800  22.276  12.930
12343W        W78884  41.963   1.716   1.297
12344W        W78885  39.546  19.703  14.348
12345W        W78886  38.390  33.994   0.165
12346W        W78887   8.174  42.769  13.076
12347W        W78888   1.961  40.555   3.755
12348W        W78889  31.158  36.601   0.346
12349W        W78890  42.978  35.277   1.230
12350W        W78891  31.948   1.301  10.737
12351W        W78892  35.745  22.660  14.099
12352W        W78893  28.576  33.058  11.542
12353W        W78894  43.023  38.430  14.016
12354W        W78895  11.797  23.183  13.999
12355W        W78896   6.830  43.859  11.599
12356W        W78897  35.159  22.763   1.205
12357W        W78898  40.533  12.142  10.710
12358W        W78899  11.998  44.850  12.432
12359W        W78900  27.011  34.993  11.313
12360W        W78901   8.927  22.943   3.731
12361W        W78902  20.405  43.471   1.706
12362W        W78903  35.386  11.161   4.695
12363W        W78904  19.225   7.346  13.490
12364W        W78905   8.286  20.623  14.532
12365W        W78906  44.965  29.094   0.131
12366W        W78907   0.940  34.354   3.829
12367W        W78908   0.947  37.568  12.386
12368W        W78909  38.649  18.486  12.419
12369W        W78910   2.398  11.895  11.015
12370W        W78911  36.039   8.405  11.839
12371W        W78912  32.903  43.804   1.708
12372W        W78913   8.149   7.327   3.657
12373W        W78914  15.068  24.159   0.369
12374W        W78915   3.193  30.535   3.707
12375W        W78916  20.287  28.952  11.612
12376W        W78917   5.382   0.587  10.772
12377W        W78918  40.548  12.841   0.369
12378W        W78919  40.998   6.428   3.869
12379W        W78920  35.568  37.283  10.360
12380W        W78921  13.091   3.331  12.566
12381W        W78922  20.638   9.311   4.216
12382W        W78923  13.172  39.605   4.147
12383W        W78924  14.720   0.271   4.550
12384W        W78925  37.514  22.437   3.717
12385W        W78926  23.287  20.508   0.942
12386W        W78927   7.015  31.392  14.834
12387W        W78928  38.531   1.412   2.402
12388W        W78929  38.901  35.930  11.665
12389W        W78930  23.521   7.916   2.245
12390W        W78931  23.019  41.316  11.541
12391W        W78932  10.752  17.014   1.927
12392W        W78933  40.795   6.141  13.335
12393W        W78934  28.480  15.232  13.580
12394W        W78935  12.230  10.414   2.191
12395W        W78936  28.888  16.563   1.758
12396W        W78937  34.183  25.626   2.391
12397W        W78938   6.152  23.688   3.284
12398W        W78939  44.713  24.040  14.169
12399W        W78940   3.192  35.934   2.781
12400W        W78941  16.969   8.252  14.318
12401W        W78942  18.774  12.901   5.359
12402W        W78943  21.121  35.088   2.565
12403W        W78944  40.265  24.158  14.516
12404W        W78945  13.709  36.800   3.661
12405W        W78946  30.875  16.665  11.139
12406W        W78947   2.365  40.426   3.098
12407W        W78948   3.981   4.516   9.865
12408W        W78949  12.273   5.474   4.202
12409W        W78950   2.281  25.204  13.856
12410W        W78951   4.274   9.427  14.179
12411W        W78952  29.031  22.505   2.192
12412W        W78953   4.677  21.114   2.807
12413W        W78954  38.779  16.188  14.215
12414W        W78955  28.403  36.497   3.056
12415W        W78956  33.836  18.202  14.017
12416W        W78957  24.689   9.895  11.634
12417W        W78958  26.394  30.694   0.551
12418W        W78959  30.212  39.411  14.461
12419W        W78960  32.537   7.446  13.662
12420W        W78961  12.763   9.346   3.876
12421W        W78962  13.230  30.992   3.414
12422W        W78963   6.457  37.841   2.129
12423W        W78964   0.688   3.401  13.967
12424W        W78965  24.860  17.526   4.466
12425W        W78966  26.255   7.889  13.950
12426W        W78967  12.624  23.027   2.746
12427W        W78968  27.159  14.350   3.578
12428W        W78969  21.697  21.085   2.101
12429W        W78970  31.156  28.922  13.933
12430W        W78971  40.757   2.743   0.783
12431W        W78972  32.490  22.776  14.874
12432W        W78973  38.342   3.778   3.847
12433W        W78974  14.813  23.702   0.374
12434W        W78975  12.704  34.337   2.172
12435W        W78976  25.732  34.092   2.760
12436W        W78977  12.554  19.129   3.718
12437W        W78978  30.077   1.822   2.809
12438W        W78979  18.259  33.029  13.359
12439W        W78980  24.883  19.044  10.720
12440W        W78981  41.537  41.855   3.917
12441W        W78982  21.311  21.090   3.632
12442W        W78983  29.012  18.991   4.703
12443W        W78984  18.333  35.864  10.437
12444W        W78985  39.724  44.469   0.685
12445W        W78986  13.352  36.775  13.402
12446W        W78987   9.716  14.812  13.618
12447W        W78988  26.890  19.380   4.839
12448W        W78989  38.034  35.473  12.552
12449W        W78990  14.302  42.951  10.558
12450W        W78991  35.555  32.705   3.216
12451W        W78992  40.481  27.982  14.245
12452W        W78993   1.467  22.966  12.808
12453W        W78994  37.970  44.460   0.431
12454W        W78995   5.674   8.373  14.043
12455W        W78996   2.656  30.231  10.189
12456W        W78997  34.725   4.831   9.702
12457W        W78998  32.903  11.679   0.275
12458W        W78999   5.793  12.022   0.772
12459W        W79000  29.377  23.139   2.346
12460W        W79001   0.331  28.887  12.113
12461W        W79002   1.924   8.800   1.420
12462W        W79003   2.514   0.898  11.925
12463W        W79004   3.166  43.358   0.048
12464W        W79005  38.391   9.405  13.065
12465W        W79006  13.445  15.244   2.332
12466W        W79007  42.306  35.710  15.000
12467W        W79008   3.288  40.198  12.455
12468W        W79009  12.294  11.668  14.202
12469W        W79010  32.198   4.628  12.492
12470W        W79011  34.915   4.652  13.050
12471W        W79012  19.158  32.231  12.959
12472W        W79013  23.323   5.163   0.876
12473W        W79014  37.367   4.726   4.403
12474W        W79015  40.781   3.776  13.409
12475W        W79016  37.841   0.441  12.671
12476W        W79017   3.180  16.586   0.365
12477W        W79018  42.410   7.190  11.963
12478W        W79019   7.198  37.914  14.978
12479W        W79020   9.392  10.307  10.561
12480W        W79021  43.742  22.977  12.116
12481W        W79022  16.865  43.012   2.871
12482W        W79023   1.413  39.321   0.899
12483W        W79024  29.923  40.751   4.174
12484W        W79025  40.928   4.062   3.588
12485W        W79026   4.946  33.723  11.506
12486W        W79027  15.294  31.970  14.519
12487W        W79028  39.546  31.877  14.399
12488W        W79029  13.918  15.526   4.976
12489W        W79030   1.436  40.851   4.775
12490W        W79031   1.850  12.315  13.398
12491W        W79032  17.117   3.918   3.797
12492W        W79033  40.387   9.945  13.783
12493W        W79034  10.133  19.845   4.165
12494W        W79035  16.678  40.648   4.319
12495W        W79036   8.544  43.420  14.324
12496W        W79037  28.975  18.174  13.398
12497W        W79038  39.553  25.539  12.826
12498W        W79039  39.808  35.911   0.715
12499W        W79040   2.390  15.522   0.818
12500W        W79041  12.192  22.010  13.676
12501W        W79042  15.332  31.109  11.502
12502W        W79043  28.215  32.951  14.412
12503W        W79044  23.553  26.094   1.247
12504W        W79045  43.781   0.690   2.212
12505W        W79046  41.781  10.198   2.463
12506W        W79047  10.380  14.321  12.947
12507W        W79048  36.439   8.345   0.428
12508W        W79049   6.904  32.384   4.513
12509W        W79050  39.956  10.333  10.594
12510W        W79051   8.698   0.746   1.828
12511W        W79052  32.160  25.128   2.926
12512W        W79053  33.087  19.969   0.577
12513W        W79054  39.884  26.092   0.774
12514W        W79055  24.832  25.819  12.052
12515W        W79056  28.200  24.093   2.486
12516W        W79057  27.141  31.073   1.227
12517W        W79058  11.357   6.424  13.797
12518W        W79059  16.977  43.015  13.727
12519W        W79060  40.787  21.175   3.280
12520W        W79061  11.335  23.702   3.194
12521W        W79062  17.993  18.216   4.267
12522W        W79063   4.154  43.254   1.102
12523W        W79064  25.914  41.967   4.078
12524W        W79065  44.270  12.460   3.639
12525W        W79066   3.081  28.198   2.854
12526W        W79067  23.563  30.377  13.861
12527W        W79068  41.092   0.688   0.262
12528W        W79069  35.571   8.995  14.062
12529W        W79070  38.473  14.522   2.267
12530W        W79071   5.796  28.169   3.684
12531W        W79072  22.020  27.109  10.703
12532W        W79073   9.856  17.130   0.938
12533W        W79074  38.766  25.930   4.130
12534W        W79075  33.900   7.653  13.560
12535W        W79076  40.770  44.999  14.935
12536W        W79077  34.600  10.972   4.629
12537W        W79078  12.207  21.699  12.598
12538W        W79079   5.349  44.348  13.837
12539W        W79080  30.658   8.393   3.249
12540W        W79081  10.590   7.360   0.774
12541W        W79082  24.409  15.081  12.612
12542W        W79083  35.015  16.849   4.344
12543W        W79084   2.974  12.162   2.028
12544W        W79085  28.948  25.775  12.717
12545W        W79086  29.424  17.088  13.862
12546W        W79087  41.853   0.280   1.161
12547W        W79088  21.012  23.018   2.307
12548W        W79089  33.523  44.395   1.846
12549W        W79090  36.739   1.874   5.359
12550W        W79091  12.442   7.209  13.008
12551W        W79092  43.000  20.173   0.858
12552W        W79093   1.712  13.364  13.507
12553W        W79094  39.679  19.400   2.172
12554W        W79095  42.893  38.528   1.957
12555W        W79096   8.482  36.939   2.020
12556W        W79097  34.404  35.106   3.673
12557W        W79098  16.125  19.104  13.034
12558W        W79099  20.805  30.719   0.372
12559W        W79100  19.142  37.250  13.884
12560W        W79101  14.307   8.274  12.949
12561W        W79102   7.354  27.416   1.992
12562W        W79103   2.745  27.569  13.827
12563W        W79104  16.132  38.206  11.235
12564W        W79105  13.030  21.976  11.078
12565W        W79106   5.542  32.625   5.008
12566W        W79107  43.776  16.211   0.433
12567W        W79108  35.298   2.852  13.475
12568W        W79109  16.873  32.038  13.744
12569W        W79110  27.579   7.897   3.874
12570W        W79111  28.749  43.516   1.675
12571W        W79112   8.113  37.355   3.753
12572W        W79113  35.835  40.319   3.604
12573W        W79114  23.853  32.029   4.876
12574W        W79115  37.133  18.261   0.722
12575W        W79116  22.242  33.585   1.376
12576W        W79117  13.723  10.654   2.199
12577W        W79118  31.966  39.921  14.613
12578W        W79119  15.036  15.248   1.783
12579W        W79120  12.226  24.834  11.575
12580W        W79121   6.689  33.508  11.285
12581W        W79122  29.632  44.649   4.036
12582W        W79123  44.702   3.721  12.440
12583W        W79124  41.787  31.671   4.581
12584W        W79125  41.536   9.394  10.785
12585W        W79126  28.205   9.603   1.698
12586W        W79127  33.416   6.402  13.580
12587W        W79128  35.249   5.696   2.315
12588W        W79129  16.714   2.590   3.744
12589W        W79130  28.571  32.307  14.419
12590W        W79131  17.873   1.726   3.616
12591W        W79132  14.584  22.542  11.934
12592W        W79133  11.760  43.892  12.492
12593W        W79134  37.086  35.016   2.475
12594W        W79135  23.741  42.842   1.926
12595W        W79136  20.093  36.838  13.497
12596W        W79137  24.506  39.860  11.072
12597W        W79138  40.387  12.554   2.219
12598W        W79139  38.566  36.622  12.084
12599W        W79140   8.207  41.608   0.889
12600W        W79141  43.075  12.775  12.569
12601W        W79142  30.538  29.445  14.284
12602W        W79143   1.485  14.706  13.375
12603W        W79144  14.752  27.728   4.595
12604W        W79145  20.109  44.658   0.317
12605W        W79146  13.447  15.245   4.850
12606W        W79147  25.623  31.700   4.439
12607W        W79148  10.744   3.787   4.735
12608W        W79149  43.068  22.261   5.078
12609W        W79150  15.272  22.663  14.851
12610W        W79151  21.010  21.564  14.785
12611W        W79152   2.816   7.638   2.342
12612W        W79153  36.897  11.207  13.348
12613W        W79154  12.278  20.700  14.972
12614W        W79155  44.946   5.432  12.007
12615W        W79156  32.338  13.831   2.185
12616W        W79157  41.530  38.372  11.198
12617W        W79158  13.687   3.360   4.326
12618W        W79159  36.359  14.161   2.158
12619W        W79160  44.845  29.965   1.713
12620W        W79161  32.097  18.339   0.779
12621W        W79162  43.313  25.840  11.896
12622W        W79163   7.244  38.408   1.701
12623W        W79164  32.011  26.747   3.156
12624W        W79165  18.087  23.003  10.744
12625W        W79166  28.125  26.172  13.547
12626W        W79167  31.186  14.524   2.696
12627W        W79168  11.302  21.771   4.085
12628W        W79169  31.836  19.174   3.031
12629W        W79170  33.786   4.968  10.708
12630W        W79171  23.578  29.935   2.657
12631W        W79172   3.413   7.842  14.828
12632W        W79173   1.512  18.263   4.226
12633W        W79174  11.408  38.997  12.012
12634W        W79175  25.646  13.220  12.088
12635W        W79176  26.542  42.081  11.945
12636W        W79177   0.253   3.847   2.418
12637W        W79178  17.620  30.336   1.291
12638W        W79179  10.890  19.902  11.220
12639W        W79180  42.183  33.298  10.305
12640W        W79181  44.833  39.116   0.999
12641W        W79182   7.319  43.432  14.009
12642W        W79183  11.294  14.238  12.849
12643W        W79184  44.083  14.388   0.688
12644W        W79185  21.657   3.889  11.607
12645W        W79186  26.879   4.781   4.006
12646W        W79187  16.865  39.557  11.125
12647W        W79188  15.776  40.458   1.703
12648W        W79189   9.026  26.075  13.848
12649W        W79190  43.350  12.645   3.176
12650W        W79191  20.651  18.274   1.773
12651W        W79192   9.121  12.041   1.805
12652W        W79193  35.901  39.972  10.715
12653W        W79194  43.732  15.166  13.994
12654W        W79195  40.742  37.013   1.099
12655W        W79196   3.513  32.577   1.642
12656W        W79197  26.828  22.213  11.126
12657W        W79198  17.735  20.008  12.026
12658W        W79199  13.195  38.120  12.931
12659W        W79200   8.232  42.433  12.129
12660W        W79201  32.150  43.546   3.706
12661W        W79202  32.364  38.475  13.516
12662W        W79203  20.138   4.353  12.852
12663W        W79204   7.903  12.628  14.313
12664W        W79205  29.687  33.199  14.529
12665W        W79206  41.804  14.042  11.628
12666W        W79207   6.423  36.283   3.450
12667W        W79208  18.303   2.028  13.486
12668W        W79209  21.427  10.378  14.036
12669W        W79210  37.035  16.541   0.703
12670W        W79211  19.546  26.391   3.422
12671W        W79212  39.276  17.738  10.961
12672W        W79213  10.355  43.309  11.881
12673W        W79214  43.578  13.739  12.421
12674W        W79215  29.162  42.462   2.408
12675W        W79216  10.249  29.651   4.117
12676W        W79217   0.491  26.515  10.740
12677W        W79218  41.483  20.618   0.352
12678W        W79219  17.695  34.172   3.310
12679W        W79220   4.827   8.882   5.005
12680W        W79221   9.043   3.582  11.214
12681W        W79222   9.152   7.617   2.245
12682W        W79223   5.228  28.700  14.344
12683W        W79224   2.793   1.976  13.239
12684W        W79225  28.438  28.342   4.892
12685W        W79226   3.974   3.861   3.128
12686W        W79227  22.090  44.483   2.453
12687W        W79228  17.741   6.663   2.657
12688W        W79229  41.766  18.802  12.573
12689W        W79230   5.452  30.045   3.677
12690W        W79231  18.252  23.430  14.865
12691W        W79232  36.435  25.177  14.421
12692W        W79233  12.542  42.305   3.085
12693W        W79234  22.012  19.729   4.090
12694W        W79235  29.041  38.552  11.645
12695W        W79236  23.693  26.088   3.379
12696W        W79237   9.246   6.587  11.511
12697W        W79238   3.981   3.667  13.906
12698W        W79239   3.332  41.687  11.360
12699W        W79240  31.142   8.912  14.912
12700W        W79241  40.465  12.029   3.629
12701W        W79242  22.141   3.190  10.245
12702W        W79243  16.996   0.269   2.938
12703W        W79244   2.409  34.222  13.724
12704W        W79245  21.557  22.172   3.183
12705W        W79246   0.029  26.579  12.040
12706W        W79247  32.862  32.521  14.911
12707W        W79248   2.895  31.340   2.775
12708W        W79249  43.534  22.087  10.395
12709W        W79250  35.446   4.599  10.737
12710W        W79251  29.627  34.837   2.338
12711W        W79252  35.931  33.993  10.714
12712W        W79253   2.723  24.476  11.427
12713W        W79254  22.449  15.185   9.982
12714W        W79255  21.703  40.757   2.647
12715W        W79256  43.891  24.199  10.662
12716W        W79257  21.199  11.280   1.433
12717W        W79258  13.787  20.058  13.880
12718W        W79259  30.443  11.149   1.706
12719W        W79260  18.700  30.505   3.821
12720W        W79261   0.063  40.779  14.395
12721W        W79262  24.002  41.997  12.381
12722W        W79263  28.012   2.334  13.508
12723W        W79264  20.702  12.564   4.640
12724W        W79265   1.618  35.720   9.624
12725W        W79266  35.003  29.373   3.724
12726W        W79267  37.602  44.756   0.717
12727W        W79268   7.707  20.593   4.666
12728W        W79269  42.855  37.164  14.462
12729W        W79270  40.470  41.742  11.544
12730W        W79271   5.254  24.800   2.205
12731W        W79272   7.906   2.919  13.872
12732W        W79273   1.822  40.730   2.254
12733W        W79274  25.874  17.106  12.063
12734W        W79275   8.885  30.579   1.953
12735W        W79276  27.719  19.604   4.373
12736W        W79277  34.566  26.016   3.149
12737W        W79278  39.792  27.922   0.951
12738W        W79279  25.854   9.652   3.218
12739W        W79280  36.797   1.698  11.482
12740W        W79281  22.143  24.904  14.401
12741W        W79282  38.104  13.760   1.712
12742W        W79283  10.217  19.905   0.141
12743W        W79284  37.935  36.651   0.524
12744W        W79285   5.167   1.480  14.378
12745W        W79286  27.355   4.900   4.167
12746W        W79287  42.349  12.064   4.837
12747W        W79288  12.102   8.874   0.369
12748W        W79289   0.417  37.029   4.943
12749W        W79290  18.746  20.213  14.026
12750W        W79291  32.237   7.025  13.579
12751W        W79292  26.592  24.218  11.102
12752W        W79293  21.669  18.962   2.712
12753W        W79294  16.991  38.680  12.008
12754W        W79295  38.360   8.531   5.291
12755W        W79296  18.014  41.755  12.049
12756W        W79297  16.770  41.767  11.535
12757W        W79298  18.287   8.577  12.492
12758W        W79299   1.893  23.738  14.081
12759W        W79300  36.055  31.911  11.995
12760W        W79301  13.459  43.931  11.075
12761W        W79302   9.272  37.501   2.851
12762W        W79303   4.866  13.580  13.946
12763W        W79304  40.744  28.397  14.422
12764W        W79305  10.726  18.792   3.734
12765W        W79306  27.647  11.799   2.906
12766W        W79307  22.015   8.635   1.099
12767W        W79308  40.348  31.349  12.511
12768W        W79309  41.574  24.981  12.597
12769W        W79310   7.398  17.843  14.279
12770W        W79311  42.737   3.762   3.221
12771W        W79312  14.270  44.282  11.306
12772W        W79313  25.681  39.291  14.504
12773W        W79314  40.776  22.704   0.369
12774W        W79315  14.564  17.837  13.589
12775W        W79316  30.283  35.000   1.089
12776W        W79317   5.197   8.866   1.325
12777W        W79318  23.152  39.107  13.531
12778W        W79319  15.978  34.196   4.158
12779W        W79320  10.386   1.782   9.857
12780W        W79321  11.579  25.234   0.802
12781W        W79322   4.859   3.879  14.047
12782W        W79323  21.089  25.139   0.517
12783W        W79324  19.170  22.621  11.538
12784W        W79325  16.813  10.718   1.747
12785W        W79326  25.295  20.053   4.610
12786W        W79327   3.019   7.398   0.021
12787W        W79328  40.996  12.644   1.390
12788W        W79329  24.585  11.253   3.682
12789W        W79330  38.985   1.645   2.238
12790W        W79331   5.438  41.385   3.372
12791W        W79332  39.734  42.954   0.200
12792W        W79333   6.743  18.828  12.008
12793W        W79334   4.475  24.238   3.372
12794W        W79335  15.575  23.959   0.421
12795W        W79336  23.683  33.351   2.739
12796W        W79337  29.873  19.072   0.196
12797W        W79338  29.485   8.655   3.187
12798W        W79339   2.251  42.440  13.050
12799W        W79340  35.625  17.504  12.130
12800W        W79341  38.830  39.357  11.219
12801W        W79342   3.536  22.594  11.727
12802W        W79343  26.773  35.469   1.133
12803W        W79344  28.437   6.294  14.208
12804W        W79345  13.807  30.600  11.920
12805W        W79346  13.664   1.958   1.629
12806W        W79347  34.505  14.372   0.989
12807W        W79348  23.899   0.248  13.400
12808W        W79349  23.561   2.295   0.882
12809W        W79350  27.512  24.864   0.805
12810W        W79351  31.050  13.238   2.462
12811W        W79352  28.072  13.624   4.151
12812W        W79353  31.719   4.295   2.376
12813W        W79354   8.064  30.309   0.466
12814W        W79355   8.666  42.861  13.276
12815W        W79356  19.535  14.349  12.546
12816W        W79357  12.252  22.220   3.675
12817W        W79358  16.709  37.821   1.234
12818W        W79359  44.367  37.416  13.854
12819W        W79360  36.002  43.338   1.359
12820W        W79361  12.620  19.235  13.956
12821W        W79362  10.370  27.137   4.435
12822W        W79363  16.562  21.795  14.961
12823W        W79364  40.837   8.757  14.761
12824W        W79365  13.607  28.428  12.477
12825W        W79366   9.174  44.274   1.594
12826W        W79367   0.211  21.226   0.400
12827W        W79368  36.388   4.975   3.589
12828W        W79369  22.191   4.496   9.695
12829W        W79370  19.996  17.252   1.759
12830W        W79371  15.193  16.319  11.964
12831W        W79372  30.475  22.550  11.162
12832W        W79373  23.026  38.342   4.615
12833W        W79374  25.981  26.179   1.682
12834W        W79375   5.698   4.802  14.304
12835W        W79376  37.922   9.619  11.276
12836W        W79377   2.991  12.368   3.469
12837W        W79378  35.328  31.165  12.104
12838W        W79379  10.884  33.412   0.617
12839W        W79380  40.954  43.918  11.403
12840W        W79381  30.312   5.792   0.234
12841W        W79382  16.851  22.717   0.949
12842W        W79383  37.791   2.766  13.786
12843W        W79384  26.013  29.568   4.457
12844W        W79385   3.255  34.543  13.493
12845W        W79386   4.773  22.316   2.242
12846W        W79387  22.804   1.958  11.735
12847W        W79388  22.557  40.081   2.188
12848W        W79389  37.836  17.064   4.666
12849W        W79390   5.239  28.557   1.438
12850W        W79391  36.357  19.886  11.092
12851W        W79392  14.071  13.299  13.910
12852W        W79393  20.677  19.697   4.766
12853W        W79394   4.961   2.779  13.380
12854W        W79395   0.879  39.046  12.670
12855W        W79396   9.927  32.921  14.697
12856W        W79397  13.744  35.208   2.297
12857W        W79398  35.873   2.340   0.781
12858W        W79399  11.363  33.992  10.700
12859W        W79400  22.592  27.389  10.692
12860W        W79401  23.412  36.391  13.553
12861W        W79402  38.130  28.179   0.215
12862W        W79403  14.621  35.718   4.919
12863W        W79404  22.495   1.035   0.521
12864W        W79405  28.164  17.974   0.395
12865W        W79406  23.659  34.271   3.065
12866W        W79407  33.617  31.929   3.108
12867W        W79408  43.239  34.689   3.362
12868W        W79409  34.425  18.326   0.199
12869W        W79410  42.507  36.505   1.277
12870W        W79411  21.758  33.441  14.945
12871W        W79412   1.010  21.064   3.509
12872W        W79413  35.013  39.558  14.402
12873W        W79414  24.770  10.688   4.253
12874W        W79415   3.364  25.432   1.442
12875W        W79416  16.755   1.699   2.708
12876W        W79417  11.220  32.605   3.731
12877W        W79418  14.639   5.721  11.676
12878W        W79419  32.350  36.355  12.461
12879W        W79420  23.976   2.817   1.448
12880W        W79421  21.176   5.779   3.251
12881W        W79422  12.773  40.362   3.711
12882W        W79423  21.223   7.620   0.495
12883W        W79424   8.331  26.116  12.412
12884W        W79425  21.671  29.349   1.451
12885W        W79426  32.643  26.884   1.276
12886W        W79427  23.818   6.147   3.341
12887W        W79428  25.894   6.772   9.820
12888W        W79429   4.469  29.961  11.016
12889W        W79430   3.880  24.669  14.946
12890W        W79431  15.127  18.520   2.183
12891W        W79432  44.018  28.963  10.641
12892W        W79433  25.895   1.156   1.793
12893W        W79434   5.370  34.103  13.038
12894W        W79435  25.770  26.043   1.233
12895W        W79436   5.281  28.466   4.189
12896W        W79437  44.074   7.897  11.117
12897W        W79438  18.971   1.860  11.147
12898W        W79439  18.959  37.439  13.441
12899W        W79440  17.358  18.999  10.823
12900W        W79441  20.184  17.592   0.727
12901W        W79442  38.819   8.423  10.654
12902W        W79443  29.149   7.352   1.615
12903W        W79444  13.884  44.886  11.214
12904W        W79445  30.885   8.370  10.695
12905W        W79446  28.158  28.910   4.494
12906W        W79447  25.637  31.565  14.464
12907W        W79448   8.774  36.411  13.193
12908W        W79449  39.379  19.756   3.765
12909W        W79450   9.383  38.934   0.345
12910W        W79451  29.606  33.781  11.204
12911W        W79452   3.627   0.721   2.004
12912W        W79453   0.254  16.299   1.737
12913W        W79454  31.564  30.697  13.969
12914W        W79455  10.689  35.800  11.457
12915W        W79456  28.396   6.393   0.905
12916W        W79457  25.228  26.897   0.265
12917W        W79458  41.324  43.532  10.766
12918W        W79459  42.990   6.710   1.753
12919W        W79460  35.075  26.177  10.536
12920W        W79461  42.794  23.788   0.794
12921W        W79462  21.593   1.192   4.144
12922W        W79463  39.840  18.094   4.019
12923W        W79464  23.049  20.757   5.077
12924W        W79465  34.061  16.600   2.284
12925W        W79466  10.992  16.602  14.204
12926W        W79467  38.946  24.927   2.383
12927W        W79468  22.795   3.879  14.483
12928W        W79469  12.365  28.638  12.768
12929W        W79470  12.023  27.116  11.047
12930W        W79471   9.144  35.089   2.657
12931W        W79472  10.513  27.527  10.767
12932W        W79473  12.088  28.491   0.076
12933W        W79474  28.436  38.987   9.929
12934W        W79475   8.294  35.356  10.670
12935W        W79476  18.104  33.546   1.869
12936W        W79477  29.448  33.311  11.293
12937W        W79478  38.704  19.087  11.696
12938W        W79479  14.746  39.045  12.559
12939W        W79480  24.828   8.701  14.371
12940W        W79481  30.019  43.047   2.498
12941W        W79482   7.869   8.971  13.155
12942W        W79483  28.411  42.995   0.803
12943W        W79484  19.979  15.782  11.707
12944W        W79485  31.387  25.075  10.601
12945W        W79486  32.418  20.800  14.848
12946W        W79487  12.626  38.953   0.933
12947W        W79488  10.536  35.644   0.838
12948W        W79489  22.205  38.954   0.042
12949W        W79490  40.325  43.486   4.470
12950W        W79491   2.942   5.849   4.811
12951W        W79492   9.847   6.894  13.640
12952W        W79493  15.607  38.236  11.935
12953W        W79494  14.251   7.423  13.304
12954W        W79495  30.402  21.619   4.481
12955W        W79496   0.702   8.879   1.920
12956W        W79497  43.395  33.221   1.257
12957W        W79498  28.700  41.648  12.133
12958W        W79499  37.946   5.498   0.879
12959W        W79500  26.031  16.004   4.230
12960W        W79501  42.795   4.707  13.499
12961W        W79502   8.459  41.899   4.145
12962W        W79503  23.412  40.480   3.132
12963W        W79504   9.223  20.034  13.922
12964W        W79505  16.176  28.079  10.722
12965W        W79506   8.405  23.250   0.320
12966W        W79507  16.212  33.501   0.456
12967W        W79508  10.013  21.325   2.639
12968W        W79509  20.814  41.083  11.613
12969W        W79510  25.955  35.159  11.172
12970W        W79511   5.243  12.773  14.936
12971W        W79512  43.027  11.087  13.086
12972W        W79513   2.480  30.396  14.020
12973W        W79514  16.826  27.378  10.460
12974W        W79515  23.284  20.023  14.851
12975W        W79516  32.452  21.122  13.767
12976W        W79517   6.991   3.295  12.017
12977W        W79518   6.762  12.267  14.710
12978W        W79519  37.413  41.315   2.603
12979W        W79520  11.332  25.037   4.263
12980W        W79521  12.604   3.519  14.280
12981W        W79522  29.509  29.638  14.326
12982W        W79523  18.542  37.269   1.888
12983W        W79524  18.802   0.939  10.617
12984W        W79525   2.226  27.458   3.559
12985W        W79526  11.842  29.944   4.276
12986W        W79527  11.601   1.987   3.620
12987W        W79528   2.790  17.126  13.951
12988W        W79529  40.131  29.873   2.404
12989W        W79530  28.583   2.251  13.257
12990W        W79531   2.236  19.437  10.658
12991W        W79532  22.584  11.061   0.903
12992W        W79533  12.876  21.283  12.006
12993W        W79534  37.284   9.751   1.403
12994W        W79535  11.148  11.042  10.649
12995W        W79536  32.877  18.562  10.265
12996W        W79537  21.434  10.023   4.977
12997W        W79538  31.501  41.063   2.342
12998W        W79539   8.677  15.568  12.901
12999W        W79540   8.129  11.913   4.326
13000W        W79541  38.079  23.571   1.355
13001W        W79542  14.990  10.253   1.459
13002W        W79543  14.147   6.127   3.672
13003W        W79544  41.828  38.852   2.183
13004W        W79545  17.322   7.340  13.401
13005W        W79546  16.062  44.449   2.894
13006W        W79547  41.347  35.501   1.726
13007W        W79548  20.453  34.025   0.764
13008W        W79549  20.587  34.430   4.595
13009W        W79550  34.829  30.470   3.787
13010W        W79551  15.656  42.703   1.927
13011W        W79552  25.609  14.708  12.307
13012W        W79553  29.599   7.342   2.724
13013W        W79554  10.213   3.383   2.701
13014W        W79555  23.206  44.728  12.120
13015W        W79556   3.131  28.948  13.137
13016W        W79557  16.253  44.015   0.900
13017W        W79558  24.248  20.709  11.650
13018W        W79559  13.403  21.433   2.102
13019W        W79560  43.868  14.080   2.303
13020W        W79561  30.691   2.660  11.962
13021W        W79562  26.024  26.943   3.088
13022W        W79563  19.348  35.278   1.796
13023W        W79564  11.282   7.173  12.405
13024W        W79565  34.926   7.226  10.588
13025W        W79566   5.140  17.827  11.610
13026W        W79567  26.734  42.982  13.038
13027W        W79568  17.330  18.968   0.366
13028W        W79569   3.884  24.163   9.871
13029W        W79570  18.308  29.091   0.712
13030W        W79571  25.961  27.442  10.623
13031W        W79572  10.898  30.921   4.079
13032W        W79573  16.287  25.012   0.814
13033W        W79574  29.198  14.219  10.274
13034W        W79575  32.689  28.294   0.302
13035W        W79576  14.045  13.928   0.789
13036W        W79577   1.232  18.815   1.431
13037W        W79578   4.964  18.075   4.259
13038W        W79579  15.120   8.311   0.173
13039W        W79580  39.080   2.349   3.816
13040W        W79581   1.516  44.744   4.705
13041W        W79582   5.182  13.175  10.695
13042W        W79583  37.070  39.509   4.638
13043W        W79584  29.021   8.429  11.396
13044W        W79585   2.944  15.206   0.325
13045W        W79586  40.040  37.923   0.831
13046W        W79587  41.811  30.032  10.745
13047W        W79588   8.396   7.338   1.671
13048W        W79589  14.657   3.412  12.384
13049W        W79590  27.724   6.824   1.879
13050W        W79591  35.730  11.214   0.821
13051W        W79592   1.476  17.845   3.321
13052W        W79593  20.606  40.213  14.721
13053W        W79594   2.399   2.766   3.127
13054W        W79595  20.307  39.915   4.562
13055W        W79596  36.464   6.713  13.824
13056W        W79597  12.292  37.483   4.413
13057W        W79598   6.832  40.502   1.298
13058W        W79599   9.695  19.888   3.304
13059W        W79600   0.782  43.833  11.626
13060W        W79601   4.987  26.612  12.594
13061W        W79602  16.674   4.859  14.302
13062W        W79603   3.787  18.056   3.153
13063W        W79604  28.584  17.069  13.998
13064W        W79605  44.764   6.757   1.048
13065W        W79606  42.019  39.019  10.803
13066W        W79607  10.896  17.797  11.005
13067W        W79608   8.234  18.650   4.721
13068W        W79609  21.238   0.901  14.945
13069W        W79610   0.922  17.615   2.135
13070W        W79611  18.884  32.073   0.826
13071W        W79612  19.812   0.708   0.879
13072W        W79613  17.276  15.312   3.632
13073W        W79614  30.527  44.920  10.581
13074W        W79615  26.130  35.180   0.548
13075W        W79616  17.625   8.861  13.031
13076W        W79617  30.382  29.123  12.566
13077W        W79618   3.238   2.229  11.680
13078W        W79619   3.839  41.672  14.323
13079W        W79620  15.852  24.708   0.833
13080W        W79621  33.483   5.332   0.254
13081W        W79622   7.589  10.118  10.290
13082W        W79623  24.116  40.795   2.600
13083W        W79624  12.884  19.226  13.482
13084W        W79625  40.301  22.950   3.299
13085W        W79626  21.752  12.542   0.360
13086W        W79627   5.474   2.880  14.404
13087W        W79628   6.415  44.478  13.921
13088W        W79629  23.480  38.071   4.774
13089W        W79630   3.786   1.335  12.866
13090W        W79631  44.711  12.725   4.481
13091W        W79632  28.542  24.277  12.271
13092W        W79633  26.431  10.296   4.077
13093W        W79634  15.146  25.059  13.100
13094W        W79635  15.839  27.077   3.191
13095W        W79636  21.206  38.956  14.967
13096W        W79637   1.505  12.262   3.747
13097W        W79638  38.425  20.609   4.644
13098W        W79639  40.218   1.919  11.230
13099W        W79640   1.205  35.100   1.569
13100W        W79641  25.246  38.808   3.644
13101W        W79642  21.370   2.296   0.143
13102W        W79643  31.848  31.496   4.020
13103W        W79644  26.622  32.470   3.817
13104W        W79645   2.607   1.328   1.404
13105W        W79646  41.934  32.333  12.489
13106W        W79647  40.564  37.012  11.074
13107W        W79648  35.918  22.538  11.921
13108W        W79649  41.053  33.931   2.128
13109W        W79650  41.437   5.751  10.891
13110W        W79651   4.628  42.020   0.288
13111W        W79652   5.596  35.212   3.600
13112W        W79653   7.224   9.652  13.609
13113W        W79654  11.728  17.773  12.075
13114W        W79655  26.467   8.723  11.071
13115W        W79656  20.437  27.926  13.024
13116W        W79657  16.581  35.386   4.593
13117W        W79658   6.625  13.201  11.626
13118W        W79659  26.086  32.113  11.100
13119W        W79660  37.133  41.233  11.960
13120W        W79661   5.152  35.418  13.410
13121W        W79662   8.346  32.358   2.767
13122W        W79663  25.248  13.411  10.641
13123W        W79664  21.535  29.957   3.214
13124W        W79665  36.593  43.297   2.770
13125W        W79666   7.247  33.667   3.264
13126W        W79667  38.491  16.579   3.595
13127W        W79668  24.619  16.082   3.155
13128W        W79669  14.139  37.031   0.062
13129W        W79670  27.210  15.610  12.315
13130W        W79671  24.514   6.608  10.637
13131W        W79672  34.060  40.555  11.566
13132W        W79673  38.291   6.367   2.904
13133W        W79674  24.283  36.462   0.348
13134W        W79675  37.165   7.474  14.436
13135W        W79676  16.748  40.301  10.535
13136W        W79677  39.262  15.661   1.262
13137W        W79678   8.271  13.834   1.642
13138W        W79679   7.624  13.677  12.579
13139W        W79680   0.823  24.161   3.648
13140W        W79681  22.283  16.880   1.173
13141W        W79682  30.416  12.957   3.193
13142W        W79683  20.774  13.221  13.923
13143W        W79684  26.264  25.512  11.184
13144W        W79685  41.755  23.846   1.711
13145W        W79686   0.532   6.230  13.560
13146W        W79687   7.673  42.463  14.303
13147W        W79688  32.475  27.977  14.924
13148W        W79689  13.768  25.512   2.763
13149W        W79690  31.464  26.623   2.613
13150W        W79691  30.904  18.210   4.307
13151W        W79692  12.804   0.718  10.605
13152W        W79693  24.226  22.150  13.411
13153W        W79694   7.408   1.047  12.897
13154W        W79695   0.433  31.391   1.847
13155W        W79696  28.933  15.020  13.468
13156W        W79697  44.718  20.753   2.336
13157W        W79698  16.301  44.930  13.132
13158W        W79699  36.028   8.661   1.696
13159W        W79700  27.449   5.913   3.478
13160W        W79701  17.603  33.495  12.399
13161W        W79702  28.216  21.512  12.382
13162W        W79703   9.159  25.241   2.002
13163W        W79704  27.096   3.421   2.973
13164W        W79705  39.890  15.226   0.501
13165W        W79706  40.816   9.363  12.619
13166W        W79707  34.043  40.100   1.441
13167W        W79708   8.165   8.819  14.519
13168W        W79709  28.676   6.794  14.280
13169W        W79710  29.536  41.450   4.063
13170W        W79711  24.025  40.576  11.578
13171W        W79712  35.088   3.896  13.589
13172W        W79713  31.035   0.248  11.593
13173W        W79714  35.132  36.903  11.981
13174W        W79715   2.043  26.004  14.368
13175W        W79716   6.950  14.327   0.203
13176W        W79717   2.955  40.464   0.455
13177W        W79718  17.100  13.230  11.124
13178W        W79719   4.375  44.000  11.441
13179W        W79720  15.187   8.717   3.894
13180W        W79721   0.401  24.051  12.450
13181W        W79722  39.205   1.421   4.911
13182W        W79723  38.976   8.814  13.498
13183W        W79724  17.075  21.681   2.801
13184W        W79725  17.857  13.218   3.622
13185W        W79726  30.503  39.773   2.305
13186W        W79727  34.584  25.039   4.608
13187W        W79728   0.977  41.498   4.982
13188W        W79729   5.065  24.033   1.322
13189W        W79730  14.664  27.434  11.487
13190W        W79731  43.389  32.044  14.264
13191W        W79732  23.255  30.115   4.588
13192W        W79733  21.477   5.482   1.339
13193W        W79734  22.614  35.979   2.663
13194W        W79735  30.617  33.072   1.034
13195W        W79736  18.662  29.153  10.100
13196W        W79737  33.065  30.385  13.961
13197W        W79738  19.685   9.247  13.171
13198W        W79739  14.284   9.188   1.290
13199W        W79740  26.031   6.739   3.255
13200W        W79741  10.271  42.682   4.125
13201W        W79742  22.306  10.460   1.234
13202W        W79743  19.537  36.014  13.615
13203W        W79744  11.086  17.715  10.541
13204W        W79745  31.880   8.778   2.886
13205W        W79746   2.768  10.711  14.041
13206W        W79747   0.009   7.638   2.686
13207W        W79748  14.070  37.595  14.376
13208W        W79749   4.960  40.686   0.976
13209W        W79750   0.436  26.107   1.759
13210W        W79751   8.193  16.472  13.932
13211W        W79752  12.480  30.945   5.547
13212W        W79753  20.149  29.213   2.982
13213W        W79754  18.770  39.860  12.513
13214W        W79755  41.431  11.890   0.489
13215W        W79756  36.477   9.751   0.015
13216W        W79757  34.087  35.869  11.254
13217W        W79758  15.738   1.247   0.815
13218W        W79759   8.381  33.590   1.371
13219W        W79760  24.549  31.269   4.644
13220W        W79761  37.715  22.647  14.575
13221W        W79762  19.714  26.631   3.849
13222W        W79763  25.406  44.788   1.804
13223W        W79764  40.790  14.583  12.572
13224W        W79765  41.159  17.685   4.173
13225W        W79766  20.744  31.825  13.836
13226W        W79767  31.973  27.987  13.659
13227W        W79768  23.876   7.824  13.346
13228W        W79769  20.238  20.285  14.842
13229W        W79770  10.651  33.910  13.452
13230W        W79771  25.620  13.162   3.027
13231W        W79772  37.864   5.736   0.433
13232W        W79773  28.204  31.160   2.171
13233W        W79774  12.205   6.619   0.344
13234W        W79775  44.836  15.545   3.628
13235W        W79776  35.646  24.763   0.233
13236W        W79777  22.752  41.569   2.788
13237W        W79778   2.389  12.107  14.972
13238W        W79779  29.434  14.777  11.084
13239W        W79780  21.694  39.626   4.074
13240W        W79781  30.338   3.513  13.100
13241W        W79782  15.579  11.643   2.204
13242W        W79783  39.834  11.760  12.839
13243W        W79784   6.410  44.286  12.983
13244W        W79785   8.364  23.002  12.805
13245W        W79786   3.330  39.019   3.660
13246W        W79787  36.435  28.093   0.900
13247W        W79788  39.345  39.087   3.804
13248W        W79789  22.728  23.095  11.367
13249W        W79790  36.416  30.575   2.630
13250W        W79791  13.159  41.143   2.305
13251W        W79792  13.168  44.313  14.795
13252W        W79793  24.999  23.186  13.993
13253W        W79794  18.097  39.909   0.533
13254W        W79795  39.771  20.198   4.585
13255W        W79796   7.885  28.235  13.079
13256W        W79797  12.809  32.409   1.220
13257W        W79798  21.885  22.231   0.614
13258W        W79799   3.826  39.872   4.584
13259W        W79800   1.932  11.135   4.172
13260W        W79801  36.050  39.780  13.905
13261W        W79802  18.663   9.542  12.997
13262W        W79803  10.711  40.309  12.023
13263W        W79804  25.610  15.654   2.205
13264W        W79805  24.981  29.154   1.938
13265W        W79806  32.467  28.559   4.854
13266W        W79807  26.167  17.079   1.636
13267W        W79808  26.616   9.409   3.567
13268W        W79809  44.013  37.961  14.908
13269W        W79810   5.243  24.693  11.960
13270W        W79811  42.864  13.328  10.513
13271W        W79812  37.012  32.933   2.474
13272W        W79813  29.710  30.502  12.080
13273W        W79814   6.540  33.222   4.262
13274W        W79815  44.518  26.127   2.650
13275W        W79816  15.525   8.193  14.884
13276W        W79817  34.426  10.808   3.602
13277W        W79818  39.781  12.172   2.846
13278W        W79819  22.570  21.603  14.092
13279W        W79820  33.205  17.552   0.051
13280W        W79821  35.982  32.557   2.631
13281W        W79822  11.626  30.951  10.879
13282W        W79823   1.277  42.321   4.339
13283W        W79824   5.878  17.886  12.323
13284W        W79825  18.818  17.503  14.374
13285W        W79826  42.031  41.818   3.719
13286W        W79827   6.329  34.323  10.676
13287W        W79828  31.280  13.468   5.009
13288W        W79829  37.848   2.337   2.710
13289W        W79830  20.916   6.457  10.954
13290W        W79831  10.842  10.044  11.656
13291W        W79832  23.625  17.634   0.688
13292W        W79833   2.440  22.657   1.712
13293W        W79834  10.103   2.856   2.418
13294W        W79835   7.661   5.227   3.222
13295W        W79836  14.772  14.766  13.373
13296W        W79837  25.147  43.452   4.333
13297W        W79838  37.459  21.952   3.609
13298W        W79839  38.248  21.169   0.234
13299W        W79840  42.307  34.097   2.826
13300W        W79841  30.589  34.154   3.844
13301W        W79842  36.210  26.534   2.863
13302W        W79843  19.106  28.675  14.437
13303W        W79844  13.872  27.178   2.463
13304W        W79845  25.641  40.063   4.287
13305W        W79846  10.095  28.980   2.293
13306W        W79847  42.325  11.146  10.747
13307W        W79848   5.829  22.484   2.049
13308W        W79849  21.578   3.028  10.477
13309W        W79850   4.010  22.188  14.510
13310W        W79851  24.556  10.179   1.981
13311W        W79852   9.921   0.575  12.472
13312W        W79853  40.276   8.819  12.446
13313W        W79854  31.021  15.783  11.698
13314W        W79855  14.495  44.629   1.315
13315W        W79856   3.703   9.700  13.418
13316W        W79857  31.206  32.963  14.409
13317W        W79858  34.942  38.268   2.477
13318W        W79859  11.879  16.596  11.096
13319W        W79860  30.423  32.855   1.471
13320W        W79861  43.252  36.624  11.038
13321W        W79862  32.055  22.038   1.026
13322W        W79863  14.413  36.356   1.734
13323W        W79864  42.455  40.929   3.840
13324W        W79865  28.385  16.839  12.751
13325W        W79866  24.698  11.881  11.140
13326W        W79867  34.538  17.137  13.567
13327W        W79868  21.565  38.313  13.563
13328W        W79869  27.896   2.384   4.122
13329W        W79870   7.851  39.997  13.810
13330W        W79871   2.035  36.287  13.906
13331W        W79872  25.190  41.290   2.157
13332W        W79873  28.107  35.022   1.440
13333W        W79874  14.500  14.633   2.249
13334W        W79875  35.758  19.566   2.929
13335W        W79876  37.526   7.886  11.630
13336W        W79877  13.925   3.491  11.611
13337W        W79878  38.918  24.839  10.412
13338W        W79879  13.836  17.563   4.658
13339W        W79880  34.699   1.535   2.445
13340W        W79881  30.630  33.538  11.277
13341W        W79882   7.240   1.134  13.372
13342W        W79883  44.040  41.027   4.233
13343W        W79884  26.051  30.160   2.656
13344W        W79885  29.698  11.697  13.002
13345W        W79886   2.302  41.656  13.011
13346W        W79887   7.475  34.943   4.772
13347W        W79888  32.095  29.694   4.589
13348W        W79889   0.330  25.058   0.577
13349W        W79890   9.896  14.236  12.071
13350W        W79891  36.322   9.807   2.892
13351W        W79892  38.722  29.666  13.262
13352W        W79893  11.125  41.504  13.393
13353W        W79894   4.326  26.729  10.429
13354W        W79895  12.723  28.100   3.144
13355W        W79896   9.255  21.011   1.989
13356W        W79897  38.912  25.629  13.743
13357W        W79898  15.570  35.353  14.930
13358W        W79899  16.137  28.655   3.762
13359W        W79900  17.748  26.846   1.279
13360W        W79901  44.215  16.602  14.347
13361W        W79902  21.285  32.615  13.861
13362W        W79903   2.775  35.973   3.850
13363W        W79904  36.968  40.317  14.001
13364W        W79905  34.604  18.650  10.708
13365W        W79906   8.785  12.842  14.379
13366W        W79907  43.531  39.372  13.142
13367W        W79908  25.953  37.041  14.034
13368W        W79909  38.360  20.647  12.071
13369W        W79910  19.604   5.749  13.860
13370W        W79911  40.997  39.916  13.025
13371W        W79912   0.438  32.673  14.772
13372W        W79913   9.999  13.412   3.735
13373W        W79914  26.510  18.287  14.650
13374W        W79915  22.549  31.838  14.063
13375W        W79916   7.228  41.082  12.098
13376W        W79917  35.067  22.030  12.882
13377W        W79918  42.396  31.399   1.894
13378W        W79919  34.181   3.800   4.580
13379W        W79920  43.517  14.359  14.829
13380W        W79921  35.333   0.321   2.640
13381W        W79922  13.704  26.908   1.529
13382W        W79923   2.355  13.997   3.291
13383W        W79924   0.892  12.831   4.112
13384W        W79925  22.057  14.597   4.696
13385W        W79926   6.637  35.007   2.711
13386W        W79927  34.950  34.896  14.998
13387W        W79928  36.097  26.494   1.876
13388W        W79929  38.419   5.083  13.970
13389W        W79930  13.556  33.562   3.822
13390W        W79931   9.719  44.999  13.423
13391W        W79932   5.943  42.391   0.463
13392W        W79933   8.348  35.831  11.014
13393W        W79934  26.979  30.579   1.389
13394W        W79935  13.723  30.939  14.274
13395W        W79936   2.799  34.313  13.387
13396W        W79937  30.699  23.959  11.713
13397W        W79938  16.807   1.470   2.208
13398W        W79939   4.493  40.375  12.785
13399W        W79940  14.132  26.836   2.077
13400W        W79941   8.613  32.406   1.883
13401W        W79942  30.648   5.421  12.263
13402W        W79943  12.375  14.815  11.727
13403W        W79944  21.398  12.279  10.292
13404W        W79945  20.711   7.837   2.857
13405W        W79946  38.065  21.773   4.339
13406W        W79947  17.989   8.646   4.635
13407W        W79948  20.707  33.844  10.671
13408W        W79949  42.348   3.489  12.321
13409W        W79950   5.007  32.925  10.666
13410W        W79951  20.726   8.850   1.393
13411W        W79952   8.004  13.257  11.158
13412W        W79953   2.456  18.013  10.641
13413W        W79954  29.921  32.954   1.500
13414W        W79955  15.922  39.941   1.643
13415W        W79956  40.254   4.571   3.364
13416W        W79957   7.979   2.276   4.226
13417W        W79958  37.304  34.916   3.157
13418W        W79959  36.531  18.835   4.203
13419W        W79960  22.082  34.420  14.466
13420W        W79961  37.686  42.512   2.913
13421W        W79962  39.587  32.458  10.890
13422W        W79963   9.166   9.721   4.733
13423W        W79964   2.909  15.084   1.801
13424W        W79965  40.236  36.918   4.290
13425W        W79966  21.287  42.419  11.576
13426W        W79967   5.298  34.645  12.961
13427W        W79968  27.366  30.508  12.820
13428W        W79969  24.573  21.274   0.804
13429W        W79970  13.951  40.043   0.811
13430W        W79971  42.330  22.680  10.750
13431W        W79972  35.500  42.211  14.066
13432W        W79973   2.800  12.255  13.085
13433W        W79974  15.792  32.732   4.524
13434W        W79975  19.955  36.835   0.919
13435W        W79976  17.120  29.272  12.419
13436W        W79977  25.703  21.297   1.968
13437W        W79978   3.827  24.584  13.754
13438W        W79979  24.534  30.934   1.808
13439W        W79980  39.596  36.907   2.492
13440W        W79981  19.263   9.438   4.690
13441W        W79982  12.952  35.879  14.392
13442W        W79983  39.357   0.766  10.818
13443W        W79984  24.978  28.567  14.891
13444W        W79985  34.495  32.978   0.563
13445W        W79986  33.918  10.132  12.549
13446W        W79987  33.149  36.526   4.600
13447W        W79988  28.435   6.430   4.615
13448W        W79989  12.343  21.990   4.137
13449W        W79990  17.853  43.580   3.538
13450W        W79991  29.797  31.583   1.511
13451W        W79992  40.121  15.432   3.693
13452W        W79993   4.496  31.217  10.457
13453W        W79994   6.685  21.923   0.980
13454W        W79995  35.058  24.788  14.676
13455W        W79996  33.055  11.859   3.776
13456W        W79997  26.562  20.482  13.513
13457W        W79998   4.865  28.731  13.918
13458W        W79999   3.433  15.241   2.807
13459W        W80000  19.061  19.104  12.496
13460W        W80001  29.449  21.484   3.796
13461W        W80002  39.293   8.634   1.908
13462W        W80003  13.880  28.451   4.110
13463W        W80004  12.797  20.734   1.869
13464W        W80005   0.280   5.266   0.749
13465W        W80006  34.316  34.453   1.817
13466W        W80007   5.811  27.987  14.522
13467W        W80008  29.473  26.671   3.293
13468W        W80009   4.003  14.738   1.510
13469W        W80010  34.480  17.838   0.328
13470W        W80011  25.502  31.047   3.195
13471W        W80012  43.908  37.880  13.327
13472W        W80013   9.696  34.883  11.256
13473W        W80014  29.951   5.874   2.298
13474W        W80015  44.859  38.416  13.471
13475W        W80016  41.171   0.688   0.773
13476W        W80017  14.142  34.677  12.064
13477W        W80018  19.274  17.683  10.437
13478W        W80019  12.267  38.534   3.775
13479W        W80020  20.118   4.312   1.928
13480W        W80021  21.208  12.861   3.494
13481W        W80022  32.587  20.712   2.162
13482W        W80023  38.454  19.995   4.098
13483W        W80024  14.139  43.254  11.915
13484W        W80025  38.873  33.977   0.376
13485W        W80026   4.558  14.156   2.696
13486W        W80027  17.329  25.227  12.117
13487W        W80028  31.480  25.373  13.213
13488W        W80029  10.942  31.190   3.201
13489W        W80030  12.749   9.703  14.826
13490W        W80031  26.989  14.046   2.649
13491W        W80032  18.690  36.327   3.615
13492W        W80033  24.262  25.684  13.498
13493W        W80034  16.579  21.481   0.377
13494W        W80035  14.086   5.008  14.726
13495W        W80036   0.857  17.147  13.099
13496W        W80037  12.815  33.560  11.934
13497W        W80038  34.584   1.979  12.133
13498W        W80039   3.846   6.951  11.613
13499W        W80040  41.815  20.858  11.135
13500W        W80041  15.438  37.942  12.752
13501W        W80042  12.606  28.948   1.677
13502W        W80043   9.794  32.886   1.355
13503W        W80044   0.851  42.659  11.151
13504W        W80045  44.787  11.107  14.402
13505W        W80046  16.398  13.128   1.491
13506W        W80047  13.293  24.636  14.515
13507W        W80048  12.378  25.115   3.355
13508W        W80049  41.951   3.478  11.529
13509W        W80050  10.947  11.217  11.109
13510W        W80051  34.178  36.926  11.986
13511W        W80052  32.501   1.876   9.794
13512W        W80053  33.421  21.951  13.602
13513W        W80054  26.156  26.983   2.168
13514W        W80055  15.166  14.642   1.135
13515W        W80056   0.381  20.998   1.756
13516W        W80057  40.738   6.843   2.723
13517W        W80058  28.448  34.940   2.722
13518W        W80059  18.961  27.401  13.054
13519W        W80060  14.144  12.069   0.389
13520W        W80061   7.701   8.940  13.637
13521W        W80062   1.662  41.561   4.262
13522W        W80063  24.061  26.834   0.267
13523W        W80064  12.868   6.348   4.220
13524W        W80065  29.891   1.720   4.597
13525W        W80066  31.726  39.057   4.136
13526W        W80067  39.132  35.552  12.509
13527W        W80068  27.226  27.578   0.779
13528W        W80069  36.344  16.827   0.285
13529W        W80070  12.834  44.288  13.928
13530W        W80071  22.856  44.358  11.996
13531W        W80072  28.892  40.384   4.590
13532W        W80073   7.320  27.991  14.996
13533W        W80074  43.585  35.979   3.008
13534W        W80075  25.013   5.892  10.288
13535W        W80076  15.400  38.163   0.452
13536W        W80077  40.413   3.522  12.077
13537W        W80078   6.489  40.495  12.966
13538W        W80079  15.604  13.172   2.296
13539W        W80080  16.909   8.338   3.827
13540W        W80081  38.912  30.432   2.651
13541W        W80082  27.090   8.903   4.775
13542W        W80083  23.237  16.880   1.862
13543W        W80084  29.499   1.426   4.366
13544W        W80085  38.673  30.100  11.136
13545W        W80086  19.052  24.842   2.876
13546W        W80087  41.469   9.142   3.988
13547W        W80088   8.769   7.676  14.881
13548W        W80089  28.152  15.804  11.525
13549W        W80090  43.579  39.400   4.381
13550W        W80091  38.896  35.773  11.194
13551W        W80092  17.109  31.487  13.444
13552W        W80093  25.385   4.061  10.457
13553W        W80094   2.152   4.421   3.232
13554W        W80095   8.535  29.042   3.311
13555W        W80096   9.117  33.530   0.017
13556W        W80097  34.298  35.498   0.459
13557W        W80098  38.735  29.661   3.139
13558W        W80099  35.325  25.439  11.448
13559W        W80100  41.369  28.972   3.685
13560W        W80101  36.597  40.165  11.490
13561W        W80102  42.530  28.083  12.956
13562W        W80103  30.649  43.733   2.971
13563W        W80104  26.124  40.069  12.521
13564W        W80105  30.620  23.331  14.487
13565W        W80106  23.040   0.794  12.040
13566W        W80107  30.352  10.304  14.802
13567W        W80108  29.593  38.576  11.574
13568W        W80109  15.272   9.139  12.420
13569W        W80110   7.359  24.527  10.564
13570W        W80111  30.942  24.727  13.436
13571W        W80112   0.433  15.620  11.680
13572W        W80113  35.878  19.650   1.534
13573W        W80114  31.726  10.133   3.845
13574W        W80115  40.757  33.339   4.476
13575W        W80116   0.420  34.390   3.674
13576W        W80117  42.353  33.703   1.643
13577W        W80118  18.380   0.896   5.030
13578W        W80119  12.811  41.942  14.451
13579W        W80120  11.557   7.699   3.198
13580W        W80121  36.614   1.016   1.358
13581W        W80122  19.209  16.604  12.397
13582W        W80123  21.870  41.421   5.006
13583W        W80124  26.901  11.150   4.381
13584W        W80125  26.821   7.345  13.477
13585W        W80126   2.898  35.616   1.687
13586W        W80127  37.651   3.262  10.246
13587W        W80128  10.585  21.717  13.335
13588W        W80129  30.091  28.794  11.785
13589W        W80130   9.233  36.947  10.668
13590W        W80131  43.368  34.007   0.223
13591W        W80132  29.420   5.312  11.009
13592W        W80133   3.928  44.939  13.019
13593W        W80134   8.714  35.464  12.094
13594W        W80135  14.319  13.094  11.787
13595W        W80136  24.009  16.022  14.283
13596W        W80137  35.714   6.249   3.591
13597W        W80138   3.902  42.885   4.097
13598W        W80139  25.211   5.616   0.334
13599W        W80140  25.577  38.502  13.094
13600W        W80141  11.664  32.548   3.057
13601W        W80142  23.573  10.178  12.609
13602W        W80143  19.959  37.865  12.124
13603W        W80144  18.390  27.436  12.457
13604W        W80145  18.453  30.843   1.362
13605W        W80146  41.151  35.828  12.551
13606W        W80147  36.910  38.588  14.830
13607W        W80148  27.748  41.567   4.148
13608W        W80149  27.097   9.326  14.605
13609W        W80150   7.537  33.293  11.629
13610W        W80151  28.153  43.530   3.663
13611W        W80152  31.607  30.987  12.042
13612W        W80153  12.116   9.809  12.958
13613W        W80154   3.828   2.345  11.630
13614W        W80155   9.234  30.448   1.563
13615W        W80156   0.105  10.303   3.238
13616W        W80157  35.851  33.645  13.984
13617W        W80158  41.466  21.153  11.901
13618W        W80159  43.280  13.325   3.692
13619W        W80160   0.686  36.907   3.449
13620W        W80161  32.525   4.622  10.935
13621W        W80162  42.918   0.425  12.322
13622W        W80163  16.242  24.312   4.388
13623W        W80164  38.885  28.139   3.609
13624W        W80165   8.193  34.692  13.912
13625W        W80166   8.884  38.362  12.999
13626W        W80167  13.390   6.290   4.363
13627W        W80168  22.758   9.760  13.407
13628W        W80169  14.365   3.726  10.701
13629W        W80170   9.426  12.394  12.994
13630W        W80171  19.060  17.679   3.065
13631W        W80172   3.136  38.660   5.262
13632W        W80173  28.352  27.834  10.326
13633W        W80174  40.446  21.227  13.479
13634W        W80175   9.850  38.157   2.276
13635W        W80176  29.374  10.854   3.051
13636W        W80177  24.582   9.720  13.913
13637W        W80178  26.788  37.082  13.430
13638W        W80179  25.190   2.326   0.296
13639W        W80180  18.625  22.449  11.643
13640W        W80181  22.313  15.817  11.081
13641W        W80182  42.494  15.482  13.497
13642W        W80183  18.507  44.326   3.380
13643W        W80184  25.110  42.339  11.615
13644W        W80185  40.052  41.091   2.177
13645W        W80186   1.865  40.491   1.255
13646W        W80187  22.918  17.227  10.693
13647W        W80188   1.353  20.820  13.656
13648W        W80189   8.466  42.200  10.645
13649W        W80190  40.926   5.925  12.392
13650W        W80191  30.672   8.735   3.896
13651W        W80192  35.878  36.355  13.882
13652W        W80193  20.425  36.391  10.680
13653W        W80194  21.191  25.173   4.076
13654W        W80195  31.420   7.117  13.205
13655W        W80196  14.378  16.055  13.501
13656W        W80197  38.570  42.210   0.371
13657W        W80198  15.210  32.910  12.896
13658W        W80199   6.886  39.347   3.707
13659W        W80200  37.480  33.203  10.618
13660W        W80201  39.876  26.081  13.910
13661W        W80202  20.184   8.705   1.632
13662W        W80203  11.648   1.210   4.183
13663W        W80204  43.347  29.121   4.178
13664W        W80205   9.217  43.802  11.312
13665W        W80206  42.492  35.687   3.665
13666W        W80207  25.216  42.830   3.151
13667W        W80208  13.620  18.420  11.281
13668W        W80209  11.552  15.760   0.272
13669W        W80210  43.507  13.558   3.261
13670W        W80211  25.041  37.164   2.608
13671W        W80212   9.373   9.231  10.960
13672W        W80213  33.191  42.816  13.634
13673W        W80214  14.795  40.636  12.990
13674W        W80215  40.582  44.483  10.675
13675W        W80216  38.791  16.400  13.736
13676W        W80217  32.317  18.024  13.280
13677W        W80218  38.226  43.421  12.312
13678W        W80219  34.937   6.838  13.676
13679W        W80220  22.132  15.497  10.265
13680W        W80221  30.464  18.111   3.530
13681W        W80222  34.916  32.250  12.460
13682W        W80223  44.339  39.600   0.275
13683W        W80224  31.379  31.420   3.715
13684W        W80225  39.069  28.559   4.603
13685W        W80226  29.879  22.989   2.223
13686W        W80227  26.704  44.066  11.233
13687W        W80228  29.990   7.874  11.062
13688W        W80229  11.934  22.683  13.618
13689W        W80230  31.988  14.370   4.229
13690W        W80231  42.822  16.615   2.987
13691W        W80232   7.241  26.603   4.180
13692W        W80233  24.911   3.260   4.363
13693W        W80234  29.679  29.450   4.579
13694W        W80235   2.704  15.757   4.306
13695W        W80236  33.026  12.350   2.823
13696W        W80237  28.975  44.851   0.431
13697W        W80238  18.369   5.675  14.390
13698W        W80239  17.241  30.377  13.150
13699W        W80240  40.447  34.914  14.466
13700W        W80241  32.825  34.700   1.747
13701W        W80242  37.562  24.550  11.167
13702W        W80243  37.959  14.183   3.881
13703W        W80244   0.388  27.219  12.965
13704W        W80245  41.462  31.255  14.569
13705W        W80246  21.796  23.391   3.650
13706W        W80247   7.412  13.630  13.054
13707W        W80248  40.325  33.199   0.957
13708W        W80249  28.438  26.713   4.736
13709W        W80250  27.490   0.293   0.442
13710W        W80251  34.637  43.420   3.797
13711W        W80252  30.741   5.993  14.492
13712W        W80253   7.863  11.810  10.745
13713W        W80254   5.525  40.098   1.238
13714W        W80255  39.154  44.265  11.633
13715W        W80256  26.851   1.904  13.862
13716W        W80257  33.055  15.649   2.165
13717W        W80258  33.436  33.894   2.807
13718W        W80259  29.509  28.493  13.027
13719W        W80260   7.036  27.143  12.368
13720W        W80261  22.591   7.105   0.831
13721W        W80262   7.837  24.304  12.096
13722W        W80263  26.466  41.920  13.352
13723W        W80264  18.070  43.668   4.301
13724W        W80265  38.698   1.908   2.598
13725W        W80266   7.213   6.839   3.798
13726W        W80267  27.069  36.718  14.404
13727W        W80268  12.011  29.018   0.857
13728W        W80269  24.677   5.601   0.714
13729W        W80270  42.237  40.373  10.515
13730W        W80271  32.064  14.874  13.926
13731W        W80272  37.507   0.740  11.134
13732W        W80273  11.432  24.514  14.246
13733W        W80274   7.188  27.044   0.216
13734W        W80275  25.148  39.598  14.418
13735W        W80276   0.917  18.550  14.824
13736W        W80277  32.333   5.258   1.414
13737W        W80278  26.109  11.205   1.100
13738W        W80279  12.195   9.616   3.572
13739W        W80280  22.019  23.620   2.835
13740W        W80281  39.343  39.474  11.057
13741W        W80282  15.543  28.445   0.333
13742W        W80283  17.014   7.409  12.517
13743W        W80284  43.520  23.809   1.423
13744W        W80285  35.616  20.686   2.697
13745W        W80286  23.976   3.421   3.616
13746W        W80287  23.778  22.004  13.199
13747W        W80288  32.564  26.341   1.205
13748W        W80289   7.696   7.626  12.925
13749W        W80290  12.501  43.005   3.838
13750W        W80291  35.830  35.614  14.292
13751W        W80292  32.419  40.216  12.934
13752W        W80293  40.836  13.373   3.302
13753W        W80294  33.004  43.264   3.906
13754W        W80295  19.641   0.989   1.311
13755W        W80296  31.731  38.614  11.208
13756W        W80297  36.129   9.915   4.837
13757W        W80298  28.659  43.186  13.016
13758W        W80299  17.051   1.927   1.801
13759W        W80300  39.379  30.607  10.596
13760W        W80301  31.112   4.560  10.476
13761W        W80302  43.302   1.738  13.492
13762W        W80303  31.042  10.129  10.738
13763W        W80304  19.853   1.343   2.188
13764W        W80305  43.281   2.338   0.665
13765W        W80306  33.929  29.513   0.818
13766W        W80307   0.813  29.125  11.214
13767W        W80308  22.255  33.785  11.944
13768W        W80309   8.162   6.254   0.735
13769W        W80310  22.160  37.679  13.840
13770W        W80311   3.421  31.328   0.330
13771W        W80312   7.929  22.677  14.347
13772W        W80313  14.174  42.491  12.848
13773W        W80314   6.916  40.621  13.265
13774W        W80315  11.574  30.031   1.807
13775W        W80316  40.860  43.656  14.663
13776W        W80317   9.645   9.112  14.162
13777W        W80318  34.079  37.211  12.402
13778W        W80319  38.606   2.735  14.850
13779W        W80320   0.312  37.893   3.338
13780W        W80321   7.460  35.333  12.205
13781W        W80322  22.546  10.955  13.845
13782W        W80323  28.329   4.137  12.623
13783W        W80324  11.746  35.890  14.922
13784W        W80325  22.729  39.577  14.754
13785W        W80326  10.064   5.158  12.851
13786W        W80327  37.877   6.629  12.543
13787W        W80328  11.069  39.441  14.605
13788W        W80329  21.103   4.144  13.080
13789W        W80330   1.308  35.220  14.116
13790W        W80331  19.638   7.379   0.360
13791W        W80332   6.140  44.849  14.862
13792W        W80333  24.110  18.244  13.913
13793W        W80334   7.204   2.198  10.697
13794W        W80335  33.460  13.248   0.369
13795W        W80336  10.462  26.294   4.038
13796W        W80337  33.443  35.312  11.593
13797W        W80338  39.268  17.577   0.210
13798W        W80339  32.371  40.460  12.451
13799W        W80340  32.099  20.227   4.327
13800W        W80341  37.069  29.771  13.845
13801W        W80342  30.559   4.282   0.423
13802W        W80343  11.194   1.375   1.278
13803W        W80344  28.782  41.670  13.011
13804W        W80345   7.847   2.397   1.330
13805W        W80346  41.062   4.776   0.399
13806W        W80347   7.567  11.485  11.050
13807W        W80348  41.366  16.074   2.703
13808W        W80349   9.690  29.414   4.802
13809W        W80350  35.903  12.388   4.725
13810W        W80351  15.614  40.019   0.377
13811W        W80352   2.523  22.998   0.307
13812W        W80353  29.459  18.689   4.599
13813W        W80354  23.615   8.999   0.297
13814W        W80355  27.129   5.131   4.577
13815W        W80356  26.166  36.865  11.726
13816W        W80357   9.848   0.317   0.163
13817W        W80358  44.717  43.581   0.572
13818W        W80359  25.161  38.415   3.274
13819W        W80360  38.886  33.583   1.739
13820W        W80361  40.830  17.725   0.771
13821W        W80362   6.419   6.724   2.441
13822W        W80363  40.943  44.419  13.169
13823W        W80364  30.202  44.235   4.388
13824W        W80365  29.144   8.590  13.426
13825W        W80366  20.011  17.651   4.101
13826W        W80367   8.807  21.540  11.226
13827W        W80368   2.799  14.700   0.253
13828W        W80369  32.591  14.237   0.142
13829W        W80370  33.941  20.037   4.842
13830W        W80371  43.394  35.781   2.013
13831W        W80372   0.361  17.473   4.358
13832W        W80373   7.767  10.855   1.270
13833W        W80374  10.407  10.354  13.106
13834W        W80375  17.260  20.084   3.674
13835W        W80376  26.871   1.822  12.869
13836W        W80377   2.653  29.605   3.878
13837W        W80378  14.745  39.221   0.023
13838W        W80379   5.831   0.032  14.413
13839W        W80380  17.979   2.341   0.103
13840W        W80381  40.486  12.081   0.962
13841W        W80382  30.059  40.775   1.724
13842W        W80383   0.553  22.105  10.505
13843W        W80384  30.552  39.870   3.305
13844W        W80385   2.442  33.834   1.915
13845W        W80386  19.072  28.949  11.073
13846W        W80387   5.342  16.492  12.910
13847W        W80388   3.617  44.959  10.203
13848W        W80389  17.103   4.491  14.894
13849W        W80390  36.287  12.313  11.047
13850W        W80391  15.835  36.564   4.202
13851W        W80392  16.574  39.719  12.578
13852W        W80393  36.860   9.644   3.726
13853W        W80394   3.708  33.168   3.230
13854W        W80395  38.358  35.345  11.961
13855W        W80396   2.829  34.788   3.636
13856W        W80397   5.700  10.022   1.904
13857W        W80398   8.172   0.276   3.685
13858W        W80399  24.512   8.494   0.374
13859W        W80400  22.458  17.300   4.073
13860W        W80401   6.943  28.533  13.751
13861W        W80402   0.014  24.462  11.519
13862W        W80403  17.085  22.231  11.241
13863W        W80404  42.985  16.254   2.626
13864W        W80405  18.531  21.544   3.633
13865W        W80406  37.961  17.119  13.786
13866W        W80407  10.761  22.242  11.525
13867W        W80408   7.347  16.351   4.131
13868W        W80409  36.600   7.889  10.686
13869W        W80410  24.077  26.882  10.648
13870W        W80411  37.915  31.080  13.957
13871W        W80412  39.484  13.457  12.076
13872W        W80413  15.282  37.639  12.339
13873W        W80414  17.760  19.873  14.717
13874W        W80415   5.485  22.756  12.060
13875W        W80416  41.336  15.812  12.450
13876W        W80417  40.547   0.801  12.103
13877W        W80418  17.299  27.514   0.627
13878W        W80419  10.447  21.638  14.877
13879W        W80420  24.063   1.799  14.395
13880W        W80421  36.596  28.015  10.009
13881W        W80422  38.290   7.339   3.775
13882W        W80423  15.922   5.809  14.633
13883W        W80424  42.646  24.721  14.891
13884W        W80425  37.115  22.745   1.579
13885W        W80426   6.711  31.535   0.724
13886W        W80427  40.980  26.030   3.751
13887W        W80428   8.661  40.092  13.888
13888W        W80429  34.020  14.687   4.642
13889W        W80430  31.909  20.253  14.418
13890W        W80431   9.721   1.294   2.335
13891W        W80432  24.654  28.439   0.865
13892W        W80433  40.789  12.292   2.444
13893W        W80434  22.072  12.145   1.901
13894W        W80435  18.898  16.555  14.246
13895W        W80436  37.558  10.106  12.032
13896W        W80437  38.718   8.087  12.053
13897W        W80438  26.986  32.545  12.970
13898W        W80439   6.235  28.514  11.493
13899W        W80440  37.141  22.815  12.839
13900W        W80441   8.850   2.400   4.974
13901W        W80442   3.467   2.801  13.063
13902W        W80443  12.135  25.514   2.104
13903W        W80444   7.184  26.984   4.678
13904W        W80445  30.183  26.112   4.190
13905W        W80446  37.866  23.236  11.595
13906W        W80447  11.503  44.471   3.242
13907W        W80448   1.012   9.348  10.723
13908W        W80449   3.483  19.732  11.715
13909W        W80450  33.540   4.191  13.254
13910W        W80451  11.424  25.980  11.221
13911W        W80452  10.653  44.440  12.696
13912W        W80453   0.206  44.514   0.526
13913W        W80454  14.089  18.104  11.543
13914W        W80455  23.941   9.791   2.207
13915W        W80456   9.691  11.791  14.620
13916W        W80457  10.710   9.188  11.229
13917W        W80458  24.040  41.289  10.722
13918W        W80459  29.570  22.911   3.721
13919W        W80460  21.249  20.968  11.949
13920W        W80461  27.878  38.025  13.208
13921W        W80462   1.375   7.697  14.238
13922W        W80463  16.000  33.940   1.204
13923W        W80464  38.790  20.210   1.010
13924W        W80465  40.375  34.180  11.619
13925W        W80466  40.253  10.091   2.078
13926W        W80467  28.680  33.135  14.491
13927W        W80468  36.348   8.731  14.488
13928W        W80469  42.624  44.734  14.310
13929W        W80470  38.815  28.744   4.197
13930W        W80471   7.902  27.593  11.510
13931W        W80472  20.171   4.279  14.433
13932W        W80473   5.951   3.004  13.107
13933W        W80474  40.314  42.969  10.172
13934W        W80475  17.130  38.548   3.818
13935W        W80476  13.394  37.843   1.300
13936W        W80477  37.960   1.259   0.773
13937W        W80478  32.534   4.769   1.368
13938W        W80479  17.936  21.755   4.584
13939W        W80480  12.821  14.075   4.766
13940W        W80481  44.207   3.531  14.041
13941W        W80482   5.294  35.045   4.458
13942W        W80483   8.363  27.886   3.667
13943W        W80484  18.172  15.031  14.736
13944W        W80485  29.783  44.061   3.180
13945W        W80486  32.176  32.937   1.224
13946W        W80487  11.304  39.879   5.031
13947W        W80488  26.581  44.379  12.696
13948W        W80489  18.601  30.499  13.040
13949W        W80490  30.089  36.321   2.154
13950W        W80491  26.967  13.334  13.017
13951W        W80492  15.989  20.039   1.217
13952W        W80493   8.608  36.580  12.442
13953W        W80494  32.190  18.336   2.712
13954W        W80495  28.132  24.120  12.835
13955W        W80496  27.017  26.011  12.081
13956W        W80497  38.919  19.654   1.691
13957W        W80498   0.811  24.317  14.913
13958W        W80499  10.335   3.282   3.552
13959W        W80500  11.932  37.399  12.578
13960W        W80501  20.273  16.269   4.194
13961W        W80502  32.030   1.938  14.484
13962W        W80503   9.456  10.214  14.393
13963W        W80504  24.379  41.860   4.300
13964W        W80505   7.831  39.282   3.708
13965W        W80506   0.861  27.919  12.672
13966W        W80507  37.785  10.904  14.804
13967W        W80508  14.444   1.495   0.401
13968W        W80509   3.010  17.376  12.374
13969W        W80510  31.735  33.085   3.096
13970W        W80511  23.201  31.350   0.311
13971W        W80512  29.493   9.585   1.424
13972W        W80513  38.180  33.009   4.696
13973W        W80514  26.441  15.718  12.925
13974W        W80515  17.601  23.986   2.923
13975W        W80516  24.505   8.775   3.639
13976W        W80517  16.849  14.744   5.563
13977W        W80518  44.873  30.106   3.925
13978W        W80519  12.273  30.827   2.831
13979W        W80520  28.927  22.601  11.432
13980W        W80521  32.853   9.428  12.043
13981W        W80522   4.149  36.485  11.200
13982W        W80523  42.474   8.417  11.566
13983W        W80524  33.906  44.525   2.638
13984W        W80525  43.267  38.332   2.910
13985W        W80526  28.981   0.738  12.882
13986W        W80527  21.709  35.027   1.680
13987W        W80528  18.772  40.383   1.258
13988W        W80529   9.849  22.599  13.387
13989W        W80530  44.295   3.244   1.810
13990W        W80531  42.948  31.045   2.661
13991W        W80532   8.262   7.251  13.250
13992W        W80533  43.387   8.303   4.553
13993W        W80534  33.031  22.954  11.090
13994W        W80535  37.737  22.094   4.597
13995W        W80536  17.615  24.816  12.025
13996W        W80537  26.893  15.683   3.305
13997W        W80538   5.680   5.304  14.422
13998W        W80539  36.533  30.070  12.972
13999W        W80540  40.336  36.205   1.307
14000W        W80541   8.104  21.053   4.147
14001W        W80542  26.823  28.999   0.949
14002W        W80543  17.091  41.299   4.124
14003W        W80544  40.824  38.064  14.452
14004W        W80545  21.050  20.080   0.245
14005W        W80546  36.968  38.264  14.447
14006W        W80547  39.341  35.355   0.470
14007W        W80548   1.944   4.982   4.496
14008W        W80549  32.971  36.058   4.809
14009W        W80550   5.152  20.709   4.588
14010W        W80551  24.269  14.356  12.076
14011W        W80552  26.017  13.201  11.654
14012W        W80553  34.489  21.376   3.773
14013W        W80554  30.154  35.131  12.959
14014W        W80555  14.823  42.349  13.488
14015W        W80556  11.776  35.541   1.905
14016W        W80557  43.280   6.358   1.468
14017W        W80558  44.111   4.337  12.867
14018W        W80559  18.653   0.480  14.481
14019W        W80560  41.037  43.898  13.842
14020W        W80561   9.861  43.194  10.170
14021W        W80562   1.808  22.730   0.944
14022W        W80563  18.360  43.364  13.083
14023W        W80564  10.743   9.492  14.011
14024W        W80565  42.352  21.546   4.339
14025W        W80566   8.432  34.556   4.757
14026W        W80567  31.434  15.144   9.838
14027W        W80568  16.690   4.424   2.808
14028W        W80569   9.941   7.746  13.535
14029W        W80570   0.392   4.319   0.313
14030W        W80571  16.415  19.373  13.459
14031W        W80572  21.420  35.681  14.023
14032W        W80573  18.628   3.016  12.341
14033W        W80574  12.838  30.310   0.001
14034W        W80575  34.306  12.127   3.198
14035W        W80576  30.725  17.252   4.598
14036W        W80577  19.589  30.633  11.640
14037W        W80578  23.186  30.942  14.888
14038W        W80579  12.931   0.384  11.675
14039W        W80580  30.380  17.836   0.871
14040W        W80581   5.448   2.829   0.282
14041W        W80582  38.060  25.712  12.514
14042W        W80583  32.640   8.671  14.433
14043W        W80584  21.211   7.882  14.511
14044W        W80585  42.482  32.517   4.172
14045W        W80586  19.514  18.099   3.596
14046W        W80587   1.842  28.933   1.236
14047W        W80588   9.103  34.845  12.104
14048W        W80589  19.739   9.296   4.555
14049W        W80590   0.511  17.191   3.062
14050W        W80591  34.512  29.665   2.970
14051W        W80592  23.830  18.766   4.278
14052W        W80593   8.378  13.969  10.610
14053W        W80594   6.338   0.226   3.795
14054W        W80595   4.398  13.706   4.181
14055W        W80596  22.817  44.860  12.429
14056W        W80597   8.257  22.008  12.734
14057W        W80598  23.534  31.870   4.516
14058W        W80599  37.067   2.804   0.799
14059W        W80600  44.401  38.320  11.537
14060W        W80601   8.356  30.577  12.795
14061W        W80602  15.218  35.517   1.275
14062W        W80603   4.954  36.247   1.616
14063W        W80604  17.155  36.859  13.319
14064W        W80605  18.300  21.759   0.476
14065W        W80606  16.841  13.138  14.851
14066W        W80607  43.675   3.452   1.023
14067W        W80608  15.117   7.788   0.289
14068W        W80609  27.252  40.390  11.909
14069W        W80610  28.602  37.504  14.466
14070W        W80611  16.541   1.915   2.256
14071W        W80612  32.810  44.830  11.854
14072W        W80613  11.455  11.844  11.670
14073W        W80614   9.319  26.284  12.568
14074W        W80615   2.303  20.229   3.009
14075W        W80616  11.253  11.360  12.378
14076W        W80617  36.723  16.162   0.860
14077W        W80618  40.679  35.204   3.849
14078W        W80619  33.742  10.158   4.500
14079W        W80620  36.746  23.680  14.887
14080W        W80621  20.739  32.768   4.631
14081W        W80622  32.345  41.667   2.588
14082W        W80623  18.242   0.908  11.487
14083W        W80624  30.825  16.477   0.600
14084W        W80625  29.967  39.854  11.677
14085W        W80626   9.428  25.625   4.167
14086W        W80627   5.365  10.305  11.563
14087W        W80628  42.302  31.366  13.110
14088W        W80629  28.336  11.252  11.954
14089W        W80630  32.940  25.678   3.698
14090W        W80631  36.890  22.059  14.398
14091W        W80632  38.469  23.222   4.318
14092W        W80633  22.889   9.396   2.257
14093W        W80634  20.872  34.576   1.704
14094W        W80635  36.288  30.131  10.738
14095W        W80636  30.165  10.347  12.078
14096W        W80637  26.246   1.904   1.205
14097W        W80638   4.789  27.986  14.476
14098W        W80639  18.118  33.963  10.732
14099W        W80640  19.266  24.444  14.402
14100W        W80641  40.701  24.720   1.722
14101W        W80642  41.352  28.964  14.384
14102W        W80643  15.107  44.227  13.610
14103W        W80644  41.504  15.041   2.132
14104W        W80645  18.593  27.118   1.008
14105W        W80646  29.862  34.768   4.734
14106W        W80647  25.172  26.647   1.406
14107W        W80648  12.849   1.197   4.607
14108W        W80649  13.249  27.471   4.560
14109W        W80650   4.892  36.872  12.500
14110W        W80651  26.470  44.030  13.965
14111W        W80652  43.490  15.756   1.950
14112W        W80653  19.903  37.809   0.661
14113W        W80654   1.779  34.269  12.918
14114W        W80655  13.156   9.006  13.499
14115W        W80656  22.984  21.471  11.151
14116W        W80657   4.647  10.124   9.984
14117W        W80658  26.272   9.322  12.682
14118W        W80659  18.838   0.516   4.161
14119W        W80660  16.197   8.004  12.860
14120W        W80661   6.275   0.474   0.991
14121W        W80662  43.487  12.127   4.034
14122W        W80663  18.373  11.787  14.068
14123W        W80664  10.534  42.300  11.946
14124W        W80665   0.489  20.796   0.419
14125W        W80666   7.655   3.410  12.951
14126W        W80667   5.130  28.031   5.043
14127W        W80668  23.734  44.945  14.279
14128W        W80669  36.025  43.989   0.465
14129W        W80670  42.906  14.036   3.714
14130W        W80671  39.967  19.504  12.591
14131W        W80672  37.115  39.060  12.061
14132W        W80673  22.356  31.619  12.352
14133W        W80674  43.925  28.629   3.339
14134W        W80675   8.806  10.373  12.533
14135W        W80676  31.589  26.811  14.244
14136W        W80677  21.118   3.632   3.372
14137W        W80678   4.436  26.685  11.428
14138W        W80679  24.523  34.582   4.577
14139W        W80680  38.061  16.818  11.161
14140W        W80681  44.796  44.076  12.271
14141W        W80682   9.097  28.542   4.599
14142W        W80683  43.740  10.044  11.594
14143W        W80684  15.286  15.211   4.994
14144W        W80685  19.082  36.600  14.328
14145W        W80686  10.315  32.229  12.301
14146W        W80687  35.461  31.138   1.957
14147W        W80688  18.148  19.259  13.457
14148W        W80689  15.207   2.877   3.704
14149W        W80690  13.729  16.815   2.830
14150W        W80691  26.655   9.646  10.991
14151W        W80692   8.113  19.644   3.159
14152W        W80693   3.638  35.403  14.416
14153W        W80694   0.476  26.524   0.788
14154W        W80695  26.107  25.964  13.905
14155W        W80696  23.250   1.865  11.479
14156W        W80697  41.776  34.339   3.653
14157W        W80698  31.043   5.161  12.512
14158W        W80699  22.170  24.108   2.901
14159W        W80700  26.918  21.729   1.302
14160W        W80701   4.317  41.754  12.606
14161W        W80702  27.351   4.464  12.577
14162W        W80703  15.236   3.732  14.008
14163W        W80704   1.863  32.928   5.443
14164W        W80705  15.120   5.325   2.158
14165W        W80706  31.146  28.065  12.561
14166W        W80707  19.698  17.346  14.050
14167W        W80708   7.154  10.384   3.651
14168W        W80709  11.093  33.072  11.684
14169W        W80710  38.239  39.464  13.352
14170W        W80711  21.989  41.364  10.712
14171W        W80712   5.007   9.233  12.554
14172W        W80713  33.765  39.129   2.387
14173W        W80714  20.966  33.424  11.101
14174W        W80715  27.394  11.215   2.914
14175W        W80716   3.941  37.047  14.196
14176W        W80717  24.060  20.759   4.319
14177W        W80718  15.479   5.924   0.525
14178W        W80719  27.647  27.550   0.287
14179W        W80720   8.189   2.695   3.569
14180W        W80721   5.551   5.337  10.787
14181W        W80722   4.244  27.555   0.011
14182W        W80723  22.774   6.391  13.441
14183W        W80724  30.782  40.784   0.083
14184W        W80725  21.059  21.279   3.191
14185W        W80726  20.681  36.664  12.093
14186W        W80727  43.326  39.827   2.537
14187W        W80728  43.272  42.526  10.400
14188W        W80729   4.355   6.256   2.365
14189W        W80730  21.831  43.739  14.346
14190W        W80731  32.964  26.929   3.022
14191W        W80732  39.004   7.374   0.829
14192W        W80733  41.381  37.938   3.893
14193W        W80734  19.529  27.256   0.317
14194W        W80735  33.681  22.689  14.486
14195W        W80736   3.880  15.178   3.345
14196W        W80737  17.205  42.600  10.700
14197W        W80738   6.452  14.849  11.436
14198W        W80739  30.197   5.403   4.797
14199W        W80740  35.001  40.449  14.785
14200W        W80741  36.823  40.643  13.631
14201W        W80742   0.488  44.795  13.257
14202W        W80743  43.115   1.048  13.006
14203W        W80744  21.477  20.109  13.438
14204W        W80745  12.045  44.888  11.519
14205W        W80746  44.829  38.438  10.828
14206W        W80747  29.971  11.122  13.936
14207W        W80748  14.691   0.437   1.918
14208W        W80749   5.830   2.887  11.314
14209W        W80750  15.114   7.054   4.863
14210W        W80751  13.948  13.368   4.201
14211W        W80752  17.817  39.428  11.322
14212W        W80753   4.317  31.582  10.784
14213W        W80754  42.312  42.006  13.522
14214W        W80755  23.548  40.394  11.456
14215W        W80756  28.739  13.713  12.877
14216W        W80757   4.158   5.024   1.904
14217W        W80758   7.461   6.260   4.482
14218W        W80759  35.055  43.916   2.396
14219W        W80760  29.517   8.748  10.766
14220W        W80761  33.334   6.830   2.519
14221W        W80762  35.201   3.754   2.144
14222W        W80763  34.372  34.624   3.972
14223W        W80764  32.040  36.881   2.909
14224W        W80765  39.478  23.109   2.378
14225W        W80766  21.033  22.766  12.879
14226W        W80767  10.272   8.705   0.000
14227W        W80768  28.469  40.482  11.441
14228W        W80769   7.774  32.497  12.368
14229W        W80770  27.417  20.645   0.948
14230W        W80771  16.143  31.898   1.505
14231W        W80772  15.603  11.170  11.822
14232W        W80773  32.147  19.689   3.933
14233W        W80774  38.776  31.967   4.132
14234W        W80775  16.304  15.748  14.261
14235W        W80776  21.740  23.012  13.934
14236W        W80777  21.733   7.508   3.218
14237W        W80778  33.030   6.278  12.845
14238W        W80779  43.064  29.524   3.704
14239W        W80780  28.049  28.639   4.073
14240W        W80781  16.690  28.647  14.371
14241W        W80782  13.183  33.270  13.017
14242W        W80783   4.531   4.460   5.785
14243W        W80784  36.977  17.570   2.327
14244W        W80785  12.822   7.773  10.580
14245W        W80786  35.058   5.101   0.965
14246W        W80787   8.163  36.907   9.902
14247W        W80788   0.457   9.333  13.951
14248W        W80789  23.164   1.981  13.864
14249W        W80790   4.786  31.607   0.194
14250W        W80791  19.106   8.609  13.914
14251W        W80792   0.812  35.166   3.573
14252W        W80793  31.978  21.273   4.162
14253W        W80794  22.770  34.130   1.946
14254W        W80795  20.582  26.044   4.355
14255W        W80796  44.432  27.725   1.464
14256W        W80797   9.802  11.980  13.117
14257W        W80798   1.916  39.858  10.576
14258W        W80799  17.657   4.862  14.490
14259W        W80800  43.876  11.543  14.510
14260W        W80801   9.568  13.536   1.021
14261W        W80802  11.741  28.935  12.305
14262W        W80803   0.962  39.588   0.868
14263W        W80804  20.753  20.135  13.984
14264W        W80805  35.307  37.682   0.446
14265W        W80806  23.796  18.734   2.712
14266W        W80807   2.870  18.187   2.105
14267W        W80808  21.151  33.986  14.560
14268W        W80809  20.900  18.564   2.663
14269W        W80810  19.230  11.352   2.031
14270W        W80811  27.131  41.623  11.662
14271W        W80812  28.897   8.905  13.804
14272W        W80813   9.294   9.266   1.585
14273W        W80814  39.269  43.775   2.738
14274W        W80815  27.562  40.422  10.880
14275W        W80816   5.241   5.815  11.031
14276W        W80817   6.937  21.562   1.899
14277W        W80818  40.772  37.276   4.186
14278W        W80819  20.364  10.696   0.481
14279W        W80820  19.308  24.531   3.206
14280W        W80821  22.383  18.883   1.556
14281W        W80822  23.194   9.726   3.105
14282W        W80823  36.837  26.633  12.874
14283W        W80824  40.964   5.395  12.569
14284W        W80825  16.621  43.189  14.913
14285W        W80826  15.077  35.166   4.577
14286W        W80827  13.591  21.166   0.175
14287W        W80828  29.464  26.935   2.827
14288W        W80829  35.611  11.219   0.310
14289W        W80830  40.545  20.757   4.570
14290W        W80831  39.624  34.365   0.412
14291W        W80832   5.315  20.126   0.801
14292W        W80833  30.808  25.617  10.965
14293W        W80834  43.981  33.116   4.453
14294W        W80835   1.649  11.986   1.830
14295W        W80836  35.078  15.562   0.248
14296W        W80837  37.132  40.853  10.608
14297W        W80838   9.773  32.344   3.857
14298W        W80839   0.988  40.515   0.426
14299W        W80840  18.011   1.250   2.893
14300W        W80841  17.680   2.400   1.416
14301W        W80842  20.456   0.353  14.808
14302W        W80843  24.180  28.430  12.774
14303W        W80844  23.577  40.596  10.551
14304W        W80845   9.099  22.989   4.534
14305W        W80846  29.120  28.116   2.848
14306W        W80847   3.721  24.714   3.283
14307W        W80848   4.029  32.342   0.803
14308W        W80849  14.537   9.314   4.343
14309W        W80850  17.880  11.727   3.459
14310W        W80851  35.566  43.908   2.355
14311W        W80852   5.438  24.146  13.595
14312W        W80853  26.664  22.459  14.750
14313W        W80854   8.894  38.980  13.889
14314W        W80855  31.504  11.892  14.876
14315W        W80856  14.258  16.898   4.157
14316W        W80857  36.481  21.730  14.190
14317W        W80858  21.521  30.545   2.787
14318W        W80859  21.009  15.500  12.908
14319W        W80860  35.838   4.538   3.101
14320W        W80861  44.276  43.302   3.333
14321W        W80862  43.375  28.612  12.946
14322W        W80863  20.974  20.507  11.102
14323W        W80864   3.320  21.700  12.481
14324W        W80865  24.813   3.350  13.347
14325W        W80866   7.116   6.770  11.206
14326W        W80867   5.750  15.736  13.332
14327W        W80868  30.976   3.150   3.756
14328W        W80869   7.947  37.061   1.200
14329W        W80870   7.158  40.397   3.222
14330W        W80871  35.870   7.664  11.910
14331W        W80872  43.820   3.932   0.230
14332W        W80873  42.859  22.943   0.235
14333W        W80874   4.862  19.672   4.153
14334W        W80875   8.895  44.447  14.379
14335W        W80876  16.218  16.463  12.424
14336W        W80877   4.913   3.720  14.975
14337W        W80878  36.771  11.510  14.283
14338W        W80879  28.134  39.429  14.421
14339W        W80880  24.285  12.902   4.423
14340W        W80881  42.880   3.230   0.382
14341W        W80882  15.373  24.587  10.758
14342W        W80883  22.011  27.363  14.778
14343W        W80884  42.836  40.037  11.975
14344W        W80885   8.932  44.203  13.897
14345W        W80886   7.112  32.525  13.461
14346W        W80887  30.607  24.963   2.548
14347W        W80888  15.108  34.248   0.731
14348W        W80889  36.995  28.500   4.675
14349W        W80890  17.714  34.357  13.808
14350W        W80891  28.724  14.285  13.416
14351W        W80892  37.567  10.043   3.596
14352W        W80893  19.190  23.474  11.195
14353W        W80894  35.416  12.662  14.907
14354W        W80895  13.367  12.662   0.466
14355W        W80896  16.823  31.079  13.329
14356W        W80897  35.284  32.626  11.177
14357W        W80898  32.582  24.349   1.276
14358W        W80899  34.581  33.875  11.180
14359W        W80900   4.196  34.088   0.268
14360W        W80901  13.658  24.023   2.306
14361W        W80902  32.136   7.938   2.374
14362W        W80903  12.765  38.194  11.155
14363W        W80904   3.123  16.083   4.177
14364W        W80905   1.783   6.901   0.690
14365W        W80906  32.440   0.765  14.903
14366W        W80907  39.397  30.175  11.604
14367W        W80908  43.410   4.416  14.448
14368W        W80909  21.030  36.445   3.013
14369W        W80910  41.994  37.565  14.803
14370W        W80911  43.586  16.704   4.674
14371W        W80912  37.110   7.958  10.716
14372W        W80913   1.595  12.742  12.957
14373W        W80914  33.642  13.886   4.906
14374W        W80915  34.338  42.417  14.470
14375W        W80916  17.799   2.489  13.337
14376W        W80917  27.716  32.494   3.704
14377W        W80918   2.446   9.902   0.274
14378W        W80919  26.458  18.723   3.422
14379W        W80920  39.051  21.781   1.746
14380W        W80921   1.580  41.537  14.840
14381W        W80922  10.302   3.390   4.042
14382W        W80923  33.056   1.975  14.268
14383W        W80924  20.639  40.990  14.419
14384W        W80925  21.940  40.291   0.056
14385W        W80926  33.137  28.939   4.268
14386W        W80927  36.444  32.688   1.910
14387W        W80928  44.051  19.716  14.520
14388W        W80929   9.746  12.599   2.779
14389W        W80930  39.930  24.211   4.333
14390W        W80931  27.605  31.506  10.685
14391W        W80932  27.836  15.749  13.892
14392W        W80933  39.824  44.904  13.915
14393W        W80934   0.767   5.953   2.726
14394W        W80935  13.259  40.287   2.705
14395W        W80936  21.051   8.114  12.191
14396W        W80937  31.086  29.906   0.774
14397W        W80938   5.490  31.145  10.018
14398W        W80939  22.522   4.378  10.948
14399W        W80940   9.211  16.546  11.642
14400W        W80941  22.487  24.925   3.802
14401W        W80942  22.090  12.749  10.498
14402W        W80943   7.341  13.841   1.361
14403W        W80944  36.124  17.659   1.364
14404W        W80945  14.786  38.554   2.213
14405W        W80946  23.072  22.944  14.009
14406W        W80947  31.551   7.312   1.507
14407W        W80948   8.248   5.513  14.945
14408W        W80949   5.196   3.171  12.630
14409W        W80950  29.547  26.162  12.175
14410W        W80951   0.735  20.709   3.765
14411W        W80952   8.674   2.919   2.499
14412W        W80953  35.869  40.029   2.328
14413W        W80954  16.133  25.441  13.533
14414W        W80955  25.785  12.007   1.308
14415W        W80956   0.542  21.112   4.216
14416W        W80957  17.728  32.108   1.402
14417W        W80958  15.790  16.023  13.999
14418W        W80959   2.695  38.599   1.378
14419W        W80960  27.421   7.951  13.079
14420W        W80961  39.987  31.332   2.488
14421W        W80962  19.669  44.956   1.343
14422W        W80963   4.515  10.649  11.195
14423W        W80964  35.166  25.558   1.108
14424W        W80965  23.795  40.194   4.698
14425W        W80966  37.024  30.559  10.488
14426W        W80967  32.773   9.076  13.405
14427W        W80968  22.737  32.069   2.269
14428W        W80969  31.612  33.981   0.862
14429W        W80970   1.572  27.632   1.959
14430W        W80971  11.246   0.286  14.937
14431W        W80972  24.968   5.957  11.084
14432W        W80973   0.229   8.137   1.900
14433W        W80974  29.492  36.150  11.751
14434W        W80975  21.724  17.620  13.366
14435W        W80976  13.837  39.805  13.471
14436W        W80977  14.626  19.711   2.914
14437W        W80978  15.383  12.984  12.078
14438W        W80979  44.377  31.526  14.912
14439W        W80980  15.086  35.442  10.381
14440W        W80981  26.546  16.553  11.695
14441W        W80982  39.532  22.514  13.972
14442W        W80983   7.253  17.280  14.961
14443W        W80984  27.998  34.539  12.097
14444W        W80985  23.840  18.548  13.573
14445W        W80986   1.518  43.998   3.693
14446W        W80987  38.011   8.445  14.813
14447W        W80988  17.155   5.238   4.074
14448W        W80989  39.940  25.678  14.237
14449W        W80990   1.221   2.662   2.738
14450W        W80991  14.128   5.721  11.718
14451W        W80992  31.101   7.259  11.554
14452W        W80993  15.548  16.222  10.689
14453W        W80994  42.869   9.805  12.498
14454W        W80995  23.119  21.454   3.399
14455W        W80996  20.131  36.675   2.213
14456W        W80997  25.931   8.667   0.359
14457W        W80998  21.504  26.674   3.917
14458W        W80999  21.776   5.905   1.261
14459W        W81000  28.676   3.483  14.262
14460W        W81001  13.386  27.727  13.797
14461W        W81002  41.397  19.125  11.809
14462W        W81003  41.680  42.810   2.197
14463W        W81004  24.947  31.374  12.570
14464W        W81005  10.303  15.364  13.031
14465W        W81006  30.395  12.264  14.574
14466W        W81007   6.732  19.538   1.954
14467W        W81008  42.955   3.757   4.600
14468W        W81009  36.946  26.440  14.413
14469W        W81010  43.068  14.714  14.076
14470W        W81011  32.079   8.144  12.261
14471W        W81012  14.868  36.921  11.056
14472W        W81013  20.790  23.947   3.260
14473W        W81014  29.016  43.881   0.004
14474W        W81015   0.821  35.971   3.272
14475W        W81016  18.475  14.514   1.970
14476W        W81017  27.971  33.618   1.863
14477W        W81018  14.543  17.540  12.528
14478W        W81019  37.908  13.560  12.655
14479W        W81020  20.565  21.116   4.093
14480W        W81021   0.671   0.843   4.792
14481W        W81022  41.529  21.978   1.826
14482W        W81023  24.186  13.626  11.428
14483W        W81024  24.141  26.120   4.744
14484W        W81025   5.196  28.175  13.082
14485W        W81026  29.492  44.845  11.751
14486W        W81027  34.534  22.023   1.691
14487W        W81028  31.607  35.472   2.668
14488W        W81029   5.761  33.142   1.199
14489W        W81030   3.284   7.626  13.316
14490W        W81031   3.775   5.359   0.373
14491W        W81032  39.069  25.625   4.560
14492W        W81033  16.065  21.559   2.746
14493W        W81034  17.672  43.079   3.561
14494W        W81035   8.410  30.646  13.302
14495W        W81036  34.594  10.405   1.518
14496W        W81037  42.884   8.163  10.742
14497W        W81038  19.542   0.667  14.978
14498W        W81039   6.860  30.595  14.534
14499W        W81040  32.419   8.447  14.896
14500W        W81041  40.923   8.227   1.356
14501W        W81042   3.903  31.922  14.397
14502W        W81043  29.598   1.142   0.406
14503W        W81044   5.939  40.267  12.105
14504W        W81045   7.403  27.080   3.341
14505W        W81046  28.018  27.684  10.708
14506W        W81047  37.077  39.889   1.819
14507W        W81048  10.932  23.738   1.478
14508W        W81049  40.746  19.606  11.620
14509W        W81050  11.383   9.360  14.254
14510W        W81051  19.093  38.922   3.016
14511W        W81052  29.242  31.297  12.945
14512W        W81053  30.452  36.797  12.413
14513W        W81054  20.256   7.623  14.115
14514W        W81055   8.199  24.026   1.882
14515W        W81056  29.598   9.020  11.487
14516W        W81057  44.642  20.489  13.941
14517W        W81058  29.690  44.813  13.546
14518W        W81059  44.387   5.349  13.987
14519W        W81060   5.891   7.916  14.237
14520W        W81061   0.899   2.693  11.100
14521W        W81062   5.773  21.446   0.439
14522W        W81063  16.465  21.466  11.215
14523W        W81064   6.975  25.088   1.152
14524W        W81065  18.578  22.141   3.271
14525W        W81066  15.985  12.788   3.331
14526W        W81067  26.254  29.644  12.040
14527W        W81068  10.768  11.275   0.642
14528W        W81069   2.970  34.915   4.131
14529W        W81070  17.885   8.179   0.196
14530W        W81071   8.815  24.244   0.003
14531W        W81072  30.370   2.753   1.531
14532W        W81073  18.235  23.193  13.023
14533W        W81074  18.275  26.582  10.904
14534W        W81075  29.277   7.196  11.378
14535W        W81076   1.032  33.396   2.250
14536W        W81077  28.572  14.574   0.180
14537W        W81078  31.008   7.204   0.854
14538W        W81079  14.180  29.096  14.289
14539W        W81080  25.651  37.710  14.491
14540W        W81081  19.869  21.512   3.308
14541W        W81082   6.256  11.086  13.831
14542W        W81083  40.395  32.711   0.754
14543W        W81084  23.018   1.402   0.845
14544W        W81085  34.775  42.706  11.224
14545W        W81086  18.236  21.446  10.747
14546W        W81087  16.317  32.595   4.546
14547W        W81088  16.089  29.875  10.278
14548W        W81089  18.262   6.505   4.669
14549W        W81090  42.523  40.225  11.369
14550W        W81091   2.792   1.873   2.201
14551W        W81092  36.118  21.197  13.017
14552W        W81093  35.779  22.668   3.277
14553W        W81094   9.471  31.035  13.433
14554W        W81095  25.097  30.384   0.214
14555W        W81096  36.690  44.966  12.910
14556W        W81097  44.895  41.622  11.204
14557W        W81098   2.518  16.018  13.126
14558W        W81099   3.943  20.735   3.582
14559W        W81100   2.402  17.113   2.676
14560W        W81101   8.931  42.034  11.263
14561W        W81102  44.872  17.242  10.718
14562W        W81103  39.870  22.022  10.640
14563W        W81104  34.840  38.390  11.128
14564W        W81105  14.940   7.285   0.317
14565W        W81106  12.181   1.875  12.521
14566W        W81107  43.060  18.270   1.775
14567W        W81108  13.559  19.125  12.504
14568W        W81109  35.181  33.278  10.612
14569W        W81110  43.348  22.743  14.401
14570W        W81111  24.732  36.855  12.605
14571W        W81112  12.678   1.960   2.898
14572W        W81113  35.356  35.249  11.488
14573W        W81114   7.898  23.194   0.524
14574W        W81115  44.244  23.824  14.353
14575W        W81116  43.894  44.729   2.157
14576W        W81117  19.749  12.115   0.564
14577W        W81118  24.795  14.350  14.921
14578W        W81119   8.239  25.317   2.901
14579W        W81120  22.312   8.154  14.928
14580W        W81121  23.061  26.691  10.959
14581W        W81122  32.582  14.300  11.056
14582W        W81123  13.130  11.622  13.821
14583W        W81124   0.951  13.571   1.734
14584W        W81125  24.932   8.702  12.055
14585W        W81126  37.018  39.076  13.393
14586W        W81127  35.571   7.685   1.341
14587W        W81128  19.917  41.510  12.910
14588W        W81129   8.352  32.610  12.988
14589W        W81130  22.502   4.820   3.130
14590W        W81131  43.092  35.043   3.704
14591W        W81132  31.356   1.716   4.194
14592W        W81133   5.694  18.220   4.780
14593W        W81134   7.813  42.710  11.981
14594W        W81135   5.743  41.979  10.563
14595W        W81136  12.573  35.532   4.234
14596W        W81137  13.316  11.735   0.203
14597W        W81138  33.090  43.972   3.083
14598W        W81139   4.512  17.612  14.175
14599W        W81140  29.828  26.044  11.168
14600W        W81141  42.260  25.184  14.397
14601W        W81142  15.228   2.939  13.089
14602W        W81143  35.905  22.082  11.082
14603W        W81144  27.108  44.422   1.242
14604W        W81145  30.440   1.930  12.528
14605W        W81146  10.483  15.235  10.216
14606W        W81147  29.940  37.949   1.034
14607W        W81148  29.100   1.605  14.326
14608W        W81149  42.975   8.309  12.427
14609W        W81150  11.080  28.832   0.839
14610W        W81151  38.538  26.068   1.418
14611W        W81152  12.031  31.018   4.626
14612W        W81153  22.648  26.950   3.088
14613W        W81154   9.637  25.545  10.740
14614W        W81155  40.932   8.802   0.278
14615W        W81156  25.966  20.938   1.694
14616W        W81157  43.705   0.918   9.944
14617W        W81158   3.033  10.533  13.633
14618W        W81159  15.107   8.252   3.293
14619W        W81160  21.259   9.177   4.541
14620W        W81161  41.867  27.427  14.534
14621W        W81162  11.677  38.741   2.799
14622W        W81163  44.308  33.656  11.098
14623W        W81164  21.370  15.373   9.668
14624W        W81165  32.937  13.281   2.735
14625W        W81166  36.066  29.672   0.293
14626W        W81167  37.562  40.953  11.904
14627W        W81168  44.903  13.099  14.491
14628W        W81169  41.821   0.839  12.571
14629W        W81170  41.886  40.483   4.838
14630W        W81171  38.154   8.944  13.022
14631W        W81172  40.465  28.403  13.920
14632W        W81173  30.943  43.852   2.248
14633W        W81174   9.453  27.266   2.528
14634W        W81175  11.634  36.839   2.805
14635W        W81176  19.588  36.034   4.222
14636W        W81177  12.817  16.310   4.198
14637W        W81178  13.875  23.645  11.980
14638W        W81179   8.766  13.413   5.011
14639W        W81180  17.606  16.406  12.180
14640W        W81181   2.827  42.573   3.400
14641W        W81182  37.888  18.601  13.769
14642W        W81183  23.027   5.139   2.228
14643W        W81184   3.877  15.673  12.545
14644W        W81185  24.623  41.572   2.823
14645W        W81186   8.944  32.880  13.317
14646W        W81187  43.460  43.825   4.709
14647W        W81188   6.209  28.163   0.411
14648W        W81189  20.616   1.925  10.832
14649W        W81190  21.653  44.786   1.885
14650W        W81191  12.434  22.519  13.655
14651W        W81192  27.114   0.804  10.954
14652W        W81193  42.457  35.349  12.807
14653W        W81194  17.904  13.228   4.498
14654W        W81195  22.110  18.636   2.744
14655W        W81196  29.675  28.133  11.530
14656W        W81197  40.159  37.813  11.197
14657W        W81198  14.810  15.106   2.354
14658W        W81199  30.092  14.179  14.065
14659W        W81200  35.150  28.580   2.704
14660W        W81201  18.230   4.154   4.106
14661W        W81202   7.415   1.230  10.142
14662W        W81203  38.610  11.148   2.516
14663W        W81204   5.630  13.330   2.135
14664W        W81205   3.982  12.613  11.023
14665W        W81206  22.686   8.480   3.798
14666W        W81207  40.960  22.350   0.710
14667W        W81208  42.223  32.409  12.922
14668W        W81209   4.171  24.529  12.950
14669W        W81210  16.284  29.695  13.821
14670W        W81211  14.033  11.108   4.438
14671W        W81212   0.982   8.534   4.848
14672W        W81213  24.104  25.088  11.239
14673W        W81214  37.381  35.934   0.929
14674W        W81215  41.949  35.379  13.496
14675W        W81216  15.243   8.341   4.365
14676W        W81217  37.825  33.616  14.050
14677W        W81218  16.794  34.141   3.141
14678W        W81219  12.195  40.670   0.894
14679W        W81220  40.827  32.549   3.897
14680W        W81221  31.440  35.910   2.442
14681W        W81222  14.732  35.547   0.205
14682W        W81223  19.886  37.353  14.308
14683W        W81224   3.400  38.376  14.493
14684W        W81225  12.682  29.902   2.680
14685W        W81226  13.815   3.290   1.403
14686W        W81227  16.337  44.267   0.460
14687W        W81228  14.776   2.275   0.220
14688W        W81229  21.626  22.074   1.252
14689W        W81230  34.499   5.340  13.575
14690W        W81231  35.436   1.273   4.585
14691W        W81232  11.806  41.399   9.997
14692W        W81233   1.654   0.923  11.687
14693W        W81234  13.632  35.584   3.274
14694W        W81235  13.915   5.906  12.138
14695W        W81236  29.306  31.653  14.290
14696W        W81237  40.144  36.849   2.388
14697W        W81238  28.645  44.886  13.561
14698W        W81239  30.846  18.766  14.986
14699W        W81240  40.891  20.103   0.261
14700W        W81241  41.435  30.510   3.271
14701W        W81242   1.523  11.388   3.274
14702W        W81243  22.038  19.371  11.648
14703W        W81244   6.198  41.419  12.939
14704W        W81245  27.185   1.737   4.546
14705W        W81246  38.842   8.935   9.875
14706W        W81247   4.734   5.550  10.467
14707W        W81248  21.126  39.964   2.694
14708W        W81249   6.432   4.475   0.296
14709W        W81250  25.310  29.778   3.719
14710W        W81251  20.094  18.574   0.944
14711W        W81252   7.072  36.662  13.336
14712W        W81253  20.094  16.038  13.910
14713W        W81254  19.447   3.209   2.065
14714W        W81255   9.451  14.641   2.365
14715W        W81256  28.964  23.476  12.116
14716W        W81257  36.730  14.767   2.235
14717W        W81258  39.083  10.527   4.134
14718W        W81259  12.263  10.934   2.228
14719W        W81260  10.038  30.091   4.334
14720W        W81261   3.385  23.938   5.403
14721W        W81262   9.749  10.653   1.251
14722W        W81263   3.378   8.641  11.080
14723W        W81264  28.586  12.826   1.420
14724W        W81265  16.874  25.500  13.064
14725W        W81266  38.886   6.720   2.412
14726W        W81267   1.975   9.217  11.568
14727W        W81268  21.071  13.719   2.236
14728W        W81269  41.961  16.217   2.487
14729W        W81270  18.612  40.922   1.349
14730W        W81271  41.552  27.382   3.748
14731W        W81272  32.667  25.538   4.163
14732W        W81273  14.856  11.962  14.477
14733W        W81274  24.505  29.401   0.897
14734W        W81275   7.961  28.651  13.802
14735W        W81276  23.283  13.600   1.691
14736W        W81277  10.524  11.351   3.385
14737W        W81278  26.600  30.402   4.091
14738W        W81279  17.477  15.427  11.303
14739W        W81280  27.474   5.431   4.323
14740W        W81281  31.806   2.743  13.911
14741W        W81282  23.041  21.973   3.493
14742W        W81283   2.453  19.969  14.054
14743W        W81284  13.313  22.207  12.730
14744W        W81285  25.321   4.819   5.255
14745W        W81286  10.272  32.309   5.019
14746W        W81287  17.979  12.975  14.548
14747W        W81288  10.039  21.019  11.381
14748W        W81289   4.325  27.140  14.136
14749W        W81290   5.383  30.906  11.415
14750W        W81291  12.029   1.045  11.827
14751W        W81292  30.017  25.246   0.920
14752W        W81293  40.222   9.261  13.297
14753W        W81294  28.673  34.606   4.869
14754W        W81295  26.229  43.936  10.737
14755W        W81296   3.202   2.295  13.300
14756W        W81297  18.132   1.273   1.928
14757W        W81298  18.634   0.743  14.915
14758W        W81299  27.570  21.371  13.784
14759W        W81300  34.651  34.715  13.617
14760W        W81301  12.107  35.982   0.266
14761W        W81302  40.395  32.364  10.539
14762W        W81303  15.192  21.150  13.163
14763W        W81304  15.683  36.191   1.205
14764W        W81305  30.929  24.567   2.470
14765W        W81306  19.641  19.034   3.125
14766W        W81307  17.010  40.031   4.924
14767W        W81308  27.910  11.232   1.226
14768W        W81309  25.726  14.825   3.675
14769W        W81310   0.835   1.273  14.972
14770W        W81311  15.214  35.392   9.876
14771W        W81312   5.108  41.953   0.450
14772W        W81313   5.256   2.364  11.604
14773W        W81314  13.748  19.708   0.995
14774W        W81315  39.639  34.825   3.641
14775W        W81316  28.619  16.308   4.676
14776W        W81317  17.466   1.448  14.433
14777W        W81318  30.160   8.682  14.740
14778W        W81319   5.170  13.103   2.901
14779W        W81320   3.603  28.079  13.061
14780W        W81321  13.627  19.452  11.589
14781W        W81322  33.394  32.637  14.845
14782W        W81323  37.300   4.841  14.654
14783W        W81324  18.818  10.347   3.177
14784W        W81325  36.372  34.175   0.719
14785W        W81326  14.378  11.265  10.369
14786W        W81327  28.033   3.908  13.048
14787W        W81328  21.148  15.474  11.925
14788W        W81329  35.546  34.594  12.977
14789W        W81330  17.806   8.711  14.301
14790W        W81331  19.202   2.258   0.474
14791W        W81332  12.160   6.389  13.313
14792W        W81333  11.149  22.446   0.976
14793W        W81334  16.721  29.979  13.969
14794W        W81335  32.015  33.102   2.196
14795W        W81336  41.028  23.163   2.325
14796W        W81337  28.113   2.286   0.919
14797W        W81338   5.168  41.260  13.873
14798W        W81339  33.459  17.673   3.332
14799W        W81340  17.287  36.950   2.168
14800W        W81341  20.391  14.155  14.242
14801W        W81342   7.308  21.206   1.826
14802W        W81343  19.074   7.228  12.498
14803W        W81344   8.282  14.184  13.160
14804W        W81345  33.856  18.049  14.536
14805W        W81346  31.482  27.557   3.012
14806W        W81347  15.290  28.425  12.058
14807W        W81348  14.759  34.756   1.686
14808W        W81349  34.863  30.542  14.888
14809W        W81350   0.407  15.562  13.053
14810W        W81351  29.460   9.026   1.462
14811W        W81352  16.236  42.454   4.180
14812W        W81353   7.866  26.597   0.548
14813W        W81354  25.087  18.965   0.380
14814W        W81355  29.944  40.353   3.763
14815W        W81356  42.707  17.296   0.983
14816W        W81357  22.990   4.652  12.055
14817W        W81358   1.223   2.731  12.366
14818W        W81359   2.531  28.956   2.289
14819W        W81360  34.275  18.298  14.306
14820W        W81361   6.651  37.691   4.847
14821W        W81362  37.773  20.264  13.508
14822W        W81363  25.911  13.431   2.181
14823W        W81364  36.972  33.215  10.734
14824W        W81365  36.748  19.207   4.556
14825W        W81366  40.771  19.653   0.029
14826W        W81367  29.642  39.328   2.244
14827W        W81368   8.000  20.872  14.183
14828W        W81369  23.987  39.888  10.932
14829W        W81370  35.469  20.700  14.349
14830W        W81371  42.405  35.999   4.594
14831W        W81372  33.486  36.345  10.748
14832W        W81373  44.385  42.300  14.725
14833W        W81374   8.423  13.059  10.950
14834W        W81375  10.043  32.615   1.736
14835W        W81376  25.486  37.555   0.888
14836W        W81377   7.835  20.076   1.455
14837W        W81378  26.480  25.684   3.604
14838W        W81379  19.162  18.832   3.287
14839W        W81380  42.850  19.823   4.162
14840W        W81381  34.914  33.364  13.971
14841W        W81382  31.146  37.600   1.303
14842W        W81383  17.104  43.677  13.509
14843W        W81384  43.398  43.844   3.686
14844W        W81385  13.782   3.828  11.241
14845W        W81386  19.095  23.780   2.742
14846W        W81387   7.303  12.818   4.075
14847W        W81388  27.442  29.048  12.123
14848W        W81389  28.735  33.554  11.555
14849W        W81390   8.825  42.418   2.887
14850W        W81391  23.999   3.764  13.138
14851W        W81392  22.763   9.367  11.719
14852W        W81393  41.001   7.597  13.261
14853W        W81394  13.084  38.147   1.591
14854W        W81395  42.612  35.399  11.017
14855W        W81396  30.342  31.756  11.364
14856W        W81397  33.985   9.412   0.336
14857W        W81398  31.672  22.282   1.720
14858W        W81399  24.495  41.535  10.775
14859W        W81400  14.277   9.659  13.841
14860W        W81401  41.370  15.345   3.610
14861W        W81402  30.377  13.886   2.128
14862W        W81403  28.078  13.703   0.066
14863W        W81404  38.352   3.409   1.501
14864W        W81405  37.890  15.068  13.562
14865W        W81406  30.984  14.059  13.926
14866W        W81407   1.883  22.709  12.105
14867W        W81408  15.694  16.819   3.572
14868W        W81409  24.497   7.899  11.330
14869W        W81410  11.175   8.964  11.154
14870W        W81411  19.611   0.845  14.495
14871W        W81412  44.914  35.944   3.273
14872W        W81413  33.974   7.844  12.405
14873W        W81414  34.718  39.045   0.206
14874W        W81415   9.310   5.279   4.006
14875W        W81416  30.572  16.783  11.608
14876W        W81417  26.377  41.791   2.301
14877W        W81418  15.229  35.445   0.357
14878W        W81419  42.039   1.282  12.379
14879W        W81420  25.603  12.351  14.821
14880W        W81421  16.672  31.846   1.780
14881W        W81422  35.887  25.797  14.408
14882W        W81423  42.698  30.650  10.910
14883W        W81424   8.878  13.364   2.642
14884W        W81425  36.018  12.680   1.693
14885W        W81426   3.456  14.607  12.549
14886W        W81427  43.508  26.552  14.896
14887W        W81428  24.497  40.625  14.946
14888W        W81429   8.327  27.997   0.900
14889W        W81430   4.690   8.348  14.067
14890W        W81431  41.754  31.010  11.073
14891W        W81432  37.295  27.543  14.868
14892W        W81433  37.014  31.977  13.537
14893W        W81434  15.426   6.482   2.822
14894W        W81435  18.968   0.224  11.583
14895W        W81436  33.609  20.689  14.031
14896W        W81437  33.289   9.060   0.827
14897W        W81438  44.430  20.544   2.709
14898W        W81439  28.023   9.798  13.302
14899W        W81440  11.820  40.472  10.185
14900W        W81441   2.896  11.224  13.921
14901W        W81442  28.366  29.841   0.930
14902W        W81443  34.180  10.346  10.829
14903W        W81444   4.944  33.829   1.278
14904W        W81445  25.404  30.802   3.656
14905W        W81446  29.962   6.363   2.130
14906W        W81447  17.696  21.032  12.238
14907W        W81448  29.590   4.723   0.088
14908W        W81449  25.627  32.668  10.641
14909W        W81450   6.713  28.412  12.516
14910W        W81451  12.365  20.054   1.909
14911W        W81452  29.529   9.205  11.007
14912W        W81453   3.256  24.795  12.527
14913W        W81454   2.199  32.029   3.231
14914W        W81455  43.907  17.232  12.669
14915W        W81456   1.904  29.941  14.729
14916W        W81457  13.662   1.989  13.461
14917W        W81458  44.455  33.497  14.549
14918W        W81459  24.917   0.372  12.659
14919W        W81460  26.774  24.746  13.708
14920W        W81461  16.327   4.951   1.015
14921W        W81462  33.432  17.485   2.303
14922W        W81463  26.579  37.021  12.457
14923W        W81464   3.916  13.273  12.089
14924W        W81465  44.038  10.102   2.268
14925W        W81466  25.022  25.014   1.382
14926W        W81467  26.198  41.422  13.996
14927W        W81468  17.756  42.864  13.277
14928W        W81469  25.961  36.509   3.591
14929W        W81470   4.583  42.569  10.560
14930W        W81471  44.233  13.353   1.184
14931W        W81472  17.159  33.795  13.535
14932W        W81473  36.884  30.121  14.830
14933W        W81474   3.988   1.631  11.134
14934W        W81475  13.830  30.163  13.830
14935W        W81476   8.399  22.329   1.837
14936W        W81477   3.855  30.438  10.644
14937W        W81478  38.413   8.259  11.603
14938W        W81479  37.255   9.265   1.696
14939W        W81480  14.815  25.076   2.442
14940W        W81481   3.308   9.870   2.387
14941W        W81482  35.849   6.751   4.310
14942W        W81483  30.555  31.280  11.213
14943W        W81484  38.874  40.250  13.043
14944W        W81485  43.679  15.228   0.006
14945W        W81486  29.118  10.094  11.970
14946W        W81487   0.415  20.198   2.701
14947W        W81488  22.467  40.829  12.637
14948W        W81489  28.559   1.453   0.757
14949W        W81490  42.505  31.893   0.050
14950W        W81491  15.430  14.318   4.794
14951W        W81492  29.613  38.315  10.680
14952W        W81493  11.694   7.480   2.729
14953W        W81494  41.884  41.046  12.477
14954W        W81495  23.173  23.691   3.726
14955W        W81496  33.463  27.000   0.775
14956W        W81497  38.413  25.934   3.664
14957W        W81498  23.750  41.818  11.139
14958W        W81499  17.959  41.884   4.028
14959W        W81500  11.317  35.140   4.116
14960W        W81501  44.777  40.101  11.949
14961W        W81502  25.660  13.296  13.581
14962W        W81503  10.819   7.891  12.549
14963W        W81504  31.829  35.506   4.112
14964W        W81505  12.832  24.412   0.949
14965W        W81506  42.345  44.164  10.662
14966W        W81507   0.372   5.808  11.888
14967W        W81508  31.529  20.096   0.353
14968W        W81509  41.775  43.940   0.919
14969W        W81510  14.575  38.928   3.750
14970W        W81511  29.476  12.846  14.998
14971W        W81512  11.193  25.234  12.080
14972W        W81513  31.708  42.433   2.913
14973W        W81514  24.150  30.688   1.397
14974W        W81515   2.987  17.896  12.295
14975W        W81516  34.912  12.152   2.719
14976W        W81517   3.847  20.831  11.500
14977W        W81518  39.936  26.955   0.554
14978W        W81519  35.872   8.857   2.713
14979W        W81520  32.419  28.491  11.575
14980W        W81521  32.821  41.748   3.333
14981W        W81522  10.667   1.444   2.197
14982W        W81523  33.345  33.039  11.670
14983W        W81524  36.182  20.488   1.967
14984W        W81525  43.431  15.979   2.479
14985W        W81526  11.905  18.741  14.752
14986W        W81527  22.621   7.950  13.905
14987W        W81528  31.393  15.516  11.370
14988W        W81529  27.173   7.291   2.252
14989W        W81530   4.138  35.561  13.457
14990W        W81531   4.397  13.410   4.943
14991W        W81532   9.677  26.282   0.706
14992W        W81533  22.507  43.319  10.588
14993W        W81534  20.272  12.620   1.710
14994W        W81535   6.556  20.495  11.997
14995W        W81536  12.182   0.343  14.575
14996W        W81537  13.544   7.021  14.452
14997W        W81538  44.772  22.453   1.178
14998W        W81539  26.414  26.235   3.201
14999W        W81540  16.247   9.711   0.373
15000W        W81541  21.234   9.137  13.831
15001W        W81542  30.634  26.504  13.140
15002W        W81543   1.221  27.922   1.659
15003W        W81544  10.203  26.238  10.606
15004W        W81545  21.863  28.424   0.442
15005W        W81546  26.189   6.907   3.724
15006W        W81547  37.012  14.311  11.019
15007W        W81548  13.649  14.726   4.671
15008W        W81549   6.809  27.042  13.057
15009W        W81550  20.078  13.755   3.659
15010W        W81551   7.296  33.587   2.384
15011W        W81552  40.856  44.461  12.159
15012W        W81553  32.577  41.856   1.185
15013W        W81554  15.330  12.250  14.558
15014W        W81555  17.262  29.843  13.541
15015W        W81556  21.015   9.625  12.042
15016W        W81557   1.814  19.198  11.625
15017W        W81558   6.069   7.824   4.598
15018W        W81559  36.563  21.167   0.978
15019W        W81560  27.605  15.095   1.740
15020W        W81561  16.280  16.649   2.323
15021W        W81562  26.636  38.460  14.806
15022W        W81563  36.827  35.988  14.751
15023W        W81564  35.004  24.721   2.103
15024W        W81565  36.972  44.152  10.086
15025W        W81566  11.517  24.038   4.493
15026W        W81567  34.167  11.280   3.897
15027W        W81568  29.026   4.358  10.787
15028W        W81569  22.776  26.497   2.821
15029W        W81570  29.482  32.136   2.718
15030W        W81571  21.297  30.388   1.769
15031W        W81572   1.320  12.578   2.216
15032W        W81573  18.243   6.959   3.838
15033W        W81574  16.613  13.206   2.250
15034W        W81575  19.067  17.566  13.536
15035W        W81576  31.477  39.743  12.833
15036W        W81577   5.402  19.102  13.582
15037W        W81578  36.073  39.264  13.968
15038W        W81579  16.312  42.116   3.051
15039W        W81580   8.341  20.140  13.062
15040W        W81581  13.129  12.635  14.082
15041W        W81582  30.910  17.670  12.081
15042W        W81583  23.632   6.891   2.660
15043W        W81584  36.954  26.944   2.247
15044W        W81585  32.884  26.096   3.384
15045W        W81586   8.676  13.229   4.045
15046W        W81587  37.999  15.242   0.854
15047W        W81588   9.882  27.929   4.462
15048W        W81589  31.593  37.827   3.284
15049W        W81590  43.507  34.068  13.839
15050W        W81591  40.330  13.572   1.772
15051W        W81592  41.577  27.124  10.589
15052W        W81593   9.394  41.987  14.741
15053W        W81594  35.983  37.125  12.140
15054W        W81595  11.348  40.408   4.202
15055W        W81596  36.413   0.774   0.928
15056W        W81597  18.642  24.466  11.638
15057W        W81598   6.021  11.544  10.394
15058W        W81599  41.290  30.268  14.502
15059W        W81600  17.641   8.607  12.178
15060W        W81601  28.999  35.635   1.670
15061W        W81602  25.739  17.694  10.674
15062W        W81603  12.211   4.245  14.019
15063W        W81604  10.736  32.711   3.323
15064W        W81605  12.227  23.966   0.915
15065W        W81606   5.221  10.106   2.718
15066W        W81607  34.548  35.294   4.577
15067W        W81608  22.634  16.804   4.104
15068W        W81609  39.695  38.108   1.920
15069W        W81610  44.328  14.281  13.420
15070W        W81611   8.155  22.428  13.923
15071W        W81612  38.392  36.406   0.420
15072W        W81613   9.372  40.804  14.352
15073W        W81614   6.213  29.320  10.252
15074W        W81615   2.372  24.907   5.078
15075W        W81616   5.020  28.502   4.871
15076W        W81617  12.773  41.875  13.445
15077W        W81618  32.790  44.970   3.773
15078W        W81619   6.864  33.413  13.017
15079W        W81620   7.381  41.379   2.662
15080W        W81621  38.478  27.606  14.215
15081W        W81622  31.603  28.389  13.176
15082W        W81623  33.465  30.684   1.693
15083W        W81624  30.038  32.400  14.513
15084W        W81625  22.291  42.847  10.732
15085W        W81626  38.961  37.200  12.948
15086W        W81627  35.293   0.457  10.472
15087W        W81628  16.070   3.759  10.891
15088W        W81629   5.116   2.775   1.244
15089W        W81630   3.148   2.773  13.494
15090W        W81631  40.832   6.805   1.369
15091W        W81632  35.621  40.504  11.580
15092W        W81633  17.114  32.154  11.954
15093W        W81634  43.188  25.453   4.686
15094W        W81635  31.359  16.620  13.802
15095W        W81636  41.565  34.185   1.249
15096W        W81637  44.457  39.568   4.243
15097W        W81638   0.188   9.597  14.462
15098W        W81639  33.524  40.023   2.406
15099W        W81640  19.685  34.096   4.694
15100W        W81641  16.163  39.255  11.403
15101W        W81642   2.883   7.284   1.966
15102W        W81643  31.527  25.909  14.557
15103W        W81644  39.913  43.416  11.727
15104W        W81645  42.231  28.358   0.446
15105W        W81646  36.179  41.801  14.566
15106W        W81647  44.006  31.562  13.304
15107W        W81648  40.450  15.819   1.376
15108W        W81649  17.601  34.142   0.169
15109W        W81650  31.564   6.218  12.832
15110W        W81651  23.793   3.842   4.747
15111W        W81652  12.327  38.964  13.389
15112W        W81653  16.482  44.693   1.946
15113W        W81654  38.863  29.431   1.218
15114W        W81655  27.454   2.324   1.430
15115W        W81656  22.601   7.765   4.862
15116W        W81657  31.372   6.871   3.185
15117W        W81658   5.251  13.109  12.575
15118W        W81659   6.143  38.249   0.334
15119W        W81660  37.383  29.026  14.463
15120W        W81661   5.214  14.547   0.246
15121W        W81662  43.790  19.917   4.214
15122W        W81663  32.499  12.106   4.992
15123W        W81664   5.449  31.948   5.252
15124W        W81665  19.020  17.072   2.363
15125W        W81666  15.620  11.160  10.479
15126W        W81667  38.555   5.165  13.401
15127W        W81668  41.090   9.435   3.218
15128W        W81669  36.915  38.182  13.434
15129W        W81670  44.970  22.866  12.360
15130W        W81671   6.161  18.857  11.128
15131W        W81672   8.382  18.120   1.345
15132W        W81673   9.248   8.478   3.189
15133W        W81674   7.328  26.782  13.817
15134W        W81675  11.140   6.247   3.486
15135W        W81676  16.230  18.700   4.026
15136W        W81677  44.514   5.962  14.588
15137W        W81678   7.253  39.937   2.332
15138W        W81679  39.047  19.232  10.931
15139W        W81680  29.161  30.718  11.600
15140W        W81681  42.950  38.939  12.169
15141W        W81682  39.412   4.319   4.590
15142W        W81683  10.097   7.500   4.062
15143W        W81684  39.092  38.976   0.964
15144W        W81685   7.217   2.397   0.415
15145W        W81686   8.861   0.680   2.316
15146W        W81687  15.025   6.190  11.106
15147W        W81688  11.057   0.610   2.058
15148W        W81689  39.002  35.961  10.327
15149W        W81690   1.287  20.556   2.853
15150W        W81691  31.655  10.631  11.994
15151W        W81692  41.718   9.185   2.647
15152W        W81693   3.938  32.940  12.932
15153W        W81694  28.648   0.033   4.562
15154W        W81695  37.123  16.116  12.188
15155W        W81696  28.440  33.107   3.642
15156W        W81697  25.689  17.320  13.991
15157W        W81698  26.506  36.304   1.228
15158W        W81699  28.080  34.151   3.668
15159W        W81700  28.623  21.333  13.229
15160W        W81701  25.021  23.864  10.637
15161W        W81702  20.047  41.470   2.279
15162W        W81703  38.840   3.282  10.688
15163W        W81704   1.468  42.384   4.814
15164W        W81705   2.877  26.490   1.901
15165W        W81706   0.347  34.067   3.268
15166W        W81707  28.638  20.658   4.989
15167W        W81708  27.143  22.663   5.025
15168W        W81709  20.319   7.854  14.563
15169W        W81710  20.955  25.447   2.291
15170W        W81711  24.471  17.862   4.874
15171W        W81712   1.947  19.122   2.245
15172W        W81713  17.230   0.862   3.730
15173W        W81714  24.466  15.587  12.959
15174W        W81715  20.982   2.702  13.992
15175W        W81716  41.963  17.798  10.674
15176W        W81717  11.716  42.746  11.544
15177W        W81718  42.007  32.509   3.160
15178W        W81719  12.925  22.156  13.569
15179W        W81720  26.492   5.263  14.874
15180W        W81721  42.471  34.117  11.334
15181W        W81722  29.539  18.340  10.263
15182W        W81723   9.258  35.518   2.904
15183W        W81724  44.949  27.518  10.336
15184W        W81725  42.264  27.630  14.251
15185W        W81726  26.789  42.475  12.460
15186W        W81727  22.513  19.197   3.229
15187W        W81728  34.674  40.961   2.727
15188W        W81729  17.750  11.883  13.550
15189W        W81730   9.269  14.483   0.340
15190W        W81731  20.681  44.326   2.289
15191W        W81732  24.007  17.275   1.779
15192W        W81733  27.409   5.576   2.143
15193W        W81734  22.168  16.556  12.516
15194W        W81735  25.048  10.210   2.284
15195W        W81736  24.722  35.469   4.544
15196W        W81737  40.089  33.984   2.362
15197W        W81738  17.748  20.109   3.762
15198W        W81739  26.703   2.937   0.791
15199W        W81740  22.755  39.216  11.248
15200W        W81741  11.214  10.611   2.195
15201W        W81742  27.600  39.570  13.853
15202W        W81743   7.534  26.967  10.965
15203W        W81744  19.023   4.406  14.891
15204W        W81745   7.929  18.417   3.619
15205W        W81746  39.297  14.862  12.351
15206W        W81747  31.936  42.983   1.351
15207W        W81748  40.413  31.973  11.560
15208W        W81749   3.937   9.354   1.841
15209W        W81750  11.897  24.998   0.432
15210W        W81751   4.743  37.124  11.565
15211W        W81752   4.217  34.855  11.727
15212W        W81753  29.468  22.386  14.242
15213W        W81754   0.894  38.909  10.543
15214W        W81755  23.499  15.232   3.738
15215W        W81756   8.770  35.509  12.965
15216W        W81757   3.726  19.438  12.495
15217W        W81758   4.459  32.803   2.649
15218W        W81759  21.757  36.840   3.650
15219W        W81760  43.383   3.262   0.240
15220W        W81761  16.504   9.865  14.950
15221W        W81762  37.999  12.122   4.268
15222W        W81763  42.603  28.099   2.691
15223W        W81764  36.761  12.818   4.582
15224W        W81765   8.964  31.943  14.285
15225W        W81766  43.797   8.800   0.434
15226W        W81767   8.472  16.061  12.966
15227W        W81768  34.353   3.301   0.988
15228W        W81769   6.015  18.613  13.963
15229W        W81770  22.664  35.885  11.453
15230W        W81771   0.420  36.101   4.571
15231W        W81772   5.159   9.417   1.269
15232W        W81773   2.527  30.799  11.196
15233W        W81774  40.784  10.158   2.110
15234W        W81775  22.916  10.301   1.012
15235W        W81776  42.041  13.022   5.485
15236W        W81777   4.939  44.196  11.916
15237W        W81778  17.806  22.666  13.833
15238W        W81779  27.043  42.256  14.772
15239W        W81780  35.106  34.610  13.375
15240W        W81781  42.784  28.109   0.438
15241W        W81782  29.429   0.770   1.258
15242W        W81783  18.550  26.908  12.512
15243W        W81784   2.363  16.811  13.507
15244W        W81785  20.608  32.989   4.148
15245W        W81786  15.585  13.095   3.614
15246W        W81787  16.502  20.608   0.574
15247W        W81788   0.752   4.869  10.168
15248W        W81789   0.938  18.466   1.137
15249W        W81790  28.045  33.981  11.986
15250W        W81791  13.537  40.762  14.855
15251W        W81792  30.431   6.754  13.025
15252W        W81793   1.399   9.814  14.573
15253W        W81794  20.034  18.388   5.428
15254W        W81795  30.378  20.555   0.339
15255W        W81796  36.582   4.426   0.001
15256W        W81797   6.396   7.705  12.896
15257W        W81798  31.977  21.765  13.439
15258W        W81799  26.591  11.383   4.719
15259W        W81800  36.931  10.559   0.384
15260W        W81801   5.704  17.276   1.947
15261W        W81802   7.303  26.235   5.140
15262W        W81803  15.694  16.312   3.442
15263W        W81804  44.916  20.149   4.622
15264W        W81805   5.445  33.446  14.645
15265W        W81806  20.703  20.283   1.930
15266W        W81807  41.983  22.296   2.217
15267W        W81808   7.889  28.132   2.819
15268W        W81809  26.126   5.566  14.424
15269W        W81810   1.585  22.685   1.433
15270W        W81811   9.858  36.898   1.814
15271W        W81812  20.223   7.445   0.823
15272W        W81813  35.815  15.712  12.634
15273W        W81814  44.248  20.772  14.143
15274W        W81815  38.734  16.124  13.276
15275W        W81816   2.306   4.648  13.027
15276W        W81817  17.178  29.981  10.563
15277W        W81818  32.115  13.946   5.042
15278W        W81819  34.602  10.089  11.043
15279W        W81820  12.586  36.179  11.521
15280W        W81821   7.790  37.568   1.930
15281W        W81822  30.710   8.337  11.664
15282W        W81823  21.653   1.536   2.304
15283W        W81824   3.867   7.998   1.318
15284W        W81825  23.972  39.373   2.755
15285W        W81826  34.559  11.305   2.580
15286W        W81827  42.455  19.023   4.245
15287W        W81828   9.631   1.747   2.094
15288W        W81829  34.555   9.950   0.767
15289W        W81830  38.640  29.060  12.521
15290W        W81831   5.465   4.331   2.813
15291W        W81832   9.708  13.416   1.935
15292W        W81833  29.178  37.653   4.494
15293W        W81834  13.696   2.297  13.046
15294W        W81835  19.284  29.513   1.689
15295W        W81836  39.281  29.880   1.897
15296W        W81837   9.860  40.498  11.055
15297W        W81838  36.377  15.061   1.989
15298W        W81839  39.490  17.845   1.792
15299W        W81840  20.540  36.351   2.344
15300W        W81841  36.288  31.910   3.600
15301W        W81842  44.480  10.376  13.347
15302W        W81843   5.016  11.566   1.280
15303W        W81844  30.569  34.375  11.257
15304W        W81845  38.293  43.064  10.355
15305W        W81846   2.791  13.144  11.591
15306W        W81847  24.452   5.389   1.369
15307W        W81848   9.159   1.976   4.794
15308W        W81849  20.453  31.099   1.247
15309W        W81850  38.488  24.187  10.978
15310W        W81851  12.327  35.530   0.223
15311W        W81852  30.092  23.782   3.696
15312W        W81853   1.730  11.204  11.101
15313W        W81854  19.152   9.845   3.647
15314W        W81855  27.474  23.059   2.222
15315W        W81856  13.615  30.006   0.895
15316W        W81857  39.650  41.326   1.122
15317W        W81858  25.493   6.793  14.383
15318W        W81859  40.494  41.313  14.714
15319W        W81860  25.267  16.214  10.464
15320W        W81861  27.681  29.495  13.587
15321W        W81862  10.266  11.864  13.950
15322W        W81863   9.797   4.808  14.414
15323W        W81864  28.621  30.171   1.232
15324W        W81865  30.040  18.757   2.328
15325W        W81866  17.371  30.458   5.427
15326W        W81867  20.128   6.598   0.297
15327W        W81868  24.749   2.192  12.071
15328W        W81869   8.820  23.298   1.743
15329W        W81870  12.883  35.809   1.425
15330W        W81871  36.876  38.819  14.244
15331W        W81872  38.297  22.521   3.202
15332W        W81873  28.521  34.189   3.964
15333W        W81874   4.731  22.009  10.677
15334W        W81875  17.231  22.194   2.830
15335W        W81876  19.254  29.095  13.656
15336W        W81877   8.265  20.951  14.930
15337W        W81878  23.232   3.487  14.000
15338W        W81879  44.739   9.190   0.128
15339W        W81880  10.945   9.108  12.964
15340W        W81881  36.746  10.069   0.432
15341W        W81882  42.333   4.090   2.370
15342W        W81883  13.809  37.719   0.533
15343W        W81884  35.829  41.235  11.166
15344W        W81885  36.510  22.550   2.747
15345W        W81886  33.112   6.849   4.606
15346W        W81887  32.951   5.786  12.971
15347W        W81888  26.959  13.558   0.901
15348W        W81889  39.903   3.332   3.121
15349W        W81890  12.205  41.853   4.530
15350W        W81891   0.681  30.417   0.712
15351W        W81892  40.115  25.059  13.543
15352W        W81893  34.957  43.418  14.149
15353W        W81894  41.070  10.159  13.603
15354W        W81895  12.214   7.223  14.758
15355W        W81896   6.740   7.379  14.362
15356W        W81897  34.808   6.316  11.935
15357W        W81898   0.453  10.803   0.889
15358W        W81899  41.021   1.999   2.669
15359W        W81900  19.151  25.296  11.525
15360W        W81901  19.048  44.914  14.937
15361W        W81902  24.798  40.881  12.628
15362W        W81903  23.297  35.116  11.157
15363W        W81904  40.091  11.160  14.411
15364W        W81905  42.472  37.766  14.822
15365W        W81906  12.909   3.816  12.486
15366W        W81907   4.076  33.581   3.400
15367W        W81908  41.142  25.027   1.851
15368W        W81909   6.727  30.892   2.430
15369W        W81910   2.439  34.574   4.220
15370W        W81911   0.547  39.592  13.984
15371W        W81912  38.572  41.905  13.063
15372W        W81913  10.495  43.934  12.946
15373W        W81914  32.647  28.106   4.660
15374W        W81915   4.983  38.349  14.278
15375W        W81916  41.427   9.454  13.770
15376W        W81917   6.301  27.497  13.365
15377W        W81918   5.622  40.146   2.734
15378W        W81919  29.884  32.619  12.403
15379W        W81920   7.681  14.632  10.676
15380W        W81921  38.909  44.727  11.497
15381W        W81922   4.673  44.829  10.086
15382W        W81923  32.809  12.343   4.638
15383W        W81924  39.440   1.935  14.366
15384W        W81925  27.285  42.075  13.033
15385W        W81926  20.613  22.804  13.790
15386W        W81927  19.389  17.276   4.354
15387W        W81928  38.503  26.964  13.576
15388W        W81929  24.228  12.177   1.938
15389W        W81930  43.948  23.723  13.809
15390W        W81931   8.060  26.492  10.109
15391W        W81932  21.168  23.239   4.152
15392W        W81933  34.782  44.462  14.995
15393W        W81934   6.360  17.142  11.660
15394W        W81935  30.820  33.042  11.121
15395W        W81936  20.455  17.873   9.571
15396W        W81937  41.287  35.956  14.512
15397W        W81938  40.165  10.999  11.933
15398W        W81939  13.248  11.180  14.074
15399W        W81940  15.133  18.348  13.077
15400W        W81941   9.431   9.700   3.730
15401W        W81942  19.252   5.883   0.824
15402W        W81943   5.129  31.104  13.463
15403W        W81944  36.612  26.924  12.480
15404W        W81945  40.531  38.919   0.683
15405W        W81946   9.371  36.211   0.860
15406W        W81947  34.023  22.932  14.174
15407W        W81948   5.850  28.167   0.814
15408W        W81949  16.625   4.899   4.153
15409W        W81950  17.769  17.325  14.474
15410W        W81951   2.709   1.813   1.281
15411W        W81952  15.644  37.074  10.613
15412W        W81953   3.883   7.811  13.938
15413W        W81954  38.555  15.714  11.391
15414W        W81955  15.234  36.339  13.471
15415W        W81956  15.295  35.556   4.275
15416W        W81957   7.442  29.410  14.251
15417W        W81958   5.346  29.535   4.178
15418W        W81959  24.241   4.288   4.101
15419W        W81960  44.966   4.545  14.195
15420W        W81961  35.649   2.457  13.499
15421W        W81962  22.121  31.137   2.933
15422W        W81963  31.090  12.787  14.733
15423W        W81964   4.672  21.554  10.934
15424W        W81965  39.275  35.041   4.234
15425W        W81966  32.564   8.202   2.171
15426W        W81967   2.416  19.093   2.769
15427W        W81968  23.733  33.533  11.073
15428W        W81969  33.119  13.817   4.991
15429W        W81970  12.632  22.306  11.181
15430W        W81971   8.292   0.262  11.525
15431W        W81972  40.888  38.893  10.967
15432W        W81973  19.310   1.453   0.866
15433W        W81974  16.990  19.362   0.962
15434W        W81975  19.643  36.554  10.772
15435W        W81976  43.241  13.378  14.342
15436W        W81977  37.052  34.578   2.168
15437W        W81978  42.320  41.810   2.865
15438W        W81979  26.739  17.244  13.064
15439W        W81980  41.760  31.374   2.677
15440W        W81981  29.532  17.102  12.891
15441W        W81982  37.618   4.296   0.263
15442W        W81983  21.460  31.981   0.879
15443W        W81984  34.258  37.475  12.811
15444W        W81985  10.230  14.610   0.251
15445W        W81986   9.415  17.198   2.938
15446W        W81987  22.212  28.126   2.729
15447W        W81988  14.795  30.961   1.302
15448W        W81989  32.411  42.054   2.226
15449W        W81990   4.530  31.813   2.770
15450W        W81991  38.974   4.504   4.406
15451W        W81992  13.586  12.758  11.602
15452W        W81993  18.608  29.956   2.169
15453W        W81994  36.527  25.894  13.316
15454W        W81995  21.887  12.395  10.197
15455W        W81996  33.428  12.708   9.903
15456W        W81997  16.803  23.549  10.477
15457W        W81998  20.666  15.013   1.245
15458W        W81999  30.858  38.325  11.079
15459W        W82000  23.083   0.579  10.994
15460W        W82001   8.252   0.929  14.540
15461W        W82002  22.385  21.305   0.393
15462W        W82003  13.965  19.242   4.602
15463W        W82004  12.834  39.969   0.019
15464W        W82005  32.147  39.337   1.365
15465W        W82006  33.927  34.405  14.048
15466W        W82007  37.531  27.412  13.619
15467W        W82008  40.830  39.881   4.140
15468W        W82009  30.431  34.306  12.107
15469W        W82010  26.440  36.551   3.770
15470W        W82011  26.436  28.173  12.146
15471W        W82012  19.163   8.125  14.066
15472W        W82013   9.141  20.932  10.565
15473W        W82014   3.685  18.558  10.865
15474W        W82015  29.174  20.783   4.220
15475W        W82016  20.390   3.892   5.072
15476W        W82017  37.466  34.611  10.994
15477W        W82018  35.531   0.429   2.160
15478W        W82019  39.096  39.073   4.456
15479W        W82020  22.484  42.308  11.972
15480W        W82021  12.751  26.967  11.142
15481W        W82022  12.473   4.928  11.569
15482W        W82023  32.126  17.823   2.789
15483W        W82024   9.822  43.072   2.652
15484W        W82025  36.657   3.118   2.539
15485W        W82026  25.435  10.113   4.277
15486W        W82027   7.923   8.830  11.557
15487W        W82028  13.053  31.391   3.680
15488W        W82029  16.124  26.194  12.932
15489W        W82030   7.158  35.113  13.507
15490W        W82031   6.141  17.595  11.484
15491W        W82032  42.815  20.827   4.608
15492W        W82033  41.794   9.275  11.200
15493W        W82034   2.567  25.163  12.096
15494W        W82035  26.539  33.145   3.061
15495W        W82036  19.529  20.150   1.188
15496W        W82037  22.858  38.674  13.419
15497W        W82038  29.399  34.735   0.005
15498W        W82039  37.841  42.711   1.266
15499W        W82040   7.452  16.277   1.162
15500W        W82041  15.560  14.879   0.269
15501W        W82042  17.054  27.834  12.456
15502W        W82043   7.786   6.383  14.672
15503W        W82044  24.440  10.230  13.999
15504W        W82045  20.035  43.682   1.429
15505W        W82046  28.289  23.899   4.728
15506W        W82047  10.334  25.023  10.717
15507W        W82048  33.899  24.976   5.076
15508W        W82049  24.731  11.912   0.251
15509W        W82050  12.051  16.397   0.808
15510W        W82051  23.157  17.569  12.633
15511W        W82052   3.824  40.098   0.444
15512W        W82053   8.853  28.844  14.818
15513W        W82054  21.600  31.998  12.524
15514W        W82055   8.330  19.086   1.344
15515W        W82056  19.833  43.349   4.509
15516W        W82057  35.638  11.256   1.726
15517W        W82058  25.359   2.595   0.722
15518W        W82059  41.834  40.929   2.635
15519W        W82060  41.298  31.679   1.364
15520W        W82061  22.436   0.882   4.077
15521W        W82062  30.927  17.966   4.762
15522W        W82063  27.027  43.930  11.593
15523W        W82064  31.542  17.350  11.173
15524W        W82065   3.663  19.156  12.916
15525W        W82066   3.747  16.023  10.818
15526W        W82067  11.123  28.277  12.069
15527W        W82068  36.469  13.275  11.434
15528W        W82069  39.767  40.305   1.958
15529W        W82070  40.710  43.043   4.194
15530W        W82071   3.506  12.384   3.841
15531W        W82072  19.734   7.140  10.628
15532W        W82073  35.683   6.044  13.319
15533W        W82074  10.731  38.527   3.591
15534W        W82075   7.892  17.052  13.544
15535W        W82076   6.921   8.614  14.925
15536W        W82077  21.822  37.322  13.510
15537W        W82078  38.356  44.893  14.390
15538W        W82079  36.056  42.840  12.622
15539W        W82080  14.116  26.512   0.264
15540W        W82081  30.155  19.257   2.420
15541W        W82082   2.352  36.436   2.675
15542W        W82083   8.580  37.996  11.570
15543W        W82084  13.439  25.555   4.281
15544W        W82085  24.849  15.704   1.663
15545W        W82086  39.475  37.157   0.739
15546W        W82087  27.077  21.100  10.732
15547W        W82088  40.758  36.589  14.178
15548W        W82089  31.030  26.389   2.683
15549W        W82090   9.695  40.864  12.178
15550W        W82091   7.986  31.424   0.798
15551W        W82092  13.139  14.308  13.856
15552W        W82093   7.314   3.781   2.386
15553W        W82094  28.859  43.102  10.558
15554W        W82095  38.692  11.956   1.577
15555W        W82096   2.052   0.441  14.765
15556W        W82097   0.732  10.232  10.663
15557W        W82098  20.538  26.911  10.633
15558W        W82099  19.457  30.500  10.627
15559W        W82100  35.468  15.373  14.975
15560W        W82101  11.693   4.206  14.342
15561W        W82102  43.835  18.569   4.785
15562W        W82103  33.417  34.332   3.769
15563W        W82104  20.476  35.910   4.474
15564W        W82105  39.950  21.237  13.280
15565W        W82106  10.646   1.727  12.454
15566W        W82107  43.145  31.474   2.809
15567W        W82108  21.863  39.062  12.364
15568W        W82109  44.811  28.489  10.692
15569W        W82110  41.303  12.089   0.947
15570W        W82111  42.082  16.927  11.966
15571W        W82112   6.169  11.686  12.018
15572W        W82113  40.334  33.201   2.767
15573W        W82114  27.694  27.707   1.939
15574W        W82115  37.305   4.845  11.073
15575W        W82116  41.527  15.566  14.447
15576W        W82117  23.551  11.932  10.701
15577W        W82118  12.799  30.367  11.982
15578W        W82119  23.080   0.901   4.758
15579W        W82120  12.220   7.135   0.289
15580W        W82121  14.711  18.794   2.386
15581W        W82122   3.203   6.314  14.536
15582W        W82123  42.978  39.578  13.015
15583W        W82124   2.282   7.348  14.494
15584W        W82125   5.966   7.347  14.833
15585W        W82126   5.085   8.468   4.728
15586W        W82127  42.234   6.432  12.507
15587W        W82128  25.877  40.272   0.118
15588W        W82129  42.897  26.632  13.158
15589W        W82130  42.406  28.577  13.084
15590W        W82131  17.390  37.342   2.785
15591W        W82132  42.470  41.007  11.874
15592W        W82133  20.681  31.186  11.635
15593W        W82134  33.343  29.183  11.294
15594W        W82135  36.285  17.064   3.222
15595W        W82136  40.005   0.404   4.608
15596W        W82137  27.085   7.711   3.796
15597W        W82138  18.250   8.370   3.172
15598W        W82139   3.998  37.370   1.324
15599W        W82140  21.096   4.627   1.823
15600W        W82141  13.852   8.933   3.348
15601W        W82142  42.428   6.317   2.917
15602W        W82143   9.525  16.794  10.699
15603W        W82144  17.158   8.700  14.745
15604W        W82145  36.922  43.336   1.339
15605W        W82146  16.362  15.135   4.012
15606W        W82147  19.641  38.030   4.076
15607W        W82148  20.070  10.304   0.226
15608W        W82149   1.246  27.232   2.049
15609W        W82150   4.853  17.182  13.883
15610W        W82151  37.779   6.740   0.232
15611W        W82152  28.480  33.308  11.970
15612W        W82153   7.809  22.136  13.602
15613W        W82154   3.411  11.768   0.886
15614W        W82155  32.963  15.313   0.727
15615W        W82156  11.232   5.160   0.440
15616W        W82157  34.770  21.008   4.994
15617W        W82158  14.863  39.026  14.097
15618W        W82159   9.165  29.359   0.842
15619W        W82160  31.303  17.592  10.393
15620W        W82161  16.758  29.437   3.254
15621W        W82162   2.766  27.626  13.314
15622W        W82163  15.886  30.195   1.319
15623W        W82164   2.314  22.920   1.224
15624W        W82165  25.022   5.040  11.102
15625W        W82166  41.926  32.060  10.786
15626W        W82167  38.748  28.101   0.922
15627W        W82168  39.762  38.477  12.406
15628W        W82169  44.757  41.928  14.888
15629W        W82170  26.008  34.164  12.987
15630W        W82171  15.198   8.192   3.810
15631W        W82172  31.526  19.047  11.781
15632W        W82173  20.942  20.014  11.196
15633W        W82174  10.738  11.828  10.307
15634W        W82175  35.483  35.563  11.880
15635W        W82176   7.945  17.287  11.264
15636W        W82177  18.207  29.606  12.963
15637W        W82178  30.333   5.353   4.283
15638W        W82179  31.894   3.426  10.700
15639W        W82180  21.285  19.348  13.037
15640W        W82181  18.781  44.728   3.165
15641W        W82182   0.288  16.095   3.645
15642W        W82183  31.601  43.736  12.455
15643W        W82184  18.346  22.879  13.441
15644W        W82185  30.259  35.653   0.246
15645W        W82186  20.492  40.278   1.980
15646W        W82187  35.070  41.076   1.371
15647W        W82188  29.243   8.813  10.328
15648W        W82189  37.047  20.048   1.690
15649W        W82190  14.092  28.625  13.407
15650W        W82191   5.043  21.017  13.963
15651W        W82192  15.976   0.834   4.821
15652W        W82193   2.420  23.030   4.477
15653W        W82194  17.245   2.777  12.519
15654W        W82195   8.598   1.031   2.860
15655W        W82196  41.775   3.972  12.824
15656W        W82197  29.673  37.317  14.033
15657W        W82198  41.850   7.399  13.402
15658W        W82199  36.271  25.118  11.543
15659W        W82200  34.330  43.746  12.227
15660W        W82201  31.162  18.133  12.063
15661W        W82202  23.934  29.603   4.023
15662W        W82203  34.216   5.747   5.079
15663W        W82204  27.141   9.210  12.063
15664W        W82205  12.388  20.541   3.263
15665W        W82206  43.758  24.541   2.860
15666W        W82207  35.093  42.952   0.305
15667W        W82208  26.240  18.018  14.249
15668W        W82209  42.851  15.337   1.190
15669W        W82210  10.138  37.103  11.396
15670W        W82211  21.041  34.097   0.067
15671W        W82212   6.352  18.769   2.624
15672W        W82213  13.850  16.255   1.405
15673W        W82214  12.273  25.557   2.704
15674W        W82215  18.181  44.558  11.705
15675W        W82216   0.781  25.537  13.429
15676W        W82217   3.675  18.131  14.894
15677W        W82218   0.232  25.500  11.078
15678W        W82219  16.959  30.106   1.797
15679W        W82220  27.894  30.276   1.943
15680W        W82221  41.288  28.666  12.159
15681W        W82222  37.093  13.608   3.285
15682W        W82223  44.576  32.603   1.357
15683W        W82224  22.082  42.514   0.792
15684W        W82225  17.634   2.940  11.237
15685W        W82226  37.966  28.479  14.802
15686W        W82227  17.265  39.468   0.807
15687W        W82228  22.623  44.017  14.037
15688W        W82229  26.620  23.118   0.281
15689W        W82230  43.535  13.762   3.749
15690W        W82231  41.232   1.157   0.091
15691W        W82232  39.860  34.060  12.449
15692W        W82233  20.936   9.243   0.700
15693W        W82234   9.347  44.362  11.482
15694W        W82235  13.104   6.693  12.434
15695W        W82236   2.118  42.725   9.523
15696W        W82237  38.509  43.386   2.389
15697W        W82238  35.460  26.934   1.421
15698W        W82239  39.516  31.801   1.461
15699W        W82240  35.691   4.019  12.848
15700W        W82241  15.156   4.660  12.648
15701W        W82242  24.140  36.380   3.595
15702W        W82243  10.853  13.099  10.671
15703W        W82244  14.253  28.696   3.646
15704W        W82245  36.375  21.210   4.924
15705W        W82246  40.256  30.137   1.685
15706W        W82247   7.473  41.913  14.954
15707W        W82248  42.080  43.179   2.225
15708W        W82249  36.080  42.903  11.547
15709W        W82250  39.858   8.186  13.107
15710W        W82251  24.749  25.700   4.221
15711W        W82252  17.509   8.717   1.248
15712W        W82253  18.453  38.324  14.022
15713W        W82254   9.391  21.056  14.405
15714W        W82255  26.107  26.990  10.831
15715W        W82256  20.286  36.422   0.773
15716W        W82257  42.795   5.267   0.520
15717W        W82258  20.443  19.218  13.974
15718W        W82259  26.190   2.667  12.428
15719W        W82260  17.696   3.054   0.568
15720W        W82261  33.504  38.905  12.501
15721W        W82262   1.481  31.541  14.098
15722W        W82263  21.150  36.949   2.231
15723W        W82264  13.866  34.824  11.632
15724W        W82265  11.355   1.865  11.941
15725W        W82266  31.482  11.233   0.331
15726W        W82267  43.428  26.928   2.306
15727W        W82268  28.035  26.581  12.401
15728W        W82269  28.048  28.880  14.994
15729W        W82270  21.541  31.532  13.296
15730W        W82271  32.353   4.249   1.736
15731W        W82272   8.541  12.177  13.948
15732W        W82273   6.332   9.306  13.963
15733W        W82274  30.870  24.728  14.336
15734W        W82275  18.486  41.921   0.489
15735W        W82276  11.792  33.678   4.054
15736W        W82277  39.325   3.937  13.149
15737W        W82278   5.685  10.853  12.506
15738W        W82279  21.027  13.552   0.847
15739W        W82280  40.253   0.304   1.655
15740W        W82281  11.230  30.575  14.412
15741W        W82282  31.536  38.021   1.232
15742W        W82283  23.095  22.247   0.812
15743W        W82284   4.213   9.828  13.422
15744W        W82285  16.602  15.923   3.307
15745W        W82286  31.548  26.649   1.787
15746W        W82287   3.821  14.638   1.033
15747W        W82288  19.672   1.714  14.875
15748W        W82289  17.073   2.439  13.971
15749W        W82290  34.693   5.231   3.987
15750W        W82291   2.985   7.372  13.672
15751W        W82292  10.726  39.453  10.620
15752W        W82293  20.478  39.775  11.624
15753W        W82294  10.597   2.758  13.945
15754W        W82295  37.547  17.825   4.522
15755W        W82296  44.281  22.487   3.375
15756W        W82297   3.271  21.166  13.830
15757W        W82298  10.415   5.686  12.191
15758W        W82299   1.884  35.622   2.001
15759W        W82300  16.412  28.041  11.198
15760W        W82301  20.472  28.766  14.785
15761W        W82302  14.774  36.097  10.375
15762W        W82303  28.514  27.109  13.101
15763W        W82304  32.731  39.454  12.571
15764W        W82305   5.743  30.670  12.007
15765W        W82306  18.111  44.960   0.784
15766W        W82307  31.554   5.281  12.488
15767W        W82308   3.710  13.029  10.865
15768W        W82309  11.263   7.882  12.038
15769W        W82310  15.636  12.640   4.346
15770W        W82311  42.919  15.529  14.676
15771W        W82312  40.566  43.838   3.103
15772W        W82313   8.238  18.706  14.926
15773W        W82314   9.871   3.928  10.413
15774W        W82315  20.975   1.968  13.134
15775W        W82316   6.594  38.326  13.156
15776W        W82317  11.191  33.207   0.244
15777W        W82318  17.792  40.186   1.118
15778W        W82319   0.020  31.871  12.837
15779W        W82320  29.015  26.722  10.582
15780W        W82321  12.239  27.521  13.296
15781W        W82322   6.105  37.389  12.258
15782W        W82323  25.607  35.584   4.887
15783W        W82324  16.609  16.504   0.871
15784W        W82325  20.666  38.497  12.476
15785W        W82326   0.106  22.659  14.013
15786W        W82327  18.251   7.208   1.827
15787W        W82328  30.548  21.144   1.769
15788W        W82329   4.545  22.855  10.902
15789W        W82330  41.443   4.916  11.840
15790W        W82331   4.496  21.219  12.081
15791W        W82332  27.932  12.380   3.610
15792W        W82333   0.267   2.720  11.522
15793W        W82334  40.763  13.196  11.275
15794W        W82335  21.544  22.615  10.695
15795W        W82336  36.496  19.950   1.729
15796W        W82337   9.457  36.561   3.244
15797W        W82338  20.974  10.098  13.859
15798W        W82339   3.984   0.216   0.417
15799W        W82340  36.460  15.222  12.065
15800W        W82341   7.721  32.832   0.742
15801W        W82342   8.378  12.236   3.369
15802W        W82343  27.609   9.700   0.735
15803W        W82344  29.105   2.703   4.670
15804W        W82345  33.048  32.715  10.806
15805W        W82346  44.485   2.970  10.412
15806W        W82347  31.035  23.450  14.805
15807W        W82348  34.244  28.887  14.951
15808W        W82349  33.107   0.904   1.236
15809W        W82350  25.592  37.588  12.753
15810W        W82351  37.400  26.448   1.930
15811W        W82352  41.802   6.343   0.311
15812W        W82353  13.571  22.486   3.825
15813W        W82354   3.624  23.654  14.144
15814W        W82355  37.512  11.934   1.662
15815W        W82356  15.181  25.445   2.198
15816W        W82357  27.260  24.856   4.772
15817W        W82358  39.254  36.013  13.413
15818W        W82359  26.886  31.020   1.678
15819W        W82360  13.845   8.755   0.018
15820W        W82361  44.468  14.522  10.564
15821W        W82362  15.804  37.423   4.525
15822W        W82363  44.183  41.039   2.469
15823W        W82364   2.961   4.800   3.295
15824W        W82365   9.659  17.130   1.941
15825W        W82366   0.825  11.055   2.898
15826W        W82367   2.278   0.126  13.050
15827W        W82368  30.669  35.716  13.452
15828W        W82369  33.681  19.264  11.562
15829W        W82370  43.061   8.800  13.387
15830W        W82371  12.829  31.970   4.563
15831W        W82372  20.709  41.007   2.661
15832W        W82373  19.733  23.734   1.400
15833W        W82374  40.921  12.070  12.482
15834W        W82375  32.051  20.876  12.430
15835W        W82376   5.734   2.346   1.445
15836W        W82377   6.369  36.790   2.315
15837W        W82378  11.395  28.266  13.987
15838W        W82379   5.239   9.197   3.606
15839W        W82380  39.853  29.124  10.655
15840W        W82381  20.990   6.867   2.196
15841W        W82382  30.456  39.239  14.884
15842W        W82383   3.026  18.338   1.618
15843W        W82384  18.698   6.903   1.817
15844W        W82385   5.444  30.076  10.214
15845W        W82386   7.171  14.295  12.914
15846W        W82387  16.334   8.128   2.177
15847W        W82388  12.537  12.296   0.407
15848W        W82389  29.732   4.224   0.726
15849W        W82390  43.020  18.681  12.196
15850W        W82391  26.106  31.628   4.594
15851W        W82392  30.024   1.453  14.796
15852W        W82393   0.940  31.845   2.984
15853W        W82394   5.987  34.604  13.328
15854W        W82395   0.639  18.767   4.535
15855W        W82396   3.937  18.013   0.381
15856W        W82397  32.956   5.988  10.534
15857W        W82398  26.081  14.411   3.331
15858W        W82399  39.903  22.257  14.235
15859W        W82400  41.207  17.274   2.181
15860W        W82401  42.827  14.591   0.730
15861W        W82402  34.908   7.329   2.834
15862W        W82403  40.695  35.039  11.919
15863W        W82404  26.024   7.711   4.642
15864W        W82405  34.316  22.220   3.651
15865W        W82406  38.864  12.295   0.328
15866W        W82407   8.586   8.357   4.411
15867W        W82408  12.200  13.353  10.714
15868W        W82409  28.101  30.281   4.133
15869W        W82410  20.634   4.263   1.872
15870W        W82411  44.845  35.663   0.863
15871W        W82412   8.209  23.731   0.320
15872W        W82413  15.994  28.122   4.879
15873W        W82414  41.838   2.439  12.531
15874W        W82415  40.768   9.653  14.353
15875W        W82416  42.946  30.652   9.983
15876W        W82417  11.614  38.845  12.435
15877W        W82418  24.241  25.036  13.067
15878W        W82419  22.172  16.070   2.877
15879W        W82420  27.412  41.087  13.332
15880W        W82421  20.548  16.490   2.108
15881W        W82422  33.211  19.055   0.655
15882W        W82423  38.477  43.897  13.014
15883W        W82424   6.840  36.203  14.703
15884W        W82425  15.761  34.929  11.484
15885W        W82426  27.999  40.747  13.444
15886W        W82427   7.047   0.538  12.202
15887W        W82428   8.757  34.963   4.901
15888W        W82429  23.978  39.745   0.910
15889W        W82430  17.524  19.617   3.748
15890W        W82431  35.087  35.510  13.380
15891W        W82432  10.897  43.288  14.609
15892W        W82433  16.274  14.117   4.170
15893W        W82434  13.751  18.755   3.901
15894W        W82435  17.385  28.494   2.325
15895W        W82436  12.521  42.419   2.231
15896W        W82437   5.418  36.924  12.507
15897W        W82438  39.878  39.387   4.702
15898W        W82439  27.729  21.103   1.859
15899W        W82440   1.780  28.861  14.293
15900W        W82441   7.913  41.490  12.883
15901W        W82442  41.036  18.001  14.996
15902W        W82443   0.567  42.902  13.462
15903W        W82444  11.094  25.063  14.779
15904W        W82445  28.446   7.213  14.464
15905W        W82446  43.469   9.276   0.044
15906W        W82447   4.692  26.185  12.547
15907W        W82448  14.803   2.880   4.925
15908W        W82449  21.703  23.263  14.838
15909W        W82450  41.830  17.493   2.724
15910W        W82451  24.727   6.695   5.176
15911W        W82452   9.126   4.814   4.707
15912W        W82453  20.710  24.986   0.207
15913W        W82454  30.534  36.821   2.631
15914W        W82455  31.100  20.810  14.318
15915W        W82456   3.633  42.932   3.669
15916W        W82457  31.690   2.116   4.149
15917W        W82458  32.301   7.845   3.361
15918W        W82459  20.880  16.287   1.712
15919W        W82460  18.966  30.670   0.807
15920W        W82461  22.652  43.828  10.565
15921W        W82462   4.797  38.272   3.317
15922W        W82463  32.338  39.257  11.027
15923W        W82464  26.960   2.726   3.384
15924W        W82465  16.624  26.552   4.414
15925W        W82466  40.412  13.225   3.052
15926W        W82467   8.738  11.099   3.126
15927W        W82468  14.339  12.772   3.805
15928W        W82469  21.428  21.209  13.815
15929W        W82470  15.280  19.313  10.659
15930W        W82471  19.833  34.569   3.836
15931W        W82472  36.406   9.716  14.495
15932W        W82473  20.396  33.151  14.889
15933W        W82474  25.018  17.098   0.934
15934W        W82475   6.977  35.622  11.435
15935W        W82476  32.082  23.789   1.851
15936W        W82477  13.595  28.682  13.778
15937W        W82478  21.740  41.272   2.597
15938W        W82479  29.846  18.510  13.954
15939W        W82480  25.795  41.094  11.636
15940W        W82481   3.723  44.291   1.294
15941W        W82482  27.660  44.279   3.780
15942W        W82483  28.667  11.636  11.227
15943W        W82484  39.799  19.375   3.765
15944W        W82485  38.598   3.340   3.659
15945W        W82486   7.486  28.008  12.332
15946W        W82487  42.001   4.499   2.796
15947W        W82488  34.431   1.862  11.663
15948W        W82489  22.295   0.851  14.955
15949W        W82490  42.786  42.526  13.799
15950W        W82491  31.287  24.300   3.252
15951W        W82492  10.160  30.182  12.833
15952W        W82493  38.936  32.379  10.234
15953W        W82494  30.012  18.294  12.170
15954W        W82495  35.885  29.379  12.057
15955W        W82496   0.199   8.446  11.024
15956W        W82497   8.608  30.940   4.512
15957W        W82498   5.660  24.088   2.806
15958W        W82499  42.498  24.291  12.000
15959W        W82500   3.751  28.477   2.186
15960W        W82501  28.240   2.882   0.797
15961W        W82502  15.781  22.012   2.711
15962W        W82503  14.109  24.076   0.596
15963W        W82504  44.770   0.308  11.666
15964W        W82505   9.593   7.441   0.640
15965W        W82506  41.890  32.555   0.230
15966W        W82507  33.851   3.760   1.924
15967W        W82508  43.556   8.823  14.743
15968W        W82509  43.685  12.578  13.221
15969W        W82510  10.472  13.238  13.998
15970W        W82511  39.069  18.245   0.744
15971W        W82512   1.364  31.542   0.411
15972W        W82513  29.169  36.109   1.828
15973W        W82514  34.034  20.215  14.476
15974W        W82515  31.697  38.455   3.191
15975W        W82516  24.688  33.434   1.629
15976W        W82517   0.148   2.692  13.405
15977W        W82518  41.324  27.294   2.890
15978W        W82519  29.108  21.107   3.642
15979W        W82520  35.634  20.959   3.968
15980W        W82521  35.367  39.752   4.129
15981W        W82522  38.242  37.794   3.709
15982W        W82523  12.114  37.582   2.273
15983W        W82524  32.607  27.369  10.745
15984W        W82525  30.636  40.525  12.078
15985W        W82526  36.599  13.896  12.383
15986W        W82527  12.620  33.387   2.118
15987W        W82528  21.479  43.915  12.489
15988W        W82529   9.489   0.874  14.667
15989W        W82530  21.761  15.387   5.359
15990W        W82531  12.752  31.417   3.247
15991W        W82532  25.824  39.065   2.778
15992W        W82533   7.048  22.645   3.098
15993W        W82534  35.323  27.799  12.344
15994W        W82535  44.518  14.305   1.935
15995W        W82536  29.436   1.207  13.555
15996W        W82537  10.743   6.159   4.280
15997W        W82538  22.575  41.602   0.974
15998W        W82539  18.988   2.488   1.904
15999W        W82540  35.341  42.442   3.206
16000W        W82541  32.888  27.205  14.929
16001W        W82542  13.262  11.174   2.011
16002W        W82543  26.839  36.466  11.114
16003W        W82544  41.272  24.960   3.694
16004W        W82545  42.630  13.693   5.522
16005W        W82546   4.265  36.100   1.638
16006W        W82547  31.921  19.820  12.109
16007W        W82548  10.991  24.564  14.539
16008W        W82549  38.748  22.522  13.508
16009W        W82550  34.492  43.076  12.844
16010W        W82551   4.900  12.562  13.944
16011W        W82552   6.813  11.773  14.855
16012W        W82553   8.453  40.909  11.667
16013W        W82554  16.987   7.427   2.702
16014W        W82555   7.579  20.191  11.676
16015W        W82556  38.990   4.454   2.816
16016W        W82557   0.362  42.875  11.966
16017W        W82558  32.404  44.554  11.596
16018W        W82559  10.589  27.802   0.261
16019W        W82560  25.198  27.563  11.972
16020W        W82561  26.486   7.181  13.882
16021W        W82562   1.844  29.563  14.355
16022W        W82563  10.356   7.598  14.837
16023W        W82564  25.094  22.584  13.364
16024W        W82565  26.054  39.550  12.536
16025W        W82566  24.702  28.732  14.484
16026W        W82567  37.819  44.352  10.610
16027W        W82568  41.746  37.570  14.323
16028W        W82569  30.579   3.797   4.218
16029W        W82570  37.012  29.345  14.630
16030W        W82571  32.073   2.929  11.702
16031W        W82572   8.742   1.009  10.701
16032W        W82573  15.297  10.762   0.215
16033W        W82574   6.813  19.141   3.227
16034W        W82575  39.842  30.064  13.570
16035W        W82576  37.263  17.297  11.640
16036W        W82577  29.888  26.630   4.203
16037W        W82578  21.508  16.831  12.851
16038W        W82579  14.362   0.367   4.147
16039W        W82580  18.819  12.710   1.824
16040W        W82581   7.054   0.401   9.670
16041W        W82582  25.468   0.765  12.823
16042W        W82583  15.173   2.945   3.171
16043W        W82584  25.119  32.164   4.619
16044W        W82585  22.333  20.551   3.444
16045W        W82586  31.582  44.482  13.541
16046W        W82587  31.435   3.627   4.600
16047W        W82588  43.261  26.723   4.241
16048W        W82589   7.707  10.652  10.815
16049W        W82590  20.294  22.115  12.304
16050W        W82591  24.816  13.696  14.292
16051W        W82592  40.459  41.345   4.140
16052W        W82593  33.115  21.954  13.024
16053W        W82594   4.997  31.718   4.600
16054W        W82595   8.843   1.729   4.135
16055W        W82596   1.499  43.812   2.654
16056W        W82597  26.524  19.614  13.870
16057W        W82598  18.918  17.291  12.850
16058W        W82599  18.710  11.411   0.840
16059W        W82600  25.677   3.322   1.680
16060W        W82601  42.080  30.051  12.993
16061W        W82602   2.908  28.023  11.524
16062W        W82603  35.639  17.949  11.039
16063W        W82604  22.526  37.057   4.894
16064W        W82605  34.656  25.057  11.181
16065W        W82606   6.816  43.910   1.491
16066W        W82607   6.454  16.265   1.153
16067W        W82608  24.133   7.371  13.351
16068W        W82609  10.197   0.103  13.760
16069W        W82610  35.611  36.984   0.377
16070W        W82611  40.547  23.103   2.857
16071W        W82612  28.120  12.193  14.332
16072W        W82613  43.953  24.431   1.901
16073W        W82614  16.989  17.263   4.955
16074W        W82615  36.975  39.467  12.988
16075W        W82616   2.494  17.307  13.557
16076W        W82617  11.724  16.385  11.534
16077W        W82618  40.458   2.432   1.567
16078W        W82619  33.381  15.731   0.024
16079W        W82620  27.059  14.320  11.036
16080W        W82621  18.530  27.011   2.894
16081W        W82622  15.063  19.010  11.040
16082W        W82623   8.163  22.674   1.194
16083W        W82624   8.230  44.413   4.388
16084W        W82625  33.131  21.107  14.519
16085W        W82626   7.750  12.898  12.918
16086W        W82627  19.080  31.092   0.481
16087W        W82628   9.939  29.161   1.763
16088W        W82629  35.948  31.030  14.320
16089W        W82630   8.216  40.047  12.157
16090W        W82631  17.136  38.997   5.000
16091W        W82632   0.823  25.039  13.709
16092W        W82633  43.050  13.666  12.504
16093W        W82634  34.885  44.942   4.571
16094W        W82635  43.965   2.977   3.842
16095W        W82636  24.078  27.865   0.532
16096W        W82637   5.880  29.500  14.533
16097W        W82638   6.853  19.068  11.569
16098W        W82639  30.072  24.480   2.226
16099W        W82640  11.051  36.312  13.767
16100W        W82641  15.647  19.041   4.570
16101W        W82642  25.008  35.235  10.934
16102W        W82643  20.747  12.414  12.128
16103W        W82644  36.827  20.006   0.728
16104W        W82645  38.407  31.008   2.197
16105W        W82646  27.133  32.420  11.176
16106W        W82647   6.278   5.411   1.222
16107W        W82648  17.164   1.756  10.467
16108W        W82649  17.873  41.383   3.878
16109W        W82650  22.310  34.031   2.185
16110W        W82651   7.323  41.345  13.400
16111W        W82652  15.829  28.859   4.147
16112W        W82653  16.057  28.507   0.471
16113W        W82654   3.314  43.923   4.533
16114W        W82655  11.153   5.753  10.724
16115W        W82656  34.708   7.163  11.906
16116W        W82657  23.642  20.494   0.238
16117W        W82658  25.010  13.298   2.388
16118W        W82659  22.640  44.494  11.504
16119W        W82660  31.487   7.331   0.990
16120W        W82661  20.698   0.371  12.310
16121W        W82662  21.024  34.836   2.134
16122W        W82663  42.655  37.203   3.356
16123W        W82664   4.463  39.491  11.186
16124W        W82665  24.415  37.247   4.896
16125W        W82666  22.106  42.751  14.317
16126W        W82667   6.417  44.392   0.025
16127W        W82668  43.986  21.236   1.373
16128W        W82669  30.825  20.299   0.250
16129W        W82670  10.142  37.956  14.980
16130W        W82671  28.475  10.074  13.951
16131W        W82672   7.603  24.209   1.412
16132W        W82673  14.081  17.804  14.011
16133W        W82674  23.485  30.334   0.811
16134W        W82675  42.355  15.015   4.564
16135W        W82676  17.177  28.319  12.622
16136W        W82677  33.014  37.866   4.583
16137W        W82678  33.478  44.949   5.089
16138W        W82679   7.382  13.675  10.725
16139W        W82680  19.702  32.149  12.524
16140W        W82681   1.501   6.862  14.400
16141W        W82682  39.413  34.839   0.416
16142W        W82683  33.429  18.761  13.143
16143W        W82684  44.713  18.276   3.636
16144W        W82685  20.022   8.161  11.885
16145W        W82686  35.676   4.277   0.204
16146W        W82687  18.470  13.060  14.319
16147W        W82688  34.644  29.103   4.148
16148W        W82689  28.680  39.822  10.850
16149W        W82690  30.091  26.344   4.673
16150W        W82691  23.368  21.946  13.976
16151W        W82692   9.011  10.088   0.641
16152W        W82693  37.291  40.964  14.370
16153W        W82694  17.750  27.066  13.085
16154W        W82695  19.312  27.874   1.901
16155W        W82696  40.241  30.544  12.195
16156W        W82697   4.370  30.409   2.700
16157W        W82698  19.266   1.114  11.527
16158W        W82699  17.838  37.580   4.620
16159W        W82700  17.691  15.287   0.987
16160W        W82701  39.080  30.509   4.526
16161W        W82702  44.829  39.968   4.198
16162W        W82703  10.640  13.382   3.968
16163W        W82704   2.358  28.169  10.296
16164W        W82705   3.323  23.039   4.696
16165W        W82706   0.246  26.918  13.889
16166W        W82707  13.097  39.323   4.563
16167W        W82708   6.894  25.276  11.674
16168W        W82709   8.180  20.547  10.687
16169W        W82710  41.987   3.716  11.036
16170W        W82711  41.495  44.865  13.615
16171W        W82712  39.912   3.879   0.352
16172W        W82713  10.588  42.466  14.732
16173W        W82714  27.077  26.204  10.935
16174W        W82715   5.017  19.496  11.289
16175W        W82716  24.803   6.386  14.031
16176W        W82717  19.494   1.967   2.593
16177W        W82718  38.896  29.162   3.314
16178W        W82719   9.910   5.648   1.882
16179W        W82720  40.491  22.319  14.074
16180W        W82721  30.308  36.760   4.200
16181W        W82722  30.483  18.488   2.268
16182W        W82723  32.416  30.173   2.190
16183W        W82724  21.064   4.330   1.074
16184W        W82725  13.924   1.432  10.664
16185W        W82726  27.627  34.062  10.787
16186W        W82727  41.976  23.608  13.530
16187W        W82728  38.518  44.754   0.211
16188W        W82729   8.840  32.895  13.811
16189W        W82730  30.208  37.305   1.192
16190W        W82731  38.661  24.890   3.364
16191W        W82732  36.144  11.180   1.781
16192W        W82733  19.138  43.913   1.856
16193W        W82734  28.236  37.000  11.915
16194W        W82735  38.743  20.065  13.415
16195W        W82736  37.813  18.007  11.810
16196W        W82737   8.505  39.267  11.249
16197W        W82738  43.148  19.589   1.849
16198W        W82739   3.990   2.690  13.147
16199W        W82740  31.499  31.399  10.817
16200W        W82741   6.725   2.025  13.881
16201W        W82742  35.608  27.506  11.165
16202W        W82743   3.723   4.314   3.296
16203W        W82744  24.777   9.196  11.086
16204W        W82745  34.058   2.408   0.274
16205W        W82746  25.196  16.134   4.606
16206W        W82747  30.236   8.993   4.695
16207W        W82748  15.398  37.670   2.829
16208W        W82749  18.704  11.646   4.109
16209W        W82750   8.307  35.579   2.354
16210W        W82751   6.541   3.346   0.334
16211W        W82752  25.943  19.964   1.764
16212W        W82753  24.692  14.208   2.178
16213W        W82754   2.916  42.032  11.922
16214W        W82755   2.300  37.913   2.837
16215W        W82756  32.560  17.537   2.877
16216W        W82757  41.741  13.501   3.553
16217W        W82758   6.591  21.628  12.903
16218W        W82759  30.618   6.409   4.200
16219W        W82760  20.137   3.884   4.621
16220W        W82761  35.813  37.617  12.218
16221W        W82762  33.400  32.200  14.047
16222W        W82763  22.431   0.397   3.856
16223W        W82764  23.739  42.110   3.562
16224W        W82765  29.717  32.165   3.605
16225W        W82766  44.913  35.591  13.978
16226W        W82767   4.806  24.946  12.038
16227W        W82768  23.760  21.191  13.575
16228W        W82769  18.985  20.731   4.522
16229W        W82770  20.173  43.091  12.983
16230W        W82771  38.600  40.783   5.039
16231W        W82772  37.731  44.573   4.791
16232W        W82773  18.662  37.526  14.516
16233W        W82774  39.895  19.005  13.950
16234W        W82775  19.101  20.267  14.909
16235W        W82776  28.956  33.068   2.772
16236W        W82777  22.188   1.073  14.488
16237W        W82778  25.354  27.783  11.170
16238W        W82779  14.734   9.898  12.514
16239W        W82780  15.225  24.771  12.396
16240W        W82781  22.517   0.483   3.340
16241W        W82782  21.323  11.506  11.075
16242W        W82783  16.831  14.081   0.734
16243W        W82784  30.041  40.167  10.910
16244W        W82785  35.090  25.141   2.855
16245W        W82786   1.695  19.081   3.154
16246W        W82787  36.045  38.915  11.522
16247W        W82788  22.574  37.170   4.362
16248W        W82789  11.975  40.994  10.362
16249W        W82790  36.539   5.920  10.389
16250W        W82791   4.483   1.314   0.783
16251W        W82792  28.477  40.899   4.047
16252W        W82793  23.570  22.304   2.801
16253W        W82794  21.085  32.623  12.974
16254W        W82795  22.852  28.628   0.811
16255W        W82796  21.711  30.094  11.526
16256W        W82797  27.082  28.359   3.052
16257W        W82798  10.281  17.089   0.165
16258W        W82799  14.307  11.621   0.615
16259W        W82800   8.425  32.025   1.345
16260W        W82801  42.062  25.186   3.422
16261W        W82802  28.903  31.451  11.106
16262W        W82803  32.041  38.961   3.601
16263W        W82804  16.802   4.365  14.447
16264W        W82805  34.651  22.626   1.286
16265W        W82806   4.613  37.944   4.611
16266W        W82807  18.368  35.003   1.323
16267W        W82808   7.878  15.357   3.125
16268W        W82809  38.803  43.377   1.939
16269W        W82810  44.772  35.336  13.460
16270W        W82811  15.269  39.845   5.219
16271W        W82812  25.038  37.392   3.740
16272W        W82813  28.984  10.309  11.494
16273W        W82814  15.288  29.177   5.082
16274W        W82815  12.126  14.175  13.929
16275W        W82816  34.868  24.569  11.149
16276W        W82817  42.797  18.852  13.430
16277W        W82818  22.087  35.354  14.483
16278W        W82819  32.543   5.915   4.158
16279W        W82820  40.914  20.987  12.297
16280W        W82821  20.008  30.444  14.551
16281W        W82822   9.839  17.372   0.394
16282W        W82823  35.812  12.884   4.838
16283W        W82824   4.002  28.647   2.607
16284W        W82825  38.948  38.564  13.800
16285W        W82826  30.070  11.651  11.032
16286W        W82827   8.858  41.362   0.358
16287W        W82828  12.071  17.324  12.653
16288W        W82829  43.930  12.877  14.771
16289W        W82830  19.044  27.567  14.843
16290W        W82831  18.210   1.032  14.919
16291W        W82832  11.752   8.352   1.410
16292W        W82833   7.670   9.909  12.909
16293W        W82834  21.349   2.077  14.167
16294W        W82835  23.787  22.046  12.226
16295W        W82836  15.626  10.756   2.241
16296W        W82837  12.120  15.644  14.019
16297W        W82838   6.218  19.108  10.685
16298W        W82839  42.964  17.885   3.672
16299W        W82840  24.993  40.835  14.917
16300W        W82841  23.733  28.129  11.161
16301W        W82842   1.974  26.671  11.172
16302W        W82843  29.885  41.301   2.637
16303W        W82844  13.146  21.072   0.665
16304W        W82845  42.940  31.105  11.064
16305W        W82846  37.381  37.975   2.714
16306W        W82847  12.300  23.533  11.523
16307W        W82848  35.793  10.922   1.381
16308W        W82849  39.521  43.510   2.340
16309W        W82850  30.390  19.271  14.467
16310W        W82851  13.500  36.088   0.310
16311W        W82852  29.397  40.949   3.426
16312W        W82853  13.667  42.979  13.403
16313W        W82854  30.114  33.609   1.160
16314W        W82855  40.208   8.304   0.228
16315W        W82856  28.487  16.182   2.698
16316W        W82857  11.918  42.230  14.248
16317W        W82858  23.097   8.986  11.533
16318W        W82859   2.745  11.799   0.231
16319W        W82860  24.633  16.229  13.461
16320W        W82861  19.652  37.596   3.788
16321W        W82862  30.696  17.984   1.685
16322W        W82863  42.793  27.593   0.627
16323W        W82864  30.372  30.000   4.660
16324W        W82865  30.060  35.945   0.752
16325W        W82866  43.349  12.294  10.211
16326W        W82867  13.735  27.645   4.523
16327W        W82868   4.893  22.182  12.986
16328W        W82869  33.956  27.301   1.776
16329W        W82870  26.175   0.456   1.275
16330W        W82871   2.341  23.281   4.943
16331W        W82872  17.677   7.899  10.759
16332W        W82873  31.207  11.102   9.747
16333W        W82874  22.074   3.526  13.053
16334W        W82875  19.958   6.665  10.665
16335W        W82876  32.157   2.751  13.096
16336W        W82877   6.502   1.863   0.260
16337W        W82878   5.746  23.391   4.024
16338W        W82879   8.130  27.018  12.519
16339W        W82880   7.187  15.678   4.890
16340W        W82881  23.547  11.190  11.798
16341W        W82882  16.742  16.891   2.307
16342W        W82883   1.429  30.970   0.969
16343W        W82884  20.509  44.806   0.655
16344W        W82885  23.988  24.660   2.728
16345W        W82886  15.699  22.566   3.062
16346W        W82887  43.165  37.119  11.824
16347W        W82888  26.432  21.444   3.205
16348W        W82889  29.442  28.600   4.547
16349W        W82890  28.833  31.878  14.308
16350W        W82891  18.571  32.811   2.820
16351W        W82892  37.140  22.223  13.932
16352W        W82893  31.662  26.138   1.813
16353W        W82894  28.929  32.588   0.735
16354W        W82895  37.591  30.516   2.021
16355W        W82896  35.136   3.806  12.769
16356W        W82897  36.315  18.019   1.674
16357W        W82898  37.928   5.500  11.617
16358W        W82899  20.770  20.192  14.817
16359W        W82900  27.358  12.308  12.033
16360W        W82901  39.413  35.766  13.832
16361W        W82902  19.864  24.380   2.964
16362W        W82903  18.185  38.456  10.671
16363W        W82904   6.680  43.278   0.266
16364W        W82905  35.324  42.837   1.500
16365W        W82906  34.131   9.647  13.904
16366W        W82907  11.695  14.686   1.477
16367W        W82908  36.986  40.672  12.590
16368W        W82909  22.246  43.491   1.178
16369W        W82910  43.265  17.174  12.433
16370W        W82911  26.690  19.386   0.679
16371W        W82912  27.908   6.619  11.595
16372W        W82913  23.745  24.643   3.190
16373W        W82914  22.598   2.325  14.497
16374W        W82915  35.227   8.283   2.848
16375W        W82916  38.860  22.036   0.322
16376W        W82917  30.841  13.576   1.264
16377W        W82918  36.051  19.421   0.705
16378W        W82919  13.580  40.002   3.303
16379W        W82920  42.080  18.396   9.771
16380W        W82921  27.038  35.970   4.582
16381W        W82922   4.303   9.224   0.496
16382W        W82923  41.374  13.875   3.583
16383W        W82924  21.658  19.133   1.835
16384W        W82925  17.363   6.728  11.406
16385W        W82926   4.577  26.723   5.103
16386W        W82927  20.160  16.924   3.566
16387W        W82928  18.686  34.257  11.213
16388W        W82929  36.113  11.073   0.409
16389W        W82930  36.447   6.938   1.332
16390W        W82931  16.550   6.690   3.132
16391W        W82932  31.494  33.942   2.307
16392W        W82933  32.022  14.236   3.736
16393W        W82934  20.233  41.582   3.970
16394W        W82935  18.202  14.051  12.516
16395W        W82936  40.271  29.031   3.124
16396W        W82937  25.015   7.380  13.859
16397W        W82938  15.092  44.339  11.215
16398W        W82939  15.799  42.414  13.765
16399W        W82940  11.629   3.424  12.088
16400W        W82941  32.545   0.653   4.547
16401W        W82942  10.599  13.271  11.133
16402W        W82943   3.018  11.643   2.701
16403W        W82944  15.232  42.004  12.343
16404W        W82945  14.622  11.067   3.169
16405W        W82946   1.951  29.983   1.970
16406W        W82947  19.228  31.136  11.108
16407W        W82948   6.645  22.717   2.263
16408W        W82949  35.241  37.581  13.294
16409W        W82950  16.559   3.062  12.607
16410W        W82951  32.052  34.548  11.100
16411W        W82952  36.535  24.578   4.206
16412W        W82953   3.978  28.662   4.848
16413W        W82954  20.784  33.082  11.436
16414W        W82955  32.039  37.652  13.033
16415W        W82956   5.300  10.124  14.573
16416W        W82957  38.062  32.937   3.419
16417W        W82958   8.288  30.752   0.684
16418W        W82959  21.491  17.240   2.641
16419W        W82960  31.222   1.873  10.268
16420W        W82961  29.565  32.047   4.079
16421W        W82962  19.054   9.951  11.620
16422W        W82963  33.950  38.101  14.809
16423W        W82964   5.019   0.500   3.647
16424W        W82965  30.175  42.307  12.479
16425W        W82966  15.739  38.402   4.359
16426W        W82967  30.144  14.591  14.909
16427W        W82968   3.622  30.087  11.916
16428W        W82969   8.937  25.401   3.251
16429W        W82970  10.779  23.975   2.411
16430W        W82971  40.017  18.651  11.759
16431W        W82972  41.974   5.833  13.121
16432W        W82973  42.033  34.431  12.063
16433W        W82974  35.381  41.488  14.405
16434W        W82975  13.043  36.575   0.839
16435W        W82976  32.602  39.979  12.467
16436W        W82977   9.746  16.535   4.397
16437W        W82978   5.614  33.407   3.395
16438W        W82979  44.774  37.978  14.466
16439W        W82980  16.749  23.230  12.577
16440W        W82981  21.535  37.150   3.174
16441W        W82982  17.276  38.401  11.076
16442W        W82983  13.311  34.909   0.018
16443W        W82984  44.262  12.542  11.204
16444W        W82985  18.155  28.404  14.490
16445W        W82986   3.617  11.571  14.394
16446W        W82987  42.983   0.776   1.263
16447W        W82988  11.285  26.085   3.541
16448W        W82989  33.607  19.554  14.804
16449W        W82990  37.237   2.687   4.263
16450W        W82991  40.957  26.599  12.050
16451W        W82992  24.505   7.967   0.415
16452W        W82993  11.677  26.628   0.819
16453W        W82994  34.032  14.414  12.018
16454W        W82995  41.907  40.987   0.138
16455W        W82996  17.189  18.559   4.807
16456W        W82997  40.351   8.763  12.965
16457W        W82998  44.954  10.418   1.944
16458W        W82999  36.374  25.151   3.230
16459W        W83000  11.514  37.481   0.896
16460W        W83001   9.617  12.161   1.832
16461W        W83002  29.087  39.846  11.270
16462W        W83003  44.505  15.516   4.625
16463W        W83004  44.774  13.263  13.570
16464W        W83005  37.870  26.983   1.738
16465W        W83006  31.468  20.038   1.342
16466W        W83007  16.978  10.897  11.261
16467W        W83008   2.415  24.660  12.066
16468W        W83009  14.579  32.155  12.855
16469W        W83010  38.700  12.357   4.589
16470W        W83011  18.690  39.668  11.589
16471W        W83012  23.522   2.433   1.834
16472W        W83013  43.278  20.364  11.121
16473W        W83014  15.400  20.723   4.493
16474W        W83015  25.561  30.102   0.190
16475W        W83016   3.068  34.151  12.554
16476W        W83017   6.947  42.006  14.970
16477W        W83018  42.568  17.055  14.895
16478W        W83019  42.827   6.812  10.550
16479W        W83020  25.915  12.145   2.480
16480W        W83021   1.631  19.673  12.707
16481W        W83022  34.726  26.772   4.606
16482W        W83023  12.196  17.133   2.877
16483W        W83024  34.384  43.355  11.880
16484W        W83025  22.743  14.727  13.897
16485W        W83026  42.227   6.317  10.970
16486W        W83027  40.416  17.593  14.404
16487W        W83028  16.500  41.348   1.413
16488W        W83029  31.542  43.235  12.336
16489W        W83030  42.569  37.378   0.696
16490W        W83031  10.198  24.847   2.339
16491W        W83032  40.830  35.406  12.705
16492W        W83033  11.788  10.019  10.229
16493W        W83034   3.706   5.166   3.716
16494W        W83035  28.768  17.674   1.967
16495W        W83036  28.605  17.600  14.484
16496W        W83037   3.800  37.947   1.137
16497W        W83038  29.051  25.273  10.412
16498W        W83039  43.466  40.817  12.649
16499W        W83040  40.270  14.104  14.479
16500W        W83041  17.078  13.218   4.150
16501W        W83042  29.821  32.890  11.966
16502W        W83043  25.056   6.212   1.243
16503W        W83044   7.629  25.459   3.535
16504W        W83045   2.697  44.724   4.093
16505W        W83046  42.194  12.262   0.795
16506W        W83047  15.664  20.774   0.651
16507W        W83048  16.468  26.536   2.436
16508W        W83049  43.531  21.154   1.651
16509W        W83050  38.954  37.541  14.897
16510W        W83051   0.535  21.124  12.064
16511W        W83052   3.202   9.012  11.417
16512W        W83053  22.149  40.230  14.202
16513W        W83054  25.594   2.947   3.793
16514W        W83055  16.251  29.541  10.641
16515W        W83056  37.283  11.347  14.342
16516W        W83057  44.013  21.378  10.941
16517W        W83058  10.893  41.945  12.050
16518W        W83059  40.398  36.171   4.620
16519W        W83060  35.938  11.495   3.637
16520W        W83061  36.406  14.597   3.151
16521W        W83062  39.074  20.785   3.454
16522W        W83063  43.993   2.939  11.167
16523W        W83064  31.818  10.820  12.450
16524W        W83065   5.384   0.632  12.516
16525W        W83066   6.856   2.202  12.503
16526W        W83067  12.131  18.816   3.362
16527W        W83068  36.399  22.433   1.728
16528W        W83069  43.371  19.264   1.487
16529W        W83070  29.872   9.411  11.327
16530W        W83071  30.437  44.341  13.139
16531W        W83072  42.022  12.127   1.296
16532W        W83073  19.547  31.907  10.579
16533W        W83074   4.328  32.201  14.878
16534W        W83075  42.827   2.224   0.415
16535W        W83076  42.779  20.285   0.072
16536W        W83077  34.634  43.928   4.696
16537W        W83078  36.144  20.655   4.006
16538W        W83079  35.183  36.648  13.397
16539W        W83080  40.753  17.979   1.384
16540W        W83081   1.193  27.880   2.858
16541W        W83082  39.882   0.499  12.046
16542W        W83083   2.130  22.235   3.588
16543W        W83084  24.775   8.634  14.877
16544W        W83085  41.779  30.421  12.164
16545W        W83086  39.488   8.163  11.159
16546W        W83087   2.245  25.053   2.901
16547W        W83088  26.034  27.038   0.816
16548W        W83089  35.158  30.798   3.430
16549W        W83090  38.727  11.152   2.001
16550W        W83091  20.413   6.925  10.787
16551W        W83092   8.708  21.216  14.909
16552W        W83093  15.113  35.666  14.870
16553W        W83094   8.161  18.675  12.037
16554W        W83095   3.715   0.337   9.852
16555W        W83096  38.951  27.617   3.560
16556W        W83097  34.402  20.249   0.772
16557W        W83098  29.065   2.200   3.274
16558W        W83099  23.917  22.595  11.475
16559W        W83100  43.825  10.051   4.032
16560W        W83101  26.061  37.133   0.351
16561W        W83102  25.644  33.352  12.842
16562W        W83103   5.036  32.600   5.041
16563W        W83104  38.439   6.826   3.108
16564W        W83105  22.588  13.871   4.723
16565W        W83106  34.151   7.198   1.335
16566W        W83107  36.015  32.938   3.250
16567W        W83108   4.137   2.667   4.409
16568W        W83109  19.468  21.754   2.402
16569W        W83110   4.637   7.254   2.825
16570W        W83111  33.416  44.708   1.431
16571W        W83112  14.096   2.471   3.874
16572W        W83113  38.374  23.139  11.674
16573W        W83114  34.652  21.509   1.874
16574W        W83115  37.087  15.806  11.010
16575W        W83116  17.293   8.908  13.437
16576W        W83117  29.967  17.280  14.784
16577W        W83118   2.432  25.506   3.079
16578W        W83119  25.472  23.513   3.772
16579W        W83120  41.575  19.592  11.144
16580W        W83121  38.984  21.962  10.686
16581W        W83122   9.422  10.257   3.652
16582W        W83123  33.571  44.977  13.608
16583W        W83124  11.498  36.506   3.296
16584W        W83125  28.502  16.539  13.941
16585W        W83126  24.509   5.375   3.084
16586W        W83127  38.643  39.938  12.105
16587W        W83128   4.665  36.661   2.621
16588W        W83129  41.393  24.029  12.902
16589W        W83130  22.218   6.968   0.487
16590W        W83131  41.513   1.764   3.676
16591W        W83132  15.411  27.557  13.926
16592W        W83133  37.563  25.097   1.474
16593W        W83134  42.164  13.380   3.304
16594W        W83135  32.635  17.652   1.400
16595W        W83136  19.279  42.577   0.014
16596W        W83137   3.443  36.581   3.886
16597W        W83138  33.135  24.326   2.305
16598W        W83139  20.659  31.046  11.133
16599W        W83140  18.480   4.929  11.526
16600W        W83141  24.845   6.748  10.231
16601W        W83142  24.698  33.634   4.419
16602W        W83143   8.786  22.793  12.613
16603W        W83144  26.745  10.666   3.090
16604W        W83145  14.793  44.173  10.578
16605W        W83146  23.065  24.471  11.509
16606W        W83147   9.885  19.654   3.729
16607W        W83148  13.763   0.209   4.650
16608W        W83149  41.598   1.709  14.012
16609W        W83150  40.820  43.089   0.883
16610W        W83151   1.730  39.646   2.873
16611W        W83152  12.623   3.089  14.579
16612W        W83153  27.742  13.311   2.680
16613W        W83154  41.984  10.922  11.989
16614W        W83155   2.396   8.562  12.106
16615W        W83156  29.918  21.045  11.156
16616W        W83157   0.988  33.848  11.100
16617W        W83158   8.288  44.676   0.540
16618W        W83159   9.771   3.680  12.965
16619W        W83160  29.909  13.415   3.722
16620W        W83161   3.813   5.704   0.787
16621W        W83162  27.065   9.877  13.889
16622W        W83163  19.096  13.126   1.535
16623W        W83164  17.321  27.063  12.104
16624W        W83165  24.008  38.879   2.913
16625W        W83166  42.446  26.459   2.329
16626W        W83167  41.328  30.115  13.596
16627W        W83168  39.252  14.715  14.788
16628W        W83169  39.779  41.295  11.044
16629W        W83170  19.523  19.836  13.496
16630W        W83171  33.962  35.555   0.842
16631W        W83172  16.236  10.845   0.015
16632W        W83173   2.299  16.787  11.541
16633W        W83174   9.175  30.972  12.520
16634W        W83175  35.778  20.915   1.293
16635W        W83176  20.041   3.160  12.369
16636W        W83177  44.084  38.787   1.271
16637W        W83178  21.641   7.307  12.914
16638W        W83179  38.594  32.541  10.588
16639W        W83180   1.814  33.389   1.300
16640W        W83181  33.185  37.781  10.087
16641W        W83182  35.685   3.888   1.917
16642W        W83183  44.377  43.873  14.018
16643W        W83184  16.678  25.392  10.654
16644W        W83185   1.010  31.462  13.576
16645W        W83186  33.925  22.885   1.175
16646W        W83187  30.141   4.889   0.955
16647W        W83188  12.972  39.884   3.626
16648W        W83189   0.502  40.889   3.620
16649W        W83190  40.980  13.782  14.304
16650W        W83191  36.466  12.602  12.446
16651W        W83192  32.318  23.396   3.265
16652W        W83193  28.276  13.948   4.509
16653W        W83194   4.805  29.376   0.459
16654W        W83195   6.298   1.981   1.264
16655W        W83196  39.140  40.357   0.886
16656W        W83197  20.030  20.756  14.914
16657W        W83198  22.531  37.990   3.145
16658W        W83199  43.467  44.399  10.176
16659W        W83200   0.983  36.899  12.875
16660W        W83201  12.043  17.609   1.974
16661W        W83202   2.484   7.170  11.589
16662W        W83203   5.427   7.833  11.276
16663W        W83204  26.039   5.297  10.670
16664W        W83205  43.876  19.235  14.816
16665W        W83206  32.544  15.781  11.611
16666W        W83207  26.363  12.908  14.499
16667W        W83208  27.441   1.921   0.839
16668W        W83209  33.278   1.403  11.714
16669W        W83210  13.808   5.806  13.582
16670W        W83211  13.972  12.229  14.466
16671W        W83212  35.694  10.342  13.372
16672W        W83213  35.299   4.942  11.107
16673W        W83214   4.255  41.533  12.100
16674W        W83215   4.839  27.520   0.705
16675W        W83216  36.620  38.439  12.358
16676W        W83217  39.835  29.139   0.248
16677W        W83218  18.693  40.990   3.435
16678W        W83219  34.377  25.633  11.175
16679W        W83220  17.801  33.406  11.547
16680W        W83221  40.718   3.259   0.773
16681W        W83222  15.513  42.105  14.389
16682W        W83223  39.538  18.900   0.533
16683W        W83224  24.132  21.016   2.400
16684W        W83225   3.546  10.767   4.539
16685W        W83226  41.982  23.570  12.177
16686W        W83227  38.443  11.237   3.423
16687W        W83228  25.183  10.480   4.012
16688W        W83229  31.593  33.913   1.784
16689W        W83230   2.406   4.225   2.314
16690W        W83231   6.734  39.004   0.266
16691W        W83232   1.632  31.488   0.866
16692W        W83233  15.250  24.598  12.864
16693W        W83234  23.078  29.791   0.596
16694W        W83235  31.044   4.815   3.347
16695W        W83236  15.563  23.868  14.241
16696W        W83237  18.123  14.037  14.419
16697W        W83238  25.504   6.782   3.264
16698W        W83239  25.442  11.694   3.128
16699W        W83240  36.913  31.625  14.759
16700W        W83241  42.553  27.489   2.252
16701W        W83242  17.253  32.556  11.638
16702W        W83243  10.275  10.599   0.223
16703W        W83244  23.726  39.111   0.834
16704W        W83245  26.989  18.002   4.786
16705W        W83246   9.220  34.768   1.538
16706W        W83247  37.409   9.430   2.815
16707W        W83248  25.923   0.971  10.426
16708W        W83249  39.122  29.918  13.084
16709W        W83250   7.845  29.926   4.618
16710W        W83251  34.865  28.053   3.699
16711W        W83252  36.839   3.661  14.573
16712W        W83253  32.150  41.911  10.710
16713W        W83254  10.789  25.364   0.706
16714W        W83255  21.758   3.889   4.463
16715W        W83256   2.753  42.820   2.705
16716W        W83257  30.635  38.327   2.357
16717W        W83258  26.660  20.319   2.249
16718W        W83259  11.242  20.129  14.798
16719W        W83260  43.412  15.487  11.167
16720W        W83261   8.307  11.665  12.035
16721W        W83262  24.181  16.997  13.369
16722W        W83263  44.284  38.706  14.505
16723W        W83264  18.607  28.547  14.260
16724W        W83265   9.657  19.290  11.650
16725W        W83266   3.940  24.247   3.318
16726W        W83267  13.761  34.376  11.887
16727W        W83268  13.811  21.607   4.364
16728W        W83269  19.547  14.749  14.823
16729W        W83270  18.594  13.138   1.663
16730W        W83271  13.829   8.506  12.870
16731W        W83272  26.740  15.047  11.524
16732W        W83273  32.829  25.004   5.109
16733W        W83274  16.052  18.198  10.660
16734W        W83275  12.960   7.349  12.875
16735W        W83276  34.015   1.821  14.370
16736W        W83277  31.453  41.839  13.817
16737W        W83278  39.863  29.464  11.585
16738W        W83279   3.349  13.357   1.884
16739W        W83280  15.352  32.640   3.582
16740W        W83281  19.891   6.210  13.812
16741W        W83282  37.623   9.982  13.425
16742W        W83283   9.894   1.226   3.798
16743W        W83284  13.070  32.323  14.542
16744W        W83285  41.412  31.378  13.838
16745W        W83286  33.536   5.413   9.817
16746W        W83287  21.677  32.310  14.017
16747W        W83288  32.611  10.889  13.414
16748W        W83289  10.080   9.282  11.956
16749W        W83290  14.310  15.621  11.612
16750W        W83291  15.817  14.023   3.920
16751W        W83292   3.812  26.987   3.752
16752W        W83293  24.933  19.002  12.538
16753W        W83294  23.539  40.579   3.626
16754W        W83295   2.622  36.043  14.759
16755W        W83296   1.695  18.826  12.449
16756W        W83297  18.840  24.482  12.124
16757W        W83298  34.483  14.574   1.881
16758W        W83299  33.574  27.416  12.390
16759W        W83300  32.862  42.376  11.056
16760W        W83301   9.021  11.885   4.669
16761W        W83302  30.658   0.904   1.933
16762W        W83303  10.774  44.723  11.158
16763W        W83304  16.040   4.967   3.236
16764W        W83305  11.331  19.875  11.550
16765W        W83306   2.985  39.570   2.467
16766W        W83307  17.127  27.516  13.314
16767W        W83308  29.708  16.211   0.957
16768W        W83309  33.171  31.119  12.798
16769W        W83310  20.643  27.475  13.898
16770W        W83311  32.221  25.187   3.423
16771W        W83312  44.231  44.544  12.913
16772W        W83313  29.692  18.660  12.999
16773W        W83314   9.751  39.887   0.700
16774W        W83315   5.470  17.563  10.828
16775W        W83316  10.380   3.648   0.299
16776W        W83317   0.413  27.178  11.544
16777W        W83318  16.069  34.442   0.883
16778W        W83319   1.665  29.936  10.676
16779W        W83320  23.293  20.219   4.708
16780W        W83321  27.619  35.653   0.003
16781W        W83322   4.943   0.279   0.890
16782W        W83323   9.344  10.808  10.462
16783W        W83324   9.319   6.934  13.841
16784W        W83325   1.502  40.281  14.466
16785W        W83326  15.352  14.940  14.806
16786W        W83327  23.049   6.190   0.732
16787W        W83328  41.807  33.395   3.653
16788W        W83329   9.401   5.724   3.745
16789W        W83330  40.551  31.091  12.945
16790W        W83331  32.728  19.183   0.846
16791W        W83332  15.695  26.604  11.315
16792W        W83333  34.185  10.820   2.225
16793W        W83334  23.134   2.418  14.607
16794W        W83335  23.927  29.640  10.505
16795W        W83336  12.826  35.823   0.914
16796W        W83337  37.083   4.010  14.837
16797W        W83338  31.191  22.813   0.433
16798W        W83339  15.578  42.513   1.404
16799W        W83340  11.909   8.348   4.183
16800W        W83341  38.539  22.962   3.313
16801W        W83342  31.514  23.038   2.751
16802W        W83343  30.719  34.873   0.183
16803W        W83344  16.051  14.143  14.819
16804W        W83345  16.358  17.977   0.792
16805W        W83346  39.397  33.905   0.446
16806W        W83347  11.072  34.884   2.737
16807W        W83348   1.174  20.213   4.098
16808W        W83349  15.913  20.023   2.126
16809W        W83350   9.409  38.418   1.370
16810W        W83351  24.047  35.853  13.606
16811W        W83352  23.711  19.146  14.844
16812W        W83353  25.825   2.046   3.286
16813W        W83354  40.847   0.727  11.178
16814W        W83355   4.776  33.881   4.455
16815W        W83356  21.987   4.778   0.858
16816W        W83357   6.911  32.275  12.451
16817W        W83358  18.177  18.725  13.452
16818W        W83359  43.801  40.179   4.676
16819W        W83360  32.790  37.974  11.247
16820W        W83361  43.729   6.607   3.890
16821W        W83362   8.289  27.292   1.612
16822W        W83363  26.520  15.560   3.674
16823W        W83364   0.214  39.500   1.797
16824W        W83365  30.511   7.247  13.755
16825W        W83366  42.562  14.825   0.353
16826W        W83367   6.308   4.329   1.287
16827W        W83368  10.200  11.572   4.294
16828W        W83369  22.509  43.530   0.718
16829W        W83370  14.033  22.582  11.678
16830W        W83371  23.175  26.045  13.851
16831W        W83372  17.716  31.478  12.791
16832W        W83373  14.176  21.847   4.010
16833W        W83374  31.420  26.303  13.392
16834W        W83375  44.048  34.537   3.262
16835W        W83376  36.088  16.879  12.445
16836W        W83377  40.555  19.505   3.694
16837W        W83378  11.663  10.727   4.330
16838W        W83379  16.830   4.170  11.239
16839W        W83380  10.284  38.477  12.067
16840W        W83381  40.446  35.084   2.877
16841W        W83382   1.072  34.206  14.055
16842W        W83383  35.541   6.497  12.502
16843W        W83384  20.094   2.407  12.985
16844W        W83385   9.022   6.244  12.123
16845W        W83386  26.647   0.448   0.048
16846W        W83387   5.977   1.917  14.399
16847W        W83388  32.140  15.807  14.539
16848W        W83389  19.731   9.213   1.394
16849W        W83390  41.735  39.438  10.639
16850W        W83391  21.075  15.553   0.679
16851W        W83392  12.167  39.288   1.658
16852W        W83393   0.863  10.469   4.536
16853W        W83394   2.264  27.026  10.823
16854W        W83395  37.064  38.280  10.778
16855W        W83396   4.592  24.054   4.963
16856W        W83397  33.159  32.893   3.382
16857W        W83398  22.694  33.374   2.809
16858W        W83399  27.267  41.277  14.479
16859W        W83400   6.891  12.263   1.356
16860W        W83401  37.936  19.775   2.149
16861W        W83402   3.418  18.013   1.462
16862W        W83403   3.386  29.051   1.527
16863W        W83404  38.969  15.169  13.508
16864W        W83405  24.625  37.414  14.937
16865W        W83406  35.118  44.394   3.099
16866W        W83407  13.252  30.676  10.337
16867W        W83408  34.362  30.496  14.908
16868W        W83409  43.248  27.080  14.013
16869W        W83410   0.022  28.056  13.331
16870W        W83411  39.494  38.246   1.475
16871W        W83412  43.282   2.290   3.249
16872W        W83413  27.974   2.378   1.417
16873W        W83414  27.233  23.476   0.735
16874W        W83415  30.080  32.631  14.971
16875W        W83416  11.039  24.118  11.516
16876W        W83417  10.114   9.801  12.077
16877W        W83418  21.711  14.007   0.507
16878W        W83419  29.443  30.235   4.165
16879W        W83420  20.554  18.779   1.843
16880W        W83421  29.500  32.544  10.598
16881W        W83422  31.673  42.047  11.021
16882W        W83423   0.967   0.831  14.735
16883W        W83424  35.000  33.111  14.406
16884W        W83425   4.913  25.006   0.793
16885W        W83426  23.746  35.446  13.791
16886W        W83427  39.770  44.411  10.793
16887W        W83428  22.049   6.864   1.502
16888W        W83429  36.057  44.722  11.111
16889W        W83430  14.716  38.097  13.523
16890W        W83431   2.913  30.883  12.923
16891W        W83432  36.059   8.905   0.746
16892W        W83433   5.847  11.885   2.578
16893W        W83434  28.006   6.311   1.850
16894W        W83435  18.203  20.163  10.841
16895W        W83436  16.393  11.720   0.392
16896W        W83437   6.166  19.563  12.032
16897W        W83438  32.660  36.002   0.703
16898W        W83439  17.574  21.360  11.804
16899W        W83440  21.234  13.843   3.626
16900W        W83441   4.818   9.492  10.642
16901W        W83442  39.031   6.166  13.546
16902W        W83443   7.449  21.205   1.295
16903W        W83444  41.568  39.375  11.124
16904W        W83445  38.323  13.821  11.467
16905W        W83446   3.912  31.124  14.084
16906W        W83447  18.383   2.891   2.717
16907W        W83448   5.258  26.201  11.848
16908W        W83449   0.942  18.012   1.398
16909W        W83450  16.111  24.788   0.375
16910W        W83451  39.535  16.143  12.059
16911W        W83452  20.809   9.796   1.416
16912W        W83453   0.660  33.133   4.747
16913W        W83454   8.120  38.423  13.544
16914W        W83455  31.210  31.960   2.401
16915W        W83456  27.664  21.216  11.883
16916W        W83457  11.283  33.290  12.981
16917W        W83458  18.669  35.078  13.479
16918W        W83459  15.015  28.614  13.824
16919W        W83460  14.101   8.911   4.110
16920W        W83461   2.869  23.502   1.746
16921W        W83462   8.176  37.247   0.357
16922W        W83463  10.291   8.555  10.702
16923W        W83464   5.848  34.851   0.901
16924W        W83465   8.557  27.498   0.803
16925W        W83466  24.945  36.314   1.987
16926W        W83467   9.628  41.072   3.186
16927W        W83468   0.266  36.188  11.702
16928W        W83469  42.335  17.714   1.858
16929W        W83470   2.009  44.932   0.135
16930W        W83471   1.298  41.776   1.184
16931W        W83472  35.036  38.781  14.893
16932W        W83473  30.682   4.143   1.525
16933W        W83474  11.234  19.152  14.275
16934W        W83475   5.666   8.830   2.988
16935W        W83476   5.417  10.851  12.057
16936W        W83477  24.987  31.672   3.768
16937W        W83478  27.167  17.046   0.224
16938W        W83479   2.021   5.840   3.335
16939W        W83480  10.730  35.167   3.050
16940W        W83481  29.515  35.090   1.839
16941W        W83482  33.488  22.602  13.418
16942W        W83483  29.581  22.385   1.871
16943W        W83484  34.521  25.647  14.375
16944W        W83485  35.510  30.432   4.415
16945W        W83486  14.584  42.348  11.057
16946W        W83487   8.788   9.181  14.013
16947W        W83488  42.516  34.010  10.846
16948W        W83489  24.468   1.489  11.573
16949W        W83490  36.154  32.134  14.336
16950W        W83491   7.701  34.843  13.802
16951W        W83492   3.182  38.726  14.176
16952W        W83493  24.085  14.233  14.510
16953W        W83494  38.104   3.920   0.780
16954W        W83495  17.157  25.185  11.194
16955W        W83496   0.541  39.267   0.861
16956W        W83497   1.928  18.581  13.943
16957W        W83498  30.504   8.635  12.994
16958W        W83499   2.413  18.235   2.369
16959W        W83500  20.217   6.416  14.805
16960W        W83501  23.957  25.158   3.963
16961W        W83502  33.445  42.740  14.835
16962W        W83503  44.847   1.728   1.349
16963W        W83504  18.462  34.106   2.976
16964W        W83505  42.793  28.444  12.140
16965W        W83506   3.194   5.786  12.662
16966W        W83507   9.386  35.619  14.984
16967W        W83508  28.626  44.714   3.736
16968W        W83509   3.888  31.064   0.423
16969W        W83510   0.392  11.648   2.719
16970W        W83511  40.267  28.123   0.986
16971W        W83512  36.576  36.639   4.209
16972W        W83513  44.855  42.403   4.776
16973W        W83514  22.232  39.854   4.057
16974W        W83515  36.147   6.771  10.556
16975W        W83516  28.587  15.271   1.919
16976W        W83517  23.487  26.160  13.439
16977W        W83518  18.670  30.028  10.708
16978W        W83519   5.382  29.345  11.204
16979W        W83520  38.570  28.982  13.865
16980W        W83521   7.685  33.351  13.433
16981W        W83522  35.839   0.103   0.732
16982W        W83523  12.606   3.859   4.596
16983W        W83524  43.510  30.204  14.363
16984W        W83525  26.799   6.008   3.245
16985W        W83526  29.591  14.041  12.009
16986W        W83527  36.424  39.455   2.330
16987W        W83528   7.307   3.216   4.643
16988W        W83529   1.798  18.319   1.779
16989W        W83530  19.646   2.261   2.171
16990W        W83531  19.268   8.662  13.394
16991W        W83532  41.255  39.616  13.425
16992W        W83533  34.291  21.241  12.644
16993W        W83534  42.079  37.014   2.726
16994W        W83535  21.756  21.765   3.450
16995W        W83536   4.332  21.601   3.327
16996W        W83537  24.011  19.557  10.703
16997W        W83538  19.165  29.191  12.658
16998W        W83539  12.312  29.085  14.492
16999W        W83540  31.169  26.418   0.434
17000W        W83541  43.885  44.499  11.593
17001W        W83542  33.352   7.926   1.780
17002W        W83543   8.755  11.832  11.100
17003W        W83544  23.213  28.527   0.423
17004W        W83545  33.908  40.072   4.479
17005W        W83546  43.375  13.222  10.278
17006W        W83547  37.811   0.454  14.096
17007W        W83548  32.933   1.276   0.863
17008W        W83549  20.265  39.414   1.679
17009W        W83550  10.748  19.577   0.412
17010W        W83551  36.160  40.075  14.322
17011W        W83552  39.413  44.449   4.732
17012W        W83553   8.775   2.406  11.495
17013W        W83554  18.069   0.014  11.152
17014W        W83555  22.795  43.878   2.725
17015W        W83556  38.050  10.747   4.278
17016W        W83557  17.690  43.850   3.979
17017W        W83558  42.574  35.433  14.171
17018W        W83559  17.216   5.489  11.882
17019W        W83560  18.782   5.654  10.953
17020W        W83561  20.671  35.638  11.868
17021W        W83562  41.529  37.382   0.313
17022W        W83563   0.521  33.473   2.623
17023W        W83564  16.097  15.838   3.594
17024W        W83565   4.250  21.772  10.707
17025W        W83566  11.240   3.445   3.671
17026W        W83567   4.903  17.853  14.471
17027W        W83568  40.518  10.470  13.724
17028W        W83569  24.444  15.771  10.483
17029W        W83570  42.520  44.418  12.463
17030W        W83571  28.951  33.927  10.767
17031W        W83572  39.227  36.572   2.732
17032W        W83573   9.666  23.175   3.766
17033W        W83574  42.499  33.309  13.090
17034W        W83575  37.583  42.358   4.654
17035W        W83576  19.818  31.509   4.852
17036W        W83577   9.916  20.098   4.698
17037W        W83578  13.916  35.138   3.171
17038W        W83579  18.306   9.393  11.354
17039W        W83580  37.463  29.492   0.734
17040W        W83581   9.445  33.533   4.720
17041W        W83582   9.572  13.732   2.372
17042W        W83583  14.221  25.261  11.606
17043W        W83584  18.096  34.331   0.739
17044W        W83585  28.316  13.026   2.870
17045W        W83586   3.549   9.308  10.511
17046W        W83587  13.072   0.301  14.217
17047W        W83588  17.481  39.328   2.757
17048W        W83589  27.479  24.906   1.686
17049W        W83590  10.201  19.631   1.081
17050W        W83591  20.298   5.045  14.771
17051W        W83592  31.238  39.395  12.471
17052W        W83593  21.972  15.407   0.345
17053W        W83594   5.702  11.048   0.957
17054W        W83595   2.492  28.028  13.978
17055W        W83596  41.324  26.411  10.849
17056W        W83597  30.899  44.985  12.012
17057W        W83598  44.634  42.424   0.984
17058W        W83599   0.167  18.068  11.997
17059W        W83600  31.720   8.164   1.472
17060W        W83601  11.841  26.667   1.307
17061W        W83602  30.836  13.633   2.726
17062W        W83603   9.893   7.705  11.678
17063W        W83604   3.680  44.926   5.295
17064W        W83605   0.650  41.392   2.837
17065W        W83606  10.364  22.655   2.178
17066W        W83607  31.950  16.331  10.633
17067W        W83608   5.226  18.527   1.274
17068W        W83609   5.447  21.729  11.238
17069W        W83610  19.840   4.635   1.635
17070W        W83611  39.567   7.780  12.115
17071W        W83612  38.980  15.277  11.595
17072W        W83613  33.636  31.958   1.582
17073W        W83614  26.723  22.681   4.734
17074W        W83615  19.138  15.116   1.811
17075W        W83616  32.070  36.083   3.789
17076W        W83617  23.508  37.148   4.370
17077W        W83618  42.632  15.166  11.698
17078W        W83619  43.891   9.082   2.318
17079W        W83620  28.613   6.256   2.742
17080W        W83621  23.470   5.456  12.128
17081W        W83622  18.536  26.169   1.805
17082W        W83623  20.083   3.321   1.487
17083W        W83624   4.992   5.498   3.101
17084W        W83625  38.384  37.637   3.213
17085W        W83626  39.436   7.061   4.120
17086W        W83627  22.490  32.246  14.379
17087W        W83628  31.687  42.940   4.463
17088W        W83629  20.104  37.367  12.002
17089W        W83630  39.527  44.062  12.137
17090W        W83631  16.305  23.146  12.291
17091W        W83632  44.593  13.463   3.954
17092W        W83633  44.930  37.350   0.391
17093W        W83634  41.255  30.080   1.791
17094W        W83635  40.912  36.188  13.358
17095W        W83636  43.664  16.253   1.920
17096W        W83637  34.659  15.714   0.509
17097W        W83638  29.864  22.079   3.196
17098W        W83639  35.154  32.441  12.904
17099W        W83640  36.116  12.964   0.277
17100W        W83641  44.767   3.502   2.714
17101W        W83642   1.739   5.396  12.032
17102W        W83643   4.634  23.924  10.311
17103W        W83644  15.679  13.592   3.657
17104W        W83645  42.607  20.537   2.756
17105W        W83646  13.714  38.127   3.306
17106W        W83647  38.465   6.631  10.756
17107W        W83648  42.742  25.745   1.667
17108W        W83649   7.272  24.042  12.916
17109W        W83650   8.078  40.826  14.746
17110W        W83651   3.294  18.789   1.578
17111W        W83652  30.579  23.048  11.323
17112W        W83653  23.196  19.476   1.459
17113W        W83654  36.900  37.630  13.346
17114W        W83655   1.730  25.524  10.199
17115W        W83656  40.434  11.033   0.797
17116W        W83657   8.850   3.155   1.796
17117W        W83658  16.071  18.653   1.542
17118W        W83659   2.760  33.300   3.254
17119W        W83660  28.159  44.530   3.937
17120W        W83661  33.174  39.467   2.231
17121W        W83662  36.899  43.773   1.036
17122W        W83663  38.194  16.340   4.299
17123W        W83664  10.246  35.145   0.360
17124W        W83665  22.722  17.528  13.501
17125W        W83666  12.785  12.865   1.254
17126W        W83667  14.559   5.281  10.555
17127W        W83668  36.522  27.859   0.440
17128W        W83669   4.403   0.312  12.176
17129W        W83670   6.345  14.130   0.878
17130W        W83671  31.866  11.227   4.140
17131W        W83672  18.171  25.674   1.843
17132W        W83673  44.608  33.005  12.498
17133W        W83674  36.423  43.730   3.676
17134W        W83675  29.962  14.682   0.414
17135W        W83676  18.968  41.482  13.060
17136W        W83677  12.702   2.860   4.511
17137W        W83678   2.191  43.270   4.384
17138W        W83679  12.920  23.500   4.790
17139W        W83680  12.153  20.722   4.537
17140W        W83681  10.587  30.406  13.372
17141W        W83682   1.822  29.223  13.935
17142W        W83683  35.148  38.813  11.085
17143W        W83684   7.328  12.563   2.079
17144W        W83685   7.577  13.435   2.265
17145W        W83686  20.585  42.501  10.988
17146W        W83687  21.004  44.365   2.708
17147W        W83688  31.594   5.322   2.747
17148W        W83689  42.847  20.752   1.516
17149W        W83690  10.703  26.279  14.941
17150W        W83691   0.129  30.110  14.296
17151W        W83692  35.551   2.428   2.377
17152W        W83693   6.334  44.088  14.253
17153W        W83694   4.947  10.300   2.298
17154W        W83695  27.253   4.391  13.287
17155W        W83696  10.042  23.023   2.381
17156W        W83697   9.571  33.861  14.999
17157W        W83698  41.237  40.226   1.810
17158W        W83699  25.180   6.990   1.682
17159W        W83700  39.223  26.129  14.324
17160W        W83701  43.223  32.570  12.406
17161W        W83702  25.951  32.065  11.988
17162W        W83703   5.897   1.005   3.560
17163W        W83704  41.430  43.791   0.577
17164W        W83705  30.850   8.753  10.288
17165W        W83706  33.103  11.908   0.993
17166W        W83707   4.306   5.864  14.062
17167W        W83708   9.805   3.720   0.873
17168W        W83709  44.250  27.601  14.254
17169W        W83710  12.213  27.008  13.451
17170W        W83711  23.993   4.604   1.357
17171W        W83712   6.326  20.341  14.749
17172W        W83713  12.336  11.677  14.736
17173W        W83714  15.168  11.964  10.493
17174W        W83715  15.282  36.054   4.033
17175W        W83716  27.027   2.014  11.149
17176W        W83717  39.128   3.907  14.140
17177W        W83718  31.468   0.311  14.503
17178W        W83719  39.595   7.679  11.263
17179W        W83720  27.493  35.517   4.733
17180W        W83721  32.057  14.166  11.289
17181W        W83722  13.297  25.499  11.073
17182W        W83723  37.617   2.341   4.500
17183W        W83724  30.018  24.431  14.005
17184W        W83725  10.726  34.930   4.054
17185W        W83726  19.228  10.852  11.619
17186W        W83727   1.024  36.127   1.871
17187W        W83728  10.190  39.770  12.186
17188W        W83729  40.241  23.549  13.863
17189W        W83730  38.477  26.432   3.759
17190W        W83731  37.600  23.912  14.033
17191W        W83732  33.047  42.770  14.424
17192W        W83733  23.333  39.955   4.614
17193W        W83734  10.303  27.629   1.615
17194W        W83735   2.216  28.888  13.922
17195W        W83736  22.112  19.199   2.866
17196W        W83737  16.615  26.259   1.628
17197W        W83738  14.603  43.211   2.809
17198W        W83739  12.391  35.825   1.209
17199W        W83740  41.099  20.563   1.448
17200W        W83741  18.353  10.211  12.468
17201W        W83742  36.396   8.300  14.196
17202W        W83743  31.918  24.511  14.895
17203W        W83744  21.971  31.349   2.158
17204W        W83745  32.854  18.161   4.393
17205W        W83746  19.728  24.208   3.938
17206W        W83747  29.400   4.422   1.365
17207W        W83748  35.993  29.529  10.783
17208W        W83749  28.640  26.136  13.351
17209W        W83750  32.979  31.078   0.402
17210W        W83751  12.806  14.841  11.425
17211W        W83752  36.083  31.046   2.668
17212W        W83753  35.346  20.309  13.602
17213W        W83754  15.294   6.840  12.503
17214W        W83755   0.786  36.960  14.311
17215W        W83756   8.396  17.709  12.903
17216W        W83757   5.823  21.854   3.661
17217W        W83758   6.913  23.402  13.074
17218W        W83759  27.247  17.533  13.440
17219W        W83760  21.225   9.700   0.694
17220W        W83761  28.671  33.766   1.316
17221W        W83762  39.482  36.415  10.931
17222W        W83763  43.987  19.951  13.573
17223W        W83764  23.281  26.197   3.683
17224W        W83765  42.626  21.988  13.460
17225W        W83766   4.356   2.199  11.753
17226W        W83767  17.408   5.226   9.862
17227W        W83768  39.657   6.220  11.450
17228W        W83769  33.392  16.877   0.545
17229W        W83770  39.034  44.730  13.342
17230W        W83771  10.891  16.643   4.510
17231W        W83772  43.424  40.792   3.633
17232W        W83773   0.535  40.331   3.132
17233W        W83774  27.715   6.786   2.730
17234W        W83775   1.544  28.928  10.878
17235W        W83776  32.912   1.918   1.234
17236W        W83777  39.955   1.715  14.478
17237W        W83778  12.254  18.766  11.469
17238W        W83779  17.132  10.421  11.507
17239W        W83780  14.362  34.483   1.384
17240W        W83781   6.938  14.170  12.318
17241W        W83782   1.388  15.544   3.693
17242W        W83783  18.176  11.280  14.180
17243W        W83784  14.140  37.848  10.914
17244W        W83785  42.278  32.587   0.814
17245W        W83786  37.457   5.719   0.836
17246W        W83787  17.607  43.072  11.097
17247W        W83788  11.374  44.262   0.848
17248W        W83789  22.071  24.270   1.294
17249W        W83790   1.472   7.563  13.749
17250W        W83791  22.587  44.845   1.839
17251W        W83792   3.945  37.325   3.727
17252W        W83793  32.669  36.798   1.720
17253W        W83794   6.715  36.153   4.604
17254W        W83795  26.070  24.094  14.191
17255W        W83796   1.688  32.640  12.343
17256W        W83797  19.845  38.385  12.011
17257W        W83798  35.184  33.195  12.642
17258W        W83799  39.932   5.713  13.118
17259W        W83800  25.969  31.377  12.391
17260W        W83801  31.144  10.710  11.499
17261W        W83802  22.737  37.241  12.583
17262W        W83803  24.530  37.465   4.427
17263W        W83804  22.389   2.282   0.008
17264W        W83805   1.212  38.434  12.970
17265W        W83806   2.781  32.251  14.872
17266W        W83807  32.804   0.951   0.228
17267W        W83808  28.422  32.432  12.511
17268W        W83809  43.424  34.707  12.049
17269W        W83810  24.039  30.591  14.417
17270W        W83811   3.971  20.724   2.616
17271W        W83812  40.259  39.526   3.245
17272W        W83813  14.277  24.284  10.685
17273W        W83814  11.586  21.087   0.360
17274W        W83815  17.683  27.922  10.694
17275W        W83816   0.910  11.731   1.190
17276W        W83817  22.627   7.226  14.451
17277W        W83818   8.262  30.733  14.778
17278W        W83819  36.085  13.966  12.523
17279W        W83820  25.087  18.620   2.349
17280W        W83821  13.301  12.838   0.980
17281W        W83822  34.595  27.465  11.181
17282W        W83823  16.178  12.349  11.343
17283W        W83824   4.567  28.500   5.226
17284W        W83825  33.431  36.438   0.726
17285W        W83826  16.044  21.836   1.823
17286W        W83827  22.165  12.315   9.754
17287W        W83828   9.481  27.413  13.470
17288W        W83829  16.186  34.875   0.614
17289W        W83830  23.702  12.090   2.819
17290W        W83831  32.816  15.213   2.281
17291W        W83832  14.324  16.272   0.496
17292W        W83833   2.741   8.814   2.014
17293W        W83834  21.669  41.357  14.373
17294W        W83835  37.397  21.928  14.267
17295W        W83836  38.445  23.509  14.539
17296W        W83837  43.246  17.163  13.463
17297W        W83838   1.885  32.532  13.784
17298W        W83839  33.040   1.614  12.115
17299W        W83840  35.166  13.101   2.740
17300W        W83841  21.836  31.117  13.440
17301W        W83842  35.860   4.399   4.086
17302W        W83843   1.643  29.518  12.970
17303W        W83844  24.834  27.099  14.995
17304W        W83845  38.400  43.512  13.330
17305W        W83846   0.466  18.254  13.475
17306W        W83847  37.924  42.341  13.272
17307W        W83848   7.740  32.130   2.647
17308W        W83849  13.918  18.157  12.491
17309W        W83850  43.002  27.931   1.811
17310W        W83851   4.389  23.035  11.346
17311W        W83852   6.982  24.440   4.134
17312W        W83853  38.976   0.387  11.638
17313W        W83854  12.325  15.782   4.821
17314W        W83855   9.641  44.809  12.370
17315W        W83856  14.549  21.422   1.383
17316W        W83857  30.970  29.755  14.375
17317W        W83858   3.367  42.072  14.902
17318W        W83859  22.801  24.056  12.046
17319W        W83860  38.243  15.316  14.505
17320W        W83861   4.953  26.594   0.385
17321W        W83862  17.161   0.295  12.921
17322W        W83863   0.454  11.852   0.975
17323W        W83864  11.762  32.655  14.851
17324W        W83865  19.001   4.325   3.428
17325W        W83866  35.093  13.453   4.536
17326W        W83867  34.458  44.951  14.402
17327W        W83868  24.015  13.186   4.754
17328W        W83869  37.570  15.634  12.814
17329W        W83870  39.587  16.468  13.358
17330W        W83871  17.496  39.523  13.068
17331W        W83872  29.631  24.516  11.688
17332W        W83873  13.761  15.329   0.266
17333W        W83874  43.770  16.890   2.704
17334W        W83875  31.573  40.132  12.384
17335W        W83876   3.421  25.228   0.630
17336W        W83877  23.688  26.461   1.600
17337W        W83878  29.067  37.999   0.643
17338W        W83879   8.627  17.277  12.721
17339W        W83880  42.623  40.865   4.723
17340W        W83881  12.069  25.136   4.890
17341W        W83882  31.211   9.204   2.016
17342W        W83883  41.258  36.232   0.928
17343W        W83884   2.340   6.795   3.405
17344W        W83885  13.103   2.790  12.676
17345W        W83886  29.671   2.655   3.825
17346W        W83887  26.833  42.874  11.591
17347W        W83888   1.760  35.332   0.926
17348W        W83889   8.853  13.217  11.637
17349W        W83890  32.531  33.952  13.051
17350W        W83891  22.300  19.857  11.547
17351W        W83892  42.076   8.083  11.521
17352W        W83893  16.708   8.733   3.579
17353W        W83894  22.069  41.470  13.009
17354W        W83895  25.940  35.371  10.574
17355W        W83896   9.430  42.467   0.206
17356W        W83897   1.728  32.051   0.846
17357W        W83898  15.850  17.738   3.475
17358W        W83899   5.933  22.824   3.336
17359W        W83900  24.003  38.450   1.299
17360W        W83901  33.007  39.922   2.381
17361W        W83902   2.296  29.072  12.107
17362W        W83903  27.320  18.663   0.757
17363W        W83904  11.763  16.584  12.000
17364W        W83905  11.443  27.597   1.732
17365W        W83906  37.088  36.920   4.243
17366W        W83907   8.275  29.578  11.369
17367W        W83908  23.429  32.681   3.779
17368W        W83909  34.779  37.506  10.844
17369W        W83910  21.819  24.098  11.130
17370W        W83911  32.574  14.294   3.792
17371W        W83912  39.904  36.963  10.517
17372W        W83913  12.664  17.468  14.327
17373W        W83914  42.511  36.075  12.374
17374W        W83915  29.608  36.801   2.240
17375W        W83916  44.297  39.898   4.647
17376W        W83917  25.301  28.982  11.687
17377W        W83918  43.849   5.122  10.681
17378W        W83919  38.508  42.398  13.316
17379W        W83920   9.091   1.389  11.567
17380W        W83921   8.592  34.703   3.392
17381W        W83922  27.985   1.433  13.619
17382W        W83923   7.253   6.161   0.300
17383W        W83924  16.491  14.784   1.734
17384W        W83925  39.353   9.900   1.524
17385W        W83926  15.248   8.381   2.798
17386W        W83927  26.439  10.464   3.513
17387W        W83928  11.683   0.662   1.371
17388W        W83929  11.331   0.936   1.034
17389W        W83930  23.937  23.967   1.286
17390W        W83931   8.205  13.111   0.392
17391W        W83932  34.923  20.754   1.462
17392W        W83933  21.981  12.854  11.647
17393W        W83934   6.183  44.182   2.021
17394W        W83935  28.261   4.719   3.436
17395W        W83936  33.635  28.317   0.228
17396W        W83937  12.189  26.544  13.718
17397W        W83938  12.864  32.299  12.905
17398W        W83939  40.866  21.212   4.643
17399W        W83940  40.365  23.731  14.821
17400W        W83941  38.833  42.232   2.164
17401W        W83942   6.210  29.297   0.417
17402W        W83943  31.518  39.581   3.212
17403W        W83944  10.423   5.098   4.989
17404W        W83945  39.307  23.021   1.264
17405W        W83946  17.396   2.405  10.993
17406W        W83947  31.073  39.897   3.330
17407W        W83948  33.530  41.263   1.721
17408W        W83949  33.923  30.422   2.840
17409W        W83950  29.833   7.485  10.748
17410W        W83951  18.375  42.550  12.457
17411W        W83952   3.877  18.175  14.414
17412W        W83953  43.085  17.344   1.835
17413W        W83954  34.828  23.110   1.446
17414W        W83955   6.949   8.034  13.793
17415W        W83956   4.651  33.499   3.648
17416W        W83957  15.671   2.001   4.551
17417W        W83958  41.604  27.146   0.400
17418W        W83959  22.092   7.386  14.557
17419W        W83960  27.228  43.834  10.718
17420W        W83961  30.945   9.948   0.856
17421W        W83962  21.991   3.557   2.807
17422W        W83963  33.429  22.588   0.359
17423W        W83964   4.925  19.939  13.392
17424W        W83965  21.842   0.767   3.241
17425W        W83966  31.473   8.227   4.920
17426W        W83967  19.657   7.172   1.837
17427W        W83968  31.545  37.451   2.153
17428W        W83969  17.728  38.308  14.304
17429W        W83970   9.886  33.639  14.287
17430W        W83971   7.605  32.156   1.822
17431W        W83972   1.760  23.620   1.164
17432W        W83973   6.630  40.934   2.280
17433W        W83974  19.639  12.658   2.406
17434W        W83975  10.699  15.683  13.823
17435W        W83976  14.188  30.453  14.077
17436W        W83977  42.007  25.100   1.501
17437W        W83978   1.363   9.169   1.828
17438W        W83979  35.982  24.198   4.360
17439W        W83980   4.241  29.376  13.859
17440W        W83981  14.834   9.272   1.259
17441W        W83982  38.090   0.889  13.996
17442W        W83983  16.797  17.129   1.732
17443W        W83984  15.901  22.854  14.363
17444W        W83985  19.570  25.154  13.416
17445W        W83986  17.703  36.314  14.518
17446W        W83987   5.836  35.954  14.132
17447W        W83988  33.438  26.645  13.485
17448W        W83989  19.279   6.846  14.912
17449W        W83990  11.707  27.185   2.349
17450W        W83991  27.586  38.838   2.683
17451W        W83992  21.204  32.075  13.876
17452W        W83993  43.930   4.461   3.166
17453W        W83994  38.814  11.637   3.312
17454W        W83995  10.707  28.026   3.772
17455W        W83996   8.859   0.043  11.689
17456W        W83997  27.142  18.634   4.174
17457W        W83998  28.493  44.311   3.434
17458W        W83999  43.851   5.101   3.635
17459W        W84000  15.093   6.418   1.211
17460W        W84001   4.963   1.480  12.599
17461W        W84002   8.165  29.057   2.949
17462W        W84003  29.886  12.081   0.904
17463W        W84004  39.827  38.601   3.076
17464W        W84005  41.029  22.847  13.202
17465W        W84006  18.707  24.552   0.790
17466W        W84007  14.046  22.738   0.420
17467W        W84008   9.854   4.635   4.170
17468W        W84009   8.118  19.824   2.367
17469W        W84010  18.676  25.682   1.959
17470W        W84011  38.045  30.384  14.020
17471W        W84012  15.148   5.734   2.902
17472W        W84013  15.436  34.542   2.343
17473W        W84014  34.081   0.716   3.622
17474W        W84015  24.260   4.747   4.339
17475W        W84016  30.024  41.610  13.283
17476W        W84017   8.663  22.768   0.303
17477W        W84018  25.471  22.472  11.522
17478W        W84019   2.472   4.553  14.504
17479W        W84020   8.416   1.839   3.241
17480W        W84021  29.557  26.627   0.729
17481W        W84022  24.553  22.606   1.258
17482W        W84023  11.526  23.243   3.132
17483W        W84024   1.976  33.382  13.311
17484W        W84025  20.186  11.573   3.660
17485W        W84026  28.113  22.654  13.981
17486W        W84027  11.677  37.657   5.064
17487W        W84028   4.717   6.265   4.126
17488W        W84029   4.836  11.861   0.850
17489W        W84030  28.662  29.387   3.211
17490W        W84031  37.451  36.427   0.392
17491W        W84032   5.974  36.900  13.540
17492W        W84033  36.377  20.894  11.167
17493W        W84034  11.127  43.821   0.563
17494W        W84035  19.266   0.722   2.383
17495W        W84036  33.043   7.664  13.061
17496W        W84037  34.496   0.909  11.045
17497W        W84038  35.678  24.555   4.765
17498W        W84039  12.828  16.575  14.377
17499W        W84040   2.305  15.782   1.882
17500W        W84041  13.131   0.788  14.392
17501W        W84042  39.393  20.804   4.667
17502W        W84043  25.701   7.430  11.011
17503W        W84044  18.859   7.232  12.980
17504W        W84045  10.741  11.457   2.207
17505W        W84046  17.142  42.004  12.449
17506W        W84047   6.013  22.849  12.030
17507W        W84048  27.133  18.822  14.292
17508W        W84049  20.558  26.084   4.891
17509W        W84050  41.763  26.571  12.929
17510W        W84051   3.253   8.184  13.420
17511W        W84052  31.123  28.611  13.433
17512W        W84053  14.142  28.586  14.358
17513W        W84054  30.056  27.687  12.411
17514W        W84055   5.735   3.845  14.398
17515W        W84056  39.534  37.017  11.089
17516W        W84057  18.237  12.560   4.110
17517W        W84058  29.519  26.025   0.778
17518W        W84059   5.637  34.881   1.843
17519W        W84060  36.078  31.115   0.764
17520W        W84061  18.290  22.644  12.959
17521W        W84062  24.716  44.237   1.405
17522W        W84063   0.066  38.947  12.866
17523W        W84064  36.859   3.297   0.798
17524W        W84065  29.707  16.793  10.688
17525W        W84066  42.343  15.188  14.461
17526W        W84067  32.029  36.918   1.910
17527W        W84068  22.074  38.843   3.734
17528W        W84069  16.646  24.295  11.681
17529W        W84070   0.773  10.792  14.920
17530W        W84071  19.602   8.852   0.514
17531W        W84072  43.421  43.571   1.248
17532W        W84073  16.772   9.902  10.993
17533W        W84074  36.532  29.197  14.494
17534W        W84075   9.962  19.198   4.818
17535W        W84076   4.190  23.539   4.525
17536W        W84077  21.644  20.057   2.708
17537W        W84078   5.566  37.949  12.619
17538W        W84079   4.012  29.611   4.626
17539W        W84080  30.665   7.843   0.729
17540W        W84081  41.926  17.798   0.253
17541W        W84082   0.561   7.175  11.196
17542W        W84083  39.510  18.610  11.931
17543W        W84084   9.975  36.955  13.417
17544W        W84085  32.985  37.711   5.117
17545W        W84086   0.809  21.526   1.428
17546W        W84087   0.469   1.917  12.360
17547W        W84088  32.744  28.125  12.917
17548W        W84089   1.163  19.642   1.034
17549W        W84090  41.803  28.630   0.294
17550W        W84091  38.649  39.970   3.564
17551W        W84092   0.133  35.056   5.020
17552W        W84093  25.238  38.602   4.142
17553W        W84094  30.107  27.434   2.380
17554W        W84095  14.282  24.819  12.977
17555W        W84096  16.226  31.956  14.398
17556W        W84097  30.125  32.900   1.035
17557W        W84098  33.922  40.847  14.749
17558W        W84099  32.665  13.258  14.391
17559W        W84100  13.599   8.219  10.619
17560W        W84101  41.454  33.432  14.014
17561W        W84102  29.702  29.957  12.088
17562W        W84103  19.564  30.780   3.136
17563W        W84104  40.978  42.575  14.366
17564W        W84105   8.716  12.765   4.310
17565W        W84106  14.351  19.188   1.414
17566W        W84107  29.406   1.776  13.903
17567W        W84108  18.604  32.231   1.270
17568W        W84109  20.124   0.125   3.172
17569W        W84110  18.052  36.555   2.298
17570W        W84111  38.778  15.543  12.598
17571W        W84112  17.182  19.265   4.267
17572W        W84113  25.452  29.701   0.534
17573W        W84114  28.047   8.426   3.795
17574W        W84115  43.827  16.656   2.219
17575W        W84116  37.433  17.590  14.933
17576W        W84117  23.489  37.256  13.129
17577W        W84118  38.936   7.226   4.232
17578W        W84119  29.899  24.621   2.685
17579W        W84120  11.866   2.409   4.734
17580W        W84121  12.746   7.962   3.340
17581W        W84122  28.390  31.985  10.555
17582W        W84123   7.370  15.063  10.561
17583W        W84124  26.483  24.936   1.629
17584W        W84125   2.903   1.883   0.259
17585W        W84126  29.576  17.593   3.715
17586W        W84127  19.741  39.617  14.037
17587W        W84128   6.649   0.900  12.060
17588W        W84129  25.992   6.670   2.347
17589W        W84130  16.627  39.032   1.506
17590W        W84131  11.167  24.228  12.911
17591W        W84132  20.509  23.048  12.439
17592W        W84133  13.346  31.321  13.426
17593W        W84134   3.899  21.127  12.888
17594W        W84135  17.327  30.889   2.418
17595W        W84136  18.494  18.372   4.154
17596W        W84137  24.954   4.158  13.361
17597W        W84138  19.044  22.748   3.664
17598W        W84139  28.703  24.310  14.994
17599W        W84140  15.126   2.447  10.608
17600W        W84141   9.399  16.866  13.007
17601W        W84142  36.934  22.117   4.445
17602W        W84143  34.542   1.184  12.790
17603W        W84144  40.323   4.490   0.478
17604W        W84145  31.048  13.109  12.980
17605W        W84146  18.055  41.892  11.058
17606W        W84147  41.315   7.746  12.628
17607W        W84148  27.327  21.571   0.737
17608W        W84149  30.969   6.453   0.462
17609W        W84150   3.255  10.813   2.338
17610W        W84151  16.369  31.441  12.042
17611W        W84152   7.805  34.965  12.374
17612W        W84153  23.695  40.552  14.524
17613W        W84154  17.020  12.299   2.276
17614W        W84155   4.511  15.171  14.699
17615W        W84156  12.217  19.783   2.336
17616W        W84157  17.766  30.452  12.901
17617W        W84158  25.671  44.425  13.002
17618W        W84159  24.215  26.776  11.614
17619W        W84160   1.195  30.085  11.480
17620W        W84161  17.588  28.222   3.702
17621W        W84162  14.805  25.638  12.981
17622W        W84163   7.488  20.842  12.237
17623W        W84164  35.727  38.751  11.124
17624W        W84165   3.375  30.765  11.338
17625W        W84166  27.416  31.953   0.364
17626W        W84167   7.276  11.905  11.767
17627W        W84168  16.881  39.756   0.988
17628W        W84169  20.375  17.318   5.398
17629W        W84170  21.042   8.994   2.328
17630W        W84171  21.666  34.036  11.941
17631W        W84172  21.628   9.195  14.862
17632W        W84173  39.938   1.295   4.268
17633W        W84174  10.843  15.893   0.764
17634W        W84175  34.071  24.271   2.738
17635W        W84176  18.771  33.886  13.116
17636W        W84177  31.013   5.199   2.085
17637W        W84178  31.809  23.556  14.604
17638W        W84179   2.671  19.556   2.767
17639W        W84180  38.044  22.209  11.590
17640W        W84181  40.893   9.345  12.092
17641W        W84182   3.856   8.295   1.773
17642W        W84183  30.450  25.105   0.249
17643W        W84184  28.035  23.430  12.378
17644W        W84185  37.110  22.308  13.062
17645W        W84186  19.536   0.268   1.755
17646W        W84187  31.921   0.314   0.997
17647W        W84188  22.962  15.746  13.903
17648W        W84189  41.921  19.079  13.020
17649W        W84190  17.956   2.981  14.281
17650W        W84191   0.517  32.617   2.221
17651W        W84192  31.411   3.183  12.033
17652W        W84193   8.205  21.999   4.128
17653W        W84194  22.620   6.719  14.726
17654W        W84195   6.985   2.678   1.036
17655W        W84196  17.826  42.227  14.713
17656W        W84197  44.565  21.120   4.820
17657W        W84198   6.733   4.205   4.107
17658W        W84199  11.748  38.590  12.859
17659W        W84200   7.876  35.591   1.703
17660W        W84201  19.828  24.777   1.259
17661W        W84202  29.497  15.406   0.840
17662W        W84203  28.923  10.171   2.987
17663W        W84204   9.620  35.547   1.451
17664W        W84205  26.676  32.515  12.455
17665W        W84206  10.931  19.742   1.832
17666W        W84207  33.108  13.319  12.564
17667W        W84208  11.046  11.085   0.257
17668W        W84209  21.789  12.381  11.470
17669W        W84210  21.409   6.957   4.390
17670W        W84211  36.931   3.525   0.313
17671W        W84212  32.382  36.595  13.417
17672W        W84213  28.659  24.992  10.632
17673W        W84214  39.518   7.716  12.625
17674W        W84215  29.439  14.586  14.555
17675W        W84216   4.928  38.609  10.221
17676W        W84217  10.709  42.848  14.414
17677W        W84218  40.548  12.198   1.863
17678W        W84219  41.070  41.525  11.517
17679W        W84220  28.245  20.954  13.290
17680W        W84221  27.965  10.150  10.640
17681W        W84222  33.734  18.299  13.080
17682W        W84223  38.431  28.185  12.623
17683W        W84224  38.464  41.574   2.680
17684W        W84225  20.309  31.899   3.126
17685W        W84226  24.906   0.854   0.899
17686W        W84227  31.951   7.844  11.286
17687W        W84228   9.348   8.902   0.048
17688W        W84229   0.344  32.785   4.418
17689W        W84230   5.096  32.386  13.465
17690W        W84231  17.610   0.049  14.263
17691W        W84232   2.935  33.028  14.243
17692W        W84233  23.570  30.445   1.737
17693W        W84234  31.499   0.739  14.890
17694W        W84235  32.819  42.782   3.870
17695W        W84236  42.383  20.051   4.184
17696W        W84237  17.669   3.261  11.731
17697W        W84238  10.097   3.729  14.286
17698W        W84239  14.722  22.617  14.878
17699W        W84240   4.615  41.498  12.980
17700W        W84241   6.195  14.848  13.954
17701W        W84242  36.477   2.525  11.627
17702W        W84243  40.132  41.486   2.973
17703W        W84244  33.586  17.350   4.124
17704W        W84245   4.406  42.402  14.457
17705W        W84246   2.904  17.602  13.767
17706W        W84247  24.696   4.781  10.753
17707W        W84248   2.123  15.944   2.347
17708W        W84249  14.108  27.343   1.981
17709W        W84250   2.018  13.064  14.849
17710W        W84251  15.239  25.449  13.478
17711W        W84252  15.221  40.128  12.523
17712W        W84253  39.134  35.943  12.113
17713W        W84254  34.828  11.841  11.160
17714W        W84255  12.827  22.754  12.363
17715W        W84256  20.044  27.888  11.833
17716W        W84257  12.600  22.997   1.835
17717W        W84258  26.095  16.510   4.210
17718W        W84259  28.090  22.183  11.583
17719W        W84260  32.494  32.469   0.309
17720W        W84261   9.834  16.541   1.329
17721W        W84262   6.447  23.213  12.889
17722W        W84263   1.828   6.200  11.566
17723W        W84264  42.998   7.277   2.169
17724W        W84265  26.289  43.381   2.615
17725W        W84266   0.225  24.382   2.246
17726W        W84267  35.015  38.480  12.882
17727W        W84268  37.436  36.572   1.890
17728W        W84269  34.898  15.887  11.582
17729W        W84270   0.350  32.907   1.815
17730W        W84271  30.328  14.255  12.483
17731W        W84272  36.049  36.551  10.876
17732W        W84273  27.556  41.761   1.296
17733W        W84274  26.975   1.986   1.828
17734W        W84275   5.992  37.320   1.224
17735W        W84276  36.093  15.207  10.619
17736W        W84277  43.572  28.416  12.361
17737W        W84278  40.621   0.697   0.755
17738W        W84279   9.901  30.064   1.799
17739W        W84280  21.592   4.526  12.903
17740W        W84281  41.669  23.490  12.580
17741W        W84282   1.319   8.111  11.645
17742W        W84283  22.607  20.189  10.829
17743W        W84284  29.919  31.981  12.102
17744W        W84285   2.713  26.180   2.312
17745W        W84286  22.068   0.691  10.167
17746W        W84287  17.934   2.335   0.981
17747W        W84288  20.518  24.018  12.487
17748W        W84289   4.267  37.814   0.296
17749W        W84290  22.000  14.260   0.935
17750W        W84291  35.317   7.796  12.986
17751W        W84292  34.514  40.181  13.604
17752W        W84293  17.844  25.282  12.007
17753W        W84294  18.099   0.484   0.789
17754W        W84295   5.360  35.925   2.894
17755W        W84296   7.420  33.797  11.587
17756W        W84297  41.556  19.891  13.832
17757W        W84298  11.696  41.274  14.275
17758W        W84299  18.261   0.505   3.327
17759W        W84300  38.584  11.844   4.570
17760W        W84301   0.746  17.683   4.690
17761W        W84302  27.008   1.668  14.900
17762W        W84303  30.532  15.432   4.453
17763W        W84304  16.643  10.127   3.119
17764W        W84305  14.407   6.958  13.522
17765W        W84306  25.147  16.822  13.259
17766W        W84307  38.488   8.439   2.345
17767W        W84308  42.677  25.384   4.634
17768W        W84309  25.068   4.694  12.549
17769W        W84310  24.168  37.504  10.460
17770W        W84311  14.966  36.408  13.028
17771W        W84312  20.864   9.799   1.924
17772W        W84313   1.779  26.764  12.417
17773W        W84314  38.644  11.236   1.010
17774W        W84315   6.815  36.861  12.084
17775W        W84316  21.193  28.440   0.950
17776W        W84317  21.016  11.047   2.360
17777W        W84318  36.227  37.861  12.446
17778W        W84319  35.966  12.791   3.715
17779W        W84320   3.677   8.251  11.250
17780W        W84321  13.855  43.393   3.560
17781W        W84322   1.827  20.977   3.080
17782W        W84323   5.006  20.731  11.649
17783W        W84324  38.801  35.036  12.890
17784W        W84325  24.084  18.318  11.586
17785W        W84326  19.018  27.175   2.928
17786W        W84327   7.575  41.875   2.683
17787W        W84328  34.854  14.738  11.642
17788W        W84329  10.687  20.508   0.448
17789W        W84330  20.246   2.175  12.489
17790W        W84331   4.040  39.679   1.755
17791W        W84332  43.361  23.277  14.365
17792W        W84333  39.084  37.881   3.347
17793W        W84334  20.189   6.505   1.857
17794W        W84335  27.938  16.735  11.468
17795W        W84336  32.605  19.254   3.687
17796W        W84337  23.627  44.758   1.103
17797W        W84338  39.260  13.763  14.890
17798W        W84339  40.908  43.284   0.013
17799W        W84340   3.191   5.475  11.860
17800W        W84341   7.650   4.874   3.633
17801W        W84342   7.354   9.300   2.758
17802W        W84343  39.584  23.684   0.912
17803W        W84344  39.971  12.861   2.160
17804W        W84345   1.961  42.215   2.910
17805W        W84346  17.827  32.078  11.227
17806W        W84347  32.562  24.482   0.447
17807W        W84348  11.331  38.290  11.913
17808W        W84349  25.447  39.926   1.696
17809W        W84350   6.661  40.618   3.115
17810W        W84351  21.502  18.625  11.612
17811W        W84352   4.200  28.231   2.354
17812W        W84353   4.363   3.123  13.882
17813W        W84354  24.209  28.439  11.748
17814W        W84355  35.838   9.617   2.991
17815W        W84356   2.302  15.897   4.585
17816W        W84357   3.291   6.874   3.299
17817W        W84358  42.813  21.988  11.996
17818W        W84359   3.267  17.272  14.895
17819W        W84360  38.469  30.700  11.489
17820W        W84361  30.878  36.669  14.435
17821W        W84362   6.264  11.495  12.490
17822W        W84363   5.741  39.897   9.918
17823W        W84364  11.779  38.392   3.624
17824W        W84365  12.331  44.050   2.186
17825W        W84366  36.479  15.131  14.607
17826W        W84367  13.899  14.684   3.124
17827W        W84368   1.702  34.990   3.696
17828W        W84369  40.292  40.783   2.749
17829W        W84370  18.783  22.117  14.986
17830W        W84371   0.887   8.407  11.676
17831W        W84372  35.931  32.180   4.533
17832W        W84373  10.040  15.221  14.994
17833W        W84374   0.476  43.764   1.251
17834W        W84375  27.707   2.029   4.517
17835W        W84376  29.128  34.357   0.230
17836W        W84377   2.899   0.825  13.721
17837W        W84378  35.003  27.610  13.049
17838W        W84379   3.903  10.585  10.579
17839W        W84380  26.411  40.126   0.473
17840W        W84381  14.666  17.450   1.225
17841W        W84382  36.077  44.686  12.520
17842W        W84383  21.967  31.019   1.728
17843W        W84384  30.867   2.498   0.795
17844W        W84385   1.772  43.571  13.892
17845W        W84386  29.898  40.673  11.051
17846W        W84387  22.953  29.778  11.007
17847W        W84388  27.990  10.269  14.093
17848W        W84389  20.679  32.162  12.571
17849W        W84390  23.455  31.672   2.223
17850W        W84391  17.352   4.197  12.599
17851W        W84392  16.310   9.224  13.470
17852W        W84393  18.923  36.924   1.761
17853W        W84394  13.300  38.486   3.497
17854W        W84395  37.300   3.614  12.911
17855W        W84396  37.944  31.379   2.832
17856W        W84397  33.907  30.398   4.807
17857W        W84398  42.972   9.882   0.240
17858W        W84399  29.261  25.097   2.793
17859W        W84400  24.472  38.967  10.751
17860W        W84401  25.653  17.524  13.513
17861W        W84402  39.029  19.642  14.359
17862W        W84403  30.337  24.046   4.656
17863W        W84404  44.030  16.668  11.945
17864W        W84405   9.653  25.255  13.939
17865W        W84406  18.530  26.998  14.344
17866W        W84407  26.515  36.597   0.805
17867W        W84408  34.166  30.569  14.436
17868W        W84409  28.519  22.189  14.481
17869W        W84410   9.806  23.738  13.293
17870W        W84411  18.108  31.332   3.800
17871W        W84412  40.791   9.209   1.430
17872W        W84413  44.791  13.088   3.668
17873W        W84414   8.333  36.428  10.615
17874W        W84415  26.806   2.360  14.594
17875W        W84416  10.451  31.409  12.041
17876W        W84417  20.684  11.648   4.849
17877W        W84418  17.035  38.373  13.430
17878W        W84419  29.513   3.182   4.537
17879W        W84420  16.277  39.358   0.859
17880W        W84421  41.023  28.731   2.727
17881W        W84422  39.398  33.051   0.823
17882W        W84423   7.250  35.317  11.735
17883W        W84424  39.722   6.734  11.548
17884W        W84425  33.962  21.268  14.564
17885W        W84426  35.342  21.178   3.588
17886W        W84427  24.509  39.335   4.013
17887W        W84428   7.752  21.076  11.109
17888W        W84429  26.139  19.686  13.087
17889W        W84430  30.163  24.738   3.689
17890W        W84431  17.809  11.867  10.298
17891W        W84432  16.818   9.164   3.843
17892W        W84433   1.220  30.247   4.574
17893W        W84434   3.421  18.189   3.945
17894W        W84435  12.085  27.231   3.694
17895W        W84436   5.788  14.336  12.884
17896W        W84437  11.604  29.936  12.725
17897W        W84438   3.746  38.590   1.867
17898W        W84439  26.403  26.248  12.671
17899W        W84440  15.822  31.157  13.444
17900W        W84441   6.063  32.609   4.976
17901W        W84442  16.727  42.362   2.344
17902W        W84443  32.136  31.681   2.222
17903W        W84444  10.675  33.081   0.971
17904W        W84445  12.544  21.694  11.994
17905W        W84446  17.071   7.452  11.691
17906W        W84447   4.725  22.188   5.463
17907W        W84448  41.271  36.129   3.236
17908W        W84449  26.911  20.642   0.928
17909W        W84450  16.567   4.314   0.797
17910W        W84451  44.413  12.305  14.412
17911W        W84452  32.259  23.198  10.690
17912W        W84453  29.476  20.799  12.935
17913W        W84454  17.471  35.837   1.907
17914W        W84455  43.762  36.521   3.262
17915W        W84456  26.072  32.605   3.598
17916W        W84457  18.477   7.410  10.292
17917W        W84458  18.884  42.345  14.695
17918W        W84459  20.764  39.039   0.768
17919W        W84460   9.864  27.158   4.182
17920W        W84461  24.680  30.933  12.402
17921W        W84462  31.043  13.653  14.851
17922W        W84463   2.815  27.068   4.643
17923W        W84464  16.180  31.403   1.359
17924W        W84465  21.447  35.528   1.811
17925W        W84466  42.371  12.155  12.493
17926W        W84467  21.482  10.772  12.836
17927W        W84468   3.818  33.227   0.382
17928W        W84469  43.769  34.687   4.155
17929W        W84470  26.126  17.160   0.224
17930W        W84471  28.277   6.231  11.971
17931W        W84472  38.567  31.577  10.385
17932W        W84473  25.156  43.305  14.379
17933W        W84474  37.089  21.281  12.981
17934W        W84475  28.681  33.531   0.859
17935W        W84476  13.400  18.549  13.803
17936W        W84477  17.796  44.883   3.739
17937W        W84478   6.259  30.420  11.223
17938W        W84479  44.539   2.946   0.996
17939W        W84480  25.493  25.192  12.060
17940W        W84481   1.962  22.074  13.448
17941W        W84482  33.436   6.436  14.347
17942W        W84483  11.823  15.167  10.653
17943W        W84484   1.266  22.367   3.366
17944W        W84485   7.679  42.517   0.786
17945W        W84486   5.670  11.416   4.127
17946W        W84487  19.082  35.500  11.123
17947W        W84488  39.127  18.578   3.160
17948W        W84489  31.293  14.304   0.334
17949W        W84490  20.139  13.036  10.826
17950W        W84491  32.308  23.392   1.299
17951W        W84492  19.480  24.211  11.134
17952W        W84493  13.733  26.934  12.484
17953W        W84494  19.702  32.864   1.464
17954W        W84495  31.548   7.956  14.490
17955W        W84496   9.800  11.443   0.292
17956W        W84497  20.078  39.779  13.446
17957W        W84498   2.063   6.521  11.206
17958W        W84499  27.567  12.482   1.660
17959W        W84500  21.146  17.304   4.146
17960W        W84501   9.699  34.431   4.211
17961W        W84502  31.115  11.366  11.894
17962W        W84503  34.042  24.474   3.227
17963W        W84504  38.489  43.779   3.189
17964W        W84505   6.165  13.201  12.988
17965W        W84506   7.691  34.303  13.093
17966W        W84507  23.459   9.324  10.656
17967W        W84508   2.543   0.610  11.503
17968W        W84509  14.321  28.051   2.802
17969W        W84510  37.833  29.560  14.314
17970W        W84511  13.298  38.383   2.510
17971W        W84512  10.452  10.847  12.802
17972W        W84513  27.130  33.906   2.323
17973W        W84514  29.559  43.054   1.651
17974W        W84515  15.613  22.157   0.721
17975W        W84516  32.234  13.111  12.519
17976W        W84517  29.905   6.686   0.355
17977W        W84518  27.421   1.400   1.990
17978W        W84519  41.739  25.302  11.087
17979W        W84520  37.629   5.329  12.377
17980W        W84521  10.775  43.404  12.160
17981W        W84522  37.486  39.615  14.391
17982W        W84523  30.375   9.441  13.493
17983W        W84524  25.903  31.475   2.261
17984W        W84525  30.568  11.418  13.366
17985W        W84526  39.617  41.114   5.018
17986W        W84527  35.978  15.156  11.918
17987W        W84528  40.601  37.088  12.973
17988W        W84529  22.840   2.741  14.251
17989W        W84530  33.823  30.378  10.740
17990W        W84531  35.472  17.720  14.714
17991W        W84532  38.060   2.913  13.380
17992W        W84533  28.260  41.761  12.982
17993W        W84534  16.708  30.506   2.437
17994W        W84535  43.760  34.924   0.552
17995W        W84536   1.424  39.877   1.900
17996W        W84537  38.545   9.888   2.438
17997W        W84538  43.473  31.097   2.619
17998W        W84539  29.129   1.346   3.410
17999W        W84540   1.672  15.320   0.922
18000W        W84541  44.259  12.250   2.738
18001W        W84542  21.201  35.349  13.670
18002W        W84543  22.092  21.003  10.967
18003W        W84544   8.432  20.163  14.353
18004W        W84545  35.953  35.574  12.537
18005W        W84546  41.922  10.061  10.334
18006W        W84547  27.233  37.439   4.568
18007W        W84548  30.639  20.157   3.340
18008W        W84549  19.164  34.604   2.345
18009W        W84550  37.043  25.537  12.512
18010W        W84551  41.907  25.078  13.395
18011W        W84552   4.812   1.740   3.771
18012W        W84553  33.938   6.428  12.890
18013W        W84554  20.930   2.872   4.430
18014W        W84555  23.111  33.672  12.639
18015W        W84556   2.229  12.564  12.412
18016W        W84557   5.924  32.463   0.984
18017W        W84558  42.088  36.190   1.375
18018W        W84559  35.997   4.813   4.415
18019W        W84560   8.713  31.499   2.372
18020W        W84561   5.779  22.708  12.533
18021W        W84562   0.058  31.121   2.090
18022W        W84563   6.919  23.294   1.355
18023W        W84564  19.448  23.647  13.744
18024W        W84565   5.402  31.103   5.093
18025W        W84566   0.287   8.953   2.218
18026W        W84567  10.252   0.322  11.147
18027W        W84568  23.538  39.609   1.783
18028W        W84569  16.708  13.868   0.262
18029W        W84570  16.401   7.611  11.017
18030W        W84571   7.722   8.235   4.168
18031W        W84572  28.505  15.782   4.649
18032W        W84573  35.612  19.875   3.358
18033W        W84574   3.893  18.743   0.911
18034W        W84575  32.530  29.013   4.541
18035W        W84576  14.245  27.542  14.746
18036W        W84577   9.515  18.473  14.531
18037W        W84578  23.279  34.553   3.897
18038W        W84579  34.371  15.506   1.797
18039W        W84580  39.193  27.925  11.117
18040W        W84581  43.464  11.942   4.518
18041W        W84582  24.753   7.585  14.888
18042W        W84583  15.187   1.680  13.379
18043W        W84584  42.765  41.539   4.243
18044W        W84585  20.074  18.462   4.217
18045W        W84586   8.504  27.560  13.533
18046W        W84587  30.173   0.940   1.782
18047W        W84588   1.211   1.904   1.277
18048W        W84589  20.627  23.443   3.246
18049W        W84590  42.818  37.982  10.750
18050W        W84591   5.989   1.314   1.316
18051W        W84592   5.828   7.285  11.673
18052W        W84593   6.162  20.580   1.808
18053W        W84594  33.458  33.971   1.933
18054W        W84595  43.201  31.071   4.065
18055W        W84596   3.114  23.064  13.769
18056W        W84597  15.048  40.176  13.062
18057W        W84598  39.568  33.352   0.409
18058W        W84599  31.375  10.168   2.223
18059W        W84600   1.877   9.904  12.023
18060W        W84601  39.042   5.202   3.658
18061W        W84602  22.221  27.592   1.773
18062W        W84603  35.944  18.717   4.548
18063W        W84604  14.849  16.680  10.796
18064W        W84605  43.544  29.368   2.383
18065W        W84606  17.435  24.088  13.466
18066W        W84607  35.525  18.555  14.541
18067W        W84608  36.362  17.088  11.344
18068W        W84609  14.468  34.429   5.029
18069W        W84610   6.678  21.675  12.411
18070W        W84611  34.422  11.893   0.053
18071W        W84612  26.140  28.505   0.306
18072W        W84613  32.962  39.087   0.009
18073W        W84614  37.955   6.738  11.515
18074W        W84615  26.857  11.852   3.307
18075W        W84616  27.460  40.479  13.821
18076W        W84617  21.445  18.676   3.820
18077W        W84618  25.887  40.332   3.583
18078W        W84619  29.398  22.238   4.293
18079W        W84620   3.395  43.070   4.167
18080W        W84621  31.043  30.525  11.645
18081W        W84622   7.206  22.988  13.346
18082W        W84623  11.851  28.934   0.373
18083W        W84624  34.036  38.568  11.551
18084W        W84625   8.085  19.180  12.003
18085W        W84626  20.750  13.885  13.322
18086W        W84627   9.161  17.519   2.607
18087W        W84628  15.181   2.701   2.684
18088W        W84629  38.303  12.449   3.881
18089W        W84630  31.285  38.226  13.330
18090W        W84631   0.488  23.591   4.918
18091W        W84632  37.561   4.383  10.902
18092W        W84633  31.478  22.676  12.785
18093W        W84634  41.120  14.810   2.412
18094W        W84635  27.940  40.387  13.029
18095W        W84636   9.916  43.083   4.055
18096W        W84637  31.371  35.475  14.824
18097W        W84638  19.873  43.455  14.914
18098W        W84639  32.607  30.102  14.096
18099W        W84640   5.908  41.029   1.162
18100W        W84641  10.075  27.020  13.805
18101W        W84642   4.730  13.737  14.906
18102W        W84643  39.064  42.957  12.197
18103W        W84644  30.197  17.911   3.142
18104W        W84645   9.592  26.490  12.178
18105W        W84646  11.169   7.462   2.803
18106W        W84647  43.038   2.719  10.630
18107W        W84648   3.761  39.353   2.107
18108W        W84649   9.930   2.883  12.591
18109W        W84650  34.032  44.776   0.848
18110W        W84651   0.063  22.571  11.956
18111W        W84652  11.017  38.909  11.114
18112W        W84653   1.879  31.303   1.302
18113W        W84654  33.942  14.670  12.496
18114W        W84655  20.741  44.273  11.435
18115W        W84656  20.591  24.372   0.896
18116W        W84657  43.804   4.810  11.586
18117W        W84658  34.818  44.027   2.869
18118W        W84659  42.339  27.407   4.852
18119W        W84660  10.163  22.922  12.581
18120W        W84661  34.595  26.880   3.670
18121W        W84662  18.750  28.961   3.671
18122W        W84663  26.659  10.157  11.018
18123W        W84664  18.303  39.460   3.308
18124W        W84665   3.435   3.886   3.152
18125W        W84666   3.460  20.736   4.287
18126W        W84667  44.697  37.624   4.104
18127W        W84668  31.419  23.106  13.075
18128W        W84669  27.576  28.644   3.862
18129W        W84670  29.883   6.260   1.641
18130W        W84671  41.110   9.672  13.379
18131W        W84672   1.808   6.256   3.116
18132W        W84673  38.329  17.051  14.563
18133W        W84674  13.210  15.765   3.689
18134W        W84675  38.943   1.232   4.270
18135W        W84676  19.644  14.263  11.581
18136W        W84677  39.453  19.099  14.228
18137W        W84678   6.733  13.832   0.237
18138W        W84679   7.468  27.195   2.778
18139W        W84680  12.563  37.541   0.941
18140W        W84681   9.726  42.256   2.341
18141W        W84682  23.761  26.160   0.781
18142W        W84683  44.937   2.435  11.102
18143W        W84684  37.802  34.069  14.305
18144W        W84685   5.136  39.353   0.635
18145W        W84686  32.895   5.962   2.753
18146W        W84687  44.209  17.779   3.415
18147W        W84688  10.394   1.373   4.844
18148W        W84689  35.536  41.244  12.799
18149W        W84690  36.863  43.754  14.472
18150W        W84691  22.077  27.360   4.164
18151W        W84692  21.695   9.644   4.491
18152W        W84693  25.072  39.094   4.982
18153W        W84694  16.668   5.457  10.604
18154W        W84695   2.722  19.248  12.111
18155W        W84696  19.696  30.436   0.335
18156W        W84697   1.975  12.309   1.263
18157W        W84698  19.713  29.594   0.770
18158W        W84699  41.960  20.666   0.557
18159W        W84700  27.490  28.699   2.042
18160W        W84701  15.687  39.303   3.824
18161W        W84702  34.538  11.713   3.400
18162W        W84703  21.601  36.908  13.283
18163W        W84704  27.830  38.845   3.676
18164W        W84705   7.783  38.510  12.020
18165W        W84706  44.086  10.391  11.855
18166W        W84707  29.503  21.736   4.253
18167W        W84708  28.890  10.717   2.862
18168W        W84709  40.242  40.832  11.703
18169W        W84710  11.689  21.672  12.439
18170W        W84711   0.622  28.011   3.735
18171W        W84712   0.300  37.040  14.513
18172W        W84713  28.297   8.945   2.332
18173W        W84714  38.881  27.175   1.695
18174W        W84715  32.173  40.356  13.430
18175W        W84716  19.551   1.182  12.914
18176W        W84717   4.686   6.460  10.977
18177W        W84718  14.947  44.763   0.271
18178W        W84719  28.498  38.012  12.994
18179W        W84720   3.722  37.170   0.097
18180W        W84721  32.146   1.258  14.074
18181W        W84722  34.850  25.328   1.424
18182W        W84723  44.419  41.542   1.372
18183W        W84724   7.707  36.660   1.417
18184W        W84725  34.384  15.093   4.579
18185W        W84726  35.010  30.280   4.296
18186W        W84727  31.420  11.915  10.684
18187W        W84728  26.291  18.669  10.672
18188W        W84729   9.345  40.025  13.317
18189W        W84730  41.087   9.193  14.608
18190W        W84731  16.478   4.122  10.870
18191W        W84732  36.470  11.464   0.293
18192W        W84733  37.207   1.427  11.666
18193W        W84734  28.966  26.715   3.297
18194W        W84735  43.237  44.994   2.435
18195W        W84736  20.714   5.125   0.047
18196W        W84737  43.284  41.906  13.177
18197W        W84738   4.397  27.620   0.989
18198W        W84739   7.757   4.421   1.257
18199W        W84740   4.910  36.095  12.972
18200W        W84741  28.757   0.009   2.284
18201W        W84742  14.613  39.344   2.789
18202W        W84743  15.883  22.197  12.128
18203W        W84744  31.311   1.378  14.457
18204W        W84745  28.115  29.280  13.423
18205W        W84746   5.985  37.230   4.945
18206W        W84747  19.740  26.622  13.135
18207W        W84748   2.489  33.008  11.916
18208W        W84749   9.067   3.703  12.147
18209W        W84750  11.433  35.439  14.896
18210W        W84751  44.308   7.390  14.003
18211W        W84752   8.168  41.351  11.671
18212W        W84753  15.826  23.543  11.168
18213W        W84754  40.300  22.579  13.315
18214W        W84755  38.696  20.524   3.211
18215W        W84756  35.953  22.094   4.652
18216W        W84757  19.788   5.478   2.224
18217W        W84758  20.153  26.107   0.845
18218W        W84759   9.772  16.849   4.810
18219W        W84760   1.784  18.831   2.689
18220W        W84761   4.068  12.152  10.712
18221W        W84762  12.857   9.582  11.539
18222W        W84763  29.506  22.432   0.732
18223W        W84764  39.008  33.093  11.918
18224W        W84765   5.996  23.110   4.682
18225W        W84766  32.156  28.235   4.564
18226W        W84767  12.215  36.008  12.467
18227W        W84768  32.846   9.756  12.586
18228W        W84769   6.861  42.267   4.527
18229W        W84770  17.415  28.534  10.414
18230W        W84771  31.720   2.685   2.781
18231W        W84772  25.537   4.448  12.445
18232W        W84773  24.161  27.703   0.065
18233W        W84774  32.851  18.173  12.634
18234W        W84775   3.292  39.885  12.859
18235W        W84776  42.465  11.852   0.194
18236W        W84777   3.672  33.455  12.116
18237W        W84778   7.491  19.218   3.668
18238W        W84779  41.707  36.761   4.913
18239W        W84780  30.323  40.339   1.834
18240W        W84781  41.954  18.782   4.377
18241W        W84782  18.860  21.973   3.673
18242W        W84783  31.893  34.558  14.765
18243W        W84784  36.924   7.486   1.890
18244W        W84785   3.741   6.655  14.853
18245W        W84786  15.848  41.315  10.670
18246W        W84787  39.698   4.497  12.440
18247W        W84788   2.266  13.387  12.878
18248W        W84789  36.512   4.359  13.933
18249W        W84790  28.363  39.480   2.710
18250W        W84791   5.471  39.327  14.804
18251W        W84792  12.755  11.880  11.603
18252W        W84793  26.302   8.300   5.234
18253W        W84794  34.668  20.528   2.795
18254W        W84795  25.767  15.710  13.375
18255W        W84796   0.369   9.682   1.711
18256W        W84797   6.497  18.126   1.786
18257W        W84798   1.664  23.284  14.928
18258W        W84799  39.605  42.170  12.454
18259W        W84800  41.964   3.291  13.075
18260W        W84801  29.061  22.941  12.699
18261W        W84802   4.501  34.893   3.334
18262W        W84803   4.319  30.957  12.419
18263W        W84804  11.907  33.272   3.226
18264W        W84805  17.305   8.162  13.904
18265W        W84806  38.386  29.694  10.965
18266W        W84807  37.032  30.367  12.004
18267W        W84808  39.560  32.990  13.760
18268W        W84809  19.574  27.551  14.868
18269W        W84810  30.948  11.259   0.725
18270W        W84811  21.566  20.745  13.655
18271W        W84812   2.347  17.798  11.653
18272W        W84813   9.309   4.211   1.462
18273W        W84814  40.351  25.253  12.169
18274W        W84815  30.698  13.285  12.598
18275W        W84816  23.525  12.643   3.117
18276W        W84817  43.554  24.815  11.745
18277W        W84818  11.383   7.888  13.392
18278W        W84819  19.250  39.167   0.819
18279W        W84820   5.698  10.262  14.239
18280W        W84821  28.713  20.734  10.587
18281W        W84822  10.188   1.985   3.832
18282W        W84823  25.135   6.409   2.646
18283W        W84824  10.107   6.060   5.021
18284W        W84825  38.556  42.011  12.531
18285W        W84826  15.077  34.638  11.200
18286W        W84827  25.467   8.435   4.523
18287W        W84828  29.039  44.868   0.934
18288W        W84829  14.046   0.877  12.010
18289W        W84830   2.225  39.334  11.430
18290W        W84831  20.172   0.286  12.387
18291W        W84832  19.946  29.474   0.266
18292W        W84833  19.227  14.088   3.267
18293W        W84834   1.324   8.628  11.495
18294W        W84835   0.351   3.830  14.869
18295W        W84836  33.400  13.545   2.858
18296W        W84837  14.154  14.566   3.571
18297W        W84838   3.942  28.952  13.960
18298W        W84839  15.597  20.208   4.673
18299W        W84840  21.700  34.613  14.099
18300W        W84841  32.389  14.297   2.495
18301W        W84842  24.557  37.528  13.081
18302W        W84843  12.184   8.598   4.608
18303W        W84844   4.529  29.566   4.709
18304W        W84845  42.342  28.658  10.736
18305W        W84846  18.075  44.202   2.170
18306W        W84847  23.469  37.535   4.721
18307W        W84848  34.526  42.331  12.026
18308W        W84849   8.311  34.191  13.041
18309W        W84850   2.124  35.977  14.730
18310W        W84851  36.492  44.232   4.591
18311W        W84852  18.562  28.468  11.605
18312W        W84853  28.434  16.196  11.711
18313W        W84854  42.783  36.173  11.948
18314W        W84855   0.385  38.540   4.825
18315W        W84856  38.551   0.736  12.380
18316W        W84857   7.780  40.223   4.050
18317W        W84858   3.399  39.598   2.801
18318W        W84859   2.308  22.502  12.395
18319W        W84860  17.362  16.599  13.862
18320W        W84861  32.950   4.686   2.287
18321W        W84862  37.390  26.442  12.095
18322W        W84863  10.719   5.706  10.990
18323W        W84864   6.728  28.680   0.742
18324W        W84865   9.183  30.919   2.786
18325W        W84866  16.873  24.026  12.079
18326W        W84867   9.281  13.196  11.386
18327W        W84868  37.918   8.028   2.762
18328W        W84869  25.644   7.303  14.463
18329W        W84870  16.649   1.115   0.942
18330W        W84871   5.906   9.369  14.707
18331W        W84872  42.505  35.507   1.299
18332W        W84873  22.945  32.051  11.957
18333W        W84874  34.584  16.535   4.560
18334W        W84875  30.518  14.396   4.550
18335W        W84876  26.571  28.953   4.623
18336W        W84877  12.857   8.259  12.930
18337W        W84878  38.116  41.773  10.645
18338W        W84879   9.578  11.859   2.250
18339W        W84880  31.581  32.814  13.453
18340W        W84881  11.880  21.675  13.916
18341W        W84882  36.763   0.811  11.984
18342W        W84883  11.392   6.024   3.066
18343W        W84884   0.035  11.222  12.632
18344W        W84885   3.177  26.598   4.074
18345W        W84886  20.137  20.684   0.808
18346W        W84887  29.344  16.824  11.916
18347W        W84888  34.388  17.769  13.444
18348W        W84889   5.274  16.967  11.408
18349W        W84890  24.684  30.959   2.785
18350W        W84891  17.227  28.379  13.132
18351W        W84892  20.575   5.525  12.656
18352W        W84893  24.973  21.960   1.312
18353W        W84894  40.763  37.145   3.350
18354W        W84895  21.932  13.390   2.940
18355W        W84896  20.286  28.481  12.530
18356W        W84897  28.630  30.951  12.221
18357W        W84898  29.410  33.455   4.434
18358W        W84899  17.612  32.576   4.308
18359W        W84900  15.026  24.146  13.372
18360W        W84901  19.422  20.016  12.632
18361W        W84902  37.469  12.277   2.799
18362W        W84903  43.132  13.245   4.191
18363W        W84904  43.481  22.557   4.904
18364W        W84905   0.755   9.232   2.776
18365W        W84906  34.570  11.801  14.076
18366W        W84907  41.817  18.300   4.172
18367W        W84908  21.706  35.856   0.976
18368W        W84909  44.589  29.953  13.070
18369W        W84910  11.777  15.273  12.615
18370W        W84911  14.563  20.956   0.419
18371W        W84912   4.878  44.754   2.245
18372W        W84913  39.817  24.967  14.009
18373W        W84914   4.691  20.147   3.938
18374W        W84915   6.284   2.327  14.412
18375W        W84916  23.952  22.469   0.335
18376W        W84917  28.122   6.190  12.461
18377W        W84918   9.806  10.663   3.403
18378W        W84919  36.625   0.720   2.196
18379W        W84920  31.977   9.372  11.545
18380W        W84921  11.232  16.922   3.751
18381W        W84922  34.533   5.079   2.206
18382W        W84923  34.098   7.184   4.626
18383W        W84924  31.486   0.426   3.796
18384W        W84925  10.471  36.541   2.362
18385W        W84926  17.984  34.075   4.289
18386W        W84927   4.249  38.057  14.813
18387W        W84928  38.956  37.400  12.185
18388W        W84929  40.381  37.033   5.096
18389W        W84930  18.597  19.615   0.358
18390W        W84931  17.712  29.095  13.521
18391W        W84932  35.126  28.031   0.298
18392W        W84933   4.699  44.165  14.457
18393W        W84934  25.517  42.847  10.804
18394W        W84935   0.747   8.591  14.983
18395W        W84936  42.930  20.718  13.394
18396W        W84937   2.936  34.587  10.165
18397W        W84938  30.547   5.759   3.121
18398W        W84939  17.278  31.712  12.951
18399W        W84940  26.602  41.219   1.345
18400W        W84941  12.762  29.171  11.645
18401W        W84942   0.954  38.355  10.525
18402W        W84943   8.896  27.923  11.097
18403W        W84944  28.679  29.199   1.462
18404W        W84945  34.082   3.750   0.865
18405W        W84946  31.533  15.175   1.697
18406W        W84947  30.623  12.322  13.075
18407W        W84948  11.197   6.987  10.913
18408W        W84949  43.263  18.327  11.928
18409W        W84950  26.230  13.275  10.810
18410W        W84951  19.215  15.146   0.355
18411W        W84952  43.461  28.810   4.582
18412W        W84953  44.742   7.212  12.921
18413W        W84954  29.352  36.419   3.246
18414W        W84955  33.683  34.415  11.593
18415W        W84956  17.085  44.521  11.961
18416W        W84957   9.961  42.447  12.959
18417W        W84958  29.383   7.306   0.895
18418W        W84959  15.751  26.689  14.974
18419W        W84960  40.618  31.843   5.012
18420W        W84961  29.739  22.548  13.330
18421W        W84962  12.330  28.237   4.538
18422W        W84963  26.022  11.774   1.728
18423W        W84964   0.169  13.844  11.589
18424W        W84965  21.308   2.634  14.406
18425W        W84966  29.886   8.810  11.115
18426W        W84967  27.048  27.879   3.546
18427W        W84968  24.091  23.480  14.253
18428W        W84969  10.386   6.357  12.897
18429W        W84970  28.970  34.969   2.656
18430W        W84971  19.223  22.518   4.080
18431W        W84972  44.384   3.862   2.569
18432W        W84973  21.662  33.049   0.315
18433W        W84974  44.679  36.153  12.555
18434W        W84975  17.807  20.423  13.041
18435W        W84976   5.923  33.511  11.910
18436W        W84977   1.322  39.562  14.900
18437W        W84978  22.447  14.659  14.813
18438W        W84979  28.557  29.996  10.640
18439W        W84980   0.022  11.336   3.124
18440W        W84981  39.333   2.639   2.877
18441W        W84982  35.409   0.857   3.856
18442W        W84983   4.582  31.871   4.278
18443W        W84984  35.919  11.059   3.954
18444W        W84985  14.801   4.411  13.500
18445W        W84986  33.908  23.591   4.878
18446W        W84987  32.583  42.811  11.033
18447W        W84988   6.924  26.604   1.072
18448W        W84989  11.979  15.134  11.624
18449W        W84990   2.255  18.093  12.527
18450W        W84991  17.254  14.534  14.678
18451W        W84992  11.826   2.208  14.515
18452W        W84993  14.156  40.819   1.453
18453W        W84994  43.262  44.044   0.725
18454W        W84995   4.860   0.296   2.265
18455W        W84996  17.623   3.146   3.725
18456W        W84997  33.487   7.765  11.805
18457W        W84998  43.202   8.696  11.945
18458W        W84999  32.197  21.009   4.539
18459W        W85000  29.270  33.654  14.223
18460W        W85001  22.284  28.307  13.962
18461W        W85002   0.862  25.977   3.940
18462W        W85003  11.583   4.368   0.357
18463W        W85004  14.194  30.699   3.484
18464W        W85005  18.793  11.704  13.769
18465W        W85006  19.140   6.859  11.051
18466W        W85007  15.278  43.975   2.855
18467W        W85008   3.006  29.868  12.856
18468W        W85009  34.775  12.752  11.465
18469W        W85010  37.927  24.714   3.851
18470W        W85011   1.727  29.748   4.204
18471W        W85012  19.715  12.515   0.907
18472W        W85013  22.541  18.109  13.038
18473W        W85014  36.608  15.671   2.777
18474W        W85015  37.916  22.276  12.483
18475W        W85016  43.461   1.030  11.074
18476W        W85017  20.005  25.469  13.415
18477W        W85018  30.813  40.276   4.248
18478W        W85019  26.390   6.724  10.647
18479W        W85020   6.543  26.788   2.759
18480W        W85021  43.421  20.282   0.260
18481W        W85022  30.677  15.816   5.229
18482W        W85023  20.527  36.989   3.111
18483W        W85024  44.974  21.130  11.108
18484W        W85025  28.121  38.926  12.748
18485W        W85026  22.227  15.531   0.789
18486W        W85027  36.820  13.502  12.607
18487W        W85028  38.613  28.559   3.754
18488W        W85029   2.405   4.336   1.407
18489W        W85030  28.052   0.710  12.384
18490W        W85031  10.211  26.132   0.057
18491W        W85032  30.736   5.697  14.954
18492W        W85033  11.414  13.397   3.609
18493W        W85034  44.370  22.274   1.985
18494W        W85035   3.475  32.523   2.792
18495W        W85036   0.336  36.041   0.186
18496W        W85037   4.022  44.024  10.323
18497W        W85038  17.743  30.987   9.679
18498W        W85039  23.825  15.295   1.997
18499W        W85040  25.567  21.321  13.656
18500W        W85041  37.646  21.236   3.107
18501W        W85042   1.935  23.460   1.622
18502W        W85043  31.882  18.953   3.486
18503W        W85044  12.707  27.539  12.065
18504W        W85045  44.333  18.229  14.089
18505W        W85046  12.059  26.737  10.653
18506W        W85047  24.728  25.531  12.597
18507W        W85048  32.340   6.949  11.133
18508W        W85049  31.258  42.934  12.009
18509W        W85050  11.617  29.177   2.636
18510W        W85051  26.090  19.047   2.467
18511W        W85052  42.013  34.516  10.702
18512W        W85053  33.754  40.800   2.863
18513W        W85054  15.039   1.944  12.948
18514W        W85055  16.602  14.844   0.355
18515W        W85056  40.466  34.839  12.580
18516W        W85057   8.061  44.997  13.483
18517W        W85058  14.585  29.224   4.603
18518W        W85059  23.262  17.841  13.455
18519W        W85060  12.148  29.655   4.813
18520W        W85061  31.213   8.385   2.332
18521W        W85062  20.143  43.903   1.905
18522W        W85063  11.788   7.208   2.266
18523W        W85064  18.399   7.304  14.103
18524W        W85065   0.853  25.081   0.595
18525W        W85066  42.259  14.974  14.923
18526W        W85067   9.659   1.028  12.529
18527W        W85068  33.771  42.067   3.367
18528W        W85069  14.644  16.796  13.486
18529W        W85070  27.560  26.251  13.502
18530W        W85071  37.046  31.421   2.185
18531W        W85072  16.574  12.954   3.239
18532W        W85073  15.595   6.009   2.893
18533W        W85074   6.516  16.098  14.392
18534W        W85075  19.009   1.779  12.951
18535W        W85076  41.757   5.370  12.999
18536W        W85077  31.739  19.747  14.464
18537W        W85078  42.272  35.111  13.800
18538W        W85079  33.855  19.615   0.288
18539W        W85080  33.960   6.327   3.790
18540W        W85081  28.782  34.340  14.835
18541W        W85082  25.086  23.504  10.259
18542W        W85083  27.211  10.752   2.156
18543W        W85084  16.090  23.274  14.071
18544W        W85085  15.836  35.174   3.982
18545W        W85086  22.712  44.849  11.920
18546W        W85087  32.688   6.823  10.677
18547W        W85088   8.745  11.714  12.973
18548W        W85089  23.327  29.676  11.920
18549W        W85090  35.625  29.116  11.673
18550W        W85091  15.367  16.283  14.943
18551W        W85092   6.382  18.943   3.522
18552W        W85093  30.700  18.664  13.218
18553W        W85094  29.391   0.650   0.390
18554W        W85095  11.362  39.355  11.130
18555W        W85096  15.200  13.395   4.395
18556W        W85097  32.909  39.639   0.910
18557W        W85098   9.988  32.144  10.491
18558W        W85099  16.513  27.113   0.712
18559W        W85100  18.610  17.723   1.517
18560W        W85101  14.749  18.837  14.669
18561W        W85102  29.088  30.993   3.267
18562W        W85103  44.083  25.302   2.375
18563W        W85104  17.658  39.387   4.113
18564W        W85105  14.757  28.861  10.665
18565W        W85106   8.462  43.030   2.347
18566W        W85107   6.417   6.684  14.546
18567W        W85108  39.741  24.196  14.557
18568W        W85109   5.287  12.716   3.824
18569W        W85110  13.223  37.078  12.540
18570W        W85111   2.865  27.494  14.334
18571W        W85112  20.496  24.520  13.994
18572W        W85113  21.844   5.191  14.426
18573W        W85114  43.799   7.773  13.286
18574W        W85115  36.909  28.909  12.060
18575W        W85116  10.623   1.719   3.805
18576W        W85117  32.703  42.495  14.008
18577W        W85118   5.465  34.841  11.041
18578W        W85119  43.844  15.047  12.155
18579W        W85120   1.478  37.873   2.434
18580W        W85121  39.258  10.838   3.740
18581W        W85122  29.164  27.127   4.603
18582W        W85123  44.069  44.967   1.245
18583W        W85124  22.946   2.827  10.567
18584W        W85125   2.474  17.570  14.051
18585W        W85126  28.895   0.208  11.133
18586W        W85127  11.827  26.618   4.664
18587W        W85128  29.694   4.241   3.220
18588W        W85129   3.193  37.970   0.290
18589W        W85130  31.534  15.836  10.993
18590W        W85131   7.429  17.482   3.325
18591W        W85132   0.200   8.374   2.729
18592W        W85133  22.623  30.295   4.199
18593W        W85134  29.653  36.178   5.245
18594W        W85135  11.579  24.230  11.494
18595W        W85136  13.269  34.062   1.049
18596W        W85137  25.336   9.206  13.852
18597W        W85138  30.196   4.413   0.773
18598W        W85139   5.211  19.708  12.564
18599W        W85140   3.650  27.218   1.297
18600W        W85141   4.655  22.108   9.801
18601W        W85142  29.993   9.630   0.811
18602W        W85143  39.961  36.191  14.409
18603W        W85144  24.676  42.932   0.857
18604W        W85145  35.940  12.484   2.189
18605W        W85146   8.636  40.214   3.573
18606W        W85147   3.329  37.786   4.336
18607W        W85148   9.321   0.490   2.432
18608W        W85149   9.244   0.979  12.854
18609W        W85150  42.034  37.497  13.865
18610W        W85151  22.259  10.989   3.862
18611W        W85152   8.658  31.932   2.681
18612W        W85153  25.015  34.976  14.076
18613W        W85154  24.567  28.827  12.811
18614W        W85155  22.830  28.712  11.991
18615W        W85156  29.685   5.299   2.584
18616W        W85157  17.816  28.189   2.367
18617W        W85158  29.196  29.066   4.532
18618W        W85159  17.635   5.205   3.654
18619W        W85160  41.625  18.079  13.771
18620W        W85161  42.062   8.322   2.664
18621W        W85162  34.838  29.352  13.088
18622W        W85163   9.220  34.954  11.093
18623W        W85164  22.236  19.214  10.718
18624W        W85165  40.321  29.351  10.763
18625W        W85166   6.145  22.062   1.891
18626W        W85167  16.785  13.229   0.709
18627W        W85168  44.768   3.739   1.260
18628W        W85169  26.058  33.678  12.835
18629W        W85170   8.301  25.036  11.883
18630W        W85171   3.629  22.630  11.211
18631W        W85172   6.750   9.413  13.652
18632W        W85173   9.006  37.863  11.985
18633W        W85174  31.061  13.827  11.220
18634W        W85175  12.806  18.169   3.639
18635W        W85176  38.547  39.020   2.927
18636W        W85177  18.195  40.802  13.457
18637W        W85178  35.939  27.406  10.734
18638W        W85179  18.604   8.755  10.703
18639W        W85180  15.657   2.450   3.817
18640W        W85181  31.520  17.173  10.689
18641W        W85182  35.608  35.962  13.314
18642W        W85183  24.115  24.948   1.208
18643W        W85184  38.763  11.341  13.285
18644W        W85185  36.602  15.615  11.095
18645W        W85186  35.049  17.200   1.880
18646W        W85187  18.416  18.200   4.643
18647W        W85188   5.054   3.746   0.468
18648W        W85189   5.328  39.995   3.635
18649W        W85190  25.824  16.161  13.630
18650W        W85191  28.747  25.029  14.229
18651W        W85192   1.359   2.268  13.639
18652W        W85193  32.408  25.525   2.747
18653W        W85194  31.798  25.970   2.449
18654W        W85195  40.631   3.785  13.982
18655W        W85196  14.695  23.473   5.101
18656W        W85197   6.248  24.717   3.159
18657W        W85198  17.118   5.399  10.836
18658W        W85199  44.019   9.067  11.725
18659W        W85200  28.050   5.448  13.788
18660W        W85201  29.661  11.142  10.733
18661W        W85202   6.819  43.876  12.913
18662W        W85203  12.058  35.600   4.191
18663W        W85204  31.993  39.461  11.961
18664W        W85205  14.620  31.468   0.173
18665W        W85206  20.330  15.737   2.475
18666W        W85207  44.953  10.380  12.687
18667W        W85208   5.054  17.514  12.100
18668W        W85209  43.425  28.924   3.229
18669W        W85210  41.974  20.206  12.541
18670W        W85211   3.508  19.201   0.270
18671W        W85212  13.088  20.971  12.465
18672W        W85213   4.930   8.046  14.404
18673W        W85214   0.109  27.045   2.864
18674W        W85215  42.983  34.012  12.924
18675W        W85216  25.682  29.153  11.364
18676W        W85217  32.844  30.665   3.800
18677W        W85218  44.432  29.867   2.327
18678W        W85219  12.759  27.174  11.687
18679W        W85220  14.613  11.746  12.952
18680W        W85221   9.615  11.529  12.982
18681W        W85222  32.184   5.163  12.923
18682W        W85223  30.212  23.046  14.297
18683W        W85224  26.137   3.435  13.006
18684W        W85225  22.741  40.095  14.726
18685W        W85226  25.980  17.104  14.373
18686W        W85227   0.474   0.555  12.189
18687W        W85228  15.023   2.995  14.889
18688W        W85229  43.301  13.634  13.876
18689W        W85230  19.610  36.294  11.759
18690W        W85231  24.416  31.559  11.304
18691W        W85232  19.678  26.533  11.655
18692W        W85233   4.340  14.095  13.393
18693W        W85234  15.462  39.685  10.801
18694W        W85235   0.323  30.357   4.070
18695W        W85236  24.017  41.084  13.453
18696W        W85237  20.785  33.006   2.342
18697W        W85238  31.040  15.293   3.811
18698W        W85239   9.421  21.615  11.662
18699W        W85240  41.060  13.831  12.039
18700W        W85241  13.651  17.941  12.870
18701W        W85242   3.870  42.370   0.826
18702W        W85243   5.689  39.049   2.797
18703W        W85244  30.160  35.343   2.332
18704W        W85245   2.840  15.659  14.031
18705W        W85246  18.263  14.265  12.054
18706W        W85247  36.148  38.435  10.433
18707W        W85248  19.558  41.135  14.207
18708W        W85249  34.689   5.634   2.144
18709W        W85250   7.291   9.568  13.064
18710W        W85251  44.749  21.539   4.278
18711W        W85252  22.272   8.413  10.516
18712W        W85253  13.812  41.026   0.243
18713W        W85254  30.126  10.826   0.163
18714W        W85255   8.548  18.305   0.081
18715W        W85256  34.090  44.858  11.618
18716W        W85257  42.947   8.079  12.879
18717W        W85258  39.586   2.413   3.680
18718W        W85259   5.413  23.649  10.625
18719W        W85260  13.698  25.485  13.395
18720W        W85261  21.482   2.996   1.252
18721W        W85262  11.780  21.197  14.468
18722W        W85263  27.023   5.701  11.562
18723W        W85264  31.538  32.161   4.050
18724W        W85265   7.607  27.728   4.535
18725W        W85266  32.125  20.169  11.181
18726W        W85267  28.148   5.976   0.754
18727W        W85268  28.045  23.238  10.583
18728W        W85269  30.975   0.877   2.736
18729W        W85270   0.639   6.694  11.018
18730W        W85271  34.717  25.950  11.368
18731W        W85272   9.411  11.951   3.769
18732W        W85273  12.684  16.082  14.456
18733W        W85274  19.240  28.379  13.023
18734W        W85275  25.708   4.488  13.733
18735W        W85276  41.425  12.116  14.587
18736W        W85277   9.316  34.990   4.054
18737W        W85278   1.754   5.023  10.121
18738W        W85279  32.638   8.789   2.312
18739W        W85280  26.213  36.524   2.129
18740W        W85281   4.295  44.397   0.451
18741W        W85282  22.051   8.179   4.238
18742W        W85283  28.341  11.657  11.645
18743W        W85284  42.269   5.397  12.851
18744W        W85285  41.137  39.402  12.028
18745W        W85286  24.991  10.161  13.777
18746W        W85287   6.153  29.962   4.708
18747W        W85288   6.697   3.774  14.395
18748W        W85289  27.871   8.335  12.749
18749W        W85290  28.025  12.585  11.561
18750W        W85291  33.093  35.556   1.690
18751W        W85292   6.500  38.466  11.891
18752W        W85293  20.098   2.035  11.592
18753W        W85294   6.081  38.074  12.580
18754W        W85295   7.266  33.130   3.332
18755W        W85296  27.452  19.547   3.350
18756W        W85297  22.910  31.432  14.884
18757W        W85298  33.856  33.099   4.120
18758W        W85299  10.556  25.493  14.278
18759W        W85300  18.244  16.789  11.462
18760W        W85301  12.803  13.178   2.234
18761W        W85302  30.060  25.524   1.363
18762W        W85303  25.144  34.507   0.987
18763W        W85304  23.636  18.064  13.776
18764W        W85305  41.312   0.280   3.846
18765W        W85306  32.429  20.226   0.774
18766W        W85307   9.436  22.652  14.332
18767W        W85308  13.622   8.188   1.760
18768W        W85309  19.354  21.318  12.116
18769W        W85310  18.031  44.940   2.620
18770W        W85311  35.053   0.512   1.790
18771W        W85312  39.652  36.748   0.427
18772W        W85313   9.463  42.871  14.848
18773W        W85314  40.268   7.065   2.772
18774W        W85315  40.099  41.015   3.173
18775W        W85316  31.639  28.990   3.212
18776W        W85317  10.978   0.368  13.297
18777W        W85318  30.514  19.103   4.628
18778W        W85319  39.075  36.987  11.459
18779W        W85320   4.784  21.634   2.723
18780W        W85321  11.247  28.393   0.644
18781W        W85322  29.075  37.491   1.987
18782W        W85323  27.926  13.869   3.724
18783W        W85324  44.610   2.238  14.356
18784W        W85325  37.297   2.842  11.071
18785W        W85326  23.751  30.623  12.631
18786W        W85327  20.658  28.366   0.059
18787W        W85328  41.655  43.950   4.182
18788W        W85329  41.701   4.221  12.131
18789W        W85330   9.829  42.564   2.741
18790W        W85331  21.163  38.280   3.853
18791W        W85332   8.099  11.653   4.782
18792W        W85333  43.549  36.820   4.304
18793W        W85334  32.999   8.242   1.239
18794W        W85335  16.056  18.077   2.351
18795W        W85336  32.308  36.969  13.072
18796W        W85337  26.310  11.887   1.327
18797W        W85338  11.168  37.518   3.187
18798W        W85339   3.231  27.094  12.926
18799W        W85340  27.100  36.991   4.320
18800W        W85341  32.579  16.096  12.014
18801W        W85342  22.523  12.801   3.220
18802W        W85343  31.568  18.698  11.388
18803W        W85344  31.044  13.904  12.108
18804W        W85345  18.631   3.828   0.766
18805W        W85346  40.683  22.200  12.058
18806W        W85347   5.935  32.610  14.958
18807W        W85348   3.818  20.926  12.398
18808W        W85349  44.892  34.907  11.324
18809W        W85350   2.323  26.267  11.409
18810W        W85351  16.254   8.266  10.707
18811W        W85352  12.253  40.878   4.520
18812W        W85353  40.472  36.654  12.185
18813W        W85354  18.676  14.125   3.751
18814W        W85355  31.158  27.151   4.693
18815W        W85356  18.275  19.859   1.522
18816W        W85357   9.806   3.562   4.686
18817W        W85358  37.503  14.101  11.480
18818W        W85359  17.206  40.380  13.525
18819W        W85360  13.817  39.897   2.806
18820W        W85361   9.188  36.566  14.194
18821W        W85362   4.203  40.427   4.371
18822W        W85363   7.280  25.397  14.330
18823W        W85364  25.292  14.580  14.059
18824W        W85365   8.883  16.968  14.487
18825W        W85366  19.563  35.667  11.165
18826W        W85367  29.043  41.754   4.903
18827W        W85368  35.913   6.657  11.984
18828W        W85369   9.459   3.969  12.592
18829W        W85370  12.836   8.235   0.688
18830W        W85371  31.412   4.266  11.106
18831W        W85372   4.705  12.817   3.031
18832W        W85373  11.110  29.976  12.895
18833W        W85374  44.393  32.377   1.782
18834W        W85375  40.444  31.457  14.686
18835W        W85376   2.238  10.680  13.958
18836W        W85377   4.922  29.027  12.519
18837W        W85378  33.390   4.428   2.266
18838W        W85379  32.953  25.799  12.507
18839W        W85380  28.103  15.697   3.327
18840W        W85381  21.920  42.587   2.608
18841W        W85382  44.787  23.895   4.224
18842W        W85383  29.440  37.846  10.529
18843W        W85384  17.978  21.289  14.417
18844W        W85385  13.179  41.889  12.697
18845W        W85386  20.621   8.060  13.133
18846W        W85387  22.590   2.139  12.201
18847W        W85388  31.920  33.408  14.913
18848W        W85389   9.428  43.233   0.923
18849W        W85390  39.191  29.436  14.043
18850W        W85391   8.188  32.055  14.715
18851W        W85392  24.916   9.829   1.331
18852W        W85393  34.973  14.824  12.133
18853W        W85394  19.150   6.011  10.769
18854W        W85395  14.682  39.045   2.373
18855W        W85396  21.757   8.361   2.682
18856W        W85397  24.490   2.871   2.174
18857W        W85398  30.592  34.966   0.688
18858W        W85399  24.673  22.251   4.085
18859W        W85400  42.599  12.175   2.174
18860W        W85401  33.588  16.404   0.630
18861W        W85402  33.136  37.138  11.196
18862W        W85403  31.292  19.733  10.229
18863W        W85404   8.376   4.432   2.468
18864W        W85405   8.218  34.829  10.508
18865W        W85406  13.329  12.340   2.436
18866W        W85407  34.134   4.044   3.221
18867W        W85408  40.291  25.771  13.837
18868W        W85409  24.226  26.481  10.305
18869W        W85410  37.933  13.683   5.348
18870W        W85411  21.392  34.620   1.789
18871W        W85412  35.962   1.749   3.889
18872W        W85413   8.023  12.717  10.133
18873W        W85414  36.607  11.290  12.808
18874W        W85415  37.289  16.473   1.716
18875W        W85416  14.748  20.130  10.441
18876W        W85417   2.495  28.164   3.632
18877W        W85418  41.480  21.167   2.019
18878W        W85419  23.445  31.380  14.804
18879W        W85420  24.051  28.433   4.656
18880W        W85421  26.200  34.555   1.884
18881W        W85422   6.639  29.180   2.692
18882W        W85423  11.786   6.993   0.030
18883W        W85424  21.733  13.418  10.637
18884W        W85425  11.233  18.538  11.571
18885W        W85426   7.224   8.199   4.589
18886W        W85427   3.167  17.371   0.868
18887W        W85428  30.000  38.575  14.242
18888W        W85429   9.390  21.191  11.957
18889W        W85430  28.490  13.822  13.330
18890W        W85431  42.944  39.474   1.504
18891W        W85432  12.535  14.308   2.179
18892W        W85433  33.581  20.792   4.576
18893W        W85434  32.033  15.375   1.335
18894W        W85435  15.338  27.108   2.914
18895W        W85436   8.681  28.740   1.257
18896W        W85437  28.182  30.162   2.448
18897W        W85438  16.746   0.647  13.014
18898W        W85439  29.684  14.501  14.122
18899W        W85440  15.167  27.246  13.573
18900W        W85441  25.184  35.003   2.810
18901W        W85442   9.740  38.974   0.714
18902W        W85443  15.742  38.248   1.482
18903W        W85444  41.810  16.773   0.443
18904W        W85445  10.098   9.226  13.913
18905W        W85446   6.954  22.154   4.765
18906W        W85447  10.575   3.109  12.854
18907W        W85448  38.412  19.693   1.007
18908W        W85449  13.649  44.013  14.298
18909W        W85450  31.486  20.845  12.897
18910W        W85451  24.431  35.218  14.549
18911W        W85452  11.785  42.238  11.552
18912W        W85453  10.410  16.818   4.082
18913W        W85454  33.628   7.689  10.894
18914W        W85455  20.440  10.239  10.268
18915W        W85456  34.993   0.463  14.870
18916W        W85457  17.830  29.196   3.651
18917W        W85458  23.127   9.273  10.253
18918W        W85459  37.557  33.565   2.811
18919W        W85460  25.594  20.767  10.395
18920W        W85461  39.057  19.945  12.104
18921W        W85462   0.168  20.604  13.102
18922W        W85463  40.858  32.201  13.759
18923W        W85464  18.372   4.724  12.417
18924W        W85465  32.971  22.652  12.349
18925W        W85466  17.551  23.704  13.830
18926W        W85467  32.513  26.703   4.645
18927W        W85468  16.310  13.142  13.415
18928W        W85469   9.133  29.676  13.745
18929W        W85470  22.238   7.151  14.079
18930W        W85471  38.621  29.222  13.016
18931W        W85472  13.856  20.779   2.982
18932W        W85473  20.994  22.391   3.912
18933W        W85474   6.359  18.268  12.364
18934W        W85475  38.427  11.368   0.201
18935W        W85476  32.468   9.883  13.576
18936W        W85477  21.736  33.146  10.888
18937W        W85478  12.429   1.749   3.298
18938W        W85479  11.724  32.880   3.560
18939W        W85480  11.716   2.458   0.933
18940W        W85481   1.655  16.082   0.214
18941W        W85482   4.977  22.694  14.806
18942W        W85483   7.297  12.700   3.585
18943W        W85484  21.338  32.557   3.817
18944W        W85485  41.832  42.740  13.795
18945W        W85486  35.325   1.586  12.668
18946W        W85487  40.472   2.255  12.414
18947W        W85488  22.494  12.612  14.857
18948W        W85489   3.772  19.025  13.418
18949W        W85490  44.214   4.145  10.431
18950W        W85491  40.289  13.753  14.908
18951W        W85492   9.724   3.572   3.280
18952W        W85493  27.111  36.945  12.513
18953W        W85494  44.277  25.910   3.487
18954W        W85495  22.604  33.073   2.192
18955W        W85496   6.207  29.946   0.785
18956W        W85497   0.554  33.804   0.493
18957W        W85498  14.689  23.550   3.690
18958W        W85499   1.839   7.843   0.496
18959W        W85500  21.114  36.451  12.279
18960W        W85501   4.788  25.072   1.700
18961W        W85502  34.142   1.729   3.779
18962W        W85503  33.033  10.079  13.537
18963W        W85504   1.362   1.561  10.647
18964W        W85505  27.124   7.227   1.373
18965W        W85506  33.208  36.327   3.240
18966W        W85507  30.147  26.857   4.607
18967W        W85508   2.824  42.722   2.196
18968W        W85509   4.910  25.076  13.018
18969W        W85510  30.546  40.032  14.285
18970W        W85511  40.809  26.235  11.046
18971W        W85512   6.700  16.877  12.029
18972W        W85513  22.148  27.864  14.851
18973W        W85514  32.759  29.494  12.407
18974W        W85515  36.586  41.371   0.802
18975W        W85516  38.374   8.494   3.238
18976W        W85517  28.453   4.467   3.845
18977W        W85518  10.826  11.785  12.978
18978W        W85519  27.666  30.219   2.747
18979W        W85520  15.984   4.303  12.376
18980W        W85521  12.212  38.405   4.831
18981W        W85522  12.658  19.215   1.881
18982W        W85523  29.957  30.029  12.547
18983W        W85524  38.566   5.957   4.098
18984W        W85525  41.758  36.610   2.649
18985W        W85526  41.175  41.707  14.007
18986W        W85527  10.985  20.230   0.856
18987W        W85528  43.910  35.659   2.699
18988W        W85529  15.568  39.498   2.942
18989W        W85530  12.674   4.507  14.523
18990W        W85531  44.125   2.754  13.532
18991W        W85532  27.108   1.483  13.750
18992W        W85533  10.937  35.642  11.874
18993W        W85534  32.268  33.987  13.529
18994W        W85535  40.270  31.229  13.343
18995W        W85536  25.641  42.568   1.786
18996W        W85537  37.001  20.210  14.794
18997W        W85538  12.413   3.945  12.505
18998W        W85539  22.429  43.702   2.305
18999W        W85540   4.436  41.659   4.237
19000W        W85541  23.028   4.824   3.115
19001W        W85542  19.826  22.666   4.572
19002W        W85543  33.843  20.032   4.340
19003W        W85544   0.850  39.362  13.391
19004W        W85545  18.088  31.477  11.636
19005W        W85546  36.754  30.189   0.911
19006W        W85547  19.231  32.400  14.344
19007W        W85548   7.406  28.424  12.996
19008W        W85549  37.006  24.678  11.938
19009W        W85550   4.356  43.828  13.239
19010W        W85551   3.179   8.018  12.104
19011W        W85552   0.803   3.587  10.557
19012W        W85553   8.206   6.265  10.695
19013W        W85554  10.350  22.568   4.571
19014W        W85555  29.497  26.298  13.671
19015W        W85556  34.661   9.803   4.572
19016W        W85557  18.722   7.317   5.005
19017W        W85558  44.288  14.362   3.638
19018W        W85559  32.027  21.741  14.807
19019W        W85560   2.555  12.446   4.231
19020W        W85561   5.489   2.472  12.055
19021W        W85562  13.588  27.036   4.714
19022W        W85563  41.508   5.645   0.651
19023W        W85564  36.529  16.794  12.222
19024W        W85565  22.536  37.782  11.235
19025W        W85566   8.130   4.262   4.377
19026W        W85567  29.445  17.429  14.274
19027W        W85568  13.087  24.723  10.558
19028W        W85569   8.699  33.459   0.990
19029W        W85570   1.286  27.426   1.583
19030W        W85571  18.629   9.170   2.434
19031W        W85572  12.372  19.182   4.796
19032W        W85573  27.618  41.957  12.387
19033W        W85574  11.844  33.540  11.518
19034W        W85575  11.103  41.351   2.678
19035W        W85576  15.901   7.841  10.691
19036W        W85577  34.702   8.339  11.661
19037W        W85578  17.295  18.472  13.860
19038W        W85579   1.982  22.709   4.242
19039W        W85580   9.824  24.574   2.087
19040W        W85581   6.814   9.228   2.799
19041W        W85582  22.394  10.627  14.894
19042W        W85583  30.058  35.439   1.268
19043W        W85584  30.622  27.204   1.245
19044W        W85585  36.054  36.358   1.336
19045W        W85586  18.303  38.570  11.162
19046W        W85587   6.853   9.621   0.461
19047W        W85588  20.111  34.671   9.984
19048W        W85589  10.381  37.094  14.845
19049W        W85590   4.706  25.554   1.877
19050W        W85591  20.233   8.684  13.413
19051W        W85592  25.163   2.473  13.964
19052W        W85593   0.483  15.294   1.290
19053W        W85594  35.140  27.592   3.717
19054W        W85595  43.965   0.356  12.962
19055W        W85596   3.175  32.070  11.663
19056W        W85597  11.338  37.762  14.306
19057W        W85598  33.615  28.403  12.905
19058W        W85599  40.273  44.750  12.437
19059W        W85600  37.019   4.877  12.570
19060W        W85601  38.986  43.976   1.286
19061W        W85602   2.289  12.612   3.565
19062W        W85603  25.119  29.219   2.812
19063W        W85604  12.849  20.236   1.816
19064W        W85605  11.379  10.769   2.655
19065W        W85606  40.270  21.071   4.187
19066W        W85607  31.897   7.884  12.671
19067W        W85608   7.784  24.074  13.419
19068W        W85609   7.355  30.737   0.925
19069W        W85610  15.581  25.650  14.783
19070W        W85611   3.021   1.047  11.978
19071W        W85612  34.344  27.837  11.479
19072W        W85613  14.641   7.678   0.495
19073W        W85614  25.093  24.187  11.565
19074W        W85615  20.721  37.975   0.981
19075W        W85616  24.237  43.335  13.036
19076W        W85617  34.948  30.491  10.709
19077W        W85618  12.789  36.048  13.085
19078W        W85619  17.144  28.850  11.572
19079W        W85620   5.082  24.280   2.206
19080W        W85621  15.232  32.515   2.838
19081W        W85622   0.989  17.193   2.851
19082W        W85623  32.449  18.600  14.984
19083W        W85624  39.104  39.971   1.227
19084W        W85625  37.812  39.815   3.923
19085W        W85626  43.449   3.919  13.697
19086W        W85627  10.769  42.172  13.865
19087W        W85628  41.920  15.199   2.842
19088W        W85629  12.812   1.615  12.037
19089W        W85630  15.131  33.745   2.196
19090W        W85631  42.015  43.068  13.453
19091W        W85632   6.191  35.343   2.868
19092W        W85633  32.196  38.574   3.217
19093W        W85634  31.686   7.448  14.930
19094W        W85635  36.595  36.109   4.196
19095W        W85636  34.323   4.356  10.183
19096W        W85637  40.354  44.755   3.723
19097W        W85638   9.828  23.461   2.260
19098W        W85639   9.115   9.297   2.085
19099W        W85640  29.403  19.162  14.938
19100W        W85641  20.535  39.698   2.088
19101W        W85642   4.316  22.757   4.256
19102W        W85643  10.731   6.265   1.525
19103W        W85644   9.367   1.292  13.327
19104W        W85645  18.227  19.252  12.554
19105W        W85646  37.243   3.952   3.235
19106W        W85647   3.786  15.313   4.358
19107W        W85648  24.565  32.182   4.781
19108W        W85649  43.459  24.299   1.211
19109W        W85650   1.710  19.337   1.668
19110W        W85651  24.320  26.583  13.473
19111W        W85652  15.050   4.473   0.775
19112W        W85653   8.297   2.916   0.714
19113W        W85654  35.145  29.440  12.679
19114W        W85655   5.073  25.984  14.759
19115W        W85656  14.074  28.010  14.877
19116W        W85657   7.246  22.696   1.704
19117W        W85658   7.199   0.201  14.353
19118W        W85659  27.502   5.165  12.914
19119W        W85660   4.406  38.764   1.180
19120W        W85661  21.227   0.726   3.963
19121W        W85662  44.047  38.881   2.840
19122W        W85663  26.800  39.396   3.182
19123W        W85664   6.434  37.904  10.526
19124W        W85665  15.671  20.320  13.334
19125W        W85666  16.619  14.348  13.038
19126W        W85667  31.652  38.244  12.932
19127W        W85668  39.445  26.507  14.966
19128W        W85669  38.863  36.955  13.563
19129W        W85670  18.617  28.576   0.835
19130W        W85671   4.001  10.480   0.388
19131W        W85672  13.029  35.617  10.974
19132W        W85673  39.786   6.694  12.935
19133W        W85674   7.907  33.911  12.839
19134W        W85675  12.603  35.950   2.776
19135W        W85676  25.627   3.353   0.553
19136W        W85677  22.004  15.007  10.240
19137W        W85678   5.917  42.777   4.332
19138W        W85679  10.200  44.197  10.697
19139W        W85680  31.260   1.834   5.095
19140W        W85681  18.991  16.366  11.181
19141W        W85682  23.426  28.535   2.496
19142W        W85683  39.036  29.006  14.381
19143W        W85684  28.119  24.263  11.956
19144W        W85685   5.815  25.582   0.846
19145W        W85686  25.907  31.396   4.125
19146W        W85687  32.593   6.399   2.693
19147W        W85688   0.448  29.560  12.439
19148W        W85689  30.712   5.602  10.743
19149W        W85690  19.879   9.349  11.591
19150W        W85691  39.732  35.063  11.975
19151W        W85692  12.257  26.129  11.878
19152W        W85693  24.027   4.979  12.049
19153W        W85694  37.031  13.800  12.970
19154W        W85695  31.653   4.795   1.756
19155W        W85696  41.591  17.994   3.800
19156W        W85697   3.732   1.362  14.439
19157W        W85698  33.663  13.064   2.307
19158W        W85699  38.921  14.912  10.835
19159W        W85700   5.485  32.525   4.511
19160W        W85701  28.676   6.402   3.795
19161W        W85702  25.634  23.620  11.968
19162W        W85703   8.150  11.047  13.872
19163W        W85704  14.242  19.483  11.019
19164W        W85705  36.070  44.512   4.546
19165W        W85706  16.144   0.295  11.068
19166W        W85707  21.084   0.215  11.511
19167W        W85708  15.233  41.762   0.303
19168W        W85709  15.225  31.946  11.758
19169W        W85710   9.458   5.434   0.692
19170W        W85711  10.190   7.759  13.983
19171W        W85712  11.029  21.205  12.499
19172W        W85713  24.964  26.293   1.714
19173W        W85714  25.258  22.039   1.798
19174W        W85715  15.699  18.710   3.773
19175W        W85716  29.745  10.367   3.693
19176W        W85717  34.543  29.260   2.602
19177W        W85718   7.102   7.670  12.460
19178W        W85719  20.551  20.994   0.360
19179W        W85720  19.415   5.928  13.431
19180W        W85721  39.284  19.526   0.897
19181W        W85722  43.711  32.996  11.657
19182W        W85723  10.879  12.741   2.815
19183W        W85724  16.770  19.591  12.066
19184W        W85725  39.401   0.249  10.863
19185W        W85726  33.802  41.335  11.912
19186W        W85727  28.970   4.756   1.433
19187W        W85728  21.236  16.600   2.863
19188W        W85729  12.701  30.083   4.098
19189W        W85730  35.622  29.454   4.998
19190W        W85731  28.879   6.897  11.976
19191W        W85732   1.846  16.179  13.169
19192W        W85733  12.777  18.582  12.627
19193W        W85734  33.317  13.032  14.897
19194W        W85735  17.321  27.661   3.246
19195W        W85736  38.907  36.852  12.548
19196W        W85737  42.990  36.407   0.005
19197W        W85738   0.634   8.164  12.065
19198W        W85739  19.746  22.735  14.391
19199W        W85740  37.807  11.213  14.280
19200W        W85741  20.716  33.318   2.762
19201W        W85742  15.081  30.402   2.626
19202W        W85743  26.096  18.564   2.687
19203W        W85744  27.182   9.886   0.955
19204W        W85745   3.184  16.342  14.851
19205W        W85746  36.352  11.167   4.535
19206W        W85747  26.635  43.511  13.074
19207W        W85748  41.769  29.655   3.218
19208W        W85749  14.827  21.539  10.515
19209W        W85750  35.484  39.810  14.339
19210W        W85751  10.711  33.707   3.308
19211W        W85752  19.337  28.021  14.880
19212W        W85753  33.807   0.563  14.809
19213W        W85754  36.052  30.545   3.423
19214W        W85755  26.052   6.942   1.890
19215W        W85756  40.546   7.853   1.806
19216W        W85757  16.831   3.235   2.145
19217W        W85758  43.726  12.194   2.686
19218W        W85759  20.004  10.577   3.770
19219W        W85760  20.568   1.807  14.121
19220W        W85761   1.790  25.141  13.996
19221W        W85762  32.421  38.374  14.868
19222W        W85763  35.641  44.306   3.178
19223W        W85764  21.664  29.217  11.198
19224W        W85765  37.276  38.102   3.807
19225W        W85766   7.416   0.760  10.957
19226W        W85767  40.702  21.702   3.285
19227W        W85768  22.691  41.740   4.522
19228W        W85769  19.690  12.093   0.035
19229W        W85770  16.303  41.141  13.131
19230W        W85771  11.764  32.141  14.932
19231W        W85772  38.122   3.664  13.942
19232W        W85773  42.005  34.443   1.323
19233W        W85774  10.027  10.607   4.442
19234W        W85775   3.146  20.068   3.851
19235W        W85776  10.238  11.644   0.029
19236W        W85777  11.828   1.405  13.159
19237W        W85778   4.777  16.734   4.386
19238W        W85779  20.592  25.912  10.736
19239W        W85780  37.841  27.080  11.054
19240W        W85781  32.145  27.967   4.989
19241W        W85782  34.496  34.085   2.183
19242W        W85783  12.053  30.804  10.639
19243W        W85784  10.819   6.990   3.237
19244W        W85785  42.572  17.677  12.214
19245W        W85786  43.330  13.407   5.036
19246W        W85787  41.850  21.063  13.081
19247W        W85788   2.848   5.416  11.482
19248W        W85789  31.063  12.813   3.641
19249W        W85790   8.164   3.637  13.183
19250W        W85791   8.942  27.718   1.359
19251W        W85792  29.562  34.601  14.484
19252W        W85793  43.914  38.155  13.751
19253W        W85794  21.708  12.803  12.214
19254W        W85795  18.697  40.483   2.271
19255W        W85796  43.040  32.595  12.901
19256W        W85797  18.328  23.528  12.504
19257W        W85798   1.201  44.355   0.249
19258W        W85799   2.043  10.017   4.924
19259W        W85800  36.906  44.856   3.312
19260W        W85801   8.969  43.326   2.579
19261W        W85802  20.649  30.969  10.630
19262W        W85803  35.482  34.550  12.002
19263W        W85804  12.113  15.293   2.860
19264W        W85805  19.979  12.250  10.451
19265W        W85806  15.191  38.027  14.945
19266W        W85807   8.137  25.633   4.945
19267W        W85808   9.922   6.119  11.068
19268W        W85809  34.627  12.209   0.411
19269W        W85810  19.185  24.791   0.808
19270W        W85811  33.329   2.916  12.014
19271W        W85812  41.358   7.962  13.093
19272W        W85813   1.748  35.537  13.359
19273W        W85814  41.419  40.739  11.049
19274W        W85815  40.648  39.025   4.581
19275W        W85816  39.318   4.466  10.584
19276W        W85817   3.900   2.083   3.597
19277W        W85818  44.933  34.852  13.493
19278W        W85819  29.660  33.578   4.013
19279W        W85820  41.718  41.327   1.339
19280W        W85821   4.530  42.867  10.049
19281W        W85822  18.295   3.725  12.677
19282W        W85823  18.996   5.442   0.891
19283W        W85824  29.185   2.925  13.913
19284W        W85825   5.289  39.612   0.218
19285W        W85826  12.740  41.401  13.273
19286W        W85827  35.143  34.171   0.387
19287W        W85828   6.640  41.507  12.680
19288W        W85829   7.500  10.907  12.731
19289W        W85830  13.649  14.206  14.545
19290W        W85831  32.670  43.488  14.249
19291W        W85832   4.798  14.777  14.512
19292W        W85833   4.913  43.991  11.450
19293W        W85834  13.176   2.678   4.310
19294W        W85835   8.427  27.820  13.973
19295W        W85836  18.000  33.894  13.473
19296W        W85837   4.549  24.437  13.305
19297W        W85838  11.178   4.466  14.019
19298W        W85839  27.005  37.514   4.097
19299W        W85840  27.556  13.777   4.290
19300W        W85841   9.818  44.754  12.957
19301W        W85842  25.922  22.588  14.475
19302W        W85843  16.548  23.776  11.704
19303W        W85844  42.509   8.462   2.384
19304W        W85845  36.922   9.479   0.076
19305W        W85846  12.855  18.973  12.997
19306W        W85847  16.035  10.238   0.319
19307W        W85848   2.114  10.314  12.199
19308W        W85849  23.534  14.796  14.585
19309W        W85850   8.395   1.900  14.544
19310W        W85851  36.383  30.946   5.030
19311W        W85852  31.591  32.704  11.636
19312W        W85853  33.049  44.765  14.454
19313W        W85854   6.166  20.275   2.265
19314W        W85855   2.085   3.904  13.471
19315W        W85856  19.618  34.036  12.013
19316W        W85857  30.523  25.477   3.185
19317W        W85858  19.538   8.417  13.751
19318W        W85859  10.155  43.041   3.277
19319W        W85860   1.870   9.125  12.450
19320W        W85861  25.186   5.227  12.579
19321W        W85862  27.187   7.419  14.880
19322W        W85863  28.714   4.441   3.403
19323W        W85864  41.950  35.036  10.717
19324W        W85865  16.801  42.043   2.758
19325W        W85866  25.802  34.343  11.498
19326W        W85867  38.061   2.941  14.542
19327W        W85868  11.431  19.435   1.174
19328W        W85869  28.046  41.971   0.638
19329W        W85870  30.427  39.273  11.158
19330W        W85871  28.689   9.944  14.405
19331W        W85872  22.495   3.940   0.867
19332W        W85873  18.068   1.672   2.305
19333W        W85874   7.937   3.163   1.755
19334W        W85875   7.221  34.202   1.737
19335W        W85876  25.396  35.310  14.265
19336W        W85877  38.816  10.269   2.182
19337W        W85878  25.668  20.779  12.568
19338W        W85879  25.619  44.105  12.194
19339W        W85880  28.557  26.479  12.484
19340W        W85881   6.432   2.314   4.877
19341W        W85882   4.629  32.072   1.454
19342W        W85883   6.181  34.985  14.961
19343W        W85884  40.049  36.890   1.718
19344W        W85885  24.528   7.758  12.271
19345W        W85886   2.525  39.946   4.207
19346W        W85887  10.340   0.991   2.754
19347W        W85888  37.410  28.599   2.617
19348W        W85889  23.268   1.840  10.558
19349W        W85890   3.467  16.186   0.261
19350W        W85891  20.163  19.451   2.717
19351W        W85892   6.408  17.549  10.616
19352W        W85893  34.321  27.074  14.613
19353W        W85894  42.330  43.726  12.135
19354W        W85895  19.239  35.163   1.287
19355W        W85896  19.191  22.467  14.411
19356W        W85897   6.064  44.285  11.004
19357W        W85898  24.078  19.143  12.508
19358W        W85899   9.842  25.359  11.587
19359W        W85900  38.993   5.181  13.086
19360W        W85901  42.399  28.107  13.974
19361W        W85902  43.445  36.522  13.879
19362W        W85903  12.152  18.147  11.145
19363W        W85904  16.733  32.635   2.431
19364W        W85905  28.088   6.335   2.852
19365W        W85906  18.162  24.738   2.875
19366W        W85907  22.284  10.492   3.707
19367W        W85908  18.405  22.003   1.545
19368W        W85909  13.055  26.774  14.556
19369W        W85910  34.160  26.598  14.787
19370W        W85911   9.537   7.302   4.916
19371W        W85912  11.172   7.198  13.302
19372W        W85913   8.970   0.253   1.987
19373W        W85914  13.434  37.684  11.023
19374W        W85915  29.441   9.439   2.741
19375W        W85916  19.829  28.708  11.236
19376W        W85917  15.406  41.065   3.754
19377W        W85918  10.063  29.178  12.794
19378W        W85919   6.023   8.123   5.036
19379W        W85920   9.727  25.904  12.481
19380W        W85921   8.440   6.254   1.741
19381W        W85922  40.173  12.256  12.150
19382W        W85923  24.000  27.689   4.146
19383W        W85924  36.310  34.195  11.742
19384W        W85925   0.427  37.516   2.904
19385W        W85926   2.252   9.277  13.388
19386W        W85927  19.698  24.254   4.959
19387W        W85928   0.833  10.605   2.362
19388W        W85929  21.563  44.926  10.719
19389W        W85930  22.126  40.601   4.792
19390W        W85931  17.521  17.816   3.190
19391W        W85932  17.264  43.288  14.393
19392W        W85933  28.873  20.210  11.846
19393W        W85934  19.174   7.515   0.577
19394W        W85935   7.131  10.676   2.821
19395W        W85936   6.448  17.613   1.394
19396W        W85937   0.402  43.005   0.759
19397W        W85938   4.978  10.189   4.476
19398W        W85939  17.178  25.048   4.037
19399W        W85940  32.751  39.366  10.752
19400W        W85941  13.189  15.105  11.205
19401W        W85942   5.158  25.661  10.769
19402W        W85943  30.400  42.888   5.057
19403W        W85944  30.136  16.592  14.518
19404W        W85945  20.668  17.857  14.980
19405W        W85946  34.632  39.327   3.134
19406W        W85947   1.762  11.823   3.116
19407W        W85948  36.769  20.023   2.174
19408W        W85949  42.527  11.492  10.411
19409W        W85950   0.221  28.554  13.941
19410W        W85951  41.114  43.451   3.560
19411W        W85952  42.881   1.994   4.248
19412W        W85953  31.756  14.656   3.574
19413W        W85954  44.551  27.047  10.952
19414W        W85955  13.833  38.820  10.715
19415W        W85956   7.173   0.695   3.710
19416W        W85957  39.404  28.232  10.767
19417W        W85958  43.446  11.761   0.734
19418W        W85959  42.896  43.406   0.247
19419W        W85960  17.474  26.229   3.328
19420W        W85961   9.429  44.270   0.824
19421W        W85962  36.521  20.285  12.128
19422W        W85963  40.307  31.581   0.733
19423W        W85964   6.103  44.395   2.925
19424W        W85965   9.358  41.421   2.116
19425W        W85966  31.442   6.138   3.074
19426W        W85967   4.323  32.299   4.439
19427W        W85968   8.582  28.486   3.394
19428W        W85969  34.143  10.384  14.490
19429W        W85970  16.507  30.217  11.645
19430W        W85971  41.761  41.125  11.067
19431W        W85972  12.923   9.422   1.380
19432W        W85973  30.891   5.309  11.136
19433W        W85974  16.302  44.764   4.621
19434W        W85975  23.850  43.932  14.588
19435W        W85976  40.118   5.297  14.724
19436W        W85977  31.340  14.287   3.120
19437W        W85978   6.136  22.302  11.615
19438W        W85979  42.578  22.306   4.935
19439W        W85980  25.545  33.992   4.446
19440W        W85981  31.607  19.889  13.557
19441W        W85982  21.196  15.716   2.376
19442W        W85983  20.606  14.722  11.634
19443W        W85984  22.065   6.735   2.747
19444W        W85985   4.387   7.447   0.748
19445W        W85986  32.936   8.281   1.768
19446W        W85987  40.581  39.937   0.494
19447W        W85988  38.040  20.550  12.910
19448W        W85989  16.781   1.327  11.583
19449W        W85990  24.088   0.890  11.717
19450W        W85991  41.755  22.002  14.825
19451W        W85992  15.293  18.547  11.110
19452W        W85993  34.415  26.531  11.944
19453W        W85994  40.002  29.999   3.262
19454W        W85995  24.056  13.640  13.030
19455W        W85996  16.523  21.273   3.250
19456W        W85997   4.676   5.637  13.758
19457W        W85998  30.751   5.432  13.396
19458W        W85999  42.464  15.722  12.098
19459W        W86000  37.429  18.739   4.320
19460W        W86001  35.032  39.936  13.028
19461W        W86002  42.862  12.296  12.681
19462W        W86003  43.479  32.845   3.318
19463W        W86004  32.861   2.651  12.067
19464W        W86005  40.583  37.621   0.562
19465W        W86006  10.721  26.987  12.369
19466W        W86007  43.423   8.584  12.404
19467W        W86008   0.616  25.421   0.284
19468W        W86009  24.550  36.407   4.522
19469W        W86010  42.437  35.998   4.076
19470W        W86011   3.508  14.213  13.747
19471W        W86012  42.897  30.157   0.458
19472W        W86013  34.406  12.222  14.372
19473W        W86014  24.576  18.492  11.967
19474W        W86015  25.040  26.614   3.340
19475W        W86016  39.041  35.027  12.443
19476W        W86017   7.112  37.996   4.956
19477W        W86018  14.363  16.359   2.326
19478W        W86019   6.384  30.740   1.158
19479W        W86020  24.036   9.197  13.323
19480W        W86021   1.751  22.220   0.862
19481W        W86022   8.394  11.084   0.503
19482W        W86023   8.594  34.210   3.231
19483W        W86024   7.009  43.821  12.080
19484W        W86025  12.703  11.632   2.371
19485W        W86026  12.144  44.371  12.300
19486W        W86027  23.795  14.135   0.018
19487W        W86028  41.439  23.660  13.382
19488W        W86029  38.396  27.067  10.945
19489W        W86030  25.690  20.210   0.742
19490W        W86031   1.628  44.285   4.975
19491W        W86032  37.070   5.712  10.348
19492W        W86033  11.928  17.381   4.247
19493W        W86034  11.418  43.011  13.126
19494W        W86035  26.265  11.853  10.755
19495W        W86036  39.604  39.135   4.281
19496W        W86037  34.391  20.760   3.194
19497W        W86038  10.257  18.597   3.588
19498W        W86039  21.701  17.507   9.895
19499W        W86040  35.125  36.005  12.650
19500W        W86041   9.376  12.666  13.460
19501W        W86042  42.623   5.535  11.583
19502W        W86043  11.802  12.816   4.006
19503W        W86044  17.528  11.504   2.660
19504W        W86045  12.672  12.813   4.362
19505W        W86046  16.222  38.887  10.707
19506W        W86047  43.470  25.557  10.596
19507W        W86048  40.576  41.989   1.897
19508W        W86049  42.455  37.491   2.138
19509W        W86050   0.876  13.280   0.788
19510W        W86051   7.645  18.269   4.014
19511W        W86052   1.814  16.200  13.680
19512W        W86053  23.224   9.307   3.743
19513W        W86054  36.921  21.799   1.374
19514W        W86055  37.043  10.429  14.486
19515W        W86056  35.162  35.897   2.460
19516W        W86057  42.533  39.919  13.520
19517W        W86058   1.955  21.501  14.000
19518W        W86059  12.844   3.381   3.807
19519W        W86060  31.461   1.254  14.952
19520W        W86061   4.678  36.897   0.166
19521W        W86062  37.395  24.511   3.581
19522W        W86063  13.417  32.846   2.794
19523W        W86064  42.400  40.277  13.891
19524W        W86065  40.859  36.950  11.503
19525W        W86066  37.494  22.870   4.999
19526W        W86067  26.623  27.718   0.337
19527W        W86068  15.678  21.713  12.080
19528W        W86069  17.759  24.569  12.857
19529W        W86070  16.221  26.166   1.963
19530W        W86071  35.469  44.936   4.302
19531W        W86072  43.726   6.145   4.705
19532W        W86073   2.389  15.405  14.779
19533W        W86074  11.791  37.385  13.570
19534W        W86075  17.148  14.679   3.592
19535W        W86076   2.958  25.004  13.046
19536W        W86077   6.680  22.983   3.990
19537W        W86078   0.908  19.242  12.527
19538W        W86079  43.496  26.966  11.134
19539W        W86080   9.682  16.686   3.922
19540W        W86081  28.397  34.931  14.043
19541W        W86082   5.060   6.372   4.498
19542W        W86083  25.110  41.538  13.952
19543W        W86084  16.142  10.750   2.172
19544W        W86085  30.440  14.815   1.349
19545W        W86086  35.829  10.886   4.650
19546W        W86087   9.209  44.998   2.380
19547W        W86088  20.980  13.340  14.420
19548W        W86089   2.661  37.932  11.097
19549W        W86090  29.876   8.169   1.880
19550W        W86091  26.129  39.035  13.451
19551W        W86092  36.907  31.501   3.053
19552W        W86093   8.387   1.653   3.708
19553W        W86094   8.241  36.574  13.968
19554W        W86095  38.528  28.744  11.643
19555W        W86096  19.590  13.812  12.551
19556W        W86097  13.099  22.512  11.111
19557W        W86098  44.301   2.755   1.990
19558W        W86099   7.322   7.668  11.966
19559W        W86100  12.855   1.932  13.870
19560W        W86101   2.380  37.774   3.857
19561W        W86102   0.729   0.570  11.759
19562W        W86103  12.138  28.573   0.599
19563W        W86104  23.788   9.354  14.939
19564W        W86105   1.374  30.838  14.515
19565W        W86106   3.217   2.983  12.508
19566W        W86107   4.730  39.838   2.365
19567W        W86108   1.971  15.756  14.856
19568W        W86109  38.558  44.963   1.540
19569W        W86110  42.377  17.075  13.772
19570W        W86111  18.123  15.250  12.598
19571W        W86112   1.377  41.092   2.189
19572W        W86113  17.182  10.871  11.741
19573W        W86114   8.296   1.311  10.616
19574W        W86115  10.997  38.522   0.854
19575W        W86116  14.695  34.856   4.335
19576W        W86117  13.720  39.537  13.054
19577W        W86118  30.173   0.454   2.433
19578W        W86119  18.955  24.990   1.249
19579W        W86120  17.073  16.694   1.896
19580W        W86121  36.216  31.004   4.127
19581W        W86122  27.359  25.911  11.227
19582W        W86123  42.928  19.149  11.072
19583W        W86124  36.503  35.545   1.768
19584W        W86125  12.146   3.433  11.979
19585W        W86126  37.997  10.147   9.829
19586W        W86127   6.630  36.999   4.203
19587W        W86128  25.815   9.182   0.390
19588W        W86129   1.992  18.211  11.532
19589W        W86130  22.569  44.038  11.726
19590W        W86131   2.249  41.491  12.072
19591W        W86132  26.019   5.629   2.314
19592W        W86133  22.097  30.054   1.446
19593W        W86134  13.617  32.434   1.357
19594W        W86135  19.735   9.779  13.301
19595W        W86136  23.002  24.796   3.687
19596W        W86137  36.934   2.925   4.606
19597W        W86138  39.304  15.311   1.688
19598W        W86139   0.328   4.670   4.686
19599W        W86140  15.397  26.007   1.014
19600W        W86141   4.794  15.709   2.803
19601W        W86142  11.722   8.778  12.338
19602W        W86143  27.499  15.305  13.887
19603W        W86144  10.289   7.002  10.921
19604W        W86145  32.580  22.730   2.452
19605W        W86146   4.279  24.587   1.126
19606W        W86147  35.572  36.287   0.856
19607W        W86148  18.094  43.902  14.820
19608W        W86149  35.497  16.141   4.356
19609W        W86150  42.763  10.447   1.355
19610W        W86151  29.725  29.580  11.216
19611W        W86152   6.346  19.885   0.088
19612W        W86153  40.124  17.661  13.125
19613W        W86154   7.455  19.698  13.042
19614W        W86155  12.908  30.400   3.306
19615W        W86156  17.335   6.849   4.376
19616W        W86157  17.585   6.372  14.835
19617W        W86158  23.993   9.680  13.032
19618W        W86159  38.223  13.296   3.707
19619W        W86160  25.454  24.650  13.843
19620W        W86161   8.232  18.184   2.864
19621W        W86162  14.128  42.915  13.686
19622W        W86163   2.449  26.802   1.963
19623W        W86164  33.132  38.775   4.915
19624W        W86165   7.463   1.488   2.453
19625W        W86166  19.685   4.494  14.323
19626W        W86167   2.027  20.775   2.489
19627W        W86168   2.649  22.133   2.735
19628W        W86169   7.034  11.548  11.132
19629W        W86170  22.059  11.357  14.714
19630W        W86171  18.211  44.597   4.168
19631W        W86172   5.373  16.615   1.710
19632W        W86173  37.133  24.202   0.846
19633W        W86174   7.027  20.270  11.837
19634W        W86175   4.698  40.242  12.334
19635W        W86176  24.956  18.230   4.663
19636W        W86177   8.559  36.865  10.278
19637W        W86178  26.786  16.096   0.779
19638W        W86179  35.193  35.469  12.778
19639W        W86180  33.032  25.046   1.051
19640W        W86181  14.596  24.097  11.896
19641W        W86182  18.550   1.427  12.945
19642W        W86183  19.615  25.265  12.078
19643W        W86184  14.272  27.176   0.515
19644W        W86185  37.898  37.094   4.771
19645W        W86186  21.354  25.343  10.922
19646W        W86187  16.333   6.164   4.493
19647W        W86188  10.005  31.840  12.447
19648W        W86189  11.168   6.248   1.166
19649W        W86190  35.556  24.475   1.644
19650W        W86191  16.772  17.794  11.152
19651W        W86192  24.086  14.100  10.910
19652W        W86193  39.135  11.287   1.232
19653W        W86194  25.786   7.944  11.084
19654W        W86195  12.332  29.036  13.587
19655W        W86196  19.841  22.826   0.361
19656W        W86197  44.316  26.726  14.277
19657W        W86198   9.673   8.195  14.380
19658W        W86199  36.887  27.548  11.655
19659W        W86200  10.298  19.098  13.883
19660W        W86201   9.978  42.673  13.940
19661W        W86202  20.599  16.807   0.675
19662W        W86203  32.483  21.991  14.079
19663W        W86204  12.349  29.021   0.428
19664W        W86205  17.815  44.913  11.596
19665W        W86206  43.314  29.225   1.478
19666W        W86207  20.364   6.247   1.427
19667W        W86208  42.974  10.223  13.498
19668W        W86209   4.559   2.005  12.900
19669W        W86210  33.550   0.486   5.088
19670W        W86211   8.216  19.376   0.670
19671W        W86212   9.379   9.109  10.451
19672W        W86213  19.399  19.092   4.934
19673W        W86214   2.323  24.968  12.506
19674W        W86215  40.418  23.009   4.625
19675W        W86216  28.626  17.258  12.610
19676W        W86217   5.404  16.347   0.332
19677W        W86218   9.117   4.276  11.114
19678W        W86219  41.503   5.142  13.577
19679W        W86220  14.165  16.252   1.854
19680W        W86221  14.582  28.698   4.541
19681W        W86222  39.211   1.459   3.597
19682W        W86223  22.697  15.163  10.481
19683W        W86224  16.649  20.253   1.942
19684W        W86225  34.849  21.734   3.135
19685W        W86226  34.359   0.009   3.194
19686W        W86227  18.290  33.048  12.826
19687W        W86228  37.622   8.221   3.671
19688W        W86229   7.828  38.285  11.439
19689W        W86230  33.647   5.032   2.812
19690W        W86231  12.076  28.638  13.754
19691W        W86232  36.861  26.646   3.647
19692W        W86233  41.004  15.189  13.352
19693W        W86234  41.329   5.727  11.389
19694W        W86235   4.128  18.257  12.890
19695W        W86236  26.199  19.225   3.440
19696W        W86237   6.725   1.712   1.962
19697W        W86238  24.439  32.451  11.402
19698W        W86239  14.730  21.293   0.019
19699W        W86240   3.376  12.413   0.306
19700W        W86241   6.979  41.877   4.112
19701W        W86242  17.009   0.394   1.676
19702W        W86243  11.130  33.601   3.581
19703W        W86244   5.992  25.543   3.263
19704W        W86245  39.076  34.115   3.899
19705W        W86246  13.600  35.856  12.549
19706W        W86247  36.544  35.843   0.770
19707W        W86248  39.021  25.734   0.858
19708W        W86249  36.145  25.633  11.639
19709W        W86250  23.545  13.382  14.394
19710W        W86251  17.545  24.476  12.404
19711W        W86252  34.981  24.297   2.565
19712W        W86253  36.791  22.592  12.509
19713W        W86254  12.371  37.134   2.200
19714W        W86255   0.969   8.843   3.694
19715W        W86256  44.703  38.575  12.974
19716W        W86257  40.269   6.287   4.651
19717W        W86258  14.660  19.030  12.920
19718W        W86259  23.563   4.278   1.357
19719W        W86260   1.330  34.350   3.490
19720W        W86261  41.383   8.919  11.615
19721W        W86262  19.564  30.628  12.552
19722W        W86263   4.467  39.118  14.895
19723W        W86264   1.106   4.630   3.670
19724W        W86265  19.363  18.648   3.779
19725W        W86266  43.706   3.932  14.709
19726W        W86267  40.116  25.625  13.356
19727W        W86268  22.605  11.850  12.525
19728W        W86269  16.152  18.141   0.321
19729W        W86270  38.411  19.127  10.718
19730W        W86271  27.050  32.428  14.241
19731W        W86272  12.385  22.184   3.164
19732W        W86273  29.515  38.779   3.216
19733W        W86274  11.084  40.007  12.221
19734W        W86275   2.948  33.025   0.512
19735W        W86276  11.409  36.954  12.551
19736W        W86277  17.115  26.709  14.948
19737W        W86278  40.989  40.769   4.142
19738W        W86279   0.144  19.714  12.410
19739W        W86280  18.324  30.163   0.306
19740W        W86281  16.004  17.249   0.928
19741W        W86282   3.103  11.368  11.187
19742W        W86283  24.597   0.712  14.395
19743W        W86284   6.760  22.502   1.804
19744W        W86285   8.651   6.100   0.836
19745W        W86286   9.865  20.798  14.877
19746W        W86287  13.905  40.754  14.489
19747W        W86288  30.983  40.016  14.530
19748W        W86289  19.639  23.004   0.807
19749W        W86290  28.286  12.021   3.721
19750W        W86291  31.948  37.549  13.603
19751W        W86292  21.757  15.377  10.600
19752W        W86293  17.360  28.887  11.089
19753W        W86294   5.862  12.068  11.122
19754W        W86295  14.490  35.365   2.170
19755W        W86296   7.239  20.218  14.742
19756W        W86297   1.101  42.250   1.213
19757W        W86298   2.777   0.495   3.467
19758W        W86299  15.778  15.662   2.779
19759W        W86300  31.814  13.905   0.285
19760W        W86301   4.288  11.520  11.561
19761W        W86302  19.714  25.107   2.283
19762W        W86303  31.753  30.600   2.739
19763W        W86304  44.690   2.587  10.678
19764W        W86305  20.666  34.306  11.557
19765W        W86306  40.495  44.136  12.994
19766W        W86307   6.324   1.037  12.628
19767W        W86308  25.743  32.109   1.005
19768W        W86309  15.187  39.320   0.768
19769W        W86310  20.714  16.045  13.485
19770W        W86311  18.553  22.875   1.248
19771W        W86312   5.892  25.806  14.409
19772W        W86313  19.986   9.898  12.854
19773W        W86314  30.345  21.197   4.142
19774W        W86315  13.421  19.775  10.532
19775W        W86316  10.215  18.790   4.593
19776W        W86317  32.337  17.089   1.134
19777W        W86318  35.988  14.189  14.540
19778W        W86319  19.717   4.726  11.656
19779W        W86320  16.617  40.482  11.976
19780W        W86321   0.336  14.164  14.493
19781W        W86322  22.668  41.357  13.139
19782W        W86323   5.356  36.982   2.313
19783W        W86324   7.131  37.912   1.830
19784W        W86325   3.371  21.256   4.240
19785W        W86326  20.560   7.848   0.933
19786W        W86327  17.851  42.496  12.413
19787W        W86328  21.136   8.256  10.892
19788W        W86329  32.518  13.814  11.243
19789W        W86330  34.532  41.894   0.265
19790W        W86331  15.273  44.426  14.052
19791W        W86332   2.762  43.057   4.723
19792W        W86333   6.226  40.391   3.617
19793W        W86334  42.054   6.483   2.581
19794W        W86335  13.853  17.706   2.346
19795W        W86336  35.784   4.385   4.598
19796W        W86337  28.482  10.211   2.705
19797W        W86338  11.817   4.922   2.889
19798W        W86339   4.319  23.506   5.391
19799W        W86340  26.797  26.579  14.927
19800W        W86341   1.294  42.430  11.049
19801W        W86342  15.191  42.990  14.255
19802W        W86343   8.721  30.513   1.469
19803W        W86344   0.238  43.919  12.066
19804W        W86345  11.665  31.933   0.398
19805W        W86346  44.325  13.126   0.378
19806W        W86347  14.532   1.752   2.128
19807W        W86348  42.459  30.912  12.725
19808W        W86349  33.523  32.485  11.569
19809W        W86350   9.424  38.797  12.285
19810W        W86351  29.355  33.815  12.098
19811W        W86352   0.872   0.518   1.352
19812W        W86353   2.744  18.818  11.018
19813W        W86354  24.018  41.528   0.906
19814W        W86355  18.503  25.068  10.473
19815W        W86356  39.090   3.506   3.663
19816W        W86357  34.837  19.228   4.035
19817W        W86358  18.726  44.280   5.341
19818W        W86359  13.043  38.950   1.891
19819W        W86360  44.346  11.822   1.287
19820W        W86361  20.176  17.236  11.572
19821W        W86362  22.586  28.678  14.290
19822W        W86363  38.194  31.284  14.777
19823W        W86364   6.098   5.871   2.759
19824W        W86365  11.912  16.966  11.449
19825W        W86366  32.640  27.748   0.348
19826W        W86367   6.255   0.291   0.527
19827W        W86368   8.457  41.289   3.197
19828W        W86369  35.097  25.351   4.480
19829W        W86370   5.942  15.033   0.116
19830W        W86371   6.924  26.690   2.433
19831W        W86372  16.624  39.373  13.565
19832W        W86373  40.051  11.896   4.969
19833W        W86374  38.754   3.163  12.891
19834W        W86375   1.479   2.386  13.096
19835W        W86376  35.983  32.037   2.670
19836W        W86377  21.485  16.756   0.234
19837W        W86378  19.687  35.064   4.555
19838W        W86379  41.829  43.064   1.764
19839W        W86380   1.715  11.652  12.542
19840W        W86381  42.579   7.448   3.648
19841W        W86382  35.608   5.757   0.508
19842W        W86383  42.971  17.615  14.180
19843W        W86384  43.621  41.120   4.607
19844W        W86385   9.971   8.795  12.995
19845W        W86386   8.206  29.278   1.957
19846W        W86387  42.511  13.553  12.687
19847W        W86388  29.481  20.255  10.766
19848W        W86389   3.144  16.882  12.434
19849W        W86390  20.262  43.917  11.155
19850W        W86391  13.553  21.606   1.301
19851W        W86392  43.236  12.662   1.785
19852W        W86393  29.928   0.664   1.416
19853W        W86394   0.766   1.571  13.898
19854W        W86395  42.122  39.203   1.182
19855W        W86396  35.640  10.722   0.929
19856W        W86397  22.514  20.125   0.652
19857W        W86398  39.952   7.163  13.565
19858W        W86399   4.798   8.446   2.571
19859W        W86400   6.928   6.310  11.103
19860W        W86401   4.902  26.369   3.548
19861W        W86402  18.416   2.798   4.340
19862W        W86403  36.394   8.144   2.231
19863W        W86404  15.605  25.067   4.492
19864W        W86405   7.736  25.995   5.021
19865W        W86406  23.481  43.392  13.467
19866W        W86407  32.571  25.076   0.775
19867W        W86408  36.478  15.022  13.051
19868W        W86409  41.535  25.475  10.508
19869W        W86410  11.783  27.752  13.427
19870W        W86411  31.770  24.119   5.037
19871W        W86412  34.958  13.882   2.293
19872W        W86413  13.925   3.676   0.860
19873W        W86414   9.854  10.410   0.816
19874W        W86415  24.324  33.845   3.694
19875W        W86416   0.491   3.701  12.936
19876W        W86417  19.169  35.575   3.279
19877W        W86418  31.994  34.457  12.093
19878W        W86419  31.388  17.603  13.565
19879W        W86420   1.591   6.345  11.141
19880W        W86421  15.583  19.782  13.416
19881W        W86422   8.191  41.901   1.478
19882W        W86423   5.086  29.166   0.834
19883W        W86424  10.738  23.268   3.829
19884W        W86425   4.904  24.064  11.294
19885W        W86426  19.324  12.418   4.919
19886W        W86427  27.590  26.161  14.456
19887W        W86428  12.166  16.988   1.420
19888W        W86429  34.802  31.421  12.121
19889W        W86430  11.596  26.563  11.638
19890W        W86431  40.976   6.096  11.538
19891W        W86432   0.520  10.201   2.783
19892W        W86433  19.638   2.761   2.383
19893W        W86434   3.175  15.872   1.656
19894W        W86435  20.274   2.064  13.317
19895W        W86436   4.922   0.587   0.486
19896W        W86437  13.541   5.803   2.706
19897W        W86438  14.993  17.883  14.819
19898W        W86439  33.099  32.211   0.261
19899W        W86440   0.386  17.294   1.437
19900W        W86441   3.983  38.497  12.107
19901W        W86442  39.244  13.221   1.499
19902W        W86443  29.655  26.767   0.211
19903W        W86444  25.722   9.182  12.074
19904W        W86445  33.504   3.724  14.462
19905W        W86446  33.428   8.741   4.486
19906W        W86447   2.138  39.990   3.811
19907W        W86448   2.434  12.807  11.046
19908W        W86449  24.088  44.756   3.402
19909W        W86450  22.750  40.067   3.832
19910W        W86451   5.242  35.415  14.725
19911W        W86452   2.489  41.972  12.233
19912W        W86453  23.613  44.967   3.348
19913W        W86454  17.356  31.061  13.313
19914W        W86455   1.076  16.634   2.802
19915W        W86456  31.595  40.711  14.990
19916W        W86457  33.079  21.669   1.011
19917W        W86458  13.247   4.933   4.388
19918W        W86459  19.069   5.433   2.601
19919W        W86460  21.857  19.847   0.302
19920W        W86461  29.018  21.195  14.902
19921W        W86462  26.550  20.035  12.563
19922W        W86463  36.396  18.527   1.664
19923W        W86464  13.840   4.522   0.494
19924W        W86465  23.643  43.912   4.795
19925W        W86466  30.086  19.754   2.320
19926W        W86467  37.486  39.904  13.518
19927W        W86468  14.627  17.090   2.414
19928W        W86469  24.493   4.012   2.140
19929W        W86470  12.625   1.182   1.325
19930W        W86471  28.954  10.860  14.665
19931W        W86472  34.997  16.718  10.589
19932W        W86473  33.600  44.897  11.746
19933W        W86474   2.807  17.678   2.315
19934W        W86475   7.513   6.634  10.148
19935W        W86476  17.351   7.077  13.895
19936W        W86477   1.242  30.863  11.414
19937W        W86478   6.182  28.398  14.506
19938W        W86479   4.433  21.374  12.918
19939W        W86480   9.353   8.304  14.776
19940W        W86481  42.247  15.823   1.239
19941W        W86482  44.794   8.567   3.082
19942W        W86483  44.432  28.129  12.496
19943W        W86484  26.310  44.374   2.648
19944W        W86485  34.013  16.380   1.812
19945W        W86486  31.122  21.259   3.831
19946W        W86487  11.331  21.179   4.695
19947W        W86488  33.908   8.862  14.467
19948W        W86489  33.087  23.708  11.543
19949W        W86490   9.596  12.758   4.634
19950W        W86491  16.350  32.361  13.056
19951W        W86492  17.543  39.622  13.905
19952W        W86493  38.446  20.345   3.743
19953W        W86494   4.793  12.212   3.318
19954W        W86495  43.953  15.039   5.660
19955W        W86496   8.795  26.037   2.792
19956W        W86497  22.239  25.528   3.240
19957W        W86498   7.773  43.575  11.553
19958W        W86499   6.758  27.990   1.858
19959W        W86500  39.070  36.858   2.320
19960W        W86501  32.098  36.878   0.634
19961W        W86502  10.687  31.396   0.971
19962W        W86503  21.778  22.245   3.674
19963W        W86504  12.288  34.911  10.931
19964W        W86505   5.272  35.681  11.940
19965W        W86506  40.969  11.854   3.552
19966W        W86507  15.352   5.731   2.390
19967W        W86508  24.110  40.056   0.284
19968W        W86509  13.574  15.879  14.426
19969W        W86510  31.982  19.207  14.499
19970W        W86511  33.008  23.150   3.199
19971W        W86512  34.610   5.263  14.342
19972W        W86513  42.328  28.920   4.621
19973W        W86514  12.850   8.727   0.826
19974W        W86515  12.669  11.051  11.454
19975W        W86516   5.166  40.121   2.227
19976W        W86517  36.927  23.136  12.024
19977W        W86518  16.724  44.016  13.448
19978W        W86519  29.633  20.441   1.990
19979W        W86520  19.676  29.055   0.380
19980W        W86521  19.538   8.878  14.009
19981W        W86522   8.357  32.622   3.717
19982W        W86523  32.866  19.616   5.007
19983W        W86524  41.103  20.199   3.226
19984W        W86525  17.369  31.429   2.460
19985W        W86526  22.294  26.243   3.730
19986W        W86527  44.763  11.857  13.331
19987W        W86528   1.803  25.076   2.632
19988W        W86529   7.308  40.251   1.287
19989W        W86530   6.341   5.967  12.359
19990W        W86531  14.861  39.751   0.904
19991W        W86532  29.090  13.966   4.511
19992W        W86533  16.626  21.428  12.904
19993W        W86534  27.200   6.179  12.538
19994W        W86535  24.963  39.501  11.572
19995W        W86536   2.715   8.878  11.441
19996W        W86537  18.048  30.609   0.084
19997W        W86538   2.343  15.443   3.745
19998W        W86539   0.408  13.769   2.894
19999W        W86540  30.920   6.341   1.800
20000W        W86541  41.650   6.128   5.051
20001W        W86542  40.862  23.175  12.819
20002W        W86543   6.870  37.180  12.477
20003W        W86544  20.849   6.415  13.783
20004W        W86545  14.210  33.349   2.134
20005W        W86546  42.034  35.423  11.062
20006W        W86547  25.763  36.944   4.191
20007W        W86548  10.691  13.145  14.444
20008W        W86549  32.063  27.080  14.571
20009W        W86550  33.531  20.096   2.407
20010W        W86551  30.098  19.343   3.298
20011W        W86552  26.091  20.494  13.312
20012W        W86553  17.016  35.783   2.870
20013W        W86554  26.923  31.731   4.382
20014W        W86555  23.064  11.703  12.325
20015W        W86556  27.443   8.081  12.575
20016W        W86557  38.400   3.694  13.523
20017W        W86558  36.587  31.452  11.544
20018W        W86559  21.655  23.978   2.753
20019W        W86560   0.743  19.899   2.176
20020W        W86561  26.203   2.544  14.313
20021W        W86562  15.845  32.018  11.528
20022W        W86563  12.215  25.174  12.901
20023W        W86564  21.206  29.389  10.857
20024W        W86565  33.706   9.498   1.698
20025W        W86566  10.678  39.811  11.995
20026W        W86567  13.817  15.189  12.389
20027W        W86568   8.106   1.359  13.407
20028W        W86569  21.867  43.329   4.061
20029W        W86570  29.730  13.255   0.836
20030W        W86571  24.033  27.526   4.645
20031W        W86572  18.018  23.695   0.283
20032W        W86573  35.792  30.558  13.996
20033W        W86574  44.209  29.130   3.928
20034W        W86575   0.141  18.999   0.928
20035W        W86576  31.905  15.971   3.604
20036W        W86577  26.053  11.694   0.925
20037W        W86578  24.141   1.471   0.891
20038W        W86579  22.800  32.127   2.815
20039W        W86580  28.422  26.706   0.272
20040W        W86581   9.975  36.460  12.619
20041W        W86582  17.131   3.382  11.077
20042W        W86583   3.338  26.643   4.599
20043W        W86584   5.754  29.871  12.401
20044W        W86585  13.426  43.897   0.243
20045W        W86586  16.637   3.712  13.926
20046W        W86587   6.888  42.272   3.750
20047W        W86588  41.233  39.439   2.897
20048W        W86589  13.288  12.997   3.702
20049W        W86590   5.670  38.922   1.996
20050W        W86591   2.484  32.406   3.068
20051W        W86592  19.130   6.545   3.604
20052W        W86593   7.598  17.087   4.696
20053W        W86594   6.825   1.011   4.453
20054W        W86595  31.500  34.498   0.950
20055W        W86596  27.663   2.877  13.802
20056W        W86597  22.562  44.763  14.773
20057W        W86598  29.134  25.893   0.391
20058W        W86599   5.051  32.492  10.934
20059W        W86600  15.723   7.853   4.337
20060W        W86601  44.457  29.335  13.457
20061W        W86602  37.417  36.960   4.636
20062W        W86603  13.567  27.694   2.643
20063W        W86604  27.197  42.498  11.668
20064W        W86605   7.319  43.970   3.150
20065W        W86606   6.914  20.196  12.318
20066W        W86607  38.792   5.438   2.701
20067W        W86608  43.075   1.072   2.766
20068W        W86609  16.604  27.455  13.236
20069W        W86610  24.682  40.409  12.401
20070W        W86611  30.039  13.829  11.700
20071W        W86612  34.313  14.678   1.382
20072W        W86613  21.523  26.575  12.995
20073W        W86614  24.896  44.988  14.790
20074W        W86615  13.068  40.333   1.761
20075W        W86616  37.156  29.854   0.998
20076W        W86617   6.751  29.671   4.048
20077W        W86618  27.151  34.226  12.091
20078W        W86619  31.774  43.767  11.484
20079W        W86620  15.569  18.442  14.386
20080W        W86621  32.226   0.431  12.155
20081W        W86622  30.505  11.702   9.807
20082W        W86623  25.148  21.511  14.328
20083W        W86624  21.532  25.868   4.170
20084W        W86625  21.373   9.114  11.559
20085W        W86626  27.987  42.747   2.997
20086W        W86627  12.758   7.898  11.096
20087W        W86628  11.513  14.914  11.677
20088W        W86629  11.363  15.825  10.275
20089W        W86630  12.317  40.459  12.337
20090W        W86631  27.926  25.144   1.672
20091W        W86632  43.200  16.544  14.324
20092W        W86633  34.757  24.945  13.848
20093W        W86634  29.021  12.231   4.815
20094W        W86635  15.103   3.002  14.213
20095W        W86636  39.232  41.228  12.522
20096W        W86637  36.543  20.302   0.381
20097W        W86638  44.376  27.146   2.089
20098W        W86639  44.997  16.114  14.367
20099W        W86640   6.539  26.266   3.499
20100W        W86641  28.170   3.665  14.339
20101W        W86642  16.818  31.583   2.204
20102W        W86643   5.317  28.550   3.302
20103W        W86644  17.353   0.270   0.279
20104W        W86645  14.880  10.310   2.785
20105W        W86646  17.305  42.100  13.853
20106W        W86647  11.796  39.941  10.156
20107W        W86648  26.774  27.928  13.863
20108W        W86649  23.241  19.160   3.795
20109W        W86650  16.754  19.607  14.333
20110W        W86651  21.589  28.431  10.750
20111W        W86652  21.691   1.554  10.778
20112W        W86653  11.626  30.782  12.794
20113W        W86654  40.224  30.636  10.352
20114W        W86655   3.808  13.756   3.295
20115W        W86656  13.175  10.079   2.752
20116W        W86657  29.601  13.541  14.429
20117W        W86658  30.721  44.764   0.924
20118W        W86659  14.163  14.299  10.755
20119W        W86660  16.797  33.653  14.435
20120W        W86661   5.114  14.325   1.820
20121W        W86662  37.995  13.864   0.320
20122W        W86663  19.185  16.443   5.027
20123W        W86664   7.340  16.133  12.072
20124W        W86665  18.953  36.618   4.010
20125W        W86666  30.769  23.206   1.232
20126W        W86667  16.663  27.488   2.430
20127W        W86668  16.076  37.635   3.303
20128W        W86669  16.254  32.026   1.994
20129W        W86670  26.477   5.076   4.117
20130W        W86671  20.543   3.844  13.801
20131W        W86672   3.165  42.476   0.198
20132W        W86673  29.419  43.520  10.464
20133W        W86674  29.377   6.697   0.346
20134W        W86675   0.151  39.439   0.495
20135W        W86676  15.533  25.665   3.262
20136W        W86677   0.455   1.743  11.372
20137W        W86678  20.219  21.485   2.896
20138W        W86679   8.732  44.514   0.263
20139W        W86680  21.953   7.222   0.121
20140W        W86681  34.186  19.746  10.574
20141W        W86682   9.744   1.736   3.806
20142W        W86683  32.485   7.251   4.067
20143W        W86684  14.963   4.436   2.177
20144W        W86685  31.415  15.645   1.460
20145W        W86686  12.558  40.425   0.057
20146W        W86687  34.106  30.709   0.302
20147W        W86688  13.594  35.946   2.862
20148W        W86689  39.198   8.795  10.708
20149W        W86690  21.716  14.247   1.785
20150W        W86691   7.620  10.362   0.346
20151W        W86692   7.215  14.814   0.313
20152W        W86693  25.646  17.807   1.399
20153W        W86694  12.201  10.453   1.672
20154W        W86695  41.965  11.433  12.074
20155W        W86696   3.741   9.793  12.479
20156W        W86697  31.879  44.840   2.356
20157W        W86698  24.032  33.113   1.081
20158W        W86699  19.075  30.721  12.912
20159W        W86700  31.956  27.398   4.648
20160W        W86701  14.147  18.139  14.408
20161W        W86702   8.771  16.526   4.206
20162W        W86703   7.543  27.881   0.468
20163W        W86704  12.072  40.220   1.924
20164W        W86705   5.225  15.258  13.956
20165W        W86706  14.381  28.417  11.212
20166W        W86707  15.207   9.675  14.246
20167W        W86708  31.667  42.461   4.236
20168W        W86709  10.609  12.272  13.100
20169W        W86710  22.026  13.108  11.200
20170W        W86711   3.090  39.118  12.130
20171W        W86712   0.712  11.142  10.648
20172W        W86713  22.733  26.428   4.608
20173W        W86714  37.025  14.232   3.268
20174W        W86715  38.992   4.877   4.063
20175W        W86716   7.104   7.250  10.952
20176W        W86717  10.600  19.035   4.162
20177W        W86718  32.375   3.582   4.594
20178W        W86719  23.627  25.380   2.845
20179W        W86720  44.457  15.729  14.825
20180W        W86721  13.281  16.759  14.524
20181W        W86722  44.735  33.051  13.364
20182W        W86723  33.203  34.429   0.574
20183W        W86724   4.938   3.431  14.329
20184W        W86725  36.476  15.740   1.013
20185W        W86726   8.124  10.638  14.196
20186W        W86727   1.718   6.484   2.605
20187W        W86728  29.424  19.773  14.792
20188W        W86729  36.913  16.832  12.557
20189W        W86730   5.245  18.412   4.995
20190W        W86731  24.001   9.154  12.811
20191W        W86732  11.219   6.747   0.954
20192W        W86733  41.877  12.332  14.463
20193W        W86734   9.438   8.809  11.237
20194W        W86735  30.842  23.708   1.220
20195W        W86736  24.068  16.801   1.039
20196W        W86737   2.538  15.966  13.716
20197W        W86738  37.017   9.884   0.982
20198W        W86739  37.125  27.714  11.219
20199W        W86740  41.818  15.124  13.954
20200W        W86741  17.065   1.393  14.045
20201W        W86742   9.263  13.594  11.066
20202W        W86743   2.802  42.697   1.691
20203W        W86744  20.608   4.597  14.302
20204W        W86745  15.491  12.742   4.866
20205W        W86746   7.387   4.444  14.854
20206W        W86747  28.850   7.693   1.333
20207W        W86748   1.667  30.153  10.231
20208W        W86749  24.075  26.613  13.911
20209W        W86750  17.548  30.537  11.594
20210W        W86751  30.735   9.337   2.214
20211W        W86752   1.352  26.627   3.297
20212W        W86753  26.258  35.973  14.898
20213W        W86754  16.063  37.242   4.116
20214W        W86755  29.354   4.490   2.254
20215W        W86756  27.633  32.905   1.861
20216W        W86757   1.402  18.587   3.852
20217W        W86758  44.661   4.352   0.873
20218W        W86759  37.839  44.506   1.882
20219W        W86760  31.709  32.014   2.291
20220W        W86761  27.188   9.363   1.836
20221W        W86762  18.843  33.027   4.792
20222W        W86763  43.269   3.309  11.699
20223W        W86764  34.770   9.082  13.348
20224W        W86765  41.628   2.013   3.234
20225W        W86766  14.154  13.598  11.596
20226W        W86767   1.547  36.621  11.878
20227W        W86768  37.609  35.624   3.702
20228W        W86769  15.234   4.204   1.187
20229W        W86770  28.017   1.902   3.933
20230W        W86771   3.776  42.954   2.725
20231W        W86772  13.916  24.704   4.508
20232W        W86773  26.172  29.058  11.428
20233W        W86774  11.775  38.594   5.044
20234W        W86775   7.661  12.215  12.402
20235W        W86776  25.194   7.662   3.451
20236W        W86777  31.720  31.707   0.848
20237W        W86778  10.214  41.730   1.880
20238W        W86779   1.276  26.868  12.380
20239W        W86780  31.447  12.786   3.248
20240W        W86781  40.370   0.542  11.317
20241W        W86782   9.415   8.402   0.278
20242W        W86783  44.730  13.028  11.954
20243W        W86784  24.867  19.479  12.730
20244W        W86785  34.200   7.727  13.984
20245W        W86786  14.186  18.106   0.413
20246W        W86787  33.436  33.956   0.680
20247W        W86788   8.937  34.440   0.335
20248W        W86789  36.473  15.573  10.605
20249W        W86790   9.467   8.684   4.051
20250W        W86791  16.238  29.631   2.349
20251W        W86792  24.438  16.568   2.699
20252W        W86793  43.052   9.812   2.349
20253W        W86794   7.997  30.416  10.229
20254W        W86795  17.858   7.860   2.379
20255W        W86796  16.335   8.796  12.433
20256W        W86797   1.230   4.275   3.299
20257W        W86798  31.831  17.439   1.674
20258W        W86799  40.438   6.367  10.513
20259W        W86800  13.750  36.028   0.898
20260W        W86801   4.418  27.155  10.685
20261W        W86802  35.598  25.630   0.827
20262W        W86803  27.016   8.254   2.642
20263W        W86804  31.790   0.729   4.162
20264W        W86805  28.502  25.642  14.540
20265W        W86806  14.575  41.767  12.068
20266W        W86807  12.814  42.081   3.968
20267W        W86808  36.626  28.010  11.813
20268W        W86809  34.363  40.068   1.834
20269W        W86810   1.685   7.352   1.003
20270W        W86811  16.319  34.776   0.122
20271W        W86812  29.540  27.652  12.442
20272W        W86813  42.021  43.803   1.360
20273W        W86814  24.986  14.165   0.780
20274W        W86815  35.896  21.612  11.908
20275W        W86816  11.602  12.073  12.992
20276W        W86817  37.350  25.577  12.976
20277W        W86818  38.435   7.360  12.528
20278W        W86819   3.782   6.390   0.304
20279W        W86820  14.748  39.561   2.316
20280W        W86821  28.443  10.884  13.007
20281W        W86822  36.335  17.153   2.716
20282W        W86823  12.720  11.904  13.962
20283W        W86824  19.339  39.537   4.184
20284W        W86825  41.808   7.367   4.165
20285W        W86826  40.062  10.321  13.945
20286W        W86827   8.396  36.449   4.233
20287W        W86828  28.967  39.809   1.352
20288W        W86829  15.342  31.686  10.664
20289W        W86830  17.192  30.457   4.613
20290W        W86831  43.387  24.965  13.368
20291W        W86832  33.115   4.512  13.324
20292W        W86833   6.274  38.511  10.098
20293W        W86834  12.134   6.501   0.866
20294W        W86835  28.873  43.970   1.494
20295W        W86836   5.337   3.221   1.284
20296W        W86837  20.405   1.385  12.105
20297W        W86838  36.184  38.636   4.211
20298W        W86839   1.369  26.608   2.765
20299W        W86840  12.130  40.784  13.693
20300W        W86841  19.282   8.286  13.069
20301W        W86842  44.919  24.127   5.034
20302W        W86843  39.067  12.801   2.709
20303W        W86844  19.125  33.064   0.254
20304W        W86845  42.294  23.039   4.726
20305W        W86846  11.157  17.041  14.457
20306W        W86847  22.998  12.860  13.858
20307W        W86848   7.395  32.849  11.266
20308W        W86849   8.425  29.449  10.897
20309W        W86850  23.302  44.055  12.856
20310W        W86851  40.766  20.627   0.992
20311W        W86852   3.784  37.130  11.479
20312W        W86853  43.736  41.005   2.205
20313W        W86854  21.122  27.306  11.674
20314W        W86855   0.399  30.646   0.015
20315W        W86856   8.752  34.622   1.732
20316W        W86857  34.604  38.187   4.344
20317W        W86858  17.675   4.582   0.497
20318W        W86859   5.182   6.380  11.045
20319W        W86860  40.504  36.142  12.114
20320W        W86861  31.349  19.046  11.039
20321W        W86862   0.611  27.079   2.744
20322W        W86863  34.631   9.020   0.968
20323W        W86864   0.019  34.060  13.970
20324W        W86865   5.892   9.349   2.928
20325W        W86866   1.079  16.091  11.005
20326W        W86867  13.770   9.698  13.907
20327W        W86868  25.960  24.694   1.828
20328W        W86869   8.336  20.704   1.518
20329W        W86870  25.398  26.125   5.192
20330W        W86871   2.903   4.693  14.779
20331W        W86872   0.319  15.649   3.251
20332W        W86873  32.263   5.352  10.674
20333W        W86874  43.891  27.693   2.220
20334W        W86875  31.668   6.367  14.153
20335W        W86876  18.312  25.192   1.839
20336W        W86877  21.546  32.984  13.387
20337W        W86878  31.864  19.587   4.960
20338W        W86879  13.192  40.838   1.865
20339W        W86880  12.200  42.773   1.014
20340W        W86881  10.812  26.626  10.780
20341W        W86882  22.020   1.531   4.902
20342W        W86883   2.451  15.743  11.157
20343W        W86884  38.185  43.873   4.478
20344W        W86885  14.694  39.465  14.543
20345W        W86886  27.438   5.928  13.560
20346W        W86887  37.882   8.665   3.666
20347W        W86888  31.520  10.349   4.254
20348W        W86889  35.910   9.840   3.915
20349W        W86890  14.223  38.005  13.424
20350W        W86891   5.295   6.684  10.637
20351W        W86892   5.443  41.449  11.526
20352W        W86893  17.769  19.517  14.292
20353W        W86894  15.157   7.293  14.789
20354W        W86895  35.496  33.339  14.468
20355W        W86896  25.072  36.241  11.044
20356W        W86897  44.365  43.787  11.917
20357W        W86898  26.995  11.764   0.831
20358W        W86899   1.779  25.760   3.245
20359W        W86900   3.669  13.247   2.680
20360W        W86901  25.417  14.435  11.125
20361W        W86902  24.014  32.967  12.778
20362W        W86903  18.474  14.030  13.478
20363W        W86904  15.138  34.131  14.687
20364W        W86905  37.391  33.507  14.357
20365W        W86906  32.921  16.224  12.454
20366W        W86907  24.771  20.982  13.035
20367W        W86908  10.733  40.112  11.535
20368W        W86909  31.603  15.150   1.176
20369W        W86910  26.387  10.198  11.993
20370W        W86911  42.291  34.628   0.707
20371W        W86912   7.021  44.841   3.613
20372W        W86913  40.852  42.500   2.351
20373W        W86914  23.024  16.334   4.547
20374W        W86915  11.278  39.452   4.149
20375W        W86916  32.589  13.852  12.574
20376W        W86917   4.281  17.860   4.331
20377W        W86918  39.661  10.637   0.412
20378W        W86919  27.493  24.762  14.768
20379W        W86920  37.973  21.115  11.088
20380W        W86921  24.551  30.692   3.194
20381W        W86922   8.341  32.076   3.727
20382W        W86923  13.934  10.822  11.944
20383W        W86924  18.363  40.015   2.407
20384W        W86925  10.843  11.193   4.585
20385W        W86926  44.489   0.755  11.253
20386W        W86927  38.850  17.132  14.447
20387W        W86928  36.950  34.143  14.234
20388W        W86929  26.108  24.139  13.242
20389W        W86930  30.963  38.405  12.356
20390W        W86931  20.551   5.512  14.714
20391W        W86932  26.827  28.915  13.876
20392W        W86933   0.440   7.427   2.411
20393W        W86934  17.196   0.074   0.755
20394W        W86935  23.249  26.091  12.134
20395W        W86936  29.702  33.097  13.302
20396W        W86937  20.761   5.893   0.655
20397W        W86938   4.969  44.970  11.483
20398W        W86939   1.846  36.098   3.782
20399W        W86940  37.161   6.919  10.787
20400W        W86941   2.971   7.198  13.113
20401W        W86942  40.625  38.924  13.507
20402W        W86943   7.931  42.396   1.929
20403W        W86944   0.706  39.888  11.232
20404W        W86945  20.562  41.052  12.113
20405W        W86946   0.200   2.992  14.925
20406W        W86947  16.112  39.699   1.228
20407W        W86948   9.129  43.958   1.143
20408W        W86949  34.385   6.398  13.600
20409W        W86950   0.313   5.148   1.656
20410W        W86951  18.219  14.114   0.282
20411W        W86952   5.694  32.047   0.237
20412W        W86953   9.830  35.746  13.808
20413W        W86954  33.854  19.669  12.969
20414W        W86955  20.494  28.477   2.207
20415W        W86956   0.295  13.242   2.801
20416W        W86957  41.564  39.975  13.235
20417W        W86958  42.990  25.270  10.633
20418W        W86959   9.300  10.883   0.484
20419W        W86960  37.612  11.781  14.352
20420W        W86961  21.471  18.264  14.024
20421W        W86962  14.731  25.925   2.737
20422W        W86963  34.397  34.713  14.101
20423W        W86964  44.814  20.235  12.183
20424W        W86965   5.924  32.920   0.763
20425W        W86966  32.461  29.430   1.840
20426W        W86967  11.133  23.221  14.653
20427W        W86968  37.866  22.630  10.701
20428W        W86969  19.348  40.486   1.231
20429W        W86970  37.957  15.701   1.083
20430W        W86971  32.757  24.511  14.578
20431W        W86972   5.504   8.707  14.473
20432W        W86973  15.947   5.790  10.347
20433W        W86974  21.294  12.528  13.111
20434W        W86975  38.872  37.126  14.052
20435W        W86976  30.069  20.926   1.705
20436W        W86977  39.966  11.620   0.328
20437W        W86978  24.637  15.044   2.427
20438W        W86979   2.287  33.137   1.246
20439W        W86980  24.256  29.166   4.139
20440W        W86981  43.735   0.186   2.366
20441W        W86982  35.877  40.008  13.424
20442W        W86983  21.465  22.600   3.860
20443W        W86984   8.699  36.839   2.910
20444W        W86985  33.308   1.933   3.453
20445W        W86986  22.432  40.202   4.658
20446W        W86987  30.494   4.527  14.386
20447W        W86988   4.247  24.291  14.753
20448W        W86989  37.297  15.881  14.427
20449W        W86990  35.405  36.597   3.074
20450W        W86991  40.264  34.475   2.349
20451W        W86992   7.778  42.788   1.221
20452W        W86993  21.112  21.747  14.294
20453W        W86994  44.377   6.946   4.968
20454W        W86995  44.668   4.332  14.962
20455W        W86996  34.873  32.910  12.988
20456W        W86997   9.370  37.082  11.576
20457W        W86998  11.584   0.361   4.467
20458W        W86999   5.367   1.035  13.421
20459W        W87000  15.518  33.931  11.405
20460W        W87001  34.818  43.976   0.724
20461W        W87002  31.011   6.112   2.248
20462W        W87003  22.807  13.882   2.622
20463W        W87004  18.641   6.335   3.612
20464W        W87005  14.385  23.579  12.019
20465W        W87006  39.380   4.413  12.902
20466W        W87007  17.551   4.702  13.985
20467W        W87008  34.694   1.506  13.874
20468W        W87009  35.413   9.472  13.801
20469W        W87010  21.721   1.753   1.836
20470W        W87011  15.793  10.834  14.437
20471W        W87012  41.940  31.213  11.968
20472W        W87013  35.210   9.860   4.488
20473W        W87014  27.532  10.810  11.718
20474W        W87015  25.139  43.179   0.759
20475W        W87016  31.417   3.206  10.804
20476W        W87017  21.683   9.258   4.152
20477W        W87018  24.617   7.365  12.596
20478W        W87019  13.107   9.138  10.696
20479W        W87020   1.675  28.652  10.437
20480W        W87021  24.101  35.598  14.580
20481W        W87022  30.921  16.273  12.424
20482W        W87023   9.413  21.448   3.377
20483W        W87024  38.073  34.048   3.069
20484W        W87025  42.699  30.913   4.102
20485W        W87026   8.886  35.909  13.758
20486W        W87027   9.185  36.782   4.105
20487W        W87028  28.215  25.023   4.976
20488W        W87029   5.582  29.128   0.764
20489W        W87030  37.997  24.164   1.641
20490W        W87031  44.607   4.871  13.959
20491W        W87032  17.660  17.571   1.868
20492W        W87033   6.661   9.866   4.101
20493W        W87034  10.662  31.854  12.161
20494W        W87035  30.134  26.450   1.367
20495W        W87036  34.017  34.991  10.556
20496W        W87037  18.609  11.223   2.724
20497W        W87038  25.035  18.323   3.587
20498W        W87039  15.189  19.256  11.499
20499W        W87040  26.640   7.256  11.420
20500W        W87041  34.162  11.642  11.609
20501W        W87042  28.684   1.365  10.702
20502W        W87043  28.607  11.382  12.395
20503W        W87044  44.388  17.528  10.816
20504W        W87045  38.869  34.998   2.430
20505W        W87046   8.846  38.524   1.470
20506W        W87047  40.543   1.937   2.382
20507W        W87048   8.967  14.540   2.222
20508W        W87049  39.097  29.255  12.189
20509W        W87050  44.087   3.977  14.325
20510W        W87051  25.373  10.720  10.822
20511W        W87052  44.522  39.781  10.654
20512W        W87053  36.383  16.461  14.885
20513W        W87054  27.778  44.947  11.257
20514W        W87055  34.549  40.932   1.305
20515W        W87056  27.161  13.857   3.401
20516W        W87057   9.911   2.477   4.957
20517W        W87058  38.071   8.692  13.472
20518W        W87059  41.776   6.098  10.665
20519W        W87060  35.749  16.682  13.315
20520W        W87061  25.720  44.597  12.123
20521W        W87062  24.443  33.430   1.163
20522W        W87063   1.258  32.361   1.736
20523W        W87064  44.741  37.993  12.565
20524W        W87065  17.123   4.410   4.622
20525W        W87066  16.022  26.515  10.904
20526W        W87067  19.172  44.709   1.303
20527W        W87068   7.797  24.814  10.618
20528W        W87069  22.649   4.754   1.336
20529W        W87070  18.765  17.100  13.325
20530W        W87071  13.101  28.182   1.882
20531W        W87072  19.364  13.843  13.012
20532W        W87073  36.988  16.105  13.838
20533W        W87074   2.379  27.566   4.028
20534W        W87075  38.030  22.596  12.899
20535W        W87076  17.806  15.338  10.200
20536W        W87077  42.845  38.255   4.641
20537W        W87078  14.661  32.633  13.483
20538W        W87079   8.568  13.471   3.613
20539W        W87080  32.931  37.810   0.253
20540W        W87081  44.761  36.497  11.204
20541W        W87082  18.004  10.066   2.915
20542W        W87083  18.757  19.777  11.975
20543W        W87084  32.647  17.684  10.644
20544W        W87085  32.493   0.563   3.238
20545W        W87086  15.576   1.298  10.656
20546W        W87087   6.803  19.149   1.202
20547W        W87088  26.616   7.930  14.327
20548W        W87089   6.396  27.006  13.468
20549W        W87090   1.339   8.724   3.257
20550W        W87091   2.578  12.059   3.291
20551W        W87092   9.671  33.019  12.027
20552W        W87093  21.178  37.889  14.532
20553W        W87094  41.374  16.807   3.064
20554W        W87095  25.263  37.063  10.759
20555W        W87096  13.721  13.715  11.328
20556W        W87097  10.286  44.562   3.201
20557W        W87098   6.196  35.154  13.058
20558W        W87099  10.117  16.632  13.461
20559W        W87100   8.562  13.200   1.354
20560W        W87101   4.276   4.260   2.391
20561W        W87102  30.427  31.019  11.650
20562W        W87103  42.844  16.349  13.433
20563W        W87104   5.879  19.147   3.631
20564W        W87105  18.104  10.287   1.406
20565W        W87106   7.913  23.186   1.466
20566W        W87107   5.019  13.304  14.984
20567W        W87108  21.676  37.974  12.897
20568W        W87109  19.732  40.826   4.445
20569W        W87110  39.071  37.275  11.031
20570W        W87111  17.310  19.666   0.054
20571W        W87112  22.578  29.942  10.687
20572W        W87113  19.645  20.932  11.050
20573W        W87114  16.600  38.779  12.888
20574W        W87115   3.985  15.185  12.443
20575W        W87116  24.264  30.429   5.050
20576W        W87117   1.390  37.848   0.754
20577W        W87118  20.048  30.533  13.639
20578W        W87119  44.757   8.099   2.835
20579W        W87120   0.869   2.982   0.136
20580W        W87121  13.621  29.488  14.292
20581W        W87122  42.790  38.606   0.935
20582W        W87123  19.248   6.775  12.688
20583W        W87124  42.003  12.563  11.143
20584W        W87125  35.468  18.976  10.956
20585W        W87126  31.511   8.857   0.260
20586W        W87127  14.267  28.050   0.429
20587W        W87128   6.787   3.136  11.565
20588W        W87129  34.508  27.715   0.432
20589W        W87130   7.387  31.104   4.080
20590W        W87131   0.103  31.048   0.176
20591W        W87132  39.099  42.349   4.590
20592W        W87133  41.456  40.027   3.704
20593W        W87134  39.877  12.126   0.349
20594W        W87135  44.006   2.033  12.081
20595W        W87136  25.317   4.204   1.596
20596W        W87137  27.207  21.347  14.401
20597W        W87138  38.798  32.668   2.324
20598W        W87139  28.485  23.302  11.936
20599W        W87140  27.246  30.597  14.541
20600W        W87141  11.857   8.840  14.872
20601W        W87142   9.981  44.793   4.907
20602W        W87143  40.975  41.059  11.713
20603W        W87144   2.317   1.326  11.330
20604W        W87145  33.447  20.970   2.751
20605W        W87146  18.511  28.128  12.514
20606W        W87147  28.187  28.075  11.523
20607W        W87148  13.200   0.128   1.733
20608W        W87149  14.403  14.793   3.191
20609W        W87150  44.272  21.141  14.900
20610W        W87151  33.456  33.070   2.215
20611W        W87152  42.981  10.393   0.416
20612W        W87153  19.764  30.525   1.223
20613W        W87154  22.102  35.852  14.406
20614W        W87155  32.026  35.355   0.291
20615W        W87156  33.972  34.999  11.071
20616W        W87157  22.123   7.615  10.966
20617W        W87158  32.502  13.649   3.168
20618W        W87159  25.787   2.571   2.400
20619W        W87160  20.218  41.927  12.958
20620W        W87161  39.306  20.845   1.219
20621W        W87162  18.677  10.858  11.540
20622W        W87163  30.181  42.261   0.796
20623W        W87164   4.530  34.723  10.658
20624W        W87165  44.786   2.867  13.040
20625W        W87166  23.922  41.447   4.793
20626W        W87167   0.324  36.381  12.163
20627W        W87168  10.284  34.375   2.836
20628W        W87169  15.980   0.560   4.073
20629W        W87170  32.311  42.229  12.834
20630W        W87171  15.439  43.503  11.150
20631W        W87172  32.163   3.424   1.492
20632W        W87173  20.759   9.829   0.897
20633W        W87174  27.601   6.231  11.291
20634W        W87175  27.600  15.960   1.370
20635W        W87176  38.238  29.617   3.280
20636W        W87177  23.473  10.593  11.148
20637W        W87178   9.855  32.552  10.779
20638W        W87179  32.524   6.322  14.106
20639W        W87180  14.104  26.051  11.888
20640W        W87181  35.656  33.045  13.409
20641W        W87182  10.385  28.028  13.798
20642W        W87183  29.598  18.106   0.455
20643W        W87184  41.122  44.493  14.491
20644W        W87185   2.059   9.087  14.815
20645W        W87186  10.883  10.321  10.367
20646W        W87187  10.262   6.137  10.686
20647W        W87188  34.805  38.620   4.177
20648W        W87189  11.329  19.542  13.575
20649W        W87190  39.535  21.404  13.885
20650W        W87191  43.890  25.052  12.077
20651W        W87192  20.879  21.091  14.974
20652W        W87193  43.833  11.346  12.016
20653W        W87194  33.034   5.200   4.447
20654W        W87195  16.140   6.951  11.585
20655W        W87196  24.801  32.148   0.739
20656W        W87197   1.267   0.740  13.449
20657W        W87198  31.545  40.112   3.205
20658W        W87199   4.401  21.732   0.813
20659W        W87200  20.245  40.680   4.171
20660W        W87201   5.319  30.524  11.745
20661W        W87202  42.672  24.434   5.216
20662W        W87203  23.784  43.689   1.258
20663W        W87204  20.206  33.857   1.867
20664W        W87205  21.585  25.740   3.569
20665W        W87206  26.695  15.729  13.461
20666W        W87207  10.616  40.334   1.772
20667W        W87208  42.581  14.975   2.163
20668W        W87209   6.673  31.708  11.076
20669W        W87210   1.401   1.333  11.142
20670W        W87211  41.975   3.713   4.317
20671W        W87212  27.394  41.120   4.820
20672W        W87213   4.325  22.246   0.749
20673W        W87214  33.599  27.251   2.178
20674W        W87215  19.241  18.966  14.346
20675W        W87216  34.371  13.187  13.908
20676W        W87217   1.429   7.129   1.804
20677W        W87218  10.730  26.014  12.372
20678W        W87219  40.258  21.297   0.520
20679W        W87220  16.262  12.837  11.536
20680W        W87221  20.570  30.604   3.821
20681W        W87222   1.945  44.147  11.019
20682W        W87223  13.320  32.555  12.282
20683W        W87224  30.108  31.620  14.910
20684W        W87225  20.110   2.869  12.778
20685W        W87226   8.352  24.733  11.441
20686W        W87227  25.761  11.441   4.842
20687W        W87228  35.459   7.914  14.911
20688W        W87229  38.556  33.528  11.060
20689W        W87230  21.306  34.492   9.918
20690W        W87231  14.534   1.237  12.990
20691W        W87232   9.932  17.016   4.265
20692W        W87233   7.350  42.006   2.189
20693W        W87234  16.448  24.443   0.054
20694W        W87235   0.493   5.286   0.228
20695W        W87236  32.681  21.651  12.130
20696W        W87237  40.501  43.071  13.578
20697W        W87238  33.682   2.758  12.357
20698W        W87239   3.897  10.237  12.660
20699W        W87240  41.787  31.220  14.148
20700W        W87241  38.765   0.379   1.894
20701W        W87242  28.236  18.065   1.407
20702W        W87243  23.689  10.462   1.389
20703W        W87244  37.817  40.912  12.381
20704W        W87245  23.946  32.289   0.724
20705W        W87246  37.931   8.745   3.142
20706W        W87247  26.052  14.714   1.416
20707W        W87248  12.602   5.809  14.400
20708W        W87249   7.007  14.168   1.611
20709W        W87250  22.069  12.637   0.840
20710W        W87251   9.658  18.967   0.972
20711W        W87252  40.106  13.206  12.636
20712W        W87253  13.037  15.657   3.193
20713W        W87254   2.000  43.510  10.791
20714W        W87255  35.058  11.236   3.881
20715W        W87256  29.177   8.218   2.193
20716W        W87257  17.443  14.662  13.068
20717W        W87258   8.343  23.056  10.421
20718W        W87259  43.453  11.949   1.223
20719W        W87260  24.483  24.622   3.691
20720W        W87261  38.884  41.515  12.858
20721W        W87262   2.789  38.830  11.184
20722W        W87263  37.146  37.862  12.060
20723W        W87264  34.032  30.194   4.113
20724W        W87265  30.513  29.441   3.762
20725W        W87266  27.547  20.274  12.995
20726W        W87267  35.860   9.494   3.544
20727W        W87268  43.445   9.471   2.364
20728W        W87269  14.140  35.917   2.840
20729W        W87270  16.785  43.359   4.239
20730W        W87271  27.379  38.456  11.194
20731W        W87272  10.715  35.396   0.415
20732W        W87273  31.828   8.382   4.093
20733W        W87274  13.003  26.711  11.831
20734W        W87275   2.008   6.670  11.704
20735W        W87276  36.763  29.589  14.228
20736W        W87277  20.022   9.170   1.850
20737W        W87278   9.657  21.114   1.706
20738W        W87279  12.207  32.424  14.974
20739W        W87280   5.844  13.879  12.384
20740W        W87281  30.549  37.908  11.000
20741W        W87282  17.098  16.696   3.884
20742W        W87283  14.169  13.178  14.422
20743W        W87284  43.743  32.424  10.956
20744W        W87285  31.967  10.631   2.960
20745W        W87286  31.427  14.415   4.529
20746W        W87287  32.566   7.053   2.177
20747W        W87288   6.354  18.328  14.794
20748W        W87289  31.007  23.977  14.809
20749W        W87290  37.835  17.245   2.740
20750W        W87291  27.219   8.274  11.897
20751W        W87292  44.997  25.424   2.271
20752W        W87293  31.275  34.970   0.942
20753W        W87294  22.013  21.762  10.543
20754W        W87295  32.328  10.923  12.444
20755W        W87296  42.790  30.676   2.333
20756W        W87297  32.561  27.236  12.064
20757W        W87298  43.789  34.986  13.589
20758W        W87299  40.461  20.418  14.289
20759W        W87300  19.708  23.805  10.483
20760W        W87301  30.917   4.743   2.311
20761W        W87302  28.697  36.034  11.265
20762W        W87303   0.220  42.605   0.338
20763W        W87304  29.086  28.357  13.317
20764W        W87305  43.821  14.485   1.610
20765W        W87306  43.477  23.488  13.680
20766W        W87307  16.833  43.833   1.684
20767W        W87308  35.968   1.453  11.976
20768W        W87309  32.100   9.969   2.202
20769W        W87310  10.342   9.925   2.142
20770W        W87311  15.078  20.059  11.131
20771W        W87312  28.920  12.157  11.951
20772W        W87313   0.855  13.830   4.190
20773W        W87314  36.266  28.925  11.232
20774W        W87315  43.334  28.118  14.040
20775W        W87316  13.747  43.899   1.425
20776W        W87317  43.817   8.055   4.364
20777W        W87318  40.061   2.037  12.169
20778W        W87319   2.423  16.111  14.178
20779W        W87320  27.335  42.746  12.525
20780W        W87321  10.206  31.113   3.777
20781W        W87322  40.219   8.353  13.438
20782W        W87323  13.852   4.779  13.813
20783W        W87324  14.717  41.512  11.216
20784W        W87325   0.893  26.217  11.602
20785W        W87326  22.291  10.707  12.571
20786W        W87327  27.376  39.105  14.788
20787W        W87328  20.645  37.616  12.894
20788W        W87329  34.634  41.432   0.939
20789W        W87330   5.761   8.215   1.028
20790W        W87331  10.611  28.004  10.514
20791W        W87332  29.916   7.238  14.427
20792W        W87333  33.549  20.388  14.451
20793W        W87334  23.774   2.239  13.272
20794W        W87335   5.761  36.004   2.396
20795W        W87336  17.027   8.594  13.820
20796W        W87337  39.989  41.056   4.037
20797W        W87338  39.565  26.621  11.107
20798W        W87339  23.813   3.374   2.198
20799W        W87340  22.580  38.398  13.010
20800W        W87341  30.692  24.114   2.820
20801W        W87342  23.183   3.700   4.246
20802W        W87343  10.416  10.583   4.092
20803W        W87344   8.873  29.736   2.623
20804W        W87345   8.208   7.831   2.576
20805W        W87346  13.395  42.507   1.195
20806W        W87347  39.390  15.801   3.396
20807W        W87348  40.306   8.900   3.523
20808W        W87349  13.341   4.460   1.260
20809W        W87350  24.328   7.468  11.028
20810W        W87351  18.367  23.093   2.221
20811W        W87352  43.373  41.329  13.969
20812W        W87353  33.506  24.476  12.406
20813W        W87354  21.763   8.681  13.079
20814W        W87355  21.775   0.932  14.811
20815W        W87356  36.638  10.301   3.098
20816W        W87357  40.047  10.775   3.144
20817W        W87358  35.488  38.204   0.629
20818W        W87359  38.462  40.854   1.098
20819W        W87360  34.652  19.769  13.556
20820W        W87361  31.640  21.062   4.515
20821W        W87362   0.807  14.006  14.418
20822W        W87363  18.140   8.641  13.853
20823W        W87364  30.571  14.742  12.488
20824W        W87365  44.350  28.940  11.357
20825W        W87366   5.331  38.928   4.601
20826W        W87367  13.891  16.124  13.613
20827W        W87368  41.078   1.885   1.145
20828W        W87369  24.963  32.386   4.188
20829W        W87370  16.777  36.194  11.577
20830W        W87371  24.267  22.522  10.601
20831W        W87372  43.958  11.682  14.011
20832W        W87373  12.806  15.682   0.835
20833W        W87374   3.822   2.943  11.723
20834W        W87375  35.458  29.905   3.180
20835W        W87376  16.411  23.143  13.687
20836W        W87377  33.590  30.312   5.218
20837W        W87378  38.413  35.886   0.443
20838W        W87379  31.092  21.699   3.114
20839W        W87380  34.512  13.718  13.005
20840W        W87381  39.014  38.393   0.291
20841W        W87382  32.122  43.593   0.526
20842W        W87383  23.037  21.154  11.570
20843W        W87384  13.161   3.624   2.756
20844W        W87385   9.665  12.073   3.294
20845W        W87386  25.313   1.703   2.158
20846W        W87387  10.798  15.120  12.330
20847W        W87388  24.732  29.157   3.855
20848W        W87389   1.168  21.054  14.915
20849W        W87390  24.507   0.972   4.388
20850W        W87391  27.562  36.171   0.032
20851W        W87392   1.508  33.109   0.393
20852W        W87393   4.308  13.460   0.326
20853W        W87394  36.630  12.181  14.828
20854W        W87395  36.930  15.320  10.769
20855W        W87396   0.392  21.253   1.298
20856W        W87397   9.698   0.057  14.327
20857W        W87398  37.045   3.660   4.083
20858W        W87399  32.085   5.955   3.852
20859W        W87400   0.911   2.484   5.017
20860W        W87401   9.064  25.148   5.086
20861W        W87402  27.783  39.865   3.327
20862W        W87403  13.280  14.311   4.751
20863W        W87404  35.794  31.947   2.188
20864W        W87405  14.182   3.514  14.968
20865W        W87406  38.001  15.182  14.969
20866W        W87407  26.480  14.329  12.004
20867W        W87408   2.699  25.540  14.694
20868W        W87409  15.088  13.895   4.151
20869W        W87410  27.674   7.148  14.861
20870W        W87411  27.708   5.288  11.597
20871W        W87412  27.143  14.575   2.346
20872W        W87413   1.219   6.200   1.742
20873W        W87414  10.718  28.618  12.111
20874W        W87415  43.978  14.705   2.377
20875W        W87416  12.726   8.298   2.268
20876W        W87417  24.019   1.556  13.865
20877W        W87418  10.306  36.098   3.329
20878W        W87419  40.323  42.876   2.775
20879W        W87420  29.534  34.548  10.743
20880W        W87421  28.581  18.798   3.586
20881W        W87422  12.489  36.555   4.254
20882W        W87423   7.944  38.080   1.373
20883W        W87424  17.675  27.323   3.452
20884W        W87425  28.101  25.417   2.855
20885W        W87426   7.422  25.320   2.485
20886W        W87427  29.169  26.134  14.035
20887W        W87428  18.272   8.669   0.883
20888W        W87429  21.916  18.564  13.905
20889W        W87430  24.808  16.204  11.887
20890W        W87431  28.075  44.885  12.172
20891W        W87432  24.142   0.716  13.482
20892W        W87433   3.366   6.443  10.719
20893W        W87434  44.228  40.397   0.246
20894W        W87435  11.903  14.111  12.042
20895W        W87436  25.231  42.091   0.553
20896W        W87437   7.782  33.639  11.949
20897W        W87438  18.813   9.920  12.397
20898W        W87439   6.352  34.337  12.443
20899W        W87440  43.803   2.749   1.388
20900W        W87441  27.432  18.974   2.167
20901W        W87442  28.599  19.565  10.343
20902W        W87443  21.772  23.983  13.965
20903W        W87444   0.999   9.285   0.311
20904W        W87445  15.214  23.495   3.602
20905W        W87446   1.816  38.895  14.160
20906W        W87447  10.308  42.718   1.912
20907W        W87448   3.771  43.983   1.725
20908W        W87449  34.819  24.791   2.589
20909W        W87450  39.075  43.344  10.562
20910W        W87451  15.888   2.476   1.430
20911W        W87452  44.020  22.069  13.298
20912W        W87453  16.213  36.734   5.016
20913W        W87454  13.809  34.549  12.776
20914W        W87455   0.432   2.519  11.069
20915W        W87456  29.580  15.511   4.428
20916W        W87457  14.612  42.314   2.817
20917W        W87458   8.068  41.650  11.271
20918W        W87459  15.141  39.704   0.380
20919W        W87460  15.587  30.657  13.626
20920W        W87461  12.057   8.866  11.072
20921W        W87462   2.740  26.119   0.963
20922W        W87463  14.324  12.967  11.178
20923W        W87464  18.717   0.323  13.670
20924W        W87465   2.545   7.830  14.480
20925W        W87466  33.994  15.564   2.153
20926W        W87467  40.561  12.529   3.557
20927W        W87468   4.125  10.467  11.473
20928W        W87469  25.618  33.169   1.869
20929W        W87470  41.924  33.110  13.954
20930W        W87471  40.359  26.012   0.495
20931W        W87472  27.678  24.587   4.655
20932W        W87473  10.324  30.893   1.647
20933W        W87474   5.682  39.957  14.339
20934W        W87475  38.606   5.674  14.752
20935W        W87476  15.971  31.928   2.410
20936W        W87477  14.907  44.301   0.013
20937W        W87478  44.566   9.171   0.774
20938W        W87479  23.758  22.596  10.549
20939W        W87480  25.545  17.102   3.482
20940W        W87481  21.178   0.976   0.823
20941W        W87482  36.547  19.785   5.096
20942W        W87483   4.845  14.377  10.736
20943W        W87484   6.337  16.507  12.891
20944W        W87485  37.914   6.230  11.374
20945W        W87486  33.607  24.570  11.540
20946W        W87487  21.926  32.319  11.933
20947W        W87488  18.219  17.288   0.414
20948W        W87489   4.338  23.728  11.161
20949W        W87490  15.849  15.087   1.230
20950W        W87491  33.455  25.449   3.664
20951W        W87492  28.471   4.208   1.834
20952W        W87493  33.954  43.494  11.651
20953W        W87494  14.118  29.545   1.231
20954W        W87495  17.868  38.356   2.095
20955W        W87496   5.010   4.271   2.603
20956W        W87497   1.911   8.506   3.637
20957W        W87498  27.081   3.500   0.255
20958W        W87499  37.292  27.737   4.134
20959W        W87500   5.992  28.719  14.907
20960W        W87501  38.550  37.508   2.749
20961W        W87502  28.135   7.767   0.814
20962W        W87503   6.776   9.107   3.919
20963W        W87504  32.078  34.035   0.621
20964W        W87505  31.932  23.304  12.385
20965W        W87506   3.312  34.376  11.562
20966W        W87507  26.202   6.733  13.858
20967W        W87508  16.552   0.519   0.236
20968W        W87509  10.267  36.978   2.156
20969W        W87510  23.688  20.825   0.858
20970W        W87511  30.616  12.152   1.807
20971W        W87512  22.690  21.105   2.334
20972W        W87513   8.129  16.082  12.521
20973W        W87514  36.428  42.328   1.734
20974W        W87515   5.436  20.231   1.911
20975W        W87516  34.210  20.528   0.367
20976W        W87517  34.536  39.772   2.221
20977W        W87518  39.443  35.305   3.640
20978W        W87519  15.632  33.071  12.030
20979W        W87520  13.584  36.164   1.982
20980W        W87521  43.575  30.636  13.637
20981W        W87522  30.407   3.958  12.040
20982W        W87523  19.135  28.593   2.674
20983W        W87524  16.178  36.110   1.007
20984W        W87525  10.562  36.552  12.942
20985W        W87526  10.282  16.789   1.414
20986W        W87527  20.202   9.104   4.413
20987W        W87528  44.181  42.837   3.096
20988W        W87529  11.349   2.291  10.659
20989W        W87530  13.844  16.723  12.372
20990W        W87531   1.481  29.522  12.481
20991W        W87532  15.769  43.761  14.942
20992W        W87533  22.652  25.178  10.722
20993W        W87534  40.626  29.498  11.152
20994W        W87535  20.922  11.852   0.494
20995W        W87536   5.841   3.903  11.554
20996W        W87537  30.671  17.659   1.281
20997W        W87538  39.087  27.042   4.411
20998W        W87539  44.320  23.620  11.235
20999W        W87540  37.514  36.556  12.986
21000W        W87541   9.369  41.827  12.050
21001W        W87542  11.955  16.064  13.112
21002W        W87543  16.645  14.655  10.556
21003W        W87544  42.709  13.511   5.034
21004W        W87545   2.598   2.501   0.003
21005W        W87546  28.877  27.973   1.487
21006W        W87547  27.264  32.399   1.572
21007W        W87548  27.174  37.177   3.757
21008W        W87549   5.179  39.058   2.244
21009W        W87550   3.481   3.217   1.013
21010W        W87551   4.769   9.170   1.504
21011W        W87552  12.709  13.634  12.920
21012W        W87553  16.347   3.947  12.513
21013W        W87554  22.492  28.037   3.307
21014W        W87555  10.744  15.703   1.953
21015W        W87556   5.957  25.865  10.374
21016W        W87557  16.522  36.512  10.752
21017W        W87558  20.005  43.763   2.416
21018W        W87559  43.560   5.806  13.019
21019W        W87560  10.772  31.066   1.916
21020W        W87561  36.537  43.365  11.009
21021W        W87562   0.497  32.666   1.350
21022W        W87563  24.404  29.153   1.346
21023W        W87564   3.957   7.268  13.931
21024W        W87565   4.447   2.914  14.354
21025W        W87566   8.835  22.578  12.070
21026W        W87567  32.285  41.223   2.935
21027W        W87568  38.113  14.213  10.501
21028W        W87569   2.724  33.921  10.792
21029W        W87570  26.868  11.351   1.510
21030W        W87571  30.427  36.268   4.070
21031W        W87572  19.544  37.875  12.447
21032W        W87573   3.541   0.119   3.218
21033W        W87574  11.872  16.609   2.927
21034W        W87575  31.383  42.475  11.168
21035W        W87576  31.503  15.760  13.898
21036W        W87577   6.219  30.055  12.958
21037W        W87578  18.111  32.138  12.823
21038W        W87579   7.319  34.621   4.065
21039W        W87580  24.506  17.233   1.784
21040W        W87581  37.889   1.765   3.352
21041W        W87582  12.050  29.942  12.409
21042W        W87583  32.247  35.326  11.866
21043W        W87584  27.468  40.221   3.899
21044W        W87585  15.627  11.708  10.538
21045W        W87586  30.131  15.611  12.224
21046W        W87587   5.885  39.905   3.137
21047W        W87588   6.806  16.548  14.306
21048W        W87589  38.027  16.543   0.989
21049W        W87590   2.370  36.843   1.678
21050W        W87591  12.229   8.106  14.376
21051W        W87592   8.160  40.610  10.718
21052W        W87593   9.763  12.588  14.284
21053W        W87594  16.360  34.428  10.708
21054W        W87595  27.159  41.740   0.900
21055W        W87596  15.600  30.108  11.138
21056W        W87597  20.234  28.423  13.625
21057W        W87598   6.234  44.449  11.968
21058W        W87599  40.365  14.225  10.691
21059W        W87600  10.955  36.298  13.242
21060W        W87601  33.313   8.462  12.510
21061W        W87602  10.726   2.489  11.229
21062W        W87603   2.729  17.010  10.700
21063W        W87604  40.765  39.481   1.726
21064W        W87605  33.671   0.128   4.203
21065W        W87606   9.682   4.411  14.775
21066W        W87607  14.243  42.773  14.607
21067W        W87608  42.474  16.512  10.720
21068W        W87609   2.302  38.416   1.661
21069W        W87610  18.596   9.323   3.347
21070W        W87611   7.968   2.974  12.973
21071W        W87612  29.674  11.073   0.259
21072W        W87613  26.763  43.189  11.188
21073W        W87614  39.753  18.714  14.954
21074W        W87615  24.642  37.694   4.968
21075W        W87616  17.510   6.228  10.746
21076W        W87617  32.193   7.855  13.103
21077W        W87618  43.074   1.354  14.804
21078W        W87619   9.734   9.372   3.999
21079W        W87620  31.100  28.781   4.046
21080W        W87621  19.616  21.062  13.077
21081W        W87622  21.799  12.592   2.768
21082W        W87623  35.524   8.139   3.743
21083W        W87624  38.347   2.477  10.978
21084W        W87625   0.673  27.462   0.373
21085W        W87626  20.048   9.561  14.045
21086W        W87627  11.375  42.920   0.093
21087W        W87628  17.235  18.336  10.101
21088W        W87629  41.881  19.741   5.090
21089W        W87630  26.766  24.695   3.725
21090W        W87631   2.515  27.212   0.240
21091W        W87632   6.712   2.474  12.936
21092W        W87633  40.280  43.391  13.132
21093W        W87634  15.383  40.649   2.116
21094W        W87635  25.689  33.637  11.547
21095W        W87636  31.035   0.959  14.823
21096W        W87637  31.062  19.144   3.900
21097W        W87638  29.073  20.785  13.482
21098W        W87639  24.708   0.395  13.978
21099W        W87640  34.093  16.792  14.820
21100W        W87641  37.836  34.994  14.822
21101W        W87642  35.089  30.097  13.662
21102W        W87643  27.196  18.924   4.984
21103W        W87644  13.911  13.890   2.409
21104W        W87645  27.143  31.510  12.951
21105W        W87646  10.168  29.954   0.497
21106W        W87647  30.927  19.243  14.468
21107W        W87648   0.260  42.338   2.237
21108W        W87649  17.728  24.163   2.053
21109W        W87650  21.285  10.192  10.877
21110W        W87651  36.809  32.396   0.410
21111W        W87652  35.480  35.482   2.784
21112W        W87653  27.068  36.093   0.235
21113W        W87654  17.179  31.484   9.702
21114W        W87655  14.848  32.594  14.369
21115W        W87656  18.781  20.006   2.860
21116W        W87657  37.004  15.093  14.694
21117W        W87658   8.270  32.557   1.390
21118W        W87659   3.672  26.766   4.199
21119W        W87660  19.185  21.657  13.770
21120W        W87661  25.398  35.617   2.720
21121W        W87662   5.563   7.290   1.308
21122W        W87663  29.891  24.235   1.808
21123W        W87664  39.991  29.640   0.165
21124W        W87665  28.892  13.796   4.983
21125W        W87666   2.932   8.470   3.748
21126W        W87667   9.348  42.728   0.848
21127W        W87668  33.457  22.741   1.378
21128W        W87669  12.786  10.668  10.676
21129W        W87670   3.139  22.275  14.835
21130W        W87671   6.617  36.341   2.476
21131W        W87672  30.440  37.512  14.314
21132W        W87673  42.320   4.466   0.390
21133W        W87674   0.910  37.848   4.854
21134W        W87675  17.824  14.532  11.784
21135W        W87676  10.641   6.770   1.708
21136W        W87677  16.676  22.954   1.372
21137W        W87678  13.176  11.275   4.622
21138W        W87679   9.283  15.564  14.225
21139W        W87680  16.769   7.221  12.057
21140W        W87681  29.615  42.563   4.815
21141W        W87682  20.098  44.878   2.722
21142W        W87683   9.206  24.303  11.123
21143W        W87684  14.281  14.606   2.723
21144W        W87685  21.015  17.529   0.758
21145W        W87686  25.221  38.797  11.187
21146W        W87687  39.336  15.672  12.030
21147W        W87688  38.347  16.145  10.617
21148W        W87689  18.237  41.962  13.407
21149W        W87690  20.191  12.989   2.715
21150W        W87691  26.940  18.238  13.002
21151W        W87692   2.474  32.849   2.824
21152W        W87693  29.095  44.075   2.250
21153W        W87694  43.799  23.586  13.299
21154W        W87695  39.761   4.701   3.500
21155W        W87696   1.902  25.162  14.798
21156W        W87697   2.183  23.494   4.517
21157W        W87698  34.255  41.351  12.188
21158W        W87699  34.033  41.403   1.788
21159W        W87700  24.164  15.103  14.731
21160W        W87701  33.934   5.078   9.873
21161W        W87702  38.810  24.621   1.431
21162W        W87703  29.004  32.003   1.191
21163W        W87704  29.703  31.999   0.716
21164W        W87705  40.126  43.272   0.306
21165W        W87706  38.009   9.731  13.183
21166W        W87707   3.755  17.700  11.145
21167W        W87708  14.176  37.745  13.877
21168W        W87709  20.049  37.372  13.380
21169W        W87710  14.314  26.094   1.820
21170W        W87711  44.425  32.473  14.607
21171W        W87712  37.910  39.330  11.646
21172W        W87713  34.199  41.337   1.236
21173W        W87714   1.838  29.823   3.702
21174W        W87715  18.506  19.025  14.687
21175W        W87716  20.635  25.788   1.476
21176W        W87717  41.781  42.899   0.916
21177W        W87718  30.043   1.494   0.872
21178W        W87719  35.333  37.510  10.767
21179W        W87720  15.800  10.288   3.662
21180W        W87721  32.013   2.488   4.008
21181W        W87722  42.424   3.998   0.201
21182W        W87723  42.100  35.505  14.443
21183W        W87724  31.712  39.468  11.541
21184W        W87725  20.006  44.399  11.031
21185W        W87726  26.225   6.785   4.539
21186W        W87727  41.607  33.123  12.951
21187W        W87728  44.969  20.940   1.243
21188W        W87729  22.218  14.345   0.188
21189W        W87730   0.262   7.706   4.111
21190W        W87731  41.033  26.831  12.521
21191W        W87732  38.374  12.324   0.148
21192W        W87733  16.608  20.607  13.428
21193W        W87734   9.769  11.291  11.580
21194W        W87735  31.510  44.971   1.693
21195W        W87736  43.068   5.076  10.938
21196W        W87737  36.460  30.963  11.637
21197W        W87738  24.746  22.524  13.891
21198W        W87739   4.201  38.463  13.056
21199W        W87740   2.711  43.028  11.020
21200W        W87741  29.077  17.347  12.923
21201W        W87742  16.745  17.410   3.158
21202W        W87743  42.253  39.750  14.714
21203W        W87744  28.029   5.471   0.737
21204W        W87745   6.372  14.517   1.365
21205W        W87746  14.730   5.692   0.006
21206W        W87747  16.069  10.149   1.797
21207W        W87748   1.496  39.318  12.997
21208W        W87749  10.367  44.025  11.551
21209W        W87750  29.581   6.220  12.186
21210W        W87751  35.984   6.275   4.463
21211W        W87752  33.990  31.715  11.826
21212W        W87753  34.839  31.377  14.409
21213W        W87754  42.886  14.530   2.228
21214W        W87755  36.100  15.574  10.209
21215W        W87756   2.822  22.613   0.082
21216W        W87757   3.478  30.924  12.235
21217W        W87758   5.887   0.459   3.605
21218W        W87759  23.312  15.031   0.038
21219W        W87760  40.246  39.975  14.699
21220W        W87761  21.249  20.473   4.770
21221W        W87762   4.114   2.832  10.332
21222W        W87763  40.450  32.530   0.010
21223W        W87764  36.850  41.856   4.993
21224W        W87765  42.328   2.279   0.187
21225W        W87766   2.218  19.616  11.141
21226W        W87767  35.015  12.820  11.918
21227W        W87768  37.909  18.216  12.838
21228W        W87769  38.300  28.700   4.205
21229W        W87770   6.814  28.412   4.824
21230W        W87771  21.245  11.067   4.121
21231W        W87772  12.624  36.855  13.954
21232W        W87773  13.199  32.280   3.660
21233W        W87774  13.201  14.176  12.420
21234W        W87775   1.583   7.390   2.842
21235W        W87776  11.371  11.198  13.437
21236W        W87777   0.463   8.457   2.262
21237W        W87778  15.847   9.655   3.410
21238W        W87779  38.768   5.336   4.092
21239W        W87780  38.252  28.972   4.652
21240W        W87781  37.311   2.861   3.550
21241W        W87782  13.439  10.277  14.433
21242W        W87783  27.727  43.878  10.702
21243W        W87784  32.405  39.888   1.823
21244W        W87785  10.851  31.426  12.398
21245W        W87786  37.398  30.023  14.947
21246W        W87787  29.595  39.786  13.899
21247W        W87788   0.828  42.360  12.910
21248W        W87789  41.520  26.785  13.490
21249W        W87790   3.684  18.678   1.914
21250W        W87791  41.803  11.583   0.351
21251W        W87792   3.561  41.355  10.621
21252W        W87793  43.675   6.303  10.071
21253W        W87794  38.432   2.816   2.835
21254W        W87795   3.274  19.330   2.336
21255W        W87796  15.282  32.417   1.857
21256W        W87797  17.500  42.387  13.399
21257W        W87798  35.715  27.936  12.014
21258W        W87799  13.243  36.418   4.546
21259W        W87800   2.322  29.641   3.050
21260W        W87801  10.710  36.976  12.020
21261W        W87802  32.882  16.796  11.560
21262W        W87803  41.324  44.433   1.273
21263W        W87804  30.468  38.979  14.312
21264W        W87805  19.073  31.434  14.672
21265W        W87806  31.025   3.769   1.516
21266W        W87807  35.335  34.870   1.848
21267W        W87808   3.984   9.736  12.023
21268W        W87809   8.752  15.057  12.857
21269W        W87810  41.272  39.189  12.586
21270W        W87811  37.759  35.936  13.470
21271W        W87812  38.992  42.245  11.610
21272W        W87813  28.111  36.110  12.131
21273W        W87814  19.850  20.669   4.252
21274W        W87815  20.601  14.945   2.563
21275W        W87816  23.969   6.297  11.836
21276W        W87817  39.243  21.745  13.593
21277W        W87818  18.034  40.018  10.636
21278W        W87819   4.512  23.177  10.509
21279W        W87820  44.723  16.073  13.431
21280W        W87821   2.357  32.580  14.044
21281W        W87822  37.499  32.544  13.344
21282W        W87823   9.215   0.394  13.903
21283W        W87824  11.905  29.806  13.116
21284W        W87825   1.641   8.627   0.970
21285W        W87826  15.185  14.744   1.675
21286W        W87827  43.000  26.936  10.390
21287W        W87828  20.639   8.681   2.310
21288W        W87829   2.008  24.721   1.884
21289W        W87830  44.498  24.526  11.548
21290W        W87831  16.557   2.256  10.989
21291W        W87832  21.789   4.292   3.650
21292W        W87833  40.824  10.064   1.053
21293W        W87834   5.746   3.351  14.054
21294W        W87835  13.138  39.632   1.411
21295W        W87836  26.609  38.896   2.409
21296W        W87837  24.559   3.410  11.636
21297W        W87838  18.307  20.985   0.697
21298W        W87839  19.373  38.014  11.010
21299W        W87840  35.101  11.314  11.551
21300W        W87841  22.771  10.295   3.760
21301W        W87842  29.899  10.147   4.137
21302W        W87843   6.422  30.052  13.940
21303W        W87844  13.382  43.934   4.543
21304W        W87845  38.003  38.807   4.062
21305W        W87846  37.324  26.459  14.967
21306W        W87847  10.136  13.408  10.894
21307W        W87848  36.992  38.778  12.450
21308W        W87849  30.179  16.337   4.137
21309W        W87850  26.383  13.171  11.280
21310W        W87851  39.226   1.291  14.404
21311W        W87852  14.386  22.309   0.379
21312W        W87853  43.637  21.730   2.853
21313W        W87854  39.941   9.913   0.885
21314W        W87855  44.934  11.893   2.655
21315W        W87856  33.966  17.204   4.448
21316W        W87857   0.236  19.099   4.155
21317W        W87858  26.941  27.180   0.993
21318W        W87859  20.996  41.316   1.462
21319W        W87860  24.456  11.196  11.743
21320W        W87861  28.038   1.369   3.771
21321W        W87862  10.408  23.731  13.887
21322W        W87863  10.252  28.867   1.488
21323W        W87864  24.854  20.247   1.449
21324W        W87865  17.842  35.073   1.208
21325W        W87866  37.556  30.953   1.743
21326W        W87867  27.322   6.249   4.038
21327W        W87868  17.755  19.302  11.088
21328W        W87869  26.725  33.789   3.690
21329W        W87870  38.258  14.636  10.208
21330W        W87871  29.349  38.561  11.128
21331W        W87872  39.897  32.206  10.541
21332W        W87873  33.762   6.669   4.255
21333W        W87874  31.408  41.786   1.246
21334W        W87875  15.591  27.716   3.465
21335W        W87876   8.273   7.258   4.853
21336W        W87877  22.318  21.068  12.133
21337W        W87878  44.965  14.171  11.048
21338W        W87879  25.535  20.334  11.182
21339W        W87880  41.094   9.639  10.914
21340W        W87881  16.658  16.723   3.597
21341W        W87882   3.219  33.700  10.783
21342W        W87883  37.291  15.623  14.896
21343W        W87884  19.712  31.686  14.364
21344W        W87885  26.403   5.745  12.762
21345W        W87886  41.534  36.546  13.822
21346W        W87887  27.522  16.495   1.359
21347W        W87888  42.720   4.951   4.167
21348W        W87889   5.188   0.006  13.379
21349W        W87890  38.319  13.154  11.707
21350W        W87891  42.782  42.728   1.881
21351W        W87892  23.657  12.150  13.696
21352W        W87893  24.945  17.715  13.043
21353W        W87894  36.357  21.598   0.750
21354W        W87895  31.383  14.891  12.850
21355W        W87896  29.551  15.811  13.442
21356W        W87897  32.371  15.133  13.506
21357W        W87898  41.413  12.824   0.762
21358W        W87899   8.364  34.931   1.071
21359W        W87900  27.680  27.015   0.230
21360W        W87901   3.165  32.761   5.066
21361W        W87902   0.275  41.734   3.133
21362W        W87903  25.649  27.587  14.278
21363W        W87904  29.105   5.405   1.651
21364W        W87905  33.148  17.295   0.752
21365W        W87906  12.800  26.197  10.604
21366W        W87907  30.760  20.491  13.390
21367W        W87908  30.111  27.586  13.282
21368W        W87909  10.253  33.437  10.641
21369W        W87910  36.384   5.733   4.158
21370W        W87911  23.062   4.306  14.343
21371W        W87912  40.135  18.137   4.883
21372W        W87913  18.229  43.987   2.906
21373W        W87914  19.542   0.131  13.165
21374W        W87915  10.466  20.966   9.871
21375W        W87916  14.532   7.330   2.509
21376W        W87917  14.152   8.946   0.781
21377W        W87918  22.666  19.160  13.763
21378W        W87919   0.679  36.101  12.446
21379W        W87920   9.359  15.726  13.291
21380W        W87921  44.870   9.209  14.632
21381W        W87922  44.572  27.502  11.564
21382W        W87923  18.335  42.975   2.901
21383W        W87924  26.601  44.982  14.294
21384W        W87925   4.651   6.324   0.925
21385W        W87926  32.500  30.936   2.630
21386W        W87927  20.227  35.408   2.825
21387W        W87928  15.496  17.429  11.572
21388W        W87929  29.004   3.515  12.054
21389W        W87930  35.595  32.416   2.324
21390W        W87931  17.928  24.624   3.883
21391W        W87932  37.631   3.357  14.464
21392W        W87933  28.282  21.216  12.788
21393W        W87934  38.283  16.839  12.518
21394W        W87935  39.268  19.654  14.842
21395W        W87936  41.642  35.096  12.772
21396W        W87937  19.014  11.328   0.023
21397W        W87938   2.315  41.536  14.053
21398W        W87939  36.982  13.484  11.638
21399W        W87940  24.695  30.915  13.905
21400W        W87941  40.404   2.214  12.940
21401W        W87942  25.979  15.028  13.390
21402W        W87943  26.564  35.328   0.242
21403W        W87944  15.339   4.690  12.095
21404W        W87945  16.662  41.766  12.410
21405W        W87946  44.627  36.716   3.615
21406W        W87947  16.774   4.761  11.967
21407W        W87948  33.561  10.764  11.838
21408W        W87949  24.483  38.992   3.069
21409W        W87950   3.062  43.652  12.913
21410W        W87951   2.305  12.254  13.687
21411W        W87952  34.803  20.122  11.414
21412W        W87953   3.684   0.226  10.755
21413W        W87954  32.505  38.973  13.375
21414W        W87955  40.567  42.334  11.584
21415W        W87956  25.772  40.903   0.957
21416W        W87957  28.194  43.900  13.438
21417W        W87958   1.268  17.023   0.977
21418W        W87959   7.584  23.653   3.648
21419W        W87960  16.217  33.050   1.761
21420W        W87961  30.503  25.532  14.769
21421W        W87962  15.139  40.188   2.148
21422W        W87963  29.950  15.557  14.930
21423W        W87964   3.802  22.444   3.117
21424W        W87965  18.663  41.506   1.836
21425W        W87966  12.236  35.452  14.364
21426W        W87967   7.219  17.540   1.828
21427W        W87968  30.167   7.753  14.802
21428W        W87969  28.384  22.732   3.920
21429W        W87970   9.294  27.860   1.718
21430W        W87971  17.302  17.953  13.737
21431W        W87972  39.877  15.632   3.262
21432W        W87973   6.216  34.058   2.038
21433W        W87974  43.911  22.216  12.807
21434W        W87975  14.502  17.230   0.780
21435W        W87976  37.722  38.352  13.958
21436W        W87977  35.900  17.006  11.125
21437W        W87978   8.663  23.053  12.188
21438W        W87979  35.435   5.779   3.324
21439W        W87980  27.122   6.872   0.981
21440W        W87981  34.966  14.166  14.880
21441W        W87982  19.328  37.563  14.291
21442W        W87983  11.594  43.245  11.579
21443W        W87984  30.476   0.391  13.603
21444W        W87985   8.391  44.363   2.353
21445W        W87986   0.708  19.494   0.821
21446W        W87987  23.027  27.929  14.787
21447W        W87988  19.341  23.015  13.506
21448W        W87989  25.802   4.973   5.449
21449W        W87990  23.258   4.766  11.599
21450W        W87991   2.706   0.390  13.957
21451W        W87992  44.876  21.608  11.402
21452W        W87993  43.507  10.065   4.451
21453W        W87994   9.311   2.874  12.988
21454W        W87995   0.645  24.396   4.486
21455W        W87996  10.259  24.412   4.134
21456W        W87997  31.627   3.925   0.730
21457W        W87998  23.771  41.071   1.698
21458W        W87999  23.510  36.591   0.866
21459W        W88000  38.341  38.885  11.051
21460W        W88001  31.558  36.229  11.980
21461W        W88002  12.646  30.469  14.520
21462W        W88003   8.331  15.872   2.339
21463W        W88004  14.203  34.657   3.612
21464W        W88005  18.370  29.122  12.114
21465W        W88006  42.895  41.470  12.999
21466W        W88007  27.471  13.199  11.669
21467W        W88008   5.279  30.327   4.662
21468W        W88009  16.548  14.261  11.840
21469W        W88010  12.895   3.419  13.854
21470W        W88011  11.078  25.496  14.312
21471W        W88012   7.791  17.914   0.332
21472W        W88013  36.811   0.308  14.066
21473W        W88014  30.393   0.143  14.928
21474W        W88015  33.673  13.680   9.751
21475W        W88016  20.550  24.268  14.488
21476W        W88017  10.265  16.807  11.174
21477W        W88018  25.174  42.040  12.035
21478W        W88019  26.057  20.156  12.912
21479W        W88020   3.905  30.813   0.914
21480W        W88021  28.928  34.039  11.642
21481W        W88022  18.824  32.151  14.044
21482W        W88023  10.229  27.192   1.942
21483W        W88024  20.677  28.415  13.881
21484W        W88025  16.563  26.512  10.940
21485W        W88026  17.869   7.731   4.426
21486W        W88027   9.766  14.805   1.654
21487W        W88028   6.871  38.857   2.833
21488W        W88029  23.792   5.130  14.523
21489W        W88030  44.806   2.969   1.592
21490W        W88031   9.499  28.577   2.354
21491W        W88032   2.373  33.925   0.187
21492W        W88033  10.405  25.718  13.805
21493W        W88034  38.716   1.392  11.132
21494W        W88035  44.297   2.651  14.550
21495W        W88036  38.097  31.595   2.262
21496W        W88037  12.336  24.507  11.140
21497W        W88038   7.358   9.178   1.828
21498W        W88039  29.033  19.505  10.673
21499W        W88040  39.361  21.593   0.910
21500W        W88041   8.398  27.636  11.704
21501W        W88042  40.428   7.991   3.217
21502W        W88043  16.481   5.452  13.384
21503W        W88044  28.996  14.707  10.729
21504W        W88045  30.999  20.850   5.154
21505W        W88046  15.440  19.245  13.547
21506W        W88047  17.337  20.146  14.806
21507W        W88048  41.378  13.134   3.519
21508W        W88049   4.746  14.988   0.977
21509W        W88050  13.670   9.000   3.842
21510W        W88051  29.926  39.807  12.173
21511W        W88052   1.566  17.367   1.920
21512W        W88053  16.671   9.789  12.866
21513W        W88054  14.858  39.006   4.195
21514W        W88055   7.007  17.522  13.476
21515W        W88056  27.914   8.380   4.291
21516W        W88057   8.807  17.255  12.241
21517W        W88058  42.959  10.953  11.963
21518W        W88059  37.976  37.295  12.160
21519W        W88060   9.248   6.851   4.887
21520W        W88061  41.389  12.122   3.707
21521W        W88062  40.853  16.679   4.849
21522W        W88063  33.890  41.805  14.046
21523W        W88064  30.038  29.565   1.598
21524W        W88065   1.936  33.614   3.988
21525W        W88066  23.018   6.683  13.813
21526W        W88067  42.890  40.655  14.454
21527W        W88068  19.086  30.724  11.432
21528W        W88069  43.309   5.448  12.721
21529W        W88070  33.263  14.268   2.302
21530W        W88071  36.670  44.792  11.970
21531W        W88072   2.796  12.795   1.184
21532W        W88073  11.376  20.943   3.246
21533W        W88074  10.274   6.430   0.665
21534W        W88075  33.482   4.247   1.291
21535W        W88076   8.825  26.413   3.172
21536W        W88077  42.536   1.705   3.107
21537W        W88078   3.876   1.100   1.749
21538W        W88079  25.618   6.297  14.241
21539W        W88080  22.633  13.963   1.220
21540W        W88081  22.100  31.612  14.585
21541W        W88082  39.086  20.208   0.533
21542W        W88083  13.243   8.365   2.837
21543W        W88084  37.168   9.758  12.025
21544W        W88085  31.151  36.084   0.233
21545W        W88086  27.579   0.720  10.619
21546W        W88087  21.216  21.043   2.770
21547W        W88088   1.987  21.132   3.547
21548W        W88089  42.767  36.414  11.135
21549W        W88090   5.422  32.911   3.107
21550W        W88091  44.562  35.329  12.829
21551W        W88092  37.896  12.451  14.972
21552W        W88093   0.206  42.234   3.119
21553W        W88094   0.975  17.054   0.520
21554W        W88095  36.329  29.829   3.183
21555W        W88096  18.169  32.494  11.131
21556W        W88097  18.673  25.136   4.601
21557W        W88098  32.849  18.360   1.764
21558W        W88099  21.528  36.637   3.218
21559W        W88100   8.325   9.427  14.026
21560W        W88101   0.598  23.763   3.949
21561W        W88102  28.410  21.120   4.978
21562W        W88103   9.641  33.434  12.393
21563W        W88104  10.571  23.757   3.728
21564W        W88105  18.660   1.808  10.668
21565W        W88106  27.603  44.981  13.372
21566W        W88107  29.044  23.102   1.709
21567W        W88108  36.600  27.855   1.334
21568W        W88109  40.571   1.941  14.762
21569W        W88110  19.606  21.699  10.613
21570W        W88111  27.250  38.985   1.491
21571W        W88112  33.832  22.618  12.578
21572W        W88113   1.288   3.782  14.288
21573W        W88114  35.358  36.504   0.432
21574W        W88115   1.380  43.981  12.488
21575W        W88116  34.554  15.174  11.692
21576W        W88117  11.475  17.951   3.116
21577W        W88118  34.358   7.366  11.545
21578W        W88119  12.753  32.862   3.225
21579W        W88120  25.396  38.822   0.510
21580W        W88121   9.924   4.132  11.245
21581W        W88122  35.632  21.365   2.041
21582W        W88123  12.595   3.707  13.446
21583W        W88124  18.618   5.837   4.906
21584W        W88125  35.021  26.747  13.113
21585W        W88126   5.965  15.515  11.532
21586W        W88127  22.006  19.671   1.777
21587W        W88128  27.461  41.510   1.739
21588W        W88129  39.994  25.081   3.350
21589W        W88130  39.041  31.113   1.462
21590W        W88131  12.566  26.544   4.092
21591W        W88132  15.753  23.238  10.613
21592W        W88133  22.693  10.360  12.590
21593W        W88134  29.091  32.699  13.977
21594W        W88135  30.782  41.363   3.831
21595W        W88136  14.158   9.299  10.748
21596W        W88137   8.898  13.323   2.122
21597W        W88138  29.050  26.242   0.790
21598W        W88139  15.842  13.190   1.187
21599W        W88140   3.880  20.921  10.999
21600W        W88141  15.619  21.638  13.123
21601W        W88142  27.505   1.312  11.286
21602W        W88143  27.672   0.361   1.783
21603W        W88144   0.960  29.490  14.387
21604W        W88145   8.910  35.521   1.547
21605W        W88146  18.594  30.760  10.253
21606W        W88147   0.685  40.528  12.022
21607W        W88148   5.168  36.427   3.690
21608W        W88149  41.896  38.896   9.789
21609W        W88150  41.327  31.002   1.962
21610W        W88151  37.320  36.065   3.654
21611W        W88152  37.808  23.317  13.491
21612W        W88153  24.372  11.692  12.326
21613W        W88154   2.913   9.207   3.177
21614W        W88155   6.452  29.002  11.681
21615W        W88156  39.998  18.213   2.724
21616W        W88157  27.182  11.316  14.104
21617W        W88158  15.230  11.239  11.020
21618W        W88159   6.768   7.815   2.547
21619W        W88160  30.086  38.354   4.614
21620W        W88161  27.748  43.938  12.192
21621W        W88162  30.656  19.446   2.682
21622W        W88163   3.468   7.542   0.246
21623W        W88164  34.571   7.711  14.835
21624W        W88165  41.021  40.490   4.850
21625W        W88166  31.554  17.800   4.320
21626W        W88167  22.102  11.398  12.993
21627W        W88168  40.273   3.831   4.543
21628W        W88169  38.133   2.342   2.294
21629W        W88170   7.733  23.047  13.398
21630W        W88171   5.503  25.478   1.346
21631W        W88172  40.060  34.530   3.657
21632W        W88173  28.047  26.463  10.154
21633W        W88174  23.640  17.182   4.604
21634W        W88175  38.252  12.535   4.383
21635W        W88176  15.209   0.621   1.833
21636W        W88177   9.365  16.348  12.931
21637W        W88178  23.458  35.722  11.021
21638W        W88179  32.516  12.329   1.594
21639W        W88180  19.753  14.173   3.283
21640W        W88181  24.894  38.756  14.736
21641W        W88182  29.862   1.873  12.237
21642W        W88183  43.529  43.823   1.691
21643W        W88184  43.997  40.112   2.469
21644W        W88185   8.901  41.331   1.866
21645W        W88186  23.478  44.948  11.625
21646W        W88187  25.677  40.353  14.635
21647W        W88188   5.528   9.190  12.399
21648W        W88189  31.894  20.017   2.072
21649W        W88190  26.300   1.029  13.299
21650W        W88191  25.844  11.922  12.393
21651W        W88192  14.634  38.473  10.426
21652W        W88193  33.342   7.737  11.302
21653W        W88194  10.253  39.478   2.675
21654W        W88195  14.817  25.653  12.054
21655W        W88196   1.961  41.077   3.680
21656W        W88197  41.873   3.299   3.160
21657W        W88198  30.553   7.105   0.231
21658W        W88199   0.272  27.996   4.589
21659W        W88200  44.916  15.735  11.659
21660W        W88201  12.092   8.476   2.827
21661W        W88202  27.920  22.808   2.298
21662W        W88203   7.904   3.338   2.595
21663W        W88204   2.260  34.648   0.503
21664W        W88205  32.464  35.042  12.550
21665W        W88206  22.575   3.702  12.145
21666W        W88207  23.078  25.259   3.160
21667W        W88208  21.240  38.192   5.236
21668W        W88209  24.019  11.787   1.212
21669W        W88210   0.374  17.527  12.647
21670W        W88211  21.097  26.457   1.158
21671W        W88212  10.382  39.228  13.840
21672W        W88213  40.592  31.994  13.332
21673W        W88214  21.934  18.105  14.195
21674W        W88215  15.204  22.510  12.515
21675W        W88216  24.764  24.541  14.968
21676W        W88217   2.302  13.280   2.767
21677W        W88218  11.728  26.057   1.601
21678W        W88219   1.521   9.876  13.682
21679W        W88220  28.517  40.997  11.518
21680W        W88221   1.432  27.164   4.040
21681W        W88222  19.477   7.919  10.988
21682W        W88223  28.172  28.157   2.578
21683W        W88224  38.977  17.546   4.094
21684W        W88225   8.896  31.911  11.108
21685W        W88226  37.879  44.454  10.092
21686W        W88227  10.744  44.772   3.754
21687W        W88228  16.245  37.969   3.744
21688W        W88229  22.188  21.098   2.489
21689W        W88230   9.609   5.364  12.760
21690W        W88231  22.263  26.549  10.673
21691W        W88232  20.566  40.202  12.417
21692W        W88233  27.069  11.228   2.395
21693W        W88234   4.407  26.158  14.833
21694W        W88235  35.607   7.576  10.777
21695W        W88236  17.274  18.759  12.121
21696W        W88237  16.308  25.536   4.955
21697W        W88238  40.371  27.148   3.862
21698W        W88239  33.695  27.891  12.919
21699W        W88240  38.191   8.685  12.546
21700W        W88241  12.129  28.686   4.438
21701W        W88242  41.114  20.588   2.763
21702W        W88243   9.955   1.357   1.854
21703W        W88244  16.731  25.915  10.772
21704W        W88245  36.703  32.052  13.076
21705W        W88246  20.136  11.269   5.398
21706W        W88247  14.107  16.253  13.063
21707W        W88248  22.789  41.770  12.848
21708W        W88249  38.309  27.211  12.860
21709W        W88250  40.661  13.218   1.635
21710W        W88251  35.949   5.943   3.252
21711W        W88252  20.673   4.247   0.100
21712W        W88253  26.040  27.607   2.829
21713W        W88254  16.547   3.897  14.440
21714W        W88255  36.887  16.201  11.293
21715W        W88256  16.030  41.864   1.039
21716W        W88257  19.162  21.508  13.271
21717W        W88258   4.287   9.875   1.646
21718W        W88259  36.771  37.969   4.634
21719W        W88260   7.974  21.464   1.879
21720W        W88261  26.055  34.274   4.122
21721W        W88262   3.904  37.055   1.743
21722W        W88263   8.926  17.584   3.986
21723W        W88264  10.738  42.488   1.686
21724W        W88265  20.581  38.209  13.470
21725W        W88266  34.912  27.147  12.781
21726W        W88267  14.728  30.450  11.551
21727W        W88268  24.031  32.598   1.147
21728W        W88269  33.585  44.304   3.731
21729W        W88270  11.278  14.699   0.676
21730W        W88271   3.944   2.306   4.060
21731W        W88272  31.202   1.501   3.334
21732W        W88273   5.799  24.523   1.020
21733W        W88274  36.481   6.520  14.304
21734W        W88275  26.558  18.497  11.234
21735W        W88276   1.842  19.636  10.338
21736W        W88277  25.954  11.781  12.934
21737W        W88278  17.075  14.042   9.996
21738W        W88279  11.292  18.661   4.921
21739W        W88280   0.305  16.984   5.032
21740W        W88281  30.305  30.163  11.622
21741W        W88282  35.828  14.165   4.958
21742W        W88283   8.177   7.313  13.741
21743W        W88284  42.415  39.788   0.948
21744W        W88285  34.424  27.773   1.463
21745W        W88286  10.865  15.077   3.017
21746W        W88287  38.498  32.858  11.780
21747W        W88288  37.318   8.118  12.038
21748W        W88289  26.616  37.848  12.812
21749W        W88290  28.667  31.799   3.916
21750W        W88291  32.548   3.225  13.911
21751W        W88292   5.199  20.194   2.383
21752W        W88293  41.444  29.630   0.118
21753W        W88294  34.037  40.084   3.307
21754W        W88295  35.639   1.736  13.983
21755W        W88296  42.495   2.684  10.652
21756W        W88297   2.860  36.973  13.005
21757W        W88298  34.291  14.617  12.887
21758W        W88299  42.267  35.267  11.983
21759W        W88300  42.992   2.738   4.977
21760W        W88301  12.676  34.824  11.242
21761W        W88302  11.834   3.399  14.744
21762W        W88303  14.173  38.058   4.836
21763W        W88304  24.990   8.380   2.847
21764W        W88305   1.026  44.452   2.532
21765W        W88306  30.076   9.127  14.005
21766W        W88307   3.827  23.648   5.419
21767W        W88308  38.533  41.777   0.676
21768W        W88309   1.200   2.891   2.232
21769W        W88310  12.782  35.384  10.587
21770W        W88311   9.366  42.632  11.556
21771W        W88312  13.271  17.289   0.425
21772W        W88313   3.165   8.150  11.155
21773W        W88314  15.160  36.312  12.109
21774W        W88315  15.560  13.677   2.333
21775W        W88316  23.270   4.863  12.496
21776W        W88317  35.061  43.878  13.410
21777W        W88318  41.377  12.767  13.288
21778W        W88319  14.815   8.576   2.338
21779W        W88320  39.433  24.751  11.556
21780W        W88321  23.618  43.235  11.110
21781W        W88322  39.051  42.269  10.675
21782W        W88323  23.660  21.753  14.847
21783W        W88324  19.501   3.427   3.611
21784W        W88325  25.769  28.204   3.296
21785W        W88326  34.723  18.382  11.179
21786W        W88327  31.695  31.113   1.619
21787W        W88328  21.229  16.863  13.295
21788W        W88329  34.649  23.053  11.890
21789W        W88330   3.756   7.141   2.496
21790W        W88331   7.889  12.052   2.039
21791W        W88332  44.780   7.395   1.647
21792W        W88333  39.885  25.924   0.271
21793W        W88334  43.026  43.720  12.557
21794W        W88335   9.704  21.463   0.701
21795W        W88336  35.471  24.511  14.805
21796W        W88337  20.973  18.493   3.694
21797W        W88338  12.567   8.205  10.724
21798W        W88339  25.851  19.995  10.919
21799W        W88340  19.665   7.920   4.327
21800W        W88341  23.253  36.311   2.775
21801W        W88342   6.913  41.930  12.549
21802W        W88343  29.636   7.955  14.097
21803W        W88344  44.352  12.729   0.041
21804W        W88345  28.696   5.543   1.968
21805W        W88346  29.189  10.293   4.743
21806W        W88347  43.361  36.715  14.781
21807W        W88348  14.229  38.550  12.059
21808W        W88349  24.898  11.732   0.953
21809W        W88350  38.158   3.732  10.847
21810W        W88351  39.913   5.395  11.546
21811W        W88352  44.381  43.731   3.697
21812W        W88353   0.976  43.327  13.578
21813W        W88354  32.312  22.482  11.157
21814W        W88355   8.360  25.042   1.025
21815W        W88356   4.472  18.001   1.672
21816W        W88357  38.843  14.254  13.110
21817W        W88358   1.702   0.031  11.164
21818W        W88359  42.963   0.987  13.956
21819W        W88360   7.855  43.729  12.049
21820W        W88361  22.996  30.987  12.187
21821W        W88362   0.464   5.630   1.752
21822W        W88363   7.085  25.439   4.614
21823W        W88364  11.811  14.458  14.872
21824W        W88365   3.796  44.520   3.751
21825W        W88366   8.429  27.190   4.257
21826W        W88367  15.266   8.304  12.817
21827W        W88368  32.460  39.834  10.694
21828W        W88369   0.866  34.458  12.993
21829W        W88370  43.273   3.600   4.220
21830W        W88371  10.230  11.811   2.844
21831W        W88372  38.033  31.548  12.700
21832W        W88373   4.162  18.626  10.716
21833W        W88374  34.359  23.423   1.663
21834W        W88375  19.656  14.564  12.024
21835W        W88376  27.145  27.140  10.755
21836W        W88377  32.908  33.147   3.754
21837W        W88378  19.020  28.621  13.422
21838W        W88379  30.125  16.138   3.231
21839W        W88380   9.979   8.799   4.184
21840W        W88381   7.412   3.840   0.501
21841W        W88382  27.022   7.740  12.702
21842W        W88383  22.022  16.814  12.941
21843W        W88384  16.559  34.482  13.837
21844W        W88385  23.531  36.884   0.455
21845W        W88386   5.762  24.952  12.051
21846W        W88387   2.147  22.697  10.116
21847W        W88388   1.779  22.273  14.936
21848W        W88389   8.829  26.692   0.363
21849W        W88390  33.881  36.441   0.419
21850W        W88391  15.625  35.458  11.565
21851W        W88392   9.897  21.075  14.430
21852W        W88393  29.550  10.382   0.969
21853W        W88394  13.731   7.151   3.133
21854W        W88395   2.365   0.980  13.526
21855W        W88396  32.475  11.784  11.085
21856W        W88397   6.097  28.198  13.815
21857W        W88398   3.779  44.990   4.792
21858W        W88399  31.875  27.143  12.568
21859W        W88400   4.235  13.354   2.437
21860W        W88401  28.393  30.547  11.998
21861W        W88402  40.864   1.766  13.474
21862W        W88403  11.766  18.444   4.977
21863W        W88404  32.914  12.581   2.395
21864W        W88405  16.312  29.707   3.295
21865W        W88406  34.088   5.857  14.732
21866W        W88407  26.432   6.621   4.079
21867W        W88408  40.091   9.412   3.926
21868W        W88409  13.320  10.744   0.882
21869W        W88410   8.170  37.987   9.869
21870W        W88411  20.038  11.704   0.769
21871W        W88412  42.794  16.602   1.582
21872W        W88413  10.125  30.864  14.532
21873W        W88414  31.453  13.163   3.695
21874W        W88415  12.404  35.949  14.322
21875W        W88416  37.957   0.076   2.295
21876W        W88417  13.446  19.076   1.470
21877W        W88418  44.852  16.514   3.215
21878W        W88419  26.006  11.212   3.522
21879W        W88420   8.506  13.615   2.315
21880W        W88421  27.423  23.850   3.716
21881W        W88422  38.607   2.325   3.572
21882W        W88423  40.936  37.537   0.951
21883W        W88424   0.673  44.173  12.023
21884W        W88425  22.486  25.063   4.311
21885W        W88426  27.795  31.895   5.075
21886W        W88427  12.361  24.677   3.662
21887W        W88428  16.217  44.446   2.322
21888W        W88429  32.109   5.968  14.576
21889W        W88430   5.203  26.944   4.126
21890W        W88431  25.256  20.281   3.311
21891W        W88432  12.278   1.049   4.631
21892W        W88433  29.659  10.551   0.187
21893W        W88434  20.506  30.618   0.818
21894W        W88435  41.373  22.039   4.721
21895W        W88436  41.313  10.384   2.839
21896W        W88437   5.434  22.240  11.131
21897W        W88438   1.859  35.549   0.422
21898W        W88439   7.753   3.644   1.721
21899W        W88440   5.576  26.551   4.084
21900W        W88441  36.510   5.425   2.304
21901W        W88442   5.396  33.965  13.531
21902W        W88443  27.706   5.851   3.044
21903W        W88444  19.263  33.728  13.160
21904W        W88445   7.478   6.646   0.419
21905W        W88446  38.197  16.263   3.278
21906W        W88447  25.691   3.693  10.206
21907W        W88448  20.176  18.330  11.642
21908W        W88449   5.770  16.516  13.936
21909W        W88450  26.534  42.239   0.466
21910W        W88451  35.621  34.787  14.291
21911W        W88452  27.364  12.960   4.910
21912W        W88453  34.743  29.970  10.867
21913W        W88454  28.384  19.175  14.047
21914W        W88455  36.755   6.287  11.981
21915W        W88456  22.833  22.460  13.627
21916W        W88457  21.066   6.913  12.527
21917W        W88458  28.638  34.460   2.882
21918W        W88459   6.846  27.567  11.858
21919W        W88460  40.636   9.127   0.935
21920W        W88461  10.277   4.435   4.401
21921W        W88462   8.273  17.339   2.258
21922W        W88463  14.445  40.975   3.663
21923W        W88464   7.805  14.844   3.097
21924W        W88465  43.396   6.235  12.691
21925W        W88466  15.145  41.488   0.747
21926W        W88467   0.887  38.131   0.640
21927W        W88468  17.528  33.002  12.615
21928W        W88469  26.367  29.974   4.294
21929W        W88470  40.406  44.981   2.166
21930W        W88471  23.718   7.772   4.104
21931W        W88472   6.346   0.272   4.822
21932W        W88473  32.144  30.022  10.683
21933W        W88474  14.223  14.465  12.652
21934W        W88475  26.653  42.026  10.597
21935W        W88476  23.535   5.347   1.299
21936W        W88477  23.731   9.412  13.999
21937W        W88478  36.324   5.731  12.762
21938W        W88479  39.904  41.846  11.576
21939W        W88480  25.693  35.817   0.443
21940W        W88481  19.689  22.027   2.030
21941W        W88482  22.620  15.216   5.303
21942W        W88483  27.280  24.415  12.543
21943W        W88484  15.178  26.257  13.951
21944W        W88485   2.241  23.882   3.138
21945W        W88486   2.349  39.818  13.350
21946W        W88487  33.814  22.723   0.692
21947W        W88488  32.910  44.049  13.852
21948W        W88489  34.795   6.274   5.128
21949W        W88490  41.739  17.196   2.312
21950W        W88491  16.002  32.399   1.437
21951W        W88492  41.286  32.386  10.684
21952W        W88493  42.435   6.411  14.552
21953W        W88494  22.682  28.538   0.330
21954W        W88495   2.060  41.768  14.561
21955W        W88496  38.070  40.852  10.674
21956W        W88497   7.946  29.096   1.171
21957W        W88498  21.957  29.512  14.358
21958W        W88499  37.571  41.959  13.060
21959W        W88500  29.287  14.220  11.608
21960W        W88501  14.538   0.814  13.415
21961W        W88502  37.561  38.562   3.919
21962W        W88503  12.295  18.707   3.853
21963W        W88504   4.198  14.888   0.297
21964W        W88505  26.476   0.904  14.788
21965W        W88506  18.090  35.922   0.005
21966W        W88507   0.791  26.926  13.149
21967W        W88508  32.204  25.733  13.720
21968W        W88509  26.088  13.810   1.304
21969W        W88510   5.929  18.954   0.767
21970W        W88511   6.668  10.749   2.343
21971W        W88512   3.848  10.017  10.737
21972W        W88513  18.527   3.919   1.254
21973W        W88514  23.524  29.360   0.759
21974W        W88515  43.580  24.589   0.690
21975W        W88516  28.936  21.253  10.118
21976W        W88517  14.529  12.272  12.854
21977W        W88518  23.313  14.873   2.944
21978W        W88519  28.185  16.257  13.110
21979W        W88520  10.701  18.252   0.106
21980W        W88521   1.555  27.975  14.066
21981W        W88522  11.563  21.244   1.217
21982W        W88523  40.869  42.466   1.833
21983W        W88524  32.471  17.926  12.345
21984W        W88525   4.738  32.130  12.382
21985W        W88526  19.554   3.229   4.144
21986W        W88527  26.059  26.443  14.153
21987W        W88528  19.741  42.597  11.211
21988W        W88529  12.022  12.712  13.315
21989W        W88530  40.990  24.434  12.051
21990W        W88531  23.741  17.740   1.674
21991W        W88532  22.995  17.015   0.897
21992W        W88533  41.999  39.980   2.144
21993W        W88534  34.957   5.542  13.418
21994W        W88535  39.500  40.789   0.988
21995W        W88536  15.560   9.251   1.751
21996W        W88537   0.807  44.390   4.557
21997W        W88538  25.498  33.036   3.809
21998W        W88539   6.699  23.980  14.815
21999W        W88540   2.103  42.505   2.184
22000W        W88541  20.305  37.805   5.094
22001W        W88542   0.229  40.790   2.273
22002W        W88543  27.948  13.751   0.983
22003W        W88544  27.174  20.593   0.475
22004W        W88545  30.031   8.765  13.205
22005W        W88546  35.934  33.541  13.482
22006W        W88547   6.863  32.660   1.542
22007W        W88548  10.761   9.694  13.540
22008W        W88549  10.797  33.492  11.742
22009W        W88550  13.642  10.431  11.752
22010W        W88551  40.453  34.832   1.016
22011W        W88552   0.899  22.276   0.513
22012W        W88553  16.047   1.816   0.035
22013W        W88554  30.546  37.870   0.259
22014W        W88555   5.164  38.341  10.600
22015W        W88556  44.126  27.661  12.421
22016W        W88557  23.552  36.602  14.966
22017W        W88558  29.700   6.740  12.398
22018W        W88559  12.805  10.733   0.877
22019W        W88560  40.462  24.458  13.852
22020W        W88561   4.677  25.665   4.171
22021W        W88562  43.760  34.127  10.773
22022W        W88563   5.868  21.678   2.831
22023W        W88564  22.487  32.958  12.074
22024W        W88565  33.403  41.727  14.721
22025W        W88566  17.120   5.352  10.320
22026W        W88567  28.934   2.721   4.105
22027W        W88568  27.932  41.631  12.614
22028W        W88569  42.289  34.456   3.753
22029W        W88570  29.572  14.274   1.853
22030W        W88571  21.058  44.294  10.957
22031W        W88572  13.639   4.966   0.321
22032W        W88573   0.611  36.591  11.681
22033W        W88574   7.711   8.633   9.953
22034W        W88575  33.343   0.002   4.593
22035W        W88576  10.858  44.396   2.921
22036W        W88577  36.287  39.057   0.424
22037W        W88578   2.824  33.823   2.363
22038W        W88579   9.141  30.393   4.098
22039W        W88580   7.920   5.935  13.281
22040W        W88581  25.133  12.210   0.978
22041W        W88582  19.308  26.861   3.276
22042W        W88583   0.875  36.308  13.517
22043W        W88584  40.800  40.884   0.487
22044W        W88585   1.751   5.175  12.511
22045W        W88586  16.834  26.364  10.532
22046W        W88587  34.467  14.708   4.925
22047W        W88588  12.540   8.474   3.339
22048W        W88589  32.911   9.344  10.450
22049W        W88590  33.892  25.047  10.700
22050W        W88591  43.740  43.127   3.235
22051W        W88592  31.601  25.430  11.937
22052W        W88593  24.069  30.140   4.134
22053W        W88594  20.227  10.712  12.426
22054W        W88595  35.049  27.094   3.869
22055W        W88596  43.673  10.297   3.582
22056W        W88597   7.623  42.778  10.815
22057W        W88598  28.554   9.982   1.258
22058W        W88599  40.263  19.257   5.088
22059W        W88600  21.845  39.059  11.072
22060W        W88601   1.786  28.247  12.365
22061W        W88602  25.738   0.503   4.238
22062W        W88603  17.218   2.656  11.403
22063W        W88604   6.368  16.259   2.200
22064W        W88605  30.564  18.618   2.780
22065W        W88606  32.866  13.721  14.464
22066W        W88607  31.886  24.147  11.478
22067W        W88608   6.395   8.474   5.133
22068W        W88609  38.556  36.385   1.285
22069W        W88610  26.211   3.249   1.669
22070W        W88611  25.031   9.959   3.147
22071W        W88612  30.674   0.211   1.250
22072W        W88613  23.652  39.987   0.021
22073W        W88614  36.782   3.165   5.454
22074W        W88615  36.530  19.309   0.495
22075W        W88616   9.573  14.184   4.169
22076W        W88617  23.926  35.840  11.173
22077W        W88618  40.872   6.473  12.368
22078W        W88619  43.034  40.483  12.121
22079W        W88620  31.111  14.412  12.049
22080W        W88621  21.181  36.030  12.592
22081W        W88622   2.700  42.820  11.524
22082W        W88623  15.065   1.701  12.078
22083W        W88624   9.360  39.855  12.002
22084W        W88625  43.969  30.197   0.013
22085W        W88626  44.867  24.961   1.379
22086W        W88627  10.397  44.052  14.951
22087W        W88628  20.940  15.041  12.643
22088W        W88629  43.702  33.174   1.670
22089W        W88630  17.753  16.520   1.877
22090W        W88631  15.634  39.507  13.584
22091W        W88632  36.961  33.603  14.087
22092W        W88633  38.862  18.652   3.586
22093W        W88634   8.721  35.996  12.856
22094W        W88635  13.402  29.413  14.813
22095W        W88636  18.856  26.166  13.496
22096W        W88637  41.136   0.982   2.776
22097W        W88638  11.927  29.646  11.978
22098W        W88639  28.264  16.645  14.395
22099W        W88640  16.786  44.681  14.012
22100W        W88641  44.023   8.855  14.510
22101W        W88642   0.298  19.334   3.268
22102W        W88643   1.381   1.506   0.966
22103W        W88644   4.582   4.705  10.628
22104W        W88645  41.299  25.521   3.275
22105W        W88646  37.943  23.614  14.488
22106W        W88647  39.536  23.174   0.831
22107W        W88648  28.930  43.326  12.599
22108W        W88649   1.058  22.255  13.412
22109W        W88650  19.630   9.926  11.119
22110W        W88651  24.935  13.781   3.148
22111W        W88652   2.488  23.137  10.287
22112W        W88653  37.227   6.558  13.543
22113W        W88654  30.093  44.887   1.735
22114W        W88655  14.624  24.219   2.045
22115W        W88656   7.725  31.841   3.081
22116W        W88657   8.988  41.506  13.959
22117W        W88658  22.279  36.613  13.950
22118W        W88659  20.653  37.989   1.487
22119W        W88660  11.788   0.684  14.358
22120W        W88661   0.860   8.380  10.802
22121W        W88662  41.447   8.475   0.859
22122W        W88663  14.220  20.004  11.072
22123W        W88664  44.893  25.837  14.375
22124W        W88665   1.643   5.935   0.419
22125W        W88666  28.591  11.763   4.069
22126W        W88667   0.850  42.950  10.714
22127W        W88668  20.201  23.177   4.210
22128W        W88669  25.475   6.189   3.388
22129W        W88670  35.387  32.243   1.429
22130W        W88671   5.356  28.591  10.631
22131W        W88672  12.823  13.391  11.638
22132W        W88673  40.338  31.901  10.761
22133W        W88674  41.827  13.625  13.820
22134W        W88675  10.626   8.689   1.962
22135W        W88676   7.170  18.441   4.520
22136W        W88677  26.425  40.876   2.275
22137W        W88678  32.460  18.842  11.192
22138W        W88679  38.385  13.622  11.945
22139W        W88680  15.999  13.867   9.906
22140W        W88681   7.627  14.104  13.346
22141W        W88682   5.401  17.354  11.753
22142W        W88683  34.564   1.305  14.773
22143W        W88684   7.104   3.383   2.043
22144W        W88685  29.464  40.319  13.870
22145W        W88686  31.730   1.311   1.279
22146W        W88687   0.106  12.809   2.587
22147W        W88688  17.238   5.470   0.074
22148W        W88689  18.596  31.228   5.057
22149W        W88690  41.420   6.712  11.174
22150W        W88691  22.524  12.666  13.845
22151W        W88692  42.032   9.125  12.476
22152W        W88693  32.447  18.056  14.981
22153W        W88694  25.023  12.895  14.561
22154W        W88695  30.760  10.701   5.469
22155W        W88696   3.905  11.849  14.843
22156W        W88697  26.213  32.330   3.150
22157W        W88698  36.880   8.273   0.734
22158W        W88699  37.836  39.729   2.469
22159W        W88700  38.835  11.183  14.175
22160W        W88701  31.338  19.425  10.641
22161W        W88702  43.377   7.368  14.870
22162W        W88703   7.673  13.115  11.594
22163W        W88704  26.209   0.056  11.428
22164W        W88705  34.605   1.407   9.842
22165W        W88706  33.220  10.548  11.014
22166W        W88707  28.802  30.332  12.932
22167W        W88708  34.599  12.851   1.421
22168W        W88709  27.967  32.026   3.673
22169W        W88710  22.694  32.167  10.210
22170W        W88711   0.267  32.077  11.880
22171W        W88712  34.017  17.401   1.628
22172W        W88713   1.276   8.340  13.469
22173W        W88714  39.021  32.688   0.875
22174W        W88715  35.413   3.256   0.728
22175W        W88716  32.420  41.914   3.041
22176W        W88717   8.459  39.608   3.569
22177W        W88718  14.811  24.615  14.480
22178W        W88719  27.023  24.272  12.099
22179W        W88720  31.573  22.927   2.245
22180W        W88721  24.537  35.026  13.102
22181W        W88722  10.584  12.858   1.473
22182W        W88723  19.710  18.635   2.376
22183W        W88724  15.590  12.220   3.756
22184W        W88725  26.196   4.661   1.304
22185W        W88726  15.686  43.036   0.438
22186W        W88727  11.400  40.954   2.836
22187W        W88728  27.087  29.891  11.490
22188W        W88729  33.903   4.150  11.679
22189W        W88730  30.733  41.111   1.486
22190W        W88731  29.360   4.764  11.930
22191W        W88732  18.719   8.545  14.821
22192W        W88733   2.315  34.795   3.728
22193W        W88734   7.354  40.777  11.103
22194W        W88735  12.995  25.783   2.074
22195W        W88736  23.008  15.307   0.412
22196W        W88737   7.586   3.434  13.827
22197W        W88738  18.729  20.519  11.610
22198W        W88739  41.465  44.049  11.592
22199W        W88740  39.326  10.138   1.982
22200W        W88741  44.827  33.275  14.250
22201W        W88742   5.721  35.865  11.589
22202W        W88743   4.749  30.674  10.943
22203W        W88744   4.139  43.495  14.808
22204W        W88745   8.416  10.541  13.804
22205W        W88746  42.920  19.441   0.212
22206W        W88747  34.356   5.678   3.215
22207W        W88748  22.239   2.490   2.815
22208W        W88749   9.229  31.841   2.288
22209W        W88750  41.162  18.903   5.028
22210W        W88751   4.940  21.201   0.832
22211W        W88752  17.345  32.425  14.547
22212W        W88753   8.115   9.865  14.956
22213W        W88754  33.706  32.517   1.932
22214W        W88755  18.986  24.811  12.495
22215W        W88756  29.815  25.261  12.734
22216W        W88757  16.362  12.249   1.143
22217W        W88758  15.030  32.351   3.267
22218W        W88759  26.919  32.787  13.422
22219W        W88760  32.029   5.808  10.690
22220W        W88761   3.813  14.575  13.980
22221W        W88762  42.373  43.327   0.897
22222W        W88763   7.409  18.710   0.464
22223W        W88764  29.883  19.055   1.346
22224W        W88765  44.192  10.218   3.653
22225W        W88766  31.026  21.222  13.422
22226W        W88767  28.709  18.017   0.334
22227W        W88768   8.382  20.769   1.017
22228W        W88769   2.501  41.339  11.541
22229W        W88770  36.086  15.030   2.410
22230W        W88771  40.719  31.156  11.127
22231W        W88772  30.417   9.769   2.091
22232W        W88773  40.488  19.775  11.197
22233W        W88774  38.135  39.958   3.554
22234W        W88775  25.546  27.800  13.350
22235W        W88776  36.022  31.451   3.409
22236W        W88777   9.681  31.519  13.455
22237W        W88778  29.778  39.543   0.389
22238W        W88779   0.874  23.455  10.429
22239W        W88780  33.194  33.602  12.912
22240W        W88781  25.485  15.812  10.781
22241W        W88782  29.219  30.515   3.399
22242W        W88783  21.623   0.524   9.888
22243W        W88784  26.444  34.034  12.720
22244W        W88785   8.102  24.987   4.277
22245W        W88786  25.323  11.767   3.626
22246W        W88787   4.237  36.134   2.145
22247W        W88788  35.294  30.419  14.012
22248W        W88789  44.925   1.739  14.563
22249W        W88790  19.927  10.875   0.965
22250W        W88791  43.705   2.326  12.440
22251W        W88792  37.638  40.644  14.565
22252W        W88793  19.653   5.002  14.345
22253W        W88794  31.580   4.010  14.347
22254W        W88795  40.432  24.514  12.861
22255W        W88796  43.540  12.166  11.590
22256W        W88797   2.895  20.526  11.705
22257W        W88798  28.497  27.595  11.600
22258W        W88799  33.483  25.157   0.259
22259W        W88800  15.507   0.251  12.427
22260W        W88801  15.629  34.173   0.896
22261W        W88802   5.347  33.242  13.710
22262W        W88803  21.110  42.424  12.937
22263W        W88804  13.153  43.528   0.724
22264W        W88805  42.377   8.846  14.052
22265W        W88806   6.455  13.427   0.049
22266W        W88807  15.287   5.634  12.184
22267W        W88808   3.024   8.216   1.328
22268W        W88809  21.830   0.718  14.302
22269W        W88810  10.600  27.889   2.837
22270W        W88811  33.487  43.643  12.075
22271W        W88812  12.318  14.919   3.166
22272W        W88813   3.574  25.823   4.999
22273W        W88814  17.763  12.736   4.346
22274W        W88815  41.661   2.478  13.299
22275W        W88816  35.039  25.265   3.342
22276W        W88817  15.763  41.033  10.220
22277W        W88818   2.957  15.140   3.101
22278W        W88819  28.668  15.904  10.710
22279W        W88820  33.451  21.278  10.760
22280W        W88821   3.366  41.995  12.198
22281W        W88822  11.821   5.626   2.345
22282W        W88823   4.276   9.876  12.561
22283W        W88824  30.902  42.951  14.054
22284W        W88825  37.365  21.782  11.875
22285W        W88826  23.939  32.951   2.521
22286W        W88827  37.745  36.802  11.308
22287W        W88828  15.822  24.563  10.519
22288W        W88829   4.405  42.907   0.022
22289W        W88830  18.642  37.063  14.763
22290W        W88831  37.984  32.800   1.820
22291W        W88832  23.163  13.667   2.197
22292W        W88833  30.638   0.279  12.426
22293W        W88834   5.976  41.233  13.399
22294W        W88835   2.937   9.749   1.138
22295W        W88836   7.767  22.846   3.734
22296W        W88837   6.779  37.396   1.818
22297W        W88838  42.241  31.346   2.880
22298W        W88839  34.947  21.708  11.901
22299W        W88840  42.338  42.574  12.853
22300W        W88841  44.815  27.890   1.832
22301W        W88842  41.998  11.652   2.595
22302W        W88843  25.148   0.490  10.753
22303W        W88844  37.506  37.561  14.121
22304W        W88845   5.241  11.141  11.404
22305W        W88846  24.302   9.621  13.461
22306W        W88847  28.331  12.800   0.695
22307W        W88848  38.373  32.519   0.049
22308W        W88849  15.034   9.164   3.096
22309W        W88850  12.461  25.132   0.483
22310W        W88851  43.712  34.039  14.343
22311W        W88852  32.608  28.815  10.641
22312W        W88853  29.542  30.519   1.666
22313W        W88854  12.852  44.758  11.135
22314W        W88855   0.771  25.163   4.016
22315W        W88856  41.842  26.893  13.977
22316W        W88857   2.403  44.193  10.128
22317W        W88858  15.212  10.604   3.161
22318W        W88859   1.873  16.618  12.022
22319W        W88860  11.571  10.483   0.456
22320W        W88861  34.088  42.064   4.741
22321W        W88862  19.727  39.740   1.350
22322W        W88863  22.758   6.305   1.656
22323W        W88864  32.969   6.324  13.344
22324W        W88865  28.599  13.897   4.118
22325W        W88866  32.080  33.424   2.814
22326W        W88867  18.739   3.985  11.156
22327W        W88868  38.222  31.011  11.073
22328W        W88869  15.662  36.261  11.162
22329W        W88870  17.439  26.406  14.704
22330W        W88871  17.166   3.368  13.169
22331W        W88872  42.455   6.768  12.845
22332W        W88873  32.522  40.719  11.027
22333W        W88874  25.549   1.892  14.973
22334W        W88875  36.584  31.148   2.663
22335W        W88876  28.221  20.779  12.508
22336W        W88877  39.528  33.737  11.244
22337W        W88878  31.261  22.992  14.938
22338W        W88879  23.192  19.098  14.584
22339W        W88880  44.367  30.675  14.210
22340W        W88881  36.687  27.644  12.159
22341W        W88882  40.427  28.696  13.420
22342W        W88883  28.570  37.417  11.920
22343W        W88884  30.152  23.214   2.705
22344W        W88885  31.435  31.267   0.835
22345W        W88886  42.014   3.530   1.831
22346W        W88887  30.579  28.669  11.586
22347W        W88888   2.393  34.107   2.368
22348W        W88889  43.383  19.780   1.385
22349W        W88890  24.826   4.837  10.252
22350W        W88891  24.502  43.869   4.674
22351W        W88892  38.887  29.554   0.725
22352W        W88893  27.456  29.673   2.802
22353W        W88894  26.221  32.608  11.101
22354W        W88895  24.782  35.316  13.484
22355W        W88896   1.226   8.136   4.081
22356W        W88897  30.497   5.320   3.807
22357W        W88898   1.148  41.514   1.939
22358W        W88899   0.391   8.263   3.214
22359W        W88900  43.469  42.928   4.172
22360W        W88901  12.780  16.482   4.701
22361W        W88902  28.608  24.276   2.227
22362W        W88903   4.424  14.194   4.941
22363W        W88904   6.303  21.304   4.074
22364W        W88905  18.086  41.448   0.267
22365W        W88906   3.486  21.227  11.682
22366W        W88907   8.147   5.860  13.739
22367W        W88908  21.318  33.116  13.892
22368W        W88909  41.301  11.636  12.524
22369W        W88910  27.863  38.519  13.019
22370W        W88911   7.441  38.409  14.283
22371W        W88912  43.157  25.557   1.395
22372W        W88913  43.770  20.123  14.362
22373W        W88914  16.581   6.713  14.348
22374W        W88915  32.604  35.873  14.811
22375W        W88916  42.270  10.626  10.650
22376W        W88917   2.781  38.969   5.027
22377W        W88918   3.433   5.877   4.179
22378W        W88919   6.834  25.431  12.881
22379W        W88920  41.021  36.590   3.214
22380W        W88921  32.914   0.296   4.638
22381W        W88922   7.420  15.850  13.732
22382W        W88923  12.444  40.413  10.536
22383W        W88924  11.894   3.452  13.919
22384W        W88925  26.285  28.955  13.215
22385W        W88926  37.352   6.903   3.921
22386W        W88927  20.026  23.972   2.696
22387W        W88928  37.631  37.420  12.541
22388W        W88929  14.145  20.082  11.595
22389W        W88930  34.619  40.985  11.485
22390W        W88931  36.158  34.873   1.383
22391W        W88932  37.428   8.328   3.198
22392W        W88933  27.654  44.704   2.326
22393W        W88934  17.387  36.491  13.011
22394W        W88935  42.581  41.958   1.329
22395W        W88936  28.414   1.665  13.864
22396W        W88937  15.401  43.889  12.114
22397W        W88938   2.402  38.481  14.648
22398W        W88939  21.579   2.563  11.541
22399W        W88940  32.586  39.619  11.645
22400W        W88941  15.013   4.180  14.099
22401W        W88942   4.162  28.950   0.741
22402W        W88943   6.366   7.926   2.842
22403W        W88944   7.369   5.311   0.930
22404W        W88945  39.195  10.851   0.275
22405W        W88946  22.046   1.385  14.906
22406W        W88947  11.392  30.494  11.128
22407W        W88948  14.334  44.773  14.406
22408W        W88949  15.194  28.336   4.478
22409W        W88950  38.235  20.224  14.461
22410W        W88951   2.743   4.595   4.202
22411W        W88952   5.479   3.198   3.401
22412W        W88953   0.284  21.102  12.945
22413W        W88954  15.237  24.697   1.738
22414W        W88955  23.569   7.831   0.629
22415W        W88956  19.950  20.009   1.802
22416W        W88957  34.899  17.497  13.432
22417W        W88958  23.910  35.527   1.785
22418W        W88959   3.839   7.931   2.844
22419W        W88960  21.761  34.565   0.414
22420W        W88961  25.549  42.432   2.273
22421W        W88962   4.435  27.948  10.053
22422W        W88963  12.588  36.069   0.041
22423W        W88964   4.833  44.706   3.175
22424W        W88965  12.907   1.785   3.502
22425W        W88966  43.547  27.093  12.154
22426W        W88967  30.980  24.064   2.260
22427W        W88968   8.226  19.432   2.705
22428W        W88969  11.845  17.069   5.076
22429W        W88970  12.618   3.849   0.793
22430W        W88971   7.442   2.385  11.107
22431W        W88972  41.887  40.101  13.684
22432W        W88973   0.220   6.849   3.662
22433W        W88974  11.054  19.292  10.504
22434W        W88975  42.412   9.221   0.902
22435W        W88976   5.086  22.962   4.487
22436W        W88977  25.481  39.282   3.652
22437W        W88978  43.268  43.288  12.384
22438W        W88979  40.105   1.857  14.971
22439W        W88980  13.971  32.952   3.731
22440W        W88981  32.681   1.209   1.351
22441W        W88982   0.016  21.987  11.105
22442W        W88983  16.065  15.088  11.249
22443W        W88984  19.147  36.917  14.767
22444W        W88985   7.847  20.545  12.925
22445W        W88986  44.895  12.220   3.045
22446W        W88987  31.848  28.145   2.623
22447W        W88988  26.764  37.413  13.850
22448W        W88989  15.934   6.015   3.299
22449W        W88990  38.902  26.813  14.853
22450W        W88991  14.239  38.362   2.876
22451W        W88992  19.570   1.048  11.076
22452W        W88993   0.360   0.099   3.173
22453W        W88994  13.793  12.299  11.657
22454W        W88995  28.991   3.579   3.517
22455W        W88996  11.663  15.884  11.504
22456W        W88997  33.046  31.573  13.026
22457W        W88998   4.388  12.702   0.855
22458W        W88999  22.957  27.557   0.323
22459W        W89000   7.653   5.988  13.839
22460W        W89001  29.160  29.735  12.029
22461W        W89002  13.070   5.615   2.660
22462W        W89003  19.985  10.708  11.981
22463W        W89004  40.925   8.115  10.570
22464W        W89005   9.344  29.019   4.830
22465W        W89006  43.839  26.976   1.260
22466W        W89007  32.923  21.531  14.336
22467W        W89008  14.209  22.299   5.042
22468W        W89009  35.335  19.797  12.525
22469W        W89010  38.333  16.332  14.015
22470W        W89011  17.062   7.331  14.260
22471W        W89012  42.802  10.778   0.090
22472W        W89013  41.854  36.886  10.492
22473W        W89014  31.565  22.045  13.590
22474W        W89015   3.711  21.520   3.067
22475W        W89016   5.753  19.096  12.938
22476W        W89017   6.582  15.366  14.507
22477W        W89018  13.775  41.230  12.958
22478W        W89019  43.669  34.808  11.575
22479W        W89020  25.692  43.992   0.714
22480W        W89021  26.937  35.474   4.715
22481W        W89022   4.156  44.205  13.565
22482W        W89023   3.397  34.559  14.834
22483W        W89024  43.149  13.911  11.080
22484W        W89025  28.939  13.692  10.542
22485W        W89026  36.377   7.201   2.697
22486W        W89027  38.937  25.101   3.757
22487W        W89028  28.606  21.115  12.373
22488W        W89029  36.193  39.546  10.740
22489W        W89030  41.244  31.501  14.999
22490W        W89031  18.637  20.766   1.838
22491W        W89032  43.586  41.802   1.161
22492W        W89033  18.191  28.493   4.026
22493W        W89034  40.055   7.298  11.923
22494W        W89035  17.776   6.827  13.742
22495W        W89036  43.750  42.322   1.782
22496W        W89037  32.589  12.340   3.108
22497W        W89038  11.392  35.406   0.984
22498W        W89039  34.365  38.804  14.892
22499W        W89040   6.458  19.758  10.203
22500W        W89041  21.163  25.280  12.701
22501W        W89042  12.760   4.149   4.156
22502W        W89043  28.469  11.095  13.859
22503W        W89044  12.878  27.345  14.530
22504W        W89045  15.150   2.337   3.701
22505W        W89046   6.805  24.374   4.646
22506W        W89047  25.992  11.102   2.714
22507W        W89048  28.681  17.832   3.517
22508W        W89049  10.774  14.590  12.311
22509W        W89050   4.135   5.344  11.104
22510W        W89051  39.813  18.112  13.956
22511W        W89052  43.085  34.450   0.343
22512W        W89053  44.299  44.222  12.238
22513W        W89054  11.219  20.730  12.480
22514W        W89055   3.227  13.185  10.771
22515W        W89056  25.798  25.055   4.554
22516W        W89057  44.659   9.708   0.773
22517W        W89058  16.876  12.238   1.412
22518W        W89059  30.516  25.553   3.706
22519W        W89060  41.005  22.554   1.196
22520W        W89061   1.222  21.786  13.551
22521W        W89062  32.177  25.561   2.283
22522W        W89063  23.684   8.231   0.943
22523W        W89064  36.115   8.190  13.304
22524W        W89065  34.826  38.858   4.983
22525W        W89066  14.208  29.887  12.997
22526W        W89067  43.753  28.397  11.890
22527W        W89068  28.111   8.520  11.870
22528W        W89069  41.215   0.234   1.990
22529W        W89070  41.605  27.684  11.229
22530W        W89071  31.695  37.310  14.860
22531W        W89072   2.429  39.758   0.967
22532W        W89073   0.024  12.151  12.569
22533W        W89074  11.027   1.719   1.880
22534W        W89075  42.029  40.812  14.666
22535W        W89076  39.517  12.498   1.293
22536W        W89077   9.414  18.514   2.788
22537W        W89078  24.267  35.396  11.216
22538W        W89079  35.624  12.189  14.866
22539W        W89080  37.928  10.444   0.945
22540W        W89081   3.400   5.314  11.413
22541W        W89082  36.565   1.341  13.415
22542W        W89083  44.558   7.205  11.423
22543W        W89084  29.964  39.360  12.935
22544W        W89085  19.421  24.956  14.421
22545W        W89086  21.541  39.499   2.517
22546W        W89087  16.520  18.151  13.574
22547W        W89088  41.907  36.633  12.079
22548W        W89089  18.036   6.097  14.709
22549W        W89090  44.745  32.123  11.942
22550W        W89091  23.139   5.605   4.014
22551W        W89092  22.589  17.182  12.100
22552W        W89093  33.102  21.231   0.064
22553W        W89094  34.573  44.528   3.244
22554W        W89095   6.284   9.697   1.899
22555W        W89096   6.704  17.725   0.508
22556W        W89097  11.144  25.173   2.931
22557W        W89098  44.820  39.459   1.426
22558W        W89099  36.640  38.755   4.989
22559W        W89100  24.337  19.655  10.300
22560W        W89101  44.279  35.168  13.584
22561W        W89102  41.448  26.449  11.947
22562W        W89103  25.889  30.967   1.969
22563W        W89104  16.296  24.183  12.985
22564W        W89105   1.322  27.029  14.936
22565W        W89106  31.732  33.015  14.415
22566W        W89107  20.162   6.070   4.155
22567W        W89108  37.514  44.183   1.629
22568W        W89109  42.152  19.819  11.741
22569W        W89110  43.529  20.785  14.294
22570W        W89111  32.890  18.539  11.120
22571W        W89112  37.854  11.436  11.084
22572W        W89113  28.963   4.491   1.873
22573W        W89114  43.233  20.072   3.161
22574W        W89115  12.408  30.088   2.244
22575W        W89116  23.267  16.751   1.273
22576W        W89117  37.816   1.474  13.750
22577W        W89118  22.087  28.897  14.920
22578W        W89119  20.588  33.829   2.742
22579W        W89120  30.655   7.796   4.260
22580W        W89121  24.622  10.688   2.901
22581W        W89122   7.135  21.966  12.435
22582W        W89123  10.879  12.302  11.207
22583W        W89124  31.182  34.371  13.430
22584W        W89125   1.001  18.027  14.843
22585W        W89126  18.601  10.762  14.090
22586W        W89127  21.229  15.855  10.247
22587W        W89128  44.700  17.538  14.387
22588W        W89129  21.932   2.965  11.523
22589W        W89130  10.757  10.205   0.354
22590W        W89131  12.942   6.689   0.791
22591W        W89132  37.878   0.032   4.638
22592W        W89133   5.028  21.336  12.053
22593W        W89134  12.251  14.708  14.035
22594W        W89135  15.822   1.531  12.633
22595W        W89136   8.182  18.902   0.875
22596W        W89137  23.288  35.748   4.140
22597W        W89138  37.613   1.632  14.885
22598W        W89139  36.899  30.917   2.289
22599W        W89140  32.669  21.545   1.832
22600W        W89141  32.208  40.518   0.721
22601W        W89142  31.679  25.199   3.374
22602W        W89143  39.826  32.675   4.086
22603W        W89144   8.517  30.483   4.731
22604W        W89145  15.647   9.839  10.213
22605W        W89146  40.482  24.912  10.863
22606W        W89147  29.059  17.790  14.328
22607W        W89148  35.055   3.751  14.431
22608W        W89149  12.316  42.760   0.001
22609W        W89150  28.077  28.451   1.685
22610W        W89151  26.044  36.417   2.589
22611W        W89152  31.823  21.889   0.254
22612W        W89153  32.131  23.642   0.879
22613W        W89154   1.244  10.945   3.180
22614W        W89155   2.360  33.867   2.812
22615W        W89156  26.893   7.321   3.519
22616W        W89157   2.230  13.735  11.493
22617W        W89158   7.075  23.872   2.268
22618W        W89159  40.436   6.357  13.965
22619W        W89160  30.382  20.294  14.480
22620W        W89161  23.673   8.260  12.549
22621W        W89162   2.697  39.390   3.351
22622W        W89163  21.146  28.076   3.703
22623W        W89164  31.056   7.939   0.315
22624W        W89165  25.117  23.694  13.814
22625W        W89166  18.278   7.367   0.354
22626W        W89167  23.373  13.035   0.809
22627W        W89168  11.317   5.675  12.221
22628W        W89169  13.052   3.334  14.466
22629W        W89170  29.863  15.909   4.233
22630W        W89171  15.442  43.387   4.595
22631W        W89172  40.430  40.583  13.995
22632W        W89173  12.924  39.869   0.907
22633W        W89174  22.939  13.633  11.099
22634W        W89175  22.194   3.999   1.397
22635W        W89176  32.409   1.818   2.167
22636W        W89177  16.562  18.567   2.637
22637W        W89178  22.982  43.583  12.534
22638W        W89179  37.873  15.006   2.889
22639W        W89180   2.857  41.705   5.035
22640W        W89181  44.007   3.282   3.108
22641W        W89182  43.793  44.182  11.120
22642W        W89183  35.073   3.293  12.087
22643W        W89184  28.443   1.619   1.667
22644W        W89185  26.280  24.754   3.896
22645W        W89186  42.340  15.485   2.140
22646W        W89187   5.139  41.894  12.161
22647W        W89188  27.268   3.807   2.309
22648W        W89189  29.096  29.558   1.564
22649W        W89190   9.461   1.524   1.669
22650W        W89191  24.157  22.139   4.455
22651W        W89192   5.153  20.916   2.819
22652W        W89193  31.067  14.804   4.059
22653W        W89194  43.626  33.960  12.554
22654W        W89195  14.559  35.679   2.561
22655W        W89196  16.812   4.447  10.615
22656W        W89197  32.609  41.879  13.369
22657W        W89198   3.743  40.810  14.180
22658W        W89199  44.535  34.507  13.456
22659W        W89200  39.060  11.065   4.135
22660W        W89201  21.112  28.616   0.040
22661W        W89202  28.252  24.937   0.442
22662W        W89203  28.033  38.525   4.079
22663W        W89204   7.995  17.884   3.723
22664W        W89205   5.784  36.953  12.146
22665W        W89206  26.997  33.299  14.733
22666W        W89207  27.489  26.831   2.369
22667W        W89208   1.479   4.085  12.175
22668W        W89209  17.249  24.269   4.665
22669W        W89210  38.565  39.065   0.833
22670W        W89211  13.831  15.173   3.323
22671W        W89212  41.546  24.477  12.044
22672W        W89213  32.874  38.022   3.686
22673W        W89214   8.645  39.951   1.311
22674W        W89215   4.310  23.451  13.456
22675W        W89216  29.179  42.418  12.483
22676W        W89217  39.232  10.534  13.887
22677W        W89218   3.431  20.489   3.816
22678W        W89219  39.032   0.623   2.289
22679W        W89220  21.746  17.121   0.471
22680W        W89221   1.844  35.628   2.852
22681W        W89222  38.076  10.255  14.609
22682W        W89223  24.855   6.393  11.865
22683W        W89224  24.059   7.526  10.555
22684W        W89225  24.021   8.182  12.942
22685W        W89226  13.286  30.647  14.934
22686W        W89227  17.312   4.911   1.781
22687W        W89228  22.647  36.388   1.242
22688W        W89229  11.228  28.675  12.886
22689W        W89230  12.187  36.202   2.169
22690W        W89231  40.973   1.497  10.770
22691W        W89232  14.667  17.734  10.723
22692W        W89233  26.384  15.695  10.218
22693W        W89234   0.823  16.465   4.131
22694W        W89235  12.063  15.716   3.292
22695W        W89236   4.229  22.116  13.973
22696W        W89237  18.725  34.369   4.007
22697W        W89238   0.973   5.543  12.984
22698W        W89239  31.460  10.097  12.835
22699W        W89240   4.793  19.144  10.984
22700W        W89241  24.315   3.459  13.426
22701W        W89242  42.029  25.893  12.336
22702W        W89243   4.645   4.513   4.909
22703W        W89244  18.218  24.472  14.908
22704W        W89245   3.026  30.885  11.994
22705W        W89246  22.736  29.953   4.564
22706W        W89247   7.290  32.355  11.590
22707W        W89248  26.502  17.360   4.043
22708W        W89249  16.794   9.070  13.424
22709W        W89250   3.417  41.322  14.352
22710W        W89251  27.375  27.290  14.912
22711W        W89252  15.376   2.944  11.304
22712W        W89253  13.078  15.824  11.615
22713W        W89254  35.102   0.353  12.595
22714W        W89255  14.958  32.263  13.186
22715W        W89256  33.325  31.449  12.400
22716W        W89257  40.563  26.708   4.179
22717W        W89258  18.520  29.909  14.866
22718W        W89259  34.822  23.728   3.247
22719W        W89260   3.963  44.281  11.195
22720W        W89261  16.325   9.430  12.999
22721W        W89262  43.841   0.105  12.033
22722W        W89263  20.523  36.104  13.880
22723W        W89264  16.632  36.426   3.766
22724W        W89265  21.791   6.165  13.509
22725W        W89266  12.577  43.546   0.470
22726W        W89267  30.290  14.268   4.983
22727W        W89268  36.577  22.187   1.291
22728W        W89269  43.943   8.065  11.581
22729W        W89270  31.955   1.192   0.784
22730W        W89271  22.049   5.903   2.127
22731W        W89272  17.228  24.905  11.651
22732W        W89273  26.416   0.009  14.774
22733W        W89274  25.976  27.501  11.478
22734W        W89275  18.749  24.020   2.376
22735W        W89276  10.589  12.136   0.730
22736W        W89277  25.929  38.478   3.911
22737W        W89278  43.819  13.221   4.978
22738W        W89279  12.811   3.100  12.969
22739W        W89280  39.295  22.059   4.178
22740W        W89281   8.411   6.969   3.899
22741W        W89282  38.693  39.385  13.746
22742W        W89283  19.785  30.047   3.909
22743W        W89284  38.572  41.993  10.872
22744W        W89285  24.591  35.851   0.874
22745W        W89286   5.523  40.995  13.342
22746W        W89287  21.639  21.647   0.409
22747W        W89288  38.899  26.110  13.927
22748W        W89289  34.682  13.321  12.450
22749W        W89290  25.595  42.815  12.060
22750W        W89291  34.832  19.672   4.637
22751W        W89292  32.927   6.253   4.580
22752W        W89293   4.414  13.898   0.614
22753W        W89294  41.330  30.038   2.697
22754W        W89295  35.325  36.897   2.657
22755W        W89296  35.511  18.387   1.951
22756W        W89297  17.107  15.771  11.187
22757W        W89298  35.505  30.153  14.841
22758W        W89299   3.767  40.864  11.427
22759W        W89300   4.257  27.562  13.050
22760W        W89301  12.591   2.744  14.979
22761W        W89302  25.680  19.564  13.297
22762W        W89303  23.172  33.831  13.812
22763W        W89304  23.538  38.470  14.037
22764W        W89305  25.940  43.364  12.482
22765W        W89306   9.689  17.662   2.715
22766W        W89307  24.734  13.130   0.911
22767W        W89308  12.146   2.931   2.234
22768W        W89309  44.477   8.477   0.314
22769W        W89310   8.885  11.305   0.625
22770W        W89311  34.852  37.472   3.384
22771W        W89312  32.401   2.221  12.608
22772W        W89313   7.068  15.710   1.339
22773W        W89314   3.092  25.465   9.984
22774W        W89315  26.097  26.632  12.861
22775W        W89316  34.117  22.150   3.146
22776W        W89317  15.505  21.283  14.442
22777W        W89318  37.895  25.643   0.409
22778W        W89319  27.370  10.695  14.694
22779W        W89320  32.467   7.273  12.634
22780W        W89321  13.735  18.561   5.330
22781W        W89322  28.095  23.478   0.176
22782W        W89323  41.663  28.341  10.154
22783W        W89324  13.174  26.270  13.288
22784W        W89325  27.576  31.684  14.088
22785W        W89326  27.994  33.513   0.452
22786W        W89327  15.851  26.727  13.802
22787W        W89328  21.638  14.690   4.392
22788W        W89329   5.323   4.684   2.284
22789W        W89330  26.495  31.344  12.318
22790W        W89331  26.957  22.095   4.186
22791W        W89332  20.161   9.124   3.411
22792W        W89333  26.092   9.146  10.609
22793W        W89334  25.580  17.146  10.533
22794W        W89335  39.886  26.265   2.688
22795W        W89336  42.976  34.127  10.655
22796W        W89337  13.789   9.645   0.237
22797W        W89338  29.514  36.604   2.715
22798W        W89339  25.746  15.174  10.674
22799W        W89340  41.040   3.102   3.753
22800W        W89341  19.190   7.869   4.110
22801W        W89342  21.272  20.361  13.013
22802W        W89343  29.912  35.474  11.531
22803W        W89344  15.044  12.175   3.761
22804W        W89345  37.657  30.507   2.815
22805W        W89346  16.664  12.786  13.559
22806W        W89347  33.717  18.875   2.386
22807W        W89348  30.476  20.091   3.849
22808W        W89349  12.999   4.927   1.492
22809W        W89350  21.251  30.074   2.782
22810W        W89351  10.275   7.774   5.156
22811W        W89352  22.310  31.678  10.766
22812W        W89353  27.117   9.484   0.603
22813W        W89354  39.875  12.719  12.899
22814W        W89355  20.265  44.283   0.652
22815W        W89356  15.818  44.769   0.880
22816W        W89357  28.454  25.709  11.968
22817W        W89358  25.401  35.997   2.179
22818W        W89359  17.387   1.655  14.962
22819W        W89360  31.675  26.248   4.294
22820W        W89361   0.394  40.287   2.209
22821W        W89362  20.527  29.891   4.181
22822W        W89363  28.104  37.950   0.472
22823W        W89364  24.651  20.766  12.531
22824W        W89365  15.185   6.717  11.149
22825W        W89366  32.475  13.175   1.328
22826W        W89367   3.709  16.160   4.283
22827W        W89368  21.578  11.380  11.482
22828W        W89369  29.070  37.086   0.322
22829W        W89370  14.292  25.223   2.262
22830W        W89371  31.471   5.297  14.583
22831W        W89372  18.518  29.738   4.124
22832W        W89373  12.416  27.666   0.205
22833W        W89374   3.925   0.545   3.752
22834W        W89375  30.589   4.420  13.364
22835W        W89376   7.475   6.596   3.282
22836W        W89377  20.567  10.729   4.512
22837W        W89378  35.876  21.079  12.581
22838W        W89379   5.842  23.034  14.301
22839W        W89380  34.341  27.044  11.977
22840W        W89381   6.904  32.152  11.246
22841W        W89382  29.413  33.512  10.787
22842W        W89383  23.306  40.834  12.918
22843W        W89384   0.958  30.367   3.087
22844W        W89385  25.705  11.716  11.932
22845W        W89386  13.946  43.915   0.128
22846W        W89387  17.886  18.349   3.743
22847W        W89388  30.598  38.471   3.251
22848W        W89389  36.978  31.023   0.349
22849W        W89390  31.075   0.275   1.595
22850W        W89391  39.039   0.593  10.069
22851W        W89392   3.272   1.427   0.057
22852W        W89393  42.291  42.388  12.384
22853W        W89394  11.951   2.186  13.326
22854W        W89395  27.651   3.197   1.951
22855W        W89396  30.821  42.835   4.138
22856W        W89397  31.161  11.084  10.590
22857W        W89398   4.864   7.053  10.234
22858W        W89399  14.865  13.707  11.817
22859W        W89400   1.815  35.972  11.906
22860W        W89401   4.480  33.303   2.601
22861W        W89402  16.789  44.474  10.553
22862W        W89403  32.027  41.358   1.173
22863W        W89404  41.436  10.399  12.809
22864W        W89405  11.035  12.627   1.413
22865W        W89406  36.992   6.164  12.926
22866W        W89407  30.458  18.537  10.763
22867W        W89408  43.215  13.076  10.751
22868W        W89409  28.274  31.986   3.175
22869W        W89410  16.180   4.244   0.200
22870W        W89411   9.758  32.574  13.453
22871W        W89412  43.596  32.889  11.128
22872W        W89413   5.700   4.468  13.884
22873W        W89414  17.648  32.028   0.431
22874W        W89415  13.720  17.169   3.806
22875W        W89416   2.709  26.920   3.350
22876W        W89417   8.239  23.277  11.490
22877W        W89418  40.197  17.903   9.919
22878W        W89419  10.608  11.766   4.548
22879W        W89420  41.870  22.305  12.993
22880W        W89421  35.402  44.703   3.419
22881W        W89422   2.032  16.045  11.144
22882W        W89423  13.279  29.582  11.890
22883W        W89424   6.288   0.406   3.277
22884W        W89425  39.831   4.858   4.542
22885W        W89426  44.236  35.547   1.733
22886W        W89427  24.686  11.159  11.270
22887W        W89428  20.999   9.649   2.936
22888W        W89429  11.730   5.989  12.118
22889W        W89430  13.305  21.580   0.721
22890W        W89431  36.457  36.823   0.757
22891W        W89432   2.293  28.231  10.804
22892W        W89433  35.513  10.279   1.885
22893W        W89434  41.045  29.677  13.904
22894W        W89435  31.652  12.945   2.375
22895W        W89436  18.268  27.901  11.177
22896W        W89437   0.244   9.154  13.389
22897W        W89438  43.414  13.861   0.271
22898W        W89439   4.762  15.528   4.359
22899W        W89440   3.713  24.569  12.696
22900W        W89441  26.130   8.170   0.402
22901W        W89442  10.332   3.397   4.557
22902W        W89443  25.230   8.191  13.033
22903W        W89444  39.289  18.349  14.887
22904W        W89445  14.176   8.189   1.824
22905W        W89446  22.512  24.914  12.422
22906W        W89447  37.286  33.263   3.708
22907W        W89448  32.155  27.523   0.419
22908W        W89449  38.854  32.685   4.047
22909W        W89450  20.752  18.371  10.884
22910W        W89451  28.913  28.541   0.878
22911W        W89452  37.705  25.659  10.680
22912W        W89453  29.650  41.068   4.551
22913W        W89454  21.563  37.727  10.869
22914W        W89455   6.189  41.018  14.028
22915W        W89456  13.192  16.222  14.458
22916W        W89457   3.480   3.778  14.959
22917W        W89458  39.957  37.665   3.343
22918W        W89459  17.604  20.081   1.013
22919W        W89460  29.613  31.655   3.733
22920W        W89461   7.294   5.591   3.243
22921W        W89462  17.547  34.585   3.673
22922W        W89463   1.514  33.238   5.125
22923W        W89464  27.159  33.792   4.676
22924W        W89465  22.270  16.363   0.527
22925W        W89466   6.056  12.410   2.060
22926W        W89467   6.449  30.555  14.869
22927W        W89468  27.114  30.876   4.175
22928W        W89469  25.915  14.661  10.599
22929W        W89470  28.986  10.618  13.412
22930W        W89471  10.963  38.498   9.720
22931W        W89472  27.467   6.104   2.237
22932W        W89473   1.822  41.537  13.384
22933W        W89474   7.944   0.432   0.165
22934W        W89475  21.301  35.826  11.443
22935W        W89476   9.850  10.129   4.601
22936W        W89477  35.001  29.812  13.241
22937W        W89478  14.274  13.782  13.938
22938W        W89479   6.877  20.246   4.551
22939W        W89480  39.744  39.746  12.655
22940W        W89481  31.508  17.102  13.762
22941W        W89482  16.696   9.066   1.429
22942W        W89483   1.930  33.973   3.111
22943W        W89484   9.084  40.684   1.647
22944W        W89485   6.172   9.171   0.743
22945W        W89486  36.377  39.288  14.797
22946W        W89487   5.469  10.318   2.299
22947W        W89488   4.753  18.316   4.647
22948W        W89489  24.223  42.367   0.256
22949W        W89490  33.635   6.851  12.888
22950W        W89491  32.207  13.331  12.032
22951W        W89492  37.742  38.815   2.279
22952W        W89493  22.114  42.051   0.518
22953W        W89494   3.835   0.496  12.193
22954W        W89495  38.560  32.088   0.316
22955W        W89496  12.717   7.209   2.141
22956W        W89497   6.771  20.158  14.976
22957W        W89498  37.438   6.921  12.607
22958W        W89499  35.142   9.098  11.993
22959W        W89500  41.293  44.465  11.842
22960W        W89501  40.342  36.429  11.725
22961W        W89502   2.732   8.944  11.963
22962W        W89503  26.039  23.706  11.572
22963W        W89504  15.568  11.190   0.393
22964W        W89505   9.964   1.847  14.522
22965W        W89506  28.932  27.634   4.644
22966W        W89507  14.336  38.535   4.921
22967W        W89508  17.500  15.269   3.170
22968W        W89509  15.632  16.661  14.522
22969W        W89510  13.153  22.180   4.783
22970W        W89511  38.387   7.968   3.305
22971W        W89512  32.002  44.220   4.589
22972W        W89513  43.893  44.047   4.434
22973W        W89514  21.750  32.246  10.634
22974W        W89515  12.857   1.501   3.063
22975W        W89516  14.383  31.277   1.238
22976W        W89517  19.768  24.543  14.545
22977W        W89518  42.350  31.626   1.065
22978W        W89519  37.597  26.569   2.921
22979W        W89520  18.265  19.979   2.703
22980W        W89521  13.823  33.634  14.443
22981W        W89522  27.662   2.398  10.613
22982W        W89523  42.403  38.382   0.620
22983W        W89524  35.186  39.071  14.448
22984W        W89525  10.570  39.415   0.722
22985W        W89526  15.812  35.247   4.900
22986W        W89527   2.809  42.512  13.315
22987W        W89528  18.038  31.999   1.822
22988W        W89529  14.376  23.524   1.504
22989W        W89530   2.462  12.135   4.640
22990W        W89531  32.531   5.420   4.281
22991W        W89532   6.278  17.861  13.393
22992W        W89533  32.332  12.865  13.460
22993W        W89534   2.989   7.941  10.691
22994W        W89535  17.673  36.433   3.279
22995W        W89536  28.418  22.174   0.539
22996W        W89537  38.226  15.295   1.312
22997W        W89538  23.177  40.054  11.131
22998W        W89539  14.603  42.289   1.864
22999W        W89540  30.109  30.135  14.890
23000W        W89541  10.980  23.870  12.045
23001W        W89542   0.199  42.536  13.511
23002W        W89543  10.204  40.304  12.130
23003W        W89544   5.079  35.238  11.183
23004W        W89545  38.836  34.307   0.817
23005W        W89546  16.605  27.012   2.643
23006W        W89547   2.420  40.337   3.593
23007W        W89548   2.975  42.886  14.968
23008W        W89549  18.287  29.055   4.826
23009W        W89550   3.900  38.331   0.085
23010W        W89551   2.438  20.420  12.340
23011W        W89552  36.044  37.492  11.234
23012W        W89553  42.056  15.552   0.730
23013W        W89554  20.991  18.088  13.938
23014W        W89555  36.944  44.172  11.556
23015W        W89556  38.818  15.342   3.909
23016W        W89557  11.770  15.108   4.661
23017W        W89558  37.636   0.972   3.684
23018W        W89559   3.696  33.785   2.662
23019W        W89560  33.524   3.733   1.494
23020W        W89561   1.219  30.157   1.452
23021W        W89562   5.239  25.114   0.383
23022W        W89563  21.165  25.130  14.981
23023W        W89564   2.543  34.327   3.766
23024W        W89565  31.111  27.130   4.177
23025W        W89566  19.993  40.693  13.363
23026W        W89567   6.389   4.631   2.680
23027W        W89568  39.519  29.626  13.284
23028W        W89569  34.771  24.346  12.894
23029W        W89570  16.223  27.076  13.818
23030W        W89571  16.804   8.822  10.983
23031W        W89572  25.151   9.905   1.831
23032W        W89573  15.587   0.465   1.284
23033W        W89574   4.739   1.077   2.724
23034W        W89575  23.094  44.326   3.717
23035W        W89576  29.384  35.869   1.375
23036W        W89577  29.331  29.851   0.242
23037W        W89578  40.958  15.993   3.598
23038W        W89579   4.890  23.787   2.170
23039W        W89580  35.641  24.976   1.494
23040W        W89581  10.278  17.281   1.298
23041W        W89582   6.608  28.087  13.897
23042W        W89583   9.795  20.462   2.731
23043W        W89584  30.124  38.211  13.923
23044W        W89585  34.414  29.230   1.240
23045W        W89586   0.248  28.585   1.733
23046W        W89587  38.130  33.577   1.298
23047W        W89588  31.727   9.847  11.496
23048W        W89589  28.433  41.424  12.552
23049W        W89590  10.316  22.955   2.999
23050W        W89591   1.940  27.734   4.236
23051W        W89592  11.385  34.768  12.961
23052W        W89593   4.926  31.959   3.917
23053W        W89594   3.860  24.179   5.409
23054W        W89595  25.137  10.664   0.333
23055W        W89596  38.774  21.598  11.584
23056W        W89597  32.855  41.473  12.484
23057W        W89598  35.367   5.888  11.137
23058W        W89599  41.330  29.000   0.270
23059W        W89600  20.835  22.055  14.924
23060W        W89601  22.495  32.540  11.302
23061W        W89602  36.345   9.407   4.195
23062W        W89603   4.728  34.131   3.093
23063W        W89604  42.726  30.166  11.611
23064W        W89605  22.357  39.211  11.624
23065W        W89606  22.965  31.511  14.370
23066W        W89607  26.919  33.087  13.828
23067W        W89608   1.291  11.632  14.423
23068W        W89609  42.570   5.317  11.087
23069W        W89610  11.480  16.187  12.971
23070W        W89611  39.763  12.367  14.893
23071W        W89612  38.041  10.007   3.320
23072W        W89613   7.802  28.835  11.452
23073W        W89614  36.086   7.685  13.435
23074W        W89615  14.138  18.429   3.995
23075W        W89616  33.029   0.954   2.669
23076W        W89617  26.887  22.749  11.165
23077W        W89618   7.774  14.727   0.414
23078W        W89619  24.670  38.609   3.358
23079W        W89620  38.559  27.556  10.737
23080W        W89621  38.417  38.376  13.505
23081W        W89622  11.623  22.964  12.717
23082W        W89623  30.201   1.263  12.122
23083W        W89624  37.460  16.234  14.011
23084W        W89625  31.220  14.028   2.573
23085W        W89626  14.061  30.096   2.744
23086W        W89627  27.945  23.072   4.664
23087W        W89628  12.114  18.366   1.428
23088W        W89629  31.174   7.181  11.026
23089W        W89630  39.197  21.074  12.209
23090W        W89631  18.859  10.637   0.472
23091W        W89632  36.869  25.170   4.566
23092W        W89633   3.931  42.951  13.906
23093W        W89634  37.655  33.038  13.443
23094W        W89635  12.536  23.131   4.642
23095W        W89636  33.971   1.296  13.487
23096W        W89637  24.637  34.403  14.756
23097W        W89638   5.656  11.896   0.300
23098W        W89639  17.587   8.740  13.827
23099W        W89640  13.180  11.770   3.931
23100W        W89641  35.000  10.288   1.799
23101W        W89642  43.069  36.243   0.532
23102W        W89643  30.986  33.584  14.291
23103W        W89644  43.372   6.284   3.009
23104W        W89645  15.889  21.240  12.040
23105W        W89646  11.736  33.956   3.598
23106W        W89647  40.086   5.434   3.762
23107W        W89648   3.803  13.673   2.365
23108W        W89649   1.752  20.974  11.150
23109W        W89650  28.667  16.878   4.515
23110W        W89651  29.713  32.063   9.939
23111W        W89652  11.865  33.916   2.824
23112W        W89653  33.506  13.662  11.994
23113W        W89654  34.406  43.870   3.835
23114W        W89655   2.273  37.477   3.108
23115W        W89656  35.973  28.868  12.086
23116W        W89657  30.449  37.339   2.655
23117W        W89658  14.347  43.342  12.402
23118W        W89659   8.383  33.961  11.489
23119W        W89660  30.377  43.086   4.194
23120W        W89661  21.558   5.787   3.600
23121W        W89662   3.392  34.397   1.530
23122W        W89663  32.386  26.230   4.881
23123W        W89664   3.202  18.092   4.813
23124W        W89665   6.102  21.451  11.961
23125W        W89666  39.778   5.693  13.986
23126W        W89667  18.674  27.291  13.881
23127W        W89668  25.730  14.207  10.769
23128W        W89669  37.622  34.080  12.808
23129W        W89670  44.115  10.664  13.110
23130W        W89671  35.465   1.386   3.196
23131W        W89672  32.692  40.791  11.502
23132W        W89673  34.922  37.308   4.211
23133W        W89674  14.038  43.202  10.945
23134W        W89675   4.802  19.758   5.059
23135W        W89676  43.819  42.184  14.415
23136W        W89677  34.373  29.013   2.179
23137W        W89678  23.654  31.975   1.060
23138W        W89679  33.545  26.321   1.709
23139W        W89680   9.870   0.968   1.300
23140W        W89681  36.340  41.432  11.994
23141W        W89682  32.393  20.662   3.600
23142W        W89683  31.598  30.445   2.245
23143W        W89684  13.187  27.408   3.131
23144W        W89685   8.114   9.103  12.003
23145W        W89686  17.758   0.698   1.138
23146W        W89687  29.585  44.427  12.047
23147W        W89688  37.429  39.591  12.388
23148W        W89689  41.025  10.267  13.100
23149W        W89690  31.039  14.438  14.268
23150W        W89691  21.667  22.831  12.186
23151W        W89692  37.390  40.290   4.608
23152W        W89693   8.162  33.361   1.852
23153W        W89694  21.064  26.564   9.971
23154W        W89695  40.356  11.677   4.032
23155W        W89696   2.200  15.744  10.714
23156W        W89697   9.756  25.105  12.057
23157W        W89698  35.490  44.986  12.597
23158W        W89699  26.115  10.564  13.411
23159W        W89700  24.086  32.161  14.352
23160W        W89701  29.144  43.990  14.497
23161W        W89702  37.436   5.765   1.784
23162W        W89703   4.492  29.678   2.306
23163W        W89704  12.326  24.210  13.789
23164W        W89705  16.302  20.592  13.973
23165W        W89706  24.659  12.415  11.130
23166W        W89707  11.645   3.746   3.834
23167W        W89708  42.536  41.806   0.389
23168W        W89709  24.671  32.213   3.140
23169W        W89710   5.258  33.006   4.485
23170W        W89711   9.729  39.355   2.799
23171W        W89712   3.725   3.885   3.577
23172W        W89713  33.244   4.310   0.202
23173W        W89714  26.339  22.653   4.390
23174W        W89715  12.623  26.891  13.180
23175W        W89716  40.121  35.194  11.145
23176W        W89717  15.770  10.298   2.666
23177W        W89718  39.189  43.344   3.223
23178W        W89719  10.128  43.560  14.879
23179W        W89720  13.526  16.984  13.133
23180W        W89721   8.692  29.263   1.778
23181W        W89722   6.915  41.629  13.600
23182W        W89723  16.875  19.580  13.409
23183W        W89724  23.033  35.841   0.923
23184W        W89725  31.852  17.132  14.142
23185W        W89726   6.345  41.929  13.520
23186W        W89727  39.373  24.099  10.437
23187W        W89728   6.344  36.463   1.318
23188W        W89729  43.396  37.031   1.549
23189W        W89730  20.657  41.858  13.218
23190W        W89731  39.711  11.058   4.117
23191W        W89732  18.133  11.666  11.124
23192W        W89733  38.563  41.029  12.816
23193W        W89734  22.932  12.472   4.586
23194W        W89735  20.471   7.830   4.882
23195W        W89736  39.943  31.583  11.745
23196W        W89737  15.850  22.671   0.742
23197W        W89738  31.516  41.459   2.012
23198W        W89739   9.876  26.121  13.442
23199W        W89740  24.204  20.758  11.102
23200W        W89741  29.670  24.379  13.390
23201W        W89742  32.418  16.632  10.680
23202W        W89743  13.699  25.029   4.027
23203W        W89744  43.561   1.156  14.971
23204W        W89745   9.396   0.244   4.201
23205W        W89746  41.886   3.884  14.929
23206W        W89747  10.612  22.180   2.246
23207W        W89748   8.236  36.143   4.604
23208W        W89749  22.182  41.202  14.306
23209W        W89750  36.197  35.316   4.011
23210W        W89751  38.493  42.135  13.951
23211W        W89752  26.970   8.212  11.451
23212W        W89753  34.069  42.900  13.116
23213W        W89754  19.516  27.015  11.599
23214W        W89755  24.536  12.603  13.936
23215W        W89756  36.815   6.568  13.220
23216W        W89757   1.506  34.136  12.489
23217W        W89758  12.335   2.084  12.085
23218W        W89759  30.001  28.471   1.337
23219W        W89760  39.616  40.773  11.161
23220W        W89761  39.343  39.692   1.945
23221W        W89762  38.486  16.533  14.749
23222W        W89763  33.687  34.093   3.326
23223W        W89764  31.771  12.319  15.000
23224W        W89765   1.248  39.547  10.634
23225W        W89766   8.874   1.361   0.088
23226W        W89767  42.874  14.539  11.676
23227W        W89768   7.313  31.860   2.737
23228W        W89769  18.631   9.879   0.570
23229W        W89770  16.348  11.249   2.304
23230W        W89771  16.727  14.603   1.312
23231W        W89772   5.930  20.177  13.400
23232W        W89773  34.321  25.881   0.218
23233W        W89774  24.574  26.502  13.930
23234W        W89775  26.665  41.697  13.768
23235W        W89776  11.338  18.272   2.662
23236W        W89777   5.517   2.225  13.950
23237W        W89778  10.361  20.283  11.053
23238W        W89779  41.990  17.712   3.173
23239W        W89780  41.770  35.463  11.512
23240W        W89781  39.095   2.936   1.845
23241W        W89782   4.800   6.913  12.521
23242W        W89783  29.326   1.749  14.786
23243W        W89784   8.276  34.749  12.515
23244W        W89785   4.898  28.937   0.171
23245W        W89786  27.636  24.755  12.400
23246W        W89787  37.378  22.343   4.270
23247W        W89788  13.279   5.195  13.735
23248W        W89789  21.959   8.829   4.008
23249W        W89790   4.995  12.636  12.876
23250W        W89791  15.318  25.553  12.977
23251W        W89792   0.115  13.588  13.346
23252W        W89793  15.739  24.266   5.028
23253W        W89794  39.898   1.879  10.399
23254W        W89795  28.520  21.051   1.404
23255W        W89796  31.464  14.121  11.453
23256W        W89797  33.446  26.559   3.681
23257W        W89798   3.193  38.417   1.467
23258W        W89799  38.291   5.447   0.397
23259W        W89800  13.178  11.904   2.152
23260W        W89801  11.767   5.458  12.081
23261W        W89802  17.754  30.847  10.169
23262W        W89803  21.108  39.230   0.404
23263W        W89804  43.226  43.417  13.399
23264W        W89805   7.802  15.703  14.516
23265W        W89806  41.118   1.335  14.616
23266W        W89807  32.918  17.550  13.521
23267W        W89808  44.219  34.196   0.731
23268W        W89809  39.207  28.614   2.740
23269W        W89810  17.236  12.653  12.457
23270W        W89811  44.020   6.622  11.160
23271W        W89812  20.261  27.330  11.214
23272W        W89813   8.217  44.645  12.514
23273W        W89814  41.355  16.635   3.543
23274W        W89815   8.127   1.374   3.320
23275W        W89816  14.497  25.759   3.157
23276W        W89817   6.477  39.532  14.437
23277W        W89818  27.721  31.840   0.834
23278W        W89819  31.577  15.257   0.657
23279W        W89820  16.134  24.187  14.269
23280W        W89821  31.593  32.134   1.438
23281W        W89822  13.258   4.129   2.716
23282W        W89823  19.226  40.273   3.641
23283W        W89824  29.759  12.048  11.797
23284W        W89825  27.635  15.107   3.927
23285W        W89826  15.290  41.423  13.453
23286W        W89827  25.159  39.099  13.463
23287W        W89828  25.684   8.360  12.806
23288W        W89829  44.843  24.628   1.906
23289W        W89830  35.820  19.552   3.753
23290W        W89831  23.550  35.632   2.976
23291W        W89832  26.195  38.232   2.895
23292W        W89833  14.396  11.155  14.866
23293W        W89834  39.557  15.615  14.545
23294W        W89835  19.807   3.008   0.954
23295W        W89836  19.295  10.203   2.289
23296W        W89837  41.832  16.940   4.183
23297W        W89838  25.672  16.706   2.243
23298W        W89839  41.074  30.535  13.372
23299W        W89840  15.679  33.331   3.757
23300W        W89841  28.745   9.145   0.798
23301W        W89842   4.174  19.178  13.053
23302W        W89843   7.344  26.412   3.314
23303W        W89844   3.144  33.964   4.361
23304W        W89845  21.321  36.957  12.846
23305W        W89846  10.118   2.010  14.002
23306W        W89847  18.985   4.747   3.742
23307W        W89848  30.833  10.068   2.223
23308W        W89849  28.150  37.975  14.510
23309W        W89850  27.080   5.200   3.178
23310W        W89851  23.707  28.489  11.865
23311W        W89852   0.566  38.530  14.053
23312W        W89853  12.314  21.132   0.791
23313W        W89854   5.176  18.993  11.275
23314W        W89855  26.003   3.733  13.855
23315W        W89856  36.896  28.438   2.132
23316W        W89857  38.970  26.412   3.130
23317W        W89858  17.029  27.918  11.861
23318W        W89859  36.310   3.491  14.813
23319W        W89860  19.092  33.550  12.696
23320W        W89861  16.366  18.299   5.052
23321W        W89862   3.556  29.483   0.098
23322W        W89863  42.845  13.375  13.932
23323W        W89864  14.146  24.947   3.275
23324W        W89865  21.025   0.316  14.919
23325W        W89866  35.010   4.827   2.602
23326W        W89867  22.769   5.436   1.784
23327W        W89868  12.274  20.450  14.465
23328W        W89869  13.378  39.404   0.472
23329W        W89870  32.154  36.050  12.039
23330W        W89871   9.695   1.687   0.805
23331W        W89872  24.130  35.123   0.257
23332W        W89873  28.476  34.081  13.961
23333W        W89874  28.017  35.460   0.301
23334W        W89875  42.748  11.765   1.907
23335W        W89876  40.970  21.239   3.755
23336W        W89877  36.762  31.639   2.573
23337W        W89878  28.201  42.954  14.917
23338W        W89879  33.688   8.298   2.705
23339W        W89880  19.122  41.294   0.342
23340W        W89881   2.696  25.775  11.023
23341W        W89882  39.741  36.008  11.423
23342W        W89883  43.829  18.347   0.554
23343W        W89884  30.130  18.163  14.707
23344W        W89885  20.626  21.809  14.495
23345W        W89886  14.995  32.629  10.445
23346W        W89887  17.501   3.208  10.744
23347W        W89888  41.040  30.103  12.473
23348W        W89889  12.844  44.063   2.242
23349W        W89890   4.115   7.016   0.817
23350W        W89891  36.380  17.054   1.685
23351W        W89892  35.079  41.459   5.215
23352W        W89893  43.387  16.141   9.955
23353W        W89894   7.831  19.176   1.321
23354W        W89895   5.946  34.693  11.157
23355W        W89896  32.039  44.908   2.861
23356W        W89897  24.258  18.662   3.436
23357W        W89898  39.816  11.374  10.637
23358W        W89899   6.432   8.698   1.741
23359W        W89900  37.328  10.037  10.767
23360W        W89901  37.551  28.192   4.165
23361W        W89902  23.003  30.586   4.626
23362W        W89903  26.553  11.513   1.046
23363W        W89904  27.959  36.951   2.378
23364W        W89905  20.484  37.670  13.404
23365W        W89906  23.452  16.400   1.908
23366W        W89907  30.184   6.686   4.348
23367W        W89908  41.442  39.541  12.934
23368W        W89909  34.902   1.191   0.640
23369W        W89910   6.287  31.454   3.826
23370W        W89911  10.785  28.098   1.115
23371W        W89912  29.962  12.347   3.628
23372W        W89913  37.479   9.262   1.226
23373W        W89914  44.803   6.753  13.827
23374W        W89915  13.155  11.381  14.545
23375W        W89916  36.018   5.239  10.402
23376W        W89917  37.276  28.338   1.698
23377W        W89918  29.802  28.075   1.897
23378W        W89919   7.454  41.365  10.570
23379W        W89920  25.514   5.727   4.548
23380W        W89921  16.824  31.692  12.065
23381W        W89922  13.330  17.979   0.786
23382W        W89923   2.649   4.211  14.859
23383W        W89924  10.303  38.002  12.934
23384W        W89925  17.993  13.098   0.268
23385W        W89926  19.633  22.305  10.669
23386W        W89927   6.424  26.668  13.070
23387W        W89928  43.907   4.388   0.471
23388W        W89929  21.662   3.518   3.233
23389W        W89930  41.923   6.188   3.486
23390W        W89931  33.768  26.011  12.554
23391W        W89932  37.949  26.111  10.584
23392W        W89933   6.460   9.068  12.481
23393W        W89934  26.450   1.095  10.627
23394W        W89935  34.605  31.673   0.916
23395W        W89936  29.128  17.055  10.973
23396W        W89937  19.846  36.187   5.062
23397W        W89938  15.628  16.936   4.069
23398W        W89939   1.755  37.510  11.722
23399W        W89940  21.266  29.341  11.876
23400W        W89941  13.247   2.179   1.814
23401W        W89942   9.237  37.031   3.095
23402W        W89943  11.194  36.843   1.559
23403W        W89944  25.675  19.685  13.834
23404W        W89945  41.487  20.534   3.146
23405W        W89946   9.441  32.470  11.179
23406W        W89947  35.025  22.480  13.601
23407W        W89948  39.801  44.679  12.280
23408W        W89949  15.769  13.919   2.705
23409W        W89950  19.178   3.868  10.857
23410W        W89951   4.975  16.234   2.710
23411W        W89952   3.657  17.786   1.887
23412W        W89953  10.604  20.774   4.832
23413W        W89954  23.176  34.488   2.175
23414W        W89955  32.796  31.293   4.202
23415W        W89956  22.138  27.372  11.138
23416W        W89957  28.561  38.331   0.794
23417W        W89958   6.502  27.610   3.407
23418W        W89959   2.652  37.186   1.399
23419W        W89960   6.097  19.612   4.619
23420W        W89961   4.455  34.156  12.626
23421W        W89962   9.115  14.105  13.531
23422W        W89963  34.663  15.251  14.118
23423W        W89964  29.940   1.182  13.428
23424W        W89965   5.941   7.943  12.904
23425W        W89966  23.586  32.639   0.882
23426W        W89967  15.864   2.837  11.391
23427W        W89968  14.618  35.087   0.643
23428W        W89969  10.227   2.830   4.466
23429W        W89970  30.949   7.372   4.303
23430W        W89971   8.032  19.777  10.672
23431W        W89972  22.608  36.141   4.581
23432W        W89973  28.007  27.958  14.578
23433W        W89974   1.795  13.617  13.956
23434W        W89975  33.059   6.020   4.107
23435W        W89976  13.527  28.418   3.220
23436W        W89977  10.813  19.950  12.929
23437W        W89978   5.898   5.191   9.845
23438W        W89979  23.426   2.351   2.731
23439W        W89980   3.126  37.098   1.234
23440W        W89981  42.760  19.699   0.734
23441W        W89982  17.060  18.547   2.766
23442W        W89983  37.671  41.492  10.201
23443W        W89984  28.290  29.076  12.990
23444W        W89985  40.953  43.518  14.177
23445W        W89986  12.625  12.618   3.264
23446W        W89987   4.823  37.105  10.529
23447W        W89988  13.578  18.134   2.192
23448W        W89989  19.186  13.378   9.823
23449W        W89990  31.729   6.720  10.487
23450W        W89991  42.044  44.740   4.277
23451W        W89992  13.107  33.446  14.319
23452W        W89993  15.602  23.026  13.903
23453W        W89994  35.891   5.448  13.830
23454W        W89995   8.038   6.116  14.225
23455W        W89996  42.080  43.367   0.282
23456W        W89997  28.780   2.410  12.285
23457W        W89998   9.209  41.830  13.034
23458W        W89999  15.594  22.795  12.997
23459W        W90000   3.273   7.488  12.816
23460W        W90001  32.039  37.351   2.260
23461W        W90002  31.140  32.310  11.565
23462W        W90003  34.044  35.072   0.591
23463W        W90004  26.922  28.161  11.060
23464W        W90005  21.531  33.844  12.496
23465W        W90006   2.739   0.043   0.862
23466W        W90007  44.854  26.737  13.578
23467W        W90008  25.603   7.831   2.906
23468W        W90009  39.754  35.552  11.195
23469W        W90010  43.387  15.251   1.861
23470W        W90011  15.645  27.575   2.393
23471W        W90012  12.043   9.265  10.735
23472W        W90013   6.329  22.932  11.153
23473W        W90014  13.142  43.579   4.222
23474W        W90015  14.992  18.777  11.520
23475W        W90016  34.776  23.647   4.563
23476W        W90017  14.906  34.530   2.558
23477W        W90018  21.505  35.609   3.143
23478W        W90019  20.065  37.971  13.464
23479W        W90020   2.875  36.641   2.861
23480W        W90021  11.577  30.077  12.227
23481W        W90022  18.747   9.617   4.528
23482W        W90023  26.595  17.364   2.341
23483W        W90024  37.042  39.580   1.042
23484W        W90025  25.001  29.955   4.563
23485W        W90026   3.403  31.138   2.935
23486W        W90027   4.857   7.478   2.376
23487W        W90028  42.995  26.585  14.829
23488W        W90029  16.728  21.987  12.042
23489W        W90030  29.785  14.808  10.699
23490W        W90031   3.516  30.590   1.336
23491W        W90032   1.403   8.764   0.518
23492W        W90033   2.204  42.429   4.077
23493W        W90034  14.595  41.053  10.570
23494W        W90035  12.306  32.725   9.704
23495W        W90036  17.659   3.219   2.701
23496W        W90037  13.772  30.390   2.325
23497W        W90038  29.996  28.207  11.921
23498W        W90039   2.722   2.812  14.349
23499W        W90040  35.401  13.787   2.050
23500W        W90041  27.606   6.201  11.799
23501W        W90042  39.574  42.870  12.142
23502W        W90043  32.134  33.940   1.849
23503W        W90044  25.111  34.475  14.392
23504W        W90045   0.023   0.296  12.137
23505W        W90046  14.785  13.743   4.676
23506W        W90047  25.088  31.272   2.914
23507W        W90048  35.827  13.047  14.858
23508W        W90049   3.585   4.928  10.565
23509W        W90050  26.187  36.037  12.631
23510W        W90051  30.521   7.248  13.236
23511W        W90052   3.649  23.530  12.947
23512W        W90053   2.995  11.804  12.129
23513W        W90054  14.990  33.119   3.646
23514W        W90055  32.296   3.882   3.686
23515W        W90056   2.551  26.116  14.269
23516W        W90057  34.451  32.231  14.530
23517W        W90058  31.792   2.765   5.082
23518W        W90059   9.685  32.914  11.119
23519W        W90060   2.192  39.442   3.172
23520W        W90061  37.631  33.627  12.082
23521W        W90062  26.465  13.142   2.885
23522W        W90063   4.493   7.841   3.223
23523W        W90064  25.619  27.995   2.797
23524W        W90065   8.740  43.179  11.955
23525W        W90066  37.498  36.482   3.894
23526W        W90067  41.586   2.818   3.055
23527W        W90068  25.015  34.852  13.543
23528W        W90069  36.352  29.309   3.181
23529W        W90070   8.699   2.722  11.874
23530W        W90071  20.511   7.172   1.401
23531W        W90072  12.294   7.793   3.545
23532W        W90073  34.437   0.549  11.405
23533W        W90074  13.805  40.745  13.124
23534W        W90075   0.637  29.662  12.917
23535W        W90076  38.245  35.042   4.104
23536W        W90077  30.654   4.857  11.094
23537W        W90078  23.734  22.505  12.469
23538W        W90079  21.314  28.129   0.018
23539W        W90080  23.729   2.901  14.370
23540W        W90081  20.158  27.773  14.362
23541W        W90082   8.640   9.711   4.803
23542W        W90083  28.951  35.997   2.617
23543W        W90084  37.374  36.348  13.461
23544W        W90085  37.628   8.072   1.213
23545W        W90086  24.179  16.844   0.519
23546W        W90087  39.791   2.732  11.456
23547W        W90088  38.042  23.553  10.283
23548W        W90089   3.962  16.120   1.745
23549W        W90090   3.705   1.811  13.075
23550W        W90091  11.239  16.824   2.190
23551W        W90092  26.266  38.051  12.462
23552W        W90093  31.611   5.689   0.315
23553W        W90094   9.545  27.378   3.595
23554W        W90095  33.640  32.412  13.060
23555W        W90096  31.433  37.044  12.613
23556W        W90097  18.763  32.511   3.829
23557W        W90098  22.684  19.036   0.391
23558W        W90099  29.861  22.129  14.498
23559W        W90100  30.054  27.105   0.108
23560W        W90101  17.390  41.048  13.912
23561W        W90102  24.192  11.020  11.130
23562W        W90103   4.789  43.525   1.791
23563W        W90104  20.746  14.064   1.378
23564W        W90105  33.414  14.650   2.627
23565W        W90106  20.754  22.790  14.817
23566W        W90107   0.376  42.255  14.381
23567W        W90108  17.943  35.451  13.619
23568W        W90109  26.046  18.131   1.315
23569W        W90110  40.834  20.154  11.143
23570W        W90111  31.716  28.638   2.450
23571W        W90112  18.507   8.219  14.471
23572W        W90113  42.537  29.117   3.130
23573W        W90114   7.608  25.438  13.412
23574W        W90115  23.076  44.916   0.917
23575W        W90116  15.044  21.641   0.605
23576W        W90117   3.842  30.563  11.967
23577W        W90118  24.163  20.115   3.674
23578W        W90119   3.238  40.864  11.606
23579W        W90120   8.319  44.132   3.484
23580W        W90121  33.109  31.164   3.814
23581W        W90122  40.469  30.250  14.134
23582W        W90123  16.151  44.914   3.745
23583W        W90124   7.291  36.983   1.483
23584W        W90125  26.560  11.377  12.575
23585W        W90126  14.293  21.459  11.196
23586W        W90127  25.748   8.637  10.679
23587W        W90128  16.349  13.460   1.895
23588W        W90129  18.327  37.010  12.095
23589W        W90130  13.953  43.908  11.194
23590W        W90131   4.190  37.163   0.871
23591W        W90132  26.860  30.132  13.493
23592W        W90133   1.229  14.907  10.747
23593W        W90134  24.295  34.098  12.975
23594W        W90135  32.633  11.690  10.246
23595W        W90136  41.427  37.599   4.621
23596W        W90137  28.480  17.259   2.128
23597W        W90138  32.569  13.285   0.448
23598W        W90139  32.443  29.696   1.387
23599W        W90140  30.364  26.080   1.945
23600W        W90141  27.242  44.461  13.918
23601W        W90142  24.952   1.235   1.920
23602W        W90143   9.196  18.240  12.901
23603W        W90144  13.133   9.765  11.945
23604W        W90145  18.609  41.876   0.992
23605W        W90146  38.365  44.533  11.132
23606W        W90147  35.820  32.918  14.562
23607W        W90148  41.396   9.275   2.232
23608W        W90149  34.142  34.112   0.443
23609W        W90150  27.060   6.217   4.480
23610W        W90151   2.278  23.476   0.377
23611W        W90152  21.621  31.035   4.813
23612W        W90153  19.442  16.485   1.363
23613W        W90154  23.982  40.286   0.791
23614W        W90155  11.186   8.602   2.111
23615W        W90156   0.749  18.649  11.887
23616W        W90157   3.203  21.493   3.802
23617W        W90158  14.225  31.960  13.990
23618W        W90159  32.137   3.004   2.265
23619W        W90160  26.431  29.479   3.026
23620W        W90161  14.626  26.597   1.797
23621W        W90162   0.546  21.594  10.631
23622W        W90163  22.280  34.352  13.414
23623W        W90164   2.869  34.822  13.285
23624W        W90165  32.665  23.609  12.353
23625W        W90166   6.397  32.196  13.661
23626W        W90167  14.037   1.752   2.359
23627W        W90168  31.971  42.465   3.367
23628W        W90169  17.397  38.393   2.348
23629W        W90170  12.755   2.918   0.459
23630W        W90171  28.913  43.915   0.987
23631W        W90172   3.772  34.663  11.498
23632W        W90173  33.052   5.851   3.606
23633W        W90174  37.133   9.245  11.228
23634W        W90175  17.139  10.349  14.459
23635W        W90176  31.567  10.210   3.369
23636W        W90177  38.181  27.191   1.352
23637W        W90178   1.720  21.052  14.872
23638W        W90179  35.577   5.312   3.157
23639W        W90180  30.024   2.498  14.819
23640W        W90181   4.167  36.555   2.449
23641W        W90182  24.467  40.105  14.868
23642W        W90183  34.600  20.775  14.057
23643W        W90184  41.527  24.693  13.443
23644W        W90185  18.755  34.087  14.410
23645W        W90186  30.925   1.786  12.690
23646W        W90187  12.743  28.081   0.279
23647W        W90188  25.631  31.377  13.280
23648W        W90189  13.196  14.963  12.092
23649W        W90190  44.528  16.762  12.049
23650W        W90191  10.906  34.769  11.622
23651W        W90192  41.876  28.613  10.962
23652W        W90193   4.104  40.742   3.555
23653W        W90194   8.888  32.024  13.363
23654W        W90195  27.978  23.508  14.655
23655W        W90196  15.131   9.228  10.685
23656W        W90197  10.821  25.227  11.679
23657W        W90198  41.637   9.747   0.388
23658W        W90199  14.275  29.153  10.721
23659W        W90200  36.233  21.297  11.642
23660W        W90201  11.679  43.015  12.024
23661W        W90202  13.252  29.283  11.466
23662W        W90203  20.503  10.378  11.419
23663W        W90204  37.628   7.390  14.279
23664W        W90205  24.046  44.104  10.309
23665W        W90206   7.348  38.940  11.642
23666W        W90207  42.208   7.615  11.658
23667W        W90208  38.698  24.063   3.811
23668W        W90209  27.469  41.097   2.926
23669W        W90210   7.381  23.705  10.192
23670W        W90211   2.901  43.576   1.708
23671W        W90212  19.911  39.797   2.445
23672W        W90213   8.636  43.242   1.255
23673W        W90214   2.321   5.195  13.966
23674W        W90215  14.846  27.187   0.221
23675W        W90216  21.891  21.173   0.189
23676W        W90217  31.933  29.512   0.231
23677W        W90218  36.301  34.070  14.810
23678W        W90219  41.298   8.320  11.230
23679W        W90220  19.460  16.832   2.520
23680W        W90221  41.508  34.322  11.244
23681W        W90222  21.748  37.517   1.395
23682W        W90223  35.033  22.268   1.378
23683W        W90224   8.416   2.005   4.118
23684W        W90225   0.022  20.628   1.940
23685W        W90226  30.650  22.447  13.965
23686W        W90227  39.492  27.837  13.343
23687W        W90228   3.813   2.929   2.421
23688W        W90229   4.336  29.484  12.450
23689W        W90230  40.662  42.536   0.258
23690W        W90231  44.776  25.260   0.126
23691W        W90232   9.294  14.329  13.067
23692W        W90233  44.011  35.319   3.613
23693W        W90234  35.719   5.858   2.420
23694W        W90235  24.704  37.269   2.976
23695W        W90236  11.279  29.075  10.681
23696W        W90237  26.682  40.585   4.480
23697W        W90238   6.865   1.024   2.955
23698W        W90239  42.775  11.838  12.424
23699W        W90240  10.207  39.011  14.816
23700W        W90241  33.685  24.562   1.769
23701W        W90242   3.893   2.589   3.502
23702W        W90243   2.944  27.501   1.786
23703W        W90244  15.081   9.247   4.039
23704W        W90245   3.679  36.824  12.481
23705W        W90246   4.345  38.087  12.102
23706W        W90247  32.222   9.143  12.397
23707W        W90248   5.879   9.743   0.064
23708W        W90249   9.068  15.037   2.211
23709W        W90250   5.933   8.779  13.206
23710W        W90251  36.342  30.112   3.976
23711W        W90252  11.242  44.895   3.098
23712W        W90253  15.141  30.572  14.550
23713W        W90254  28.523   2.406   2.347
23714W        W90255   4.982   8.806  11.664
23715W        W90256  33.668  17.676  10.778
23716W        W90257  35.061   6.560   2.437
23717W        W90258  38.345  22.628  12.470
23718W        W90259  43.719   6.689  11.573
23719W        W90260  20.837  30.367  14.003
23720W        W90261  14.933  21.167  11.243
23721W        W90262  14.846   8.434  12.101
23722W        W90263  43.397   1.890   3.588
23723W        W90264  22.623  22.344  11.068
23724W        W90265  43.270   2.000   2.259
23725W        W90266  15.718  33.231   1.744
23726W        W90267   5.963  14.687   3.989
23727W        W90268  20.802  13.522   4.936
23728W        W90269  29.608  30.715   2.171
23729W        W90270  40.907   6.175   0.257
23730W        W90271  38.393  35.303  10.707
23731W        W90272  17.149  14.144   0.006
23732W        W90273   9.900  12.379   0.375
23733W        W90274  43.603   8.664  13.316
23734W        W90275  15.693   7.181  14.748
23735W        W90276  34.620  27.036   4.151
23736W        W90277  27.937  41.384  13.901
23737W        W90278  10.090  16.076   2.541
23738W        W90279   0.388  11.274  13.054
23739W        W90280  31.990  28.519  11.239
23740W        W90281  15.080  29.661   0.345
23741W        W90282  37.609   4.963  11.499
23742W        W90283  11.301  41.339   0.792
23743W        W90284  39.402  21.615  10.613
23744W        W90285  42.914  17.519  13.257
23745W        W90286   1.329   4.351   4.280
23746W        W90287  18.149  12.278   1.808
23747W        W90288   6.680  22.364   3.854
23748W        W90289   9.801   2.273  11.404
23749W        W90290  11.879  39.750   1.820
23750W        W90291  31.448  25.492   1.378
23751W        W90292  30.527  14.292  13.770
23752W        W90293  39.242  21.598  11.151
23753W        W90294  14.209   8.306   2.832
23754W        W90295  41.549  40.557   2.868
23755W        W90296  35.530  36.813   0.862
23756W        W90297   6.677   0.031   3.261
23757W        W90298   4.214  28.038  12.819
23758W        W90299  15.621  30.091   4.835
23759W        W90300  16.140  23.520  13.476
23760W        W90301  42.236  22.803  11.661
23761W        W90302  22.519  40.929   5.091
23762W        W90303   3.778  15.459  11.215
23763W        W90304  31.935  31.384  11.073
23764W        W90305  28.436   4.932  12.134
23765W        W90306  38.444  12.252   3.124
23766W        W90307   5.851  10.763   3.670
23767W        W90308  16.210  19.747  11.984
23768W        W90309   4.365   3.195  11.576
23769W        W90310   9.944   1.483   0.410
23770W        W90311  22.310  11.301  13.452
23771W        W90312  28.870  44.483  11.993
23772W        W90313  35.945  18.734   1.294
23773W        W90314  13.678   2.933  13.766
23774W        W90315  13.470  19.298   3.964
23775W        W90316   0.495  23.036  11.114
23776W        W90317  19.681   9.044   0.042
23777W        W90318  25.117  37.992  10.653
23778W        W90319  33.939  36.906   1.206
23779W        W90320  18.728  13.123  10.645
23780W        W90321   3.441  20.732   3.363
23781W        W90322  23.653  21.124  12.153
23782W        W90323   8.271  37.083  14.866
23783W        W90324  13.084  16.255   3.744
23784W        W90325  15.592  37.697  11.935
23785W        W90326  18.503  19.516   0.894
23786W        W90327  39.793   9.469  13.028
23787W        W90328   6.219  23.586   4.818
23788W        W90329  26.518  31.309  13.276
23789W        W90330  17.291  19.486  14.070
23790W        W90331  41.483   2.782   3.545
23791W        W90332  11.151  11.719  14.546
23792W        W90333  29.472  13.561   2.525
23793W        W90334   2.415  41.662   3.732
23794W        W90335  34.878  15.070   2.710
23795W        W90336  28.486  28.478  12.127
23796W        W90337  44.423  31.432   3.255
23797W        W90338   8.326  14.287  14.878
23798W        W90339  20.505  10.352   3.469
23799W        W90340  28.924  22.675   0.760
23800W        W90341   7.675  13.709   4.924
23801W        W90342  27.356  23.541   2.370
23802W        W90343  39.381  23.488   0.446
23803W        W90344  32.019  40.588  12.961
23804W        W90345  24.221  21.761   3.429
23805W        W90346   0.481  42.719   3.160
23806W        W90347  34.826   1.217  10.710
23807W        W90348  18.286   8.651   5.044
23808W        W90349  18.616  23.346  13.921
23809W        W90350  40.062  28.199  12.005
23810W        W90351  42.823  14.751  10.734
23811W        W90352  39.871   3.204  14.685
23812W        W90353   9.907  19.210   0.447
23813W        W90354   6.356  38.839  13.073
23814W        W90355  30.155  11.153   3.133
23815W        W90356  34.886  14.678  10.714
23816W        W90357   3.441  14.671   1.389
23817W        W90358  35.441  32.524  13.395
23818W        W90359   5.857  30.515  13.563
23819W        W90360  37.392  32.086  11.646
23820W        W90361  44.479   6.673   4.556
23821W        W90362   3.205  37.521  14.368
23822W        W90363   8.844  25.280  11.909
23823W        W90364  44.293  24.722  12.523
23824W        W90365  21.203  12.330   1.795
23825W        W90366   2.537  38.415  12.037
23826W        W90367  37.268  39.841  14.832
23827W        W90368   2.048  10.211   1.152
23828W        W90369  43.000   8.751   2.307
23829W        W90370  21.055  30.084   2.154
23830W        W90371  24.104  42.456  12.690
23831W        W90372  21.913  28.795   3.871
23832W        W90373  18.144  36.252   2.747
23833W        W90374  27.504   7.352   1.836
23834W        W90375  25.492  24.679  12.940
23835W        W90376  14.214   6.134   0.215
23836W        W90377   3.290   0.338  12.972
23837W        W90378  31.918   0.976   0.183
23838W        W90379  43.099  30.541  13.387
23839W        W90380  28.505  21.925  12.425
23840W        W90381  31.574  26.975   3.368
23841W        W90382  22.150   4.007  11.533
23842W        W90383  44.755  16.808  12.544
23843W        W90384   7.835  22.036   4.534
23844W        W90385   2.951  17.831  14.252
23845W        W90386  19.869  33.020  11.288
23846W        W90387  20.593  23.457   2.446
23847W        W90388  21.934   9.273   0.725
23848W        W90389  16.302  34.871  13.076
23849W        W90390  32.027  39.408   3.361
23850W        W90391   5.734  10.386   2.740
23851W        W90392  22.082  40.091  12.704
23852W        W90393  28.564  37.027   0.405
23853W        W90394  29.638  29.815   3.261
23854W        W90395  37.418  10.298   0.298
23855W        W90396  26.617   3.455   0.919
23856W        W90397  10.715  10.514  10.829
23857W        W90398   2.262  27.676  10.790
23858W        W90399  24.150   3.743  11.586
23859W        W90400  27.022  25.031  14.106
23860W        W90401  22.157  27.178   2.936
23861W        W90402  12.857  30.137   5.126
23862W        W90403  34.737  31.967  13.414
23863W        W90404  10.042  40.755   0.976
23864W        W90405  40.640   2.688  14.853
23865W        W90406  29.420   8.148  13.663
23866W        W90407  44.615  18.652   4.450
23867W        W90408  28.012  34.879   2.442
23868W        W90409  42.367  23.568  11.111
23869W        W90410  15.788  27.711   0.828
23870W        W90411  33.291  35.633   0.339
23871W        W90412  23.472  40.616   1.659
23872W        W90413   4.644  43.497   2.686
23873W        W90414  40.132  18.636   1.284
23874W        W90415  13.068  18.240   0.412
23875W        W90416  32.219  40.614  14.378
23876W        W90417  40.410  41.055  13.743
23877W        W90418   0.293  29.387  13.629
23878W        W90419  36.610  12.219   0.730
23879W        W90420  19.275  23.325   3.688
23880W        W90421  31.114   0.797  12.499
23881W        W90422  10.490   3.312   1.715
23882W        W90423  12.144  42.142   3.352
23883W        W90424   3.424  14.812  13.080
23884W        W90425   5.323   1.854   3.598
23885W        W90426   1.465   0.425   4.087
23886W        W90427  42.064  30.428   0.962
23887W        W90428  30.092  40.825  12.888
23888W        W90429  19.663  16.698   5.024
23889W        W90430   5.102  19.011  12.051
23890W        W90431  12.738   3.934   2.708
23891W        W90432  23.546  22.060  14.441
23892W        W90433  23.733  24.991  13.146
23893W        W90434  42.343  40.276   3.227
23894W        W90435  24.020   8.676   0.350
23895W        W90436  12.054  25.593   1.587
23896W        W90437  35.310   6.753  14.827
23897W        W90438  42.577  32.802  12.917
23898W        W90439  31.189   6.764  13.505
23899W        W90440  16.361  26.942   4.149
23900W        W90441   9.390  31.921  13.363
23901W        W90442  41.737  16.547  11.185
23902W        W90443  26.391  16.202  14.049
23903W        W90444   1.254  17.281   4.175
23904W        W90445  37.945  39.815  10.708
23905W        W90446  13.135  37.037  14.338
23906W        W90447  39.100  27.838  14.978
23907W        W90448  13.151   5.461   3.170
23908W        W90449  31.708  16.707   0.691
23909W        W90450  42.795  30.039  14.091
23910W        W90451  11.158   5.265  14.952
23911W        W90452  35.847  43.187  12.317
23912W        W90453  42.584  30.164   4.466
23913W        W90454  26.227   9.335   4.274
23914W        W90455   1.347  27.065   3.044
23915W        W90456  26.111  31.367  14.530
23916W        W90457  42.351  26.747   0.828
23917W        W90458  38.809  44.015   2.697
23918W        W90459  22.570  27.413   4.453
23919W        W90460  35.886  21.421   1.426
23920W        W90461   1.463  25.675  13.064
23921W        W90462  26.173  33.350   0.680
23922W        W90463  10.144   5.129  10.752
23923W        W90464  11.260  36.053   4.232
23924W        W90465  35.830  27.993  14.802
23925W        W90466  26.436  24.471  10.685
23926W        W90467  32.146  29.143   4.149
23927W        W90468  34.090  14.225  10.563
23928W        W90469   9.198  14.782   3.337
23929W        W90470  35.652  21.785   1.750
23930W        W90471   4.259  44.293   3.469
23931W        W90472  14.322  15.333   3.220
23932W        W90473  31.886  33.044  12.968
23933W        W90474   6.617  10.385  14.374
23934W        W90475  41.964  34.570   3.245
23935W        W90476   8.580  17.252   4.683
23936W        W90477  18.566  18.739  13.821
23937W        W90478  43.575  21.649  13.467
23938W        W90479   0.338  41.810   0.841
23939W        W90480  41.364  44.278   4.590
23940W        W90481   4.811   0.492  12.993
23941W        W90482   6.471   6.185  14.653
23942W        W90483  12.328  14.396  12.021
23943W        W90484  27.148  32.101   4.082
23944W        W90485  12.539  14.794  12.260
23945W        W90486  32.662  28.308  10.710
23946W        W90487  28.933  42.927   1.510
23947W        W90488  40.970  38.857  13.894
23948W        W90489  16.849   1.349  10.643
23949W        W90490  42.348  27.248  12.722
23950W        W90491  39.825  35.619   2.940
23951W        W90492   9.120  41.770   5.576
23952W        W90493  15.736  30.638   1.776
23953W        W90494   6.218  23.760   0.867
23954W        W90495   9.847  17.503  13.040
23955W        W90496  18.628  37.855  11.109
23956W        W90497  19.374   5.947  14.441
23957W        W90498  40.341  43.298   0.869
23958W        W90499   3.828  29.671   4.158
23959W        W90500  25.599  34.015  11.176
23960W        W90501  38.030  11.366   3.159
23961W        W90502  38.646   8.394  12.471
23962W        W90503  30.367   4.797   0.423
23963W        W90504  43.706  17.313  12.218
23964W        W90505   6.810  40.781  12.064
23965W        W90506  36.339  25.469  10.615
23966W        W90507   6.498   2.515  13.777
23967W        W90508  33.702  36.154   3.241
23968W        W90509  26.640  32.068   0.026
23969W        W90510  13.278  40.318   3.616
23970W        W90511   4.452   7.241  10.568
23971W        W90512  27.466  11.104  12.137
23972W        W90513  14.791  36.042   0.543
23973W        W90514   8.103  28.161   1.344
23974W        W90515   9.198  36.325   0.350
23975W        W90516   7.773  35.782   1.247
23976W        W90517   2.486  19.990   2.487
23977W        W90518  26.556  28.601   1.165
23978W        W90519  43.466  39.952  11.436
23979W        W90520  44.150  39.690  14.477
23980W        W90521   4.722  37.097  13.818
23981W        W90522   2.352  10.925   0.887
23982W        W90523  32.430  11.884   2.348
23983W        W90524  15.108  27.740  11.505
23984W        W90525   0.022  32.596  13.412
23985W        W90526  15.272  33.941  10.307
23986W        W90527  32.514  26.196   1.729
23987W        W90528   6.735  17.152   2.191
23988W        W90529  42.595  26.980   3.191
23989W        W90530   3.406  25.712   3.647
23990W        W90531  16.768  32.775   4.759
23991W        W90532   9.865  19.097   2.236
23992W        W90533  21.960  20.268  14.406
23993W        W90534  39.520  18.757   4.850
23994W        W90535  36.430   5.752  12.266
23995W        W90536  13.283  11.241  13.521
23996W        W90537  22.905   7.680  14.343
23997W        W90538   1.676  14.667   2.848
23998W        W90539  18.487  27.259   0.493
23999W        W90540  12.550  19.510   3.179
24000W        W90541  37.806  20.631  13.880
24001W        W90542  26.667  25.461  11.591
24002W        W90543  37.900  21.501  13.960
24003W        W90544  31.565   7.225  12.725
24004W        W90545  17.776  10.906  10.614
24005W        W90546   6.499   1.050   2.191
24006W        W90547  27.512  38.328  13.444
24007W        W90548  27.695  11.387  12.525
24008W        W90549  17.408   1.594   4.502
24009W        W90550  27.484  27.761  12.466
24010W        W90551  13.286   5.328   2.288
24011W        W90552  12.917   4.526   1.863
24012W        W90553   5.253  19.306   4.086
24013W        W90554  35.543   9.844  13.389
24014W        W90555  24.892  41.940   4.174
24015W        W90556   3.119  25.570   1.907
24016W        W90557  37.482  15.716   2.265
24017W        W90558  17.248  42.634  14.045
24018W        W90559  22.704   0.502  13.048
24019W        W90560  28.996   6.432  12.961
24020W        W90561  40.493   0.165  14.463
24021W        W90562  44.973  12.767  13.804
24022W        W90563  35.397  43.450   2.160
24023W        W90564  38.854  19.776   0.695
24024W        W90565  15.437   2.217   1.591
24025W        W90566  36.963  37.255   2.919
24026W        W90567  43.823  28.818  13.679
24027W        W90568   6.429  38.988  14.845
24028W        W90569  26.925   5.412   1.233
24029W        W90570  27.014  16.809  12.937
24030W        W90571  11.722  19.298  13.995
24031W        W90572  35.660  39.011  13.521
24032W        W90573  43.954  37.148  14.001
24033W        W90574   5.068  44.003  12.638
24034W        W90575  28.104  19.550  12.810
24035W        W90576   0.655   9.575   2.131
24036W        W90577   7.887  35.307  14.868
24037W        W90578  15.067  30.713  13.642
24038W        W90579  16.179   1.053  14.014
24039W        W90580  36.447  19.591  11.528
24040W        W90581  30.236  14.267   2.482
24041W        W90582  27.630  39.131   2.269
24042W        W90583  27.414  27.824  14.901
24043W        W90584   6.774  27.801  10.422
24044W        W90585  29.383  14.590  12.890
24045W        W90586  10.291  20.863   0.411
24046W        W90587   2.643  27.493   0.673
24047W        W90588  19.128  41.247  11.173
24048W        W90589   4.679  37.368  14.252
24049W        W90590  14.148   9.221   3.661
24050W        W90591  14.773  14.505   0.385
24051W        W90592  21.014  32.700  12.183
24052W        W90593  35.120  44.252  12.649
24053W        W90594  29.246   3.356  10.747
24054W        W90595  26.086  12.572  14.785
24055W        W90596  32.388  13.353  11.548
24056W        W90597  23.374   3.869   0.274
24057W        W90598   8.479  26.609  12.466
24058W        W90599   2.333  14.652   1.034
24059W        W90600  39.929  28.990  14.431
24060W        W90601  44.475  35.517   4.551
24061W        W90602  34.911  29.456  14.867
24062W        W90603  28.489  38.378   4.770
24063W        W90604   5.846  41.813  11.045
24064W        W90605  32.610  43.311   0.528
24065W        W90606  31.620  38.411   2.164
24066W        W90607  39.265  39.891  10.760
24067W        W90608   3.480  20.103  12.982
24068W        W90609   0.966  20.120   4.561
24069W        W90610  23.011  43.411   2.806
24070W        W90611  26.312  34.123   3.700
24071W        W90612  38.062   3.002   1.707
24072W        W90613  13.226   1.495  13.098
24073W        W90614  12.835  11.181  13.239
24074W        W90615   8.132  32.065   4.262
24075W        W90616  30.806  28.254   0.497
24076W        W90617  24.118  11.372  14.817
24077W        W90618  18.784  31.655  14.276
24078W        W90619  21.082  17.154  10.715
24079W        W90620  16.338  44.940  14.080
24080W        W90621  16.913   1.993  13.436
24081W        W90622  36.149  14.600  11.438
24082W        W90623  43.329  25.232  12.915
24083W        W90624  18.170  18.413   1.851
24084W        W90625  32.545  33.004   2.731
24085W        W90626  12.192   9.096  14.560
24086W        W90627  35.586  11.757   2.374
24087W        W90628  16.547  23.509   0.455
24088W        W90629  29.441  18.990   3.792
24089W        W90630  39.763   1.140   2.747
24090W        W90631  38.863   5.648  10.670
24091W        W90632  16.239  40.387  10.680
24092W        W90633  26.981   2.443   2.334
24093W        W90634  18.680   5.825   4.365
24094W        W90635  12.728  12.633  11.045
24095W        W90636  11.719  12.857  11.182
24096W        W90637  38.517  10.747   3.297
24097W        W90638   1.341  25.290  10.736
24098W        W90639  17.081  13.213  14.387
24099W        W90640  14.789  34.035   3.293
24100W        W90641  33.118  40.876  14.186
24101W        W90642  29.510  31.334   3.331
24102W        W90643  24.988  29.112  12.598
24103W        W90644  19.663  10.866   2.234
24104W        W90645   3.931   5.194   0.833
24105W        W90646  26.446  18.276   1.615
24106W        W90647  29.132  41.856   4.398
24107W        W90648  40.526  36.952   3.849
24108W        W90649  19.505   5.416   0.790
24109W        W90650  13.064  39.539  10.638
24110W        W90651  31.140  34.816  11.859
24111W        W90652  36.088  34.910  11.177
24112W        W90653   7.447  43.329   2.796
24113W        W90654  27.590  35.090   0.924
24114W        W90655  42.868  23.178   3.403
24115W        W90656   4.666   3.192  13.415
24116W        W90657  21.879  44.334   0.836
24117W        W90658  39.628  19.439  13.889
24118W        W90659   6.544  11.669  11.135
24119W        W90660  16.063  18.347  13.475
24120W        W90661   4.506  16.353  12.957
24121W        W90662  33.435  29.588   0.692
24122W        W90663  32.056   1.408   3.077
24123W        W90664  21.468   0.420   0.202
24124W        W90665  27.671  10.874   3.320
24125W        W90666  44.859  34.531  10.990
24126W        W90667  42.053  41.734   1.360
24127W        W90668  33.345   6.506   3.260
24128W        W90669   1.421  36.901   2.915
24129W        W90670  17.742  30.660  10.656
24130W        W90671  40.595  11.860   2.678
24131W        W90672  35.262  14.819   4.999
24132W        W90673   9.619   3.711  12.162
24133W        W90674  34.541  17.710   0.835
24134W        W90675  14.068  24.778  11.678
24135W        W90676  33.562  24.777   1.299
24136W        W90677  10.936  36.770  13.533
24137W        W90678   3.651   8.611   3.097
24138W        W90679  11.593  30.054   2.723
24139W        W90680  14.186  40.552   3.778
24140W        W90681  40.873   0.342  13.105
24141W        W90682  26.414  25.185  12.029
24142W        W90683  39.361  22.144  14.396
24143W        W90684  40.611  29.421  13.859
24144W        W90685  27.097  20.534  12.039
24145W        W90686  14.650  33.550  13.519
24146W        W90687  41.327  25.621  13.967
24147W        W90688  23.018  44.734  14.376
24148W        W90689  16.151  15.499   1.269
24149W        W90690  17.325  39.813  14.342
24150W        W90691   7.973  21.445  12.280
24151W        W90692  40.463   9.735   3.792
24152W        W90693  38.235  11.291   1.651
24153W        W90694  30.519  38.932  10.767
24154W        W90695   9.123  27.128  14.058
24155W        W90696  40.300  19.158  12.445
24156W        W90697  43.419  20.340  12.941
24157W        W90698  37.832  35.765  11.203
24158W        W90699  19.837  10.046   4.158
24159W        W90700   7.494   4.859   2.864
24160W        W90701  15.141   2.612   4.152
24161W        W90702  39.099   3.688  10.941
24162W        W90703  24.941  17.337   2.687
24163W        W90704  30.910  15.658   1.756
24164W        W90705  24.976  34.907  12.620
24165W        W90706  30.204  26.280  10.215
24166W        W90707  17.159   2.471   4.721
24167W        W90708  21.111  25.968   3.570
24168W        W90709  13.839   0.395  11.913
24169W        W90710  25.926  37.916  14.901
24170W        W90711  27.425  21.551   4.029
24171W        W90712   7.027  34.134  14.516
24172W        W90713  15.731  10.652  11.621
24173W        W90714  18.034  10.579   3.364
24174W        W90715  22.652  36.333   2.296
24175W        W90716   5.726  18.859   1.246
24176W        W90717   3.643   0.958   0.193
24177W        W90718  32.474  21.542   1.359
24178W        W90719   5.425  28.666  12.994
24179W        W90720   2.833  24.524  13.758
24180W        W90721  40.302   2.365  10.950
24181W        W90722   0.746   5.155   3.309
24182W        W90723  22.402  25.969  12.634
24183W        W90724  17.702  19.297  13.795
24184W        W90725  28.680  22.751   1.831
24185W        W90726  13.799  33.508   0.926
24186W        W90727  27.387  19.164  13.913
24187W        W90728  29.966   4.428  11.148
24188W        W90729  32.083  25.622   3.212
24189W        W90730  34.374  19.670  12.995
24190W        W90731  37.225  32.098  13.069
24191W        W90732  29.666  44.947   2.054
24192W        W90733  34.341  41.007   0.822
24193W        W90734   7.789  12.717   4.749
24194W        W90735  33.427  38.168  13.936
24195W        W90736  32.429  11.421  14.560
24196W        W90737  22.644  25.280   3.446
24197W        W90738   1.305  19.269   4.478
24198W        W90739  11.309  11.680  13.192
24199W        W90740  32.333   3.349  14.356
24200W        W90741  35.127  38.421  11.547
24201W        W90742  43.004   0.567   2.804
24202W        W90743   8.962   9.768  13.186
24203W        W90744  20.997  44.016  12.613
24204W        W90745  32.818   2.811   3.574
24205W        W90746   7.298  11.819  10.754
24206W        W90747  32.609  15.730   2.410
24207W        W90748  32.028  15.500   3.430
24208W        W90749  27.278  43.738  12.108
24209W        W90750  20.111  30.634  11.678
24210W        W90751  18.065  10.918   4.349
24211W        W90752   3.951  37.868  10.542
24212W        W90753  43.860  30.447  14.062
24213W        W90754  25.042  28.026   0.960
24214W        W90755   1.922   4.291   2.151
24215W        W90756   5.012  16.576   3.118
24216W        W90757  42.862  24.080   4.875
24217W        W90758  36.406  21.781  11.469
24218W        W90759  23.255  15.818  12.631
24219W        W90760  33.913  26.407  13.473
24220W        W90761  15.532  21.741   1.879
24221W        W90762  31.910  41.994   3.160
24222W        W90763  31.316   2.838  14.005
24223W        W90764   5.915  39.510  14.562
24224W        W90765  12.541  34.410  12.583
24225W        W90766  29.355   9.831   2.370
24226W        W90767  34.640  25.953   4.108
24227W        W90768  44.238  25.419  11.922
24228W        W90769  35.911  10.890   3.210
24229W        W90770  12.456  13.152  14.135
24230W        W90771  16.571  31.737   0.745
24231W        W90772  19.636   1.857   1.687
24232W        W90773  17.736  17.815   5.042
24233W        W90774  13.747  16.191   4.825
24234W        W90775   9.691  10.812  13.421
24235W        W90776  32.439  27.457  14.872
24236W        W90777  10.856  36.350   2.688
24237W        W90778   4.306  16.361   2.879
24238W        W90779   0.403   6.212  14.897
24239W        W90780  27.026  28.907   3.670
24240W        W90781  16.311   7.517  12.916
24241W        W90782  32.691  21.281   4.590
24242W        W90783  30.207   3.428   4.096
24243W        W90784  12.255  20.871   2.490
24244W        W90785   5.936  30.466  13.075
24245W        W90786   4.959  23.772  12.373
24246W        W90787  19.621  38.081   2.058
24247W        W90788  31.150  41.975   2.044
24248W        W90789  23.995  15.276  14.262
24249W        W90790   9.900  27.054   0.729
24250W        W90791  25.756  19.494   1.764
24251W        W90792  24.968  25.706   3.298
24252W        W90793  14.776  42.837  14.553
24253W        W90794  26.038  28.704  14.851
24254W        W90795   6.604  27.201  12.629
24255W        W90796   8.772  37.730   4.157
24256W        W90797  18.761  40.298   0.734
24257W        W90798  40.060   5.286   1.149
24258W        W90799   3.914  27.735   1.867
24259W        W90800  21.808  27.683  12.223
24260W        W90801   3.447  30.983  14.946
24261W        W90802  40.520  27.556   2.155
24262W        W90803  43.743   9.931  12.539
24263W        W90804  35.496  26.353  14.837
24264W        W90805  18.346  41.337   2.221
24265W        W90806   8.390   5.770  10.676
24266W        W90807  43.861  20.249  12.116
24267W        W90808  15.651   9.505  12.396
24268W        W90809  15.196  15.728   5.018
24269W        W90810  20.465  28.871  13.775
24270W        W90811  15.074  41.059  13.145
24271W        W90812  31.053  36.612   2.739
24272W        W90813   8.628  12.319  14.777
24273W        W90814  29.996  22.799  11.154
24274W        W90815  33.323  19.611   2.174
24275W        W90816   3.783   9.282  12.200
24276W        W90817   1.657  27.264   2.341
24277W        W90818   6.501  44.218  10.679
24278W        W90819  21.343  39.414  13.607
24279W        W90820  37.500  32.360   3.752
24280W        W90821  25.620   1.512   0.493
24281W        W90822  39.475  35.542  13.363
24282W        W90823  35.468  37.268  12.411
24283W        W90824  18.089   2.832  14.755
24284W        W90825  43.528   2.864  10.892
24285W        W90826  30.914   0.921  13.941
24286W        W90827  14.297   6.445  14.264
24287W        W90828  14.277  40.599  10.660
24288W        W90829  41.398  41.384   4.115
24289W        W90830  28.106   0.911   4.093
24290W        W90831   9.573  44.518   1.263
24291W        W90832  44.507   1.917  12.124
24292W        W90833  42.021  44.935   1.512
24293W        W90834  29.651  12.832  12.907
24294W        W90835  26.946  15.806  11.899
24295W        W90836   6.012  40.483   4.127
24296W        W90837  35.007  16.361   1.294
24297W        W90838  18.891  21.154   9.594
24298W        W90839  22.290   2.645   4.581
24299W        W90840  25.566  30.586   0.363
24300W        W90841  19.243  17.054   0.396
24301W        W90842  38.140  11.253   1.146
24302W        W90843  30.626  30.029  14.841
24303W        W90844  44.279  21.830  10.715
24304W        W90845   2.691   6.409   3.735
24305W        W90846  11.852  32.917  14.226
24306W        W90847  35.101  27.616  13.572
24307W        W90848  11.152   8.272   3.753
24308W        W90849  18.856  37.481   4.639
24309W        W90850  11.371   4.159  14.916
24310W        W90851  20.714  25.177  14.706
24311W        W90852  41.841   6.524  14.818
24312W        W90853   4.559  15.223   1.598
24313W        W90854  32.435  39.726  11.184
24314W        W90855  21.675  32.514  13.543
24315W        W90856  39.834  27.105   3.781
24316W        W90857   3.680   5.684  12.818
24317W        W90858  23.839  22.750   1.990
24318W        W90859   7.735  29.041  14.038
24319W        W90860  20.636   0.330   1.362
24320W        W90861   0.042   8.876   2.751
24321W        W90862  11.607  17.665   0.944
24322W        W90863  44.948  25.521  12.484
24323W        W90864  15.640  11.879   2.660
24324W        W90865   3.445  35.419   2.851
24325W        W90866  40.132  44.776  10.638
24326W        W90867  24.140  11.331   2.987
24327W        W90868  16.742  23.201   4.292
24328W        W90869  37.947   8.968  14.795
24329W        W90870  36.034   9.440   4.651
24330W        W90871   2.166  35.438   4.332
24331W        W90872   9.142  41.865  14.298
24332W        W90873  27.106   4.049  11.181
24333W        W90874   6.316  23.588   1.360
24334W        W90875  28.232  23.082   2.992
24335W        W90876  40.076  41.969   1.740
24336W        W90877   3.465  15.600  11.631
24337W        W90878  34.942  16.092  14.875
24338W        W90879   8.951  41.382   1.352
24339W        W90880  34.688  28.750   2.510
24340W        W90881  17.566  34.302  11.601
24341W        W90882  11.368  18.301  12.487
24342W        W90883   8.635   8.863  11.875
24343W        W90884  37.118  31.963   0.397
24344W        W90885  13.359  20.233  12.940
24345W        W90886  30.735   3.661   2.787
24346W        W90887  13.634  18.012   3.349
24347W        W90888  23.978  35.896   2.172
24348W        W90889  25.140  29.973   2.268
24349W        W90890  23.227   4.721  13.353
24350W        W90891  20.164  38.109   4.189
24351W        W90892  40.568  22.811   4.169
24352W        W90893   2.067  28.729   2.338
24353W        W90894   9.900  22.148  11.467
24354W        W90895  31.529  22.739  10.721
24355W        W90896   2.270  35.849  11.195
24356W        W90897  42.986  26.499  14.320
24357W        W90898  29.711  18.206  12.572
24358W        W90899  14.712  23.222  12.220
24359W        W90900  13.776  18.774  10.932
24360W        W90901   6.557  39.102  13.530
24361W        W90902  28.651  40.052  14.810
24362W        W90903  42.429  37.562  12.945
24363W        W90904  30.248  31.393   4.481
24364W        W90905  44.463  32.406   3.219
24365W        W90906  25.614  44.506  11.262
24366W        W90907  34.885   5.417  12.913
24367W        W90908  36.064  13.125   0.758
24368W        W90909  29.371  35.876   0.370
24369W        W90910  19.147  32.996  13.535
24370W        W90911  33.451  23.160   4.381
24371W        W90912   1.696  42.454  10.693
24372W        W90913  18.785  14.796   3.045
24373W        W90914  35.628  21.233  11.679
24374W        W90915  16.248  14.270  13.408
24375W        W90916  10.932  32.630   1.865
24376W        W90917  44.960  35.093  13.025
24377W        W90918  25.493   7.720   0.304
24378W        W90919  28.630  17.592  13.090
24379W        W90920  11.134   4.285   2.439
24380W        W90921  25.691  16.345   0.358
24381W        W90922   0.471  16.067  13.103
24382W        W90923   8.698   3.008   3.537
24383W        W90924   2.381  14.345  12.533
24384W        W90925  11.859  31.863  13.095
24385W        W90926  43.542  19.773   0.231
24386W        W90927  41.541   9.750  11.166
24387W        W90928   5.985  20.979   2.332
24388W        W90929  29.563  17.759  11.121
24389W        W90930  26.686  16.726  13.461
24390W        W90931  34.844  21.478  13.019
24391W        W90932  37.371  26.462  14.116
24392W        W90933   3.524   2.300  12.902
24393W        W90934   0.986  35.099  10.590
24394W        W90935  32.768  15.092  11.973
24395W        W90936  10.934  15.521  10.210
24396W        W90937   6.912  38.021   2.415
24397W        W90938   8.167  30.289  14.527
24398W        W90939   2.416  25.967  14.750
24399W        W90940  19.553   6.314  12.808
24400W        W90941  17.638   1.203   1.267
24401W        W90942  43.825  33.518   2.045
24402W        W90943   0.794  24.424   4.992
24403W        W90944  11.716  35.894   4.606
24404W        W90945  10.732  31.404  14.286
24405W        W90946  14.715  23.569  14.460
24406W        W90947  18.773   2.494  14.208
24407W        W90948   4.259  18.357  14.087
24408W        W90949   2.317  38.768   3.785
24409W        W90950  27.616   6.014  12.262
24410W        W90951  22.562  33.157   3.262
24411W        W90952  28.154  24.981   3.512
24412W        W90953   9.236  33.295  12.096
24413W        W90954  40.640  37.369  12.515
24414W        W90955  40.432  34.483  13.553
24415W        W90956  11.174  13.433   4.061
24416W        W90957  16.632  32.221  14.222
24417W        W90958  20.556  38.017  12.605
24418W        W90959   0.748  18.973   1.815
24419W        W90960  26.683  22.193  13.722
24420W        W90961   6.885  31.623  12.030
24421W        W90962  20.309  17.925  12.871
24422W        W90963  17.375  16.339  13.402
24423W        W90964   8.382  10.618  11.174
24424W        W90965  37.503  39.923  11.957
24425W        W90966  26.034   7.653   0.395
24426W        W90967   8.924   4.162   3.953
24427W        W90968  11.125  18.115  12.930
24428W        W90969  21.782  38.004   4.213
24429W        W90970  24.591  32.105  13.550
24430W        W90971  41.155  22.050  13.425
24431W        W90972  25.089  29.416  13.871
24432W        W90973  32.498  11.134   1.477
24433W        W90974   8.759  24.203  14.067
24434W        W90975  39.339   1.785   3.203
24435W        W90976  27.431  42.497  14.480
24436W        W90977  22.427  33.608   0.515
24437W        W90978  35.640  37.943  14.735
24438W        W90979  38.459  17.058   2.781
24439W        W90980   9.828  27.042   4.681
24440W        W90981  32.632   9.671   0.377
24441W        W90982  13.649  37.964  10.640
24442W        W90983  39.070   8.653  13.002
24443W        W90984   5.276  28.610  10.082
24444W        W90985  17.202  15.346   1.758
24445W        W90986  11.830  16.046  10.497
24446W        W90987  38.898  21.201   4.768
24447W        W90988   5.799  11.322  12.270
24448W        W90989  42.404   8.698   0.557
24449W        W90990   8.284  14.627   0.876
24450W        W90991   9.909   2.468  10.456
24451W        W90992   6.873  28.511   2.094
24452W        W90993  32.919  28.617   4.607
24453W        W90994   8.954   4.409   1.891
24454W        W90995  35.452  37.370  14.473
24455W        W90996  18.070  43.362  12.571
24456W        W90997  17.352  41.262   2.307
24457W        W90998  27.064  41.229  10.568
24458W        W90999  40.881   2.007  14.356
24459W        W91000  17.999  25.500   0.492
24460W        W91001  31.537  26.514   3.123
24461W        W91002   0.152  22.654  12.804
24462W        W91003   3.343  34.885  13.099
24463W        W91004  29.145  29.172   0.202
24464W        W91005  22.697  16.526   3.671
24465W        W91006   5.801  21.861  11.951
24466W        W91007   9.971   9.944  14.375
24467W        W91008  20.832  28.574  11.847
24468W        W91009  35.990  16.867  14.047
24469W        W91010  20.333  36.090  14.782
24470W        W91011  22.141  36.878   4.097
24471W        W91012  18.747   4.799   2.701
24472W        W91013  33.942  43.868   3.603
24473W        W91014   7.607   9.472  12.069
24474W        W91015  15.593  42.890   4.568
24475W        W91016   9.225  13.724   2.821
24476W        W91017   0.757  19.960   9.989
24477W        W91018  22.677  40.623   3.719
24478W        W91019   4.790   5.539  11.574
24479W        W91020  37.541  42.980  12.037
24480W        W91021   3.717  32.626   3.250
24481W        W91022  37.964   1.496   4.331
24482W        W91023  44.839  28.628   3.547
24483W        W91024   5.400  24.073   3.467
24484W        W91025  10.118  18.254  12.888
24485W        W91026  35.682  38.753   4.189
24486W        W91027  15.636  44.193   3.859
24487W        W91028   1.845   2.079   3.546
24488W        W91029  32.135  15.272  13.059
24489W        W91030  25.025  21.378   4.184
24490W        W91031  23.909  32.928   3.013
24491W        W91032  40.837   7.597  11.401
24492W        W91033  44.248  12.273   1.897
24493W        W91034  29.926  31.128   4.152
24494W        W91035   2.173  16.662   1.798
24495W        W91036  28.494  34.125   4.491
24496W        W91037  41.514  37.467  13.853
24497W        W91038  11.609  39.415  11.802
24498W        W91039  19.000  43.386   0.059
24499W        W91040  16.549   8.437   1.033
24500W        W91041  13.657   9.137  10.736
24501W        W91042  33.055  34.243   1.731
24502W        W91043  13.229  19.739   4.171
24503W        W91044  31.460  44.185   1.270
24504W        W91045  19.166   1.736   0.439
24505W        W91046   7.880   5.347  12.429
24506W        W91047  10.877   0.341  13.803
24507W        W91048  13.190  41.265  12.591
24508W        W91049  26.924   0.251  12.132
24509W        W91050   5.760  21.248  13.820
24510W        W91051  21.595   8.952  11.081
24511W        W91052  28.078  12.141   1.265
24512W        W91053   7.245  38.507   2.728
24513W        W91054  43.273  37.786   4.210
24514W        W91055  19.333  29.241   0.734
24515W        W91056  18.541   3.847   2.728
24516W        W91057  17.799  15.330  12.071
24517W        W91058   7.588  42.996   4.210
24518W        W91059  31.524  33.367  12.522
24519W        W91060   6.403   8.348  10.760
24520W        W91061  44.198  19.664   9.796
24521W        W91062  30.075  38.898  14.611
24522W        W91063  20.664  15.145   3.764
24523W        W91064  13.696  40.547   2.718
24524W        W91065  29.069  24.091   3.651
24525W        W91066  41.479  32.629   4.084
24526W        W91067   5.175  21.147   1.885
24527W        W91068  23.791  38.710  13.314
24528W        W91069  25.096   6.863  11.781
24529W        W91070  25.702   9.338  11.200
24530W        W91071   6.857  34.692  12.379
24531W        W91072  26.410  30.443  12.588
24532W        W91073  44.206   2.366   4.603
24533W        W91074   0.749  14.863  14.059
24534W        W91075  39.450   8.567  14.768
24535W        W91076  26.565  32.603   2.885
24536W        W91077  29.663   0.910   1.801
24537W        W91078  27.883  39.009   4.202
24538W        W91079  26.293  28.350  11.117
24539W        W91080  14.769  24.292   2.960
24540W        W91081  41.613   3.819  10.682
24541W        W91082  39.916  34.132   1.305
24542W        W91083  33.561  41.449  13.532
24543W        W91084  30.567  14.621  11.236
24544W        W91085  15.368  35.470  14.464
24545W        W91086  24.927  44.935   1.942
24546W        W91087  43.874  15.107  13.492
24547W        W91088   5.426  15.881  12.059
24548W        W91089  28.185  18.111   5.144
24549W        W91090  27.431  36.492  12.366
24550W        W91091  28.697   3.194   4.109
24551W        W91092  38.006  42.975  14.409
24552W        W91093  27.520  28.342   4.747
24553W        W91094   9.664  14.384   3.720
24554W        W91095  14.150  15.800  13.936
24555W        W91096   1.802  28.308   5.316
24556W        W91097  31.647  41.831  10.565
24557W        W91098   8.064  35.436   2.808
24558W        W91099  19.715  17.683   1.430
24559W        W91100  38.374  32.501  12.124
24560W        W91101  16.923  22.480   1.432
24561W        W91102  41.690   6.826   4.051
24562W        W91103  38.452  25.319   3.595
24563W        W91104  35.067  10.086  13.492
24564W        W91105  44.449  25.322  13.519
24565W        W91106  37.695  44.508  12.937
24566W        W91107  29.153  21.741  11.326
24567W        W91108  21.533  21.634   2.008
24568W        W91109  40.347  38.568   3.196
24569W        W91110  29.990  44.878   2.731
24570W        W91111   3.798   0.390   5.494
24571W        W91112   2.711  32.830   1.498
24572W        W91113  26.149  26.876  14.428
24573W        W91114   5.262  31.884   0.510
24574W        W91115  38.296  41.303   2.296
24575W        W91116   3.604  30.655   0.478
24576W        W91117   3.325  34.957  14.467
24577W        W91118  44.517  26.544  14.862
24578W        W91119  17.088  36.965  11.085
24579W        W91120  14.554  28.234   1.458
24580W        W91121   5.050  33.471   4.597
24581W        W91122  36.778  31.150  13.837
24582W        W91123  32.743  24.383   3.530
24583W        W91124   3.304  11.087  13.517
24584W        W91125  25.467  37.462  13.227
24585W        W91126  13.712  26.524   3.927
24586W        W91127  30.682   5.977   2.655
24587W        W91128  35.040  35.083   4.656
24588W        W91129   2.411  34.467  10.163
24589W        W91130   6.257   5.847  11.434
24590W        W91131   5.719   2.838  13.964
24591W        W91132  23.008  44.471  13.067
24592W        W91133  31.669  42.031  11.990
24593W        W91134  26.499  21.834   4.146
24594W        W91135   0.816   2.102  10.162
24595W        W91136  19.955  30.666  11.164
24596W        W91137   1.303  30.270  10.812
24597W        W91138  27.602  15.604  11.448
24598W        W91139   0.089  41.643  12.986
24599W        W91140  26.671   1.311   0.082
24600W        W91141  43.321  32.598   4.099
24601W        W91142  41.587  16.147   4.115
24602W        W91143  32.537  32.030   3.898
24603W        W91144  24.675  17.985  12.087
24604W        W91145  36.595   8.842   2.934
24605W        W91146  17.347  27.148  11.148
24606W        W91147  39.265  30.653   0.248
24607W        W91148   9.957  27.494  14.399
24608W        W91149  17.812  42.073  13.118
24609W        W91150  18.441  18.607   1.422
24610W        W91151  32.078  11.162  14.847
24611W        W91152   5.427   8.843   3.907
24612W        W91153  42.914  38.237  13.544
24613W        W91154   6.901  18.173  14.924
24614W        W91155  11.008  14.333   0.973
24615W        W91156  36.099  31.979   4.088
24616W        W91157  17.617  10.714   4.484
24617W        W91158  26.870  26.668  10.273
24618W        W91159  12.266  24.740   1.337
24619W        W91160  20.059  36.785   2.977
24620W        W91161  33.301  30.695   0.744
24621W        W91162  16.265   5.228   1.519
24622W        W91163  34.590  32.895  13.535
24623W        W91164  35.961   5.132   2.882
24624W        W91165  40.337  22.365   4.068
24625W        W91166   2.239  37.355   1.630
24626W        W91167  37.577  44.235   0.715
24627W        W91168   1.708  35.294   4.116
24628W        W91169   2.532  23.968  12.328
24629W        W91170  17.189   4.976  14.265
24630W        W91171  22.053  30.567   3.721
24631W        W91172  40.528  33.473   0.037
24632W        W91173  15.845   5.469  10.745
24633W        W91174   6.964  16.710  10.765
24634W        W91175  21.674   9.167  12.980
24635W        W91176  28.212   6.482   3.562
24636W        W91177  19.980  41.000   0.863
24637W        W91178  27.921   2.873   1.211
24638W        W91179  28.755   2.897   0.791
24639W        W91180   6.467  11.261   3.132
24640W        W91181  27.680  37.380   2.169
24641W        W91182  18.026   8.688   1.389
24642W        W91183  26.147  17.027   1.128
24643W        W91184  13.173  16.269  10.857
24644W        W91185  14.662   8.610  13.078
24645W        W91186   2.954   3.793  14.982
24646W        W91187   3.204  36.039  10.363
24647W        W91188  24.132  23.615   9.878
24648W        W91189   6.262  37.641   0.899
24649W        W91190  24.206  30.869  12.683
24650W        W91191   9.730  41.510  12.909
24651W        W91192  42.049  25.135   2.921
24652W        W91193   6.334  24.527   4.480
24653W        W91194  27.184  35.835  14.784
24654W        W91195  18.223   5.685   1.671
24655W        W91196  20.697  17.238   0.396
24656W        W91197   3.551  33.544   1.259
24657W        W91198  35.354  35.830   1.022
24658W        W91199   9.197  40.807   3.185
24659W        W91200  15.286   1.438  12.897
24660W        W91201  22.745   8.504  12.675
24661W        W91202  42.030  36.527  13.886
24662W        W91203  40.371  36.647  10.752
24663W        W91204  41.168  16.400  10.574
24664W        W91205  18.669  32.534  12.903
24665W        W91206   6.507  20.202   0.909
24666W        W91207  27.181  14.672  10.695
24667W        W91208  30.055  10.938   2.514
24668W        W91209  22.042  32.922   3.644
24669W        W91210   4.042  32.622  14.946
24670W        W91211  24.946  13.798  10.498
24671W        W91212  36.527   0.087  11.540
24672W        W91213  43.106  27.573   3.649
24673W        W91214  40.750  33.057   3.216
24674W        W91215  31.419  43.855  13.051
24675W        W91216  34.048  19.192  11.182
24676W        W91217  44.286  13.245  13.326
24677W        W91218  38.298  21.303   2.639
24678W        W91219  18.806  38.023   4.086
24679W        W91220  17.435  40.110   4.622
24680W        W91221   7.210  37.862   0.498
24681W        W91222   0.900  26.486   3.992
24682W        W91223  41.068  38.384  12.941
24683W        W91224  23.946   1.010   0.785
24684W        W91225  11.433   9.323   2.636
24685W        W91226  10.436  38.394  14.334
24686W        W91227  17.384   0.681  10.059
24687W        W91228  39.441  24.640  13.853
24688W        W91229  41.400  20.994   2.944
24689W        W91230  27.809  26.796   1.805
24690W        W91231  39.560  29.677   0.487
24691W        W91232  27.537   0.939   1.706
24692W        W91233  44.269  36.593   3.160
24693W        W91234  22.570   3.159  14.415
24694W        W91235  44.349  14.121  11.366
24695W        W91236  42.008  12.924   1.747
24696W        W91237  42.461  26.575  14.931
24697W        W91238   1.266  39.307   2.331
24698W        W91239   6.942  38.242   0.734
24699W        W91240  22.077  22.067   1.592
24700W        W91241   2.793  26.269  11.156
24701W        W91242  14.693   2.490  12.335
24702W        W91243  10.230   6.278   4.213
24703W        W91244  43.394  14.844   4.581
24704W        W91245  37.646  42.342   3.729
24705W        W91246  44.859  13.699   2.130
24706W        W91247  25.522  22.251   2.933
24707W        W91248  25.163  16.189  13.484
24708W        W91249  26.148  39.930   1.531
24709W        W91250  16.532   3.684   2.931
24710W        W91251  31.119  20.580  14.927
24711W        W91252  27.892  22.326   2.167
24712W        W91253  18.598   1.023  14.278
24713W        W91254   8.860  32.925   2.294
24714W        W91255  33.848  25.552   1.677
24715W        W91256   5.739  30.165   0.778
24716W        W91257  19.527   3.852  13.873
24717W        W91258  43.024  37.222  13.645
24718W        W91259  30.860  37.383   3.293
24719W        W91260  38.553   6.138  10.598
24720W        W91261  37.285   3.430   3.238
24721W        W91262   7.347  28.631   3.031
24722W        W91263  28.228  21.202  11.597
24723W        W91264  15.042  21.597   2.707
24724W        W91265  30.862   4.332  14.711
24725W        W91266  14.152  35.381  13.309
24726W        W91267  13.036   1.870   4.833
24727W        W91268   3.371  33.930  14.231
24728W        W91269   0.521  11.608  12.115
24729W        W91270  43.487  35.102   1.455
24730W        W91271  20.798  37.311  10.870
24731W        W91272  21.401  32.480  10.070
24732W        W91273  44.383   8.238   3.488
24733W        W91274  14.942  30.872   2.291
24734W        W91275  37.860  25.953  11.083
24735W        W91276  36.414   7.826   0.495
24736W        W91277  16.303  39.675  11.114
24737W        W91278  37.562  15.838   3.700
24738W        W91279  13.622   9.558  14.404
24739W        W91280  28.162   2.875  13.944
24740W        W91281  12.827  24.450  13.093
24741W        W91282  12.575  26.933  14.486
24742W        W91283  10.204  19.719  14.572
24743W        W91284  19.028  28.347   1.080
24744W        W91285  23.048   0.006  14.804
24745W        W91286  29.711  32.097  13.453
24746W        W91287  31.393  34.068   2.800
24747W        W91288  43.909   9.061   4.283
24748W        W91289   6.840   4.721  14.086
24749W        W91290  31.597   0.267   4.270
24750W        W91291  19.299  41.066  14.901
24751W        W91292  18.522  10.889   0.821
24752W        W91293   1.231  15.812   3.278
24753W        W91294  35.088   1.467  14.785
24754W        W91295  22.569  32.160   3.297
24755W        W91296  23.789  30.198   4.585
24756W        W91297  29.128  22.910   1.228
24757W        W91298  28.917  11.990   2.219
24758W        W91299  41.973  37.266  12.973
24759W        W91300  23.210  17.313  13.500
24760W        W91301  38.290   4.745   1.050
24761W        W91302  19.611  44.268   2.271
24762W        W91303   9.469   1.757   3.346
24763W        W91304  19.605  31.950  13.015
24764W        W91305  20.028   6.651   4.934
24765W        W91306   4.343   1.752   0.222
24766W        W91307  36.434  38.061  10.698
24767W        W91308  26.993  41.457   0.453
24768W        W91309  29.629   8.236  10.945
24769W        W91310  19.032  20.250   1.310
24770W        W91311  24.187  44.797  13.300
24771W        W91312   7.059  20.987   1.011
24772W        W91313  29.239  41.723  14.781
24773W        W91314  41.461   5.942   2.256
24774W        W91315  24.051  26.587  13.030
24775W        W91316  10.411  31.177  13.055
24776W        W91317  35.013  44.722   1.966
24777W        W91318  35.975  23.902  13.542
24778W        W91319  28.710  43.751   2.160
24779W        W91320  14.553  15.626  13.023
24780W        W91321   5.346  36.416   4.222
24781W        W91322   1.982  41.267  12.548
24782W        W91323  39.382   8.395   2.348
24783W        W91324  23.912  42.399   0.857
24784W        W91325   6.178  42.755  13.065
24785W        W91326  33.512   2.385  11.656
24786W        W91327  10.749  15.380  11.879
24787W        W91328  41.926   4.511   4.445
24788W        W91329  31.682  33.427   0.383
24789W        W91330  25.288  22.147  13.532
24790W        W91331  34.148  40.791  14.278
24791W        W91332  39.954  19.686   1.175
24792W        W91333  40.449   8.470   1.120
24793W        W91334  20.226  36.362   0.238
24794W        W91335  17.264  27.148  10.117
24795W        W91336  23.006  11.338   3.193
24796W        W91337   1.262  14.148   0.883
24797W        W91338  41.573  27.900  10.425
24798W        W91339  14.085  20.590   4.334
24799W        W91340  11.203  42.173   3.318
24800W        W91341  21.560   1.799   0.872
24801W        W91342  34.404   7.303   2.694
24802W        W91343  20.065  35.343   0.314
24803W        W91344  34.441  35.463  11.094
24804W        W91345  31.819  15.350  13.927
24805W        W91346  14.324   3.322   0.908
24806W        W91347  35.757  37.691  13.354
24807W        W91348  34.438  21.546   1.402
24808W        W91349  13.496  28.730   2.790
24809W        W91350  42.540  41.911  12.442
24810W        W91351   4.193  33.580  14.472
24811W        W91352  19.806  14.776   0.726
24812W        W91353   1.710  34.078   4.715
24813W        W91354  32.260  12.182  14.926
24814W        W91355  10.759  31.959   0.391
24815W        W91356  22.758  42.770  10.491
24816W        W91357   9.123  25.199   2.785
24817W        W91358  25.667  37.446  14.968
24818W        W91359  20.122  25.883   4.168
24819W        W91360  25.558  16.708   4.183
24820W        W91361  25.461  16.237   1.228
24821W        W91362  40.941  27.197   0.410
24822W        W91363  31.443  32.951   4.762
24823W        W91364   9.369  33.156   3.828
24824W        W91365  15.829   2.200   3.278
24825W        W91366  44.288  27.043  10.493
24826W        W91367  23.244  31.550   4.821
24827W        W91368   9.843  34.303   3.724
24828W        W91369   2.823  19.047  13.514
24829W        W91370  36.367  37.657   1.845
24830W        W91371  37.148  42.088   2.220
24831W        W91372  17.146  14.834  14.259
24832W        W91373   3.443  10.683  14.429
24833W        W91374  34.263  37.455  12.003
24834W        W91375  35.553  30.107  12.030
24835W        W91376  38.005  44.478  13.807
24836W        W91377   7.941  23.267  12.953
24837W        W91378  10.807  12.358   4.140
24838W        W91379  26.107   6.289   0.038
24839W        W91380  24.560   3.190  13.809
24840W        W91381  29.501  24.407  12.520
24841W        W91382  32.449  26.986   0.811
24842W        W91383  31.956  17.524   2.159
24843W        W91384  28.589  12.932  14.652
24844W        W91385  32.664  23.698   4.928
24845W        W91386   7.237  16.944   0.979
24846W        W91387  21.736  23.055  11.718
24847W        W91388  16.098  15.747   0.261
24848W        W91389  25.198  12.277  13.935
24849W        W91390  34.533  27.335  12.361
24850W        W91391  21.873   8.395  14.819
24851W        W91392   5.839  12.752  13.983
24852W        W91393  21.994  11.617  12.548
24853W        W91394  27.072  30.115   2.197
24854W        W91395   6.968  11.542  12.030
24855W        W91396  23.618  39.871  11.281
24856W        W91397  42.991   9.296  13.565
24857W        W91398  15.131  42.460  10.500
24858W        W91399  11.231  17.223   2.637
24859W        W91400  17.207  19.802  10.296
24860W        W91401   0.989  36.447   3.352
24861W        W91402  28.674  35.484  13.423
24862W        W91403  29.716  20.587  12.452
24863W        W91404  11.787  29.499  13.539
24864W        W91405  15.330  14.747   2.591
24865W        W91406  23.475  20.003   4.272
24866W        W91407  21.719  38.813  14.890
24867W        W91408  13.749  42.451   2.371
24868W        W91409  42.373  29.225   1.629
24869W        W91410  37.581  35.133  10.999
24870W        W91411  26.976  16.346  11.963
24871W        W91412  13.869  19.121   2.323
24872W        W91413  22.966  34.289   0.773
24873W        W91414  17.216  17.130   4.130
24874W        W91415  23.025   9.071   1.340
24875W        W91416  21.506  11.021   0.261
24876W        W91417   1.965   0.863   2.309
24877W        W91418  38.446  39.975  12.966
24878W        W91419   6.339  25.646  12.868
24879W        W91420  36.932   2.877  12.822
24880W        W91421  37.255  40.430   1.295
24881W        W91422  41.251  27.010   2.275
24882W        W91423   5.874  31.147   1.828
24883W        W91424   7.943  27.683   1.447
24884W        W91425  40.493  44.277  12.478
24885W        W91426  31.185  31.901   3.745
24886W        W91427   0.059  10.169   1.509
24887W        W91428  39.404  33.261  11.169
24888W        W91429  37.892  23.465  13.978
24889W        W91430  21.991  31.118  13.937
24890W        W91431  15.633  36.445   0.752
24891W        W91432  26.763  29.704   3.378
24892W        W91433   1.566  34.529   3.954
24893W        W91434  28.114  22.062   4.816
24894W        W91435  29.011  34.099  13.976
24895W        W91436  32.868  22.269   2.743
24896W        W91437  39.945  17.571   1.893
24897W        W91438   1.934  20.498  11.405
24898W        W91439  17.499   3.764  11.645
24899W        W91440   2.852  38.896  12.537
24900W        W91441  40.291   9.691  10.607
24901W        W91442  36.367  13.326  13.783
24902W        W91443   4.345  12.146   2.592
24903W        W91444  20.993  28.985  12.109
24904W        W91445  34.743  39.622  11.158
24905W        W91446  38.164   7.346  12.078
24906W        W91447  17.999  21.222   0.367
24907W        W91448  14.617  31.895  14.335
24908W        W91449  41.353  15.296   3.103
24909W        W91450  37.296   9.285   0.710
24910W        W91451  26.574  40.246  11.212
24911W        W91452  16.802  17.803  13.798
24912W        W91453  26.541  18.754   2.395
24913W        W91454   4.911  24.255   0.384
24914W        W91455  36.128  17.583   4.015
24915W        W91456  11.699  17.163   3.830
24916W        W91457  37.542  30.212   3.253
24917W        W91458  15.678  31.808   2.856
24918W        W91459   2.868   5.046   0.751
24919W        W91460  37.355  35.552  12.827
24920W        W91461  10.628   6.054   3.381
24921W        W91462   6.917   6.886   0.801
24922W        W91463  34.056  22.057   4.050
24923W        W91464   6.754   9.422   4.357
24924W        W91465  25.955  23.100  14.394
24925W        W91466  22.095  41.828   1.001
24926W        W91467  10.926  34.088   1.773
24927W        W91468  41.796  42.854  12.038
24928W        W91469  35.118  36.885   2.151
24929W        W91470   1.280  27.155  11.011
24930W        W91471  24.949   8.250  11.650
24931W        W91472  27.748  43.288  12.848
24932W        W91473  36.212   1.800   5.355
24933W        W91474  30.357  16.639  11.171
24934W        W91475   1.034   1.993  10.618
24935W        W91476  43.321  16.114  13.391
24936W        W91477  39.524  22.742   4.253
24937W        W91478  18.642  34.956   4.263
24938W        W91479   8.830  11.678  11.643
24939W        W91480   3.803  13.540  10.704
24940W        W91481  13.879  37.481  11.165
24941W        W91482  20.524  29.953  11.483
24942W        W91483   4.508   2.224   3.411
24943W        W91484  34.174  41.547   3.120
24944W        W91485  39.560  36.564  13.465
24945W        W91486  27.553  25.512  12.966
24946W        W91487   3.199   0.785   1.736
24947W        W91488  21.742  19.778  11.256
24948W        W91489  33.105   3.465  11.588
24949W        W91490  44.277   9.340   2.731
24950W        W91491  13.896  43.013   1.747
24951W        W91492  28.676   9.477   1.450
24952W        W91493   5.784  31.188  12.014
24953W        W91494  19.210  12.637  11.391
24954W        W91495  31.851  27.982  11.967
24955W        W91496   3.898   1.068   3.697
24956W        W91497  43.998  31.028   3.659
24957W        W91498  21.768   2.422  13.449
24958W        W91499  14.734  30.058   0.420
24959W        W91500   0.243   7.741  10.503
24960W        W91501  32.008  16.615  12.639
24961W        W91502  31.226  23.805  13.445
24962W        W91503  13.846  43.437   1.210
24963W        W91504  32.175  11.237  12.847
24964W        W91505  26.186  36.678   1.384
24965W        W91506  35.140  30.817   4.266
24966W        W91507  34.163  38.018   1.867
24967W        W91508  24.454  29.600   3.894
24968W        W91509  44.895  18.536   3.223
24969W        W91510  21.615  41.445   2.132
24970W        W91511  13.686  11.190  12.200
24971W        W91512  38.867  38.129  13.488
24972W        W91513  22.460   7.441   2.326
24973W        W91514  41.714  40.329   1.919
24974W        W91515  38.264  41.706   1.121
24975W        W91516  31.549  10.260  12.351
24976W        W91517  38.004   3.609   4.286
24977W        W91518  42.267  22.218   0.347
24978W        W91519  19.367   0.245   1.029
24979W        W91520  14.395  27.911  11.099
24980W        W91521   2.166  10.320   3.622
24981W        W91522  18.178  43.043  10.678
24982W        W91523  38.919   6.334   4.146
24983W        W91524  13.330  31.805   3.834
24984W        W91525  33.955   4.800  11.170
24985W        W91526  18.701  44.943   1.275
24986W        W91527  26.206  10.234   2.491
24987W        W91528  26.223  33.105  11.998
24988W        W91529  34.064  18.564   0.488
24989W        W91530  34.336   4.479   5.123
24990W        W91531   6.650  16.605  14.821
24991W        W91532  21.591   0.478  12.398
24992W        W91533   6.917  19.000   4.157
24993W        W91534  36.081  19.622   0.240
24994W        W91535   3.958  41.302   2.872
24995W        W91536  42.883  11.720   0.510
24996W        W91537  31.438  33.430  14.470
24997W        W91538  25.438  29.917   1.843
24998W        W91539  17.243  16.833   1.411
24999W        W91540  41.499   0.952   2.396
25000W        W91541  40.990   6.914   0.904
25001W        W91542  17.635  25.109  14.587
25002W        W91543  44.441   0.904   2.302
25003W        W91544  13.795  24.597  14.374
25004W        W91545  44.774  16.072   2.876
25005W        W91546  10.667  17.793   2.860
25006W        W91547  27.201  40.629   3.657
25007W        W91548  32.320  11.197  11.584
25008W        W91549  40.345  12.930  10.294
25009W        W91550  29.162  33.225   3.209
25010W        W91551  17.584  26.783   0.383
25011W        W91552  11.851   2.724  14.399
25012W        W91553  34.617  25.652  14.883
25013W        W91554  44.885  39.486  10.909
25014W        W91555  40.553   4.760  11.608
25015W        W91556   3.853   3.964   4.865
25016W        W91557  25.506  44.244  10.835
25017W        W91558  16.878   6.721   4.628
25018W        W91559  13.342  43.970  13.884
25019W        W91560  18.729  24.508  14.862
25020W        W91561   9.654   5.447  12.285
25021W        W91562  39.947  26.472   3.244
25022W        W91563  32.720   9.920   4.452
25023W        W91564  39.883  39.342   1.656
25024W        W91565  28.228  14.148  14.496
25025W        W91566  25.667   7.101   2.825
25026W        W91567  17.017   4.151   0.362
25027W        W91568  10.829   2.139  12.738
25028W        W91569  35.614  25.733   2.849
25029W        W91570  33.639  38.643  13.883
25030W        W91571  42.479  16.775  12.238
25031W        W91572  23.656   9.727   0.921
25032W        W91573  29.550  40.641  12.143
25033W        W91574  35.090  14.810   2.284
25034W        W91575  43.533   2.641  13.926
25035W        W91576   2.189   4.126  12.986
25036W        W91577  20.264  28.245   4.978
25037W        W91578   2.778  44.888  13.786
25038W        W91579  35.052  10.277   1.280
25039W        W91580  32.904  26.751  13.452
25040W        W91581  39.332  39.860   0.750
25041W        W91582  26.101   2.750  10.601
25042W        W91583  22.709  26.942   1.411
25043W        W91584  16.481  38.388  11.573
25044W        W91585  14.604   0.912  11.097
25045W        W91586   3.782  38.436   0.947
25046W        W91587  22.960   6.233  11.578
25047W        W91588  22.570  25.909   2.143
25048W        W91589  11.831  27.155   3.244
25049W        W91590  37.268  14.536   0.772
25050W        W91591   9.282  24.761   4.362
25051W        W91592   4.776  39.415  10.558
25052W        W91593  30.949  44.799   1.416
25053W        W91594  23.050  43.049   4.641
25054W        W91595  35.796  22.276   0.857
25055W        W91596  33.951  30.947  11.921
25056W        W91597   1.441  12.800  10.768
25057W        W91598  11.222  21.106  14.979
25058W        W91599  25.136  19.107   2.550
25059W        W91600  44.328   8.759  10.717
25060W        W91601  37.386  23.667   2.523
25061W        W91602  39.102   7.715  11.460
25062W        W91603  13.034  22.979   4.789
25063W        W91604  21.193  13.865  13.575
25064W        W91605  41.891  27.648  10.771
25065W        W91606  29.466  10.831   2.067
25066W        W91607   0.385   4.757   3.487
25067W        W91608  18.233   8.903  11.444
25068W        W91609  26.293   0.111  10.869
25069W        W91610  14.412  15.848  12.103
25070W        W91611  10.472  37.242  12.589
25071W        W91612  24.277  44.522   0.992
25072W        W91613   7.989  19.019  11.164
25073W        W91614  14.964  39.435  12.848
25074W        W91615  16.364  44.407  14.118
25075W        W91616  26.383  38.424   2.393
25076W        W91617  22.031  30.648   2.825
25077W        W91618  33.854  27.153  11.797
25078W        W91619  25.307  19.715  11.952
25079W        W91620  36.025  35.336  12.986
25080W        W91621  10.319  19.116   3.707
25081W        W91622  34.462  34.425   4.460
25082W        W91623  20.840  16.791   1.816
25083W        W91624  12.655   0.547  14.459
25084W        W91625  38.003   0.545  11.130
25085W        W91626  44.195  35.045   1.879
25086W        W91627  22.909   0.511  14.919
25087W        W91628  11.122   9.480  11.179
25088W        W91629  39.879  41.543  13.035
25089W        W91630  19.769  35.579  13.834
25090W        W91631  40.799   6.212   1.234
25091W        W91632   8.663   1.064  11.628
25092W        W91633  11.910  30.699   3.206
25093W        W91634  14.567   0.874  14.321
25094W        W91635  29.721  16.430  12.544
25095W        W91636  25.247   1.536   3.399
25096W        W91637  30.911  29.947   1.723
25097W        W91638  38.630  11.108   3.871
25098W        W91639  21.045  41.539  14.932
25099W        W91640  18.773  39.433   1.443
25100W        W91641  17.126  15.794   3.423
25101W        W91642  11.804  44.495   1.773
25102W        W91643  28.714  28.034  12.386
25103W        W91644  39.992  18.834  10.475
25104W        W91645   1.862  33.630  11.172
25105W        W91646  24.743  12.285  12.946
25106W        W91647  27.017  40.834  11.990
25107W        W91648  36.691  27.169  11.995
25108W        W91649   5.821  32.637  12.177
25109W        W91650  44.851  30.585  11.021
25110W        W91651   5.345   9.382  11.925
25111W        W91652   1.198  23.945   3.282
25112W        W91653  32.910  30.260  11.135
25113W        W91654  19.268  34.436  12.008
25114W        W91655  20.791   5.208   3.364
25115W        W91656  37.102  26.142  13.725
25116W        W91657  19.871  37.999  11.141
25117W        W91658  26.615  13.978  12.838
25118W        W91659  20.192  16.141  12.576
25119W        W91660  24.762  31.748   4.586
25120W        W91661  21.075   5.934  13.923
25121W        W91662   4.869   5.329  12.483
25122W        W91663  13.836  10.477   1.702
25123W        W91664  26.158  23.541  12.942
25124W        W91665  27.583  18.760  12.137
25125W        W91666   9.437   3.232   2.071
25126W        W91667   7.713  11.041   3.602
25127W        W91668  14.583  15.154  11.556
25128W        W91669  12.277  17.239   3.369
25129W        W91670   9.821   6.223   0.516
25130W        W91671  20.458  41.612  11.085
25131W        W91672  25.569  37.979  13.097
25132W        W91673  25.182  33.556  11.536
25133W        W91674  34.307  20.654   4.093
25134W        W91675   2.400  27.997  12.123
25135W        W91676  42.038  11.397   0.766
25136W        W91677  16.564   4.418   1.873
25137W        W91678  18.095  13.773   1.843
25138W        W91679   6.003  35.506   3.455
25139W        W91680   8.009  44.563   3.332
25140W        W91681   6.302  24.385  13.637
25141W        W91682  22.644   1.681   3.717
25142W        W91683   8.435  42.863   0.982
25143W        W91684  43.628  18.518   1.221
25144W        W91685  43.998   4.628  10.599
25145W        W91686  37.154  24.766  13.780
25146W        W91687  39.753  11.273   2.427
25147W        W91688  40.493  41.037  10.948
25148W        W91689  20.271  38.909  12.851
25149W        W91690   7.003  25.181   5.087
25150W        W91691  44.278  12.339  10.728
25151W        W91692   7.188   1.826   2.172
25152W        W91693   4.269  33.065  13.298
25153W        W91694  19.573  15.325  11.677
25154W        W91695  28.078  40.161  12.516
25155W        W91696  23.982  13.804  10.477
25156W        W91697  26.471  24.990  10.707
25157W        W91698   6.104  29.648  13.854
25158W        W91699  25.250  18.843  14.913
25159W        W91700   5.787  16.561   2.085
25160W        W91701   3.929  21.664  14.499
25161W        W91702   8.912   6.044   1.783
25162W        W91703   1.841  37.038  12.598
25163W        W91704   0.216  37.536  13.797
25164W        W91705  28.571  29.596   4.137
25165W        W91706  43.489  31.623   1.773
25166W        W91707  31.544  31.844   2.772
25167W        W91708  23.541  32.950  12.228
25168W        W91709  15.872  26.965  13.099
25169W        W91710  12.646   0.702   4.493
25170W        W91711  27.039  21.005  14.740
25171W        W91712  32.049   4.788   1.194
25172W        W91713  39.328   1.374  14.936
25173W        W91714  37.619   3.308   3.602
25174W        W91715  29.558  16.992   5.018
25175W        W91716  32.568  35.105   0.791
25176W        W91717   4.790  38.465   0.061
25177W        W91718  34.841  42.609   1.163
25178W        W91719  28.472  43.562   4.543
25179W        W91720  38.857   4.049   1.168
25180W        W91721  11.575  44.713  14.476
25181W        W91722   3.231  28.016   0.449
25182W        W91723  32.336  39.150  12.858
25183W        W91724   4.002  22.275  11.075
25184W        W91725   7.428  17.822   2.274
25185W        W91726  43.485  19.265  13.999
25186W        W91727  18.332   7.255  13.043
25187W        W91728  38.815  27.837   4.046
25188W        W91729  18.627  44.279  11.649
25189W        W91730  10.364  43.187  10.866
25190W        W91731  37.292  42.026  10.981
25191W        W91732  44.819  40.274   2.897
25192W        W91733  32.168  17.496   3.699
25193W        W91734  20.537  12.266  14.925
25194W        W91735   4.297  30.376  13.823
25195W        W91736  22.284  13.134  13.731
25196W        W91737   2.463  39.320   2.745
25197W        W91738  41.304   2.432   0.338
25198W        W91739   3.841  24.143   0.040
25199W        W91740  18.550  15.356  13.761
25200W        W91741   9.186  20.158   3.645
25201W        W91742   8.716  29.584   4.590
25202W        W91743  38.369  16.478   2.103
25203W        W91744  28.047  11.263  10.741
25204W        W91745   4.918   6.692   3.705
25205W        W91746  26.501   2.628   1.191
25206W        W91747  37.951  15.152   4.843
25207W        W91748  14.209  32.344   4.223
25208W        W91749  25.992  13.975  10.321
25209W        W91750   4.430  25.273   0.759
25210W        W91751  43.418  43.496   2.128
25211W        W91752  37.874  21.275  13.443
25212W        W91753  20.784  24.616  14.857
25213W        W91754  23.543  32.132  14.353
25214W        W91755  19.624   1.979   0.324
25215W        W91756  19.538  33.390   0.363
25216W        W91757  17.344  25.500   3.835
25217W        W91758  22.922  37.068  12.125
25218W        W91759  40.303   6.590   4.211
25219W        W91760  39.236  42.646   2.305
25220W        W91761  13.436  14.351  12.938
25221W        W91762  17.874  29.012  12.119
25222W        W91763   6.876  40.738  13.794
25223W        W91764  30.148  42.154   3.686
25224W        W91765  34.664  37.125  11.990
25225W        W91766  36.790  16.118   3.964
25226W        W91767  29.811  26.935  14.239
25227W        W91768  35.587   4.338  12.020
25228W        W91769  30.373  33.653  12.990
25229W        W91770  36.264  12.463   0.448
25230W        W91771   4.294  13.269   4.431
25231W        W91772  28.047  28.574   1.190
25232W        W91773  41.564   3.080  12.796
25233W        W91774  38.337   2.546   0.824
25234W        W91775  32.102  34.421  13.311
25235W        W91776  30.671  10.427   0.966
25236W        W91777  25.164  20.233  13.905
25237W        W91778  36.574  38.254  11.155
25238W        W91779   3.580   9.329  13.071
25239W        W91780  17.449  33.490  11.921
25240W        W91781  44.009  18.319  14.497
25241W        W91782  24.510   0.974   3.871
25242W        W91783  15.612  35.151   4.448
25243W        W91784  30.646  17.567  11.001
25244W        W91785   6.650   3.109   5.528
25245W        W91786  14.466   1.855   5.128
25246W        W91787   5.303  32.403   5.435
25247W        W91788  39.410  37.369  11.444
25248W        W91789  31.510   3.971   3.285
25249W        W91790  38.898  30.267   1.457
25250W        W91791  39.902   7.265   3.738
25251W        W91792  27.846   4.767  13.996
25252W        W91793  19.975  27.290   3.644
25253W        W91794  37.020  12.615  12.808
25254W        W91795  24.076  26.732   2.872
25255W        W91796  17.373  25.557  12.891
25256W        W91797  39.769  36.504  12.966
25257W        W91798  25.145  25.529   3.765
25258W        W91799  35.385  40.093   3.729
25259W        W91800  15.975   2.455  14.304
25260W        W91801  31.542   9.081  13.030
25261W        W91802  17.121   8.127   4.616
25262W        W91803  16.709  27.599   1.914
25263W        W91804  12.898  28.203  13.395
25264W        W91805  38.345   4.857  11.068
25265W        W91806  12.848  18.852   4.243
25266W        W91807   4.358  24.782  14.687
25267W        W91808  16.798  43.632  13.936
25268W        W91809   7.796  34.409  14.097
25269W        W91810  39.588  39.544  11.934
25270W        W91811  13.424  40.523   3.151
25271W        W91812   0.672  11.591  13.374
25272W        W91813  38.966  13.876  13.962
25273W        W91814   4.921  10.319  11.258
25274W        W91815  32.962  30.301   4.670
25275W        W91816  27.155  11.746  10.468
25276W        W91817  13.363   6.308  10.818
25277W        W91818  36.969  29.736  11.625
25278W        W91819  13.359   9.061   5.104
25279W        W91820  26.139  14.520  11.039
25280W        W91821  37.893  18.095  14.244
25281W        W91822  13.080   9.233  14.919
25282W        W91823   8.712  23.432   3.367
25283W        W91824  36.389  37.729   5.045
25284W        W91825  21.657  40.068   4.339
25285W        W91826  39.313  30.405  12.565
25286W        W91827  37.500  13.190  10.640
25287W        W91828  37.396  12.206   4.824
25288W        W91829   1.788   6.747  13.433
25289W        W91830  20.187   5.552  12.148
25290W        W91831  18.222  13.827  13.017
25291W        W91832  14.590  19.695  11.945
25292W        W91833   4.932  44.529   1.664
25293W        W91834  42.702  32.278  11.757
25294W        W91835   0.513  13.596   4.722
25295W        W91836  36.462  35.861  11.535
25296W        W91837  27.255  13.782   0.490
25297W        W91838  42.516  32.410  10.363
25298W        W91839  24.670  12.312   3.192
25299W        W91840  40.754   9.676   1.896
25300W        W91841  27.478   8.713   2.146
25301W        W91842  39.222  14.274  13.491
25302W        W91843   5.771  16.789  13.497
25303W        W91844   4.114  12.079   1.309
25304W        W91845   6.169   3.622   1.741
25305W        W91846  22.487   4.408  11.446
25306W        W91847  32.385  10.407   2.154
25307W        W91848  27.637  16.206   9.993
25308W        W91849   0.399  31.614   1.375
25309W        W91850   8.433  14.637  12.825
25310W        W91851  38.574  18.242   3.687
25311W        W91852  11.823  43.550  13.961
25312W        W91853  29.527  43.906  11.577
25313W        W91854  14.310   3.253  13.975
25314W        W91855  12.035  10.374   0.668
25315W        W91856  41.557  43.308   2.173
25316W        W91857  42.622  35.325   2.218
25317W        W91858  37.572  31.527   2.267
25318W        W91859  14.603  14.555   4.345
25319W        W91860   9.233   2.282   3.146
25320W        W91861  21.175  40.275   0.428
25321W        W91862   3.422  44.266   3.536
25322W        W91863   5.407  41.486  13.467
25323W        W91864   2.587   9.108  14.829
25324W        W91865  11.715  28.759   1.263
25325W        W91866  38.148  33.857  11.107
25326W        W91867  18.310  37.550  12.163
25327W        W91868  41.728  13.364  14.378
25328W        W91869  23.120   3.646   3.747
25329W        W91870  17.286   8.720   2.173
25330W        W91871  27.726  42.070   3.977
25331W        W91872  18.161  31.845   3.726
25332W        W91873  43.546  19.321  13.034
25333W        W91874  20.176  19.349   4.293
25334W        W91875   2.822   6.637   3.283
25335W        W91876  37.847  20.567  14.385
25336W        W91877  30.384  19.050  10.616
25337W        W91878  43.391  17.521   1.428
25338W        W91879  43.456   9.232   4.429
25339W        W91880  22.245  17.360   1.345
25340W        W91881  24.195  10.089   0.275
25341W        W91882  23.063   9.808   4.055
25342W        W91883  25.523  13.362   1.796
25343W        W91884  16.084  10.023  11.121
25344W        W91885   4.895   7.203   3.696
25345W        W91886  34.206  14.421   9.840
25346W        W91887  24.904  35.443   2.703
25347W        W91888  34.169   4.300  13.565
25348W        W91889  23.669  19.843   3.222
25349W        W91890  42.295  16.985  11.512
25350W        W91891   7.417  27.250   4.310
25351W        W91892   9.235  21.803  12.629
25352W        W91893  26.712  10.199  12.831
25353W        W91894   8.279  34.419  11.720
25354W        W91895  11.987  10.989   1.363
25355W        W91896   8.960   0.404   1.497
25356W        W91897   1.282  26.432  11.245
25357W        W91898  44.028   8.964  12.475
25358W        W91899   9.851  25.811   0.968
25359W        W91900  14.213  25.403   0.637
25360W        W91901  25.694  30.398  13.111
25361W        W91902  19.974  25.659   3.631
25362W        W91903  12.477  10.919  12.937
25363W        W91904  15.124  17.765  11.416
25364W        W91905  10.859  38.597   1.368
25365W        W91906  10.865  41.662  13.817
25366W        W91907  16.675  16.371  13.106
25367W        W91908   4.582  35.343   2.535
25368W        W91909  26.450  26.902  13.871
25369W        W91910  15.793  32.371   3.675
25370W        W91911  39.239  12.763  14.809
25371W        W91912   6.530   5.774   3.634
25372W        W91913  26.404  13.662  10.516
25373W        W91914  23.177  25.027   0.649
25374W        W91915  34.715  14.684  14.834
25375W        W91916  24.820  15.225  11.225
25376W        W91917  27.263  24.469   1.507
25377W        W91918   3.809  18.728   1.423
25378W        W91919  39.609  24.139  13.853
25379W        W91920  22.770  31.761   4.110
25380W        W91921  11.479  27.061  12.501
25381W        W91922   9.253   1.247   0.465
25382W        W91923  18.511  42.781  13.950
25383W        W91924  43.830   7.756   2.934
25384W        W91925  23.050  25.280  11.691
25385W        W91926  40.835  37.403  10.562
25386W        W91927  23.024   8.485  11.423
25387W        W91928  42.391   6.424   3.836
25388W        W91929  31.445  17.174   1.448
25389W        W91930  34.844  32.718  11.478
25390W        W91931  16.065  13.662   0.978
25391W        W91932  13.826  18.243   1.681
25392W        W91933  36.873  42.834   3.734
25393W        W91934  27.138  11.396   3.358
25394W        W91935  21.199  17.427  14.573
25395W        W91936  31.171  13.486  10.719
25396W        W91937  16.812   3.286  14.562
25397W        W91938  29.415   4.192   1.828
25398W        W91939  18.134  13.763  14.914
25399W        W91940  13.037  27.401  11.189
25400W        W91941  24.025  43.259   1.750
25401W        W91942  14.791  22.998   2.332
25402W        W91943  10.117  43.725   4.565
25403W        W91944  44.718  15.559  12.095
25404W        W91945  17.999  17.041  11.079
25405W        W91946  43.958  28.977   1.576
25406W        W91947  28.171  37.563   1.208
25407W        W91948   3.907  29.693   1.509
25408W        W91949   0.311   4.195  12.984
25409W        W91950  33.458  25.667   0.256
25410W        W91951  14.010   6.361   1.129
25411W        W91952  27.453  36.416   3.323
25412W        W91953   1.144  33.225   4.513
25413W        W91954  18.559  14.082  11.599
25414W        W91955  40.377  33.846  12.603
25415W        W91956  14.491  19.248  13.516
25416W        W91957   2.452  18.012  14.348
25417W        W91958  16.658  13.118  12.476
25418W        W91959  10.028   5.769  14.026
25419W        W91960  28.094  15.452   9.849
25420W        W91961  37.585  28.215   3.308
25421W        W91962  41.781  37.111  11.328
25422W        W91963   6.347   9.925  14.771
25423W        W91964  16.263  36.449   4.579
25424W        W91965  33.054  39.529  14.158
25425W        W91966  40.049  40.449  11.147
25426W        W91967  40.549  28.680   4.334
25427W        W91968  44.917   6.857   4.782
25428W        W91969  16.480  27.120  11.705
25429W        W91970  16.143  38.508  13.765
25430W        W91971  32.613  22.249   2.243
25431W        W91972  35.187   2.788   2.167
25432W        W91973  42.531   7.208  13.973
25433W        W91974  24.570  23.540  11.928
25434W        W91975  25.753  10.875  11.608
25435W        W91976  16.139  35.909   2.913
25436W        W91977   8.732  13.807  13.325
25437W        W91978  33.930  37.277   1.539
25438W        W91979  14.905  36.244   1.863
25439W        W91980  11.219   2.913  14.346
25440W        W91981  11.120   2.658   0.657
25441W        W91982  23.958  34.550   2.741
25442W        W91983   6.448  16.361   0.258
25443W        W91984  28.112  27.133   0.483
25444W        W91985  34.499  11.314   5.018
25445W        W91986   3.118  10.496  10.909
25446W        W91987  26.208   8.700   2.395
25447W        W91988  16.198   5.584  12.014
25448W        W91989  34.616  37.354  14.936
25449W        W91990  15.353  34.903  13.057
25450W        W91991  37.608  22.280   3.195
25451W        W91992  20.626  28.370   4.168
25452W        W91993  22.976   3.004  12.968
25453W        W91994  39.286  43.103   3.694
25454W        W91995   4.410  36.660   0.896
25455W        W91996  38.683  18.765   4.609
25456W        W91997  11.968   3.793   2.176
25457W        W91998  23.954  37.048   5.037
25458W        W91999  32.533   2.118   3.209
25459W        W92000  39.067   0.119   2.275
25460W        W92001  39.680   7.296  10.943
25461W        W92002  30.494  18.809  11.264
25462W        W92003  38.073  19.612  12.834
25463W        W92004  41.270  41.848   4.353
25464W        W92005   2.402   1.788   0.259
25465W        W92006  33.149  26.623   2.002
25466W        W92007  14.192  18.131   3.580
25467W        W92008  10.395  12.388  11.077
25468W        W92009  18.062  40.970  12.473
25469W        W92010  39.498  36.429  14.302
25470W        W92011  39.761  38.003  13.343
25471W        W92012  16.466  35.032   3.318
25472W        W92013  20.601   5.343   4.974
25473W        W92014  12.382   9.929   2.256
25474W        W92015  12.096  31.953  12.219
25475W        W92016  14.091  24.097  12.006
25476W        W92017  27.636  28.741   4.402
25477W        W92018  36.698  15.267   0.573
25478W        W92019   2.279  42.009   0.879
25479W        W92020  30.571  35.981   0.885
25480W        W92021  13.807  17.475   3.314
25481W        W92022  36.882  34.254   0.723
25482W        W92023  12.316  14.625  14.859
25483W        W92024  32.090  37.999   0.045
25484W        W92025  35.301   6.296   5.118
25485W        W92026  31.778  40.397  11.571
25486W        W92027  30.143  37.579  10.980
25487W        W92028  35.202   7.402  13.293
25488W        W92029  44.717  15.556   2.190
25489W        W92030  25.469  23.315   2.119
25490W        W92031  34.662   3.712   2.369
25491W        W92032  44.996  31.949   1.447
25492W        W92033  25.914  44.736   2.712
25493W        W92034  40.249  44.838  12.975
25494W        W92035   6.836   7.991   1.482
25495W        W92036  24.188  38.379   3.383
25496W        W92037  11.316  33.032  12.528
25497W        W92038  39.747  12.877  14.908
25498W        W92039  19.786  34.496   2.736
25499W        W92040  39.102  24.042   3.475
25500W        W92041  15.709  14.635  13.779
25501W        W92042  43.193  24.974  11.018
25502W        W92043  42.948   2.499   1.787
25503W        W92044  27.041   2.825  14.466
25504W        W92045  37.803  24.223   3.824
25505W        W92046  23.681   2.006   0.452
25506W        W92047  36.624  43.883  10.838
25507W        W92048  34.528  28.855  12.128
25508W        W92049  15.569  24.364  11.511
25509W        W92050  15.504  33.423  14.041
25510W        W92051  36.582  20.532  11.517
25511W        W92052  13.894   0.396  13.271
25512W        W92053  15.780  38.308  12.427
25513W        W92054  35.472   3.228   3.525
25514W        W92055  10.838  19.297   3.748
25515W        W92056  41.790  19.195  14.268
25516W        W92057   6.942  26.034   5.434
25517W        W92058  41.978   6.675   3.618
25518W        W92059  31.403  19.072   0.403
25519W        W92060  24.228  34.405  13.406
25520W        W92061  29.605   5.732   0.863
25521W        W92062  31.934  14.287  13.206
25522W        W92063  41.450  31.225  12.957
25523W        W92064   0.280  32.154   2.234
25524W        W92065  12.376  37.397   2.696
25525W        W92066  40.075  40.810  14.922
25526W        W92067  30.409   4.573   1.308
25527W        W92068   7.903  37.837   5.375
25528W        W92069   9.622  14.592   1.206
25529W        W92070  38.551  25.003  13.421
25530W        W92071  41.033   5.582   4.460
25531W        W92072  10.254  43.518  11.304
25532W        W92073  27.643  23.756  14.963
25533W        W92074  17.506  36.871  12.614
25534W        W92075  38.437  24.157   0.193
25535W        W92076  32.536  17.027   2.854
25536W        W92077  26.292   3.731   2.183
25537W        W92078   1.282  41.942  12.967
25538W        W92079  24.931  16.345   2.819
25539W        W92080  41.807  33.863  13.441
25540W        W92081  31.507   0.473   1.861
25541W        W92082  17.759  25.537  13.269
25542W        W92083   1.098  22.717   0.285
25543W        W92084  26.520   8.866   1.154
25544W        W92085  14.756  33.093  14.431
25545W        W92086  11.786  34.347  11.999
25546W        W92087  13.122  35.407  13.278
25547W        W92088  42.302  40.359  13.398
25548W        W92089  19.313  12.579  10.908
25549W        W92090  38.761   5.873   0.244
25550W        W92091  41.244  20.744  11.645
25551W        W92092  23.555   2.656   3.208
25552W        W92093  10.158  21.529  14.460
25553W        W92094   9.552  31.978  14.995
25554W        W92095  41.957  10.155   0.370
25555W        W92096  25.450   6.767  10.552
25556W        W92097  34.053  21.918   1.342
25557W        W92098  20.509  20.254  11.101
25558W        W92099  38.960  34.593  13.117
25559W        W92100   8.587  10.622  12.923
25560W        W92101  36.973  24.008   0.377
25561W        W92102  19.007  20.014  11.502
25562W        W92103   1.644  10.401  12.021
25563W        W92104  11.695   1.304  10.764
25564W        W92105   7.209  36.969  11.207
25565W        W92106  18.712  39.090  11.671
25566W        W92107  24.276   7.437   1.732
25567W        W92108  24.653  20.513  11.099
25568W        W92109  12.336  14.097   2.630
25569W        W92110   9.368  35.204   1.735
25570W        W92111  42.401   7.717  11.181
25571W        W92112  39.803  30.954  14.391
25572W        W92113   7.701  27.144   2.304
25573W        W92114  42.289   6.707   4.685
25574W        W92115  40.393  32.014  13.910
25575W        W92116  40.487   1.254  10.733
25576W        W92117  12.761  25.326  12.936
25577W        W92118  30.159  36.337   1.103
25578W        W92119   1.341   9.648   0.064
25579W        W92120  12.041  26.085  14.739
25580W        W92121  19.612  21.082  14.075
25581W        W92122  19.838  39.918  12.195
25582W        W92123  20.153  23.460  11.909
25583W        W92124  40.428  39.522  12.142
25584W        W92125  31.964   4.235   0.344
25585W        W92126  27.226  23.105   0.322
25586W        W92127  17.130  24.719   1.314
25587W        W92128   6.375  37.227  13.546
25588W        W92129  17.545  34.107  13.360
25589W        W92130  17.143  32.073  12.470
25590W        W92131  27.502  19.082   3.086
25591W        W92132  28.436  42.965  13.491
25592W        W92133  37.430  41.528  11.021
25593W        W92134  39.529  10.972  14.350
25594W        W92135  22.330  31.677   0.056
25595W        W92136  12.432  33.359   4.436
25596W        W92137  11.337  31.471  11.384
25597W        W92138  32.592  23.243  14.496
25598W        W92139  16.382  19.765  14.886
25599W        W92140   6.895   1.026  12.971
25600W        W92141  40.872   0.241   0.853
25601W        W92142  34.567  20.616  12.586
25602W        W92143  34.847  26.446  14.394
25603W        W92144  13.019  16.607   1.179
25604W        W92145  11.791  33.440  10.144
25605W        W92146  12.414  12.848  10.692
25606W        W92147  31.954  13.664  13.882
25607W        W92148  14.760  25.293  10.355
25608W        W92149  41.044  33.386   2.274
25609W        W92150  36.339  31.649   1.752
25610W        W92151  13.879   8.669  12.404
25611W        W92152  36.601   2.742   0.015
25612W        W92153  39.498  41.333  14.256
25613W        W92154  17.343  19.723  13.639
25614W        W92155  10.844   9.505  11.632
25615W        W92156  19.490  44.717   0.891
25616W        W92157  17.169  40.785   2.335
25617W        W92158  12.880  12.674   3.696
25618W        W92159   6.469  14.678   2.854
25619W        W92160   6.435  26.620  10.686
25620W        W92161  33.858   0.744  10.205
25621W        W92162  34.913  26.599   0.442
25622W        W92163  16.868  18.267  14.027
25623W        W92164  39.362  36.644   0.849
25624W        W92165  28.692   7.884   4.634
25625W        W92166  27.830   5.030   4.316
25626W        W92167  28.841  18.386  12.948
25627W        W92168  43.010  23.656  13.575
25628W        W92169  18.110  41.320  13.012
25629W        W92170  10.065  36.183  11.971
25630W        W92171   2.514  14.699  13.387
25631W        W92172  22.170  24.933  13.174
25632W        W92173   7.756  25.027  10.111
25633W        W92174  14.178  10.179  14.660
25634W        W92175   6.121  30.945   4.564
25635W        W92176   1.466  33.406  13.438
25636W        W92177  43.764  15.693   0.217
25637W        W92178  21.550  15.162  11.897
25638W        W92179  40.722  22.245  14.703
25639W        W92180  11.762  22.656   1.353
25640W        W92181  14.663   3.262  14.350
25641W        W92182  37.027   9.141   3.746
25642W        W92183  19.020  42.575  14.253
25643W        W92184  39.039  44.280  13.596
25644W        W92185  20.924   1.123   5.205
25645W        W92186  36.601  34.065   1.736
25646W        W92187  14.584  22.777   0.384
25647W        W92188   1.031  28.573   0.758
25648W        W92189  14.143  28.182  11.631
25649W        W92190   4.256  16.101   0.856
25650W        W92191  41.438  17.002  13.462
25651W        W92192   5.179  10.131   3.624
25652W        W92193  35.841  18.422  11.106
25653W        W92194   9.304   9.214  13.797
25654W        W92195   6.699  23.237   2.229
25655W        W92196   4.776  14.775   3.314
25656W        W92197  24.461  14.771   1.349
25657W        W92198  41.020  38.422  11.193
25658W        W92199  27.015   9.137   3.808
25659W        W92200  26.480   5.033   3.226
25660W        W92201  35.377  38.316  11.092
25661W        W92202  28.994  23.780   2.850
25662W        W92203  15.696  44.771  12.445
25663W        W92204  33.887   5.895  10.949
25664W        W92205  41.001  19.667  11.171
25665W        W92206  43.850   7.771   2.426
25666W        W92207  18.210  30.199  12.914
25667W        W92208  43.739  16.745  11.509
25668W        W92209  17.173  28.548   4.269
25669W        W92210  43.348  12.435   4.670
25670W        W92211  12.908  11.282  12.726
25671W        W92212  23.738  41.603   3.384
25672W        W92213  32.211  28.596  14.421
25673W        W92214   6.318  38.392  13.980
25674W        W92215  14.330  41.538   2.364
25675W        W92216  32.020  39.470  14.917
25676W        W92217  19.603  10.185   0.976
25677W        W92218  22.200  42.280   2.295
25678W        W92219  43.859  15.560  12.386
25679W        W92220  33.955  30.858  10.843
25680W        W92221  21.264  12.762   1.272
25681W        W92222   1.045   4.762   0.858
25682W        W92223  11.424  35.965  14.533
25683W        W92224  38.195  35.832   2.144
25684W        W92225   1.318  23.720  10.543
25685W        W92226  44.231  43.177  14.775
25686W        W92227  37.007  13.874   1.321
25687W        W92228  26.114  25.235   4.916
25688W        W92229  33.862  33.229  11.624
25689W        W92230   5.210  34.475   3.751
25690W        W92231  21.357  23.468   1.359
25691W        W92232  22.987   8.795   2.717
25692W        W92233  14.055   0.909   4.058
25693W        W92234   2.773  41.864  12.809
25694W        W92235  20.903  30.063   1.635
25695W        W92236   6.117  38.500   5.380
25696W        W92237  13.862  20.616  10.783
25697W        W92238  16.165   2.414  11.739
25698W        W92239  17.026   3.227  12.383
25699W        W92240  19.240   4.105  13.539
25700W        W92241   7.301  27.482  11.638
25701W        W92242  21.729  25.087   2.455
25702W        W92243   0.813   6.893  12.416
25703W        W92244  33.382  18.796  13.656
25704W        W92245  24.981  35.171  14.993
25705W        W92246   3.971  42.693  14.389
25706W        W92247  38.910  31.659  13.525
25707W        W92248   8.178  23.975   2.891
25708W        W92249  36.893   4.669   1.301
25709W        W92250  12.839  40.811   0.284
25710W        W92251  24.814   9.235  13.905
25711W        W92252   1.950  34.156   2.631
25712W        W92253   8.474  27.013   2.653
25713W        W92254  24.030   4.114  10.768
25714W        W92255  39.576  38.399  13.050
25715W        W92256   9.250  32.630   4.771
25716W        W92257  23.169  28.249   3.752
25717W        W92258  21.613  40.886  12.089
25718W        W92259  11.770  24.992  14.106
25719W        W92260  19.649  30.501   3.577
25720W        W92261  39.869  16.965   0.049
25721W        W92262   3.598  21.109   0.942
25722W        W92263  43.349  17.334  13.944
25723W        W92264  29.087  26.088  11.460
25724W        W92265   2.300  42.585  11.065
25725W        W92266   4.882   3.459   1.162
25726W        W92267   8.851   7.104   4.160
25727W        W92268  11.608  31.901   3.838
25728W        W92269  33.857   9.820  11.534
25729W        W92270  35.409   6.274   0.693
25730W        W92271  40.375   7.712   3.913
25731W        W92272  36.536  28.376   0.449
25732W        W92273   9.088  27.486   0.879
25733W        W92274  31.905  40.970  13.393
25734W        W92275  17.463  31.737   3.290
25735W        W92276  20.498   9.779   2.815
25736W        W92277  34.113  19.119   2.867
25737W        W92278  33.896  16.305   2.677
25738W        W92279   2.036  41.162   2.825
25739W        W92280  30.915  23.057  12.914
25740W        W92281   6.864  13.681   3.230
25741W        W92282  35.575  39.721   3.174
25742W        W92283   6.749   1.488  13.870
25743W        W92284   8.679  17.254  14.076
25744W        W92285  26.601  20.080   3.581
25745W        W92286   7.466  21.516  12.414
25746W        W92287  23.404  20.460   4.041
25747W        W92288  26.775  12.942   1.951
25748W        W92289  11.244  21.266   3.657
25749W        W92290  17.504  14.434   1.890
25750W        W92291  17.053  22.024   1.761
25751W        W92292  23.588   2.331  13.767
25752W        W92293  23.714  23.270  13.968
25753W        W92294  43.918  41.424   1.284
25754W        W92295  38.666  24.405  12.437
25755W        W92296  25.746  29.530   3.574
25756W        W92297  13.814  43.538  14.345
25757W        W92298  31.319  40.613   2.160
25758W        W92299   0.491  12.196   4.746
25759W        W92300   9.765  38.510  12.540
25760W        W92301  26.528  13.843   4.164
25761W        W92302  16.148  16.814   1.652
25762W        W92303  16.528  10.360  10.126
25763W        W92304   9.192  38.346  14.152
25764W        W92305  18.574   0.385   2.817
25765W        W92306  37.158   9.595  12.587
25766W        W92307   6.202  17.666   1.845
25767W        W92308  28.986  37.029  14.029
25768W        W92309  37.583   0.445  14.555
25769W        W92310  21.383  39.987  11.531
25770W        W92311   6.319  20.143   4.693
25771W        W92312   6.750  36.902  10.730
25772W        W92313  24.127  16.084  13.336
25773W        W92314  15.822   3.370  12.949
25774W        W92315  20.114  16.449   4.996
25775W        W92316   2.888   4.440   1.235
25776W        W92317  21.996  33.983   4.165
25777W        W92318   1.717  22.993   5.061
25778W        W92319  42.417   1.363   3.916
25779W        W92320  37.329  33.966  11.604
25780W        W92321   9.655  19.324  10.488
25781W        W92322   0.323   2.437   2.130
25782W        W92323   2.827  25.855  13.791
25783W        W92324  24.162   6.173  10.344
25784W        W92325   4.529  14.197  14.748
25785W        W92326  40.267  10.322  14.706
25786W        W92327  13.740   7.159   1.652
25787W        W92328  31.542   8.852  12.544
25788W        W92329  36.221   7.657   0.951
25789W        W92330  35.562   3.986  11.055
25790W        W92331  30.397   3.080  11.920
25791W        W92332  35.787  18.526   3.739
25792W        W92333  24.296  34.934   1.968
25793W        W92334  22.708  25.297  12.106
25794W        W92335  19.523  42.331   1.392
25795W        W92336  44.341   1.787  14.335
25796W        W92337  27.213  24.550  13.543
25797W        W92338   4.729  21.248   1.311
25798W        W92339  11.290  15.216   3.829
25799W        W92340  44.963  31.599  13.447
25800W        W92341   8.850   9.327   4.558
25801W        W92342  38.401  34.865  13.961
25802W        W92343  42.854  33.459   0.365
25803W        W92344  24.783  15.195   3.882
25804W        W92345   2.326  12.387  14.204
25805W        W92346  21.292  27.607   9.828
25806W        W92347   3.183  20.126  11.664
25807W        W92348  32.332   8.225  12.716
25808W        W92349  22.576  25.418   3.936
25809W        W92350  25.021  19.557  10.712
25810W        W92351   8.089   1.775  10.731
25811W        W92352  38.056   5.282  12.065
25812W        W92353  12.909  30.900   2.396
25813W        W92354  24.477  36.978   0.204
25814W        W92355   5.770  13.790   1.938
25815W        W92356  14.639   4.132   2.443
25816W        W92357   8.360  29.999   4.581
25817W        W92358   9.406  37.233   0.231
25818W        W92359  30.270   6.319  11.355
25819W        W92360  43.531  22.060   3.697
25820W        W92361  38.461  41.445   3.178
25821W        W92362  29.473  14.073  12.864
25822W        W92363   6.967  40.780   3.921
25823W        W92364  43.484  22.550   0.847
25824W        W92365  12.589  32.441   4.158
25825W        W92366  37.789  38.637   3.183
25826W        W92367  35.841  36.372   0.391
25827W        W92368  19.215  12.407  13.926
25828W        W92369  23.049  36.936   4.509
25829W        W92370  26.594  19.448  13.378
25830W        W92371  16.858  36.791   3.485
25831W        W92372  19.764  27.123  13.992
25832W        W92373   3.717  10.278   1.232
25833W        W92374   6.798   2.276  14.346
25834W        W92375  24.702   5.578   2.293
25835W        W92376  32.590  19.541  12.496
25836W        W92377   1.537   5.663   0.885
25837W        W92378  32.391   2.447   3.592
25838W        W92379  33.141  24.125  12.483
25839W        W92380  43.726   0.604  14.763
25840W        W92381  35.333  18.722   3.624
25841W        W92382  43.436   4.064   2.446
25842W        W92383  42.393  30.931   1.656
25843W        W92384  44.838  10.668  10.858
25844W        W92385  34.128  42.573   1.775
25845W        W92386  19.687   4.158   2.929
25846W        W92387  44.802  19.749   0.506
25847W        W92388   1.196  14.495  13.004
25848W        W92389  29.967  29.877   4.354
25849W        W92390  17.389   8.144  11.988
25850W        W92391  34.860  26.490   5.032
25851W        W92392   3.686  11.073  13.174
25852W        W92393  21.175  22.937  13.356
25853W        W92394  32.673  21.971  11.118
25854W        W92395  23.899  24.488   1.323
25855W        W92396  34.947  40.548   2.565
25856W        W92397  15.802  18.545  13.887
25857W        W92398  22.632  19.495  11.523
25858W        W92399  41.529  10.609   2.290
25859W        W92400  36.777  33.679  10.866
25860W        W92401  24.477  42.162  12.448
25861W        W92402  26.542  43.802   0.443
25862W        W92403   5.683  11.775  13.976
25863W        W92404  15.819  14.090   2.137
25864W        W92405   1.967   8.487   2.658
25865W        W92406   3.218  44.794   0.901
25866W        W92407  14.758  19.527   1.445
25867W        W92408  18.749  12.387  13.002
25868W        W92409  12.567  28.050  12.067
25869W        W92410  42.993   1.829   3.280
25870W        W92411  31.913  23.086  11.912
25871W        W92412  32.827  36.379   1.994
25872W        W92413   0.885  44.496  14.501
25873W        W92414  23.078  24.548   0.517
25874W        W92415  32.669  33.928   1.877
25875W        W92416   4.791  14.628   2.256
25876W        W92417  37.304  38.445   2.951
25877W        W92418  21.503   3.916  14.918
25878W        W92419  19.139  28.451  11.183
25879W        W92420  13.813  12.714   3.156
25880W        W92421  22.213  13.273   9.766
25881W        W92422  28.199   4.156   4.192
25882W        W92423  40.473  15.177  13.361
25883W        W92424  37.517  34.947  10.527
25884W        W92425   5.389   0.194   1.142
25885W        W92426  40.113  44.803  14.361
25886W        W92427   7.039  36.539  11.465
25887W        W92428  14.832  32.667   4.460
25888W        W92429   3.933  25.556   0.899
25889W        W92430  15.890   1.488  13.148
25890W        W92431   7.780  22.578   4.601
25891W        W92432   2.354   5.173  13.026
25892W        W92433  32.435  21.029  11.440
25893W        W92434  33.490  39.417  13.799
25894W        W92435   7.449  42.860   0.004
25895W        W92436   2.337  36.455  14.916
25896W        W92437   6.876   5.297  13.386
25897W        W92438  43.056  41.239   1.755
25898W        W92439   2.749  14.550  13.952
25899W        W92440  42.982   7.645   0.064
25900W        W92441  27.048  43.638  11.171
25901W        W92442  35.050  36.029   1.474
25902W        W92443   5.109   7.453   1.466
25903W        W92444  39.889  26.002   4.610
25904W        W92445  40.091  34.935  14.903
25905W        W92446  22.751  16.644   1.232
25906W        W92447  13.884  17.864  14.754
25907W        W92448  25.626  12.170   0.797
25908W        W92449  34.894  33.065   3.029
25909W        W92450  19.244  39.768  11.164
25910W        W92451   8.574  41.153  13.929
25911W        W92452  24.808  18.648  13.339
25912W        W92453   7.730  19.277   3.185
25913W        W92454   7.726  37.817   0.059
25914W        W92455   9.895  14.283   1.509
25915W        W92456  20.615  21.963  10.543
25916W        W92457  32.665   0.408  13.098
25917W        W92458   0.314  20.140  12.878
25918W        W92459   3.843  30.194   1.345
25919W        W92460   0.523  18.721  13.140
25920W        W92461  14.363  18.319  11.923
25921W        W92462  30.983   9.280  10.446
25922W        W92463  37.724  12.925  14.869
25923W        W92464  24.561  27.175  10.760
25924W        W92465  12.060  30.835  12.385
25925W        W92466  12.691   7.390  12.411
25926W        W92467   1.435  21.915   3.132
25927W        W92468   3.394  41.241  11.099
25928W        W92469   6.385  44.200   3.665
25929W        W92470   5.450  25.608   0.446
25930W        W92471   7.018  29.511  10.653
25931W        W92472  22.173  16.858  12.090
25932W        W92473  40.797  23.724   4.637
25933W        W92474  19.291  42.566  10.994
25934W        W92475  34.585  29.070   1.710
25935W        W92476  28.883   4.693  11.728
25936W        W92477  21.483  31.586   3.806
25937W        W92478   1.458  33.889   0.679
25938W        W92479  43.878   9.631  10.669
25939W        W92480  13.220  36.504   3.659
25940W        W92481  14.559   4.848  11.713
25941W        W92482  30.394  11.736  14.711
25942W        W92483   5.327  39.876   1.801
25943W        W92484  40.241  15.786  11.507
25944W        W92485   1.860  11.044  13.916
25945W        W92486  23.994  10.411   4.062
25946W        W92487  25.716  41.848  13.858
25947W        W92488  31.388  36.435  13.909
25948W        W92489   5.773  33.546   1.519
25949W        W92490  12.632   0.253   0.933
25950W        W92491  21.633  17.800  12.798
25951W        W92492   9.429   3.765   2.818
25952W        W92493   6.225  16.723  11.982
25953W        W92494  32.467  18.691  14.076
25954W        W92495  34.908   8.863   4.568
25955W        W92496  19.317  17.591  12.670
25956W        W92497   6.902  39.981   1.470
25957W        W92498   5.845  42.335  10.964
25958W        W92499  18.293  18.034  12.080
25959W        W92500  17.531  30.935   2.885
25960W        W92501  18.852  43.396  12.056
25961W        W92502   5.167  14.203   0.965
25962W        W92503  29.854   1.298   3.825
25963W        W92504  44.726   2.202   3.357
25964W        W92505  21.275  43.752   3.020
25965W        W92506   6.174  36.635   0.843
25966W        W92507  28.087  14.439   4.597
25967W        W92508  19.313  29.234  11.855
25968W        W92509  31.381  31.662   4.167
25969W        W92510  26.592   6.437   4.527
25970W        W92511  16.557   8.652   4.641
25971W        W92512  20.054  15.951  13.047
25972W        W92513  42.252  40.487   2.280
25973W        W92514  32.356  10.054  10.237
25974W        W92515   6.163  37.567   3.603
25975W        W92516  41.196  31.171   4.278
25976W        W92517   3.753  23.017  10.494
25977W        W92518  33.176   6.519   4.212
25978W        W92519  26.990   6.913  13.032
25979W        W92520  37.472  36.904   0.624
25980W        W92521  36.003   5.935  13.715
25981W        W92522  15.371   0.395   2.278
25982W        W92523  44.326   2.893  11.915
25983W        W92524  20.118   0.563   4.658
25984W        W92525  43.595   2.823   0.613
25985W        W92526  18.271  40.501   1.954
25986W        W92527  19.274  18.989   2.309
25987W        W92528  36.453  30.955   0.411
25988W        W92529  37.860  37.915  14.237
25989W        W92530  20.647  41.725  12.721
25990W        W92531  38.785  38.746   4.189
25991W        W92532   8.866  37.817   2.647
25992W        W92533  44.388  40.523   0.722
25993W        W92534  34.221   5.664   1.818
25994W        W92535  35.290  17.239   2.465
25995W        W92536  34.443  23.507  12.046
25996W        W92537  29.125  25.248   0.943
25997W        W92538  18.115  28.419  13.550
25998W        W92539  15.679  17.476  13.826
25999W        W92540  21.301  40.571  12.356
26000W        W92541   7.770  26.977  13.316
26001W        W92542  21.591   7.920  13.793
26002W        W92543  39.704   9.618  14.557
26003W        W92544  24.147  28.273   0.151
26004W        W92545   5.846  28.974  13.529
26005W        W92546  10.655   9.524  13.084
26006W        W92547  34.862  24.630  14.232
26007W        W92548   5.785  32.042   2.877
26008W        W92549  42.385   8.479   4.739
26009W        W92550  17.742  31.443  14.273
26010W        W92551   9.636  22.060   1.309
26011W        W92552  33.961   1.256   3.637
26012W        W92553   6.594  25.176   9.761
26013W        W92554  16.799  41.257  13.297
26014W        W92555  34.890  31.947  14.644
26015W        W92556  28.113  15.287   4.135
26016W        W92557  42.456  35.538   4.292
26017W        W92558  25.577  39.048  13.120
26018W        W92559  11.232  39.335   1.258
26019W        W92560  14.085  12.555  14.084
26020W        W92561  25.905  43.958  13.044
26021W        W92562  29.817  29.996   3.841
26022W        W92563   1.901  41.982   4.542
26023W        W92564  26.557  23.134   1.335
26024W        W92565  12.665  37.509   4.800
26025W        W92566  11.577  31.398   3.789
26026W        W92567   1.764  12.661   4.429
26027W        W92568   2.029  24.026  14.505
26028W        W92569  40.979   0.703   2.173
26029W        W92570   7.113  25.410  13.509
26030W        W92571  30.498   0.873  11.872
26031W        W92572  42.155   4.310  11.901
26032W        W92573  39.239   2.749  13.970
26033W        W92574  16.166  34.020   4.643
26034W        W92575  13.340  42.959   3.020
26035W        W92576   3.346  11.304   2.078
26036W        W92577  25.533   6.123   2.860
26037W        W92578  14.819  39.463  13.365
26038W        W92579  30.580  22.507  10.664
26039W        W92580   3.140  18.645  12.636
26040W        W92581  11.323  34.432  13.987
26041W        W92582  28.604  27.915  13.783
26042W        W92583  20.628  43.803   0.828
26043W        W92584  27.163  20.669   2.746
26044W        W92585  39.555  21.672  14.467
26045W        W92586   9.136  17.636  12.406
26046W        W92587  24.575   4.572   2.198
26047W        W92588  31.955  21.425  12.508
26048W        W92589  43.504  39.286   3.891
26049W        W92590  34.657   9.245  11.894
26050W        W92591  16.708  36.179  14.233
26051W        W92592   5.340  37.597  12.947
26052W        W92593   6.741  18.320  14.453
26053W        W92594  13.739   9.266   0.789
26054W        W92595  29.669  21.235   2.273
26055W        W92596  15.683   1.851  11.600
26056W        W92597  33.486  25.742  11.110
26057W        W92598  40.257  24.644  14.785
26058W        W92599  30.801  13.140   2.897
26059W        W92600   3.772   7.293   3.460
26060W        W92601  36.087  37.986  11.973
26061W        W92602  12.675   9.275  14.559
26062W        W92603  17.104  31.531  14.982
26063W        W92604  16.545   9.217  14.297
26064W        W92605  16.128   8.609  11.105
26065W        W92606  14.919  42.328  12.598
26066W        W92607  23.994  38.950  10.525
26067W        W92608   9.469  20.252  13.530
26068W        W92609  41.042  14.776  12.167
26069W        W92610  29.361  42.830   1.205
26070W        W92611  30.391  35.416  13.868
26071W        W92612   7.848  23.696   1.348
26072W        W92613  17.021  34.917  14.967
26073W        W92614  19.840  38.389   3.303
26074W        W92615  37.536  35.390   0.213
26075W        W92616   4.689  41.203   4.297
26076W        W92617   6.990  24.249  11.626
26077W        W92618  22.560   6.742   1.219
26078W        W92619  29.774  20.546  11.088
26079W        W92620   4.249  38.319  12.553
26080W        W92621  28.433  37.917   5.010
26081W        W92622   7.087   5.121  14.439
26082W        W92623   8.274  33.999   4.018
26083W        W92624   8.894  43.189   2.098
26084W        W92625  26.220   0.922   4.899
26085W        W92626   5.392  36.175  13.976
26086W        W92627  37.033  23.246  13.968
26087W        W92628  30.196  38.284   3.706
26088W        W92629  35.442  30.939   3.838
26089W        W92630   5.413  34.584   0.763
26090W        W92631   1.891  15.782  13.950
26091W        W92632  40.359  33.422  10.899
26092W        W92633  24.740  42.090   0.751
26093W        W92634   8.935  10.017  10.676
26094W        W92635  11.706  13.638  11.941
26095W        W92636  16.737  33.168   3.149
26096W        W92637  38.574  28.724  11.132
26097W        W92638   2.934   1.218   1.788
26098W        W92639  25.074  26.931  13.261
26099W        W92640  19.769   6.136  12.348
26100W        W92641  37.023  37.060   2.137
26101W        W92642  22.770  17.520  11.687
26102W        W92643  19.741   8.862  13.531
26103W        W92644  32.448  33.793  12.576
26104W        W92645  31.053  19.139  12.542
26105W        W92646   8.946  24.692  12.439
26106W        W92647  29.531  16.022   4.644
26107W        W92648  16.544  11.824   0.893
26108W        W92649  22.504  19.666  10.831
26109W        W92650  23.537   0.671  11.158
26110W        W92651  44.286  40.279  11.366
26111W        W92652  33.379  16.555  11.635
26112W        W92653  35.620  25.141   2.787
26113W        W92654  26.530  27.724   2.834
26114W        W92655  32.398  20.060  10.744
26115W        W92656  25.874   4.199  10.677
26116W        W92657  10.167  22.615   2.651
26117W        W92658  25.946  31.917   0.564
26118W        W92659   2.937  25.564  12.327
26119W        W92660  37.808  38.971  14.969
26120W        W92661  44.287   3.358  14.835
26121W        W92662  13.671  15.180   4.378
26122W        W92663  42.462   0.227  12.179
26123W        W92664  10.696  41.428  12.443
26124W        W92665  11.258  18.640  14.073
26125W        W92666  17.075  15.781   1.448
26126W        W92667  26.211  22.201  11.637
26127W        W92668  38.085   5.286  14.417
26128W        W92669  10.420  24.250   3.666
26129W        W92670  26.811  17.783   4.011
26130W        W92671   2.925  19.219   1.952
26131W        W92672   0.121  42.937  13.829
26132W        W92673  44.972   5.557   3.093
26133W        W92674  37.425  27.531  11.629
26134W        W92675   7.289  34.812  11.605
26135W        W92676  18.754   8.615  12.056
26136W        W92677  27.193  32.058   2.249
26137W        W92678  28.175  30.171   5.029
26138W        W92679  27.658  16.177  12.898
26139W        W92680  35.821   8.851   4.202
26140W        W92681  25.218  18.625   4.425
26141W        W92682  36.134  27.518   1.921
26142W        W92683  13.724  35.490   0.913
26143W        W92684  19.572  18.605   4.242
26144W        W92685   7.985   3.311  12.056
26145W        W92686  15.884  34.596  10.638
26146W        W92687  15.754   5.313   1.454
26147W        W92688  22.162   2.938   0.797
26148W        W92689  34.976  37.680   3.854
26149W        W92690  32.879  32.964  13.010
26150W        W92691   2.285  11.229  11.993
26151W        W92692   3.924  27.205   0.236
26152W        W92693   7.840  24.754   4.677
26153W        W92694  13.767  29.742  11.124
26154W        W92695   6.865   8.163  12.402
26155W        W92696  34.718   8.305   2.759
26156W        W92697   7.744  17.149   0.991
26157W        W92698  37.732  40.278   3.022
26158W        W92699   3.424  32.838  11.543
26159W        W92700  31.090   6.287   2.731
26160W        W92701   5.408  20.201  13.396
26161W        W92702  25.909   3.344   4.573
26162W        W92703   2.291  28.574   4.249
26163W        W92704  11.807  23.731  14.954
26164W        W92705  34.472   8.393   4.313
26165W        W92706  25.920  32.491  14.938
26166W        W92707  36.863   6.388  13.860
26167W        W92708  35.522  26.238  10.245
26168W        W92709  17.571  17.987   4.063
26169W        W92710   8.758  11.478  10.737
26170W        W92711  32.978  27.108  11.254
26171W        W92712  23.028  34.796   0.920
26172W        W92713  38.045  33.298  12.150
26173W        W92714   7.122  36.874   4.382
26174W        W92715  38.088  13.084   2.828
26175W        W92716  34.419   3.068  12.607
26176W        W92717  11.139  16.914   0.822
26177W        W92718  33.496  43.016   2.339
26178W        W92719  16.601  44.531  11.018
26179W        W92720   1.053  36.843  11.876
26180W        W92721   2.263  43.320  13.083
26181W        W92722  32.517  37.051   0.383
26182W        W92723  28.035  18.347   1.021
26183W        W92724  11.100  19.695   3.036
26184W        W92725  36.558  12.349   2.703
26185W        W92726  27.047   3.001   0.353
26186W        W92727  27.520  31.507  13.604
26187W        W92728   7.152  23.430   0.910
26188W        W92729  22.609  40.972  14.554
26189W        W92730   5.762   3.267  13.521
26190W        W92731   9.585   1.677  14.849
26191W        W92732  17.064  37.892  11.038
26192W        W92733  10.084  12.576  10.691
26193W        W92734   7.916  14.137   0.310
26194W        W92735  29.511   2.929   2.859
26195W        W92736  40.384  16.495  14.816
26196W        W92737  44.383  14.294  11.854
26197W        W92738  18.653  39.010   2.223
26198W        W92739  11.153  23.361   1.750
26199W        W92740  23.471  30.200  12.458
26200W        W92741  35.745  18.366  14.111
26201W        W92742  20.976  10.305  14.327
26202W        W92743  28.530   7.340  14.975
26203W        W92744  40.599  27.017  14.450
26204W        W92745   6.469  43.079  14.003
26205W        W92746  26.222  22.087  13.136
26206W        W92747   5.401  42.006  13.540
26207W        W92748  25.539  29.101  12.137
26208W        W92749  24.116   1.451  10.422
26209W        W92750  34.476   4.948  11.362
26210W        W92751  16.442  43.377   3.818
26211W        W92752  10.881   5.677  14.352
26212W        W92753  22.060   3.830   2.326
26213W        W92754  19.575  13.260   3.249
26214W        W92755  13.759  22.988   4.474
26215W        W92756  11.926  21.735   2.318
26216W        W92757  35.994  42.568  10.732
26217W        W92758  32.247  42.125   0.475
26218W        W92759  34.946  25.945  14.288
26219W        W92760  14.640   4.743   4.563
26220W        W92761  30.768  32.527   3.600
26221W        W92762  44.760   7.340   4.918
26222W        W92763   0.272  19.764   2.443
26223W        W92764  21.096  13.235   1.365
26224W        W92765  44.323  33.043  12.080
26225W        W92766  23.271  42.373  13.419
26226W        W92767  43.971  36.593  13.920
26227W        W92768  42.796  27.446   4.576
26228W        W92769  30.490  39.910   0.251
26229W        W92770  12.864   7.517  14.120
26230W        W92771   1.489  18.440  14.248
26231W        W92772  27.905   3.883   3.515
26232W        W92773   9.990  44.626   2.680
26233W        W92774  24.207  13.445   1.481
26234W        W92775   8.319  11.661  14.831
26235W        W92776  30.585  11.809   4.438
26236W        W92777   8.174  30.692   4.290
26237W        W92778  25.941  19.518   2.276
26238W        W92779  24.729  14.300   1.229
26239W        W92780  18.999  17.986  14.311
26240W        W92781  41.298  37.919  12.982
26241W        W92782  31.038   8.495   4.711
26242W        W92783  34.852  10.803  14.777
26243W        W92784  33.568  29.604  13.970
26244W        W92785  41.470   7.950  10.840
26245W        W92786   8.293   6.238   2.754
26246W        W92787  12.808  30.643  14.049
26247W        W92788  41.365  15.978   1.833
26248W        W92789   4.298   4.325   1.869
26249W        W92790  27.795   0.645  10.141
26250W        W92791  22.375  43.410   4.050
26251W        W92792   5.434  10.688   0.031
26252W        W92793   6.908  34.422   3.797
26253W        W92794  16.315  32.424  14.603
26254W        W92795  25.881  38.663   0.465
26255W        W92796  35.479  23.484   2.204
26256W        W92797  44.815  23.191  13.939
26257W        W92798  32.127  20.948   0.482
26258W        W92799  15.560   1.963   3.665
26259W        W92800   0.680  37.266  13.268
26260W        W92801  10.793  13.192  12.143
26261W        W92802  34.639  22.177  11.979
26262W        W92803  17.221  37.874   4.164
26263W        W92804  23.571  13.151  11.844
26264W        W92805  20.720  13.066  11.528
26265W        W92806  44.742  16.963   2.293
26266W        W92807  10.533  39.226   9.778
26267W        W92808  23.845  27.597  11.164
26268W        W92809  16.421   0.478   2.258
26269W        W92810   8.444  31.408   1.784
26270W        W92811  38.515  39.460   1.476
26271W        W92812   2.833   3.378  14.708
26272W        W92813   0.050  31.910   2.853
26273W        W92814  44.758  25.335  11.982
26274W        W92815  14.390   6.515   2.880
26275W        W92816  22.559  24.586  14.296
26276W        W92817  19.021  20.288  12.801
26277W        W92818  33.668  21.058  12.140
26278W        W92819  33.868  26.370  14.413
26279W        W92820  21.762  20.909  10.570
26280W        W92821  24.482   3.211  14.398
26281W        W92822  23.014  30.092  12.689
26282W        W92823   8.326  40.049   1.861
26283W        W92824   1.253  26.380  12.570
26284W        W92825   3.180  37.583  12.428
26285W        W92826  32.908  26.510   1.557
26286W        W92827  25.081  40.383   2.593
26287W        W92828  22.733   3.234   5.058
26288W        W92829  32.501   8.248  13.497
26289W        W92830  44.533  25.232  10.170
26290W        W92831  21.506  16.065   4.764
26291W        W92832  17.703  24.569   3.081
26292W        W92833  33.154  17.086  13.345
26293W        W92834  36.586  34.122  11.046
26294W        W92835  10.621   8.467   0.808
26295W        W92836   2.297   5.519  11.130
26296W        W92837  40.358   1.455  14.784
26297W        W92838  28.740  44.419  13.837
26298W        W92839  17.658  41.374   2.706
26299W        W92840   3.164  22.554   0.449
26300W        W92841  13.698  35.259  11.411
26301W        W92842  16.432  38.762   4.546
26302W        W92843  29.165  42.798   4.593
26303W        W92844  43.949  35.712  12.417
26304W        W92845  34.593  20.264  13.956
26305W        W92846  17.630  25.927   3.727
26306W        W92847  32.884  39.091   3.237
26307W        W92848   0.679  22.717   1.270
26308W        W92849  21.464  41.481  12.958
26309W        W92850  24.591   3.786   4.121
26310W        W92851  32.503   8.674   4.611
26311W        W92852  27.391  17.507   0.361
26312W        W92853  33.404   1.572  14.414
26313W        W92854  34.508  21.275  14.770
26314W        W92855  15.277  44.372   2.512
26315W        W92856  39.138  41.741   4.876
26316W        W92857   5.881  21.612   1.891
26317W        W92858  37.589  16.030  14.854
26318W        W92859  18.772   3.825   2.228
26319W        W92860   1.883  29.584  11.177
26320W        W92861  20.233  16.256  13.451
26321W        W92862  29.188  16.299   0.954
26322W        W92863  34.211  17.117  12.509
26323W        W92864  25.555  43.222   4.547
26324W        W92865  18.018  33.403   2.887
26325W        W92866  10.100  19.045   2.708
26326W        W92867  13.838  39.220  14.771
26327W        W92868  18.784  37.114  11.521
26328W        W92869  22.028  17.769   0.883
26329W        W92870  21.676  40.287   0.926
26330W        W92871  33.143  10.821   0.084
26331W        W92872  33.462  26.246   4.126
26332W        W92873  42.617   7.745  14.227
26333W        W92874  37.684  22.722   2.919
26334W        W92875  43.292  37.248  14.714
26335W        W92876  20.084  36.342   3.232
26336W        W92877  14.269   1.527  14.833
26337W        W92878  18.291  38.419  12.151
26338W        W92879  39.996  12.808  13.386
26339W        W92880  43.282  15.993  10.509
26340W        W92881  36.491  10.177  14.741
26341W        W92882  31.343  10.626   1.872
26342W        W92883  27.217  19.686   4.290
26343W        W92884  21.129  26.304   3.138
26344W        W92885   9.886  37.546  14.320
26345W        W92886  17.591  39.242  12.658
26346W        W92887   9.557   2.342   1.106
26347W        W92888  32.892  28.302  11.612
26348W        W92889  36.897  30.706   2.789
26349W        W92890  40.338  30.479   0.037
26350W        W92891  42.005  17.407  14.446
26351W        W92892  39.126  14.423   0.725
26352W        W92893   9.367  17.350   0.125
26353W        W92894  10.759  26.613  10.132
26354W        W92895  11.346   7.797   3.654
26355W        W92896  24.300  18.623  13.364
26356W        W92897  43.922  43.569   4.616
26357W        W92898  28.985  16.622   2.764
26358W        W92899   5.310  41.486   4.501
26359W        W92900   9.384  27.065   4.380
26360W        W92901  27.777   0.968  13.416
26361W        W92902  24.756  18.053   0.804
26362W        W92903  25.152  40.315  10.545
26363W        W92904  20.599  26.980   4.309
26364W        W92905   6.640   7.325   0.716
26365W        W92906  17.774  23.229  11.537
26366W        W92907   9.195  29.674   1.246
26367W        W92908  25.902  32.138   3.720
26368W        W92909  44.828  20.090  12.669
26369W        W92910  25.685  42.379  14.025
26370W        W92911  43.999  44.212  14.362
26371W        W92912  21.313   3.533  14.167
26372W        W92913  20.459  17.163  12.070
26373W        W92914  29.869  32.865  11.111
26374W        W92915  25.306   9.238   0.303
26375W        W92916  13.718   4.287   4.872
26376W        W92917   3.381   0.828  13.369
26377W        W92918  43.952   9.535   4.098
26378W        W92919  43.579   4.785  13.873
26379W        W92920  22.345   7.698  13.491
26380W        W92921   2.464  18.830  11.775
26381W        W92922  27.693   3.732   1.373
26382W        W92923  27.745  13.750  10.994
26383W        W92924   3.554  38.357   0.483
26384W        W92925  32.188  34.984  14.809
26385W        W92926  26.123   3.319   0.754
26386W        W92927   1.766  26.499  14.336
26387W        W92928  15.707   0.220   3.615
26388W        W92929  26.652  31.015   4.359
26389W        W92930   5.618  22.087   1.752
26390W        W92931  23.625  30.944  10.885
26391W        W92932   6.724  28.114  12.975
26392W        W92933  33.179  18.528   1.325
26393W        W92934  24.279  20.921   3.868
26394W        W92935  12.839  34.902  10.755
26395W        W92936  36.899  18.400  13.462
26396W        W92937   4.288  31.455  12.583
26397W        W92938   2.016   4.887   0.841
26398W        W92939  28.053  21.911  13.528
26399W        W92940  18.667  19.969  13.550
26400W        W92941  35.372   2.402  13.060
26401W        W92942  22.003  30.671   4.755
26402W        W92943  40.898  37.595   1.456
26403W        W92944  35.524  33.529  12.817
26404W        W92945  27.060   1.345  12.852
26405W        W92946  20.501  36.069  11.117
26406W        W92947  37.289  29.746   5.092
26407W        W92948  43.431  17.491  10.699
26408W        W92949  29.786  28.597   1.816
26409W        W92950  38.468  19.708   2.366
26410W        W92951   0.340  38.453  12.167
26411W        W92952  29.732  19.219  12.237
26412W        W92953   4.446  18.082   0.345
26413W        W92954  26.035  30.702  12.838
26414W        W92955  39.805   0.506  11.059
26415W        W92956  14.012  41.431   1.983
26416W        W92957  40.412  38.491   2.173
26417W        W92958  44.796  37.814   1.305
26418W        W92959  13.885  29.035   0.547
26419W        W92960  39.607  11.146   5.395
26420W        W92961  12.556   0.313   3.629
26421W        W92962  40.076  30.844   3.902
26422W        W92963  24.092   4.211   5.005
26423W        W92964   9.421  16.672  14.372
26424W        W92965  42.394  23.345  11.919
26425W        W92966  33.163  36.864  14.435
26426W        W92967  11.756  17.157  13.732
26427W        W92968  32.177  25.973   2.845
26428W        W92969   6.733   7.297   2.734
26429W        W92970   3.858  38.372   2.855
26430W        W92971  13.839  10.750  12.437
26431W        W92972  29.871  34.040   3.005
26432W        W92973  11.828  15.798   1.653
26433W        W92974  12.409  44.012   4.611
26434W        W92975  40.748   3.805   4.326
26435W        W92976  15.304  18.826   3.141
26436W        W92977  25.145  25.733   4.964
26437W        W92978  10.114  40.410   2.693
26438W        W92979  19.163   5.646   3.375
26439W        W92980  12.838  14.755   2.235
26440W        W92981  13.846   0.699   0.743
26441W        W92982  13.620  26.585  11.220
26442W        W92983   5.009   9.475   0.523
26443W        W92984  12.310   8.081   3.099
26444W        W92985  18.516  36.911  12.595
26445W        W92986  10.567  15.199  14.228
26446W        W92987  41.893  29.168   1.834
26447W        W92988  43.526  42.433  13.285
26448W        W92989  34.138  34.597  11.374
26449W        W92990  16.550  10.470  11.094
26450W        W92991  37.844  25.423  11.131
26451W        W92992   1.980  31.151  12.425
26452W        W92993  22.914  16.145  11.438
26453W        W92994  23.974  17.204   2.720
26454W        W92995  30.494  31.969   1.321
26455W        W92996  44.303  23.094   4.741
26456W        W92997  23.338  27.344  12.659
26457W        W92998  25.730   8.349  14.304
26458W        W92999   3.047   8.676  13.554
26459W        W93000  30.970  30.916   0.864
26460W        W93001  30.954  16.303  11.522
26461W        W93002  39.729   3.591  13.191
26462W        W93003  37.237  26.997   3.771
26463W        W93004  27.576  26.154   4.710
26464W        W93005  41.793  20.852  11.648
26465W        W93006  15.727  38.734  13.990
26466W        W93007  40.332   4.480  14.927
26467W        W93008   4.975   8.976  14.751
26468W        W93009  37.352  41.396   1.283
26469W        W93010  37.448  21.964  12.429
26470W        W93011   0.725   0.205   0.960
26471W        W93012  42.746  28.657   0.278
26472W        W93013  11.831   1.995  13.999
26473W        W93014  39.066  28.704   3.559
26474W        W93015  12.659  28.673  13.820
26475W        W93016  26.952  36.651   2.681
26476W        W93017  10.225  27.663  14.898
26477W        W93018  44.444  14.623  12.851
26478W        W93019  18.265  43.925  11.064
26479W        W93020   1.208   2.961  14.755
26480W        W93021   7.389  37.792   4.072
26481W        W93022  10.156  19.607  13.504
26482W        W93023  44.926   9.670   1.431
26483W        W93024  19.530   1.275   1.741
26484W        W93025  17.097  41.593  13.037
26485W        W93026  41.554  36.192   1.358
26486W        W93027  40.984  44.842   0.410
26487W        W93028   8.342  17.014  11.066
26488W        W93029  30.624  30.469   4.574
26489W        W93030  25.116  11.380   1.864
26490W        W93031  17.812  41.480  11.623
26491W        W93032  38.008  19.299   3.311
26492W        W93033  37.533  24.960   1.987
26493W        W93034  28.496  22.784  11.948
26494W        W93035  16.648  29.866   2.119
26495W        W93036  34.202   1.476   0.365
26496W        W93037  12.643  35.179  12.954
26497W        W93038  15.018  41.352   2.855
26498W        W93039  20.441  26.491   5.190
26499W        W93040  44.227  31.471   3.758
26500W        W93041  43.856  20.723   0.535
26501W        W93042  25.601  25.331   3.595
26502W        W93043   8.803  24.948   1.255
26503W        W93044  35.632  22.179   2.200
26504W        W93045  39.405   9.710   2.926
26505W        W93046   9.978  16.258  10.541
26506W        W93047  16.507  20.064   0.313
26507W        W93048  41.382   6.112  14.388
26508W        W93049  33.087  24.968   4.657
26509W        W93050  12.727  33.959   1.340
26510W        W93051  15.548  15.293  10.645
26511W        W93052  27.660  43.117   4.959
26512W        W93053   7.184   9.600  10.641
26513W        W93054  12.661  23.774   2.933
26514W        W93055  17.552  44.067  10.608
26515W        W93056   7.835  38.060   3.996
26516W        W93057   3.866  30.625  12.992
26517W        W93058  39.294  27.602   0.436
26518W        W93059  28.502  37.974   3.477
26519W        W93060  43.303  20.134   2.191
26520W        W93061   9.217  15.750  14.839
26521W        W93062  33.082   7.409   3.453
26522W        W93063  30.440  43.398   3.322
26523W        W93064  20.865  26.390  13.910
26524W        W93065   3.363  40.695  11.148
26525W        W93066   8.965  21.825   1.963
26526W        W93067  10.325  33.999  13.067
26527W        W93068  40.545  36.195  12.973
26528W        W93069  14.641  35.666   3.060
26529W        W93070  24.301  18.277  12.506
26530W        W93071  13.903  37.346   2.769
26531W        W93072   0.984  31.000   3.707
26532W        W93073  21.188   6.009  13.022
26533W        W93074  32.816  43.028  14.016
26534W        W93075  18.789  31.503  13.360
26535W        W93076   3.010  32.593   0.797
26536W        W93077   3.230   8.017  12.927
26537W        W93078   3.933   4.680   3.655
26538W        W93079  26.651   3.390   1.934
26539W        W93080  21.502   8.726   1.017
26540W        W93081  23.967   3.479   3.098
26541W        W93082  22.663  39.055  12.028
26542W        W93083   2.450  41.952  13.773
26543W        W93084  13.606  19.312   3.456
26544W        W93085  39.805  39.751  14.844
26545W        W93086  38.896  14.712   2.007
26546W        W93087  11.268  10.062   0.248
26547W        W93088  19.379  32.783   4.791
26548W        W93089  41.408  29.410  12.844
26549W        W93090  33.459   5.698  13.021
26550W        W93091   7.130  30.114   2.043
26551W        W93092   1.486  20.933   4.217
26552W        W93093   4.769  24.520  14.856
26553W        W93094   8.030  42.139   0.382
26554W        W93095   3.745  34.403  13.326
26555W        W93096  21.183   8.860  13.268
26556W        W93097   7.631  20.055  11.161
26557W        W93098  28.635  16.503   4.154
26558W        W93099  25.545  15.729  11.895
26559W        W93100   2.080   0.540  13.401
26560W        W93101  43.521  37.640  11.130
26561W        W93102  25.762  12.698  10.840
26562W        W93103  15.929  43.311   4.803
26563W        W93104  25.522  41.086   0.077
26564W        W93105   2.204  19.222  14.962
26565W        W93106  33.869  15.753  12.281
26566W        W93107  10.342  41.933  14.060
26567W        W93108  41.934   8.402   0.702
26568W        W93109   2.982  31.165   0.767
26569W        W93110  21.217   9.319  11.122
26570W        W93111  31.472  27.510   4.051
26571W        W93112  34.696  15.040   1.837
26572W        W93113  17.558  22.475   3.713
26573W        W93114  34.102  11.149   2.850
26574W        W93115  16.142   8.850  11.952
26575W        W93116  44.789  38.975   3.293
26576W        W93117   6.137  37.906  14.012
26577W        W93118  15.568  28.950  14.845
26578W        W93119  27.471  13.141   3.123
26579W        W93120  25.025  43.417  12.498
26580W        W93121  16.239  26.876  14.859
26581W        W93122  30.444  23.097   1.606
26582W        W93123  43.210  34.500   2.717
26583W        W93124   2.515   1.195   9.930
26584W        W93125  39.725  34.195  11.134
26585W        W93126   7.608  14.388   3.247
26586W        W93127  12.517  16.962  14.300
26587W        W93128   9.708   9.874   2.300
26588W        W93129   7.710  35.881   5.050
26589W        W93130   9.705  44.823   2.227
26590W        W93131  25.614   0.255  10.783
26591W        W93132  21.355  30.064  11.986
26592W        W93133  19.803   5.533   5.416
26593W        W93134  43.789   6.745  13.410
26594W        W93135   9.775   2.720  14.772
26595W        W93136  32.474  30.447  11.564
26596W        W93137  28.145  14.547   2.275
26597W        W93138   9.775  10.934  11.177
26598W        W93139  24.560  23.266   4.084
26599W        W93140  33.603   0.282   9.474
26600W        W93141  16.742  40.829   0.947
26601W        W93142  22.969  39.176   2.698
26602W        W93143  18.056  27.001  14.601
26603W        W93144  28.385  10.881   2.918
26604W        W93145  32.770  39.331  13.102
26605W        W93146  30.293  16.879  14.955
26606W        W93147   6.609  39.575  12.629
26607W        W93148  15.765  16.258   2.241
26608W        W93149  13.696   7.256   4.490
26609W        W93150   9.938   4.483  11.609
26610W        W93151  20.844  18.716  14.734
26611W        W93152  26.019  39.631   2.828
26612W        W93153  34.922  25.094   0.950
26613W        W93154  17.600  41.826   3.252
26614W        W93155  15.366  42.526  12.373
26615W        W93156  16.164  39.583   4.346
26616W        W93157  18.276  13.214   0.934
26617W        W93158  34.910  22.629  12.241
26618W        W93159  28.175   2.385  10.691
26619W        W93160  23.645  32.330   4.074
26620W        W93161  22.594  11.613  13.013
26621W        W93162   5.385  32.856  12.359
26622W        W93163  31.951   4.254   1.336
26623W        W93164   3.399   7.331   1.137
26624W        W93165  21.689  36.533   0.944
26625W        W93166  14.831  15.594  11.584
26626W        W93167  36.131  14.208   2.618
26627W        W93168   6.516  15.810   9.814
26628W        W93169  24.141  40.569   0.358
26629W        W93170  37.922  26.138  14.190
26630W        W93171  29.434  17.311  13.360
26631W        W93172   3.141  36.014  14.779
26632W        W93173  25.175  16.145  12.640
26633W        W93174  41.489  13.247  11.496
26634W        W93175   7.567  24.538  14.790
26635W        W93176   5.164  13.237   0.483
26636W        W93177  34.697  39.035  14.550
26637W        W93178  16.139  19.205   4.570
26638W        W93179   3.026  11.189   3.352
26639W        W93180  40.042  23.637  12.525
26640W        W93181  10.360  21.955  11.618
26641W        W93182  20.264  44.564  14.246
26642W        W93183  35.799  29.444  12.906
26643W        W93184  22.984  28.915   0.111
26644W        W93185  18.149  13.082   3.214
26645W        W93186  42.975  12.283   3.343
26646W        W93187  18.868   4.468  14.315
26647W        W93188  36.685  13.600  14.934
26648W        W93189  38.387  16.825  13.853
26649W        W93190  44.913  41.284   2.255
26650W        W93191   3.280  18.811  13.574
26651W        W93192  43.518  21.225   1.145
26652W        W93193  20.099   1.759   1.261
26653W        W93194  12.355  22.680   1.347
26654W        W93195   6.862   0.884  14.375
26655W        W93196   4.006  32.894   4.868
26656W        W93197  14.693  33.587   2.970
26657W        W93198   5.315   3.629  13.953
26658W        W93199  22.648  36.732   4.026
26659W        W93200   9.100  36.455  13.635
26660W        W93201   0.487  37.421  12.810
26661W        W93202   2.780  32.797   2.401
26662W        W93203  33.183  11.638   4.246
26663W        W93204  20.480  21.331  13.601
26664W        W93205  16.244  30.529   1.096
26665W        W93206   9.649  41.743  10.556
26666W        W93207  12.183  15.055  13.104
26667W        W93208   2.416   5.754   0.476
26668W        W93209  39.450  39.547  14.331
26669W        W93210   2.534  13.808  13.046
26670W        W93211  38.326  37.128   1.801
26671W        W93212  38.236  24.100  12.513
26672W        W93213   6.423  38.721   3.097
26673W        W93214  33.105  10.323   1.830
26674W        W93215  10.718   7.916  13.931
26675W        W93216  38.591  26.875  12.041
26676W        W93217  15.342  43.570   1.016
26677W        W93218  33.172  15.780  14.560
26678W        W93219   6.962  22.205  10.755
26679W        W93220   8.601  43.914   4.308
26680W        W93221  20.866  38.597   2.896
26681W        W93222  28.717   4.502  12.173
26682W        W93223  33.554  43.975  13.373
26683W        W93224  21.205   2.900   2.704
26684W        W93225  25.907  31.902   1.858
26685W        W93226  29.441  39.248   1.754
26686W        W93227  27.528  10.368   3.237
26687W        W93228  24.143   6.917   0.850
26688W        W93229  26.644  25.279   2.744
26689W        W93230  17.216   1.505   2.550
26690W        W93231  39.918  25.308  12.460
26691W        W93232   4.943   6.002  11.721
26692W        W93233  35.803  41.497   2.226
26693W        W93234   7.793  27.248  12.860
26694W        W93235   9.945  28.847  12.411
26695W        W93236   3.834  16.454  11.457
26696W        W93237   0.869  13.756   2.231
26697W        W93238  19.443   7.356   1.373
26698W        W93239   1.091  42.580  14.091
26699W        W93240   9.320   8.758   1.327
26700W        W93241  24.200  35.174  12.072
26701W        W93242  39.301  19.242   3.681
26702W        W93243  19.582  11.315   3.709
26703W        W93244  26.901  38.797  12.935
26704W        W93245  13.248  32.036  14.933
26705W        W93246  30.569  41.066   2.787
26706W        W93247  26.146  29.903   2.219
26707W        W93248   4.774  20.560  11.172
26708W        W93249  29.811  42.916   0.271
26709W        W93250  31.720   5.240   0.569
26710W        W93251   3.401   4.018  11.611
26711W        W93252  10.671   3.042   4.292
26712W        W93253  30.473  19.633  10.668
26713W        W93254  11.693  38.975   3.275
26714W        W93255  28.187  39.198   3.795
26715W        W93256  31.417  24.217   4.680
26716W        W93257  11.029  33.349  13.449
26717W        W93258  32.870  36.165  12.894
26718W        W93259  37.764  39.246  13.596
26719W        W93260  29.449  20.523   0.490
26720W        W93261  26.548   2.707   4.092
26721W        W93262   9.310   4.032  13.747
26722W        W93263  20.951  38.435   4.341
26723W        W93264   3.962  29.118  13.476
26724W        W93265   1.768  44.984  13.940
26725W        W93266  35.122  36.941   0.571
26726W        W93267   5.755   6.616   3.929
26727W        W93268  24.991  12.756   4.234
26728W        W93269  35.148  13.159  10.589
26729W        W93270  27.323  33.989   0.812
26730W        W93271  39.376  14.320   3.212
26731W        W93272   8.965   2.365   4.499
26732W        W93273  20.254  19.750  10.639
26733W        W93274   8.726  15.402   0.369
26734W        W93275   8.657  17.458  14.563
26735W        W93276   8.171  43.046   1.453
26736W        W93277   8.271   5.030  11.214
26737W        W93278  26.495  40.042  11.875
26738W        W93279  27.263   4.003  12.042
26739W        W93280  11.716  32.061   2.651
26740W        W93281   8.768   9.119   0.338
26741W        W93282   6.720  44.051   0.977
26742W        W93283  19.747  17.713  10.200
26743W        W93284  39.162  27.479   9.840
26744W        W93285   9.394  22.090   1.863
26745W        W93286  10.642  42.283   4.151
26746W        W93287   5.366  15.233   3.648
26747W        W93288  26.504  17.601  12.353
26748W        W93289  33.393   1.491   0.776
26749W        W93290  12.927  22.669   2.081
26750W        W93291  22.041   8.843   4.499
26751W        W93292  35.647   3.764  13.627
26752W        W93293  21.760  41.894  12.864
26753W        W93294  21.151   8.355  13.122
26754W        W93295  38.028   3.674  12.818
26755W        W93296  39.122  41.686  10.212
26756W        W93297  24.492  38.946   4.347
26757W        W93298  14.594  28.846  14.476
26758W        W93299   3.969  24.488   2.850
26759W        W93300  42.410  22.009  12.388
26760W        W93301  26.179  40.400   4.561
26761W        W93302   7.631  34.855  14.846
26762W        W93303  18.709  37.988   2.663
26763W        W93304  21.651  29.559  11.616
26764W        W93305  23.059  40.971   2.277
26765W        W93306  44.654  32.535   5.026
26766W        W93307  33.662  22.433  11.681
26767W        W93308  20.143  16.760  13.394
26768W        W93309  41.761  34.482   2.283
26769W        W93310  44.976  36.015  11.153
26770W        W93311  24.026  18.410   0.489
26771W        W93312  22.559  37.713   4.235
26772W        W93313  34.403  38.818   1.005
26773W        W93314  19.215  40.496  10.610
26774W        W93315   1.433  34.862   0.889
26775W        W93316   9.167   8.902  14.231
26776W        W93317  35.122   3.982   0.337
26777W        W93318  38.871  32.822  14.962
26778W        W93319  34.665   6.980   3.158
26779W        W93320  28.713   3.704   1.388
26780W        W93321  42.845   2.895  14.858
26781W        W93322  30.704  36.414   1.123
26782W        W93323   1.274  38.622  12.038
26783W        W93324   5.765  29.105  10.466
26784W        W93325  39.430  12.378  14.478
26785W        W93326  40.364  36.648   0.929
26786W        W93327   9.954  23.555  11.932
26787W        W93328   0.315  12.268   3.379
26788W        W93329  27.406  26.979  11.985
26789W        W93330  24.010  10.869   0.725
26790W        W93331  20.155  31.516   2.789
26791W        W93332  41.039  26.054  10.629
26792W        W93333  33.969   5.770   4.631
26793W        W93334   4.004  20.040  13.820
26794W        W93335   2.650  15.366  12.473
26795W        W93336  35.990  37.808   2.723
26796W        W93337   2.753  24.628  14.564
26797W        W93338  10.350  35.920   4.418
26798W        W93339  32.945  10.865   3.755
26799W        W93340   0.081  28.132   3.626
26800W        W93341  36.463   2.998   2.028
26801W        W93342   6.354  38.705  11.087
26802W        W93343  29.222   5.510   2.697
26803W        W93344  26.953   4.690  13.871
26804W        W93345  32.306  44.462   3.040
26805W        W93346  33.462  26.985   3.175
26806W        W93347  23.385  38.931   3.290
26807W        W93348   8.870   3.860   3.141
26808W        W93349  43.764  26.742  13.129
26809W        W93350  43.604  38.161  11.120
26810W        W93351  42.021  14.117  13.844
26811W        W93352  42.534  24.534  13.252
26812W        W93353   9.231   7.282  14.239
26813W        W93354  22.752  42.415   4.921
26814W        W93355  41.984   5.777   1.865
26815W        W93356   6.819   3.686   2.370
26816W        W93357  32.544  35.422  11.444
26817W        W93358  36.486   6.393  10.581
26818W        W93359  42.949  24.517  11.134
26819W        W93360  36.815   5.019  11.116
26820W        W93361   2.175  32.949  11.522
26821W        W93362  32.632   1.666  11.771
26822W        W93363  29.554  11.658   2.636
26823W        W93364  27.104  17.021  13.416
26824W        W93365  34.548  19.667   3.071
26825W        W93366  10.332  20.121  14.213
26826W        W93367  27.448  44.267   0.307
26827W        W93368  15.335  29.678   9.836
26828W        W93369  42.070   9.948  13.467
26829W        W93370  16.074   8.049  11.132
26830W        W93371   5.321  22.978  12.504
26831W        W93372  23.910   7.292   4.141
26832W        W93373  34.122   8.309  12.232
26833W        W93374  35.132  36.313   3.389
26834W        W93375   7.358  26.265   3.803
26835W        W93376   1.948   1.949   0.422
26836W        W93377   4.450  40.971  12.949
26837W        W93378   0.642  44.396  11.163
26838W        W93379  12.604  42.080  11.487
26839W        W93380  38.001  23.951   0.392
26840W        W93381   7.769  37.773   0.982
26841W        W93382  40.272  41.474  11.132
26842W        W93383   3.149  19.716   2.649
26843W        W93384  11.795  33.528   0.052
26844W        W93385   1.932   5.647  10.787
26845W        W93386  28.774  40.119  13.290
26846W        W93387   5.564   3.712   0.385
26847W        W93388  13.479  41.637  11.426
26848W        W93389  13.828  33.571   2.437
26849W        W93390   5.730   1.206   3.114
26850W        W93391   1.156  15.381   2.255
26851W        W93392  16.890   0.954   0.199
26852W        W93393  25.224  13.605  11.413
26853W        W93394  21.630  31.002  11.934
26854W        W93395  19.982  24.537   4.259
26855W        W93396  29.360  25.089  14.004
26856W        W93397  29.410   6.543  13.977
26857W        W93398   3.231  18.707  14.432
26858W        W93399   4.472  28.979  14.187
26859W        W93400  28.609  38.829  12.499
26860W        W93401  15.496  34.877   3.609
26861W        W93402  12.204   0.880  10.551
26862W        W93403   5.061  25.726  13.009
26863W        W93404  43.468  15.773   0.609
26864W        W93405  44.405  11.833   3.709
26865W        W93406  36.312  32.979   2.658
26866W        W93407  32.585  31.034  10.704
26867W        W93408   7.314  17.460   0.977
26868W        W93409  41.560  23.422   2.227
26869W        W93410  22.742  13.359   0.011
26870W        W93411   4.750  33.078   3.381
26871W        W93412  29.444  32.465   0.742
26872W        W93413  40.092   7.415   0.403
26873W        W93414  30.092  34.064   1.424
26874W        W93415  21.469  12.024   3.576
26875W        W93416   3.790  14.267   4.548
26876W        W93417   4.903  30.478   1.945
26877W        W93418  34.076   7.715   3.385
26878W        W93419  32.758  28.119   2.294
26879W        W93420  26.581   7.114  10.927
26880W        W93421  38.882  40.320   3.849
26881W        W93422  42.113  29.079   0.738
26882W        W93423  40.068  15.752   2.064
26883W        W93424  19.794  32.403   0.179
26884W        W93425  20.017  42.678   3.781
26885W        W93426  37.827  25.543   0.919
26886W        W93427  16.604   2.235  13.078
26887W        W93428  16.691   0.311   0.866
26888W        W93429  11.635   8.357   1.914
26889W        W93430  13.289   9.020   0.760
26890W        W93431  35.372  19.220   2.856
26891W        W93432  30.767  30.752  12.907
26892W        W93433  13.301   0.132   0.216
26893W        W93434  24.754  10.336   3.730
26894W        W93435   6.658   2.810  11.057
26895W        W93436  20.080   8.639   4.684
26896W        W93437  39.487  40.974   1.468
26897W        W93438  14.331   4.328  12.888
26898W        W93439   0.978  11.096  13.687
26899W        W93440  20.728  43.710   4.708
26900W        W93441   1.440  25.913  12.580
26901W        W93442  23.095  29.923  13.705
26902W        W93443  28.160  10.800   0.270
26903W        W93444  35.792  43.678  13.823
26904W        W93445  18.081   6.404  12.568
26905W        W93446   6.194  31.126  12.345
26906W        W93447  33.329  33.033   4.090
26907W        W93448  25.264  18.249  14.307
26908W        W93449  12.640  39.829  14.306
26909W        W93450   3.929  30.318   3.322
26910W        W93451   4.624  23.100  14.917
26911W        W93452  42.264  42.869   5.165
26912W        W93453   3.086  40.992   3.713
26913W        W93454   0.845  17.593  10.460
26914W        W93455  41.121  40.670   3.137
26915W        W93456  35.524   8.419   0.968
26916W        W93457   8.133   5.210  12.987
26917W        W93458   6.963  44.254  11.301
26918W        W93459  35.481  32.635   0.747
26919W        W93460  21.773  28.289  10.269
26920W        W93461  14.753   1.852   2.598
26921W        W93462  28.762  26.629  13.039
26922W        W93463  37.003  19.599   1.950
26923W        W93464  15.239  39.769  13.374
26924W        W93465  25.914  39.267  11.715
26925W        W93466  27.120  18.711   0.240
26926W        W93467  37.102  30.197   1.420
26927W        W93468  18.623  25.103   2.767
26928W        W93469  32.511  12.378  14.260
26929W        W93470  21.482  22.959   1.214
26930W        W93471   7.723  43.885  12.546
26931W        W93472  27.977  38.295   2.082
26932W        W93473  21.724  33.598  11.609
26933W        W93474  30.638  35.069   4.142
26934W        W93475  18.912  42.574  12.455
26935W        W93476  42.849  33.655  14.345
26936W        W93477  35.197  44.752   2.439
26937W        W93478  15.256   2.531  11.593
26938W        W93479  20.158  10.768   0.009
26939W        W93480   9.655   2.247  13.884
26940W        W93481  33.679  30.117   1.865
26941W        W93482  17.267   8.253   1.272
26942W        W93483  25.613  42.290  12.007
26943W        W93484   5.906  18.280  12.647
26944W        W93485  33.507   1.747  11.383
26945W        W93486   0.961  25.079   3.185
26946W        W93487  43.441   2.194   2.726
26947W        W93488   9.166  35.333   3.388
26948W        W93489  36.811  32.894   1.249
26949W        W93490  29.022   2.198   4.838
26950W        W93491   3.788   3.261   0.228
26951W        W93492  35.541  41.884   1.923
26952W        W93493  16.834  37.962  11.522
26953W        W93494  39.292   4.036   4.171
26954W        W93495  13.201  38.546  14.469
26955W        W93496  13.041  42.880   9.799
26956W        W93497  16.463  14.127   3.306
26957W        W93498  20.659  15.538   1.271
26958W        W93499  10.959  39.534   4.929
26959W        W93500  34.905  41.038  13.534
26960W        W93501  32.325   0.008  11.877
26961W        W93502  25.021  23.075  14.512
26962W        W93503  10.815  41.102   0.587
26963W        W93504  37.107  30.501   1.881
26964W        W93505  26.958  42.503   2.248
26965W        W93506  18.690  26.580   3.218
26966W        W93507  32.093  18.716  13.464
26967W        W93508  40.308  28.467  12.391
26968W        W93509   5.123  16.648  12.457
26969W        W93510  13.729  20.665  14.994
26970W        W93511  24.580   6.922   0.450
26971W        W93512  16.216   8.857   3.695
26972W        W93513   2.274  22.282  10.449
26973W        W93514  40.412   0.732   2.966
26974W        W93515   9.160  16.204  12.453
26975W        W93516  12.907   3.811   3.188
26976W        W93517  43.057  41.902   0.324
26977W        W93518   8.597   6.016  12.511
26978W        W93519  29.976  44.501  10.577
26979W        W93520  20.760   2.402  12.459
26980W        W93521   4.520  25.797  13.985
26981W        W93522  21.982  17.637   2.843
26982W        W93523  14.715  11.375  11.673
26983W        W93524  40.123   0.002  12.001
26984W        W93525  15.838   9.692  10.690
26985W        W93526  36.350  31.021  14.746
26986W        W93527  12.517  13.170  11.082
26987W        W93528   2.048   7.706   0.948
26988W        W93529  21.963  31.942   4.083
26989W        W93530  25.153  22.984   4.489
26990W        W93531   5.433   7.763   2.972
26991W        W93532   1.983  21.185  13.309
26992W        W93533  11.828  23.635   4.441
26993W        W93534  40.563  33.994   0.724
26994W        W93535  39.690  25.962   4.128
26995W        W93536  21.335  30.675   0.470
26996W        W93537  29.032  13.564   4.167
26997W        W93538  28.020  35.172  10.331
26998W        W93539   3.982  37.327  11.039
26999W        W93540  31.931   9.005   1.435
27000W        W93541  29.562  10.801   2.558
27001W        W93542  29.373   1.271  14.052
27002W        W93543   8.751  35.536   2.080
27003W        W93544   5.191  39.985  11.663
27004W        W93545  10.731  20.061   0.071
27005W        W93546  43.008  27.071   3.722
27006W        W93547  10.146   5.848  10.274
27007W        W93548  44.953   8.208  12.851
27008W        W93549  34.671  25.561   0.955
27009W        W93550  18.819  23.599  12.371
27010W        W93551   6.092   3.479   4.144
27011W        W93552  41.835  38.467  11.599
27012W        W93553  37.425  44.514   0.291
27013W        W93554  40.929  24.053   4.240
27014W        W93555   2.388  21.660   0.824
27015W        W93556  11.072   6.000  13.968
27016W        W93557  38.250  23.729  14.970
27017W        W93558  15.355   7.012  11.524
27018W        W93559  17.532  33.439  12.900
27019W        W93560   5.218  44.394   2.446
27020W        W93561  42.330  36.460   4.311
27021W        W93562  27.572  21.788  12.920
27022W        W93563  16.794  36.544  11.194
27023W        W93564  40.943   3.024   4.631
27024W        W93565  11.278  33.649   2.171
27025W        W93566  25.926  35.537   2.760
27026W        W93567   7.014  15.236   1.607
27027W        W93568  34.022   7.968   2.456
27028W        W93569  35.630  10.447   3.183
27029W        W93570   0.507  44.952   1.353
27030W        W93571  24.812  12.259   4.151
27031W        W93572  31.112  39.026   2.724
27032W        W93573  31.008  10.546   2.261
27033W        W93574  42.593  13.498   9.686
27034W        W93575   0.784  25.233  11.534
27035W        W93576  18.836   4.958  12.394
27036W        W93577  28.662  30.012  13.295
27037W        W93578   1.330   6.379  14.548
27038W        W93579  11.339  32.584   4.548
27039W        W93580  16.084  33.846  11.480
27040W        W93581  44.220   4.322  11.972
27041W        W93582  16.075   8.299   1.182
27042W        W93583   1.257  17.433  12.911
27043W        W93584  22.950   8.395   3.362
27044W        W93585  44.306  20.395   1.124
27045W        W93586  32.764  10.823   3.278
27046W        W93587  32.491  29.888   2.613
27047W        W93588  36.575  21.233  13.880
27048W        W93589  35.481  14.808  13.019
27049W        W93590  13.948  37.515  12.164
27050W        W93591   9.369  25.579   0.854
27051W        W93592  28.212  23.187   0.807
27052W        W93593  21.238  29.687   4.558
27053W        W93594  22.699  37.997  14.381
27054W        W93595   6.671  18.775  11.121
27055W        W93596  28.932  35.568   3.442
27056W        W93597  20.975  20.830   3.931
27057W        W93598   5.617   8.897   4.374
27058W        W93599   4.313  36.103  14.692
27059W        W93600  31.992  10.840   3.818
27060W        W93601   4.916  30.461  14.923
27061W        W93602   1.415  15.634   2.818
27062W        W93603  16.756  10.241  12.397
27063W        W93604  38.948   9.736  14.569
27064W        W93605  15.367  21.813   2.364
27065W        W93606  17.514  35.962  12.419
27066W        W93607   6.219  24.731   2.250
27067W        W93608  42.087  40.376  11.646
27068W        W93609  24.251   4.451  13.786
27069W        W93610  36.017  44.957  10.649
27070W        W93611  43.987   8.067  14.867
27071W        W93612   5.474  17.814  12.002
27072W        W93613  12.752  32.267  11.553
27073W        W93614   6.236  21.610  14.225
27074W        W93615  27.929  42.851   2.439
27075W        W93616  33.667   3.796   3.276
27076W        W93617  20.291  16.746  14.294
27077W        W93618   2.823  36.176   1.451
27078W        W93619  11.594  41.349   4.111
27079W        W93620   5.314  33.961  10.582
27080W        W93621  37.423  36.063   1.845
27081W        W93622  36.417  20.381   4.347
27082W        W93623  17.252  41.545  13.988
27083W        W93624  35.508  22.568   2.576
27084W        W93625  27.958  31.729  13.422
27085W        W93626  24.546   7.884  10.802
27086W        W93627  27.133  23.924  12.510
27087W        W93628  34.526  44.356   3.751
27088W        W93629  11.729  14.612   4.510
27089W        W93630  43.824  12.668   3.402
27090W        W93631  38.857   0.883   1.738
27091W        W93632   4.625  20.645  12.608
27092W        W93633  19.517  26.019  14.544
27093W        W93634   7.155  23.592  12.050
27094W        W93635  11.294   3.934  10.888
27095W        W93636  42.031  34.124  13.851
27096W        W93637  15.615   3.674  11.137
27097W        W93638  33.891   8.688   3.670
27098W        W93639  43.016  33.320  13.989
27099W        W93640  21.289  33.549   5.097
27100W        W93641  22.625   8.448  11.068
27101W        W93642  30.479   2.224  14.024
27102W        W93643  14.921  15.865  12.025
27103W        W93644  18.249  20.663  13.822
27104W        W93645  12.831  42.371  12.551
27105W        W93646  31.010  11.433   0.236
27106W        W93647  20.522  41.040   0.742
27107W        W93648   3.260  20.212  14.416
27108W        W93649   5.118  40.614   2.027
27109W        W93650   3.980  18.716  13.835
27110W        W93651  40.848  10.501   1.292
27111W        W93652  22.788  26.380  10.663
27112W        W93653  27.399  38.391  11.694
27113W        W93654  39.437  41.675  12.371
27114W        W93655  41.874  21.587   0.111
27115W        W93656  24.629  25.111   0.440
27116W        W93657  30.997   4.249   0.695
27117W        W93658   4.883  44.423  12.921
27118W        W93659  10.804  11.148  14.222
27119W        W93660   4.762  10.779   2.401
27120W        W93661   8.730  32.426   2.401
27121W        W93662   5.917  17.823  14.414
27122W        W93663  32.035  10.221  13.582
27123W        W93664  20.015   3.528  11.540
27124W        W93665  10.169  37.264  10.925
27125W        W93666  32.128   0.345  13.161
27126W        W93667  16.743  22.487  13.377
27127W        W93668  44.424   5.648   3.198
27128W        W93669   3.487  28.773   4.698
27129W        W93670  23.007  16.679   4.947
27130W        W93671  43.118   9.308   1.593
27131W        W93672   0.693  35.070   4.903
27132W        W93673   7.181  23.382   2.395
27133W        W93674  13.595   8.629   4.220
27134W        W93675  33.097   9.494   4.557
27135W        W93676  34.941  44.736   5.071
27136W        W93677  22.939   6.981   1.467
27137W        W93678  27.818  30.993  10.717
27138W        W93679  22.263  27.776  13.882
27139W        W93680   0.485   0.680  12.895
27140W        W93681  41.890   9.667   4.812
27141W        W93682  13.523  15.569   4.066
27142W        W93683  29.399  17.303   4.117
27143W        W93684  29.681  23.685  14.200
27144W        W93685  25.983   5.973   0.905
27145W        W93686  29.354  22.107   3.152
27146W        W93687  19.146  31.238   2.342
27147W        W93688  39.803   3.919  13.618
27148W        W93689  41.215  43.600  12.567
27149W        W93690  29.911  38.322   1.645
27150W        W93691   4.418  22.029  12.080
27151W        W93692   8.350  35.493   3.775
27152W        W93693   5.530  39.671   5.011
27153W        W93694  21.197  32.350  13.412
27154W        W93695  26.398   3.812  14.767
27155W        W93696  37.326  41.918   3.798
27156W        W93697  31.458   3.118   4.347
27157W        W93698  15.207  23.705  14.580
27158W        W93699  43.936  40.967  11.387
27159W        W93700  12.828  35.641  14.854
27160W        W93701  27.891  24.043   1.967
27161W        W93702   9.118  37.407  13.540
27162W        W93703  25.440  18.927  12.328
27163W        W93704  14.235  14.783  11.557
27164W        W93705  25.100   0.763   4.614
27165W        W93706  27.904   8.723  12.379
27166W        W93707  41.427  28.455  10.654
27167W        W93708   1.415  34.532  12.162
27168W        W93709  26.732  23.143   2.705
27169W        W93710  28.506  39.806  14.331
27170W        W93711   4.694  29.611  14.152
27171W        W93712  27.966   4.965   1.974
27172W        W93713  35.867  29.699   4.516
27173W        W93714  38.437   5.889   2.731
27174W        W93715  16.210  22.289  12.599
27175W        W93716  21.634  34.638   2.237
27176W        W93717  30.473  18.056  11.034
27177W        W93718  12.109  25.691  11.606
27178W        W93719  23.407  18.023  12.818
27179W        W93720  14.039  21.384   1.294
27180W        W93721  40.696  29.005  11.301
27181W        W93722  13.183  41.118   4.103
27182W        W93723   7.359  38.004   3.597
27183W        W93724   9.792  15.522  12.013
27184W        W93725   6.242  42.081   2.799
27185W        W93726  15.557  37.469   5.003
27186W        W93727  30.859   5.856  12.024
27187W        W93728  27.094   4.174   1.834
27188W        W93729  38.375  36.182   3.287
27189W        W93730   9.406   1.361   3.717
27190W        W93731   1.508  36.860   3.848
27191W        W93732  15.536  36.945   3.353
27192W        W93733  28.652  27.143   4.503
27193W        W93734  42.455   7.951   4.770
27194W        W93735  25.467   8.866  10.299
27195W        W93736  22.595  32.641  12.639
27196W        W93737  34.824  20.112   4.336
27197W        W93738  43.671   2.851   4.237
27198W        W93739  10.586  43.901  12.031
27199W        W93740  23.761  34.810   4.180
27200W        W93741  25.948  25.583   0.454
27201W        W93742  38.421  23.059   3.808
27202W        W93743  14.231  25.172   9.985
27203W        W93744   7.344   5.212  13.574
27204W        W93745  41.305   7.625   1.066
27205W        W93746  32.107  40.762   4.541
27206W        W93747  40.415   2.204   0.546
27207W        W93748  43.487  44.199  12.414
27208W        W93749   2.938  35.201   1.255
27209W        W93750  32.172  32.283   1.581
27210W        W93751  22.327   9.828  10.577
27211W        W93752  30.087  43.050  13.546
27212W        W93753  35.304  35.994   4.558
27213W        W93754  43.412   4.951   0.864
27214W        W93755  19.692   9.247   3.573
27215W        W93756   6.866   9.867  12.300
27216W        W93757  22.965  25.750   3.924
27217W        W93758  14.805  42.737  10.794
27218W        W93759  41.529   4.287   2.797
27219W        W93760  43.429  24.592  11.304
27220W        W93761  18.092  23.736  14.438
27221W        W93762  25.079  29.878   0.200
27222W        W93763  31.198  17.815  11.662
27223W        W93764   9.230   4.751  10.826
27224W        W93765  25.657  37.494  10.685
27225W        W93766   2.379  43.665   0.010
27226W        W93767  37.391  21.175   4.484
27227W        W93768  16.591   7.909  13.217
27228W        W93769  13.216  41.396  14.073
27229W        W93770   6.919  36.002  10.250
27230W        W93771  43.992  29.331   5.203
27231W        W93772  28.004  38.088   1.503
27232W        W93773  36.672  29.093  12.961
27233W        W93774  38.577   4.428   0.432
27234W        W93775  44.003  36.569  12.335
27235W        W93776  38.358  21.089  13.413
27236W        W93777  40.927  36.634  11.085
27237W        W93778  43.449  40.924   2.639
27238W        W93779  24.859  26.521  13.501
27239W        W93780   3.273  42.936   4.667
27240W        W93781  39.935  12.162  14.457
27241W        W93782  11.011   7.596   1.943
27242W        W93783  31.556   7.278   2.950
27243W        W93784  41.972  41.898  10.654
27244W        W93785  42.856  22.506  14.121
27245W        W93786  37.926   1.446  12.360
27246W        W93787  15.300  12.825  11.605
27247W        W93788  35.626  15.444  10.417
27248W        W93789  18.654  20.771  13.144
27249W        W93790  25.956   1.316  12.980
27250W        W93791   1.423  30.480  11.724
27251W        W93792  41.094   0.800  13.102
27252W        W93793  31.173  12.800   2.180
27253W        W93794  24.917  13.352  12.625
27254W        W93795  11.429  25.769  13.932
27255W        W93796  22.552  31.399   2.656
27256W        W93797  11.857  14.794  13.504
27257W        W93798   9.408  44.475  10.126
27258W        W93799   8.079  10.741   2.674
27259W        W93800  42.414  41.359   3.085
27260W        W93801  42.712  11.628   4.050
27261W        W93802   6.678  29.848  13.432
27262W        W93803  25.478   4.886   2.250
27263W        W93804  10.719  11.283   1.737
27264W        W93805  10.102  33.510   0.228
27265W        W93806  37.838   4.944   4.502
27266W        W93807  29.575   2.405  11.683
27267W        W93808  33.447  23.032   4.913
27268W        W93809  16.228  34.443   3.111
27269W        W93810  10.025  20.243  11.470
27270W        W93811   1.318   3.797   0.324
27271W        W93812  24.639  29.568  13.510
27272W        W93813  33.183  40.598  13.365
27273W        W93814   5.311  40.132   5.126
27274W        W93815  44.044  31.164   1.216
27275W        W93816  36.810  24.647  12.413
27276W        W93817  13.089  25.036   1.753
27277W        W93818  29.560  25.412  10.456
27278W        W93819  29.472  44.366   4.453
27279W        W93820  26.612   1.302   2.311
27280W        W93821  21.022  22.911   3.781
27281W        W93822  18.064  38.074  12.449
27282W        W93823  42.914  39.728   2.259
27283W        W93824  37.674  29.926   0.888
27284W        W93825   6.938   7.178   1.565
27285W        W93826  22.508  23.431   2.919
27286W        W93827   7.418  12.769  12.521
27287W        W93828  26.158  28.117   2.748
27288W        W93829   6.112  41.063   0.043
27289W        W93830  43.462  40.212   0.888
27290W        W93831  39.657  17.852  12.954
27291W        W93832   0.962  19.872  11.144
27292W        W93833  10.343  14.612  11.547
27293W        W93834  44.943  12.478   0.318
27294W        W93835   9.876   6.657  13.164
27295W        W93836   6.374  20.825  11.592
27296W        W93837  37.572  25.065   0.953
27297W        W93838  13.434  36.646   4.110
27298W        W93839  14.626  43.944   2.159
27299W        W93840  32.484  36.303   3.561
27300W        W93841  10.939  22.178   4.106
27301W        W93842   6.405   0.418  11.573
27302W        W93843  19.142   4.271   1.182
27303W        W93844   6.977  27.502  12.816
27304W        W93845  34.168  17.042   0.267
27305W        W93846  36.848  10.771   2.110
27306W        W93847  30.437  36.720   2.087
27307W        W93848  22.630  18.031  11.718
27308W        W93849  13.827  27.668  11.981
27309W        W93850  16.520   5.030   0.316
27310W        W93851   7.276  35.886  13.939
27311W        W93852   4.906  32.907  12.518
27312W        W93853  23.454   0.289   2.941
27313W        W93854   4.776  27.197   5.257
27314W        W93855  26.897  44.797   1.543
27315W        W93856  33.110  31.609   2.462
27316W        W93857   2.705  14.479  14.759
27317W        W93858  33.658  26.512  14.864
27318W        W93859   7.701  18.259  13.141
27319W        W93860  17.730  28.519  12.297
27320W        W93861  24.289  25.563  11.279
27321W        W93862  35.898  34.664   4.804
27322W        W93863   9.001  26.726   2.235
27323W        W93864  29.037  21.069   1.646
27324W        W93865   5.442  15.216   1.761
27325W        W93866  12.481  31.169   1.477
27326W        W93867  39.561  32.853   0.357
27327W        W93868   1.499  43.255  11.954
27328W        W93869  13.287  38.286  11.286
27329W        W93870  21.963  14.368  13.452
27330W        W93871  35.024   2.542  11.644
27331W        W93872  17.062  14.571   0.755
27332W        W93873  25.463   0.350   4.639
27333W        W93874  30.196   7.312  12.840
27334W        W93875  34.422  17.133  14.583
27335W        W93876  30.482  24.243   0.538
27336W        W93877   1.982   3.502   2.751
27337W        W93878  20.187  44.133  10.181
27338W        W93879  10.381  18.050  11.744
27339W        W93880   0.134  23.517   1.695
27340W        W93881   9.171  13.122   4.046
27341W        W93882  29.113  39.590   3.109
27342W        W93883  15.661  21.667  13.650
27343W        W93884   4.918  18.608   0.838
27344W        W93885   0.260  25.588   4.755
27345W        W93886  35.371  31.408  11.638
27346W        W93887  42.823  18.483   0.371
27347W        W93888  22.505  14.628  13.343
27348W        W93889  34.381  30.921  11.132
27349W        W93890  39.516  19.179  14.727
27350W        W93891  29.070  35.392  14.688
27351W        W93892  43.993  30.445   1.909
27352W        W93893   9.369   7.849   0.866
27353W        W93894  20.789  15.827  12.077
27354W        W93895  15.152   9.645  12.335
27355W        W93896   4.446   6.747  10.365
27356W        W93897  12.844   7.855  14.898
27357W        W93898  28.749  11.749   3.589
27358W        W93899  27.037  18.633   2.245
27359W        W93900  33.115  41.891   0.480
27360W        W93901  10.091  10.381   5.039
27361W        W93902  25.451  22.815  14.352
27362W        W93903  22.017  13.583  12.213
27363W        W93904  35.436  16.218  11.061
27364W        W93905  41.866  20.618   4.893
27365W        W93906  34.511   7.462   3.177
27366W        W93907   9.908  11.447   0.800
27367W        W93908   9.227  27.665  11.458
27368W        W93909  33.385   1.776  12.917
27369W        W93910  35.183   8.181  12.436
27370W        W93911   9.647  14.422   0.723
27371W        W93912  24.734  10.830  12.529
27372W        W93913   2.252  16.836   0.203
27373W        W93914  15.297  11.887  12.793
27374W        W93915  18.456  33.381   3.639
27375W        W93916   0.798   0.764   2.750
27376W        W93917  34.380  25.587   3.818
27377W        W93918  12.453  40.301   2.336
27378W        W93919  26.106  31.848  11.538
27379W        W93920  24.077  27.239  11.462
27380W        W93921  24.582  27.533   4.619
27381W        W93922   3.389  40.290   0.248
27382W        W93923  24.356  11.539  14.406
27383W        W93924  24.717  23.664   0.232
27384W        W93925  14.142  10.973  14.432
27385W        W93926  42.112  21.738  13.031
27386W        W93927   6.832  33.432   3.457
27387W        W93928  13.650   2.490   1.701
27388W        W93929   4.932  24.270   3.606
27389W        W93930   5.323  31.532  10.541
27390W        W93931   8.325  21.593   0.772
27391W        W93932  29.159   5.894  12.989
27392W        W93933   5.883  10.578   0.313
27393W        W93934   5.536  35.501  12.406
27394W        W93935  38.509  14.254  14.926
27395W        W93936  19.392  32.298   4.598
27396W        W93937  26.196  39.864  11.143
27397W        W93938   4.246  26.878   0.503
27398W        W93939  26.410  10.896  12.629
27399W        W93940  20.287  21.974   2.720
27400W        W93941  26.924  36.381  11.616
27401W        W93942  15.893  32.550  12.934
27402W        W93943  16.212  14.599   3.296
27403W        W93944  43.225  40.837  14.074
27404W        W93945  10.323  41.865   4.169
27405W        W93946  39.442  14.567   0.307
27406W        W93947  34.881  37.458   2.879
27407W        W93948   1.286   0.998   0.936
27408W        W93949  42.149  17.012   9.970
27409W        W93950  17.231  28.553  14.482
27410W        W93951   8.379   4.344  11.504
27411W        W93952   7.987  44.842  10.582
27412W        W93953  22.103  22.036   1.058
27413W        W93954  32.402  42.814  13.730
27414W        W93955  44.741  12.574  12.808
27415W        W93956  15.421  39.023   2.820
27416W        W93957  20.603  11.856   2.276
27417W        W93958   6.338  18.328   4.093
27418W        W93959   1.729  26.550  13.381
27419W        W93960   7.327   8.216  10.651
27420W        W93961  15.831  30.976  13.969
27421W        W93962  25.124  38.547  12.558
27422W        W93963  18.255  39.281   4.163
27423W        W93964   9.864  13.333   0.540
27424W        W93965  32.350  19.476  11.614
27425W        W93966  14.172  13.846   1.724
27426W        W93967  17.274  12.026  13.471
27427W        W93968  40.567  28.129   0.544
27428W        W93969   2.996   9.722  10.951
27429W        W93970  35.909  44.922  14.845
27430W        W93971  16.551  10.939  10.925
27431W        W93972  33.535  39.825  13.502
27432W        W93973  39.734  22.211  12.764
27433W        W93974  31.057   7.832   1.680
27434W        W93975  36.301  44.745   0.763
27435W        W93976   9.150  44.776   4.204
27436W        W93977  36.636  13.364  14.454
27437W        W93978  41.709   7.278  11.153
27438W        W93979  34.448  35.619  14.587
27439W        W93980   5.785  21.190  12.668
27440W        W93981  38.962  25.237   2.791
27441W        W93982  21.946   0.576   4.010
27442W        W93983  20.289   4.290   0.492
27443W        W93984  13.460  23.123  13.053
27444W        W93985  16.248   7.467  11.503
27445W        W93986  27.697   3.446  14.506
27446W        W93987  13.800  44.048  10.713
27447W        W93988  35.899  32.041   0.752
27448W        W93989  32.481  37.794   0.886
27449W        W93990  26.605   5.634   3.998
27450W        W93991   0.051  11.612  11.789
27451W        W93992   3.041  32.998  12.891
27452W        W93993  18.340  35.432   1.832
27453W        W93994   2.183  26.954  12.096
27454W        W93995  43.093  36.490  13.009
27455W        W93996  21.029  22.637  10.625
27456W        W93997  23.188   6.627   1.794
27457W        W93998  34.555   0.436   4.443
27458W        W93999  29.095  37.161  12.422
27459W        W94000  13.188  20.793   1.310
27460W        W94001  40.345  43.993   2.084
27461W        W94002   7.863  28.640   2.866
27462W        W94003  20.442  15.291   2.217
27463W        W94004   4.816  30.073   4.596
27464W        W94005  38.770  25.554   0.442
27465W        W94006  29.441  31.516   1.960
27466W        W94007   6.423  29.620  14.666
27467W        W94008  30.786  28.428   1.966
27468W        W94009  37.229  40.923  13.814
27469W        W94010  29.477  40.060  12.133
27470W        W94011  41.396   0.783  13.580
27471W        W94012  36.863   8.675  12.511
27472W        W94013  17.591   0.730   4.617
27473W        W94014  15.108   8.110  14.285
27474W        W94015  18.165  36.306   3.664
27475W        W94016  15.080   0.349  13.755
27476W        W94017  35.448   0.815   4.357
27477W        W94018   9.370  36.776   1.147
27478W        W94019  19.098  15.918  10.072
27479W        W94020  26.350  13.716  11.034
27480W        W94021  35.374  10.586  10.667
27481W        W94022  24.917   8.858   0.322
27482W        W94023  42.682  14.794   2.644
27483W        W94024  33.706  14.350  12.855
27484W        W94025  14.788  26.931  14.756
27485W        W94026   0.826   2.223   3.740
27486W        W94027  15.708  29.182  13.467
27487W        W94028   3.921   0.319  11.708
27488W        W94029  29.880   8.204  11.930
27489W        W94030  12.241   2.994   1.249
27490W        W94031  21.560   6.197   0.885
27491W        W94032   4.737  30.162   0.986
27492W        W94033   1.016  32.991   0.555
27493W        W94034   1.979   9.450   2.208
27494W        W94035  37.383  12.553  14.992
27495W        W94036  20.112  28.677   0.907
27496W        W94037  30.988  24.727   3.454
27497W        W94038  30.050  16.677  13.318
27498W        W94039  11.025  42.424  11.885
27499W        W94040  29.956  15.943  10.665
27500W        W94041  20.233   1.492   0.841
27501W        W94042   9.650  20.600  14.449
27502W        W94043  14.794  17.021  13.026
27503W        W94044   6.328  15.151  12.342
27504W        W94045  36.515  39.544  13.914
27505W        W94046  30.910  19.618  14.873
27506W        W94047  22.814  18.215  14.021
27507W        W94048  13.928  29.989  10.668
27508W        W94049  44.279  29.109  12.932
27509W        W94050  24.511  17.917  13.974
27510W        W94051  29.714  10.859   1.045
27511W        W94052  11.172  14.916  12.600
27512W        W94053  15.261  40.597  13.340
27513W        W94054   7.787  27.801   3.198
27514W        W94055  22.316   6.336   1.964
27515W        W94056  12.113  31.656   0.384
27516W        W94057   9.495  12.188   4.233
27517W        W94058  18.227  28.948  13.508
27518W        W94059  32.630  24.471  13.967
27519W        W94060   4.724   6.577  12.092
27520W        W94061   8.868  44.958   3.297
27521W        W94062  26.037  36.399   3.094
27522W        W94063   4.836  27.062  10.970
27523W        W94064  13.763   0.798   1.579
27524W        W94065  18.091   6.287   4.145
27525W        W94066  33.738   6.861   3.377
27526W        W94067  43.511   1.364  12.166
27527W        W94068  29.364   5.125   0.701
27528W        W94069   4.251  11.678   3.389
27529W        W94070   3.481  23.647  13.590
27530W        W94071  32.897  32.364   1.051
27531W        W94072  28.001  26.994   4.815
27532W        W94073  11.173  38.058   3.126
27533W        W94074  14.851   4.844  12.170
27534W        W94075  27.178   2.717  13.950
27535W        W94076   3.672  14.176  14.284
27536W        W94077  18.022   9.075  10.547
27537W        W94078  29.355  40.960   4.135
27538W        W94079  23.682  13.493  13.845
27539W        W94080  39.245  12.862  11.126
27540W        W94081  10.698  15.692   4.692
27541W        W94082  40.604  20.473   2.713
27542W        W94083  41.441  22.232   1.319
27543W        W94084  35.346  36.379  12.981
27544W        W94085   6.321  34.577   0.914
27545W        W94086   9.143  14.100  14.874
27546W        W94087  33.515   7.480   4.069
27547W        W94088  36.493  33.831   0.283
27548W        W94089   8.180  37.020   3.172
27549W        W94090  35.473  39.001  10.701
27550W        W94091  31.963  32.412  14.356
27551W        W94092  33.712   5.783   1.590
27552W        W94093  35.370   1.690   1.215
27553W        W94094  29.232   6.224   1.216
27554W        W94095  28.697  34.622   0.279
27555W        W94096   8.209  26.967  10.339
27556W        W94097  40.932  41.956  11.762
27557W        W94098  38.509   4.372   4.600
27558W        W94099  15.752  33.367   2.624
27559W        W94100  31.515  25.610  11.475
27560W        W94101  32.965  30.309  12.412
27561W        W94102  15.068  17.603  12.548
27562W        W94103  16.383  22.007   0.408
27563W        W94104  19.389  25.176   4.505
27564W        W94105  20.527  15.227   3.267
27565W        W94106   8.742  16.685  11.070
27566W        W94107  40.220   1.808  11.731
27567W        W94108  31.647  30.522  14.445
27568W        W94109   6.196  19.821  12.479
27569W        W94110   0.724  29.555   4.265
27570W        W94111   3.697  41.444  13.873
27571W        W94112   2.232  21.610  13.502
27572W        W94113  19.056  37.384   1.914
27573W        W94114  30.437  26.093  12.330
27574W        W94115  27.524  16.749   0.880
27575W        W94116  44.271  33.485   4.677
27576W        W94117   3.000  13.065  12.553
27577W        W94118  32.667   2.605   3.122
27578W        W94119   8.991  24.271   2.335
27579W        W94120   4.703  25.527   3.286
27580W        W94121  28.623  21.380   4.595
27581W        W94122   1.359  37.855   1.911
27582W        W94123  27.958   8.341   2.652
27583W        W94124  18.679  29.586   0.834
27584W        W94125  36.840   2.283  14.381
27585W        W94126   5.395  11.346  10.967
27586W        W94127  43.762  15.492  11.885
27587W        W94128  41.515  25.060   0.061
27588W        W94129   9.391  22.013   2.769
27589W        W94130  36.857  11.739  12.618
27590W        W94131  30.781   3.759  13.017
27591W        W94132   0.495  43.530   0.728
27592W        W94133   6.154  14.740   0.490
27593W        W94134  21.615  20.954  12.405
27594W        W94135  31.891  37.190  13.238
27595W        W94136  42.775  30.925  13.571
27596W        W94137  43.964  27.023   4.902
27597W        W94138  38.196  44.367   4.762
27598W        W94139   6.974  17.269   0.400
27599W        W94140  11.182  30.919   1.535
27600W        W94141  24.750  14.185  12.060
27601W        W94142  29.074  44.768   4.039
27602W        W94143  42.149  22.716   2.445
27603W        W94144  16.903  24.053   3.677
27604W        W94145  27.115  21.903   4.809
27605W        W94146  44.905  22.238  12.988
27606W        W94147   3.086   8.774  12.418
27607W        W94148  44.213  29.597  13.053
27608W        W94149   3.706  27.731  13.820
27609W        W94150  32.291  35.299   3.307
27610W        W94151   5.184  17.643   0.384
27611W        W94152   8.862  43.840  12.502
27612W        W94153  13.489  34.456  10.370
27613W        W94154  10.216  23.682   0.271
27614W        W94155  33.318  44.731  12.685
27615W        W94156  24.744  13.196   3.688
27616W        W94157   6.345  13.703  12.995
27617W        W94158  26.126  26.076   3.607
27618W        W94159  15.823  29.423   1.686
27619W        W94160  39.293  38.416  11.495
27620W        W94161  32.077  20.520  13.107
27621W        W94162  40.489  31.059   3.630
27622W        W94163   1.464  20.217   3.663
27623W        W94164  22.781  31.914   0.064
27624W        W94165   8.777  15.267  12.381
27625W        W94166  39.120  13.832  12.991
27626W        W94167  20.786  24.625  10.822
27627W        W94168  19.768  10.357  13.346
27628W        W94169   6.588   3.387  14.052
27629W        W94170  29.505  11.431  12.597
27630W        W94171  25.601   5.930   0.228
27631W        W94172  16.876  31.903  13.204
27632W        W94173   1.161  29.594   0.017
27633W        W94174   5.730  21.001   2.815
27634W        W94175  41.443  41.295  13.914
27635W        W94176  25.405  24.747   1.706
27636W        W94177   3.680   5.673  11.983
27637W        W94178  28.894  29.612  10.778
27638W        W94179  22.701  36.884  13.809
27639W        W94180  14.673  23.098   1.547
27640W        W94181  24.749  33.871  13.013
27641W        W94182  24.071  19.664   4.400
27642W        W94183  36.828  15.075   5.162
27643W        W94184   1.540   0.826   3.301
27644W        W94185  39.641   5.453   2.383
27645W        W94186  15.734  36.290  13.371
27646W        W94187   4.873  14.842  13.422
27647W        W94188  41.241  37.966  11.285
27648W        W94189  23.749  32.047  11.572
27649W        W94190  26.252  12.613  12.060
27650W        W94191  23.453  27.424   3.294
27651W        W94192  44.506   5.069   0.461
27652W        W94193  22.680   2.280  10.691
27653W        W94194  20.257   5.984   0.871
27654W        W94195  23.634  36.438  14.018
27655W        W94196  30.152  42.260  11.640
27656W        W94197  11.849  11.835   4.068
27657W        W94198  31.153  19.975  12.586
27658W        W94199  16.110  25.581   3.123
27659W        W94200   3.239  42.320  13.540
27660W        W94201   4.028  20.958   4.959
27661W        W94202  43.941   9.925  12.057
27662W        W94203   5.921  13.786  10.579
27663W        W94204  43.486  17.911  12.131
27664W        W94205  12.360   3.795   4.120
27665W        W94206  43.852  13.560   2.409
27666W        W94207  19.293  17.138  13.741
27667W        W94208  35.299  24.264  13.068
27668W        W94209   8.337  32.742   4.801
27669W        W94210   9.675  24.006  14.443
27670W        W94211  37.559  16.755   2.681
27671W        W94212  27.677  15.201  10.130
27672W        W94213  37.455  24.289  10.730
27673W        W94214   8.227  13.643  12.614
27674W        W94215  31.612  28.127   1.003
27675W        W94216  32.500   5.768  10.478
27676W        W94217  14.119  34.541  13.527
27677W        W94218  43.901  40.498  12.633
27678W        W94219  34.895  35.378  12.344
27679W        W94220  43.703  30.682   2.813
27680W        W94221  15.473  34.985  10.227
27681W        W94222   3.932   7.962  14.473
27682W        W94223  16.109  35.586   0.900
27683W        W94224   1.503   7.898   2.826
27684W        W94225   6.904  15.233   0.490
27685W        W94226  29.924  11.742   1.280
27686W        W94227   7.166   1.872   3.828
27687W        W94228  11.253  39.329  12.945
27688W        W94229  31.864  38.959   3.130
27689W        W94230  20.092   5.863  11.111
27690W        W94231  30.121  15.303  14.416
27691W        W94232  37.993  32.721  14.178
27692W        W94233   4.394   1.339  14.880
27693W        W94234  17.948  22.265  12.797
27694W        W94235  32.919   9.559  13.591
27695W        W94236  27.103  31.084   2.143
27696W        W94237  36.528  33.413  10.504
27697W        W94238   6.894   6.421   2.061
27698W        W94239  15.095  39.059   3.742
27699W        W94240  17.044  34.838   1.657
27700W        W94241  28.142   2.344   5.105
27701W        W94242  25.569  32.115   4.887
27702W        W94243  13.736  36.729   0.293
27703W        W94244  20.535  28.986   3.241
27704W        W94245  26.581  29.941   3.810
27705W        W94246  11.613  24.074  13.125
27706W        W94247  25.609  15.362   0.547
27707W        W94248  23.622  13.619   4.287
27708W        W94249  41.142  37.145   2.369
27709W        W94250  26.368  28.883  12.716
27710W        W94251  36.561  13.100   0.045
27711W        W94252  14.270  31.703  13.548
27712W        W94253  40.517   4.672  13.881
27713W        W94254   4.703  11.615  10.079
27714W        W94255  13.378  31.365   1.075
27715W        W94256  13.440  42.582   3.404
27716W        W94257  20.717  20.621   4.928
27717W        W94258  13.680  22.259   1.911
27718W        W94259   0.805  22.267   1.011
27719W        W94260  36.959  21.745  13.967
27720W        W94261  28.997   0.861   2.629
27721W        W94262  12.048  24.501  12.514
27722W        W94263  22.122   6.173   2.773
27723W        W94264  28.690  26.812   1.610
27724W        W94265  43.198  35.965   4.755
27725W        W94266  37.142  14.979  10.423
27726W        W94267   2.691  29.637  14.953
27727W        W94268   0.239  13.462   4.317
27728W        W94269  39.771  44.224   0.220
27729W        W94270  25.789   8.401  13.793
27730W        W94271  30.064  37.083   2.265
27731W        W94272  26.063   1.815   2.878
27732W        W94273  39.362   2.000   4.128
27733W        W94274  29.997  16.216   4.616
27734W        W94275  32.663  23.632  12.887
27735W        W94276  15.840  28.358   4.063
27736W        W94277   6.203  27.037  14.260
27737W        W94278  23.027  19.055   3.347
27738W        W94279  37.840  15.377  10.976
27739W        W94280  14.317  19.001  14.451
27740W        W94281  10.083  25.400  12.443
27741W        W94282  34.931   4.073  14.042
27742W        W94283   4.887  26.646   0.900
27743W        W94284  31.631   7.392  12.233
27744W        W94285  39.942  32.505  11.954
27745W        W94286  29.980   2.301  10.885
27746W        W94287   0.859   8.760   1.442
27747W        W94288  19.458  37.135  11.130
27748W        W94289  40.776   6.263   2.891
27749W        W94290  32.564  35.066   4.323
27750W        W94291  36.070  41.021   3.117
27751W        W94292   6.399  18.805  12.377
27752W        W94293   9.317  30.485  12.581
27753W        W94294  22.729  29.944   2.711
27754W        W94295  26.648  19.688  10.674
27755W        W94296  42.468  20.757  12.852
27756W        W94297  20.485   1.694  12.995
27757W        W94298   0.385   1.962  11.865
27758W        W94299  38.005  15.215  10.478
27759W        W94300  42.736   7.971   1.340
27760W        W94301  29.670  36.710   5.092
27761W        W94302   1.744  20.744   3.762
27762W        W94303  16.353  25.538  14.884
27763W        W94304   0.781  42.495  11.991
27764W        W94305   3.940  29.210   0.335
27765W        W94306  27.976  10.328   1.469
27766W        W94307  16.611  33.684  13.405
27767W        W94308  44.677  42.394   0.484
27768W        W94309  32.113  33.616  13.890
27769W        W94310  18.057  37.163   4.827
27770W        W94311   6.860  10.467  12.234
27771W        W94312  12.600  43.234  12.029
27772W        W94313  22.671  21.161   0.860
27773W        W94314  26.180  10.952   2.255
27774W        W94315  25.908   0.017  13.814
27775W        W94316   7.961  17.149   0.476
27776W        W94317  34.216  13.697   9.728
27777W        W94318  34.659  42.013  14.417
27778W        W94319  21.618   8.763  13.541
27779W        W94320  10.232  35.015   4.248
27780W        W94321  16.477  35.996   4.719
27781W        W94322  35.212   0.869   0.957
27782W        W94323   9.762  34.830   5.010
27783W        W94324  41.822  30.458   9.948
27784W        W94325  36.220   8.487   2.774
27785W        W94326   7.922  35.062  10.887
27786W        W94327  38.390  29.130   3.306
27787W        W94328  31.313  30.120   1.425
27788W        W94329  44.271  20.820   1.427
27789W        W94330  17.546  36.777   1.765
27790W        W94331  31.461  41.590   0.334
27791W        W94332  26.596  35.014   1.284
27792W        W94333  40.807  36.546   3.692
27793W        W94334   6.380  12.708  13.100
27794W        W94335   3.354  22.520   3.350
27795W        W94336  33.631  12.585   2.565
27796W        W94337  12.622  21.356   3.009
27797W        W94338  41.018  23.161  11.881
27798W        W94339  43.890  26.678   2.217
27799W        W94340  28.130  33.091  11.260
27800W        W94341  37.923  44.704   1.410
27801W        W94342   0.747  20.079   3.123
27802W        W94343  37.800  34.917   4.350
27803W        W94344  42.467  21.052   2.674
27804W        W94345  24.099  41.568  13.623
27805W        W94346  44.774  36.444   2.292
27806W        W94347  29.785   7.362  14.926
27807W        W94348   7.147  22.107   0.895
27808W        W94349   6.216  10.312   0.665
27809W        W94350  34.048  17.526   0.336
27810W        W94351  34.142   1.839  11.254
27811W        W94352  37.680  24.150   2.403
27812W        W94353   7.292   1.335   0.829
27813W        W94354   6.960  15.357  10.677
27814W        W94355  32.015  32.054  14.001
27815W        W94356  33.947  19.335  12.503
27816W        W94357  41.411  24.753  14.444
27817W        W94358  11.036  25.707  10.708
27818W        W94359   4.712  13.867  10.764
27819W        W94360  30.594   0.011   1.731
27820W        W94361  11.680  33.360   2.366
27821W        W94362   9.860  13.244  12.970
27822W        W94363  21.089  13.301   4.282
27823W        W94364  17.755  32.110   4.654
27824W        W94365  23.796   0.423  11.517
27825W        W94366  11.776  36.703  12.072
27826W        W94367  32.349  29.497  13.390
27827W        W94368  20.510   6.645  11.210
27828W        W94369   8.406  36.966   3.627
27829W        W94370   4.731  44.460   2.667
27830W        W94371  21.605  39.039   0.341
27831W        W94372   2.962   5.807  10.697
27832W        W94373   1.226   3.322   3.188
27833W        W94374  30.477  43.713   2.482
27834W        W94375  34.982   5.415   5.349
27835W        W94376  37.164  13.166   4.688
27836W        W94377  36.062   4.868  12.199
27837W        W94378  27.239  35.040   4.686
27838W        W94379   6.238  10.704   1.604
27839W        W94380  20.687  24.765  11.790
27840W        W94381  42.972  31.030  12.108
27841W        W94382  12.641   5.286  10.500
27842W        W94383  26.429   1.819   4.545
27843W        W94384  26.947  17.344   0.602
27844W        W94385  34.199  13.675   1.881
27845W        W94386  10.807  27.263   4.151
27846W        W94387   8.818  20.270   1.725
27847W        W94388  33.606  29.949   4.262
27848W        W94389  39.236   2.327   3.307
27849W        W94390  10.206  37.591  11.899
27850W        W94391  16.588  13.934   3.764
27851W        W94392  41.795  40.341   2.469
27852W        W94393  29.998   0.821   3.705
27853W        W94394  27.625  40.404  12.290
27854W        W94395  29.960  11.499  11.510
27855W        W94396  12.795  41.548  12.787
27856W        W94397   2.065  22.838  14.044
27857W        W94398  27.306  29.022   4.095
27858W        W94399  35.734  15.947  10.286
27859W        W94400   3.659   2.820  12.219
27860W        W94401  20.288   2.916   0.197
27861W        W94402   1.421  23.796   9.733
27862W        W94403  10.249   2.561  11.465
27863W        W94404  34.449  15.740   3.901
27864W        W94405   2.395  30.017   3.654
27865W        W94406  38.875  12.490  11.107
27866W        W94407   3.802  19.647  14.830
27867W        W94408  13.850  41.069  11.076
27868W        W94409  27.618  25.275  12.478
27869W        W94410  30.179   1.458  10.977
27870W        W94411   0.552   8.231   0.394
27871W        W94412  25.761  39.946   2.492
27872W        W94413  31.673  11.148   4.598
27873W        W94414  10.719   5.159   4.154
27874W        W94415  13.279   5.270  11.096
27875W        W94416  11.267  18.237   4.083
27876W        W94417  27.541   6.285  13.933
27877W        W94418  18.816  16.727   9.979
27878W        W94419  28.677   8.878  13.008
27879W        W94420  34.550  41.779   4.591
27880W        W94421  26.037  35.284   4.873
27881W        W94422   1.710  44.277   0.364
27882W        W94423   1.832  41.496   0.389
27883W        W94424   2.854  20.153   0.912
27884W        W94425   7.359  23.001   2.715
27885W        W94426  19.844  21.644   4.703
27886W        W94427  38.440  16.554   2.591
27887W        W94428  39.989  39.344  12.898
27888W        W94429  31.824  16.750  11.785
27889W        W94430  33.123  18.178   2.191
27890W        W94431   8.365  29.430  10.392
27891W        W94432   9.734  22.142  14.942
27892W        W94433  26.582  28.932   2.414
27893W        W94434   2.009   2.413   3.188
27894W        W94435  31.504  35.563   4.887
27895W        W94436  33.225  25.131   1.970
27896W        W94437  35.072  42.577  10.160
27897W        W94438  14.190  12.426  14.892
27898W        W94439  43.197  28.556   4.942
27899W        W94440  34.548  24.183   1.325
27900W        W94441  22.459  41.815   2.328
27901W        W94442  22.630   1.059   1.021
27902W        W94443  36.876  42.349  13.255
27903W        W94444  23.937  37.782   3.778
27904W        W94445  22.136  44.224  13.426
27905W        W94446  18.146  19.182   0.033
27906W        W94447  32.013  37.840  10.679
27907W        W94448  26.069  29.948   0.163
27908W        W94449  23.875  20.714  13.422
27909W        W94450  16.372  25.595   3.604
27910W        W94451  15.648  40.934  12.543
27911W        W94452  31.080   1.969  10.750
27912W        W94453   6.226  36.970  13.990
27913W        W94454   5.221  22.318  13.339
27914W        W94455  41.894  20.090   2.378
27915W        W94456  42.972   9.454  11.153
27916W        W94457  21.123  40.985   4.622
27917W        W94458  36.659  25.105  12.596
27918W        W94459  24.600  35.972  12.359
27919W        W94460  37.521  13.675  12.358
27920W        W94461  36.940   5.124   2.320
27921W        W94462  35.923   0.762   2.689
27922W        W94463  33.092  43.286  14.464
27923W        W94464  24.656  38.477  11.975
27924W        W94465  14.721  24.061  13.815
27925W        W94466  39.994   2.409   0.802
27926W        W94467  42.500  24.434   3.352
27927W        W94468  21.687  26.456   2.405
27928W        W94469  11.545  13.328  13.875
27929W        W94470  25.474  16.598  14.962
27930W        W94471  11.107  19.438  11.376
27931W        W94472  20.275  17.680   1.704
27932W        W94473  15.638  19.241   3.713
27933W        W94474  13.789  28.184   0.261
27934W        W94475  25.729  43.032   3.227
27935W        W94476  18.196  40.499   2.480
27936W        W94477  10.380  10.050  13.538
27937W        W94478  39.599   1.793  13.890
27938W        W94479  42.929   6.477  11.927
27939W        W94480  15.781  19.540   1.360
27940W        W94481   1.580  36.367  10.632
27941W        W94482   4.891  15.334  13.357
27942W        W94483  25.915  37.966   4.557
27943W        W94484  25.617  26.621   0.473
27944W        W94485  40.478  42.991   0.041
27945W        W94486  19.789   8.728  14.436
27946W        W94487  39.065  39.801   9.922
27947W        W94488  20.295  37.692   1.210
27948W        W94489   4.592  26.637  13.468
27949W        W94490   0.085  40.448  11.035
27950W        W94491   6.463  34.486   2.921
27951W        W94492  32.847   6.885   4.093
27952W        W94493   4.747  40.178   9.989
27953W        W94494  32.107  33.527  12.140
27954W        W94495  36.513  11.264  10.631
27955W        W94496   4.435  40.238  10.648
27956W        W94497   1.568   9.767   4.257
27957W        W94498   4.877  22.686  11.398
27958W        W94499  28.557  15.341  12.468
27959W        W94500   3.708  23.997   0.516
27960W        W94501  36.748  31.012   1.388
27961W        W94502   3.528  36.266   4.274
27962W        W94503  10.069  34.876  12.881
27963W        W94504  12.823   9.725  13.278
27964W        W94505  18.744   6.650   1.345
27965W        W94506  12.132   0.964  13.148
27966W        W94507  29.989  24.993   0.458
27967W        W94508  37.841  37.329  11.387
27968W        W94509  21.476  20.245   3.177
27969W        W94510  11.498   0.014  12.514
27970W        W94511  25.551  27.964   0.835
27971W        W94512  22.530  11.220   4.807
27972W        W94513   1.339  33.895   1.647
27973W        W94514   3.210  26.287  10.657
27974W        W94515  39.373   7.236   3.634
27975W        W94516   0.089  14.105   3.669
27976W        W94517  15.250  11.788  14.221
27977W        W94518  17.294  31.235   3.280
27978W        W94519  39.842  15.330  10.985
27979W        W94520  27.032  42.842  10.854
27980W        W94521  29.364  35.345  13.862
27981W        W94522  31.596  18.557  13.699
27982W        W94523  20.741  39.461   1.469
27983W        W94524  29.929  31.028   0.721
27984W        W94525  44.178  16.019  11.211
27985W        W94526  28.598  37.036  12.272
27986W        W94527   9.103  41.368  14.489
27987W        W94528   6.672  29.882   4.544
27988W        W94529  16.817   5.840  10.929
27989W        W94530  12.868  16.130   3.290
27990W        W94531  27.903  24.016   0.367
27991W        W94532  21.117   4.509  14.377
27992W        W94533  43.037   7.288  10.604
27993W        W94534  22.321  11.721  11.201
27994W        W94535  17.582  32.177  12.180
27995W        W94536  14.278  19.636   1.170
27996W        W94537  31.365  33.032  13.026
27997W        W94538  41.231  39.687  10.857
27998W        W94539  33.365  12.725   0.358
27999W        W94540  15.363   5.290  11.386
28000W        W94541  42.068  38.020  13.970
28001W        W94542  24.267  18.788  11.510
28002W        W94543   3.759   6.887   4.198
28003W        W94544  13.192  33.926   3.788
28004W        W94545  23.041   6.878  14.503
28005W        W94546  13.305   9.095   2.625
28006W        W94547  17.157  37.539  11.531
28007W        W94548  31.519   3.271  13.783
28008W        W94549  17.857   7.273  14.002
28009W        W94550  27.790   8.981   1.237
28010W        W94551  27.640  22.973  13.989
28011W        W94552  24.143  38.899  11.590
28012W        W94553  35.867  16.198  10.722
28013W        W94554   7.831   3.425   3.121
28014W        W94555  11.804  24.743  10.310
28015W        W94556  21.644   8.351   1.333
28016W        W94557  39.785  17.148   4.123
28017W        W94558  19.957  19.282   1.289
28018W        W94559  42.743  36.236  13.353
28019W        W94560   1.298  17.355   2.391
28020W        W94561  32.149   4.063   2.183
28021W        W94562  23.017  42.477  10.853
28022W        W94563  34.044   5.756   1.192
28023W        W94564  41.427   2.249   1.881
28024W        W94565  43.769  36.352   2.250
28025W        W94566  26.533  22.458  13.305
28026W        W94567  41.449  19.385  13.870
28027W        W94568   0.520  31.212   2.310
28028W        W94569  31.007  43.347   2.993
28029W        W94570  24.143  42.785   4.691
28030W        W94571  21.540  17.761   2.608
28031W        W94572  25.232  36.196   4.240
28032W        W94573  43.577  43.268   2.568
28033W        W94574  43.967   7.341  12.778
28034W        W94575   8.273  18.229   1.879
28035W        W94576  11.847  19.511  12.832
28036W        W94577  40.626  27.232  13.788
28037W        W94578  37.649  37.372  10.547
28038W        W94579  31.407  19.779   0.806
28039W        W94580   6.658   6.421   0.860
28040W        W94581   1.722  14.686   3.810
28041W        W94582  24.075   8.149   4.110
28042W        W94583  37.496  24.374  13.807
28043W        W94584  10.607   6.340   2.951
28044W        W94585  24.004  39.899   2.114
28045W        W94586   1.082  36.363  11.712
28046W        W94587  14.225  11.645  13.288
28047W        W94588  17.358  27.368  12.540
28048W        W94589  23.998  21.630  12.478
28049W        W94590  26.500   3.295   3.745
28050W        W94591  13.381   7.785  14.841
28051W        W94592  16.360  42.990  12.051
28052W        W94593  19.414  43.644  14.801
28053W        W94594   0.800  17.661  10.962
28054W        W94595   0.283  22.829   3.557
28055W        W94596  32.415  37.254   1.763
28056W        W94597  21.022   0.659   1.248
28057W        W94598  39.900   2.203  14.285
28058W        W94599  11.588  26.563   0.306
28059W        W94600   3.278  12.832  14.298
28060W        W94601   2.195  15.164  12.676
28061W        W94602  29.939  18.255   4.187
28062W        W94603  41.802  17.065   0.907
28063W        W94604  15.298  27.893  11.972
28064W        W94605  10.706   3.915   3.282
28065W        W94606  25.607  44.774   2.298
28066W        W94607  29.416  27.576   4.504
28067W        W94608  34.580  33.648  11.685
28068W        W94609  10.082  25.301  11.072
28069W        W94610  42.814  33.998   0.382
28070W        W94611  28.704  18.714   1.715
28071W        W94612  16.149  30.570  14.359
28072W        W94613  31.101  30.360  12.160
28073W        W94614  44.292  38.166  14.498
28074W        W94615   9.837  17.121  14.900
28075W        W94616  20.013  21.169   2.236
28076W        W94617   6.712   5.451   1.966
28077W        W94618  39.805  40.701   2.841
28078W        W94619  31.973   3.594  10.208
28079W        W94620  21.945  42.850   3.838
28080W        W94621  16.670  25.229   4.744
28081W        W94622  23.617   5.836  13.968
28082W        W94623   8.655  29.060   4.098
28083W        W94624  36.660  21.545   2.787
28084W        W94625  23.646  28.416   4.975
28085W        W94626  25.289  12.161   1.467
28086W        W94627   6.016  21.094  13.409
28087W        W94628   5.943  31.847  13.342
28088W        W94629   3.518  15.600   1.380
28089W        W94630  21.614  18.774   4.853
28090W        W94631  27.649  36.806   1.443
28091W        W94632  30.134  27.862  11.558
28092W        W94633  20.862  39.403   4.225
28093W        W94634   1.859  15.821  11.581
28094W        W94635   4.934  26.250  13.003
28095W        W94636   7.815  44.966   3.890
28096W        W94637  20.516  38.903  12.191
28097W        W94638  33.399  37.340  10.280
28098W        W94639  10.906  13.915   1.312
28099W        W94640  37.070  10.989   0.655
28100W        W94641  41.862  16.770   1.821
28101W        W94642   1.791  40.599   4.483
28102W        W94643  25.497  10.118   0.399
28103W        W94644  35.013   5.475   1.356
28104W        W94645  14.263  31.521  12.177
28105W        W94646  11.606  32.896   1.314
28106W        W94647  15.188  12.546   4.110
28107W        W94648  41.328  20.118   0.536
28108W        W94649  20.345   2.444  14.346
28109W        W94650  26.232  39.351   4.175
28110W        W94651   7.205  16.249  14.029
28111W        W94652   2.218  39.277  11.976
28112W        W94653   0.542  36.905   0.483
28113W        W94654  23.126  13.805  12.422
28114W        W94655  41.044  31.996   1.780
28115W        W94656  25.003  21.143  14.813
28116W        W94657  22.200  43.235   2.143
28117W        W94658  44.254   7.421   4.144
28118W        W94659  35.892  41.438  14.351
28119W        W94660  24.450  22.158   0.425
28120W        W94661  44.924  16.322  12.432
28121W        W94662  30.573   8.873  12.503
28122W        W94663  16.234  27.433   1.945
28123W        W94664  20.569  13.843   0.861
28124W        W94665  24.295  36.500   4.078
28125W        W94666  41.565  23.942  10.764
28126W        W94667  40.464   7.597   0.760
28127W        W94668  27.701  10.160   0.953
28128W        W94669  33.811  14.664   1.702
28129W        W94670  44.789   1.685   4.662
28130W        W94671  36.088  42.840  13.574
28131W        W94672   1.965  24.354   4.314
28132W        W94673  25.990  32.155   4.584
28133W        W94674  35.066  15.602  14.753
28134W        W94675  10.044  21.177  12.716
28135W        W94676  21.284  15.062  14.793
28136W        W94677  14.087  29.636   3.581
28137W        W94678  44.682  36.631   1.811
28138W        W94679   0.438   6.304  11.701
28139W        W94680  14.982  22.715   1.734
28140W        W94681  35.146  22.982  11.932
28141W        W94682   3.496   4.815   3.376
28142W        W94683  44.294   1.940   0.266
28143W        W94684   4.293   0.471   5.418
28144W        W94685  29.122   5.335   0.213
28145W        W94686   7.415  19.971   0.879
28146W        W94687   1.426  14.559   2.392
28147W        W94688  27.919  43.396   0.047
28148W        W94689  21.482   7.947   3.257
28149W        W94690  21.644  17.066   2.192
28150W        W94691  34.569  18.115  10.760
28151W        W94692   6.659  25.757   4.256
28152W        W94693   2.428  16.530  13.043
28153W        W94694   5.633  39.268   5.314
28154W        W94695  28.555  17.892  13.509
28155W        W94696  32.895  34.115  14.778
28156W        W94697  17.593  33.578  13.388
28157W        W94698   6.453  20.582  11.149
28158W        W94699  17.321  24.579   0.837
28159W        W94700  29.643   4.003  12.484
28160W        W94701  21.550   7.407  13.848
28161W        W94702  38.793  23.723   5.134
28162W        W94703  15.383  27.114   2.391
28163W        W94704  41.023  37.195  11.013
28164W        W94705  22.893  15.627  11.426
28165W        W94706  14.827  23.050  14.576
28166W        W94707  29.073   0.389   0.067
28167W        W94708   1.428  11.201   2.195
28168W        W94709  20.453  19.221   0.436
28169W        W94710  27.938  18.272   4.177
28170W        W94711  31.151  31.706  13.014
28171W        W94712  27.932   1.450   1.863
28172W        W94713  11.210   8.676  11.584
28173W        W94714  28.699  11.124   0.770
28174W        W94715  36.912   4.853  14.327
28175W        W94716   7.312   0.593   2.356
28176W        W94717  17.236  28.659  12.241
28177W        W94718  15.211  21.934  10.860
28178W        W94719  43.731  12.323   1.909
28179W        W94720  26.009  35.486   1.907
28180W        W94721  32.529  26.642   3.169
28181W        W94722   7.630  21.744  11.964
28182W        W94723  40.946  24.262  10.658
28183W        W94724   2.214  14.130   1.714
28184W        W94725  29.483  43.379  10.948
28185W        W94726   1.804  29.600   0.528
28186W        W94727  22.719   7.792  10.273
28187W        W94728  15.485   1.426   3.573
28188W        W94729  32.987  42.261  14.426
28189W        W94730  36.106  19.087   0.305
28190W        W94731  40.858   4.412   0.763
28191W        W94732   7.199   6.794  14.967
28192W        W94733  29.909  40.397   2.763
28193W        W94734   2.740  43.733  11.461
28194W        W94735  19.649   6.732   3.622
28195W        W94736   4.523  39.572   1.952
28196W        W94737  34.900  17.776   1.778
28197W        W94738  36.876  14.740   4.265
28198W        W94739  31.415   9.584  11.166
28199W        W94740  44.029  34.836  12.953
28200W        W94741  17.028  19.390  12.447
28201W        W94742  33.029  26.434   0.347
28202W        W94743  23.566  36.978  11.565
28203W        W94744  29.777   4.615   4.580
28204W        W94745   0.726  20.623  12.239
28205W        W94746  34.131   0.233  12.716
28206W        W94747  23.662   9.260   5.050
28207W        W94748   7.530   1.967   4.178
28208W        W94749  14.300   6.168   0.744
28209W        W94750  41.509  20.383   2.203
28210W        W94751  24.798  18.108  13.357
28211W        W94752  15.623  13.160   3.126
28212W        W94753  23.719  38.501  10.718
28213W        W94754  13.214  41.949  13.207
28214W        W94755  38.253  34.570   3.210
28215W        W94756  30.915  16.907   0.867
28216W        W94757  43.218  32.116   0.326
28217W        W94758   8.735  24.237  10.768
28218W        W94759   1.121  42.955  14.962
28219W        W94760  23.939  16.140  11.619
28220W        W94761  41.783  44.817  10.784
28221W        W94762  13.361  33.604  14.738
28222W        W94763  23.209  19.980  11.923
28223W        W94764   5.150  16.424  11.559
28224W        W94765  31.538  26.126   4.809
28225W        W94766  22.682  16.826  12.537
28226W        W94767   4.685  40.481  13.693
28227W        W94768  22.730  42.957   2.802
28228W        W94769  17.981  30.316   0.933
28229W        W94770  35.168   9.877  13.011
28230W        W94771  39.813  11.339  12.534
28231W        W94772   1.248  43.907   2.181
28232W        W94773  38.423  17.757   4.664
28233W        W94774  37.356  43.259  11.655
28234W        W94775  38.657  13.325   2.239
28235W        W94776  21.731  23.750  14.977
28236W        W94777   0.593   9.706   2.756
28237W        W94778  16.626   4.103   3.802
28238W        W94779  17.143  29.513   1.338
28239W        W94780   4.111  10.143   5.070
28240W        W94781  39.112  15.795   1.767
28241W        W94782  25.041  38.439   1.167
28242W        W94783   4.614  37.662   5.070
28243W        W94784   4.892  21.609  14.105
28244W        W94785   0.467  37.377   1.610
28245W        W94786   0.792  40.037   0.296
28246W        W94787   0.696  25.169   1.115
28247W        W94788  13.149  11.194  12.160
28248W        W94789  16.611   2.242  13.813
28249W        W94790  12.584  21.561   1.727
28250W        W94791  37.149  34.696   0.783
28251W        W94792  16.029  35.611  14.948
28252W        W94793  27.989  35.380   4.644
28253W        W94794  14.774  33.416  12.485
28254W        W94795  22.010  32.049  14.324
28255W        W94796  30.951  26.269  10.744
28256W        W94797  16.554   6.658   2.167
28257W        W94798  41.400   5.982   0.249
28258W        W94799  16.815  16.862  13.037
28259W        W94800   2.966  34.058   1.915
28260W        W94801   4.810  39.448  13.262
28261W        W94802  44.863  17.563   4.571
28262W        W94803  28.309  35.448   2.845
28263W        W94804  34.693  30.516  14.367
28264W        W94805   7.316  32.602   3.331
28265W        W94806  32.718  13.094   5.759
28266W        W94807  36.895  33.755   0.933
28267W        W94808  29.846  38.424  11.118
28268W        W94809  32.178  33.593   0.368
28269W        W94810  23.635  40.283  10.959
28270W        W94811  39.113  21.014   3.924
28271W        W94812   2.674  20.280   3.887
28272W        W94813  44.520  12.044   2.316
28273W        W94814  37.452   6.340   1.194
28274W        W94815   7.327  22.023  13.350
28275W        W94816  36.326  18.110  14.489
28276W        W94817  33.566   7.191   4.587
28277W        W94818   0.020  14.328   4.121
28278W        W94819  18.252  32.683  14.441
28279W        W94820  38.963   4.948   2.671
28280W        W94821  28.083   3.381   1.182
28281W        W94822  17.731  14.790   0.712
28282W        W94823  27.376  11.126   1.386
28283W        W94824  40.295  19.811  11.984
28284W        W94825  12.109  41.222   1.731
28285W        W94826  11.380  13.202   1.360
28286W        W94827  18.011  25.787   2.723
28287W        W94828  33.888  21.784  10.513
28288W        W94829  34.442  16.098  11.476
28289W        W94830   0.485  30.908  14.281
28290W        W94831  23.008  25.529  12.892
28291W        W94832   5.942  15.540  14.951
28292W        W94833  23.562   4.738  14.267
28293W        W94834  23.343  32.103   2.971
28294W        W94835  12.658   3.355   3.333
28295W        W94836   7.787   3.927   3.224
28296W        W94837  29.007  44.405   3.111
28297W        W94838   5.922   8.348  14.527
28298W        W94839  22.232  43.021   2.639
28299W        W94840  13.175  29.560  13.898
28300W        W94841  14.737  23.054  10.608
28301W        W94842   0.881  19.666  10.691
28302W        W94843   5.756  15.733   1.754
28303W        W94844  42.281   1.709   1.784
28304W        W94845  22.598   2.509   3.213
28305W        W94846   2.213   1.794  11.167
28306W        W94847   5.823  36.028  10.729
28307W        W94848  30.557  17.015   0.462
28308W        W94849   1.666  17.799  10.607
28309W        W94850  41.069  16.164  13.529
28310W        W94851   4.466   3.399   3.826
28311W        W94852  21.742  35.109   4.469
28312W        W94853   8.917  21.658   4.116
28313W        W94854  23.929  23.944  14.449
28314W        W94855   6.912   8.303   2.363
28315W        W94856   5.744  30.784   4.210
28316W        W94857  42.343  30.515   4.841
28317W        W94858  26.666  23.303  13.928
28318W        W94859   0.981  18.194  11.662
28319W        W94860  32.408  13.240  14.867
28320W        W94861  40.940  27.521  13.463
28321W        W94862  39.933  30.606  14.747
28322W        W94863  15.843  28.301   2.652
28323W        W94864  34.928  37.919   3.120
28324W        W94865  34.324  20.782   2.207
28325W        W94866   1.906  24.747   3.217
28326W        W94867   8.380  22.488   3.180
28327W        W94868  40.954  35.157  11.043
28328W        W94869  31.523  22.474  11.992
28329W        W94870   4.150  35.124  10.791
28330W        W94871  28.844  19.728  11.650
28331W        W94872  20.324  26.824  11.114
28332W        W94873  22.502  43.444   2.755
28333W        W94874  36.984  17.603  12.047
28334W        W94875  23.083   3.783  11.438
28335W        W94876  10.831  13.767  11.638
28336W        W94877  13.392  15.314  13.942
28337W        W94878  14.841  27.047   4.104
28338W        W94879  32.155  23.594  14.983
28339W        W94880   0.834  38.882   4.259
28340W        W94881  31.158  35.486   2.390
28341W        W94882  22.744  40.318   0.224
28342W        W94883  21.559   6.835   2.877
28343W        W94884  22.941  32.467  14.402
28344W        W94885  20.759  41.475   1.007
28345W        W94886  35.406  29.456   2.868
28346W        W94887   4.661  27.474   2.351
28347W        W94888  18.710  13.662   3.530
28348W        W94889  17.595  17.594  14.033
28349W        W94890  37.003  36.523   2.209
28350W        W94891  25.187  18.901  13.574
28351W        W94892  35.101  40.229   4.127
28352W        W94893   6.921  12.928  12.479
28353W        W94894  41.457  30.594   4.396
28354W        W94895  24.847  25.432  11.253
28355W        W94896   1.657  42.054   4.082
28356W        W94897  40.939  15.844   1.551
28357W        W94898  18.789  30.125   4.336
28358W        W94899   1.920  30.654  12.558
28359W        W94900  35.783  33.474   0.818
28360W        W94901  11.810   8.904   2.740
28361W        W94902  22.359  22.602  12.585
28362W        W94903  14.289  17.782   4.502
28363W        W94904  11.613   3.929   1.840
28364W        W94905  19.202  44.361  10.674
28365W        W94906  44.654  19.660  10.990
28366W        W94907  25.766   5.520   2.761
28367W        W94908  17.640  16.855   3.184
28368W        W94909   7.756  44.868   2.914
28369W        W94910  14.206  42.854   4.556
28370W        W94911  23.755  38.626   1.760
28371W        W94912  38.419  12.719  11.993
28372W        W94913   9.663  10.566  12.107
28373W        W94914  25.089   5.924  14.036
28374W        W94915  15.369  37.097  11.068
28375W        W94916  41.007  22.142  12.933
28376W        W94917  20.116  41.590   3.152
28377W        W94918  11.813  10.965  13.759
28378W        W94919  14.542   4.354   0.784
28379W        W94920  14.660  27.665   0.866
28380W        W94921   6.867  17.266  11.691
28381W        W94922  41.434  16.101   0.313
28382W        W94923   0.425   4.705   2.971
28383W        W94924  13.613  36.875   1.381
28384W        W94925  14.555  13.868   5.129
28385W        W94926   5.494  38.542  11.943
28386W        W94927  22.241  39.617  13.491
28387W        W94928  15.921  22.269  14.458
28388W        W94929  21.595  35.926   4.973
28389W        W94930  40.966  44.546   2.823
28390W        W94931  44.878  42.261   1.887
28391W        W94932  24.983  16.533   3.836
28392W        W94933  39.343  44.979  13.706
28393W        W94934  20.122  33.598  12.734
28394W        W94935  12.931  22.758  14.514
28395W        W94936  25.326  30.514  14.387
28396W        W94937  11.174  17.088  12.095
28397W        W94938  39.473  32.873   2.770
28398W        W94939  30.056  13.749  13.725
28399W        W94940  15.260  27.836   4.567
28400W        W94941  43.391  26.928   4.978
28401W        W94942  18.584  38.789  14.781
28402W        W94943  12.254   0.791  11.444
28403W        W94944  16.653  41.801   3.574
28404W        W94945  25.589  15.577  14.924
28405W        W94946  24.285  23.733  11.381
28406W        W94947  34.875   4.374  12.084
28407W        W94948  11.389   6.157  14.965
28408W        W94949  29.748  43.930   4.351
28409W        W94950  24.950  44.941  12.954
28410W        W94951  10.641  35.065   2.209
28411W        W94952  38.051  43.024  12.004
28412W        W94953  37.300  42.415  11.624
28413W        W94954  31.036   7.641  11.216
28414W        W94955  18.775  13.603   1.667
28415W        W94956   0.663  11.141  11.184
28416W        W94957  24.987   4.645  13.565
28417W        W94958   3.760  15.390  12.030
28418W        W94959  33.833  35.658   2.405
28419W        W94960  43.523  30.405  13.144
28420W        W94961  19.959  42.125   3.905
28421W        W94962  23.221  32.681  10.926
28422W        W94963  26.424  22.515  11.149
28423W        W94964  31.449   5.824   2.617
28424W        W94965  39.385  16.770   2.683
28425W        W94966  19.781   7.881   0.375
28426W        W94967  40.281  40.304  12.530
28427W        W94968  43.866  32.974  10.641
28428W        W94969  30.533  31.680  10.897
28429W        W94970  38.753  20.966  10.798
28430W        W94971  10.228  32.149  12.818
28431W        W94972  25.683  23.366  11.519
28432W        W94973  39.830   0.362  10.577
28433W        W94974  16.596  28.714  13.444
28434W        W94975  25.118   2.446  12.992
28435W        W94976  29.046  34.593   1.673
28436W        W94977   9.658  36.618  14.410
28437W        W94978  29.693  28.125  10.677
28438W        W94979  33.903  29.877   4.669
28439W        W94980  35.315  31.922  12.688
28440W        W94981  21.164  42.989   1.033
28441W        W94982  26.683  35.917   3.105
28442W        W94983  24.386   3.771   0.454
28443W        W94984  31.973  40.271  13.939
28444W        W94985  37.427  26.982  10.736
28445W        W94986  32.284   2.666   5.297
28446W        W94987  38.553  32.968  14.324
28447W        W94988  22.346  41.888   3.198
28448W        W94989  39.341  20.313   3.749
28449W        W94990  22.415  23.018   0.778
28450W        W94991   6.976   1.747   0.544
28451W        W94992   6.691  11.413   2.685
28452W        W94993   9.595   4.793   1.342
28453W        W94994   7.846  37.731   2.701
28454W        W94995  20.217   3.363  12.875
28455W        W94996  34.606  34.534  12.627
28456W        W94997   6.202  38.861   9.741
28457W        W94998  34.819  21.078  12.641
28458W        W94999  13.720  34.125  13.029
28459W        W95000  36.014  31.908   0.243
28460W        W95001  15.816   8.351   2.049
28461W        W95002  27.271   0.022   1.884
28462W        W95003  31.314  17.348   2.839
28463W        W95004  12.797   4.909   4.643
28464W        W95005  15.734   2.008  10.212
28465W        W95006   7.412  42.155  12.774
28466W        W95007  27.224  27.085   4.203
28467W        W95008  25.145  15.418  12.077
28468W        W95009  27.095  19.044   4.492
28469W        W95010  39.046   3.823   1.588
28470W        W95011  39.070  41.741  10.728
28471W        W95012  31.009  28.243  10.255
28472W        W95013  23.091  33.906  14.306
28473W        W95014   1.956  38.509  11.206
28474W        W95015  43.888  34.363   2.353
28475W        W95016  25.576   5.940  13.827
28476W        W95017  27.436  23.987   1.643
28477W        W95018  36.426   3.665   0.337
28478W        W95019  30.075  36.189  10.999
28479W        W95020  22.225  12.683  14.376
28480W        W95021   5.190  13.503   5.023
28481W        W95022  16.606  19.703  11.604
28482W        W95023  36.045  13.465   1.242
28483W        W95024  13.453  42.871   2.016
28484W        W95025  10.655  13.746  14.801
28485W        W95026   1.807  41.372   3.286
28486W        W95027  24.495   7.180   3.400
28487W        W95028  24.405   4.357   1.772
28488W        W95029   8.907  32.872   3.650
28489W        W95030  41.522  13.750   0.776
28490W        W95031  28.559  10.797   3.396
28491W        W95032  44.864  40.802  13.043
28492W        W95033  43.523  38.895  10.673
28493W        W95034   3.955   9.355  12.689
28494W        W95035  37.541  26.084   1.514
28495W        W95036   7.794  33.980  12.349
28496W        W95037  34.050  15.653   4.696
28497W        W95038  44.247   6.929  12.482
28498W        W95039  13.781  29.634  12.075
28499W        W95040  12.921  19.016   1.470
28500W        W95041  27.051  42.457   3.345
28501W        W95042  35.445  23.993  14.859
28502W        W95043  34.832  21.030   3.594
28503W        W95044  26.987  35.823   3.554
28504W        W95045  32.272   6.831   2.568
28505W        W95046   1.262  29.520  13.361
28506W        W95047   1.862   7.226  10.715
28507W        W95048  22.026   9.063  13.647
28508W        W95049  29.968  21.253   4.582
28509W        W95050  30.538   4.381  11.330
28510W        W95051  30.671   6.857   0.689
28511W        W95052   5.420  41.100   1.674
28512W        W95053   4.833  40.163  11.336
28513W        W95054   8.870  41.101  12.642
28514W        W95055  32.296   8.878   0.938
28515W        W95056  17.113  16.872  10.823
28516W        W95057  24.016  10.067  13.412
28517W        W95058  44.867   5.417  13.087
28518W        W95059  22.660  36.005  11.959
28519W        W95060  19.144  17.806   0.825
28520W        W95061   6.097   2.466  11.519
28521W        W95062  26.567  13.578   1.415
28522W        W95063   4.950  17.724  10.838
28523W        W95064  36.974  26.421   2.243
28524W        W95065  12.961  35.849  13.511
28525W        W95066  28.700  36.266  14.993
28526W        W95067  37.622  41.514  13.807
28527W        W95068  19.071  12.203   2.861
28528W        W95069   1.825  10.787   0.020
28529W        W95070  35.655  19.313   0.216
28530W        W95071   4.274   1.156  12.957
28531W        W95072  28.147  42.315  10.768
28532W        W95073  11.205  10.218  10.764
28533W        W95074  16.316  11.750   4.290
28534W        W95075   5.927   3.235  12.035
28535W        W95076  29.965  22.182   0.530
28536W        W95077  33.532  25.444  14.788
28537W        W95078  14.225   9.328   2.135
28538W        W95079   7.191  14.171   4.191
28539W        W95080  31.569   3.156   5.390
28540W        W95081  33.464  39.892   0.030
28541W        W95082  24.185  38.924  12.547
28542W        W95083   4.745  26.103   2.136
28543W        W95084  37.772  11.182   1.877
28544W        W95085  13.139  19.303  11.487
28545W        W95086  11.954  19.277   4.516
28546W        W95087  24.427  19.274  11.502
28547W        W95088  26.769  34.460  11.283
28548W        W95089  36.361   5.932   1.411
28549W        W95090  15.762  36.782   2.049
28550W        W95091  28.133  35.455   2.352
28551W        W95092   1.641  13.303  12.092
28552W        W95093  32.896  39.098   0.913
28553W        W95094  16.103  33.531   1.546
28554W        W95095  21.004   1.244   1.241
28555W        W95096  40.462  42.601   4.331
28556W        W95097  18.022  43.411   0.961
28557W        W95098  36.574  33.077   2.220
28558W        W95099  25.756  36.971   1.405
28559W        W95100  26.307   6.237  12.629
28560W        W95101  31.976  17.713   3.270
28561W        W95102  31.874  35.028   3.122
28562W        W95103  34.443  15.761  14.002
28563W        W95104  20.160  41.009   1.729
28564W        W95105  11.913   9.374   2.895
28565W        W95106  31.273  31.434   1.704
28566W        W95107  16.999  11.441   3.272
28567W        W95108  34.188  23.354  12.484
28568W        W95109  17.292  11.587   0.506
28569W        W95110  11.670  39.064   0.527
28570W        W95111  43.389  44.082   1.225
28571W        W95112  29.230   2.932   0.431
28572W        W95113   1.417  35.488   0.075
28573W        W95114  39.115  40.849   0.054
28574W        W95115  25.891  22.511   4.597
28575W        W95116  32.419   8.109   1.648
28576W        W95117  19.561  16.738  10.720
28577W        W95118  14.715  19.784   1.919
28578W        W95119  19.227  16.965   5.102
28579W        W95120  12.408  30.094  10.199
28580W        W95121   7.103  13.162   3.644
28581W        W95122   8.843  27.957   0.872
28582W        W95123  38.823  34.019  14.027
28583W        W95124  39.493  11.568  13.797
28584W        W95125  14.331  31.441  13.100
28585W        W95126   6.419  35.378   2.121
28586W        W95127  17.068  31.178   2.810
28587W        W95128  39.418  39.371  10.558
28588W        W95129  18.949  44.856   4.732
28589W        W95130   1.771  25.698   2.313
28590W        W95131   9.147  15.425  12.016
28591W        W95132  42.026  36.146   2.806
28592W        W95133  11.634  24.525  12.242
28593W        W95134  36.280  26.525  10.237
28594W        W95135  38.134  12.734   4.916
28595W        W95136   8.321  27.112   3.338
28596W        W95137  33.701   1.421  14.001
28597W        W95138  32.405  38.491   4.378
28598W        W95139  27.444  18.285   4.835
28599W        W95140  41.552   8.805   2.342
28600W        W95141   1.301   9.240   3.585
28601W        W95142  22.627  44.407  14.407
28602W        W95143  17.117  11.080   0.423
28603W        W95144   5.152   5.222   3.701
28604W        W95145  20.600  21.478  10.370
28605W        W95146  31.104  27.215   3.275
28606W        W95147  27.272   9.826   2.749
28607W        W95148  41.855   4.319   0.734
28608W        W95149   3.770   1.297  13.924
28609W        W95150  35.031  23.458  12.690
28610W        W95151   9.870   4.203  12.874
28611W        W95152  38.849  17.487   4.596
28612W        W95153   0.799  27.163   0.803
28613W        W95154  19.222  43.654  13.338
28614W        W95155   6.202   2.797  11.902
28615W        W95156   8.828  29.516  11.591
28616W        W95157  39.344   7.404   1.303
28617W        W95158  18.993  17.179  14.745
28618W        W95159   0.697   1.136  13.030
28619W        W95160  31.607  36.757   0.511
28620W        W95161   9.405   0.847   3.195
28621W        W95162  21.097  31.290  13.209
28622W        W95163  10.404   7.605  12.527
28623W        W95164  20.984  21.810   4.641
28624W        W95165  30.233   3.899   0.330
28625W        W95166  25.003  22.011   2.269
28626W        W95167  23.775  29.006  13.352
28627W        W95168   0.674  35.260   0.996
28628W        W95169  27.987  23.922  13.287
28629W        W95170  41.923  30.868  12.384
28630W        W95171  33.588  43.257   1.619
28631W        W95172  28.466  24.986  11.539
28632W        W95173  43.326   7.271  11.962
28633W        W95174  30.912  32.652   2.021
28634W        W95175   8.340  22.745   2.293
28635W        W95176  34.874  43.526   0.957
28636W        W95177  30.436  10.561   0.499
28637W        W95178  18.683  37.966   4.612
28638W        W95179  18.095  30.880   1.750
28639W        W95180  39.017  42.339  13.910
28640W        W95181  11.370   5.143   0.928
28641W        W95182  25.738  39.984  11.661
28642W        W95183  15.627   8.406   3.579
28643W        W95184  22.674  10.090  12.120
28644W        W95185   2.727  15.545   1.682
28645W        W95186   1.927  32.345   2.151
28646W        W95187  18.800  25.401   2.381
28647W        W95188   0.307  20.207  12.353
28648W        W95189  42.554  16.172  11.176
28649W        W95190   3.517  16.416  13.831
28650W        W95191   0.327   9.937  12.143
28651W        W95192  34.337  33.073  10.699
28652W        W95193  35.577  26.192  11.519
28653W        W95194   3.175  35.589   0.488
28654W        W95195  23.742  43.559   2.073
28655W        W95196  14.609  41.993  14.476
28656W        W95197  12.328  23.195   1.407
28657W        W95198  29.193  12.078   1.802
28658W        W95199  44.484   1.223  14.870
28659W        W95200  38.566  38.655   2.559
28660W        W95201  24.072  33.615  11.543
28661W        W95202  31.658  26.699  11.112
28662W        W95203   4.953   9.795   0.961
28663W        W95204  32.631   5.900  13.381
28664W        W95205  16.171  23.787  13.914
28665W        W95206   4.872   7.077  14.022
28666W        W95207   9.850  41.902   3.865
28667W        W95208  12.486  38.431  11.511
28668W        W95209  30.094  32.413  12.823
28669W        W95210   7.651   1.649   2.917
28670W        W95211  21.983  15.783   4.119
28671W        W95212  20.295  17.680  12.417
28672W        W95213  36.393  18.919   2.004
28673W        W95214   6.295  29.985   4.193
28674W        W95215  21.124  11.581  12.073
28675W        W95216  39.025  29.071   0.804
28676W        W95217  22.948  10.208   0.477
28677W        W95218  24.631  22.168  12.594
28678W        W95219  39.795  15.258   4.897
28679W        W95220  29.185  41.731  14.257
28680W        W95221  24.733  41.472   4.359
28681W        W95222  43.224  22.475  10.232
28682W        W95223  28.165  33.320   0.899
28683W        W95224  35.523  10.158  11.116
28684W        W95225  13.842  24.114   3.685
28685W        W95226  36.889  28.310   0.812
28686W        W95227  35.020  33.066   4.825
28687W        W95228  40.396  26.475   1.432
28688W        W95229  18.752  22.759   4.091
28689W        W95230  23.108  10.151  13.323
28690W        W95231  38.040  34.316   2.637
28691W        W95232  42.506  37.996  13.220
28692W        W95233   1.864  39.040   3.773
28693W        W95234   2.233  15.380   1.550
28694W        W95235  12.743  27.002   4.286
28695W        W95236   7.555  28.499  11.140
28696W        W95237  10.072  31.951   2.403
28697W        W95238  29.669   7.755   0.949
28698W        W95239  12.695  27.595  10.807
28699W        W95240  35.375   1.045  12.668
28700W        W95241  40.978  33.273   1.449
28701W        W95242  33.693   1.003  10.622
28702W        W95243  31.103  19.100  13.565
28703W        W95244  24.179  19.535   1.892
28704W        W95245  24.531  40.311  10.782
28705W        W95246  14.266  14.824  14.861
28706W        W95247  38.128  26.015   1.799
28707W        W95248  35.261  30.012  10.764
28708W        W95249   8.541  11.575   5.047
28709W        W95250   5.984  34.512   0.084
28710W        W95251  37.430  14.319  14.252
28711W        W95252  15.730  42.752   2.441
28712W        W95253  30.458  43.422  12.847
28713W        W95254  44.524  35.018  14.019
28714W        W95255  14.933  23.154   2.828
28715W        W95256  26.992  29.529  14.320
28716W        W95257  25.631   1.062  11.169
28717W        W95258  38.581  11.763   0.920
28718W        W95259  25.001  30.390   3.213
28719W        W95260  32.673  40.894   2.800
28720W        W95261   6.179  38.563   0.779
28721W        W95262  16.007  17.850  12.573
28722W        W95263  14.050  21.229  13.407
28723W        W95264  15.022  28.487  12.507
28724W        W95265   4.923  34.008  13.313
28725W        W95266   8.808  32.476   0.048
28726W        W95267  28.138  42.344  13.856
28727W        W95268   1.305  35.359   2.815
28728W        W95269  18.687  15.397   1.926
28729W        W95270  29.137  36.608   3.706
28730W        W95271  19.156  13.571   3.307
28731W        W95272  39.828  27.061  13.917
28732W        W95273   7.805  32.048  13.597
28733W        W95274  27.985  28.903   3.635
28734W        W95275  32.748   5.590   1.358
28735W        W95276  33.806  44.807   4.710
28736W        W95277  38.159  23.410  11.234
28737W        W95278  34.075  33.972  14.344
28738W        W95279  34.278  28.553   0.888
28739W        W95280   0.414  27.670   1.700
28740W        W95281  20.542  26.883   2.932
28741W        W95282  10.838  19.479  10.940
28742W        W95283  33.413  43.699   4.347
28743W        W95284  27.057  32.359  10.640
28744W        W95285  27.987  13.594  11.516
28745W        W95286   0.875  36.618  14.751
28746W        W95287  10.775  38.403   1.846
28747W        W95288  30.141  15.025  10.993
28748W        W95289  14.257  30.406  13.046
28749W        W95290  43.890  16.160   2.377
28750W        W95291  12.364  16.214  14.861
28751W        W95292  23.064  12.909  11.849
28752W        W95293  27.298   9.911   1.829
28753W        W95294  26.947  36.474  12.635
28754W        W95295  38.570  28.556   1.221
28755W        W95296  18.420  11.525   5.531
28756W        W95297  14.163   2.236  14.124
28757W        W95298  33.870  13.552   0.315
28758W        W95299  30.157  30.897   1.205
28759W        W95300  14.825  39.972  14.574
28760W        W95301  12.259  33.539  12.983
28761W        W95302  43.945  43.690   1.369
28762W        W95303   3.496  20.276  10.288
28763W        W95304   7.924  17.994   1.585
28764W        W95305  19.209   6.496   4.216
28765W        W95306   6.549  35.684  12.464
28766W        W95307  18.190  25.702  11.959
28767W        W95308   8.720   0.836  12.097
28768W        W95309  42.877  33.586  11.638
28769W        W95310   7.824  41.118   2.254
28770W        W95311   8.982   8.005  12.559
28771W        W95312  29.708  37.493   1.255
28772W        W95313  34.824  22.731   0.808
28773W        W95314  13.565  14.220   4.294
28774W        W95315  12.307  18.830   4.372
28775W        W95316  26.048  18.095   2.392
28776W        W95317  40.998  27.213   4.620
28777W        W95318   8.865  16.580   2.106
28778W        W95319  29.220  29.483  12.876
28779W        W95320  24.245   2.146  13.004
28780W        W95321   7.241   4.635  14.405
28781W        W95322  30.443  43.048   1.254
28782W        W95323  32.381  25.361   1.246
28783W        W95324  34.046   4.267  14.063
28784W        W95325  28.472  10.288   3.229
28785W        W95326  38.588   2.730  13.497
28786W        W95327  44.842  36.116   1.851
28787W        W95328  15.560  44.380  13.448
28788W        W95329  28.655  35.153   3.145
28789W        W95330  27.631  35.286   3.848
28790W        W95331  35.800  31.505   0.504
28791W        W95332   1.441  15.252  11.072
28792W        W95333   9.184  29.901   3.918
28793W        W95334  17.264  28.160  14.859
28794W        W95335  10.793  27.029   3.702
28795W        W95336  24.171  40.968  11.162
28796W        W95337  18.256  10.860   2.668
28797W        W95338   9.229  21.295  12.476
28798W        W95339   5.202  10.166  12.572
28799W        W95340  19.828  27.377  14.427
28800W        W95341   3.818  39.910   2.737
28801W        W95342  43.443   7.006   0.860
28802W        W95343  12.710   6.734   2.330
28803W        W95344  10.204  34.072   2.122
28804W        W95345   9.846   5.180   1.652
28805W        W95346  43.223  19.619   2.772
28806W        W95347  12.812  19.232  12.063
28807W        W95348   6.823  11.857  11.531
28808W        W95349   8.472  17.822   2.182
28809W        W95350  25.548  15.169   1.995
28810W        W95351  17.698  32.616   4.835
28811W        W95352  15.006  26.417   2.242
28812W        W95353   3.076  21.873  10.820
28813W        W95354   4.375   8.441   1.803
28814W        W95355  25.453  25.713  12.055
28815W        W95356  27.871   7.858  12.391
28816W        W95357  13.318   2.497   4.805
28817W        W95358  30.420  34.554  14.872
28818W        W95359  20.967  26.166   1.755
28819W        W95360  13.257   4.942   4.942
28820W        W95361  23.578   0.135  12.094
28821W        W95362  36.547   0.160   0.461
28822W        W95363  30.985   0.194  14.326
28823W        W95364  17.362  37.345  12.395
28824W        W95365  12.786  23.677  11.182
28825W        W95366  37.943   7.940  13.854
28826W        W95367  14.543  34.285   1.820
28827W        W95368  28.890   3.328   0.301
28828W        W95369  23.836  42.989  10.152
28829W        W95370  39.783  23.164   4.101
28830W        W95371   6.789  38.727  12.255
28831W        W95372   8.837  24.453  14.519
28832W        W95373  32.845  17.209  12.387
28833W        W95374   4.757  35.489   0.444
28834W        W95375  29.442   3.774  14.988
28835W        W95376  43.890  40.031  11.856
28836W        W95377  17.618  23.368   3.705
28837W        W95378   5.365  21.484  14.020
28838W        W95379  39.471  18.530   0.940
28839W        W95380  11.174  40.640  13.889
28840W        W95381  32.196  39.990   2.705
28841W        W95382  31.047   0.359   2.612
28842W        W95383  10.218  24.081  14.682
28843W        W95384  34.666  21.554  12.545
28844W        W95385  26.631  37.136  11.046
28845W        W95386  20.570  37.165  12.161
28846W        W95387  38.356  19.498   0.004
28847W        W95388  44.435  15.868   3.727
28848W        W95389  23.762  34.451  12.574
28849W        W95390  23.132  18.576   0.943
28850W        W95391  15.620  20.148  13.804
28851W        W95392  34.216  30.216   0.354
28852W        W95393  43.208  10.710  11.564
28853W        W95394  12.371  26.408  10.363
28854W        W95395  21.089  37.655  10.127
28855W        W95396   0.307  32.662  11.234
28856W        W95397   0.901   0.293  10.805
28857W        W95398   7.147  41.048  13.019
28858W        W95399   2.262  42.379  14.568
28859W        W95400  44.073   2.662   0.485
28860W        W95401   0.725  28.080  11.251
28861W        W95402  15.621  21.534  11.597
28862W        W95403  24.521  44.508   2.854
28863W        W95404  24.168  39.926   3.915
28864W        W95405   8.836   5.463   1.453
28865W        W95406  42.927  28.723   3.154
28866W        W95407  20.559  15.691  13.121
28867W        W95408  44.491  37.504  12.546
28868W        W95409  15.064   1.030  12.649
28869W        W95410  19.726  35.194   1.432
28870W        W95411  42.798  33.391  14.817
28871W        W95412  42.368  17.654   0.495
28872W        W95413   2.262   1.313   0.443
28873W        W95414  36.532  39.014  12.470
28874W        W95415  26.410  26.532  11.572
28875W        W95416   8.442  19.626  12.971
28876W        W95417  43.359   5.975   4.370
28877W        W95418  40.887  20.140   0.822
28878W        W95419  20.037  39.292  14.457
28879W        W95420   9.161  14.388   9.864
28880W        W95421   7.293  33.436   3.737
28881W        W95422  19.648  35.363  11.721
28882W        W95423  13.493   1.226   0.281
28883W        W95424   2.321   8.658  14.894
28884W        W95425   9.871  13.763   1.393
28885W        W95426  15.604  33.891   2.811
28886W        W95427  42.801  44.383   0.212
28887W        W95428   1.910  19.037   1.285
28888W        W95429   6.708  15.239  14.028
28889W        W95430  31.534  28.145  13.991
28890W        W95431  16.061  28.572  10.532
28891W        W95432   6.101  12.795   4.273
28892W        W95433  27.534  22.380   3.588
28893W        W95434  38.277  19.592   4.417
28894W        W95435  35.793  35.973  14.703
28895W        W95436  23.630  41.121   2.581
28896W        W95437  22.512  16.137   0.111
28897W        W95438  12.231  21.540   2.685
28898W        W95439  43.188  14.276  13.854
28899W        W95440  15.263  10.180   4.100
28900W        W95441  15.618  36.934  11.489
28901W        W95442  24.770  24.070   3.241
28902W        W95443  24.336   4.360   3.125
28903W        W95444  35.294  11.180  14.324
28904W        W95445  42.467  26.473  12.868
28905W        W95446  41.630  35.777   0.834
28906W        W95447   4.080   5.328  12.059
28907W        W95448  41.609  41.533  10.731
28908W        W95449  36.834  10.304   9.836
28909W        W95450  19.832  36.221   0.550
28910W        W95451   1.789  31.896   3.514
28911W        W95452  29.641   8.863  14.704
28912W        W95453  18.532  20.193  12.581
28913W        W95454  14.561   0.824  12.025
28914W        W95455   1.987  12.422  12.856
28915W        W95456  26.127  11.679   2.634
28916W        W95457  15.273  30.504  14.055
28917W        W95458   0.035   2.934  10.890
28918W        W95459  33.133  41.030   0.109
28919W        W95460  20.052  13.642  14.401
28920W        W95461  20.617  33.030  12.180
28921W        W95462   5.626   8.256   2.766
28922W        W95463  30.005  22.782  11.980
28923W        W95464  27.157  24.498   0.974
28924W        W95465  42.668  13.254   3.327
28925W        W95466  43.465  12.321  14.396
28926W        W95467   2.729  39.317  10.487
28927W        W95468  34.380   6.865  14.415
28928W        W95469  23.497   3.756   2.291
28929W        W95470  26.095  41.334   4.220
28930W        W95471  29.883  42.030   2.269
28931W        W95472  32.790   4.383   3.587
28932W        W95473   8.747   6.402   1.242
28933W        W95474   8.033   0.352  10.631
28934W        W95475   4.692  41.516   1.708
28935W        W95476  34.747  23.216   4.209
28936W        W95477  34.339   8.712  12.510
28937W        W95478   9.488  42.108  13.387
28938W        W95479   5.493  37.508  14.672
28939W        W95480  44.963  34.627   2.809
28940W        W95481  25.205  43.389  11.574
28941W        W95482   7.284  12.874  13.535
28942W        W95483   5.344  38.802  10.502
28943W        W95484  37.169  43.769   1.492
28944W        W95485  27.674  35.949  14.556
28945W        W95486   7.831  26.643   1.428
28946W        W95487  12.800  13.275  12.499
28947W        W95488  32.978   6.882  11.097
28948W        W95489   5.352   6.507   3.092
28949W        W95490   6.243  14.572  14.999
28950W        W95491  19.673  30.575   2.602
28951W        W95492  43.396  44.269   4.398
28952W        W95493  29.067  19.827   1.525
28953W        W95494   3.719  37.984  14.751
28954W        W95495  17.028  16.234   3.178
28955W        W95496  24.217  35.544   1.328
28956W        W95497   8.252  25.087  10.567
28957W        W95498  22.769  26.877   2.207
28958W        W95499  13.670  43.519  10.684
28959W        W95500  16.207  18.358  12.077
28960W        W95501  24.317  25.741  14.417
28961W        W95502  28.372  15.413  14.588
28962W        W95503  37.011  17.101  13.803
28963W        W95504  13.569  11.232   0.841
28964W        W95505  23.625  25.429   4.722
28965W        W95506  19.145  22.665  13.921
28966W        W95507  19.098  18.088  13.404
28967W        W95508  22.371  37.866  13.378
28968W        W95509  35.573  10.884  12.018
28969W        W95510   5.298  38.039   0.442
28970W        W95511   9.319  33.392  10.288
28971W        W95512  42.718  43.004  14.010
28972W        W95513   0.402  22.485  12.373
28973W        W95514  13.870  20.166   3.612
28974W        W95515  31.981   1.823   9.781
28975W        W95516  38.337  24.915  12.097
28976W        W95517  38.726  21.210   4.198
28977W        W95518  29.076   7.660   3.863
28978W        W95519  18.043  29.693  14.030
28979W        W95520  14.673  15.394  10.082
28980W        W95521  44.740  18.598  11.165
28981W        W95522  26.119  19.898  14.012
28982W        W95523  27.676  29.034   0.379
28983W        W95524  33.450  30.148   4.717
28984W        W95525   4.904  31.829  10.196
28985W        W95526  12.327  12.349  10.889
28986W        W95527  16.342  36.732   4.152
28987W        W95528  22.742  33.625  11.417
28988W        W95529  23.187  32.577   4.252
28989W        W95530  37.768  10.780   2.857
28990W        W95531  34.647  23.028   1.914
28991W        W95532  30.416  17.018   1.799
28992W        W95533   1.188   0.197  11.217
28993W        W95534  31.432  16.160  12.467
28994W        W95535  26.704  14.348  12.458
28995W        W95536  15.287  10.876  13.021
28996W        W95537  44.733  21.640   4.810
28997W        W95538  37.990  44.817   3.782
28998W        W95539  36.560  34.811   2.403
28999W        W95540   1.303   3.720  13.371
29000W        W95541  10.655  25.115   1.146
29001W        W95542  18.894  35.859   3.802
29002W        W95543  38.390  36.947  10.649
29003W        W95544  39.060  31.937  12.575
29004W        W95545  25.095  40.599  14.363
29005W        W95546   4.457  43.062  10.526
29006W        W95547  10.210  28.939   0.430
29007W        W95548  29.560  35.192   4.767
29008W        W95549  28.042   1.492   1.344
29009W        W95550  40.693  44.387   1.819
29010W        W95551  22.278  12.502  11.464
29011W        W95552   2.972   6.817  12.138
29012W        W95553  42.642  21.104   1.174
29013W        W95554  24.658  37.833  13.482
29014W        W95555  39.279  44.505   1.289
29015W        W95556   6.329  22.107   3.620
29016W        W95557  40.141   2.757   1.877
29017W        W95558   5.255  41.502   5.416
29018W        W95559  21.549  11.552   1.152
29019W        W95560  41.692  40.876   1.657
29020W        W95561  42.739  33.469  13.541
29021W        W95562   6.186  26.991  12.443
29022W        W95563  21.011  23.998  13.404
29023W        W95564  31.023   9.773  10.249
29024W        W95565   3.534  19.527  11.200
29025W        W95566  35.568  38.574   0.244
29026W        W95567  33.232  42.883   3.589
29027W        W95568   7.918  39.469   1.359
29028W        W95569  40.940  15.021   1.954
29029W        W95570   4.428  31.168  11.472
29030W        W95571  26.658  33.034  11.706
29031W        W95572  18.234  40.260  12.842
29032W        W95573   8.670  27.961   3.223
29033W        W95574  12.888  30.076  13.317
29034W        W95575   2.172  14.696  10.471
29035W        W95576   6.105   6.832  12.531
29036W        W95577  14.774  43.339  14.787
29037W        W95578   4.059  26.388  11.214
29038W        W95579  40.200  27.568   1.144
29039W        W95580  37.802  28.467   1.887
29040W        W95581   9.919  34.635  14.504
29041W        W95582  33.220  15.187   1.922
29042W        W95583  28.926  43.929  11.839
29043W        W95584   4.278   8.194   0.368
29044W        W95585   7.320   4.644   3.307
29045W        W95586   7.510  19.794  10.717
29046W        W95587  24.114  11.638  13.155
29047W        W95588   0.994  37.779   9.626
29048W        W95589  28.159  37.907  13.623
29049W        W95590  16.938  23.819   4.721
29050W        W95591  26.556  42.758   0.450
29051W        W95592  12.170  23.667   2.291
29052W        W95593   4.440  43.759   5.078
29053W        W95594  10.061   0.454   0.606
29054W        W95595  34.921   1.284  14.320
29055W        W95596   4.299   3.992  13.337
29056W        W95597  10.794   2.958  12.074
29057W        W95598  35.943  21.764   2.308
29058W        W95599   1.285  11.927  12.572
29059W        W95600   0.704  27.026   2.235
29060W        W95601  44.627  40.921   4.187
29061W        W95602  12.129  32.506  11.148
29062W        W95603  10.579  21.243   4.080
29063W        W95604  35.445  37.087  13.509
29064W        W95605  29.560  43.363   0.348
29065W        W95606  30.061  15.422   4.240
29066W        W95607  28.810  17.379  11.680
29067W        W95608  15.781   9.735   1.931
29068W        W95609   5.444  22.644   0.485
29069W        W95610  31.084  32.692   0.387
29070W        W95611  33.505  37.841  14.810
29071W        W95612  42.654  31.524   2.635
29072W        W95613  29.215  38.028   2.760
29073W        W95614  14.241  23.106   1.204
29074W        W95615  12.802  41.362  13.773
29075W        W95616   8.787  14.705   1.756
29076W        W95617   7.323   1.338  11.638
29077W        W95618  35.618  18.114   0.030
29078W        W95619  27.996   8.893  13.936
29079W        W95620  13.865   9.385  12.316
29080W        W95621  35.615  27.185  11.584
29081W        W95622  44.871  44.247  14.356
29082W        W95623   8.823  19.120   4.126
29083W        W95624  19.414  28.994   1.748
29084W        W95625  34.589   3.588   5.506
29085W        W95626  36.394  26.916   4.430
29086W        W95627  24.908  16.227   2.291
29087W        W95628  24.956  35.914   2.447
29088W        W95629   0.262  39.975  12.029
29089W        W95630  34.061   0.233   4.555
29090W        W95631   0.917  39.909  12.614
29091W        W95632  23.618   3.796   3.647
29092W        W95633  22.134  16.554  14.329
29093W        W95634  43.348  17.454  11.895
29094W        W95635   2.350  34.498   1.475
29095W        W95636  28.089  18.209  12.459
29096W        W95637  42.920  29.268   1.108
29097W        W95638   5.168   9.095   0.860
29098W        W95639  19.636  38.872  11.286
29099W        W95640   4.218   0.846  11.102
29100W        W95641  43.252  42.010  11.184
29101W        W95642  35.071  34.935  11.092
29102W        W95643  27.340   7.833  11.550
29103W        W95644  42.631   0.347   0.454
29104W        W95645   8.197  20.227   3.891
29105W        W95646  13.103   4.063  11.119
29106W        W95647  35.794   2.690   2.758
29107W        W95648   8.654  30.513   4.222
29108W        W95649   7.838   9.673  12.470
29109W        W95650   4.869  31.062   4.384
29110W        W95651  13.599  26.158   2.378
29111W        W95652  17.532  37.929  10.033
29112W        W95653   8.761  27.730   3.953
29113W        W95654  13.166  24.336   2.319
29114W        W95655   8.663  40.010  13.021
29115W        W95656   5.495  37.522  11.078
29116W        W95657  43.790   2.230   0.533
29117W        W95658  32.691   9.098   1.886
29118W        W95659  37.848   4.791  11.962
29119W        W95660  28.265  10.231   3.725
29120W        W95661  40.594  39.854   5.012
29121W        W95662  36.843  43.420  12.852
29122W        W95663   7.390  15.137   0.724
29123W        W95664   9.799   9.677  11.678
29124W        W95665  12.205  36.997  14.323
29125W        W95666  32.438  22.459   0.272
29126W        W95667  44.409  38.517   4.632
29127W        W95668   4.398  43.367  10.934
29128W        W95669  41.567   8.279  14.778
29129W        W95670  42.792  26.688  12.151
29130W        W95671  31.408  17.027   3.213
29131W        W95672  14.679  18.350   4.653
29132W        W95673  17.756  34.001  12.493
29133W        W95674  43.884   9.705  14.001
29134W        W95675  36.471  17.965  14.963
29135W        W95676  13.108  40.253  11.840
29136W        W95677  15.822  44.293  14.875
29137W        W95678  17.075  10.634   3.208
29138W        W95679   0.327  37.844   1.437
29139W        W95680  33.552  23.504   0.562
29140W        W95681   2.903  31.464   0.356
29141W        W95682   8.848  25.184   0.247
29142W        W95683  42.062  26.393  12.533
29143W        W95684  12.830  43.060  10.643
29144W        W95685  30.373  32.465  12.372
29145W        W95686  21.258  26.963   1.292
29146W        W95687  18.337  32.308  14.812
29147W        W95688   6.193  27.473   2.282
29148W        W95689  33.494  36.304  14.761
29149W        W95690  34.610   8.309   1.408
29150W        W95691  33.421  30.071  13.286
29151W        W95692  39.640   3.727  14.937
29152W        W95693  29.983  25.822   4.695
29153W        W95694  10.788  41.848  14.308
29154W        W95695  14.803  33.074   1.471
29155W        W95696  28.936  23.712  13.672
29156W        W95697  29.083  26.196  12.998
29157W        W95698   6.758  43.333  12.779
29158W        W95699  27.481  43.238   0.299
29159W        W95700   2.450  39.985   5.146
29160W        W95701  36.315  13.952  14.884
29161W        W95702   8.116  11.148   3.911
29162W        W95703   7.661  37.399   9.747
29163W        W95704  16.093   9.257   3.193
29164W        W95705  16.692  42.139   4.556
29165W        W95706  44.432  35.398  14.730
29166W        W95707   8.176  19.238  10.707
29167W        W95708  20.534  15.857   4.817
29168W        W95709  37.261  11.787   4.008
29169W        W95710  18.533  11.917   0.729
29170W        W95711   3.742  35.138  12.931
29171W        W95712  20.518  18.355  14.914
29172W        W95713  21.673   7.597  12.456
29173W        W95714  35.657  38.525  13.684
29174W        W95715  19.235  35.644   4.154
29175W        W95716  37.674  11.909  11.161
29176W        W95717  18.597   0.386   3.715
29177W        W95718  34.619  23.689   4.063
29178W        W95719  28.708  37.450  13.931
29179W        W95720  24.689  32.693   3.345
29180W        W95721  30.382  28.777   1.955
29181W        W95722   3.154  17.770   1.934
29182W        W95723  31.084  30.585   2.379
29183W        W95724  32.058  29.109   1.938
29184W        W95725  21.072  12.102   2.288
29185W        W95726   3.488  21.944   2.354
29186W        W95727   3.840   6.660   2.662
29187W        W95728   2.274   8.414  12.968
29188W        W95729  38.092  10.978  11.128
29189W        W95730  38.448   0.318  10.497
29190W        W95731   7.938  41.474  10.352
29191W        W95732  28.652  26.683   3.747
29192W        W95733  12.592  39.270  14.271
29193W        W95734  10.816  38.388   4.649
29194W        W95735   0.759  33.116  13.077
29195W        W95736  44.935  14.611   1.897
29196W        W95737  44.986  23.983  12.749
29197W        W95738   2.312  30.187  13.307
29198W        W95739   6.609  24.530  11.431
29199W        W95740  28.427   4.431  13.878
29200W        W95741  12.892  24.803   0.586
29201W        W95742   7.432  26.686   2.327
29202W        W95743  33.081  39.016   3.713
29203W        W95744  26.255  26.179  11.892
29204W        W95745  28.866  40.399   2.804
29205W        W95746  27.428  14.692   3.244
29206W        W95747  11.507  13.322   3.081
29207W        W95748   0.365  12.189   2.759
29208W        W95749  27.239  24.599   2.265
29209W        W95750   8.208  24.935  14.067
29210W        W95751   3.955  37.761   5.163
29211W        W95752  39.257  34.862   3.229
29212W        W95753  16.732  26.994   0.225
29213W        W95754  37.213  29.853  12.054
29214W        W95755  25.981   6.679  12.969
29215W        W95756  33.022  15.864  12.080
29216W        W95757  24.384  23.126   3.300
29217W        W95758  23.080  36.922   1.938
29218W        W95759   2.166  27.990   2.703
29219W        W95760   0.388  14.837   4.215
29220W        W95761  15.771  28.917   0.341
29221W        W95762  41.007  43.453   4.058
29222W        W95763   5.343   9.176   1.705
29223W        W95764  30.110  41.840   4.496
29224W        W95765  17.060   0.330  12.408
29225W        W95766  31.983   2.073  10.644
29226W        W95767   0.335   6.645   1.870
29227W        W95768  18.437  40.419   4.632
29228W        W95769  43.917  36.344   1.514
29229W        W95770  10.237  23.449  11.517
29230W        W95771  17.028  25.060  14.118
29231W        W95772  20.957   6.917  11.220
29232W        W95773  23.725  39.491  11.628
29233W        W95774   4.514  39.398   4.250
29234W        W95775  16.898   6.831  10.645
29235W        W95776  35.282   4.469   4.744
29236W        W95777   1.619  13.420  14.830
29237W        W95778  42.862  13.882  13.888
29238W        W95779   1.835  22.201  11.989
29239W        W95780  19.980  17.238  10.274
29240W        W95781  37.896  44.432  14.395
29241W        W95782  24.933  30.221  13.532
29242W        W95783  11.700   1.754  13.519
29243W        W95784  12.302  17.230  11.696
29244W        W95785  38.970  37.584   2.375
29245W        W95786  20.177   9.572   4.673
29246W        W95787  13.213  15.636   4.558
29247W        W95788  17.525  16.198   0.931
29248W        W95789  43.462  36.486   0.265
29249W        W95790  30.596   0.162   2.433
29250W        W95791  15.069   5.893  14.073
29251W        W95792  11.537  12.600  14.409
29252W        W95793  27.539   5.367  14.405
29253W        W95794  33.627  15.087  10.607
29254W        W95795  43.380  39.409  13.977
29255W        W95796  40.711  43.519  12.376
29256W        W95797  24.989  22.563   3.618
29257W        W95798  24.496   8.341  11.030
29258W        W95799  15.286   5.102  12.384
29259W        W95800  21.663   4.414   4.481
29260W        W95801   9.334   6.872   1.743
29261W        W95802  23.578  24.722  12.222
29262W        W95803  32.336  32.645   2.363
29263W        W95804   7.470  17.748  11.996
29264W        W95805  31.331  26.704  10.062
29265W        W95806  16.123  24.588   1.892
29266W        W95807   4.172  37.833  13.812
29267W        W95808  41.847  33.935  14.356
29268W        W95809  20.402   3.694   4.160
29269W        W95810  10.732   6.814  10.695
29270W        W95811  38.244  13.796  14.857
29271W        W95812   8.783  36.928  14.845
29272W        W95813  27.901  27.877  11.154
29273W        W95814  35.647  36.567  11.684
29274W        W95815   0.125  36.648   2.658
29275W        W95816  26.511  13.806   2.272
29276W        W95817  27.669  23.570   0.461
29277W        W95818  36.231  14.641  14.224
29278W        W95819  17.779  28.071  11.193
29279W        W95820  18.071  14.571   1.044
29280W        W95821  11.796  24.024   4.050
29281W        W95822  40.152  11.050   2.199
29282W        W95823  30.512  33.497  14.966
29283W        W95824   2.794   1.919  12.693
29284W        W95825  10.527   7.736  14.378
29285W        W95826  36.328  11.080  12.391
29286W        W95827   4.451  43.381   0.235
29287W        W95828  32.193  34.058   2.345
29288W        W95829  12.175  31.881   2.818
29289W        W95830   2.457  26.606  14.017
29290W        W95831  36.414  11.568   3.435
29291W        W95832  17.116   0.898  13.340
29292W        W95833   2.861   0.134   0.008
29293W        W95834   2.427  15.129   1.956
29294W        W95835  21.765  21.375  10.233
29295W        W95836  11.709   1.695   4.955
29296W        W95837   2.475  44.234   3.204
29297W        W95838  20.581   9.247   4.743
29298W        W95839  27.147  25.193  13.067
29299W        W95840  27.938  22.733   4.234
29300W        W95841  16.182  28.389  11.521
29301W        W95842  38.921  17.807   1.379
29302W        W95843  10.344  37.448  10.470
29303W        W95844  24.137  21.154  12.307
29304W        W95845  42.807   8.877   0.264
29305W        W95846  34.136  31.841  14.742
29306W        W95847  21.035   7.778  12.989
29307W        W95848   5.753  34.132  14.795
29308W        W95849  23.003  39.459  12.097
29309W        W95850  40.264  25.248  14.037
29310W        W95851   7.260  38.784   2.303
29311W        W95852  27.833  33.110   1.371
29312W        W95853   5.353  32.362  13.035
29313W        W95854  42.769  44.020  12.228
29314W        W95855  38.142  18.581  12.338
29315W        W95856  23.062  44.239   2.443
29316W        W95857  12.105   4.387  10.592
29317W        W95858   1.048  16.586   0.736
29318W        W95859  27.000  20.508  12.912
29319W        W95860  11.780  34.962  11.662
29320W        W95861   7.765   8.398  10.439
29321W        W95862  14.707  21.208   0.927
29322W        W95863  39.268   5.477   1.801
29323W        W95864   6.905  16.120   1.886
29324W        W95865  13.378   1.521   5.062
29325W        W95866   0.851  27.073   1.733
29326W        W95867  37.827  27.959   0.911
29327W        W95868  24.899  12.654   0.842
29328W        W95869  14.865  37.070   2.798
29329W        W95870   7.237  43.641  14.469
29330W        W95871   9.822   4.210   4.494
29331W        W95872  25.122  24.243  13.824
29332W        W95873  28.286  40.778  12.984
29333W        W95874   3.835  35.839   1.966
29334W        W95875   9.716  31.916  14.058
29335W        W95876   8.207  43.955  14.923
29336W        W95877   3.486  27.078  11.170
29337W        W95878  11.196  20.150   2.823
29338W        W95879  11.760   4.591   2.129
29339W        W95880  32.132   3.413  11.548
29340W        W95881  37.647  37.903   0.123
29341W        W95882  38.972  41.487  14.362
29342W        W95883  13.523  32.076  12.155
29343W        W95884  10.921  30.008  10.523
29344W        W95885  29.526   6.353   3.818
29345W        W95886  23.966  37.129  12.828
29346W        W95887  41.979  12.604   0.411
29347W        W95888  42.286  21.071   0.363
29348W        W95889  38.877   8.424  13.828
29349W        W95890  44.397  20.032   2.715
29350W        W95891   7.723  33.280   4.024
29351W        W95892  27.496  20.604  11.171
29352W        W95893  33.445   7.689  12.302
29353W        W95894  13.944  25.513   4.080
29354W        W95895  43.005  35.648  10.657
29355W        W95896  14.087  16.117   3.618
29356W        W95897  11.384  17.847  14.862
29357W        W95898  26.374  12.191  11.150
29358W        W95899  37.526  25.072   3.934
29359W        W95900  32.958  38.845   0.467
29360W        W95901  39.111  33.623  13.290
29361W        W95902  31.913  44.487   1.349
29362W        W95903  41.775  35.779  10.215
29363W        W95904  34.866   8.158   4.077
29364W        W95905  44.246  36.417  10.966
29365W        W95906  20.760  29.618   3.670
29366W        W95907   0.264  34.817   1.764
29367W        W95908  35.428   8.084  14.383
29368W        W95909   1.936  17.749   1.796
29369W        W95910  11.774  26.921   2.778
29370W        W95911  29.033  28.580  12.850
29371W        W95912  25.127  38.270  12.096
29372W        W95913   8.047   2.488   0.847
29373W        W95914   4.900   6.883  11.710
29374W        W95915  32.506  11.471   2.844
29375W        W95916  36.901  19.704   4.711
29376W        W95917  31.547   1.236  12.209
29377W        W95918  10.303  31.510   0.214
29378W        W95919  30.011  22.096  12.404
29379W        W95920   5.372  43.446  12.537
29380W        W95921  20.689  13.675   0.373
29381W        W95922   9.597  34.902  12.010
29382W        W95923  13.263   0.086  12.027
29383W        W95924   6.327  32.296   1.279
29384W        W95925  24.056  21.034  14.909
29385W        W95926  12.568  16.668  13.431
29386W        W95927  27.473  41.965  14.392
29387W        W95928  30.816   1.790  12.193
29388W        W95929  18.018  36.861  13.461
29389W        W95930  14.064  16.086  14.466
29390W        W95931   1.820  33.612  13.731
29391W        W95932  35.982  28.993  10.820
29392W        W95933   6.288  31.849   4.165
29393W        W95934  39.205  34.523   3.598
29394W        W95935  23.976  41.048   0.306
29395W        W95936  31.003  34.925  14.126
29396W        W95937  19.651  17.084   3.526
29397W        W95938  11.169  31.541   4.628
29398W        W95939  17.730  19.868  12.898
29399W        W95940  31.060   3.827   0.992
29400W        W95941  32.661   2.362  13.987
29401W        W95942   7.308   3.806  12.999
29402W        W95943  20.653   2.214   4.205
29403W        W95944  12.906  27.570  13.954
29404W        W95945   7.928  10.207  10.710
29405W        W95946  23.148  12.294  13.617
29406W        W95947  14.379  16.553   3.671
29407W        W95948  10.088   7.437  12.906
29408W        W95949  16.927  34.837   5.111
29409W        W95950  19.801   9.398   2.696
29410W        W95951  23.575   2.220  12.288
29411W        W95952  26.443  19.998   1.918
29412W        W95953   5.696  34.259   3.970
29413W        W95954  37.826  18.094  13.748
29414W        W95955   8.813   3.224   2.908
29415W        W95956  12.144  30.554   2.304
29416W        W95957  26.899  12.881   4.286
29417W        W95958  19.467  11.361   4.521
29418W        W95959  18.623  12.147   2.666
29419W        W95960  39.556  22.172  13.547
29420W        W95961  34.238  15.753   1.023
29421W        W95962  20.573   9.915  12.111
29422W        W95963  28.153  23.484   1.686
29423W        W95964  35.477  12.555  11.944
29424W        W95965  12.728   4.180  12.161
29425W        W95966  21.611  12.835  10.324
29426W        W95967  42.325  40.561   1.314
29427W        W95968   3.563  19.796   3.705
29428W        W95969   4.675  11.627   0.424
29429W        W95970   9.435  13.165   0.266
29430W        W95971  18.721   5.936   0.887
29431W        W95972   8.555  42.476  13.960
29432W        W95973   8.656   5.298  11.548
29433W        W95974  37.835  13.197  11.583
29434W        W95975  38.619  39.105  13.294
29435W        W95976  11.705  11.132  14.805
29436W        W95977  29.675   7.885   2.730
29437W        W95978   3.524  12.513  10.098
29438W        W95979   0.968  11.548  11.346
29439W        W95980  41.564  31.375   1.689
29440W        W95981   2.503  37.672   1.328
29441W        W95982  14.015  10.438   1.190
29442W        W95983  17.167  42.550  12.553
29443W        W95984  21.912  34.711  12.733
29444W        W95985   9.490   8.292  10.519
29445W        W95986  24.720  29.248  14.514
29446W        W95987   8.571   9.883  11.853
29447W        W95988  12.042   3.303   4.180
29448W        W95989  41.434  19.750   4.109
29449W        W95990  23.508  35.907  11.532
29450W        W95991  31.591  17.219   0.504
29451W        W95992  19.633   8.380   4.578
29452W        W95993  28.580  27.169   3.995
29453W        W95994   5.695  30.918  13.019
29454W        W95995  43.842  39.596   1.598
29455W        W95996  16.759  10.898   2.257
29456W        W95997  10.724   9.996  10.807
29457W        W95998   2.597  16.746  11.129
29458W        W95999  39.432  41.961   1.778
29459W        W96000   3.060  41.867   2.903
29460W        W96001   3.215  10.860  13.014
29461W        W96002  26.617  31.685  14.196
29462W        W96003  41.793  24.514  12.492
29463W        W96004  43.806  44.491   2.883
29464W        W96005   6.224  18.568   0.413
29465W        W96006  20.488   0.911  11.055
29466W        W96007  21.627  21.985  14.304
29467W        W96008  34.881  34.913   3.850
29468W        W96009   5.506  11.332   3.248
29469W        W96010   0.819  40.491  12.983
29470W        W96011  20.746  10.024  12.605
29471W        W96012  30.326  44.057   3.237
29472W        W96013  22.459   3.172  12.943
29473W        W96014  36.979  23.232  12.557
29474W        W96015  21.936  26.212   4.106
29475W        W96016   8.743  13.703  10.867
29476W        W96017  11.816  12.202  12.532
29477W        W96018  21.578  23.109   1.700
29478W        W96019  16.365  35.420  14.622
29479W        W96020  35.342  35.680  14.092
29480W        W96021  12.914  14.912   1.245
29481W        W96022  23.003  32.984   3.463
29482W        W96023   9.683  37.796   1.705
29483W        W96024   3.726  44.929   1.785
29484W        W96025  16.144  18.285   1.187
29485W        W96026  38.911  30.880   3.312
29486W        W96027  36.817  35.829  13.900
29487W        W96028   4.643  18.748   3.141
29488W        W96029  27.970  29.760   2.780
29489W        W96030  16.504  15.227  11.014
29490W        W96031  39.063  27.052  12.213
29491W        W96032  44.807   9.340   2.830
29492W        W96033   0.025  22.305   3.758
29493W        W96034  15.767  15.836   0.944
29494W        W96035  28.412   5.993   2.038
29495W        W96036  29.389  14.133   4.138
29496W        W96037  32.960  29.660  11.966
29497W        W96038  36.799   7.778   0.898
29498W        W96039  41.780   6.006  14.894
29499W        W96040   5.689  35.682  11.102
29500W        W96041   6.066  10.557  13.998
29501W        W96042  22.498   6.016  12.509
29502W        W96043  43.311  21.694   4.104
29503W        W96044  36.109  26.163  11.563
29504W        W96045  43.420  13.410   2.767
29505W        W96046  16.805  39.228   0.907
29506W        W96047  21.173  28.086  13.404
29507W        W96048  14.459  33.168   3.717
29508W        W96049  40.121  19.504   3.390
29509W        W96050   6.834  16.770   3.393
29510W        W96051  43.890  36.511  11.332
29511W        W96052   5.259  31.007  11.923
29512W        W96053  28.022   9.034   1.870
29513W        W96054   4.545   4.283   2.875
29514W        W96055   8.392  39.980   2.769
29515W        W96056  27.594   7.925  10.310
29516W        W96057  22.081  29.464  13.387
29517W        W96058  35.335  19.332  10.586
29518W        W96059  30.678  16.120   1.948
29519W        W96060  27.877  31.180   2.577
29520W        W96061  18.275  21.591   1.813
29521W        W96062  17.762  10.359  13.308
29522W        W96063  31.129  21.267   4.867
29523W        W96064  33.975   5.847   3.606
29524W        W96065  38.207  22.498   2.313
29525W        W96066   1.386  15.959  14.360
29526W        W96067   7.667  30.984   4.518
29527W        W96068  14.188  26.713   0.743
29528W        W96069   9.378  23.996  10.723
29529W        W96070  35.140   6.686   2.922
29530W        W96071  23.534   8.224  13.545
29531W        W96072   3.730  38.357  10.674
29532W        W96073  25.741   4.433   1.401
29533W        W96074  36.021  39.439   0.938
29534W        W96075  31.624  11.394  14.851
29535W        W96076   4.223   1.574  14.017
29536W        W96077  44.248  12.865   2.651
29537W        W96078  10.259  35.491  11.752
29538W        W96079  10.785   8.648  11.230
29539W        W96080  33.392   0.014   3.251
29540W        W96081   6.881  34.459   2.136
29541W        W96082  25.622  16.729  13.935
29542W        W96083  35.142  19.854  13.421
29543W        W96084  11.317  27.263  12.062
29544W        W96085  22.019  31.491   3.759
29545W        W96086   0.771  29.170  12.909
29546W        W96087  32.184  39.334   2.252
29547W        W96088  42.319  24.410   0.214
29548W        W96089   4.767  33.913   2.186
29549W        W96090  40.413   0.234   3.123
29550W        W96091   0.095   3.899   4.887
29551W        W96092  32.872   1.083  14.742
29552W        W96093   8.541  33.977  14.436
29553W        W96094  39.051  15.210  14.911
29554W        W96095  15.816  40.265   0.797
29555W        W96096  42.775  41.941  13.316
29556W        W96097  17.190  36.387  14.287
29557W        W96098  33.073  43.275  11.365
29558W        W96099  34.121  16.333  12.611
29559W        W96100  29.449  42.503  11.194
29560W        W96101   0.783  41.691   3.255
29561W        W96102  28.914   2.192   2.027
29562W        W96103   9.242  20.027   3.129
29563W        W96104  23.859   0.642   5.104
29564W        W96105  22.255  34.036   1.662
29565W        W96106  33.398  40.428   2.715
29566W        W96107   3.713  42.886  11.970
29567W        W96108  26.784  19.585   1.952
29568W        W96109  19.683  42.526   1.889
29569W        W96110  25.490  11.113  13.028
29570W        W96111  25.730  43.553   0.958
29571W        W96112  44.698   5.913   1.268
29572W        W96113  15.155   1.672   0.329
29573W        W96114   8.208   3.533   1.513
29574W        W96115  20.366  44.424   1.844
29575W        W96116  34.062   0.423   4.079
29576W        W96117   3.394   6.527  12.250
29577W        W96118  25.220  43.389   1.733
29578W        W96119  33.140  41.829  10.369
29579W        W96120  26.604   1.788   1.552
29580W        W96121  22.140  12.259  10.632
29581W        W96122   0.153  27.609   4.195
29582W        W96123   3.950   9.795  12.957
29583W        W96124  34.408  17.103   1.448
29584W        W96125  11.935   1.590   1.867
29585W        W96126  25.994  13.900   2.402
29586W        W96127   4.386   5.978   3.761
29587W        W96128  26.515   0.788  12.910
29588W        W96129  25.105  26.423   0.443
29589W        W96130  33.581  29.032   1.146
29590W        W96131  10.120  19.407   0.032
29591W        W96132  16.084  36.881   1.637
29592W        W96133  11.988  14.204  12.946
29593W        W96134  37.857  19.625  14.787
29594W        W96135  19.048  15.195   3.224
29595W        W96136  10.944   6.428  14.892
29596W        W96137  24.681   6.334   3.426
29597W        W96138  11.705  21.876  11.425
29598W        W96139  33.557   0.625   1.122
29599W        W96140  25.431  20.847   1.791
29600W        W96141  23.945  26.558  11.224
29601W        W96142  27.919  28.869  11.978
29602W        W96143  14.329  31.141   2.598
29603W        W96144  16.100  24.943  13.658
29604W        W96145  17.521  12.881   0.464
29605W        W96146  42.404  17.449  11.373
29606W        W96147   2.730  19.350   0.764
29607W        W96148  23.540  13.741  14.791
29608W        W96149  15.622  37.571  13.052
29609W        W96150  44.462  25.204   4.161
29610W        W96151  19.134   2.764   2.335
29611W        W96152  24.027  38.760   4.486
29612W        W96153  12.215  34.112  13.504
29613W        W96154   0.337  19.755   2.957
29614W        W96155   8.367  29.996  11.686
29615W        W96156  21.023  23.085  12.451
29616W        W96157  10.381  29.096  13.434
29617W        W96158  23.267   9.643  13.376
29618W        W96159   9.351  16.919   4.263
29619W        W96160  14.440  38.328  12.992
29620W        W96161  35.926  21.598  14.977
29621W        W96162  33.006  15.520   2.677
29622W        W96163  24.265  15.404   1.705
29623W        W96164  43.040  42.651  14.226
29624W        W96165  42.802  33.990  13.420
29625W        W96166  35.440  11.601   3.905
29626W        W96167  44.222   2.258  13.370
29627W        W96168  26.136  12.672  13.127
29628W        W96169  29.960  29.373  14.291
29629W        W96170  16.494  23.627  14.648
29630W        W96171   2.766  40.448   4.317
29631W        W96172  36.019  35.609  13.426
29632W        W96173  11.827  35.468   4.866
29633W        W96174  24.649  39.123  13.795
29634W        W96175   7.110   6.723  12.634
29635W        W96176  39.152  16.725  13.469
29636W        W96177  43.828  12.129  13.435
29637W        W96178   5.460   2.252  14.840
29638W        W96179  31.656  16.127   1.697
29639W        W96180  21.745  21.137  13.394
29640W        W96181   1.234  23.146   3.782
29641W        W96182   3.760  20.010   3.121
29642W        W96183  11.690  16.747   1.507
29643W        W96184  16.180  26.657   1.806
29644W        W96185   1.148   4.708  13.955
29645W        W96186  13.409  33.903  14.321
29646W        W96187  20.703  17.803   1.972
29647W        W96188  11.852   5.944   2.789
29648W        W96189   1.477   5.424   1.344
29649W        W96190  29.540  11.623   5.039
29650W        W96191   5.433  42.365   0.438
29651W        W96192  27.143   8.174   3.543
29652W        W96193  29.107   2.530  11.058
29653W        W96194   5.350  28.987  13.397
29654W        W96195  27.999  32.331   1.058
29655W        W96196  16.175  10.881   4.046
29656W        W96197  44.721   3.250  10.039
29657W        W96198   4.998  11.258   3.256
29658W        W96199  25.601   8.050   4.184
29659W        W96200  13.126  36.568   2.156
29660W        W96201  16.386  24.031   2.233
29661W        W96202  19.259   3.788   1.356
29662W        W96203  28.054   9.383   4.118
29663W        W96204   9.710   7.177   1.518
29664W        W96205  20.699  10.327   1.968
29665W        W96206  40.072  43.648   3.135
29666W        W96207  12.551  41.449  10.678
29667W        W96208   5.649   6.648  11.099
29668W        W96209   7.435  41.323   0.424
29669W        W96210  10.730  22.674  12.383
29670W        W96211   3.310   7.429   3.215
29671W        W96212  28.786  14.356  11.582
29672W        W96213  41.895   2.254   2.281
29673W        W96214   7.133  30.858   3.603
29674W        W96215  28.116  12.032   2.844
29675W        W96216   1.291  40.607  13.517
29676W        W96217   9.577  33.427   0.284
29677W        W96218  20.779  12.751   1.492
29678W        W96219   3.227   3.653   4.124
29679W        W96220  37.436  44.440   2.647
29680W        W96221  22.649  28.395   2.875
29681W        W96222  22.781  14.099  10.803
29682W        W96223  18.116  35.389   3.801
29683W        W96224   5.367  11.731   2.448
29684W        W96225  23.190  11.674   2.782
29685W        W96226   4.212  16.720   3.698
29686W        W96227  31.076  11.462   5.029
29687W        W96228  32.116  28.919  11.562
29688W        W96229  16.553   0.922  10.659
29689W        W96230  17.586  40.830   2.050
29690W        W96231  23.870  38.049  12.671
29691W        W96232  34.012  39.983   3.967
29692W        W96233  27.910  42.659  11.855
29693W        W96234   6.472  33.082   1.772
29694W        W96235  17.560  40.233  10.773
29695W        W96236   1.655   8.408  11.884
29696W        W96237  41.467  32.906   3.640
29697W        W96238  40.581   6.646  13.493
29698W        W96239  43.386  21.505  11.510
29699W        W96240  11.642  15.354   4.212
29700W        W96241  24.225  29.435  14.535
29701W        W96242  36.002   4.749  10.791
29702W        W96243   7.093   0.560   2.842
29703W        W96244  41.968  13.372   1.983
29704W        W96245  17.623  40.921   4.282
29705W        W96246  10.358  19.980  13.170
29706W        W96247  11.260  16.994   1.691
29707W        W96248  29.504  20.289  14.947
29708W        W96249  38.769  14.785   0.703
29709W        W96250  12.334  19.644  14.981
29710W        W96251   5.899   0.311   2.219
29711W        W96252  28.269  19.261   2.227
29712W        W96253   5.726  29.475   0.415
29713W        W96254  20.672  29.251  14.804
29714W        W96255  10.850  32.329   2.306
29715W        W96256  40.885  42.914  10.912
29716W        W96257  15.165  40.172   3.261
29717W        W96258  11.427  43.876   4.323
29718W        W96259  30.985  31.591   2.126
29719W        W96260   4.184   2.882   0.807
29720W        W96261   6.300  37.920  13.035
29721W        W96262  30.214   5.302   0.361
29722W        W96263  32.830  25.293  11.806
29723W        W96264  17.767  37.874  12.865
29724W        W96265  20.760  19.650   0.399
29725W        W96266  22.297   9.960   2.920
29726W        W96267  17.557  14.383  13.599
29727W        W96268  33.611  17.721  13.809
29728W        W96269   2.714  36.025   4.896
29729W        W96270  35.609  41.065   3.835
29730W        W96271  36.553  31.930  12.144
29731W        W96272  15.258   0.839  13.081
29732W        W96273  14.022  20.673   2.498
29733W        W96274  12.695  40.329   4.210
29734W        W96275   6.047  34.438  12.007
29735W        W96276  31.529  24.034   4.197
29736W        W96277  36.066  33.308  12.151
29737W        W96278  33.033  10.246  12.494
29738W        W96279  25.229  21.302   5.083
29739W        W96280  11.592  20.285   1.464
29740W        W96281  38.121  24.051   3.163
29741W        W96282  22.070  22.414   3.273
29742W        W96283  10.333  44.875   4.063
29743W        W96284  12.247  31.575  10.887
29744W        W96285  20.907  23.636  11.598
29745W        W96286   2.509   9.516   3.058
29746W        W96287  42.842  36.614  12.497
29747W        W96288  35.484  17.214   1.047
29748W        W96289  32.949  21.006  11.546
29749W        W96290  14.115  20.587  12.288
29750W        W96291  42.028  33.558  12.051
29751W        W96292  39.821   3.390  13.674
29752W        W96293  43.853   9.618  14.976
29753W        W96294  30.642  25.164  13.829
29754W        W96295  31.975  15.929   0.392
29755W        W96296  33.533   6.598  14.882
29756W        W96297   1.833  11.671   1.284
29757W        W96298  37.893  42.593  11.134
29758W        W96299  20.069  27.490  12.166
29759W        W96300  39.628  21.892  11.403
29760W        W96301  13.810  33.864  13.979
29761W        W96302   6.196  22.307   2.371
29762W        W96303   2.257  35.056  13.833
29763W        W96304   8.216  16.500   1.229
29764W        W96305  21.880  21.256   1.144
29765W        W96306  36.336  38.233  12.758
29766W        W96307  38.278  26.537   1.322
29767W        W96308  14.529  33.086   4.587
29768W        W96309  10.950   3.148  13.977
29769W        W96310  22.666  40.032   2.790
29770W        W96311   9.907  14.084   4.547
29771W        W96312   0.848   9.886   3.636
29772W        W96313  35.082  41.281  14.005
29773W        W96314  37.111  24.084   3.219
29774W        W96315  44.789  11.633   2.194
29775W        W96316  38.106  17.062   4.202
29776W        W96317  33.943  13.849   2.335
29777W        W96318  29.990  23.022   3.169
29778W        W96319  28.888  18.222   2.215
29779W        W96320  41.223  37.108   4.491
29780W        W96321  25.042  40.542   0.370
29781W        W96322  26.126  44.249  14.298
29782W        W96323   0.768  23.908  14.115
29783W        W96324   0.168  26.737  11.564
29784W        W96325  24.980  27.315   0.448
29785W        W96326  13.197   1.298   3.393
29786W        W96327  29.028   9.949   4.038
29787W        W96328  15.648  11.651  13.144
29788W        W96329  12.481   3.908   2.214
29789W        W96330  25.720   5.421   0.279
29790W        W96331  11.633  15.796  13.403
29791W        W96332  15.934  31.207   0.567
29792W        W96333  38.472  11.469  11.928
29793W        W96334   3.946   6.454  12.493
29794W        W96335  35.519  13.110   2.344
29795W        W96336  33.351  33.996  12.179
29796W        W96337   5.668  11.763  12.048
29797W        W96338  14.879   9.677   3.107
29798W        W96339  38.254  10.778   3.780
29799W        W96340  16.281  12.155   4.719
29800W        W96341  35.895   3.301   0.900
29801W        W96342  19.644  43.002   1.709
29802W        W96343  16.931  23.572  12.955
29803W        W96344  19.539  23.766   3.763
29804W        W96345  36.645  22.985   0.069
29805W        W96346  39.648  10.277  12.555
29806W        W96347   1.324  30.377   5.449
29807W        W96348  42.231   7.778   0.122
29808W        W96349  17.690  11.878  12.225
29809W        W96350   7.540  20.809   0.966
29810W        W96351  12.663  42.631   2.683
29811W        W96352   9.767   7.985  14.906
29812W        W96353   7.350  33.438  14.682
29813W        W96354  23.467  27.872  14.067
29814W        W96355   8.239   0.555   0.891
29815W        W96356   1.357  11.872   1.412
29816W        W96357   7.853  29.655   3.263
29817W        W96358  24.253  38.371  12.457
29818W        W96359   3.414  44.100  13.627
29819W        W96360  10.871  42.498  10.567
29820W        W96361  21.679  25.481   4.491
29821W        W96362  13.907  39.951   1.793
29822W        W96363  18.707   8.888  12.504
29823W        W96364  11.888  38.917   4.167
29824W        W96365  32.580  11.567  14.051
29825W        W96366  31.397  13.791   3.243
29826W        W96367  29.915  20.913   4.185
29827W        W96368  16.280  15.047   0.768
29828W        W96369   5.952  14.257   0.504
29829W        W96370  22.671   1.042  11.625
29830W        W96371  14.236  42.863   4.041
29831W        W96372  18.234  20.209  14.754
29832W        W96373  20.632  16.578   3.020
29833W        W96374  29.559  33.528   3.126
29834W        W96375  28.932  28.205   3.744
29835W        W96376  14.297  38.477   3.885
29836W        W96377  22.906  12.595  11.046
29837W        W96378  21.608  27.103   4.153
29838W        W96379  33.241  18.206  12.981
29839W        W96380  31.209  21.635  13.970
29840W        W96381  36.460  25.353  11.954
29841W        W96382   9.093  31.162  12.996
29842W        W96383   4.941  21.752   0.834
29843W        W96384  38.952  16.673   3.858
29844W        W96385  26.649  24.922   3.238
29845W        W96386  27.746  30.852   0.804
29846W        W96387   7.999   1.308   3.795
29847W        W96388  15.546  38.830   3.662
29848W        W96389  34.792  34.593   0.409
29849W        W96390  17.774  23.550   0.720
29850W        W96391  24.987  19.965   1.872
29851W        W96392   4.977  25.537   1.410
29852W        W96393   3.603  35.495  11.079
29853W        W96394  32.712  35.511  10.415
29854W        W96395  43.468   0.731   1.445
29855W        W96396  12.405  43.234  14.766
29856W        W96397  32.909  25.974  14.415
29857W        W96398  24.517  38.515  12.922
29858W        W96399  10.456  14.312   3.127
29859W        W96400  38.070  43.714   2.288
29860W        W96401  17.459  10.439  11.918
29861W        W96402  37.544  14.722  12.143
29862W        W96403   8.353  19.790   3.613
29863W        W96404  37.348  15.133  12.580
29864W        W96405  33.946  21.979   2.246
29865W        W96406  35.018   8.058   4.962
29866W        W96407  34.821  18.536  14.917
29867W        W96408  30.448  12.085   3.551
29868W        W96409  20.794   4.992  12.443
29869W        W96410  23.921  44.495  14.091
29870W        W96411   2.513  23.702   2.707
29871W        W96412  21.961  33.696  11.038
29872W        W96413  40.545   7.600  14.393
29873W        W96414  24.865  27.114  11.915
29874W        W96415  22.657  37.425   5.258
29875W        W96416  24.691   7.255   1.405
29876W        W96417  22.358   3.015   4.216
29877W        W96418  31.500   3.145   2.852
29878W        W96419  41.507  10.743  11.096
29879W        W96420  22.714  13.760  14.217
29880W        W96421   4.221  34.822  11.202
29881W        W96422  35.031  20.205   3.417
29882W        W96423  13.058  41.010  13.403
29883W        W96424  22.437   2.223   3.674
29884W        W96425   3.216  37.885  11.073
29885W        W96426  14.797  32.456   0.738
29886W        W96427  26.966  35.619   2.743
29887W        W96428  28.136   6.932   2.247
29888W        W96429   3.377   7.320  14.660
29889W        W96430   8.137  31.190  11.150
29890W        W96431  33.516  40.131   4.136
29891W        W96432  38.506  41.559  13.594
29892W        W96433  10.932   5.139  12.946
29893W        W96434  30.946  31.039   4.050
29894W        W96435  31.255  37.978  14.469
29895W        W96436   9.729  31.156   2.431
29896W        W96437  20.494  15.705   3.049
29897W        W96438  33.447  41.236   0.711
29898W        W96439   3.556   4.181  11.115
29899W        W96440  38.420   3.820   1.814
29900W        W96441  25.292  43.544  11.073
29901W        W96442  40.765  36.380  10.551
29902W        W96443  27.466  33.621  10.988
29903W        W96444  27.506  39.327  13.372
29904W        W96445  39.471  31.941  14.919
29905W        W96446   5.198  27.396  11.151
29906W        W96447  13.855  10.005  14.307
29907W        W96448  35.582   9.845   0.691
29908W        W96449  29.627   0.368  10.711
29909W        W96450   5.192  30.703   3.795
29910W        W96451  32.152   5.443  13.497
29911W        W96452  37.052   7.848   4.861
29912W        W96453  18.756  13.360   3.079
29913W        W96454  42.183   3.909   0.986
29914W        W96455  39.994  36.921   3.798
29915W        W96456  17.110  33.518  12.576
29916W        W96457  30.668  28.529  14.752
29917W        W96458  17.619  10.646  11.474
29918W        W96459  14.582  22.697  13.457
29919W        W96460  11.165  31.102   3.661
29920W        W96461  35.304  18.152   2.871
29921W        W96462   8.079  40.363  14.518
29922W        W96463  13.668  42.017  13.422
29923W        W96464  33.540  36.859  10.493
29924W        W96465  31.463  17.780   1.822
29925W        W96466  24.494  20.487  12.089
29926W        W96467  34.005  13.804   0.782
29927W        W96468  13.334   4.634   2.826
29928W        W96469  32.864  36.996   4.018
29929W        W96470  21.036  26.193  13.081
29930W        W96471  13.469  13.586   4.200
29931W        W96472  20.544   8.017  10.473
29932W        W96473  20.765  26.987   0.357
29933W        W96474  18.553  15.771   3.346
29934W        W96475  25.065  32.692   3.742
29935W        W96476  22.919  36.868   1.062
29936W        W96477  34.438  21.652  14.422
29937W        W96478  42.466  30.891   2.681
29938W        W96479  14.167  38.377  11.258
29939W        W96480  16.333  36.795  12.147
29940W        W96481  26.394  36.675  10.968
29941W        W96482  17.637  18.589  10.425
29942W        W96483  42.363  26.961  11.110
29943W        W96484  32.432  27.411  11.592
29944W        W96485  27.183  40.728  10.643
29945W        W96486   2.358  42.940   2.305
29946W        W96487  23.247   0.513   4.451
29947W        W96488  18.597  44.465   3.857
29948W        W96489   0.484   1.841   3.704
29949W        W96490  42.186   2.500  13.382
29950W        W96491   6.047  20.620  11.938
29951W        W96492  17.622  38.007  11.018
29952W        W96493  33.925  35.510   1.866
29953W        W96494  22.675  42.728   4.503
29954W        W96495  27.224   5.922  11.121
29955W        W96496  18.608  19.005  12.297
29956W        W96497  39.050   0.898  12.414
29957W        W96498  31.001  11.330  11.044
29958W        W96499  30.714  30.579  12.432
29959W        W96500   3.491  39.355  11.909
29960W        W96501  43.919   1.416   4.183
29961W        W96502  40.626   0.011  10.642
29962W        W96503   0.825  42.514   1.558
29963W        W96504  19.117  38.942  11.979
29964W        W96505   7.469  23.773   4.143
29965W        W96506  41.859   3.048   2.700
29966W        W96507   1.795  37.852  12.132
29967W        W96508  29.169  11.193   0.427
29968W        W96509  28.350   7.286  13.501
29969W        W96510   5.204  22.213  10.675
29970W        W96511   0.890  10.498   3.636
29971W        W96512   6.206   5.328   4.698
29972W        W96513  26.769  23.573   0.498
29973W        W96514  30.308  14.349  11.588
29974W        W96515   0.392  41.883   4.448
29975W        W96516  44.499  30.447   4.068
29976W        W96517  42.649  10.284   4.903
29977W        W96518   1.839  30.862   4.458
29978W        W96519  38.621  41.178   4.626
29979W        W96520  27.981  10.761  14.259
29980W        W96521  21.829  40.142   4.861
29981W        W96522  15.799  39.105  11.743
29982W        W96523  40.336   7.712   2.293
29983W        W96524   1.711  39.997   4.611
29984W        W96525  32.575   3.229  13.402
29985W        W96526  20.977  13.369  10.339
29986W        W96527  35.272  44.137   1.313
29987W        W96528  19.687   2.711  13.019
29988W        W96529  16.711  18.198   0.476
29989W        W96530  17.241  23.983   1.983
29990W        W96531  18.329   3.370  13.034
29991W        W96532  34.062  23.406  14.385
29992W        W96533   4.337  36.000  11.129
29993W        W96534  18.988   2.836  14.519
29994W        W96535   3.723  25.044  13.424
29995W        W96536  36.141  43.014   3.456
29996W        W96537  37.134  44.399   3.411
29997W        W96538   3.847   0.824   4.179
29998W        W96539  25.898  14.894   3.196
29999W        W96540  22.047  24.038   1.765
30000W        W96541  22.742  30.272   3.214
30001W        W96542   2.425  23.155   2.608
30002W        W96543  13.405  13.795   2.459
30003W        W96544  10.238   8.773   2.810
30004W        W96545  14.007  22.093  13.765
30005W        W96546   0.214  19.065  10.694
30006W        W96547  37.975  20.367   4.767
30007W        W96548  10.592  38.141   3.176
30008W        W96549  17.222  22.071   4.586
30009W        W96550   5.113  44.318  10.181
30010W        W96551  28.448  37.478  13.470
30011W        W96552   5.174  24.235  14.021
30012W        W96553  15.193   2.894   2.162
30013W        W96554  37.933  17.687   3.394
30014W        W96555  24.958  26.761  12.286
30015W        W96556  19.645  10.861  14.136
30016W        W96557  40.445  24.209  15.000
30017W        W96558  32.490  31.460   4.588
30018W        W96559  34.395  32.444  11.463
30019W        W96560  25.528  39.013   1.563
30020W        W96561  23.105   3.502   5.450
30021W        W96562   2.057   3.392   4.861
30022W        W96563   3.653  27.148   2.753
30023W        W96564  31.148  22.228   2.816
30024W        W96565  30.149  41.498   0.204
30025W        W96566   3.600  33.555  14.983
30026W        W96567  21.413  20.230  11.271
30027W        W96568  28.489  33.639   0.400
30028W        W96569  38.815   4.641  10.728
30029W        W96570   0.922  26.013  14.393
30030W        W96571  40.423  30.702  14.561
30031W        W96572  29.487  44.479   4.960
30032W        W96573  32.031  24.162   4.135
30033W        W96574  34.990  12.865   0.165
30034W        W96575  43.937  37.561   2.964
30035W        W96576  25.600  39.748  11.223
30036W        W96577  31.470  18.322  14.645
30037W        W96578  16.603  43.743  14.763
30038W        W96579  15.083  13.335  14.307
30039W        W96580  38.505  29.487   3.699
30040W        W96581   2.404   9.157   2.235
30041W        W96582  28.714  17.138   0.548
30042W        W96583   1.344   6.133  12.354
30043W        W96584  10.321  16.720   3.177
30044W        W96585  32.949  36.771   2.324
30045W        W96586   2.930   6.315  13.325
30046W        W96587  44.089  28.257   0.980
30047W        W96588   4.919   7.914  13.894
30048W        W96589   0.277  41.929  13.920
30049W        W96590  25.403  20.645   0.868
30050W        W96591  33.477  22.751   2.344
30051W        W96592  28.743  41.094  12.861
30052W        W96593   8.936  10.870  12.566
30053W        W96594  21.990  19.206   3.346
30054W        W96595  44.997  38.489  12.551
30055W        W96596  40.553  33.015   0.339
30056W        W96597  19.156  12.608  14.826
30057W        W96598  41.999   5.312  14.246
30058W        W96599  37.287  30.137  11.610
30059W        W96600  12.024  20.057   4.089
30060W        W96601  37.868  30.029   1.940
30061W        W96602   3.502   1.837  11.901
30062W        W96603  23.114  19.537  11.686
30063W        W96604  38.069  28.206   4.181
30064W        W96605   6.261  30.262   2.656
30065W        W96606  43.435  17.021  14.380
30066W        W96607  43.423   7.425   2.470
30067W        W96608  20.770  37.144   1.831
30068W        W96609  31.831  41.344   4.490
30069W        W96610  28.637  44.474   0.261
30070W        W96611  40.510   9.863  14.777
30071W        W96612  21.074  29.481  14.013
30072W        W96613  19.850  13.036  12.118
30073W        W96614  33.025  33.727  10.018
30074W        W96615  23.490   4.373  12.521
30075W        W96616  15.674  42.036   0.315
30076W        W96617   2.941   2.547  13.937
30077W        W96618  26.056   5.815   0.417
30078W        W96619  30.443  23.675   2.852
30079W        W96620  29.669  16.050  13.884
30080W        W96621  42.102   0.864  13.034
30081W        W96622  43.536  21.255  11.081
30082W        W96623   1.295  26.965   0.796
30083W        W96624   1.434  17.456  12.037
30084W        W96625  36.395  40.580   3.063
30085W        W96626  12.166  13.398  12.020
30086W        W96627   3.754   8.961   4.104
30087W        W96628   6.872   5.553  11.893
30088W        W96629  18.992  36.632  13.043
30089W        W96630  23.509  34.603  13.805
30090W        W96631  22.127  36.467  10.713
30091W        W96632  20.737   7.880  11.469
30092W        W96633  14.396  30.840   1.620
30093W        W96634  25.180  44.956  10.616
30094W        W96635  19.510   7.214   2.753
30095W        W96636  38.228  14.729  14.838
30096W        W96637  21.096  43.527  12.510
30097W        W96638  12.885  25.182   1.267
30098W        W96639  20.724  22.552   3.253
30099W        W96640  35.325  17.036  12.173
30100W        W96641  28.401  15.601  12.893
30101W        W96642   8.501  25.193  12.348
30102W        W96643   3.902  12.051  12.978
30103W        W96644  27.103  26.253  14.669
30104W        W96645  23.970  38.325   4.745
30105W        W96646   3.769  18.016  12.576
30106W        W96647  41.517  38.813  13.531
30107W        W96648  25.357  38.053   0.921
30108W        W96649  33.867  19.676  13.915
30109W        W96650   4.674  11.369   0.937
30110W        W96651  20.917   9.306   1.635
30111W        W96652  23.990  24.724   0.749
30112W        W96653  10.100  14.232   3.499
30113W        W96654  28.448   8.401   0.007
30114W        W96655  20.779  41.090   0.275
30115W        W96656  44.519   0.262   1.816
30116W        W96657  41.460   0.365  14.504
30117W        W96658   9.903   0.340   3.316
30118W        W96659  20.227  14.423  12.824
30119W        W96660   6.418  31.199  13.362
30120W        W96661  43.482  31.570  13.384
30121W        W96662  18.252  43.929  14.243
30122W        W96663  44.097   4.870  13.958
30123W        W96664  21.857  22.840   0.625
30124W        W96665  44.059  27.003  13.497
30125W        W96666  42.403  31.062  12.223
30126W        W96667   5.935  38.420  11.046
30127W        W96668  25.970   3.904  11.621
30128W        W96669  14.382   0.491  14.656
30129W        W96670  23.684  35.635  12.013
30130W        W96671  10.153   4.610  12.060
30131W        W96672  20.278   0.382   2.708
30132W        W96673  15.282  36.565   4.236
30133W        W96674  41.299   9.875  11.592
30134W        W96675   6.484  32.306  11.518
30135W        W96676  36.809   9.398  13.524
30136W        W96677  23.272  11.179   2.765
30137W        W96678   1.950  24.465  12.866
30138W        W96679  33.497  19.269   0.258
30139W        W96680  41.880  31.671   3.076
30140W        W96681   9.963  38.541   1.511
30141W        W96682  32.665   4.613   2.719
30142W        W96683  43.731  27.257  14.015
30143W        W96684  12.864  44.469   3.204
30144W        W96685   9.381  25.403  12.965
30145W        W96686  33.285  22.715   4.166
30146W        W96687  28.485  33.419   2.057
30147W        W96688  34.034  26.590  11.144
30148W        W96689  30.451   0.373   3.386
30149W        W96690  19.852  23.678   4.205
30150W        W96691  37.625   9.752   3.162
30151W        W96692  23.538  13.085  11.340
30152W        W96693  31.963  31.517   3.233
30153W        W96694  25.287   9.123   1.333
30154W        W96695  11.319   5.935  14.418
30155W        W96696  10.936  18.591  13.048
30156W        W96697  34.641  26.428   0.956
30157W        W96698  15.568   3.423   2.593
30158W        W96699  38.352  17.004  11.605
30159W        W96700  31.934  36.037  14.986
30160W        W96701  25.402   6.922   0.114
30161W        W96702  38.770  32.228   2.745
30162W        W96703  32.915  16.277   4.515
30163W        W96704  33.122  33.217   1.841
30164W        W96705  31.435  26.076   2.844
30165W        W96706  11.629  30.527  11.605
30166W        W96707  32.450  33.493  10.746
30167W        W96708  22.083  12.219  13.470
30168W        W96709  27.060  13.120  14.029
30169W        W96710   5.407  35.195  13.863
30170W        W96711  24.969  19.760   1.317
30171W        W96712   8.410   8.663   1.339
30172W        W96713  23.076  42.326  14.390
30173W        W96714  24.008   9.912   4.106
30174W        W96715  19.558  27.941  11.618
30175W        W96716  42.285  11.222   3.339
30176W        W96717  31.411  38.188  14.942
30177W        W96718   1.341  12.278  12.160
30178W        W96719  21.064  14.053   0.968
30179W        W96720  12.713   1.094  14.443
30180W        W96721  36.873  18.952  12.492
30181W        W96722  15.265   9.333   0.242
30182W        W96723  39.443  35.194  11.522
30183W        W96724  15.344  43.003   2.703
30184W        W96725  23.135  29.921   2.375
30185W        W96726  33.032  30.874   3.351
30186W        W96727  14.028  22.209  10.838
30187W        W96728  25.784  13.834   1.809
30188W        W96729  30.167  23.655  10.757
30189W        W96730  20.069  32.579   3.739
30190W        W96731   4.979  44.535   0.307
30191W        W96732   7.334   0.579  13.884
30192W        W96733  18.089  14.333  12.937
30193W        W96734  11.976  32.651  12.532
30194W        W96735  21.198   2.783  10.733
30195W        W96736  16.393  12.752  11.044
30196W        W96737  42.923  18.146   4.169
30197W        W96738   9.895   5.861  14.528
30198W        W96739  34.339  16.900   4.258
30199W        W96740  16.813  43.870   2.567
30200W        W96741  33.090   1.692   5.535
30201W        W96742  12.202  24.156  13.297
30202W        W96743  41.864  44.347  13.036
30203W        W96744   4.300  24.462   2.398
30204W        W96745  16.534   4.825  11.518
30205W        W96746  12.749  36.553  12.191
30206W        W96747  33.061  28.678  13.383
30207W        W96748  18.130  27.416  13.844
30208W        W96749  11.798  21.313   0.775
30209W        W96750  17.338  38.039  11.450
30210W        W96751  39.591   7.137  14.954
30211W        W96752  17.810   4.475   4.111
30212W        W96753   4.493  38.757  14.049
30213W        W96754  37.864  28.109  13.049
30214W        W96755   0.789  10.251  12.137
30215W        W96756  24.961  13.832   1.378
30216W        W96757   1.007   6.420   2.771
30217W        W96758  42.027  38.027   1.779
30218W        W96759  34.219  44.441  13.821
30219W        W96760  42.046   9.340  11.638
30220W        W96761   3.820  22.999   2.710
30221W        W96762  39.391   1.358  12.488
30222W        W96763  41.233   5.303  12.132
30223W        W96764  15.137  42.364  11.033
30224W        W96765   9.894   2.393  12.370
30225W        W96766   0.804  22.036   1.469
30226W        W96767   2.714   8.153  12.900
30227W        W96768  16.395  41.026  14.828
30228W        W96769   9.219  41.323   2.958
30229W        W96770  35.491  16.405  14.878
30230W        W96771  11.110  17.597  11.413
30231W        W96772  12.099  22.429  14.049
30232W        W96773  25.678   3.796  11.213
30233W        W96774  42.507  33.484  12.192
30234W        W96775  37.388  13.163   3.349
30235W        W96776  29.004  33.635  13.743
30236W        W96777  14.294  24.559   4.183
30237W        W96778  14.199  26.712   2.580
30238W        W96779  33.805  11.321   0.283
30239W        W96780  29.463  41.432   3.559
30240W        W96781  34.715  25.551   1.864
30241W        W96782  13.143  23.111  12.607
30242W        W96783  14.210  38.537  14.329
30243W        W96784  34.391  35.822   0.863
30244W        W96785   9.876  44.252  13.908
30245W        W96786  34.927   3.832   1.259
30246W        W96787  22.980  19.303  13.376
30247W        W96788   6.379  40.058  14.983
30248W        W96789  31.159  27.402  11.390
30249W        W96790  18.735  33.509  14.392
30250W        W96791  19.356  37.998  12.931
30251W        W96792   9.147  38.047   4.022
30252W        W96793  25.504  37.807   0.433
30253W        W96794  13.701  32.517   1.863
30254W        W96795   5.136   6.126  12.337
30255W        W96796  21.198  11.055   0.890
30256W        W96797  14.716  22.423   5.026
30257W        W96798  32.996  29.685  14.288
30258W        W96799  44.227   0.157  12.398
30259W        W96800   5.396  30.354  11.222
30260W        W96801  19.931  42.837   0.181
30261W        W96802  37.085  24.656  14.938
30262W        W96803   8.891   8.033   4.148
30263W        W96804   6.449  26.008  11.555
30264W        W96805  14.851  36.075   2.380
30265W        W96806  28.508  24.473   2.935
30266W        W96807   4.814  39.992   1.831
30267W        W96808  13.805  12.233   4.812
30268W        W96809   7.160  42.617   0.847
30269W        W96810  11.786  15.469   0.760
30270W        W96811  31.906  11.400  14.421
30271W        W96812   5.895  22.197   2.781
30272W        W96813  34.061  12.306  14.988
30273W        W96814   0.853  40.814  14.623
30274W        W96815  31.427   3.990  11.570
30275W        W96816  30.918  37.384  10.797
30276W        W96817   8.909  28.991  13.337
30277W        W96818  43.898  40.495  12.124
30278W        W96819  38.335  34.110  13.326
30279W        W96820  44.016  36.613   4.319
30280W        W96821  18.740  27.672  11.245
30281W        W96822   9.732  12.581   3.318
30282W        W96823  25.352  23.688   0.241
30283W        W96824   6.984  16.467  11.936
30284W        W96825  30.016  40.593  10.555
30285W        W96826   9.563   6.652  11.953
30286W        W96827   2.843  29.412   2.933
30287W        W96828  18.680   9.673   2.415
30288W        W96829  30.914  41.810   4.085
30289W        W96830  22.574  42.255   0.276
30290W        W96831  32.632   2.937  12.956
30291W        W96832  35.926   5.892  14.698
30292W        W96833  41.188   7.173  11.187
30293W        W96834  35.968  10.443  11.143
30294W        W96835   7.758  33.104   4.863
30295W        W96836  29.430  34.057  10.772
30296W        W96837   3.347   4.718  11.003
30297W        W96838  18.264  41.903  10.596
30298W        W96839   8.882  14.669  13.845
30299W        W96840  21.294  24.181  12.118
30300W        W96841  41.839  12.170   3.925
30301W        W96842  26.127  42.328   3.316
30302W        W96843  14.199  23.526  11.142
30303W        W96844  29.492   2.842   2.353
30304W        W96845  44.214  17.476  11.578
30305W        W96846   1.452  25.969   4.557
30306W        W96847  26.453  34.018  13.229
30307W        W96848  18.604  19.761   1.914
30308W        W96849   3.935  21.173  11.956
30309W        W96850   2.837  15.029  10.716
30310W        W96851  40.923  24.319   1.916
30311W        W96852  12.416  28.264  13.595
30312W        W96853   1.999  43.831   3.788
30313W        W96854   3.297  16.386   3.281
30314W        W96855  23.128   2.346   2.273
30315W        W96856  36.594  17.910   2.506
30316W        W96857   6.177  38.468  10.594
30317W        W96858   9.529  39.414   0.510
30318W        W96859  19.924  42.131  12.167
30319W        W96860  25.075  37.280   0.763
30320W        W96861  32.147  16.206  12.914
30321W        W96862  40.160  27.423  13.793
30322W        W96863   8.916   5.219  12.005
30323W        W96864   4.841  22.447  10.944
30324W        W96865   2.814  19.626   1.673
30325W        W96866  44.488  32.041   1.382
30326W        W96867  13.271  24.834   2.203
30327W        W96868  21.203  27.294   3.105
30328W        W96869   1.232   8.756   0.025
30329W        W96870  42.482  17.854   4.938
30330W        W96871  15.662  40.838  10.711
30331W        W96872  43.027  11.480   3.649
30332W        W96873  12.060  10.494   1.169
30333W        W96874  23.977   3.526   0.753
30334W        W96875   7.739  37.338   3.277
30335W        W96876  21.977  38.647  13.569
30336W        W96877   8.731  37.089  12.439
30337W        W96878  23.873  31.277  12.642
30338W        W96879   1.663  14.516  12.114
30339W        W96880  26.671  20.260   0.677
30340W        W96881  14.169  29.597  14.296
30341W        W96882  15.440  44.655   5.099
30342W        W96883  43.190   5.273   1.892
30343W        W96884  29.165  11.250  14.361
30344W        W96885  33.854   3.774   4.088
30345W        W96886   2.310  11.901  11.519
30346W        W96887  35.154  29.547   0.329
30347W        W96888  11.032  26.918  12.775
30348W        W96889  39.995  20.157   0.487
30349W        W96890  20.643  11.700   3.880
30350W        W96891  24.275  43.615   3.968
30351W        W96892  17.470  21.183   1.267
30352W        W96893  23.720   3.970  12.020
30353W        W96894  22.536  14.358  10.408
30354W        W96895   6.178  10.720   2.636
30355W        W96896  19.085  19.719   1.704
30356W        W96897   9.423  20.050   4.664
30357W        W96898  20.596   4.862   2.526
30358W        W96899  13.318  26.570   4.647
30359W        W96900  32.644  36.074   1.210
30360W        W96901  20.038   2.117   4.910
30361W        W96902  21.611   1.428  13.530
30362W        W96903  32.533   6.704   0.869
30363W        W96904   4.926  21.181  10.660
30364W        W96905  30.450  30.570   1.554
30365W        W96906  29.867  18.769  12.007
30366W        W96907   5.807  33.808   4.876
30367W        W96908  21.217  10.895  13.516
30368W        W96909  35.510  26.433   4.271
30369W        W96910  30.518  16.147   0.858
30370W        W96911  19.580   8.355   2.855
30371W        W96912  14.129   9.124   4.580
30372W        W96913  29.557  31.616  13.371
30373W        W96914  42.330  42.263   3.637
30374W        W96915  40.912  25.575   1.390
30375W        W96916  41.082  27.447   1.337
30376W        W96917  13.839  23.297  14.288
30377W        W96918   1.092  18.067  11.192
30378W        W96919  43.831  25.954  13.488
30379W        W96920  41.273  41.732  11.082
30380W        W96921  20.288  22.645   2.940
30381W        W96922  22.533  17.250   0.901
30382W        W96923  33.423  23.664   1.382
30383W        W96924   0.789   2.445  12.418
30384W        W96925  40.886  42.998   3.701
30385W        W96926  36.505  43.872  13.706
30386W        W96927  20.038   5.643  10.629
30387W        W96928  14.554  23.618  12.521
30388W        W96929  30.233  37.486  11.475
30389W        W96930  42.708  12.706   1.993
30390W        W96931   5.348   1.783  11.388
30391W        W96932  40.828   1.252  13.138
30392W        W96933  24.074  15.862   5.270
30393W        W96934  23.963  23.227   0.039
30394W        W96935  28.073  29.145  14.528
30395W        W96936  24.567  31.606   5.102
30396W        W96937  24.913  39.265  14.849
30397W        W96938  38.555  28.543   4.623
30398W        W96939  17.366  29.061  14.445
30399W        W96940   1.307  21.037   3.091
30400W        W96941  44.976  17.984   2.252
30401W        W96942  15.532   6.751  14.443
30402W        W96943  19.354  43.466  12.007
30403W        W96944  42.561  14.709   4.213
30404W        W96945  29.244   8.768  11.734
30405W        W96946  15.655  11.092   3.234
30406W        W96947  44.924  41.272  13.298
30407W        W96948   1.275   3.743  11.364
30408W        W96949  14.127  15.252  11.303
30409W        W96950  23.209  32.873  12.998
30410W        W96951  26.669   1.410  14.051
30411W        W96952  43.719  33.905  14.843
30412W        W96953  28.978  21.112  14.003
30413W        W96954  17.232   3.100   2.979
30414W        W96955   1.440  10.822   1.211
30415W        W96956  38.431  42.673   3.679
30416W        W96957  38.888   9.873  12.606
30417W        W96958  36.037  43.965   4.497
30418W        W96959   2.539  25.389   5.177
30419W        W96960  19.304  21.211  14.500
30420W        W96961   0.359  23.056  13.721
30421W        W96962  26.732  16.533  14.528
30422W        W96963  29.434  17.214  10.600
30423W        W96964   0.215  36.539   4.838
30424W        W96965  18.315  39.943  14.523
30425W        W96966  19.455  20.191   0.303
30426W        W96967  25.073  23.192   4.025
30427W        W96968  20.212  29.715   4.610
30428W        W96969  41.969  23.908  11.278
30429W        W96970  40.435  33.361  13.521
30430W        W96971  30.342  40.658  14.826
30431W        W96972   3.649  37.349  12.443
30432W        W96973  24.161  17.818   3.988
30433W        W96974  33.422   3.684  14.989
30434W        W96975  13.284  39.144   1.448
30435W        W96976  27.995  15.750   0.399
30436W        W96977  37.402  13.937  10.050
30437W        W96978  18.725  19.192   2.592
30438W        W96979  27.250   9.980  10.148
30439W        W96980  21.353  34.015   3.297
30440W        W96981  10.673  36.340  11.478
30441W        W96982  25.898  20.019  13.501
30442W        W96983   7.063  32.362  12.962
30443W        W96984  33.542  13.554   0.779
30444W        W96985   1.364   7.841   0.253
30445W        W96986  17.500  36.792  14.348
30446W        W96987   7.305   4.252   4.736
30447W        W96988   2.831  14.243  13.501
30448W        W96989   2.267  43.764  11.798
30449W        W96990  17.943  36.389  13.135
30450W        W96991   1.216   4.805   2.348
30451W        W96992  23.627  20.019   3.767
30452W        W96993  37.857   7.420  10.419
30453W        W96994  39.145  15.158   1.231
30454W        W96995   0.809  41.442   0.429
30455W        W96996  16.340  10.389   3.889
30456W        W96997  39.972  28.519  13.566
30457W        W96998  41.820  21.402   3.048
30458W        W96999  21.123  12.831   4.503
30459W        W97000  22.206   1.734  12.415
30460W        W97001  33.702   1.711   1.123
30461W        W97002  31.874  30.586  12.797
30462W        W97003   7.297  28.511  10.689
30463W        W97004  14.265  10.183   2.625
30464W        W97005   8.144  20.844  13.675
30465W        W97006   0.670  18.115  13.961
30466W        W97007  23.409   0.319   4.956
30467W        W97008  12.775  44.262   1.163
30468W        W97009  11.522   5.294   1.401
30469W        W97010  39.848   5.995  13.560
30470W        W97011  40.187  26.116  12.550
30471W        W97012  29.390  21.657  12.190
30472W        W97013  15.428   0.849   4.800
30473W        W97014  12.026  23.157   4.510
30474W        W97015  30.158  32.304  13.311
30475W        W97016  31.397  17.039   0.942
30476W        W97017   1.356  29.978   9.865
30477W        W97018   5.159  21.301   0.362
30478W        W97019  31.465  27.624  13.889
30479W        W97020  41.841  11.166   4.353
30480W        W97021  30.379  36.758  14.308
30481W        W97022  27.429  14.622   0.977
30482W        W97023  12.319  23.732  14.997
30483W        W97024  39.574   4.767   4.058
30484W        W97025  15.765  19.670   4.656
30485W        W97026  39.573  40.904   3.245
30486W        W97027  20.525  42.765  13.544
30487W        W97028  36.122  38.824  14.965
30488W        W97029  36.401  13.383   0.461
30489W        W97030  20.726  29.244   0.623
30490W        W97031  12.287   1.004  12.659
30491W        W97032  14.086  11.923   3.885
30492W        W97033  13.693   5.295  14.918
30493W        W97034  11.387  20.480  14.461
30494W        W97035  13.396  31.045   1.817
30495W        W97036  28.122  12.305  14.834
30496W        W97037  24.439  43.755  13.295
30497W        W97038   0.038  39.017  12.340
30498W        W97039  38.887  22.766  12.502
30499W        W97040  21.586  24.601  12.476
30500W        W97041  44.893  34.791  10.543
30501W        W97042   5.763  17.974   0.848
30502W        W97043  12.838   6.379  10.738
30503W        W97044   0.508  44.953   0.525
30504W        W97045   6.223  14.326   3.134
30505W        W97046   8.726   7.927  11.079
30506W        W97047  10.368  44.273   2.792
30507W        W97048   4.821   6.908  13.510
30508W        W97049   4.881   8.208   3.685
30509W        W97050   2.596  21.781   1.280
30510W        W97051  34.371  43.250   0.878
30511W        W97052  42.808   6.847  11.559
30512W        W97053   6.391  28.125   4.554
30513W        W97054  11.914  25.017   3.589
30514W        W97055  14.952   4.959  14.477
30515W        W97056   5.846  25.849  13.102
30516W        W97057  42.867   8.804  11.554
30517W        W97058  20.376  37.269  14.496
30518W        W97059  23.114  16.121  12.251
30519W        W97060  19.126  41.926  10.405
30520W        W97061  36.033  24.985   0.496
30521W        W97062  18.836  38.518   2.186
30522W        W97063  28.941   3.973   1.814
30523W        W97064  23.406  32.903  13.965
30524W        W97065  43.801  40.651   4.478
30525W        W97066  28.870  28.712   0.355
30526W        W97067  15.840  34.097   3.252
30527W        W97068  19.557   5.716   2.611
30528W        W97069  37.295  38.551  14.153
30529W        W97070  43.595   1.707   1.260
30530W        W97071  44.253   4.841   3.810
30531W        W97072  10.921  33.014   2.908
30532W        W97073  24.589  12.245   0.878
30533W        W97074  12.202  35.180   2.232
30534W        W97075  19.945  30.603  13.115
30535W        W97076  15.798  27.156   2.683
30536W        W97077  42.851  17.188   4.150
30537W        W97078  41.035  13.785   2.377
30538W        W97079  32.886  34.521   3.141
30539W        W97080   9.649   4.433  12.463
30540W        W97081  22.429  11.826  13.460
30541W        W97082  15.141   4.860   4.326
30542W        W97083  42.089  25.642   3.689
30543W        W97084   1.617  17.306   0.694
30544W        W97085  30.006   7.685  11.557
30545W        W97086   1.884   6.685  10.756
30546W        W97087   0.496  26.207   1.219
30547W        W97088  11.208   0.723  11.472
30548W        W97089  16.203  23.118   0.524
30549W        W97090  25.630  26.282   3.676
30550W        W97091  11.906  28.240  13.470
30551W        W97092  15.352  30.572   3.581
30552W        W97093  38.124  25.309  14.215
30553W        W97094  22.243  42.303  13.477
30554W        W97095  18.793  12.312   0.511
30555W        W97096   6.613  23.624  14.400
30556W        W97097  27.702  17.084   0.363
30557W        W97098  43.466  21.554   0.750
30558W        W97099  13.336  18.730  10.621
30559W        W97100  31.467  43.398   2.670
30560W        W97101  33.901  15.573  12.757
30561W        W97102   0.461   1.608   0.230
30562W        W97103  44.518   0.492   4.523
30563W        W97104  37.348  12.896   2.768
30564W        W97105   5.231  10.762   2.172
30565W        W97106  25.969  31.910   2.697
30566W        W97107  14.810   0.591   3.406
30567W        W97108  14.590  26.741  12.488
30568W        W97109  28.943   9.469   4.138
30569W        W97110   7.804  30.867   2.235
30570W        W97111  30.003  21.972  11.588
30571W        W97112  39.895  15.589  13.816
30572W        W97113  23.264   1.513   1.287
30573W        W97114  24.159  20.618   1.870
30574W        W97115   8.625  23.045   0.774
30575W        W97116  40.743  44.935  12.439
30576W        W97117  20.706  34.284   1.296
30577W        W97118  15.640  33.171   4.776
30578W        W97119   5.525  25.702  14.001
30579W        W97120  34.105  20.495   1.777
30580W        W97121  23.733  41.791  13.981
30581W        W97122   3.253  26.005   3.148
30582W        W97123  28.593  38.710   1.715
30583W        W97124  34.696  36.607  12.015
30584W        W97125   3.243  44.809   2.674
30585W        W97126  17.791  42.375   4.121
30586W        W97127   2.627  18.023  13.057
30587W        W97128  29.513  23.689   1.407
30588W        W97129   2.751  18.578  14.887
30589W        W97130   2.990  15.770  12.422
30590W        W97131  38.025  18.836   2.390
30591W        W97132  41.485  21.770   2.827
30592W        W97133   7.921  33.613   2.753
30593W        W97134  34.402  28.245   3.717
30594W        W97135  12.550  30.964   4.652
30595W        W97136  13.275   9.141   1.674
30596W        W97137  29.508  10.156   5.135
30597W        W97138   0.315   4.442   4.232
30598W        W97139  40.385   3.531   3.254
30599W        W97140  32.697  21.224  14.733
30600W        W97141  43.869   9.329   0.459
30601W        W97142  14.332  21.123  12.988
30602W        W97143  13.657  11.736   2.318
30603W        W97144  26.929  38.276  12.903
30604W        W97145  15.176  25.883   4.576
30605W        W97146   3.743  25.133   0.218
30606W        W97147  11.363  33.887  12.033
30607W        W97148  31.135  21.720   2.626
30608W        W97149  40.129  37.180  13.946
30609W        W97150  44.494   6.716   4.058
30610W        W97151   4.757  18.783   1.357
30611W        W97152   6.632  27.875   0.489
30612W        W97153  29.084  43.947  10.833
30613W        W97154  25.175  29.927   1.393
30614W        W97155  20.924  30.653  10.974
30615W        W97156  21.010  10.376   3.336
30616W        W97157   0.967   5.211  13.869
30617W        W97158   8.042  26.394  14.892
30618W        W97159  27.238  10.362  12.804
30619W        W97160  21.209   6.614   2.583
30620W        W97161  28.632  39.929   2.642
30621W        W97162   2.008  11.229   3.269
30622W        W97163  13.939  22.986  12.886
30623W        W97164  25.923  22.110  10.874
30624W        W97165   7.603  12.520   0.508
30625W        W97166  12.076   2.247  14.980
30626W        W97167  35.140   4.991   0.305
30627W        W97168  30.882  40.897   0.583
30628W        W97169  38.469  14.035   1.393
30629W        W97170  40.971  12.561  14.036
30630W        W97171   9.110  13.238   1.127
30631W        W97172   3.801   4.057  10.675
30632W        W97173   6.747  28.141  14.414
30633W        W97174  31.436   6.308  10.579
30634W        W97175  40.859  20.622  13.994
30635W        W97176  43.078  31.623  14.396
30636W        W97177   2.500  35.457   1.423
30637W        W97178  33.213  19.736  10.760
30638W        W97179  22.659   1.298  14.256
30639W        W97180  20.257  28.800   1.817
30640W        W97181  13.146  14.368  14.372
30641W        W97182  32.923   2.854   0.735
30642W        W97183   7.206  27.980  11.877
30643W        W97184  11.359  24.849  12.507
30644W        W97185  24.859  35.693  10.021
30645W        W97186  32.140  30.310  14.276
30646W        W97187  12.215  37.944  10.657
30647W        W97188   1.409  17.540   2.862
30648W        W97189  33.471  43.512  11.555
30649W        W97190  38.587  33.864   1.183
30650W        W97191   9.485  42.250   4.442
30651W        W97192  38.692  36.539  10.759
30652W        W97193  14.197  22.558  14.953
30653W        W97194  25.166  12.782  13.563
30654W        W97195  27.076  40.701  12.490
30655W        W97196  18.293   8.290   1.607
30656W        W97197   7.271  16.825   0.201
30657W        W97198  33.019   7.463   1.930
30658W        W97199   0.969   3.877   2.720
30659W        W97200   3.417   4.753  13.648
30660W        W97201  40.399   6.697  12.434
30661W        W97202  10.914  33.375  12.590
30662W        W97203   4.961  20.302   1.103
30663W        W97204   4.904  32.018  14.365
30664W        W97205   0.049   6.676  12.882
30665W        W97206  15.655  10.274   0.681
30666W        W97207   3.876  22.472   0.900
30667W        W97208  24.417   4.915  13.978
30668W        W97209   9.446   6.623  14.553
30669W        W97210  24.977  23.191   3.207
30670W        W97211  37.936  41.704  14.965
30671W        W97212   7.699   9.747  10.700
30672W        W97213  12.273  23.415  14.019
30673W        W97214  29.949   5.225  14.531
30674W        W97215  28.818  23.943  11.464
30675W        W97216  38.545  35.430  13.860
30676W        W97217  26.998  16.882   0.859
30677W        W97218  18.509  29.774  10.017
30678W        W97219  32.393  26.550  11.599
30679W        W97220   3.950   0.336  10.314
30680W        W97221  13.556  16.212   0.948
30681W        W97222  32.440   3.161  14.808
30682W        W97223  41.752   6.109   4.515
30683W        W97224  22.897   0.829  10.593
30684W        W97225  13.881  27.194  13.635
30685W        W97226  44.593  29.101   3.553
30686W        W97227  21.062  38.765  14.503
30687W        W97228  18.298  35.657   0.457
30688W        W97229  34.531  35.092   1.400
30689W        W97230   8.343  29.764  14.709
30690W        W97231   4.970  33.372   0.859
30691W        W97232   1.297  35.816   5.254
30692W        W97233  19.101  32.329  10.490
30693W        W97234  21.541  43.328  10.218
30694W        W97235  15.272  22.935  10.663
30695W        W97236  33.066  25.218  14.933
30696W        W97237   1.000   3.152   3.852
30697W        W97238  11.269  33.103   2.124
30698W        W97239  34.749  35.192  12.824
30699W        W97240  40.326  18.052  14.930
30700W        W97241  36.064  25.612  12.150
30701W        W97242   3.874  29.185   4.023
30702W        W97243   8.480  17.147   3.628
30703W        W97244  12.414  24.081   1.760
30704W        W97245   9.598  16.563  13.367
30705W        W97246  39.220  27.437   3.154
30706W        W97247  13.821  22.215  13.308
30707W        W97248   6.219  29.489   4.081
30708W        W97249  11.171  35.071   2.248
30709W        W97250  42.846  35.870  11.082
30710W        W97251   6.876  33.419  14.469
30711W        W97252  15.377  24.065  14.943
30712W        W97253  10.761  23.451  13.011
30713W        W97254  37.218  32.586  12.882
30714W        W97255   1.334  29.378   1.731
30715W        W97256  33.439  27.682   2.421
30716W        W97257   9.601  21.253  14.863
30717W        W97258  29.604  13.791   1.646
30718W        W97259  38.438   2.631  11.473
30719W        W97260   6.641  33.051   0.252
30720W        W97261  37.439  42.038  13.972
30721W        W97262   5.086  19.575   0.874
30722W        W97263  40.333  31.082   0.902
30723W        W97264  14.817  20.312   0.933
30724W        W97265  35.694  24.928  11.023
30725W        W97266   1.409  21.746  10.715
30726W        W97267  40.075  32.988  13.931
30727W        W97268  22.228   7.844  10.490
30728W        W97269  38.773  18.582   4.096
30729W        W97270  23.239  21.373  12.007
30730W        W97271  43.049  23.590   1.440
30731W        W97272  15.638   4.479   4.958
30732W        W97273  24.886  10.835   3.772
30733W        W97274  18.728   0.473   0.357
30734W        W97275  30.027   8.638  14.248
30735W        W97276   7.900  25.494   2.573
30736W        W97277  37.367  42.947  12.946
30737W        W97278  41.010  22.800   3.674
30738W        W97279  38.379  21.240   1.181
30739W        W97280  15.197  44.933  14.034
30740W        W97281   4.757  32.011  11.030
30741W        W97282  35.605  35.861  12.270
30742W        W97283  14.768   7.695  13.870
30743W        W97284  11.562  44.807  10.602
30744W        W97285   8.911  31.151   0.285
30745W        W97286  29.889  44.490   0.821
30746W        W97287  29.863  41.554  10.971
30747W        W97288  19.521  12.310  11.649
30748W        W97289  12.142  10.340  13.260
30749W        W97290  10.194  25.710   4.640
30750W        W97291   1.127  33.073   3.928
30751W        W97292  21.038  16.125  13.891
30752W        W97293   9.679   7.708  13.067
30753W        W97294   6.807  30.886  13.519
30754W        W97295  14.055  40.377  13.860
30755W        W97296  44.983  22.271   2.452
30756W        W97297   6.440  31.997   3.671
30757W        W97298  13.409  11.379   3.725
30758W        W97299  11.841  14.096   4.584
30759W        W97300   7.788  28.003   3.658
30760W        W97301  27.430  20.210   2.663
30761W        W97302  25.948  39.412   2.381
30762W        W97303  22.453  10.346  11.749
30763W        W97304  20.751  28.990   1.742
30764W        W97305  44.727  20.578   1.511
30765W        W97306  26.002  38.802  11.945
30766W        W97307  12.808   8.844  13.926
30767W        W97308   2.312  31.915   4.098
30768W        W97309  20.701   7.370  10.811
30769W        W97310  27.116  25.712  10.768
30770W        W97311  31.341  21.627  13.445
30771W        W97312  13.844   8.186  11.097
30772W        W97313   2.240  27.773  12.989
30773W        W97314  44.964  27.124  11.268
30774W        W97315   9.964  25.264  13.482
30775W        W97316  20.097   0.342  13.998
30776W        W97317  23.096   6.640  11.296
30777W        W97318  13.077  12.237   0.292
30778W        W97319  20.753  13.610  11.464
30779W        W97320   1.817  10.637  12.456
30780W        W97321  32.644   3.456  12.939
30781W        W97322  32.952  11.370   3.700
30782W        W97323  28.775  13.841   3.295
30783W        W97324  20.339  13.514   1.660
30784W        W97325   0.903  34.861   1.217
30785W        W97326  26.563  34.933  13.857
30786W        W97327  39.388  37.491   2.693
30787W        W97328  39.058  21.330  14.748
30788W        W97329  27.970   5.184   5.193
30789W        W97330   1.018   8.095   3.200
30790W        W97331  20.080  25.218  12.957
30791W        W97332  29.608   8.482  13.982
30792W        W97333  25.006   5.352   3.244
30793W        W97334  38.381  41.408  13.106
30794W        W97335   0.438   5.209   2.681
30795W        W97336  21.193  28.668   3.707
30796W        W97337  18.671   2.285   4.871
30797W        W97338  27.860   7.220  13.553
30798W        W97339   0.179  10.828  13.943
30799W        W97340  11.776  17.523   4.767
30800W        W97341  32.627  18.588   4.081
30801W        W97342  34.425  30.996   4.049
30802W        W97343  43.414  24.122  14.863
30803W        W97344  22.643  39.221  13.466
30804W        W97345   3.885  26.296  13.191
30805W        W97346  24.858   4.705   5.054
30806W        W97347   3.797  16.125  13.304
30807W        W97348  15.431  22.673  11.619
30808W        W97349  13.691  44.368   0.275
30809W        W97350  17.303  24.500  14.847
30810W        W97351   5.849  11.235  10.770
30811W        W97352  25.724   8.874   4.580
30812W        W97353  21.835  37.520  12.627
30813W        W97354  40.221  25.737  11.120
30814W        W97355  22.221  21.500   3.364
30815W        W97356  29.418  18.633  14.900
30816W        W97357  20.019  26.613  14.730
30817W        W97358  36.992  35.578   0.816
30818W        W97359  38.997   9.177   4.533
30819W        W97360  21.798  38.133   0.813
30820W        W97361  20.696  43.939   3.720
30821W        W97362  19.750  41.971  12.761
30822W        W97363  43.061   0.678  11.241
30823W        W97364  17.996   9.136  14.025
30824W        W97365  36.080  20.006   0.592
30825W        W97366  28.141   9.910  11.055
30826W        W97367  29.667  31.011  12.008
30827W        W97368   3.882   2.431   0.561
30828W        W97369  42.468  27.371   0.267
30829W        W97370   5.717  19.242   2.153
30830W        W97371   6.199   8.614  12.443
30831W        W97372  17.137  41.358   0.477
30832W        W97373  15.898  28.126  11.174
30833W        W97374  19.759  42.351   3.450
30834W        W97375  42.801  13.599  12.018
30835W        W97376  15.327  12.189   3.319
30836W        W97377   6.845  20.631  11.543
30837W        W97378   3.336  35.441   1.507
30838W        W97379  16.180   4.845  14.527
30839W        W97380  10.859  37.601  12.605
30840W        W97381  11.457  19.034   1.494
30841W        W97382  23.015  43.751  14.224
30842W        W97383  36.751  19.451  12.537
30843W        W97384   0.658  18.447   0.709
30844W        W97385  13.835  36.080   2.425
30845W        W97386  17.616   9.637   1.332
30846W        W97387  27.008  25.007   2.491
30847W        W97388   5.716  43.000   4.742
30848W        W97389  11.882  23.222   2.271
30849W        W97390   0.397  33.837  12.038
30850W        W97391  18.079  44.511   3.185
30851W        W97392   0.525  42.915   3.695
30852W        W97393  30.412  23.391   3.864
30853W        W97394  34.943  26.661  10.690
30854W        W97395  23.086  26.420  14.885
30855W        W97396   5.608   2.712   1.071
30856W        W97397   0.269  12.343   1.810
30857W        W97398  31.607  29.735  13.035
30858W        W97399  27.682  39.424   4.483
30859W        W97400  29.529  24.051   4.714
30860W        W97401  21.315  14.119  12.029
30861W        W97402  38.588  11.384  12.801
30862W        W97403  10.810  43.499   1.911
30863W        W97404  22.143  23.672  11.040
30864W        W97405  11.115  39.843  11.235
30865W        W97406  25.264  42.347  10.751
30866W        W97407   8.782   6.598   0.745
30867W        W97408  37.335   8.334   0.237
30868W        W97409  23.118  22.159   3.971
30869W        W97410   9.383  39.932   0.349
30870W        W97411  15.564   5.632  13.886
30871W        W97412  22.483   4.473   2.744
30872W        W97413   9.296  18.560   0.777
30873W        W97414   8.117   9.237   2.219
30874W        W97415  17.501   2.752   4.422
30875W        W97416  26.463  21.418  12.407
30876W        W97417  12.356  12.316  12.500
30877W        W97418  12.378  20.084   4.556
30878W        W97419  16.316   6.190   2.322
30879W        W97420  22.718  33.339   1.349
30880W        W97421  35.429  29.831  12.867
30881W        W97422  10.813  32.642  11.714
30882W        W97423  35.821  42.952   0.958
30883W        W97424  28.099  19.538  11.904
30884W        W97425  13.282  41.455  13.562
30885W        W97426  13.839  18.171  11.992
30886W        W97427  18.242  12.778   3.633
30887W        W97428  28.675  34.689   3.768
30888W        W97429  10.339  28.499   2.395
30889W        W97430  23.124  26.574   2.417
30890W        W97431   9.894  21.156  11.844
30891W        W97432  33.449  34.425   0.067
30892W        W97433  12.831   4.145  12.888
30893W        W97434  33.178  16.148   2.297
30894W        W97435  36.171  13.786   1.860
30895W        W97436  34.783  13.296  14.941
30896W        W97437  15.343  42.396   2.257
30897W        W97438  15.655  28.677  14.401
30898W        W97439   4.353  10.435  14.560
30899W        W97440  27.977   9.466   0.015
30900W        W97441   0.798   3.797  11.572
30901W        W97442  36.264  34.372   1.469
30902W        W97443  16.634  40.299   2.895
30903W        W97444   0.074  44.679   1.290
30904W        W97445  14.779  14.611  10.578
30905W        W97446  35.105   6.761   0.516
30906W        W97447  11.191  20.579   3.587
30907W        W97448  43.302  23.830   5.035
30908W        W97449  37.864   5.809   4.507
30909W        W97450  23.518  37.667   3.077
30910W        W97451  30.060  17.448   3.335
30911W        W97452  33.302  43.443  10.712
30912W        W97453  17.522  34.999   1.732
30913W        W97454  15.409   0.739   0.382
30914W        W97455  31.160  30.549  13.691
30915W        W97456   4.005  41.352  10.187
30916W        W97457  33.165  39.905   0.483
30917W        W97458  22.270   6.709  11.947
30918W        W97459   5.219  31.858  14.997
30919W        W97460  21.123  39.878  13.525
30920W        W97461   7.276  20.760  14.692
30921W        W97462   5.756  41.211  12.009
30922W        W97463  14.106  20.529   1.441
30923W        W97464  40.954   4.379  10.785
30924W        W97465  15.710   8.127  12.959
30925W        W97466  24.747   2.788  11.093
30926W        W97467  20.414  41.392  13.058
30927W        W97468  32.859  29.631  13.353
30928W        W97469  22.508   1.199   3.615
30929W        W97470  14.394  24.550   4.701
30930W        W97471  21.789   5.979   3.182
30931W        W97472  40.876  44.713   1.311
30932W        W97473  39.721  12.482   4.088
30933W        W97474  14.420  10.718  12.091
30934W        W97475  20.344  18.428  12.844
30935W        W97476  29.022  17.187   3.777
30936W        W97477  24.731  29.542  10.901
30937W        W97478  10.243  23.603  10.147
30938W        W97479  36.960   9.302  14.579
30939W        W97480   6.305  27.922   0.915
30940W        W97481  44.971  14.590  10.723
30941W        W97482  22.294  17.633  14.551
30942W        W97483  16.861  44.895  13.128
30943W        W97484   3.280  22.108   0.722
30944W        W97485  18.717  22.323  14.133
30945W        W97486  23.541   6.927   0.697
30946W        W97487  26.405  20.292  14.303
30947W        W97488  41.716  41.443   0.409
30948W        W97489   2.526   3.440  13.565
30949W        W97490  44.910  17.623   0.954
30950W        W97491  21.118  37.855  11.121
30951W        W97492  39.010  41.796   2.434
30952W        W97493  42.198  43.436   1.759
30953W        W97494  36.429   6.389   2.986
30954W        W97495  31.725   6.876  13.594
30955W        W97496  20.183  39.364  11.552
30956W        W97497  11.821  44.673   2.626
30957W        W97498  24.586  16.478  12.655
30958W        W97499  30.654  34.474  12.535
30959W        W97500   4.798  29.629  12.636
30960W        W97501  20.743  10.473   2.473
30961W        W97502  26.716  15.717  12.405
30962W        W97503  14.968  22.564  14.410
30963W        W97504  28.460  43.854  11.609
30964W        W97505  32.671   6.575   3.491
30965W        W97506  32.024  21.396   0.219
30966W        W97507  20.509   6.467  10.570
30967W        W97508  19.526  41.866  14.346
30968W        W97509  27.039  43.333  14.411
30969W        W97510  24.227  16.157  10.760
30970W        W97511   3.537   1.692   2.660
30971W        W97512  36.473   6.327   4.303
30972W        W97513  29.440   7.129  10.677
30973W        W97514  18.720  16.601  13.125
30974W        W97515   1.219  25.266   1.384
30975W        W97516   0.679  21.159   2.247
30976W        W97517  10.923  39.991   3.598
30977W        W97518  22.256  44.056  14.399
30978W        W97519  35.086   0.734   0.459
30979W        W97520  13.679   5.949  11.604
30980W        W97521  33.739   1.104   9.852
30981W        W97522  37.274  28.647   4.162
30982W        W97523   5.599  23.772  14.461
30983W        W97524  23.038  28.575  13.537
30984W        W97525  37.059  16.643   2.601
30985W        W97526  20.795   1.016  10.650
30986W        W97527  32.980  36.890  13.971
30987W        W97528   4.436  40.779   1.352
30988W        W97529  11.816  13.213  11.655
30989W        W97530  14.130  23.052   1.683
30990W        W97531  44.512  44.055   2.873
30991W        W97532  26.625  31.577   3.698
30992W        W97533  29.682  29.661   0.740
30993W        W97534  25.474  38.977   1.041
30994W        W97535  27.180   2.232  10.711
30995W        W97536  35.574   5.734  11.962
30996W        W97537  11.332  38.535  10.580
30997W        W97538  30.396  13.329  14.985
30998W        W97539  43.939  20.499  12.591
30999W        W97540  41.586  32.633   1.423
31000W        W97541  32.429   5.273  14.469
31001W        W97542  17.505  34.025   2.848
31002W        W97543  24.985  40.251   4.086
31003W        W97544  13.392   3.767   1.416
31004W        W97545  17.097  14.084   1.906
31005W        W97546  41.567  42.466  11.452
31006W        W97547  40.218   7.255  14.189
31007W        W97548  36.553  31.641  13.964
31008W        W97549  19.085  18.616  13.933
31009W        W97550   0.689  11.240  14.086
31010W        W97551   5.271  37.084  13.003
31011W        W97552  21.690   1.014   2.348
31012W        W97553  35.389  21.509   1.366
31013W        W97554  31.487   2.531   0.933
31014W        W97555  19.379  14.434   1.923
31015W        W97556  13.872   3.283   3.824
31016W        W97557  16.273  22.702  13.407
31017W        W97558  23.868  26.351   0.249
31018W        W97559  25.122  28.000   1.484
31019W        W97560  20.996  19.817   3.226
31020W        W97561  34.829  30.515  13.812
31021W        W97562  33.818  10.886   1.794
31022W        W97563   4.382  33.501  10.916
31023W        W97564   7.586  37.897  11.685
31024W        W97565  36.074  20.538   0.497
31025W        W97566  20.801  14.286   3.256
31026W        W97567  38.263  15.247   0.412
31027W        W97568  11.769  32.403  12.145
31028W        W97569  29.116  27.830  11.451
31029W        W97570   6.967  32.184   0.688
31030W        W97571  14.635  14.521  12.362
31031W        W97572  26.765   1.437   4.510
31032W        W97573  43.863   8.459  12.624
31033W        W97574  18.174  41.526   2.689
31034W        W97575  14.041  10.789  13.375
31035W        W97576  25.895  20.000   2.805
31036W        W97577   4.649  42.128   4.163
31037W        W97578  25.155  30.640   1.591
31038W        W97579  16.794  44.481   2.324
31039W        W97580  43.745  27.264  13.107
31040W        W97581  25.956   5.290  14.827
31041W        W97582  32.774  11.110  13.839
31042W        W97583  34.621  38.454   3.081
31043W        W97584  18.293   9.846   2.102
31044W        W97585  38.372  35.095   1.826
31045W        W97586   7.586  42.445   2.319
31046W        W97587  13.131  31.505   2.610
31047W        W97588   2.545  10.186   4.974
31048W        W97589  26.052  42.005  11.108
31049W        W97590   4.073   0.040   3.816
31050W        W97591  36.972  12.666  12.296
31051W        W97592   6.591  18.568   1.497
31052W        W97593  22.564  28.991   4.666
31053W        W97594  21.916  26.171  10.612
31054W        W97595  13.692  26.540   1.934
31055W        W97596   6.669  34.137   4.780
31056W        W97597  25.526  27.665   0.382
31057W        W97598   5.614  22.030   3.198
31058W        W97599  42.993  36.187  10.710
31059W        W97600   9.014  10.313  13.014
31060W        W97601  42.815  21.123   3.276
31061W        W97602  40.353  10.821  14.721
31062W        W97603   9.194  31.109   3.705
31063W        W97604   4.833  40.889   2.832
31064W        W97605  33.755  34.866  12.757
31065W        W97606   3.413  23.337   0.011
31066W        W97607  22.724   6.215   2.324
31067W        W97608  43.464  31.659   0.320
31068W        W97609  41.549  43.759   3.515
31069W        W97610  36.118  41.910   2.096
31070W        W97611  15.193  22.521   3.080
31071W        W97612  22.975  23.136  14.905
31072W        W97613  31.083  37.084  11.618
31073W        W97614  38.898  43.008   2.743
31074W        W97615  38.696   9.147  11.608
31075W        W97616  38.160  42.831   0.878
31076W        W97617  27.373  37.442  11.227
31077W        W97618  26.532  15.730   1.677
31078W        W97619  30.636  12.094  12.128
31079W        W97620  13.530  14.755  12.452
31080W        W97621  29.013  26.622   4.592
31081W        W97622   4.972  25.039  14.908
31082W        W97623  26.711   5.287  11.565
31083W        W97624  32.450  15.658  12.899
31084W        W97625   8.372  27.916   2.771
31085W        W97626  22.846  32.927   4.945
31086W        W97627   0.543  41.762  14.397
31087W        W97628  21.205  12.712  10.041
31088W        W97629  30.678  39.690  12.458
31089W        W97630   1.078  22.835   4.174
31090W        W97631  38.709  22.103   0.988
31091W        W97632   1.539  25.964   1.835
31092W        W97633  15.746  29.549  11.569
31093W        W97634  26.165  15.202   4.625
31094W        W97635  17.376   2.262  13.575
31095W        W97636  39.934  43.286  14.415
31096W        W97637  10.371  31.005  11.698
31097W        W97638  21.686  39.050   2.219
31098W        W97639   2.770  11.605   3.152
31099W        W97640   6.473  33.151   2.352
31100W        W97641  21.593  40.528   4.026
31101W        W97642  34.084   8.698   3.165
31102W        W97643   2.042  34.089  12.524
31103W        W97644  39.264  28.278  12.401
31104W        W97645  30.090  34.338   0.222
31105W        W97646   3.447  17.228  12.086
31106W        W97647  15.313  35.171  14.051
31107W        W97648  40.063  33.626  12.266
31108W        W97649  36.060  28.457  14.829
31109W        W97650  36.891  33.207   3.334
31110W        W97651  20.658  21.266  14.526
31111W        W97652  44.964  28.766   3.055
31112W        W97653  34.619  39.365  10.702
31113W        W97654  30.422  16.120  10.618
31114W        W97655  23.715  36.816  13.359
31115W        W97656  10.285  14.082   4.893
31116W        W97657   9.254  29.189  11.185
31117W        W97658   4.839  15.568  12.010
31118W        W97659  17.630  22.222  11.547
31119W        W97660   4.952  10.628   1.353
31120W        W97661  19.220  19.195   1.768
31121W        W97662  21.124   5.377   0.233
31122W        W97663  39.772   0.799   4.350
31123W        W97664  13.656  15.300  12.902
31124W        W97665  14.350  37.432   3.679
31125W        W97666  27.978  19.240   0.397
31126W        W97667  38.531  24.932  14.310
31127W        W97668   0.504  21.177   3.710
31128W        W97669  20.940   6.350   2.259
31129W        W97670  33.352  16.330  14.298
31130W        W97671  42.533  39.454   4.172
31131W        W97672  24.999  31.959  13.865
31132W        W97673   6.183  16.770   0.433
31133W        W97674  11.088  29.944  12.344
31134W        W97675  22.029  31.120   0.785
31135W        W97676   6.896   9.297  12.635
31136W        W97677  41.773  44.301   0.278
31137W        W97678  12.343  29.839  10.655
31138W        W97679   7.238  13.333  12.509
31139W        W97680  26.639  36.901  11.945
31140W        W97681   6.524   8.399   1.275
31141W        W97682  42.710  33.289   4.991
31142W        W97683  16.148  10.146   2.327
31143W        W97684   0.695   1.684  10.907
31144W        W97685   3.252  42.990   2.348
31145W        W97686  37.496   6.408   4.038
31146W        W97687  22.096  44.826   1.626
31147W        W97688  25.952  34.212  14.496
31148W        W97689  11.361  15.751   4.451
31149W        W97690  10.801   2.894   1.238
31150W        W97691   7.787  10.813   4.769
31151W        W97692  10.950  38.475  13.476
31152W        W97693  36.481   6.802  12.839
31153W        W97694   8.447  15.662  12.457
31154W        W97695  14.032  36.628  11.360
31155W        W97696  32.924  28.021   2.784
31156W        W97697  40.620  25.116  10.422
31157W        W97698  27.637  40.789   0.342
31158W        W97699   5.341   8.244  10.521
31159W        W97700  26.695  41.456  13.275
31160W        W97701  28.665  23.191   3.908
31161W        W97702   1.551   6.419  13.756
31162W        W97703   0.415  31.113  14.752
31163W        W97704  14.728  25.319  13.947
31164W        W97705   7.771  25.721  14.354
31165W        W97706   8.313  26.685   0.280
31166W        W97707  26.052  18.513   4.270
31167W        W97708   2.732  30.820   1.044
31168W        W97709  23.486   9.196  14.447
31169W        W97710  39.286  20.033  13.372
31170W        W97711  43.466  42.882  12.095
31171W        W97712  40.309  29.129   1.264
31172W        W97713   1.022  33.644   2.727
31173W        W97714   9.488  16.768   2.624
31174W        W97715   8.716  18.016  14.674
31175W        W97716  38.307  15.173  12.962
31176W        W97717  14.218   2.521  12.550
31177W        W97718  13.785  37.222   0.419
31178W        W97719   7.419  36.994   2.021
31179W        W97720  36.476  23.762   0.377
31180W        W97721   0.126   2.177  14.256
31181W        W97722  26.528  24.244   2.749
31182W        W97723  27.953  18.257   2.358
31183W        W97724  44.485  21.383   5.246
31184W        W97725  16.235  16.061  14.863
31185W        W97726  19.988  28.775   3.229
31186W        W97727  13.085  38.904   3.746
31187W        W97728  14.064  15.766  13.183
31188W        W97729  10.710  38.849  14.245
31189W        W97730  34.093  24.262   1.785
31190W        W97731   6.870   5.036   0.981
31191W        W97732   8.736  26.718   1.314
31192W        W97733  25.469  39.537  11.689
31193W        W97734  43.471   7.781   4.669
31194W        W97735  31.499  11.849  12.603
31195W        W97736  28.931  29.495  12.433
31196W        W97737  21.849  22.530   0.194
31197W        W97738   4.287  11.405  12.379
31198W        W97739  15.081  13.960   5.062
31199W        W97740  28.976   4.469  13.915
31200W        W97741  31.433  30.941  10.579
31201W        W97742   6.988  37.328  14.540
31202W        W97743  42.622  22.576   0.549
31203W        W97744  36.562  30.471   4.313
31204W        W97745  27.293   7.481   5.062
31205W        W97746  13.499  44.735  12.666
31206W        W97747  29.677  21.812  14.872
31207W        W97748   7.224   2.934  14.662
31208W        W97749  17.595  37.091  11.082
31209W        W97750  21.564  34.043  10.977
31210W        W97751  11.168  24.997   4.761
31211W        W97752  17.821  19.134   2.600
31212W        W97753   6.818   7.826  12.011
31213W        W97754  10.260  12.910  13.007
31214W        W97755   3.898  31.574   0.323
31215W        W97756  16.031  41.232   2.637
31216W        W97757  29.721  34.526  11.643
31217W        W97758  15.887  42.284  11.595
31218W        W97759  28.542   7.687   2.302
31219W        W97760  28.872  24.788   2.699
31220W        W97761   4.353  33.178   3.904
31221W        W97762  23.314  43.816   2.664
31222W        W97763  27.674  20.024  12.572
31223W        W97764  33.110  16.325   0.839
31224W        W97765   5.909   5.386   2.976
31225W        W97766  24.779  10.781  11.625
31226W        W97767  37.621  29.002   1.753
31227W        W97768   2.245   6.321   0.610
31228W        W97769   6.411  25.864   0.597
31229W        W97770  19.009   3.456  10.579
31230W        W97771  34.451  25.118   3.617
31231W        W97772  28.496  14.703   1.248
31232W        W97773   3.302  16.799  12.924
31233W        W97774  22.786  37.607   1.913
31234W        W97775   7.827  24.012  12.529
31235W        W97776  10.361  31.784   0.658
31236W        W97777  23.988   4.310  12.443
31237W        W97778   7.694  41.870   1.325
31238W        W97779   2.606  25.093   1.312
31239W        W97780  16.110  26.538  13.358
31240W        W97781  11.776   6.243  10.673
31241W        W97782   2.420  37.957  10.636
31242W        W97783  23.207  11.680  13.697
31243W        W97784   9.269  13.357  11.943
31244W        W97785  42.394  27.966   3.301
31245W        W97786  34.105  21.179   3.430
31246W        W97787  20.040  12.475   2.703
31247W        W97788  18.238  36.002   1.324
31248W        W97789  17.778  27.928  13.988
31249W        W97790   3.048  15.344  14.462
31250W        W97791  36.124  28.647   0.298
31251W        W97792  10.622  19.628  13.742
31252W        W97793  16.128  21.053  13.808
31253W        W97794  35.344  14.258   4.078
31254W        W97795  19.838  16.759   1.593
31255W        W97796  16.672  21.573  14.285
31256W        W97797   3.729  21.520   1.256
31257W        W97798  26.447  16.647  11.218
31258W        W97799   5.776  17.332  14.398
31259W        W97800  39.056  19.777  11.031
31260W        W97801  23.479  39.891   2.231
31261W        W97802  21.269   3.840   4.615
31262W        W97803  39.478  13.306  14.952
31263W        W97804   9.302  42.333   1.174
31264W        W97805   8.777   2.204  14.711
31265W        W97806  42.924   7.771   2.368
31266W        W97807  37.547  22.812   4.045
31267W        W97808  24.562  30.683  14.408
31268W        W97809  28.471  19.068   0.390
31269W        W97810  21.152  44.140   4.110
31270W        W97811   7.430  29.835   3.611
31271W        W97812  18.722  33.038  10.568
31272W        W97813  17.828  33.562  10.629
31273W        W97814  36.081  11.793  12.111
31274W        W97815  17.319  44.002   4.882
31275W        W97816  35.653  39.419   4.760
31276W        W97817  42.027  10.244  13.920
31277W        W97818  28.333  24.206   1.753
31278W        W97819  14.519  22.824   1.938
31279W        W97820  23.586  19.848  14.450
31280W        W97821  12.118  19.428  10.531
31281W        W97822  37.426  24.573   1.676
31282W        W97823  30.484  29.702  11.769
31283W        W97824  30.083  41.850  14.362
31284W        W97825  10.634  19.018  12.557
31285W        W97826  26.214  44.542  11.989
31286W        W97827  36.657  37.507  13.805
31287W        W97828  21.140  34.163   1.886
31288W        W97829   6.615   5.111   0.368
31289W        W97830   2.367  20.214   0.796
31290W        W97831  26.683   2.434  11.272
31291W        W97832  37.866  44.654  11.597
31292W        W97833  14.204  44.287   3.780
31293W        W97834  17.465  44.935   4.134
31294W        W97835  15.749   6.272   0.797
31295W        W97836   6.098  27.427   3.161
31296W        W97837  29.232  20.316   2.391
31297W        W97838  17.675   1.808  14.087
31298W        W97839   4.296  32.480   1.300
31299W        W97840  26.546  43.055   1.763
31300W        W97841   9.380   0.699   1.393
31301W        W97842  11.978  38.445  11.502
31302W        W97843  21.309  14.309   0.330
31303W        W97844  25.428  30.377  11.061
31304W        W97845   9.056  30.769  10.256
31305W        W97846  38.815   9.368  10.232
31306W        W97847  20.127  18.075   5.021
31307W        W97848  13.275  33.783  12.940
31308W        W97849   9.127  28.220   3.192
31309W        W97850   5.808  27.577   2.631
31310W        W97851   8.273  39.381  11.715
31311W        W97852   0.983  21.751  10.412
31312W        W97853   1.937   3.165  12.930
31313W        W97854  32.528  37.167  11.402
31314W        W97855  29.526  44.295   1.282
31315W        W97856  42.980  35.298   0.709
31316W        W97857   4.586  37.341  12.523
31317W        W97858  20.573  10.338  12.982
31318W        W97859  11.340   6.833   3.968
31319W        W97860  34.121   6.666   1.348
31320W        W97861  21.091   2.384   4.553
31321W        W97862  43.286  22.258  12.171
31322W        W97863  22.745  10.519   2.158
31323W        W97864  19.349   0.364  12.038
31324W        W97865  18.972  38.200  12.164
31325W        W97866  36.037  17.400  12.447
31326W        W97867  39.959  42.969   0.702
31327W        W97868  11.697  13.281   4.195
31328W        W97869  10.778  43.383   3.349
31329W        W97870  15.555   1.629  14.993
31330W        W97871  18.959  10.849   3.915
31331W        W97872  16.549  24.746   4.615
31332W        W97873  21.501  26.557   2.883
31333W        W97874  32.926  13.360  14.837
31334W        W97875   3.283  40.300   3.148
31335W        W97876  25.485  14.909   0.791
31336W        W97877  17.694  40.882   3.041
31337W        W97878  20.044  11.089   3.788
31338W        W97879  43.024  20.524   1.973
31339W        W97880  40.834  27.547  10.685
31340W        W97881  40.256  14.524   1.601
31341W        W97882  17.143  14.916   2.334
31342W        W97883  22.127  43.042   4.863
31343W        W97884  10.346   0.880  12.539
31344W        W97885  26.209  21.331  12.848
31345W        W97886  13.475  39.843   3.797
31346W        W97887  17.951  30.721   1.295
31347W        W97888  21.496   0.984  12.467
31348W        W97889  11.375  40.408   3.272
31349W        W97890  23.122   2.801  13.419
31350W        W97891  24.168  39.870   3.020
31351W        W97892  35.541  22.343  13.747
31352W        W97893   9.239  35.828   0.456
31353W        W97894  34.707  10.272  14.795
31354W        W97895  38.974   1.686   4.012
31355W        W97896  25.438  32.124  12.008
31356W        W97897  39.527  16.869   4.466
31357W        W97898   3.831   8.951   0.456
31358W        W97899  27.589  25.207   3.706
31359W        W97900  30.440  32.043  11.963
31360W        W97901  37.325   9.197   4.169
31361W        W97902   0.594  35.358  10.866
31362W        W97903  33.935  42.689   2.344
31363W        W97904  27.882  37.568  11.125
31364W        W97905  29.886  33.197   4.312
31365W        W97906  40.767  25.270   0.987
31366W        W97907  19.570  33.642   0.843
31367W        W97908  11.771  27.038  12.037
31368W        W97909   7.472   3.912  12.492
31369W        W97910  29.684  39.430  11.550
31370W        W97911  38.947   8.368  14.769
31371W        W97912   0.390  23.008  14.244
31372W        W97913  34.919  36.528   2.485
31373W        W97914  30.673  41.138  11.003
31374W        W97915  21.732  13.675   1.871
31375W        W97916   6.183  30.192   2.106
31376W        W97917   5.865   6.929  10.735
31377W        W97918   2.240  32.450   2.587
31378W        W97919  35.030  31.365   0.929
31379W        W97920  34.043  24.056   3.681
31380W        W97921  16.873  25.442   3.631
31381W        W97922  31.549   0.943  11.262
31382W        W97923  44.948  12.283   4.955
31383W        W97924  22.181  19.221   3.824
31384W        W97925  12.843  27.055  14.069
31385W        W97926  25.701   3.376   4.071
31386W        W97927  30.093  44.990   0.838
31387W        W97928  44.038   3.688  10.236
31388W        W97929  34.786  28.942  14.912
31389W        W97930  19.557  26.992   0.773
31390W        W97931  26.766  41.718   3.288
31391W        W97932  44.209  31.131   2.300
31392W        W97933  12.389  42.699   4.230
31393W        W97934  34.120  20.127  13.041
31394W        W97935  34.611   5.920  13.519
31395W        W97936  36.674  34.043   3.466
31396W        W97937  21.569  15.189  11.028
31397W        W97938   4.690  30.173  10.590
31398W        W97939  26.594  32.107  14.493
31399W        W97940  29.852  13.936   2.580
31400W        W97941   6.088  34.246  10.025
31401W        W97942  26.944  27.714  11.333
31402W        W97943   4.298  36.796  14.514
31403W        W97944   9.494  44.861   4.591
31404W        W97945   1.907  44.701   0.601
31405W        W97946  23.794  40.826  13.053
31406W        W97947  17.936  28.405   1.894
31407W        W97948  33.929  21.708  14.294
31408W        W97949  36.841  16.599   4.503
31409W        W97950  33.820  27.938   2.751
31410W        W97951  23.103  41.865   4.214
31411W        W97952   6.877   3.129   5.066
31412W        W97953   0.977  18.123   3.342
31413W        W97954  11.050  41.818  12.578
31414W        W97955  12.879  36.868   0.424
31415W        W97956  16.774   3.263   3.125
31416W        W97957  37.578  19.682   1.390
31417W        W97958  22.201  41.948   1.902
31418W        W97959  42.737   2.279   3.229
31419W        W97960  33.456  37.628  12.984
31420W        W97961  27.492  29.530  10.812
31421W        W97962  28.761  18.490  14.562
31422W        W97963  18.496  10.624  11.990
31423W        W97964  32.030  29.585   0.725
31424W        W97965  12.730  25.591  14.404
31425W        W97966   7.789  28.052  14.629
31426W        W97967  18.759  22.430  13.155
31427W        W97968  33.995  15.133  14.752
31428W        W97969   2.190  42.610   3.597
31429W        W97970  13.173   5.904  10.555
31430W        W97971  13.923  34.172   2.724
31431W        W97972   1.175  43.463   4.299
31432W        W97973  12.623  25.794  11.621
31433W        W97974   7.674   7.550  14.397
31434W        W97975  14.651  35.356  13.239
31435W        W97976  35.374  18.984  13.412
31436W        W97977  39.444   9.091  14.839
31437W        W97978   0.149   2.002   2.401
31438W        W97979  32.665   7.123   3.595
31439W        W97980  43.067  11.189   1.835
31440W        W97981   6.184   4.973  12.821
31441W        W97982  33.215  39.955   2.856
31442W        W97983   7.022  24.566  11.153
31443W        W97984   9.291  34.593   2.609
31444W        W97985  36.647  32.909  13.532
31445W        W97986   2.237   6.581  12.708
31446W        W97987  36.902  10.667  11.645
31447W        W97988  39.600   2.560  13.499
31448W        W97989  28.331  36.106  13.398
31449W        W97990  44.286  15.393   3.506
31450W        W97991  14.301   3.445   1.408
31451W        W97992  10.297  41.531  14.359
31452W        W97993  32.183  34.866   3.606
31453W        W97994   5.861  35.046   3.164
31454W        W97995  44.218  31.680  12.542
31455W        W97996  17.288  25.421   3.277
31456W        W97997   2.800  37.225  10.386
31457W        W97998  36.358  13.065   3.273
31458W        W97999  40.939  12.353  13.417
31459W        W98000   0.676  34.459   4.331
31460W        W98001  10.573  15.579  10.603
31461W        W98002  14.355  43.991  12.575
31462W        W98003  16.629   6.149   1.451
31463W        W98004  11.551   3.279   4.064
31464W        W98005  22.186   7.803  12.751
31465W        W98006   8.735  13.753   1.879
31466W        W98007   1.335  36.190   4.905
31467W        W98008  43.856  24.238   3.294
31468W        W98009   3.169   5.118  14.641
31469W        W98010   9.934  16.443  11.739
31470W        W98011  31.602  21.008   2.569
31471W        W98012  29.689  42.946   3.003
31472W        W98013   6.821  17.005  13.451
31473W        W98014  39.728   0.784   4.878
31474W        W98015  38.258   9.860   3.768
31475W        W98016  40.076  26.893   4.206
31476W        W98017  29.005  35.487   0.412
31477W        W98018  29.664   4.634  13.505
31478W        W98019  27.899  12.629  12.385
31479W        W98020  18.158  12.382  13.291
31480W        W98021  14.281   7.764  12.903
31481W        W98022  29.485  37.590   3.724
31482W        W98023   3.269   6.362   3.347
31483W        W98024   8.408  10.325   3.450
31484W        W98025  33.962  40.516  13.051
31485W        W98026  19.213   0.800  12.322
31486W        W98027  42.751  29.192  14.391
31487W        W98028  20.234  10.154  13.323
31488W        W98029  13.179  27.965   4.748
31489W        W98030  14.538  42.835   1.083
31490W        W98031  36.343   9.661   3.730
31491W        W98032  19.975  38.788   2.730
31492W        W98033  28.089  33.468   2.373
31493W        W98034  26.121  34.747   3.925
31494W        W98035  29.023  10.521   3.339
31495W        W98036  10.417  42.989   3.732
31496W        W98037  16.563  41.991  14.296
31497W        W98038  35.520  19.822  13.791
31498W        W98039  37.158   2.905  10.284
31499W        W98040  41.416   5.783  12.330
31500W        W98041  19.649  11.924  12.417
31501W        W98042  22.457   2.903   2.284
31502W        W98043  12.248  22.684  13.177
31503W        W98044   1.804   0.409  11.873
31504W        W98045   6.291  36.871  10.474
31505W        W98046  42.977  17.460  12.745
31506W        W98047  10.384  35.111  12.549
31507W        W98048  26.032  28.293   2.254
31508W        W98049  20.058  44.337   2.778
31509W        W98050  36.421  28.891  13.408
31510W        W98051  24.140  23.051   4.314
31511W        W98052  25.665  22.123  11.830
31512W        W98053   6.844  39.831  14.935
31513W        W98054   4.990  23.193   1.384
31514W        W98055  27.034   5.725   4.678
31515W        W98056  20.913  14.146  14.067
31516W        W98057   5.862  38.925  11.816
31517W        W98058  17.841   9.230  11.571
31518W        W98059  36.046   5.949   0.725
31519W        W98060  43.250   4.624   1.233
31520W        W98061  33.966  41.405   0.780
31521W        W98062  29.626  12.694   2.859
31522W        W98063  24.016  26.153  13.395
31523W        W98064  38.807  33.493  13.952
31524W        W98065   3.523   2.801  14.790
31525W        W98066  30.929  26.366  12.441
31526W        W98067  38.507  27.781  11.666
31527W        W98068  44.058  37.474  13.062
31528W        W98069   1.999  26.735   0.020
31529W        W98070  38.026  34.045  14.785
31530W        W98071  41.609  39.056   1.286
31531W        W98072  19.862  34.934  13.982
31532W        W98073  28.401  26.080   3.364
31533W        W98074   6.965   0.929  10.753
31534W        W98075  40.720  11.345   4.197
31535W        W98076  26.553  21.026  14.919
31536W        W98077  39.548  33.442   2.270
31537W        W98078  15.065  38.436   1.756
31538W        W98079  22.527  13.628  12.849
31539W        W98080  34.989  37.636  14.479
31540W        W98081   4.114  32.630  13.541
31541W        W98082  36.910   2.499   0.385
31542W        W98083   7.677   8.613  12.827
31543W        W98084  28.932  15.546   3.288
31544W        W98085  17.362  19.308   3.339
31545W        W98086  19.079  35.663   1.433
31546W        W98087  28.523  28.946   2.928
31547W        W98088   4.449   4.846   4.541
31548W        W98089  22.507  35.152  14.944
31549W        W98090  38.363   7.635   0.948
31550W        W98091  14.108  14.032  13.484
31551W        W98092  22.112  34.862   0.701
31552W        W98093  40.372  43.787   0.713
31553W        W98094  29.568  37.331  10.368
31554W        W98095   9.780  31.873   3.672
31555W        W98096  41.366  26.947  12.046
31556W        W98097  42.800  16.874  11.568
31557W        W98098   6.716  33.981   2.286
31558W        W98099  22.516  35.434  12.643
31559W        W98100   6.443  24.375   5.340
31560W        W98101  17.598  30.681   2.036
31561W        W98102  19.507   6.761  13.144
31562W        W98103   3.880   7.488   0.973
31563W        W98104   6.876  25.070  10.199
31564W        W98105  31.690  22.747  11.565
31565W        W98106  13.100   1.723   2.683
31566W        W98107  16.337  40.930   3.083
31567W        W98108  17.847  32.094   3.377
31568W        W98109   0.379  35.970   3.032
31569W        W98110  28.528  35.205  10.777
31570W        W98111  42.914  41.722  11.482
31571W        W98112  31.849  32.625  11.181
31572W        W98113   5.910  15.771   4.144
31573W        W98114  20.560  34.534   0.878
31574W        W98115   5.778  12.569  11.068
31575W        W98116  14.595  23.517   4.564
31576W        W98117  36.863  13.140   1.900
31577W        W98118  12.520  15.408  12.873
31578W        W98119  11.269  13.765   3.253
31579W        W98120   9.266  28.661  13.655
31580W        W98121  21.415  44.146  14.095
31581W        W98122  21.545  23.057  14.397
31582W        W98123  41.743  39.457   2.846
31583W        W98124  19.800  19.643   4.919
31584W        W98125   1.447  31.088  13.434
31585W        W98126   8.626  34.947   3.923
31586W        W98127  34.663  39.092  11.157
31587W        W98128   5.257  42.834   0.419
31588W        W98129   7.391  21.126  10.430
31589W        W98130  36.579  18.577  14.275
31590W        W98131   8.737  37.890   0.869
31591W        W98132   3.763  22.470   4.144
31592W        W98133  24.437  28.019  12.079
31593W        W98134  37.593   2.335   2.262
31594W        W98135  39.375   9.861   4.509
31595W        W98136  13.148   8.885   1.243
31596W        W98137   8.731  42.437  12.928
31597W        W98138   4.954   3.342  13.030
31598W        W98139  26.642   2.444  12.313
31599W        W98140  19.597  38.657   0.518
31600W        W98141  26.022  23.187   1.219
31601W        W98142  23.659  15.274  14.713
31602W        W98143  26.425  21.426  11.194
31603W        W98144  29.671   0.878   3.158
31604W        W98145  41.968  18.156   1.466
31605W        W98146  29.866  39.880   4.788
31606W        W98147  35.570  36.455   4.391
31607W        W98148  43.769  20.134  11.601
31608W        W98149   5.342   3.777  11.664
31609W        W98150  30.623   6.309  14.077
31610W        W98151  44.588  13.187  14.930
31611W        W98152   0.227  36.049  14.344
31612W        W98153  42.731  15.077  12.899
31613W        W98154  38.033  37.615  14.929
31614W        W98155  24.454  20.275  13.379
31615W        W98156  36.055   1.800  12.858
31616W        W98157  38.339  40.779  12.403
31617W        W98158  21.679  28.073  13.386
31618W        W98159  37.382  36.500   4.398
31619W        W98160  30.963  12.190   4.449
31620W        W98161  35.626  38.340  14.235
31621W        W98162  17.820  42.292   2.361
31622W        W98163  40.309  19.834  12.911
31623W        W98164   8.927  21.240   4.568
31624W        W98165   4.995   4.939   4.514
31625W        W98166  21.629  27.700   0.851
31626W        W98167   3.451  29.029   0.294
31627W        W98168  30.057   1.711   1.378
31628W        W98169  43.950  36.169   2.722
31629W        W98170  19.515  11.044   2.745
31630W        W98171   5.196  43.854   1.859
31631W        W98172  28.203   6.190   1.350
31632W        W98173   1.302  41.529   3.272
31633W        W98174  11.623  29.094  13.850
31634W        W98175  40.996   6.787  14.464
31635W        W98176   6.211  33.821  10.643
31636W        W98177  40.770  26.518  12.871
31637W        W98178  26.600  15.235   1.263
31638W        W98179  25.651  39.284  13.578
31639W        W98180  26.670   7.247  11.943
31640W        W98181  11.716  17.073   2.753
31641W        W98182   1.696  12.848   1.894
31642W        W98183   9.831  36.810  11.653
31643W        W98184  17.780  34.115   3.808
31644W        W98185  24.264   8.353  14.007
31645W        W98186   1.277  42.040  14.792
31646W        W98187   7.669  16.722   0.707
31647W        W98188  11.093  14.046   2.371
31648W        W98189  16.736  11.161  12.365
31649W        W98190   8.467  22.594  14.337
31650W        W98191  10.566  28.487   1.365
31651W        W98192  25.444  28.901   1.855
31652W        W98193  43.653  15.328   9.822
31653W        W98194   3.295   7.858   2.215
31654W        W98195  25.511  21.297   4.394
31655W        W98196   6.634  16.621  13.827
31656W        W98197  21.675  40.503   0.449
31657W        W98198  26.679   1.793   0.305
31658W        W98199  30.831  17.101  14.290
31659W        W98200  38.636  40.797  10.028
31660W        W98201  28.436  20.724   0.947
31661W        W98202  42.570  34.480   2.029
31662W        W98203  34.100  15.986  12.992
31663W        W98204  41.203  25.811  12.501
31664W        W98205  30.434  11.465  10.252
31665W        W98206  36.634   4.666   0.448
31666W        W98207  22.203  40.242  11.579
31667W        W98208  29.504  30.881  13.820
31668W        W98209  37.387  40.230   2.643
31669W        W98210  30.644  41.458   1.853
31670W        W98211  16.979  19.768  11.183
31671W        W98212  37.759   1.866   4.661
31672W        W98213  14.125  34.227  12.500
31673W        W98214   7.236  44.836   3.125
31674W        W98215  36.263  11.939   3.738
31675W        W98216  29.930  29.213   0.612
31676W        W98217  36.642   2.320   5.083
31677W        W98218  36.616   1.556   4.099
31678W        W98219   2.482  27.661  12.528
31679W        W98220  10.532  21.891   0.330
31680W        W98221  13.293  16.541   2.679
31681W        W98222   9.380  36.123  11.195
31682W        W98223  23.737   2.719   3.690
31683W        W98224   5.896   3.761  13.417
31684W        W98225  29.098  33.425   1.356
31685W        W98226  32.417  26.131  12.910
31686W        W98227  41.820  26.031   3.932
31687W        W98228  22.148  26.723   0.191
31688W        W98229  40.981   4.446  11.658
31689W        W98230   1.213   7.249  11.240
31690W        W98231  37.066  16.602  11.568
31691W        W98232   7.227  24.549   3.187
31692W        W98233  33.856   6.236   1.214
31693W        W98234  27.682  28.230  12.335
31694W        W98235  11.816  17.174   1.777
31695W        W98236  38.246   9.611   0.452
31696W        W98237   4.712  18.095   0.839
31697W        W98238  35.540   8.815   5.205
31698W        W98239  30.239  37.781   2.809
31699W        W98240  19.486  39.567  13.060
31700W        W98241  18.709  23.527   9.597
31701W        W98242  30.474  27.113   1.941
31702W        W98243  31.337  18.987   1.185
31703W        W98244  16.063   9.617   4.222
31704W        W98245   7.694  41.485  14.700
31705W        W98246  31.031   4.342  11.526
31706W        W98247  16.569  43.400  10.680
31707W        W98248  44.193  21.093  11.544
31708W        W98249  23.247  16.118  11.030
31709W        W98250  25.013  23.677   0.651
31710W        W98251  36.065   7.259   2.147
31711W        W98252  21.223  39.029  10.781
31712W        W98253  37.677  30.829   3.668
31713W        W98254  34.842   9.801   1.856
31714W        W98255  39.042  10.187  14.256
31715W        W98256  13.834  14.700  12.864
31716W        W98257  36.855  41.979   0.973
31717W        W98258   3.177   9.634  13.421
31718W        W98259  37.681  29.188   0.372
31719W        W98260  27.131   0.721   4.133
31720W        W98261  34.851   9.295   2.337
31721W        W98262  19.231  41.045  10.623
31722W        W98263  20.676  37.484  10.406
31723W        W98264  25.514  25.203  14.677
31724W        W98265  37.159   6.876   2.037
31725W        W98266  19.058   5.416  12.558
31726W        W98267  10.960   6.962  12.078
31727W        W98268  20.091   2.922  13.777
31728W        W98269  16.177  34.772   5.765
31729W        W98270  37.176   4.852  13.544
31730W        W98271  40.486  30.065   4.273
31731W        W98272  13.322  15.771   1.709
31732W        W98273  27.449  43.740   0.205
31733W        W98274  38.827  22.896  11.563
31734W        W98275  25.021  14.814   4.171
31735W        W98276  30.343  26.114  11.297
31736W        W98277  23.528  14.983  11.085
31737W        W98278  38.093  17.622   1.547
31738W        W98279   5.537  17.136   1.466
31739W        W98280   3.833  16.539  10.873
31740W        W98281  34.874   3.028  11.678
31741W        W98282  36.508  36.945  14.358
31742W        W98283   3.274  28.075  12.139
31743W        W98284   4.840  37.905  12.061
31744W        W98285  16.601  20.216  13.777
31745W        W98286   5.255  29.420  12.494
31746W        W98287  17.126  15.344  14.278
31747W        W98288  17.252  43.049  11.616
31748W        W98289  38.384  29.608   2.388
31749W        W98290  40.902  16.838   0.400
31750W        W98291  38.406   7.706  13.835
31751W        W98292  28.149  33.398  14.987
31752W        W98293  36.044   0.781  12.850
31753W        W98294  16.033  20.924  10.556
31754W        W98295  25.572  24.962  11.613
31755W        W98296  22.468  19.599   3.584
31756W        W98297   8.829  29.575   0.491
31757W        W98298   9.246  32.707  14.768
31758W        W98299  15.215   3.338  11.029
31759W        W98300  19.904  21.186  11.397
31760W        W98301  33.455  26.017  12.155
31761W        W98302   6.866   2.766   0.553
31762W        W98303   8.647  37.282   3.229
31763W        W98304  36.240  24.506  13.907
31764W        W98305  33.481  23.099  14.796
31765W        W98306  20.293  30.668   4.317
31766W        W98307  21.695  37.491  13.994
31767W        W98308  31.009  24.265  12.002
31768W        W98309  26.097  16.076   2.798
31769W        W98310  13.580  12.356  13.030
31770W        W98311  16.698  40.968   3.895
31771W        W98312  38.523   8.072   1.210
31772W        W98313  27.448   1.192  10.784
31773W        W98314  11.847  40.465  11.091
31774W        W98315  29.505  31.763   4.509
31775W        W98316   5.337   3.484   4.354
31776W        W98317  32.653  27.978   1.801
31777W        W98318   8.325   9.717  14.501
31778W        W98319  35.537  39.398  11.618
31779W        W98320  18.012  19.112  14.510
31780W        W98321   8.923  35.006   4.384
31781W        W98322  26.052  38.524  13.441
31782W        W98323  40.406   9.867  11.490
31783W        W98324  32.055  32.428  10.738
31784W        W98325  21.160  34.063   2.791
31785W        W98326   7.378   5.178   1.908
31786W        W98327  26.420  30.352   0.099
31787W        W98328  25.044  41.686   0.817
31788W        W98329  15.733  13.620  12.938
31789W        W98330  20.729   0.724   0.825
31790W        W98331  33.996  10.570   0.841
31791W        W98332  43.870  26.014   4.328
31792W        W98333   8.139   0.832   4.896
31793W        W98334   0.971   5.221  12.057
31794W        W98335  20.654  42.894   0.981
31795W        W98336  16.816  39.907   3.375
31796W        W98337  27.588  37.821   1.347
31797W        W98338   2.547  17.184   4.048
31798W        W98339   2.203   5.348   3.195
31799W        W98340   6.756  40.446   3.586
31800W        W98341  19.565  43.332   4.944
31801W        W98342  29.109  19.702  14.376
31802W        W98343  39.747  21.698  13.434
31803W        W98344  27.196  34.646  13.423
31804W        W98345  39.811  35.926  13.504
31805W        W98346   4.014  42.571   3.684
31806W        W98347  27.121  26.939  12.603
31807W        W98348  26.949  32.220   4.571
31808W        W98349  34.139  34.651  12.437
31809W        W98350   3.843  30.577  13.935
31810W        W98351   1.854  37.642   2.820
31811W        W98352   0.784  23.085   2.270
31812W        W98353  24.206  12.054  11.245
31813W        W98354  39.496  38.470  11.032
31814W        W98355  17.294  42.309   3.322
31815W        W98356  44.299   5.792  11.038
31816W        W98357  10.847  17.411  11.843
31817W        W98358  37.593  39.538   4.325
31818W        W98359  40.290  11.528  12.699
31819W        W98360  10.740   3.135  14.453
31820W        W98361  42.996  31.098   3.562
31821W        W98362  24.494  41.632  11.620
31822W        W98363  40.733  30.157   1.894
31823W        W98364   5.689  41.957  11.522
31824W        W98365  39.978  20.214  11.705
31825W        W98366  38.335  40.815  13.302
31826W        W98367  37.563  41.808   2.971
31827W        W98368  33.033  33.616   2.660
31828W        W98369  42.315  38.959  14.363
31829W        W98370  20.626  25.714  14.451
31830W        W98371  31.383  13.671  11.786
31831W        W98372  41.668   6.964   1.790
31832W        W98373  32.163  35.954   1.000
31833W        W98374  22.109  23.078  13.542
31834W        W98375  22.070  42.099   2.766
31835W        W98376  28.508  18.897  12.116
31836W        W98377  41.629  42.489   1.198
31837W        W98378  12.633  22.516  14.893
31838W        W98379  29.430  31.110   0.753
31839W        W98380  27.662  12.572  13.570
31840W        W98381  36.340  30.655  12.545
31841W        W98382  20.590  31.983   3.994
31842W        W98383   0.850  43.548   2.672
31843W        W98384  20.280   9.142   1.384
31844W        W98385  25.504  32.473  13.300
31845W        W98386  34.023  12.199   9.456
31846W        W98387  39.351  21.615   2.413
31847W        W98388  18.026  20.644   3.833
31848W        W98389  31.893  35.593   1.292
31849W        W98390  42.217  25.991  11.153
31850W        W98391   9.843  28.499   2.751
31851W        W98392  10.367  13.770   3.620
31852W        W98393  34.389  36.941   4.157
31853W        W98394  20.718   9.415  11.119
31854W        W98395  41.539  28.212   3.140
31855W        W98396  40.982  17.971   2.883
31856W        W98397  30.375   2.010  13.033
31857W        W98398  19.873   5.187   9.809
31858W        W98399  43.273   2.878   3.253
31859W        W98400   0.452  37.851   1.946
31860W        W98401   9.710  37.453   4.602
31861W        W98402  29.730  20.610   5.013
31862W        W98403  14.271   1.745   2.812
31863W        W98404  26.606  13.159  10.401
31864W        W98405   0.952  18.559   2.673
31865W        W98406  40.022  30.883   4.867
31866W        W98407  18.456  38.671   1.839
31867W        W98408   3.760   5.289   1.711
31868W        W98409   9.444   2.301  12.122
31869W        W98410  43.501  40.839  11.635
31870W        W98411   6.141  34.846   2.715
31871W        W98412  34.551  14.268  14.590
31872W        W98413  10.218  15.042   1.777
31873W        W98414  37.912  43.417   4.345
31874W        W98415  33.514   8.266  13.515
31875W        W98416  30.975  24.743  11.273
31876W        W98417  34.913  10.117  12.163
31877W        W98418  35.090  20.249   3.921
31878W        W98419  21.546  34.328   0.941
31879W        W98420   9.361  17.806  13.374
31880W        W98421  31.673  26.096   3.809
31881W        W98422  21.117  32.924   0.371
31882W        W98423  11.627   1.809   0.387
31883W        W98424   0.812  10.352  11.644
31884W        W98425  34.361  15.602  11.486
31885W        W98426  27.086  10.878  13.827
31886W        W98427  14.778   5.767   3.270
31887W        W98428  32.734  20.873  10.139
31888W        W98429  13.886  22.591  11.172
31889W        W98430  11.292   1.357  14.378
31890W        W98431   8.977  42.990  11.533
31891W        W98432  26.958  17.283   4.287
31892W        W98433   6.893  31.247   4.220
31893W        W98434   3.364  11.408  12.162
31894W        W98435  44.584   7.867   4.789
31895W        W98436  14.838   3.739  10.520
31896W        W98437  36.066  28.540  13.993
31897W        W98438  31.926   1.605   3.532
31898W        W98439  21.320  29.208  10.356
31899W        W98440  33.554  34.432  10.370
31900W        W98441  23.557  17.091  11.760
31901W        W98442   4.201  40.891   0.420
31902W        W98443  30.160   3.383   2.328
31903W        W98444  28.981  37.075   3.871
31904W        W98445  17.870   6.113   0.227
31905W        W98446  18.235  41.867  12.888
31906W        W98447   7.739  23.140   0.024
31907W        W98448   2.486  12.723  13.832
31908W        W98449  31.471  17.159  10.151
31909W        W98450  38.755  13.797  14.837
31910W        W98451  38.579   6.663   0.711
31911W        W98452  37.863  40.537   1.913
31912W        W98453   5.764   8.031   1.750
31913W        W98454   5.774  21.459   2.378
31914W        W98455  15.213   1.995   0.734
31915W        W98456  37.318  20.980  14.573
31916W        W98457  21.562  19.568  14.986
31917W        W98458  34.079  38.486   1.255
31918W        W98459  26.362  35.326  13.366
31919W        W98460  16.870  39.024   2.634
31920W        W98461  10.080  31.192   2.824
31921W        W98462  24.963  28.123   2.459
31922W        W98463  16.786   9.857   0.683
31923W        W98464  19.806  22.741  11.191
31924W        W98465  20.807  37.371   3.362
31925W        W98466  28.028   8.204  10.468
31926W        W98467  40.356  22.434   9.864
31927W        W98468  26.482  30.676   3.182
31928W        W98469  12.180  31.960   3.680
31929W        W98470  40.404   5.440  12.992
31930W        W98471  10.425  37.070   4.618
31931W        W98472  18.574  34.402   3.494
31932W        W98473  35.448  38.990  14.008
31933W        W98474  29.474  36.878  13.880
31934W        W98475  20.727  14.569   2.228
31935W        W98476  24.660  16.633   3.153
31936W        W98477  38.542   5.646  11.689
31937W        W98478  24.444   0.646  14.980
31938W        W98479  19.989  26.586  10.822
31939W        W98480  10.386   2.769  14.563
31940W        W98481   6.726  32.603   2.874
31941W        W98482  20.462  23.706  13.569
31942W        W98483   0.278  16.665  12.553
31943W        W98484  36.540  30.518  14.848
31944W        W98485   9.767  11.333  13.423
31945W        W98486  38.190  20.542   3.350
31946W        W98487  22.464  30.180  11.146
31947W        W98488  42.503  27.644  12.431
31948W        W98489   9.372  34.563  12.433
31949W        W98490  11.077  40.375  10.132
31950W        W98491  42.536  38.431  12.924
31951W        W98492  37.402  41.045   0.438
31952W        W98493   9.808  44.671   0.791
31953W        W98494  35.943  32.471  12.534
31954W        W98495   2.338  37.125   0.701
31955W        W98496   5.805  11.355   1.373
31956W        W98497  34.178   9.013  11.852
31957W        W98498  44.273   9.900  14.839
31958W        W98499  38.550  38.590  10.648
31959W        W98500  17.215   8.182  14.823
31960W        W98501  30.231  26.593   2.009
31961W        W98502   6.624   3.444   1.860
31962W        W98503   2.265  37.430   2.571
31963W        W98504  30.092   2.451  12.940
31964W        W98505   6.718  39.080   3.299
31965W        W98506  43.977  31.125  11.120
31966W        W98507   7.038  19.696   3.735
31967W        W98508  27.660  13.377   0.738
31968W        W98509   8.617  11.687   1.086
31969W        W98510  11.094  34.406  10.845
31970W        W98511  33.676   9.700  13.082
31971W        W98512   7.671   2.896   1.395
31972W        W98513  21.641  14.637   3.867
31973W        W98514  21.989  15.756  12.983
31974W        W98515   6.547  30.401   4.582
31975W        W98516   7.919  20.598   1.229
31976W        W98517  19.659  29.556  12.013
31977W        W98518  41.196  16.368   9.865
31978W        W98519  22.141  21.561   4.387
31979W        W98520  18.786  23.455  14.859
31980W        W98521  26.018  25.559   2.754
31981W        W98522   4.477  11.241   3.062
31982W        W98523   1.934   9.775   0.378
31983W        W98524  27.300  21.415   4.772
31984W        W98525   8.926  42.279  10.440
31985W        W98526   4.258  18.026  12.443
31986W        W98527   5.219  35.966   2.391
31987W        W98528  36.452  43.554   1.222
31988W        W98529  21.224  10.747   1.492
31989W        W98530   3.697   6.202   4.943
31990W        W98531  12.565  17.102   0.628
31991W        W98532  33.456   7.942   4.971
31992W        W98533  15.013  43.861  14.261
31993W        W98534  12.261  35.896   3.152
31994W        W98535  24.993  26.221   0.935
31995W        W98536  27.035   4.790  10.705
31996W        W98537  39.452  20.116  12.388
31997W        W98538  27.509  23.711  13.449
31998W        W98539  35.067   9.370   4.572
31999W        W98540   5.155   0.803  14.701
32000W        W98541  24.586  41.960   2.431
32001W        W98542  42.968  44.381   4.092
32002W        W98543   5.172  16.976   4.114
32003W        W98544  40.252  12.370  13.021
32004W        W98545  10.540  17.121   4.621
32005W        W98546  16.793  29.529  13.740
32006W        W98547  19.658  27.295   3.242
32007W        W98548  20.151  22.758   2.039
32008W        W98549  26.760  38.952  11.388
32009W        W98550   4.068  43.681   4.725
32010W        W98551   2.079  12.190   3.290
32011W        W98552  29.481  22.892   1.895
32012W        W98553  26.692   5.096   1.985
32013W        W98554  42.941  22.113   1.230
32014W        W98555  37.500  36.547   2.400
32015W        W98556  44.702  13.260  10.623
32016W        W98557  22.211  11.675   2.730
32017W        W98558  21.504  26.974  10.535
32018W        W98559  22.663  38.802  11.559
32019W        W98560   6.353   9.234   3.658
32020W        W98561  33.603  33.082   3.188
32021W        W98562  25.673  20.198  13.934
32022W        W98563  16.812  27.291  14.363
32023W        W98564  24.735   2.473   1.391
32024W        W98565  30.116  43.354   1.004
32025W        W98566  26.728  22.137   3.617
32026W        W98567  26.958   1.753  10.708
32027W        W98568   9.748   1.373  10.653
32028W        W98569  14.626   1.593   3.454
32029W        W98570   7.377  29.685   0.639
32030W        W98571  33.848  28.867   3.732
32031W        W98572   5.300  27.777   0.701
32032W        W98573   7.266   1.511  12.115
32033W        W98574  24.202  24.787   2.248
32034W        W98575  29.869   4.834  12.008
32035W        W98576   8.769   0.728  11.162
32036W        W98577   4.837  12.124   0.378
32037W        W98578  22.130  13.888  12.636
32038W        W98579  44.082  13.777  13.961
32039W        W98580  35.924  38.948   0.772
32040W        W98581   9.808  13.054  10.656
32041W        W98582  41.568  41.770  13.619
32042W        W98583   1.225  31.105  13.912
32043W        W98584  41.858  19.337  13.456
32044W        W98585  21.249  29.725  10.424
32045W        W98586  28.905  14.754   3.278
32046W        W98587   9.755   4.788  13.477
32047W        W98588  30.597   6.794  10.519
32048W        W98589  44.418  38.055   4.174
32049W        W98590  31.540  28.596   0.232
32050W        W98591  23.662  27.281   4.298
32051W        W98592   2.328  14.233   4.693
32052W        W98593   0.318  28.385  11.171
32053W        W98594  40.769  23.836  14.503
32054W        W98595   3.262  40.071  11.957
32055W        W98596  31.899  13.169  14.810
32056W        W98597   9.735  12.610  10.296
32057W        W98598  41.404  35.965  13.009
32058W        W98599  17.756  41.883  12.655
32059W        W98600  39.613  44.030   2.297
32060W        W98601  32.124  25.267  10.247
32061W        W98602  10.707  14.372   2.371
32062W        W98603  41.299   7.934  13.952
32063W        W98604  43.709  26.910   2.740
32064W        W98605  34.669   7.790  11.596
32065W        W98606  37.866  21.630   3.356
32066W        W98607  31.611   4.997   9.942
32067W        W98608  42.476   3.862  10.942
32068W        W98609  17.086  14.860  11.902
32069W        W98610  21.476  28.800  13.846
32070W        W98611  31.506  12.138  12.162
32071W        W98612  11.749  26.013   3.292
32072W        W98613  21.059   1.375  14.796
32073W        W98614  36.648  34.475   4.464
32074W        W98615  11.678  28.256  14.848
32075W        W98616  30.080  40.873   2.842
32076W        W98617  22.373  35.231   0.443
32077W        W98618  12.216  17.325  13.520
32078W        W98619  23.295   4.333   0.877
32079W        W98620  43.919  35.414  14.914
32080W        W98621   1.935  18.256  14.404
32081W        W98622  14.343  34.134  12.034
32082W        W98623  32.583   9.988   3.130
32083W        W98624  12.414  44.060   0.430
32084W        W98625  12.843  23.349  11.555
32085W        W98626  33.821  26.096  13.053
32086W        W98627  40.620  23.559   2.182
32087W        W98628  23.016  40.989   1.318
32088W        W98629  19.437   6.720  10.642
32089W        W98630   0.674  40.690   5.147
32090W        W98631  37.638  27.031  11.532
32091W        W98632  22.277  15.319  14.938
32092W        W98633   5.373  13.571   2.896
32093W        W98634  25.581  27.448   2.699
32094W        W98635  30.157  17.148   0.803
32095W        W98636   5.301  19.518   5.108
32096W        W98637  35.612  13.333  10.754
32097W        W98638   2.245  38.211  14.256
32098W        W98639  35.775   1.309  11.531
32099W        W98640  18.997  38.002  10.668
32100W        W98641  24.714  42.951   1.809
32101W        W98642  34.979  22.436   4.582
32102W        W98643  26.660  20.655   1.383
32103W        W98644  16.709  21.774   0.788
32104W        W98645   8.265  10.689   0.838
32105W        W98646  16.714  10.959   0.799
32106W        W98647  38.387  44.722  11.598
32107W        W98648   1.684  25.042   1.630
32108W        W98649  10.695  27.517   0.679
32109W        W98650  44.025  23.657   0.409
32110W        W98651   7.745  44.849   1.421
32111W        W98652  33.713  43.086   4.949
32112W        W98653   7.791  22.724  10.310
32113W        W98654  16.278  27.980  13.895
32114W        W98655  24.485  32.538   1.820
32115W        W98656  34.500  44.450  14.550
32116W        W98657   1.380  14.051   2.420
32117W        W98658  24.999  18.777  12.075
32118W        W98659   3.877  15.757   0.009
32119W        W98660  40.530  42.566   4.857
32120W        W98661  35.417  10.849   2.771
32121W        W98662  23.474  27.644   4.640
32122W        W98663  43.325  15.153   2.720
32123W        W98664  12.823  30.595  12.446
32124W        W98665  23.454  31.885  11.964
32125W        W98666   4.862  38.896  10.650
32126W        W98667  30.843  34.097   3.405
32127W        W98668  43.597  13.891   2.685
32128W        W98669   5.279  42.013  14.537
32129W        W98670  20.092  42.603   1.577
32130W        W98671  23.769   5.605   3.192
32131W        W98672  38.831  44.903   0.653
32132W        W98673  39.454  30.132  12.108
32133W        W98674  42.816  44.071  12.872
32134W        W98675  42.761  38.163   1.211
32135W        W98676  28.077  13.082  12.421
32136W        W98677  18.099  32.691   4.089
32137W        W98678  14.027  20.192  14.948
32138W        W98679  31.451  29.089   0.443
32139W        W98680  29.666   3.202  11.277
32140W        W98681  19.309  12.145  11.195
32141W        W98682   8.889  43.464   1.646
32142W        W98683   1.477  42.879   5.090
32143W        W98684   0.196  29.970  11.578
32144W        W98685   3.687  13.747   0.940
32145W        W98686  42.908  38.024   2.709
32146W        W98687  27.653  35.301   1.413
32147W        W98688  40.824  34.193  11.914
32148W        W98689  36.323   4.650   0.875
32149W        W98690  12.782  43.874  11.512
32150W        W98691  10.464  11.837   1.974
32151W        W98692  15.834  42.981  14.546
32152W        W98693  20.131  35.099   1.125
32153W        W98694   8.462  19.078   4.930
32154W        W98695  29.439  25.274   4.153
32155W        W98696  28.110  16.273  11.261
32156W        W98697  13.687  28.693   4.531
32157W        W98698  28.549  13.056  10.202
32158W        W98699  33.580  29.074   0.644
32159W        W98700  32.841  29.274  14.579
32160W        W98701   5.438  35.346   1.704
32161W        W98702  12.324   0.730   3.237
32162W        W98703   4.277  23.634   2.794
32163W        W98704  42.115  39.543  12.025
32164W        W98705  20.772  43.883  11.071
32165W        W98706  36.045  41.989  10.703
32166W        W98707  13.200   4.265   0.246
32167W        W98708  19.602  10.048   1.471
32168W        W98709  42.844  18.133   3.214
32169W        W98710  28.684   9.396  12.966
32170W        W98711  28.713  27.365  11.187
32171W        W98712  17.739  15.462   1.886
32172W        W98713  38.681  21.054  12.119
32173W        W98714  44.759  34.105   4.602
32174W        W98715  41.501   9.611  14.905
32175W        W98716  35.332  19.725   0.161
32176W        W98717  20.500   2.861  14.087
32177W        W98718  34.092  27.877  14.475
32178W        W98719  21.040   3.312   1.304
32179W        W98720  31.927  17.722  11.184
32180W        W98721   4.935   9.229   2.396
32181W        W98722  14.661  19.621   3.918
32182W        W98723   7.840  12.312   0.925
32183W        W98724  15.228  34.944   2.638
32184W        W98725  14.427   3.473  11.570
32185W        W98726  21.738  42.347  14.953
32186W        W98727  15.274  41.424   2.070
32187W        W98728  24.990  18.089   1.611
32188W        W98729   6.741  37.753  14.746
32189W        W98730  22.594  36.607   0.785
32190W        W98731  14.642  12.766   4.436
32191W        W98732   1.740  44.274  12.821
32192W        W98733  11.368  12.826   2.878
32193W        W98734   6.943  38.289   3.729
32194W        W98735  15.774   2.489   0.440
32195W        W98736  31.449  23.327   3.214
32196W        W98737  13.855   1.342  12.227
32197W        W98738  17.741  43.335  10.675
32198W        W98739  42.483   1.827   0.459
32199W        W98740   6.292  42.781  14.495
32200W        W98741  12.320  36.622  11.587
32201W        W98742   8.656  19.756   4.752
32202W        W98743  20.066  13.313  13.539
32203W        W98744  12.282   0.447  13.164
32204W        W98745  11.218  22.304  14.874
32205W        W98746  28.609  12.095  11.526
32206W        W98747  11.628   0.226   3.881
32207W        W98748  25.074  26.967  13.764
32208W        W98749  41.509  35.521   0.368
32209W        W98750  15.764  22.738  10.742
32210W        W98751  34.070   4.550  10.720
32211W        W98752   1.510  34.159   2.375
32212W        W98753   7.371  40.096   0.004
32213W        W98754  42.574  28.512  12.610
32214W        W98755  28.559   0.834  11.635
32215W        W98756   5.360  16.206   3.744
32216W        W98757  30.453  27.013   3.971
32217W        W98758  22.683  11.566  10.680
32218W        W98759  18.158  10.578  13.873
32219W        W98760  32.228  14.210   0.480
32220W        W98761  23.764  40.334   2.274
32221W        W98762  44.502  37.400   1.358
32222W        W98763  14.676   1.448   2.927
32223W        W98764  12.089  32.260   4.127
32224W        W98765  32.960  15.712  10.701
32225W        W98766   3.845   7.637  10.681
32226W        W98767  15.789  30.776   2.898
32227W        W98768  10.322  17.567   0.395
32228W        W98769  36.495  11.879   2.490
32229W        W98770   3.007  20.242  11.194
32230W        W98771  21.245   1.171  14.309
32231W        W98772  14.707   7.288   1.424
32232W        W98773  22.445  14.138  13.485
32233W        W98774  29.632   4.211  13.209
32234W        W98775  20.234   8.794   0.175
32235W        W98776  29.858  44.691   4.585
32236W        W98777  12.347  41.187  11.084
32237W        W98778  21.540  42.748  13.760
32238W        W98779  28.987  37.610   0.237
32239W        W98780  12.177  29.133  12.557
32240W        W98781  36.497   0.546   4.102
32241W        W98782  19.237  26.974  12.200
32242W        W98783  32.605   7.716   4.247
32243W        W98784  38.885  35.500  12.039
32244W        W98785   3.318  12.274  13.109
32245W        W98786  22.058  31.711   1.788
32246W        W98787  24.304  34.378   3.741
32247W        W98788  17.568  44.788  12.025
32248W        W98789  33.914  18.669   3.759
32249W        W98790  29.556  22.924   0.942
32250W        W98791  29.161   4.948   4.201
32251W        W98792  43.890  41.020  12.387
32252W        W98793  44.874  11.201  12.120
32253W        W98794  43.571  17.054   3.597
32254W        W98795  24.008   4.227  11.669
32255W        W98796  37.572  33.410   4.125
32256W        W98797  16.651  17.661   0.488
32257W        W98798  33.009   9.328   1.200
32258W        W98799  16.757   7.106   2.332
32259W        W98800   0.305  43.340   4.300
32260W        W98801  42.566  26.880   0.374
32261W        W98802  11.795  40.641   0.330
32262W        W98803   0.816  40.520   4.662
32263W        W98804  11.679  13.466  13.166
32264W        W98805  43.327  42.215   0.905
32265W        W98806   1.666   8.406   4.076
32266W        W98807   1.021  25.624   0.048
32267W        W98808  30.385   4.492  10.854
32268W        W98809  43.246  26.232   3.658
32269W        W98810  25.687  20.764   2.905
32270W        W98811  12.893  35.125   3.219
32271W        W98812  13.148  14.200  13.357
32272W        W98813  19.451  37.042  14.327
32273W        W98814  40.090  38.473  11.960
32274W        W98815  25.564  26.625  14.113
32275W        W98816  41.374  36.926  12.167
32276W        W98817  43.169  16.321   1.799
32277W        W98818  11.431  39.785   4.530
32278W        W98819  32.742  23.988   0.430
32279W        W98820  29.068  40.092   0.917
32280W        W98821  38.732  38.980   1.347
32281W        W98822  17.094  18.477  11.523
32282W        W98823  29.221  33.399  12.427
32283W        W98824   8.287   0.791  10.576
32284W        W98825  28.029   3.224   2.307
32285W        W98826  41.446   4.348   4.325
32286W        W98827  35.647   4.996  12.489
32287W        W98828  39.848   5.719  10.714
32288W        W98829  36.879  11.682   3.217
32289W        W98830  11.582  39.856  12.131
32290W        W98831  18.177  22.291   2.881
32291W        W98832   9.774  29.344  11.013
32292W        W98833  28.089  16.718  12.370
32293W        W98834  32.496  16.319   0.188
32294W        W98835  19.691  26.722   2.464
32295W        W98836  13.436  22.150  11.870
32296W        W98837  29.689   3.255  14.163
32297W        W98838  34.406  10.348   1.047
32298W        W98839  33.544  25.139  12.888
32299W        W98840  16.773  21.937  13.352
32300W        W98841   6.403  34.457  14.815
32301W        W98842  39.504  44.004  13.889
32302W        W98843  27.920  42.303  14.345
32303W        W98844  22.939  17.216   2.707
32304W        W98845  41.497  38.982   2.834
32305W        W98846   7.665  17.344  13.188
32306W        W98847  11.983  27.407   0.132
32307W        W98848   2.004  22.525  14.529
32308W        W98849  19.735  43.850   0.211
32309W        W98850  33.058  44.330   4.900
32310W        W98851  26.422  31.965   1.806
32311W        W98852  44.465  42.754   2.628
32312W        W98853  20.095   0.591  14.485
32313W        W98854  27.920  27.000  11.263
32314W        W98855  16.557  40.208  12.415
32315W        W98856  19.842  43.827   3.339
32316W        W98857   1.788  24.946  12.981
32317W        W98858  25.891  42.848  12.483
32318W        W98859  11.681  28.951   4.362
32319W        W98860  40.014   4.481   1.175
32320W        W98861  22.310  17.166   4.573
32321W        W98862   2.317  31.759  11.424
32322W        W98863  25.803  26.534  14.597
32323W        W98864  27.606  39.420  14.415
32324W        W98865  28.978  14.772  14.803
32325W        W98866  21.360  33.934  11.448
32326W        W98867   5.651   3.296  11.021
32327W        W98868  34.485   6.358  14.507
32328W        W98869  41.787  11.756  11.701
32329W        W98870  11.758   9.660   3.299
32330W        W98871  33.903   4.922   1.209
32331W        W98872  27.833   7.407  11.194
32332W        W98873  34.335  25.728  13.413
32333W        W98874  31.158  35.671  12.461
32334W        W98875   4.831   4.252  10.663
32335W        W98876  36.638  30.695   1.804
32336W        W98877   3.715   0.941   0.786
32337W        W98878  35.623   3.951   4.248
32338W        W98879  19.762  33.568  13.298
32339W        W98880  16.337   6.955   4.132
32340W        W98881  16.485  40.536  12.838
32341W        W98882   3.775  11.171   2.361
32342W        W98883  43.221   9.357   2.809
32343W        W98884  13.621  21.083   1.189
32344W        W98885   7.732  22.034  11.520
32345W        W98886  37.996  39.340   4.044
32346W        W98887  17.445  14.646   1.113
32347W        W98888   5.379   3.171   2.207
32348W        W98889   6.572  14.227  13.509
32349W        W98890   7.010   2.959  10.253
32350W        W98891  33.081  18.576  12.400
32351W        W98892  33.416  26.489  11.894
32352W        W98893  33.706  23.610   4.345
32353W        W98894  26.251  13.117  12.152
32354W        W98895   9.950  16.284  14.076
32355W        W98896  21.995  42.850  14.821
32356W        W98897   0.709  30.116   3.815
32357W        W98898  18.007  38.989  11.150
32358W        W98899  36.417  41.306   1.785
32359W        W98900  37.506  25.929   1.034
32360W        W98901   6.413  22.418  11.182
32361W        W98902  22.292  22.541   1.767
32362W        W98903  32.812  43.519  13.017
32363W        W98904  29.454  25.519  10.943
32364W        W98905  29.023  27.103  12.933
32365W        W98906  22.705   7.292  10.251
32366W        W98907  40.087  12.609   0.293
32367W        W98908  30.501   5.095   2.318
32368W        W98909   4.242  26.468   5.437
32369W        W98910  44.303  31.131  13.940
32370W        W98911  26.581  23.510  11.617
32371W        W98912  43.721   3.283   2.677
32372W        W98913  24.718   7.288  10.633
32373W        W98914   6.177  11.898   2.154
32374W        W98915  32.381   5.448   2.305
32375W        W98916  33.200  35.545  13.491
32376W        W98917  34.073  21.307   0.065
32377W        W98918  29.117  16.406  14.340
32378W        W98919   5.890  12.319  12.454
32379W        W98920   7.755  13.790   1.668
32380W        W98921   9.758  10.322  11.119
32381W        W98922  39.672   8.760   0.818
32382W        W98923  44.783  10.921   3.342
32383W        W98924  16.179  40.068   4.679
32384W        W98925  39.310  31.584   3.046
32385W        W98926  19.121  40.906  12.025
32386W        W98927  42.819  27.192   5.024
32387W        W98928  10.269  35.289   3.790
32388W        W98929  20.495  20.237  13.521
32389W        W98930  13.588  19.186  10.642
32390W        W98931   3.231  22.188  12.424
32391W        W98932  40.514  18.634   3.613
32392W        W98933  25.889   8.180   3.170
32393W        W98934  32.590  38.974  12.449
32394W        W98935  15.719  19.463  11.553
32395W        W98936   4.232  14.862  12.828
32396W        W98937  11.411  24.422   2.750
32397W        W98938  43.223  20.873  11.219
32398W        W98939  27.663  12.700   3.937
32399W        W98940   7.670  13.950   2.156
32400W        W98941  41.762   7.682   3.723
32401W        W98942  38.026  20.189  13.995
32402W        W98943  34.200  19.420  11.650
32403W        W98944  10.762  23.245   2.963
32404W        W98945  32.026  41.132   2.051
32405W        W98946  28.153  30.916  11.103
32406W        W98947   6.829  18.278   4.884
32407W        W98948   0.299  31.994  13.575
32408W        W98949  33.144  20.536  11.584
32409W        W98950  27.709  11.605   4.428
32410W        W98951   1.831  17.679   3.665
32411W        W98952   3.727   0.888  14.669
32412W        W98953  42.959  10.011  12.035
32413W        W98954  26.471   4.278   4.588
32414W        W98955  35.441  33.499   4.654
32415W        W98956   1.888   0.408  12.893
32416W        W98957  13.347   1.800   1.245
32417W        W98958  19.747  31.127   1.848
32418W        W98959  13.572   5.832  12.501
32419W        W98960  36.564  15.087   3.258
32420W        W98961  10.818   7.901   3.636
32421W        W98962  13.890  17.330  14.498
32422W        W98963   9.901   4.853  14.926
32423W        W98964  16.186   8.394   0.658
32424W        W98965  24.426  44.266  12.568
32425W        W98966  23.149  42.767   5.061
32426W        W98967  28.066  32.823   0.988
32427W        W98968  11.368  26.112  11.710
32428W        W98969  33.594  35.410   4.630
32429W        W98970   2.860  13.127  14.350
32430W        W98971  27.325  12.384  11.113
32431W        W98972   6.538   4.319  14.310
32432W        W98973   1.571  25.605   2.800
32433W        W98974  32.123  36.468   3.222
32434W        W98975  39.355  41.524  13.799
32435W        W98976  41.459  44.002  10.454
32436W        W98977  39.732  36.235  12.530
32437W        W98978  31.902  26.196   0.947
32438W        W98979  31.154  30.847  12.557
32439W        W98980   8.749  35.940  11.874
32440W        W98981   2.933  37.958  10.656
32441W        W98982  19.023  25.118  10.613
32442W        W98983   7.660  16.819  13.059
32443W        W98984  34.582  31.476  12.995
32444W        W98985  37.606  31.350   3.646
32445W        W98986  34.633  25.507  11.617
32446W        W98987  34.401  23.071  10.992
32447W        W98988   8.871   4.817   0.417
32448W        W98989   2.727   1.492  14.900
32449W        W98990   1.212   5.153   3.739
32450W        W98991   7.982  24.647   3.701
32451W        W98992   0.603  26.283  12.919
32452W        W98993  25.396  29.841   4.260
32453W        W98994   4.765  21.759   3.613
32454W        W98995  21.293   7.935   1.382
32455W        W98996  18.862   5.355   4.352
32456W        W98997  35.616  16.080  14.478
32457W        W98998  42.003  38.762   3.145
32458W        W98999  44.738  28.175  14.205
32459W        W99000   0.978  43.879   4.565
32460W        W99001  30.853   6.219   3.734
32461W        W99002  41.635  18.792   0.371
32462W        W99003  24.122   3.413  11.973
32463W        W99004  24.377  43.819  14.456
32464W        W99005  18.052  16.428  14.785
32465W        W99006  33.000  17.224   4.875
32466W        W99007   4.343  23.049   5.126
32467W        W99008  30.367  21.953  13.740
32468W        W99009  25.686  34.858   3.330
32469W        W99010  42.298  18.762   0.998
32470W        W99011  23.216  18.214   2.312
32471W        W99012  30.996   5.118   3.784
32472W        W99013   5.427   5.039   0.701
32473W        W99014  18.161   6.840  14.081
32474W        W99015  32.952  23.126   4.374
32475W        W99016  34.222  32.487   1.777
32476W        W99017  42.445  20.810  14.872
32477W        W99018  13.165  14.949   2.661
32478W        W99019   3.035  41.336   2.816
32479W        W99020  22.913   8.422   4.266
32480W        W99021  44.069  14.312  13.872
32481W        W99022   4.930  33.542   2.660
32482W        W99023  43.034  34.339  12.064
32483W        W99024  35.069  38.999  10.069
32484W        W99025  44.771  10.417   2.850
32485W        W99026   1.360  36.027  14.886
32486W        W99027   6.000  17.947  14.911
32487W        W99028  27.993  44.851   0.761
32488W        W99029  41.954  11.986  13.415
32489W        W99030  40.172  29.198   5.067
32490W        W99031  24.526  33.057   3.683
32491W        W99032  22.652  16.262   1.924
32492W        W99033   8.153  15.084  14.005
32493W        W99034  42.791   5.414  12.857
32494W        W99035  23.194   4.634   2.272
32495W        W99036  40.757  25.452   3.324
32496W        W99037  20.253  18.074  10.156
32497W        W99038  31.530  42.367   4.725
32498W        W99039  10.172   7.192  10.460
32499W        W99040  13.066  15.502  12.119
32500W        W99041  11.865  43.686   3.494
32501W        W99042  13.775   6.792   1.311
32502W        W99043  26.994  21.197  11.238
32503W        W99044  31.289  36.861   4.066
32504W        W99045  41.764  18.635   1.827
32505W        W99046  33.163  13.900  13.492
32506W        W99047  13.835  33.049  11.066
32507W        W99048   4.903   5.267   4.130
32508W        W99049   2.887  27.206  11.183
32509W        W99050  29.190  21.815   1.066
32510W        W99051  18.879  17.736  13.097
32511W        W99052  26.655   8.190  13.822
32512W        W99053   3.837  31.168  12.573
32513W        W99054  43.212  38.401   3.757
32514W        W99055  12.674  11.261  14.740
32515W        W99056  10.793  23.452   2.482
32516W        W99057  40.381  14.783  13.719
32517W        W99058  32.801  39.050  14.103
32518W        W99059  40.147  41.810   3.374
32519W        W99060  33.365  23.286  12.010
32520W        W99061   7.798   6.728   4.494
32521W        W99062   8.592  23.719   1.997
32522W        W99063  20.537   2.423  10.702
32523W        W99064   6.799  33.945  12.941
32524W        W99065  29.035   1.006  11.852
32525W        W99066  29.008  20.557  13.004
32526W        W99067  28.133  14.329  12.053
32527W        W99068  27.651  33.092   0.861
32528W        W99069  43.419   8.839  13.770
32529W        W99070  16.313   7.134   0.424
32530W        W99071  14.742   0.760  12.924
32531W        W99072  27.385  32.489   4.501
32532W        W99073   9.735  36.658   4.156
32533W        W99074   4.797  24.689   1.323
32534W        W99075  42.230   0.976  14.933
32535W        W99076  43.542   6.294  14.017
32536W        W99077  12.036  15.766   0.399
32537W        W99078  11.700  20.759   1.256
32538W        W99079   1.605   7.228  13.403
32539W        W99080  14.013  28.284   2.423
32540W        W99081  33.357  11.399  10.746
32541W        W99082  43.478  24.500   2.396
32542W        W99083   4.656  11.224   2.188
32543W        W99084  29.454  19.943   4.200
32544W        W99085  43.310  28.021  12.584
32545W        W99086   5.802   0.488   0.398
32546W        W99087  10.422  12.103   3.607
32547W        W99088   8.788  36.437   0.035
32548W        W99089  29.509  37.145  11.650
32549W        W99090  38.074   9.889  13.660
32550W        W99091  32.162  43.987   2.845
32551W        W99092   3.681  34.230   0.149
32552W        W99093   4.399  27.100  13.622
32553W        W99094  15.547  42.359   4.558
32554W        W99095  43.256  42.726   1.010
32555W        W99096   1.166   2.489  14.533
32556W        W99097  21.745  20.827   3.784
32557W        W99098  18.262   8.683   3.836
32558W        W99099  43.304  29.629   4.151
32559W        W99100  19.254  13.406   2.840
32560W        W99101  42.470   7.713   4.321
32561W        W99102   3.001  31.406   3.293
32562W        W99103  22.170   3.976   9.743
32563W        W99104  20.815  14.165   0.551
32564W        W99105  15.170  20.239  14.044
32565W        W99106  40.955  41.972  12.257
32566W        W99107  10.723  17.232  12.899
32567W        W99108  10.899  43.128   2.289
32568W        W99109  27.309  21.459   3.517
32569W        W99110  11.688  30.042  11.223
32570W        W99111  33.307  35.431   4.178
32571W        W99112   6.857  40.589  11.135
32572W        W99113  43.063  26.896   1.917
32573W        W99114  23.982   5.478  12.198
32574W        W99115   0.834  39.012  10.037
32575W        W99116  14.384  44.499  10.497
32576W        W99117  42.532  40.576  12.875
32577W        W99118  43.182   4.233  14.888
32578W        W99119   5.219  25.612  13.510
32579W        W99120  18.156  41.732  13.877
32580W        W99121  12.577  24.873   4.574
32581W        W99122  22.026   8.845  11.402
32582W        W99123  29.146  13.558   1.710
32583W        W99124  11.186   6.672   2.494
32584W        W99125  33.972   0.606   5.386
32585W        W99126  35.839  26.301   1.026
32586W        W99127  35.867  15.818   1.878
32587W        W99128   7.971  31.983   4.962
32588W        W99129  41.709  29.695  13.155
32589W        W99130  30.794   8.764   1.464
32590W        W99131   4.953  42.890  10.871
32591W        W99132  25.497  17.467  12.183
32592W        W99133  12.782  36.340  13.555
32593W        W99134  22.258  20.726  10.548
32594W        W99135  26.766  25.417   3.224
32595W        W99136  29.024  36.476   2.840
32596W        W99137  38.967  20.066   3.038
32597W        W99138  10.367  33.863   0.530
32598W        W99139   4.133   8.930  12.478
32599W        W99140  10.351  40.870   2.825
32600W        W99141  38.906  10.149  12.156
32601W        W99142  17.680  34.915  12.492
32602W        W99143   7.572   4.559  11.101
32603W        W99144  34.830  14.300  11.050
32604W        W99145  13.856  27.928   4.079
32605W        W99146  31.153  15.093   0.941
32606W        W99147  31.420  25.645   4.585
32607W        W99148   0.852  24.400  14.255
32608W        W99149  35.013   4.849   3.125
32609W        W99150  10.387   7.605  11.739
32610W        W99151  12.241  21.045  10.986
32611W        W99152  38.516  25.930   2.321
32612W        W99153  43.542  11.875  13.763
32613W        W99154   9.411  25.476   2.436
32614W        W99155   0.714  38.997  12.197
32615W        W99156  24.758   0.340   3.198
32616W        W99157  42.472   5.176  12.397
32617W        W99158  13.288  21.927   1.911
32618W        W99159  20.231  31.004   2.679
32619W        W99160  32.690  43.329   1.860
32620W        W99161   8.238   8.613  12.155
32621W        W99162  44.092   1.811  13.010
32622W        W99163   1.081  28.600   1.308
32623W        W99164  10.571   0.908   4.579
32624W        W99165  15.496  41.314  14.876
32625W        W99166  16.287  35.896  12.998
32626W        W99167  37.565  20.579  12.590
32627W        W99168  19.554  25.993  14.016
32628W        W99169  38.066  18.594   1.907
32629W        W99170   9.324  11.130   1.832
32630W        W99171  33.431  39.118   4.087
32631W        W99172  40.839   0.469   3.689
32632W        W99173  22.269   8.375   0.734
32633W        W99174  21.661   7.927  12.007
32634W        W99175  32.923  20.875  12.962
32635W        W99176   9.022   1.012   3.801
32636W        W99177  24.802   4.568   0.880
32637W        W99178  16.181  19.628   2.330
32638W        W99179  18.055  39.748   1.027
32639W        W99180  14.820  24.770   0.687
32640W        W99181  20.404  29.452  11.525
32641W        W99182  28.833   5.799   0.258
32642W        W99183  30.572   0.487  11.494
32643W        W99184  20.429   7.558  13.110
32644W        W99185   1.661  22.624  11.122
32645W        W99186  44.711  29.246   4.248
32646W        W99187  14.830  11.432  14.958
32647W        W99188  41.337  14.221   0.366
32648W        W99189   8.138  10.722   3.606
32649W        W99190  15.047  28.992  12.418
32650W        W99191  27.601   0.805   0.819
32651W        W99192  42.231  33.102   1.025
32652W        W99193  37.215  20.198  12.609
32653W        W99194  30.894  15.166  12.520
32654W        W99195  33.940  43.573   1.746
32655W        W99196   2.671   8.301  14.832
32656W        W99197  37.978   5.099  10.672
32657W        W99198  21.805  20.693   0.441
32658W        W99199  25.249  15.032   3.711
32659W        W99200   2.135   9.717   1.778
32660W        W99201   8.153  31.203   4.499
32661W        W99202  37.299  23.456  12.213
32662W        W99203  10.768   7.150   1.363
32663W        W99204  29.002  28.906   1.754
32664W        W99205  33.890  38.626  14.775
32665W        W99206  22.201  15.630   4.598
32666W        W99207  39.868  23.247   3.167
32667W        W99208  19.549  18.610   1.895
32668W        W99209  24.507   1.269  12.449
32669W        W99210  29.362  43.525  14.468
32670W        W99211  39.089  14.733   2.478
32671W        W99212  22.742  21.686   0.890
32672W        W99213  13.862  10.751   2.744
32673W        W99214   6.537  24.699  13.297
32674W        W99215  34.867  20.060  14.845
32675W        W99216  36.908   8.791  14.457
32676W        W99217  35.439  23.955  12.676
32677W        W99218   2.861  19.098   4.530
32678W        W99219  26.235  33.519   4.875
32679W        W99220  41.108  14.449   3.233
32680W        W99221  18.134  18.412  13.890
32681W        W99222   8.207   7.929  12.091
32682W        W99223  15.273  41.492   4.876
32683W        W99224  39.005  33.859  10.640
32684W        W99225  17.205  19.445   0.498
32685W        W99226   4.868   4.479   2.146
32686W        W99227  41.481  34.063   2.619
32687W        W99228   7.852  32.699  11.035
32688W        W99229  12.308  42.455  12.470
32689W        W99230   8.754   6.479   2.685
32690W        W99231  36.000  31.130   0.202
32691W        W99232  23.646   0.810   4.660
32692W        W99233  27.505  13.883   2.971
32693W        W99234  35.030  13.224  14.488
32694W        W99235  42.232  29.200   3.542
32695W        W99236  32.990  35.213  12.545
32696W        W99237   1.347  26.106   4.070
32697W        W99238  35.323   1.715   0.289
32698W        W99239  25.672  41.303   2.314
32699W        W99240  40.644  25.074   5.135
32700W        W99241  21.997   9.794   1.912
32701W        W99242   6.388  13.224  12.077
32702W        W99243   5.732  44.147  13.421
32703W        W99244  28.208  23.653   3.233
32704W        W99245  35.927  31.966  12.693
32705W        W99246  23.055  44.188  12.433
32706W        W99247   3.400  21.582  14.355
32707W        W99248  17.583  16.645   4.125
32708W        W99249  29.884   8.315   4.088
32709W        W99250  10.471  27.580  11.659
32710W        W99251  36.675  22.875   1.807
32711W        W99252  13.170   8.859   4.465
32712W        W99253  17.564  13.224  11.359
32713W        W99254   9.398  15.063   1.307
32714W        W99255  20.050   6.177  12.925
32715W        W99256  14.792  16.822  12.113
32716W        W99257  16.634  32.528  13.811
32717W        W99258   2.389   3.280  12.660
32718W        W99259   6.193  42.441  13.782
32719W        W99260  24.802  21.264  12.596
32720W        W99261   7.898   8.858  10.650
32721W        W99262  44.925   5.057  14.327
32722W        W99263   2.515  10.211  13.108
32723W        W99264  42.105  12.061   3.267
32724W        W99265  22.599  22.917  13.789
32725W        W99266   9.412  22.709   1.143
32726W        W99267   8.165  40.846   1.379
32727W        W99268  19.566  33.451  11.347
32728W        W99269  23.689  34.536   2.215
32729W        W99270  15.931  27.509  13.856
32730W        W99271  37.062  40.627  11.125
32731W        W99272  19.629   5.794  12.979
32732W        W99273   4.342  16.292   2.370
32733W        W99274  35.377  30.903  11.658
32734W        W99275  18.276  14.144   0.791
32735W        W99276  18.776  10.189   2.352
32736W        W99277  25.026   6.242  10.664
32737W        W99278  43.285  12.230  12.031
32738W        W99279  15.121   4.393   3.139
32739W        W99280   2.150  28.493   3.768
32740W        W99281   3.845  23.643   9.922
32741W        W99282   1.042  37.460  12.903
32742W        W99283  18.246  29.399  10.298
32743W        W99284   8.526  41.851  10.261
32744W        W99285  26.878  20.110  13.345
32745W        W99286   5.240  39.720  13.050
32746W        W99287  32.389   5.787  11.535
32747W        W99288   0.288  39.234   1.336
32748W        W99289  33.603   7.202  11.195
32749W        W99290  44.427  10.818   0.019
32750W        W99291  33.831  26.756  10.297
32751W        W99292  12.715  17.282  11.112
32752W        W99293  18.060  18.914   1.714
32753W        W99294  27.278  11.779  14.338
32754W        W99295   8.281  19.836   0.894
32755W        W99296  35.455  43.698   3.672
32756W        W99297  41.443  34.663   3.201
32757W        W99298  28.138  30.876   1.344
32758W        W99299  35.983  37.253  13.089
32759W        W99300   3.263  13.869  14.395
32760W        W99301  15.512  41.464  10.057
32761W        W99302  43.555  21.480  14.870
32762W        W99303   5.300  13.335  14.167
32763W        W99304  43.005  37.181  10.536
32764W        W99305   6.170  34.941   1.820
32765W        W99306  41.554   2.210  13.865
32766W        W99307  14.233  37.347  10.795
32767W        W99308  29.664  14.211   3.180
32768W        W99309  31.869  15.099  13.486
32769W        W99310   7.327  12.601  13.070
32770W        W99311  31.645  11.117  11.042
32771W        W99312  16.678  34.103  14.166
32772W        W99313  41.173  21.704  12.689
32773W        W99314  24.111  40.435  11.083
32774W        W99315  38.829   1.572   0.228
32775W        W99316   6.848   9.096   4.749
32776W        W99317   7.434  42.398   1.237
32777W        W99318  44.582  38.777   3.704
32778W        W99319  40.451  24.068   2.755
32779W        W99320  25.832  12.310  12.051
32780W        W99321  28.091  32.465  14.189
32781W        W99322  29.217  30.183  10.911
32782W        W99323  26.668  28.719  11.919
32783W        W99324  19.544  28.214   3.138
32784W        W99325  33.475  10.376   2.169
32785W        W99326   4.716  20.521  13.126
32786W        W99327  42.028   7.601   4.580
32787W        W99328   9.031  30.593   4.579
32788W        W99329  44.213  39.452  13.904
32789W        W99330  25.628  27.943   3.719
32790W        W99331  20.715  44.422   4.097
32791W        W99332  12.153  40.679   1.715
32792W        W99333  12.426  24.197   4.850
32793W        W99334   3.494  44.420   1.784
32794W        W99335  37.741  21.546   4.699
32795W        W99336  33.127  43.372  12.388
32796W        W99337  23.926  29.166  10.705
32797W        W99338  43.833   4.157   4.694
32798W        W99339  36.038   2.228  12.553
32799W        W99340  37.555   0.840  14.910
32800W        W99341  15.338   8.405  11.923
32801W        W99342  19.545  21.093   3.161
32802W        W99343  21.995  34.459  14.970
32803W        W99344  42.300  12.887   3.214
32804W        W99345  25.638  24.114   2.770
32805W        W99346  43.945  12.909   1.143
32806W        W99347  43.776   2.426   3.092
32807W        W99348  23.523  34.941   0.076
32808W        W99349  30.677  11.276   1.201
32809W        W99350  14.794  18.730   3.411
32810W        W99351  41.842  30.009   2.652
32811W        W99352  40.312  41.622  13.872
32812W        W99353  13.003   1.418   0.389
32813W        W99354  40.940  40.018   0.885
32814W        W99355   7.294   9.179  13.877
32815W        W99356   6.158   0.769  13.038
32816W        W99357  40.578  11.061  14.322
32817W        W99358  26.315  17.582   2.740
32818W        W99359  33.976  35.400  11.389
32819W        W99360   2.412   2.508  11.969
32820W        W99361  42.039  32.620  13.804
32821W        W99362  41.905   5.002  14.688
32822W        W99363  41.249   6.472   1.241
32823W        W99364  30.137  13.179  14.512
32824W        W99365  11.797  29.051   3.100
32825W        W99366   1.439  12.394  11.650
32826W        W99367  25.648  43.971  14.304
32827W        W99368  37.839  26.476   1.628
32828W        W99369  16.719   8.377  11.596
32829W        W99370  18.594  12.199  13.519
32830W        W99371  28.610  18.558   0.410
32831W        W99372  30.224   7.128  10.718
32832W        W99373  15.072  16.053  11.553
32833W        W99374  21.238  29.520   0.047
32834W        W99375   2.500  20.462   1.229
32835W        W99376  16.558  21.056  14.284
32836W        W99377   6.345  15.874  11.567
32837W        W99378  11.188  30.041  14.464
32838W        W99379  35.575  43.843   0.237
32839W        W99380  38.114  13.643   3.122
32840W        W99381   3.759  19.616   4.391
32841W        W99382  23.452   7.773  14.293
32842W        W99383  20.021  10.406   0.753
32843W        W99384   5.783  35.283   4.431
32844W        W99385   5.778  17.078  13.940
32845W        W99386   4.711  21.775   1.307
32846W        W99387  40.846  20.734   3.725
32847W        W99388  22.188  24.017   3.425
32848W        W99389  18.924  24.526   4.241
32849W        W99390  21.538   2.042   2.227
32850W        W99391  42.086   3.915  12.398
32851W        W99392  14.825  42.757   1.963
32852W        W99393  33.336  14.645  11.628
32853W        W99394  17.877   8.150  12.103
32854W        W99395  29.167  26.602   3.743
32855W        W99396   5.899  44.328  12.431
32856W        W99397   1.417  22.737  12.350
32857W        W99398  18.466  11.423  10.234
32858W        W99399  18.764  31.430   0.174
32859W        W99400  16.203   0.508   0.656
32860W        W99401  38.806   2.966   4.989
32861W        W99402  29.837  25.633   2.922
32862W        W99403  21.158  34.483  14.371
32863W        W99404  28.261  28.267  13.613
32864W        W99405   7.831  40.339  11.902
32865W        W99406   9.773  31.440   0.312
32866W        W99407  23.765  17.176   2.245
32867W        W99408   0.066   3.422  14.659
32868W        W99409   1.673   7.960  13.482
32869W        W99410  42.764  33.904  12.092
32870W        W99411  28.121   2.548  14.805
32871W        W99412  20.837   6.242  11.944
32872W        W99413  24.923  17.643   3.113
32873W        W99414  21.250  18.009  11.205
32874W        W99415   9.138   1.844  12.154
32875W        W99416  44.539  41.528   0.868
32876W        W99417  32.994  22.633   3.738
32877W        W99418  23.601  14.638  14.067
32878W        W99419   1.018   6.153  14.937
32879W        W99420  31.514  43.353   4.193
32880W        W99421  21.225  33.889  14.058
32881W        W99422   1.076  28.355  14.804
32882W        W99423  10.248  41.430   0.542
32883W        W99424  31.999   5.556  12.611
32884W        W99425  14.294   5.221   0.576
32885W        W99426   3.250  37.190   3.242
32886W        W99427  18.318   8.166   1.114
32887W        W99428  35.203  10.183  14.942
32888W        W99429  31.661  32.806  10.728
32889W        W99430  33.296  42.843   1.610
32890W        W99431  23.107  37.135   1.454
32891W        W99432  27.910   5.759  13.363
32892W        W99433  28.531  15.276   4.489
32893W        W99434  35.835   1.094  13.215
32894W        W99435  37.891  36.909  14.672
32895W        W99436  29.213  35.579  12.543
32896W        W99437  30.618  12.600  12.066
32897W        W99438  37.053  31.020   1.812
32898W        W99439  15.226  10.637  11.689
32899W        W99440   9.234   6.831   0.851
32900W        W99441  22.568  37.432  12.110
32901W        W99442  28.021  21.574  11.908
32902W        W99443  19.664  40.462  11.168
32903W        W99444  20.604  32.860  10.478
32904W        W99445  39.505   1.810   2.260
32905W        W99446  25.370  33.959  14.732
32906W        W99447  28.054  14.834  11.337
32907W        W99448  26.142  23.413   2.637
32908W        W99449  28.882  19.485  13.922
32909W        W99450  26.943  29.754  10.069
32910W        W99451  22.724  25.486  14.047
32911W        W99452  10.414  16.239  14.906
32912W        W99453  28.688  13.648   4.550
32913W        W99454   7.116  31.292   1.917
32914W        W99455  31.723   9.894   5.057
32915W        W99456  14.742  37.999   1.262
32916W        W99457  26.997   8.027  12.287
32917W        W99458  32.484  10.629   3.694
32918W        W99459   9.804  30.568   0.783
32919W        W99460  18.525  11.422  12.159
32920W        W99461  22.228  29.511  13.897
32921W        W99462   7.913  11.420  11.450
32922W        W99463  12.915   0.265   4.502
32923W        W99464  40.420  20.153  13.354
32924W        W99465  41.213  35.942   0.505
32925W        W99466  23.746  20.129   4.966
32926W        W99467   0.819  30.396  10.615
32927W        W99468  35.293  39.735   4.961
32928W        W99469  22.565  16.193   3.276
32929W        W99470  30.168   6.512   1.303
32930W        W99471  26.588   5.361  13.857
32931W        W99472  30.970  40.661  13.802
32932W        W99473  36.715  42.468  10.264
32933W        W99474  25.616  15.317   3.413
32934W        W99475   7.787  18.037   4.977
32935W        W99476  23.048  15.130   4.636
32936W        W99477  28.058  30.154  12.109
32937W        W99478   3.827  26.013  14.686
32938W        W99479  35.363  40.511  12.013
32939W        W99480  42.496  11.133  14.835
32940W        W99481  42.067   9.759  10.736
32941W        W99482  20.709  40.042  14.241
32942W        W99483   1.311  17.567   3.733
32943W        W99484  41.500  23.707  11.264
32944W        W99485  16.407  16.328   4.530
32945W        W99486  40.952  42.025  14.383
32946W        W99487  15.829   9.624  11.558
32947W        W99488  37.913  10.430   3.595
32948W        W99489  39.774  41.510  11.993
32949W        W99490   1.169  22.522   2.888
32950W        W99491  29.982   0.703  14.323
32951W        W99492   1.534   6.936  13.003
32952W        W99493  34.566   6.129  14.006
32953W        W99494  39.479   7.928  14.487
32954W        W99495  18.766  19.224  11.059
32955W        W99496  14.623  19.692  10.155
32956W        W99497  18.212  23.944  13.336
32957W        W99498  30.979  35.973   2.135
32958W        W99499  27.041  10.942  10.978
32959W        W99500   1.133  34.440  14.505
32960W        W99501  10.391   5.321  11.155
32961W        W99502  19.020  42.018   2.332
32962W        W99503  18.109   5.345  11.425
32963W        W99504   4.621  39.474   3.743
32964W        W99505   9.451   5.612  14.433
32965W        W99506  30.131  15.248   3.261
32966W        W99507  10.848  25.838   3.343
32967W        W99508  11.087  27.949   2.977
32968W        W99509  42.458  12.365  12.977
32969W        W99510  18.633  26.134   0.991
32970W        W99511  13.275  23.008   0.353
32971W        W99512  21.582  33.534  13.987
32972W        W99513  43.502  42.298  12.775
32973W        W99514  18.656  44.258  14.100
32974W        W99515  13.225  44.065  11.642
32975W        W99516  39.864  30.423   3.598
32976W        W99517  11.653  22.055  10.497
32977W        W99518  23.485  41.150   4.798
32978W        W99519   8.775  43.808   2.762
32979W        W99520   0.421  27.722  12.850
32980W        W99521  14.520  29.143  10.272
32981W        W99522  37.122  34.962  11.176
32982W        W99523  29.524  12.659   0.486
32983W        W99524  32.249   8.809  14.096
32984W        W99525   0.532  41.892   0.327
32985W        W99526  11.342  44.642  12.863
32986W        W99527  29.445  41.986   2.588
32987W        W99528  18.277  42.197  14.972
32988W        W99529  43.874  17.548   4.701
32989W        W99530  25.833  19.372   0.571
32990W        W99531  10.282  34.066  14.454
32991W        W99532  44.246  25.355   0.245
32992W        W99533   8.888  33.430   1.527
32993W        W99534  30.605  20.230   0.738
32994W        W99535  20.783  18.117  12.825
32995W        W99536  37.559  27.560   4.528
32996W        W99537  33.604  13.421   4.216
32997W        W99538  15.049  33.656  11.444
32998W        W99539   3.710  35.851  13.503
32999W        W99540  29.397  19.803  13.010
33000W        W99541  34.555  13.376  14.394
33001W        W99542  33.271  14.688  10.580
33002W        W99543  22.022   0.346   3.521
33003W        W99544   7.199  21.534  14.325
33004W        W99545   0.450   0.142  11.858
33005W        W99546   3.300  29.277  11.656
33006W        W99547  33.386  38.408   4.612
33007W        W99548  38.462  33.975   0.695
33008W        W99549  22.648  44.028   3.191
33009W        W99550   3.555   6.332   2.328
33010W        W99551  25.530   5.965  10.247
33011W        W99552   5.267  18.220   0.868
33012W        W99553  34.029  44.753  13.470
33013W        W99554   8.717  42.539   4.138
33014W        W99555  13.292  26.092  10.726
33015W        W99556  40.812  28.566   0.879
33016W        W99557  39.321  21.895  14.862
33017W        W99558  27.538  12.410   4.427
33018W        W99559   7.000   3.746   1.426
33019W        W99560  33.522  15.730   2.361
33020W        W99561  37.777  23.035   4.589
33021W        W99562  35.077  30.152   4.968
33022W        W99563  25.361  27.679  13.809
33023W        W99564  30.434  17.263  10.213
33024W        W99565  22.240   0.378  14.039
33025W        W99566  24.685  19.306   2.732
33026W        W99567  15.807  14.342   0.294
33027W        W99568   5.899   5.903  12.096
33028W        W99569   4.352  40.424  14.492
33029W        W99570  16.580  39.504   1.325
33030W        W99571  30.957  12.327   0.517
33031W        W99572   7.974  21.064   4.660
33032W        W99573  26.979  30.604  14.992
33033W        W99574  31.207  37.751  10.572
33034W        W99575  34.673  19.736  10.464
33035W        W99576  42.315  16.766   4.103
33036W        W99577  29.164  31.640  10.705
33037W        W99578  29.049  27.154  12.362
33038W        W99579  34.574  44.673   4.178
33039W        W99580  18.323  17.315  11.426
33040W        W99581  10.396  41.791  11.981
33041W        W99582  39.650   7.583   3.354
33042W        W99583  39.865  17.397  13.478
33043W        W99584   1.587  40.949   2.665
33044W        W99585  35.406  10.343  11.586
33045W        W99586  31.437  35.979  12.983
33046W        W99587  40.838  43.937  13.355
33047W        W99588  41.317  26.266   0.270
33048W        W99589   4.629  16.797  12.495
33049W        W99590  36.441  42.813  10.580
33050W        W99591  43.696  40.320   1.718
33051W        W99592  27.039  29.022  10.877
33052W        W99593  31.632   1.212   4.212
33053W        W99594  42.018  18.785  10.752
33054W        W99595  41.406  44.387  13.398
33055W        W99596  27.682   6.206   0.014
33056W        W99597  17.596  38.349  12.755
33057W        W99598  35.877   5.319  12.040
33058W        W99599  11.280  17.254   1.198
33059W        W99600  17.238  14.277  14.220
33060W        W99601  11.046  37.421  11.034
33061W        W99602   1.287  19.736  11.493
33062W        W99603  17.309  17.061  13.512
33063W        W99604  18.234  14.552   2.410
33064W        W99605  31.556  39.615  10.610
33065W        W99606  15.542  35.447   0.806
33066W        W99607  41.965   4.669  10.449
33067W        W99608  21.132  17.278   2.282
33068W        W99609  36.914  21.469  11.609
33069W        W99610  35.157  31.545   3.737
33070W        W99611   1.068   0.314   1.796
33071W        W99612  25.261   1.398  11.310
33072W        W99613   1.726   0.907  11.165
33073W        W99614  26.052  43.239  14.298
33074W        W99615  32.825  37.001  13.046
33075W        W99616  20.048  37.919   0.190
33076W        W99617  44.429  27.883   0.124
33077W        W99618  34.436  25.143   1.192
33078W        W99619  44.879  38.844   2.139
33079W        W99620  12.886  38.195   3.275
33080W        W99621  26.714   1.292  11.632
33081W        W99622  38.495  37.428   0.146
33082W        W99623  22.256  22.299   2.254
33083W        W99624  36.052  35.355  13.862
33084W        W99625  28.973  29.225   2.796
33085W        W99626  36.807   7.006   0.648
33086W        W99627  21.454  40.526   1.862
33087W        W99628  18.716  44.421   0.404
33088W        W99629   9.140   7.424  11.794
33089W        W99630  31.661  30.526   0.281
33090W        W99631  43.679  26.549   4.549
33091W        W99632   4.671  27.668  13.883
33092W        W99633  18.710  27.734  12.146
33093W        W99634  34.032  42.989  11.618
33094W        W99635   5.426  18.090   4.055
33095W        W99636  15.781  36.541   4.715
33096W        W99637  44.793  21.816  10.476
33097W        W99638   0.433   0.402   2.741
33098W        W99639  26.525  34.581   3.589
33099W        W99640   9.894  16.900  14.415
33100W        W99641  21.471  31.467  12.251
33101W        W99642  30.097  28.962   2.352
33102W        W99643  34.892   0.050   2.733
33103W        W99644  11.707   2.377   4.210
33104W        W99645   4.218  37.687   0.962
33105W        W99646  24.407  22.228   1.579
33106W        W99647  44.351  28.844  13.557
33107W        W99648  10.675  34.293  12.458
33108W        W99649  42.310   2.649  12.498
33109W        W99650   9.959  10.747   3.925
33110W        W99651   1.548  20.160   4.598
33111W        W99652  22.186  29.951  12.562
33112W        W99653   9.449  32.002   0.494
33113W        W99654   6.517   1.859  14.368
33114W        W99655   5.354  15.298  14.470
33115W        W99656  39.903  18.832   0.875
33116W        W99657  23.061  18.732  10.624
33117W        W99658  29.567   6.469  14.885
33118W        W99659  41.255  12.957  11.123
33119W        W99660  18.731  23.525   0.981
33120W        W99661   9.309  32.318  14.259
33121W        W99662  39.539  35.475  14.233
33122W        W99663   8.345  37.495   2.798
33123W        W99664  32.684  29.235  11.914
33124W        W99665  28.117  31.382   1.245
33125W        W99666  42.789  35.336  12.005
33126W        W99667  24.994   8.330   0.465
33127W        W99668  36.114  38.443  10.943
33128W        W99669   1.392  23.744   4.718
33129W        W99670  17.367  11.926  11.024
33130W        W99671  18.244  19.523   2.397
33131W        W99672  37.247  22.660  11.601
33132W        W99673  33.476   1.428   3.491
33133W        W99674   2.983  42.936  14.448
33134W        W99675  24.016  44.524  12.792
33135W        W99676  42.075  27.090  13.582
33136W        W99677  34.048  16.241  10.695
33137W        W99678  43.838  19.444  13.625
33138W        W99679  11.362  23.841   1.768
33139W        W99680  13.224  41.434  13.064
33140W        W99681  43.213  11.685   3.196
33141W        W99682  25.220   5.373  13.066
33142W        W99683  16.630  27.368   4.181
33143W        W99684  41.014  27.877   3.827
33144W        W99685   0.345  42.775  14.295
33145W        W99686   1.723  25.719   4.995
33146W        W99687   7.158  12.813  12.035
33147W        W99688  37.095  22.263   3.381
33148W        W99689  11.593  15.673  12.896
33149W        W99690  17.137  34.393  13.454
33150W        W99691  38.074   7.470   1.784
33151W        W99692  19.516   4.833   3.710
33152W        W99693  40.872  15.185  14.933
33153W        W99694  22.466  15.575  12.861
33154W        W99695  37.113   1.767  12.045
33155W        W99696  37.407  29.966  13.459
33156W        W99697  40.359  10.816   2.692
33157W        W99698  43.509  26.302   4.091
33158W        W99699  41.286   1.966  11.188
33159W        W99700  11.287  31.365  14.966
33160W        W99701  22.173  15.570   1.838
33161W        W99702   3.348  11.073   4.094
33162W        W99703  24.208   0.027   1.098
33163W        W99704   4.280  11.673   2.845
33164W        W99705  12.879  19.466  12.807
33165W        W99706  14.366   2.557  11.609
33166W        W99707  24.289  15.452   0.128
33167W        W99708  16.832  35.395   3.268
33168W        W99709   4.639  23.247   4.498
33169W        W99710   6.081  43.928   4.959
33170W        W99711  10.025  32.193   4.309
33171W        W99712  21.043  42.422   1.939
33172W        W99713  35.507  26.389   3.232
33173W        W99714  41.745   5.520  13.860
33174W        W99715  42.928  14.339  10.443
33175W        W99716  31.343  25.118  11.513
33176W        W99717  41.836  25.094   2.440
33177W        W99718  22.672  18.621  13.010
33178W        W99719  17.504  19.079   1.792
33179W        W99720  37.095  18.844   2.473
33180W        W99721  44.340  21.660  11.200
33181W        W99722  31.022  23.246  10.315
33182W        W99723  26.302   7.885  11.178
33183W        W99724  44.382  41.019  13.153
33184W        W99725  23.696   5.186   0.402
33185W        W99726  38.487  26.381   0.361
33186W        W99727  40.242  24.559   2.658
33187W        W99728  13.691  39.305   1.740
33188W        W99729  25.836  17.486   1.807
33189W        W99730  22.009  22.314  10.516
33190W        W99731  32.049  30.555   4.173
33191W        W99732  10.276  31.136   1.186
33192W        W99733  21.781  43.084   2.413
33193W        W99734  21.183  31.716  10.996
33194W        W99735  33.468  36.143  13.828
33195W        W99736   4.779   5.962  11.243
33196W        W99737  32.630  44.918  13.299
33197W        W99738  26.456  43.861   4.433
33198W        W99739  16.149   7.027  12.934
33199W        W99740  15.196  10.638  12.592
33200W        W99741  17.083   4.390  12.996
33201W        W99742   7.132  43.950   0.675
33202W        W99743   1.214  32.937  13.700
33203W        W99744   9.216  11.289  12.456
33204W        W99745  15.681  41.930   3.668
33205W        W99746  39.846  13.129  13.994
33206W        W99747  40.252  34.165  11.110
33207W        W99748  34.370  41.900   4.134
33208W        W99749  37.098  27.914   3.257
33209W        W99750  21.616  32.650  14.410
33210W        W99751  36.947   3.289  13.129
33211W        W99752   7.492  26.745   3.725
33212W        W99753  37.886  38.432   1.482
33213W        W99754  31.483  11.093  14.383
33214W        W99755  27.932   0.069  13.990
33215W        W99756   1.644  42.715  10.228
33216W        W99757  27.077   2.248  14.173
33217W        W99758   5.315  15.557  13.550
33218W        W99759   1.178  33.059  11.511
33219W        W99760   2.047   1.343  13.294
33220W        W99761  21.564  43.451   4.601
33221W        W99762  37.998   4.458   4.647
33222W        W99763   4.755  12.512  10.254
33223W        W99764  25.568  34.530   0.715
33224W        W99765  36.565  38.612   0.439
33225W        W99766  20.949   3.340   2.722
33226W        W99767   6.404  44.847   0.302
33227W        W99768  23.360   7.329   4.231
33228W        W99769   7.846  40.575  11.134
33229W        W99770  27.969  40.426  11.206
33230W        W99771  29.538   5.725   1.808
33231W        W99772  39.380  24.004   2.199
33232W        W99773  22.373  14.878   4.988
33233W        W99774   4.194  10.178   3.807
33234W        W99775  19.229   4.950   2.748
33235W        W99776  21.317  12.293  11.600
33236W        W99777  25.974   8.797  12.304
33237W        W99778   1.464  33.368   2.622
33238W        W99779  38.405  33.442   0.864
33239W        W99780   1.400   4.196  11.536
33240W        W99781  24.695  19.426  14.254
33241W        W99782  27.475  14.404   5.184
33242W        W99783  19.894   2.915   2.803
33243W        W99784  19.014  13.089  11.627
33244W        W99785   5.916  17.698  10.590
33245W        W99786  19.077  31.211  12.030
33246W        W99787  22.961  41.035   0.370
33247W        W99788   2.883   1.020   0.092
33248W        W99789  40.888   9.173   2.252
33249W        W99790   9.384  16.239  14.720
33250W        W99791  31.013  42.918   1.277
33251W        W99792  19.753  19.078   2.619
33252W        W99793  33.019  32.147   3.763
33253W        W99794  31.681   3.786   2.281
33254W        W99795  29.628  19.907  13.456
33255W        W99796  33.549  43.047  14.435
33256W        W99797  20.712   9.315   2.678
33257W        W99798  10.243   7.130  12.535
33258W        W99799   6.995  36.725  14.389
33259W        W99800   7.662  19.609  13.622
33260W        W99801   0.666  31.188  13.868
33261W        W99802  43.068   1.700  12.060
33262W        W99803  42.788  14.823  11.233
33263W        W99804  43.995  10.830  12.117
33264W        W99805  18.495   4.961   3.136
33265W        W99806  26.843  29.954   0.921
33266W        W99807  34.363  40.580   1.717
33267W        W99808  36.555   8.399  10.699
33268W        W99809  43.171   0.289   4.828
33269W        W99810   6.657  24.616  12.466
33270W        W99811  36.822   4.397   4.573
33271W        W99812  31.444  28.505  11.890
33272W        W99813  39.759  21.431   0.626
33273W        W99814  28.375  21.237   4.148
33274W        W99815  29.991  23.925   1.265
33275W        W99816  43.019   1.186  11.310
33276W        W99817  20.959  36.188   0.747
33277W        W99818  26.985  28.523   0.739
33278W        W99819  36.459  35.077  13.037
33279W        W99820  14.061  32.901   2.372
33280W        W99821  28.134  23.948  12.369
33281W        W99822  43.009  37.055  13.162
33282W        W99823  24.210   7.182  12.872
33283W        W99824  31.388  31.687   1.248
33284W        W99825  29.050  35.394  11.623
33285W        W99826   9.596  19.157   0.037
33286W        W99827   4.784  11.377   2.665
33287W        W99828  35.931  17.178   1.339
33288W        W99829  10.385  31.971   0.001
33289W        W99830  26.865  20.965  12.236
33290W        W99831  37.651  30.425   0.195
33291W        W99832  44.403  22.098  10.255
33292W        W99833  37.360  39.439  13.356
33293W        W99834  10.826  32.798   4.323
33294W        W99835  35.136  19.720   3.218
33295W        W99836   7.937  12.833   0.742
33296W        W99837  15.940  16.578  11.551
33297W        W99838   9.232  10.906  14.933
33298W        W99839   2.868  43.385   0.710
33299W        W99840   1.647  12.326  10.634
33300W        W99841  24.065  20.164   0.331
33301W        W99842   4.685  17.079   1.829
33302W        W99843   0.564  22.626  11.883
33303W        W99844  41.438  11.280  13.979
33304W        W99845   5.755   8.381  10.829
33305W        W99846  21.266  37.193   1.711
33306W        W99847   6.443  32.589   4.582
33307W        W99848  32.158  39.849   1.376
33308W        W99849  10.032   6.733   3.450
33309W        W99850  33.631  16.706   1.994
33310W        W99851  27.379  38.319   0.141
33311W        W99852  26.036  40.321   5.204
33312W        W99853  40.951  37.702  10.983
33313W        W99854  14.680  25.091  12.366
33314W        W99855  14.109  37.880  11.457
33315W        W99856   1.786  15.562  12.051
33316W        W99857  31.681  14.966  11.097
33317W        W99858  41.645   0.326  13.839
33318W        W99859  18.579  43.836   2.096
33319W        W99860  17.939   0.544  11.257
33320W        W99861  11.821  35.637   0.822
33321W        W99862  44.178  40.045   3.349
33322W        W99863  25.231  18.596  11.592
33323W        W99864  21.516  24.087   1.819
33324W        W99865  27.229   4.875   0.364
33325W        W99866  18.611  27.890   2.832
33326W        W99867  14.644  24.082   0.702
33327W        W99868  10.884  37.490  14.096
33328W        W99869  35.903  21.760   3.282
33329W        W99870  24.236  37.456   2.390
33330W        W99871  42.870  33.360   2.791
33331W        W99872  27.082  29.491   0.997
33332W        W99873  31.201  39.500  11.578
33333W        W99874  37.149  29.156   1.945
33334W        W99875  36.825  31.135  12.884
33335W        W99876  15.554  40.444   3.040
33336W        W99877  26.898  36.757   1.813
33337W        W99878   6.865  13.963  11.339
33338W        W99879  11.442   1.404   1.777
33339W        W99880   5.484  13.755   4.172
33340W        W99881  30.504  41.597  13.045
33341W        W99882   3.932  19.802  11.361
33342W        W99883  27.271  10.242  14.416
33343W        W99884  29.411  29.006   2.959
33344W        W99885  33.966  34.886  13.758
33345W        W99886  27.501  15.152   4.881
33346W        W99887   2.474  26.687   1.041
33347W        W99888  11.136  44.112   3.273
33348W        W99889  14.826  20.786   0.008
33349W        W99890  37.285  18.477  11.967
33350W        W99891   0.180  15.576  14.343
33351W        W99892  13.806  19.671   3.794
33352W        W99893  10.535  28.648  13.937
33353W        W99894  20.056   9.203   0.433
33354W        W99895  44.148  12.179  13.918
33355W        W99896  41.324  15.516  12.023
33356W        W99897   4.727  41.000   0.542
33357W        W99898   5.655  10.374  10.747
33358W        W99899  24.042  28.037  12.447
33359W        W99900  33.548  31.122  11.106
33360W        W99901  34.535   0.360   3.915
33361W        W99902  42.399   0.988   2.284
33362W        W99903  24.895  27.612  11.569
33363W        W99904  11.304  22.093  13.419
33364W        W99905   4.638  26.677   3.227
33365W        W99906  25.838   8.146  10.595
33366W        W99907  39.511  30.548  14.257
33367W        W99908  42.082  14.680  14.515
33368W        W99909  15.165   2.030  11.693
33369W        W99910  30.111  36.625  11.265
33370W        W99911  26.448  42.302   2.246
33371W        W99912  21.707  32.892   2.174
33372W        W99913  34.168  22.457   1.338
33373W        W99914  12.808  18.618  10.701
33374W        W99915  10.614  30.906  10.774
33375W        W99916   7.945  20.325  14.273
33376W        W99917  12.850  41.045  12.916
33377W        W99918  38.434  30.561  12.896
33378W        W99919  44.463  24.432  12.116
33379W        W99920  18.679  43.250  14.095
33380W        W99921  26.046  43.345   4.015
33381W        W99922  17.252   6.507   3.806
33382W        W99923   2.139  42.667  10.548
33383W        W99924  30.761   1.013   1.423
33384W        W99925  24.258  42.404   2.289
33385W        W99926   6.433   4.477  10.752
33386W        W99927  11.208   2.222   1.842
33387W        W99928  30.023  16.706   4.476
33388W        W99929   2.276  34.223  10.945
33389W        W99930  44.076  18.573   2.447
33390W        W99931  36.975  42.850  10.497
33391W        W99932  33.511  10.109   0.661
33392W        W99933  26.725  44.244   2.257
33393W        W99934  24.591  10.540   2.360
33394W        W99935  35.136  23.616   4.168
33395W        W99936  22.643  41.916  14.873
33396W        W99937   1.002  43.225  12.129
33397W        W99938  16.277  44.537   0.902
33398W        W99939  41.799   8.391   4.254
33399W        W99940  42.081  27.137  10.710
33400W        W99941  32.140  10.689  13.439
33401W        W99942  30.573  33.650  13.490
33402W        W99943  44.782  29.181   2.815
33403W        W99944  29.696   3.535   4.208
33404W        W99945  19.206  37.309   3.723
33405W        W99946  12.444   0.064   4.650
33406W        W99947  38.138  34.100   1.306
33407W        W99948  26.695  13.621   3.224
33408W        W99949  31.168  17.589  10.882
33409W        W99950   1.486   4.491   1.403
33410W        W99951  37.387   7.313   2.732
33411W        W99952  12.725   9.773   4.162
33412W        W99953  15.578  36.909   1.582
33413W        W99954   0.463   6.794   3.203
33414W        W99955  15.604   0.791  10.726
33415W        W99956  35.722   4.468  11.147
33416W        W99957  38.098  41.792   2.368
33417W        W99958  37.947  21.824   1.371
33418W        W99959   4.388  34.074  12.123
33419W        W99960  40.076  32.054   4.124
33420W        W99961  33.810  15.241  13.657
33421W        W99962  36.584  33.358  12.192
33422W        W99963  22.724  23.418  13.950
33423W        W99964  42.550  11.858  12.889
33424W        W99965  29.168   6.907   1.880
33425W        W99966  22.805  20.169   2.230
33426W        W99967   2.365  22.786  11.499
33427W        W99968   6.264   9.087  13.483
33428W        W99969  26.146  23.442  11.136
33429W        W99970  14.238  34.334  10.213
33430W        W99971  31.462  25.331  13.752
33431W        W99972   8.277   9.232  12.993
33432W        W99973   5.878   9.652  14.071
33433W        W99974  16.479  20.791   4.551
33434W        W99975  32.006  41.983  14.318
33435W        W99976  11.326  37.598  13.810
33436W        W99977  14.731   9.557   2.180
33437W        W99978  40.260  15.278  12.903
33438W        W99979  25.522   9.667  13.951
33439W        W99980  27.829   8.242   9.960
33440W        W99981  31.976  11.250   2.650
33441W        W99982   1.626   4.624   3.634
33442W        W99983   4.843  20.253   4.926
33443W        W99984  29.962   1.275   2.920
33444W        W99985  38.062  37.130   0.654
33445W        W99986   7.857  17.828  14.052
33446W        W99987   6.768  29.673  11.074
33447W        W99988   5.741  16.287  13.326
33448W        W99989  14.280  22.697   2.372
33449W        W99990  19.115  10.658  13.960
33450W        W99991  14.294  18.137  12.831
33451W        W99992  36.531  14.779   4.668
33452W        W99993  25.004  27.386  10.588
33453W        W99994   8.617  41.511   3.643
33454W        W99995   3.924  37.865  13.358
33455W        W99996  16.351  30.666   3.123
33456W        W99997  36.554  16.585   3.158
33457W        W99998  13.216  10.257  12.112
33458W        W99999   1.900  19.593  13.294
33459W        W    0  24.939   1.528  13.920
33460W        W    1  22.871  13.181   3.287
33461W        W    2  14.818  42.957   0.623
33462W        W    3   4.442  18.598  11.555
33463W        W    4  31.040  12.365  11.901
33464W        W    5  28.889   2.718  11.511
33465W        W    6   5.352  20.556  13.802
33466W        W    7   7.447  27.620  12.681
33467W        W    8  34.121  25.947   4.075
33468W        W    9   9.104   1.721  13.453
33469W        W   10   4.740  18.702   0.272
33470W        W   11  18.496  15.835  10.730
33471W        W   12  28.138  38.777  11.617
33472W        W   13  30.008   3.858   2.495
33473W        W   14   6.471  10.439  14.851
33474W        W   15   8.075  16.699   1.713
33475W        W   16  35.866  30.842  14.804
33476W        W   17  41.432  24.189   1.038
33477W        W   18   5.632   8.554   4.775
33478W        W   19  14.436  42.426  12.408
33479W        W   20  23.528   3.423   0.496
33480W        W   21   2.909  36.505  11.666
33481W        W   22  44.492   3.323   1.339
33482W        W   23   0.770  23.244  14.994
33483W        W   24  11.148  40.624   0.893
33484W        W   25  23.462  12.227   0.053
33485W        W   26  43.521  31.962  14.886
33486W        W   27  39.361  36.597  12.577
33487W        W   28  21.233  36.072  13.101
33488W        W   29  19.614  43.908   1.209
33489W        W   30  28.676   2.948   3.208
33490W        W   31  24.954  12.141   2.361
33491W        W   32   7.104  19.729  14.492
33492W        W   33  27.470   3.577   4.574
33493W        W   34   1.330  28.649  12.549
33494W        W   35  16.079  33.327   2.180
33495W        W   36  21.514  24.190  14.840
33496W        W   37  36.203  42.305   2.834
33497W        W   38  36.109  28.690  11.653
33498W        W   39  31.463   9.740  12.453
33499W        W   40  39.452  12.428   5.088
33500W        W   41  27.008   7.491   1.803
33501W        W   42  14.268  10.658  14.823
33502W        W   43   1.758   0.941  13.469
33503W        W   44  29.501  14.551  11.970
33504W        W   45  22.253  43.773  10.184
33505W        W   46  15.763   3.154  11.010
33506W        W   47  10.193  28.030  11.504
33507W        W   48  18.552  12.753   0.724
33508W        W   49  19.382   8.103   2.408
33509W        W   50   5.483  28.683  14.995
33510W        W   51   1.903   0.697   4.100
33511W        W   52  12.974  20.505   4.132
33512W        W   53  16.254   7.834  14.528
33513W        W   54  20.697  11.636   3.375
33514W        W   55  24.177  18.737   3.923
33515W        W   56  18.834  16.328   3.789
33516W        W   57  16.322  17.079   3.270
33517W        W   58  19.840   2.487  12.535
33518W        W   59  24.079   9.344  12.352
33519W        W   60  24.592  23.279   2.865
33520W        W   61   2.136  44.282   3.609
33521W        W   62  33.082  40.304   4.357
33522W        W   63  38.245  40.912   1.945
33523W        W   64  38.842  44.357   0.980
33524W        W   65   3.230  38.853   4.143
33525W        W   66  17.339  22.736   4.115
33526W        W   67  39.721  33.606   3.652
33527W        W   68  10.388  13.839  12.538
33528W        W   69  28.233   4.281  12.114
33529W        W   70  23.344  28.722   0.893
33530W        W   71  20.295  21.090  10.466
33531W        W   72  15.410   3.298   3.484
33532W        W   73  22.150  39.218   0.478
33533W        W   74  21.748  41.448  13.421
33534W        W   75  12.398   3.493   1.314
33535W        W   76  18.215  14.945   3.597
33536W        W   77   1.952  25.878   0.303
33537W        W   78  11.910   8.632   5.066
33538W        W   79  38.145  20.796  11.619
33539W        W   80  18.525  25.062   3.734
33540W        W   81  38.289  38.633   0.696
33541W        W   82  35.419   4.252   3.225
33542W        W   83   0.022  24.974  14.346
33543W        W   84   7.169  16.821   3.808
33544W        W   85  21.126  26.153  12.580
33545W        W   86  44.695  28.588  13.869
33546W        W   87  41.902  16.775  13.553
33547W        W   88  40.329  20.038   2.601
33548W        W   89  21.149  23.541   3.219
33549W        W   90  40.468  21.780   0.425
33550W        W   91  43.870  26.745  13.988
33551W        W   92  22.928  22.683  12.410
33552W        W   93  16.583  40.503  11.096
33553W        W   94  10.983  20.433   4.067
33554W        W   95  34.411  18.548  11.576
33555W        W   96  17.998  19.275   0.956
33556W        W   97  30.127  36.338   1.641
33557W        W   98  15.772  18.643  12.066
33558W        W   99  14.257  18.277  13.884
33559W        W  100   0.851  31.589  11.624
33560W        W  101  33.844  24.462   4.550
33561W        W  102  37.460  28.560  14.770
33562W        W  103   3.770  19.499   2.219
33563W        W  104  27.957  38.847  10.573
33564W        W  105  10.572  31.771  13.947
33565W        W  106   2.940  35.131  12.872
33566W        W  107   5.658   7.160  13.406
33567W        W  108  16.552  36.121   0.276
33568W        W  109  38.517  16.027   2.307
33569W        W  110  26.506   4.232   0.045
33570W        W  111  37.404  31.576   4.602
33571W        W  112   9.961  11.925   0.620
33572W        W  113  30.514  24.290   2.378
33573W        W  114  36.717   4.068   4.045
33574W        W  115   1.447  21.105   4.702
33575W        W  116  17.385   1.236  13.657
33576W        W  117  18.160   7.208   0.852
33577W        W  118  19.528  14.262   2.800
33578W        W  119  10.841  40.128   0.407
33579W        W  120  25.725  32.648  11.506
33580W        W  121  44.951  31.069  13.416
33581W        W  122   4.048  10.864   4.558
33582W        W  123  22.162  23.490   4.698
33583W        W  124  28.577  25.718   3.714
33584W        W  125  34.478  31.112  11.579
33585W        W  126  13.159   5.967   3.049
33586W        W  127   7.456  14.167  12.458
33587W        W  128  38.910   1.245   2.724
33588W        W  129  33.623  15.125  11.830
33589W        W  130   4.778   9.337  13.910
33590W        W  131  21.217  37.370   0.364
33591W        W  132  32.517  35.448   2.483
33592W        W  133  30.507   6.626   3.335
33593W        W  134  15.812  37.332   1.416
33594W        W  135  40.164  16.295   3.834
33595W        W  136  14.814  38.815  11.966
33596W        W  137  26.178  10.167   4.600
33597W        W  138  25.762  23.283   1.685
33598W        W  139  39.184  21.064  10.502
33599W        W  140  24.710   5.207  11.960
33600W        W  141   0.548  30.980   2.760
33601W        W  142  25.905  20.205  14.385
33602W        W  143  29.433  37.428   0.465
33603W        W  144  41.359  26.668  13.964
33604W        W  145  26.229   6.464  13.403
33605W        W  146  41.417  25.039  10.789
33606W        W  147   2.360  24.653   1.460
33607W        W  148   4.603  24.018   0.057
33608W        W  149  23.138  34.970   4.146
33609W        W  150  11.307   0.338  14.100
33610W        W  151   6.831  12.599  12.849
33611W        W  152  29.505  32.728  14.300
33612W        W  153   3.471  23.794   4.239
33613W        W  154  36.494  18.937   3.313
33614W        W  155  35.143  15.860   1.426
33615W        W  156  17.740  32.788  14.388
33616W        W  157  24.132  21.268   3.372
33617W        W  158  34.307  31.864   3.657
33618W        W  159   5.724  19.271  10.725
33619W        W  160  36.064   3.533  13.172
33620W        W  161   1.259  14.249  14.337
33621W        W  162  36.079  29.655  12.501
33622W        W  163  32.884   3.381   0.003
33623W        W  164  41.717  13.265   0.836
33624W        W  165  40.161  14.661  11.068
33625W        W  166  12.230  24.881  14.354
33626W        W  167  38.557  32.006  13.320
33627W        W  168  26.102  17.551   1.332
33628W        W  169  27.248   9.325  13.599
33629W        W  170  33.171  26.121  11.212
33630W        W  171  35.124  36.750  11.108
33631W        W  172  22.563  23.295  13.443
33632W        W  173  33.454  40.273   1.252
33633W        W  174  19.644   8.192  10.580
33634W        W  175  14.232  27.612   3.715
33635W        W  176  41.075  16.740  10.195
33636W        W  177  42.516  25.943  13.633
33637W        W  178  18.731  29.546  10.434
33638W        W  179  26.182  17.858  11.974
33639W        W  180  37.281  32.206   3.310
33640W        W  181  13.234  12.136  13.886
33641W        W  182  27.409   1.976  14.476
33642W        W  183  43.580  37.403  14.278
33643W        W  184  14.157   4.863   0.230
33644W        W  185  18.297   5.240   1.391
33645W        W  186  26.823  29.280   2.129
33646W        W  187  16.326   2.345   3.234
33647W        W  188  21.018   0.921   2.857
33648W        W  189  17.870   3.689   4.401
33649W        W  190  13.116  29.723  12.362
33650W        W  191  12.526  38.958   1.881
33651W        W  192  43.650   5.169   2.742
33652W        W  193  33.728  40.411  14.255
33653W        W  194  44.424  16.035   4.635
33654W        W  195   7.665  38.830  12.883
33655W        W  196  29.890  39.259   2.730
33656W        W  197  25.396  34.025  11.673
33657W        W  198   9.259  17.056  11.578
33658W        W  199   4.144  10.359  10.962
33659W        W  200  41.372  19.453  14.393
33660W        W  201  29.730  36.141  13.362
33661W        W  202  32.718  33.906   4.193
33662W        W  203  30.733  41.949   1.745
33663W        W  204  43.020  37.711  13.472
33664W        W  205  36.517  11.877  11.853
33665W        W  206  36.116  26.962   2.117
33666W        W  207  32.625  26.999  10.359
33667W        W  208  35.626  25.896   3.327
33668W        W  209   1.892  14.786   2.348
33669W        W  210  28.520   8.226   4.013
33670W        W  211  33.369  13.856  14.501
33671W        W  212   3.759  24.095  12.924
33672W        W  213  23.538  34.732   3.344
33673W        W  214   1.768   4.272   0.189
33674W        W  215  40.258  22.655   2.376
33675W        W  216  22.137   8.625  10.967
33676W        W  217  16.583  33.158   2.139
33677W        W  218  41.520   8.222  12.635
33678W        W  219  11.681  36.452  14.723
33679W        W  220  20.985  31.073   1.343
33680W        W  221   1.679  38.071  11.284
33681W        W  222  12.136   6.214  12.414
33682W        W  223  16.678  33.991   4.546
33683W        W  224  11.821  14.655  10.429
33684W        W  225  10.632  19.365   0.900
33685W        W  226  44.915  18.663   1.925
33686W        W  227  42.479  39.904   2.840
33687W        W  228  31.854   2.896  10.021
33688W        W  229   8.991  42.859  10.603
33689W        W  230   3.797  44.524   0.817
33690W        W  231   9.676   9.609  13.990
33691W        W  232  37.600  28.959  13.081
33692W        W  233  34.100  18.819   1.451
33693W        W  234  35.401  27.436   1.473
33694W        W  235  43.053  12.290   1.244
33695W        W  236  15.621   2.276  10.641
33696W        W  237  42.755  12.603  13.395
33697W        W  238  18.052  11.260  14.694
33698W        W  239  24.919  41.899  13.521
33699W        W  240   5.965  23.200   1.265
33700W        W  241  30.509   2.157   0.475
33701W        W  242  30.082  28.699   0.488
33702W        W  243  19.284  16.745  14.623
33703W        W  244  42.305   0.521   2.533
33704W        W  245   0.045  32.071  12.358
33705W        W  246   2.355  40.407   2.101
33706W        W  247   0.886  14.285  12.622
33707W        W  248  14.820  14.688   2.672
33708W        W  249  34.962   4.413   3.393
33709W        W  250  22.723  41.430   0.098
33710W        W  251  18.442  38.966   3.627
33711W        W  252  40.887   7.604  10.676
33712W        W  253   7.008  21.010  14.324
33713W        W  254  28.335  40.360   2.741
33714W        W  255  16.842   9.120   4.593
33715W        W  256  19.623  24.639   4.605
33716W        W  257  31.558  25.713   0.041
33717W        W  258  23.296  25.597   4.289
33718W        W  259  21.485  38.688  11.186
33719W        W  260   2.387  26.038   1.408
33720W        W  261  25.593   0.763  10.772
33721W        W  262  20.739   4.664  14.784
33722W        W  263  31.567   9.642   3.711
33723W        W  264  34.641  25.447   4.258
33724W        W  265  19.800  28.067  10.736
33725W        W  266  33.502  33.557   0.014
33726W        W  267  34.678  16.686  11.111
33727W        W  268  43.505  13.306   1.813
33728W        W  269  22.167  19.483  11.173
33729W        W  270  38.009  14.386  12.550
33730W        W  271  36.203   7.645  14.372
33731W        W  272  26.069  18.384   4.798
33732W        W  273  42.071   1.467  14.917
33733W        W  274  20.111   6.759  11.497
33734W        W  275  34.245  29.333  11.575
33735W        W  276   7.369  36.741   5.033
33736W        W  277  23.025  35.001  13.320
33737W        W  278  32.532   6.277  10.631
33738W        W  279  28.137  21.878   4.007
33739W        W  280  17.350  28.076   4.133
33740W        W  281  21.732  42.181   0.999
33741W        W  282  17.024  36.374  10.712
33742W        W  283  31.099  13.045  13.931
33743W        W  284  11.449   6.496  12.002
33744W        W  285   2.586  43.179   1.872
33745W        W  286  12.340  42.715   0.511
33746W        W  287  19.976   3.380   0.500
33747W        W  288  26.758  38.970   2.889
33748W        W  289   3.767   7.838   4.432
33749W        W  290  17.203  23.652  11.933
33750W        W  291  27.725  26.478  10.581
33751W        W  292   5.446   3.546   4.869
33752W        W  293  24.303  19.944  14.912
33753W        W  294  23.079   5.643  13.104
33754W        W  295  11.424   8.707  13.015
33755W        W  296  19.818   6.930  13.989
33756W        W  297  15.613  36.368   2.322
33757W        W  298   5.054   7.668   1.938
33758W        W  299  16.825  26.933  12.041
33759W        W  300  30.603  18.641   4.337
33760W        W  301  33.976  42.089  11.520
33761W        W  302  31.013  13.408   4.567
33762W        W  303   5.606  26.654   1.884
33763W        W  304  18.186  32.586  11.614
33764W        W  305  15.107  20.248  12.411
33765W        W  306  42.254  35.150   2.815
33766W        W  307  40.483  36.858   1.986
33767W        W  308  13.317  13.332  10.622
33768W        W  309  21.521   1.338   0.082
33769W        W  310  25.728  30.620   1.572
33770W        W  311  27.230  32.644  13.814
33771W        W  312  13.786  44.209   4.722
33772W        W  313  29.677  37.511   4.602
33773W        W  314   5.521   9.031  13.475
33774W        W  315  24.529  27.923   0.840
33775W        W  316  19.530   9.375  14.128
33776W        W  317  32.998  25.408   0.417
33777W        W  318  21.209  26.505  11.763
33778W        W  319   0.271  33.288   4.434
33779W        W  320   4.325  42.817   5.026
33780W        W  321  11.353  13.858  11.125
33781W        W  322  37.396   1.336  14.073
33782W        W  323  26.540   8.046  13.286
33783W        W  324  23.153  10.098  12.312
33784W        W  325  37.564  24.004   5.340
33785W        W  326  27.215   9.294  12.575
33786W        W  327   6.974  20.249   2.666
33787W        W  328  15.219  42.028   4.824
33788W        W  329  27.142  14.790   5.029
33789W        W  330  32.974  30.796   4.266
33790W        W  331  42.932  24.169   3.457
33791W        W  332  21.544  38.158  11.149
33792W        W  333  43.797  28.429   4.393
33793W        W  334   1.538  37.508   0.301
33794W        W  335   6.715  21.688  13.769
33795W        W  336  28.208   6.049   0.179
33796W        W  337  41.511  28.000  14.515
33797W        W  338  23.622  16.715   4.021
33798W        W  339  17.587  26.555   4.386
33799W        W  340   8.241  22.117  13.261
33800W        W  341  13.301  22.817   2.419
33801W        W  342  16.112   7.342  14.420
33802W        W  343  38.521  44.371  13.703
33803W        W  344  11.399  21.026  11.594
33804W        W  345  30.442   7.825  12.489
33805W        W  346   8.330  13.986  14.467
33806W        W  347  31.512   2.470  11.500
33807W        W  348  15.273  17.307   4.179
33808W        W  349  31.646  34.494   2.886
33809W        W  350  34.488  15.475  10.734
33810W        W  351  35.957  30.089  14.318
33811W        W  352  12.286  34.450   1.849
33812W        W  353  28.109  31.545  11.551
33813W        W  354  42.884   4.857   1.987
33814W        W  355  29.681  10.251  12.982
33815W        W  356  32.973   6.172  14.314
33816W        W  357  12.099  14.515   1.747
33817W        W  358  42.259   3.685  12.839
33818W        W  359  26.100  35.222   2.365
33819W        W  360  21.312  21.167  14.694
33820W        W  361  19.612  25.769   4.018
33821W        W  362   7.072  27.001  11.217
33822W        W  363  21.194  16.990   3.737
33823W        W  364  38.334  12.273   1.711
33824W        W  365   7.902  26.076   1.865
33825W        W  366  26.022  12.222  11.569
33826W        W  367   7.886  21.276  14.528
33827W        W  368  24.891   2.740   2.504
33828W        W  369  25.147  37.851   2.404
33829W        W  370  29.912  17.224  13.757
33830W        W  371  29.039  44.766   4.857
33831W        W  372   9.179  44.543   3.336
33832W        W  373   0.371  39.574  14.508
33833W        W  374   0.472  38.800   2.263
33834W        W  375  11.812  44.560   0.885
33835W        W  376  22.681  31.059   3.636
33836W        W  377  26.791   1.597   9.949
33837W        W  378   3.572  20.536  11.157
33838W        W  379  27.687  13.280   4.140
33839W        W  380   9.912  17.346  10.551
33840W        W  381  19.238  35.214  10.738
33841W        W  382   0.038  39.853  14.835
33842W        W  383   3.918  37.622  11.472
33843W        W  384   6.092  13.288  13.617
33844W        W  385   9.737   8.703  12.503
33845W        W  386  42.793  16.626   4.909
33846W        W  387  39.942  18.339   4.455
33847W        W  388  33.824  24.651   0.853
33848W        W  389   7.291  27.084  12.818
33849W        W  390   4.312  18.184   2.561
33850W        W  391  40.897  35.026  12.383
33851W        W  392  14.181  22.250   3.483
33852W        W  393  43.045  11.686   1.494
33853W        W  394  31.246  29.639   4.546
33854W        W  395  30.685  36.541  12.795
33855W        W  396  41.214   8.403   0.406
33856W        W  397  40.672  33.428   3.671
33857W        W  398  14.794   3.914   1.441
33858W        W  399  37.105  21.800  13.036
33859W        W  400  23.462  41.911   1.214
33860W        W  401  35.992  27.909   2.251
33861W        W  402  26.331  34.826  13.410
33862W        W  403  23.120  37.036   4.014
33863W        W  404  38.864  34.529   3.181
33864W        W  405  44.422   8.211  10.669
33865W        W  406  23.686   6.705  12.528
33866W        W  407  42.585  27.090  10.664
33867W        W  408  33.369  27.999  14.857
33868W        W  409   6.781  35.876  13.235
33869W        W  410   7.864  21.555  11.324
33870W        W  411  26.166   1.821  11.188
33871W        W  412  42.498  13.102   1.714
33872W        W  413   5.820  21.467  10.977
33873W        W  414   7.172   3.265  11.056
33874W        W  415  35.033  23.573   1.302
33875W        W  416  15.457   1.197  14.686
33876W        W  417  44.511  11.415  14.773
33877W        W  418  18.191   3.158   1.480
33878W        W  419  36.669  39.360   0.747
33879W        W  420  29.832  18.738   0.918
33880W        W  421   2.684  12.211  12.163
33881W        W  422   5.851  20.607  14.750
33882W        W  423  18.143  17.552  11.910
33883W        W  424   8.764  20.694  13.253
33884W        W  425   9.164  17.577  14.535
33885W        W  426  20.244  38.054   3.260
33886W        W  427  35.060  20.734  13.516
33887W        W  428   0.920  37.951   2.171
33888W        W  429  16.717  32.053  11.667
33889W        W  430   2.382  44.069  14.360
33890W        W  431  23.530   3.412   2.688
33891W        W  432  29.691   0.336   1.107
33892W        W  433  15.069   9.882   3.753
33893W        W  434  15.583  44.500   1.258
33894W        W  435  33.682  21.719  10.978
33895W        W  436  17.603   8.007   1.968
33896W        W  437  14.923  21.147  13.624
33897W        W  438  17.607  13.623  10.653
33898W        W  439  30.351   7.904  13.273
33899W        W  440  19.065  15.720   3.251
33900W        W  441   4.317  20.380   2.416
33901W        W  442  12.137  42.954   2.026
33902W        W  443  27.937  40.386   3.111
33903W        W  444  16.928  44.376  11.393
33904W        W  445  15.428   1.283  12.395
33905W        W  446  24.470   6.934  13.420
33906W        W  447  25.740  37.303   4.586
33907W        W  448  33.488  31.568   0.767
33908W        W  449  29.843  37.022   0.927
33909W        W  450   7.490  38.979  13.898
33910W        W  451  12.573  30.596   5.016
33911W        W  452  39.900  44.274   4.673
33912W        W  453  15.548  43.209   1.835
33913W        W  454  22.006  31.332  12.083
33914W        W  455  44.037  29.567   2.171
33915W        W  456  26.900  27.580  13.380
33916W        W  457  11.969  38.511   3.162
33917W        W  458  34.600  28.225   2.339
33918W        W  459  39.824   1.157  13.597
33919W        W  460  30.662  29.704  13.060
33920W        W  461  20.000  15.150   2.414
33921W        W  462  27.860   1.367   2.375
33922W        W  463  33.847  24.850  12.479
33923W        W  464  23.052  37.409   2.913
33924W        W  465  22.726  23.962   3.782
33925W        W  466  29.325  23.527   9.847
33926W        W  467   3.935  10.829   1.416
33927W        W  468  36.227  40.824   1.836
33928W        W  469  33.477  12.094   2.713
33929W        W  470  24.470  27.605   3.239
33930W        W  471  10.801   5.404   1.580
33931W        W  472   2.199  40.352  11.086
33932W        W  473  12.307  33.284   3.951
33933W        W  474   2.071  33.443  11.609
33934W        W  475  24.732   1.962   1.267
33935W        W  476  24.910  24.211   2.241
33936W        W  477  32.858  16.701  13.087
33937W        W  478  22.544  23.047  12.373
33938W        W  479  24.357   4.011  14.074
33939W        W  480   8.247   1.569   0.813
33940W        W  481  33.663  41.864  11.087
33941W        W  482  44.078  12.382  14.774
33942W        W  483  33.957  15.285  13.166
33943W        W  484  10.113   3.491  13.664
33944W        W  485  37.423   6.906   3.417
33945W        W  486  28.982   3.017   2.732
33946W        W  487  30.699  35.905   0.389
33947W        W  488   1.798   3.867   0.568
33948W        W  489   6.595   6.746  11.119
33949W        W  490  22.117  35.953   2.482
33950W        W  491  35.175  44.705  12.903
33951W        W  492  27.317  39.385   0.395
33952W        W  493  22.077  39.308   1.376
33953W        W  494  10.216   1.515  13.889
33954W        W  495  44.344  22.763   0.291
33955W        W  496   2.753  10.292   0.425
33956W        W  497  10.375  39.867   0.482
33957W        W  498   8.830  35.104   1.821
33958W        W  499  35.090   0.987  13.931
33959W        W  500  42.549  29.575   3.709
33960W        W  501  40.494  18.468  11.795
33961W        W  502  21.272  10.705  14.420
33962W        W  503   8.495  21.399   4.257
33963W        W  504   7.397  12.860   1.658
33964W        W  505  28.187  42.375   3.847
33965W        W  506  12.741  41.784  14.935
33966W        W  507  14.191  41.470  12.760
33967W        W  508  10.873  37.419  10.528
33968W        W  509   9.980   8.319  10.357
33969W        W  510   6.063  33.717  10.121
33970W        W  511   9.371  18.310  10.730
33971W        W  512  35.401   0.225  12.157
33972W        W  513  15.126   0.614  12.343
33973W        W  514  34.958  36.130   2.879
33974W        W  515   8.118   1.720   2.048
33975W        W  516  40.998  31.178   3.765
33976W        W  517  26.006  27.575  13.262
33977W        W  518  44.018   5.607   1.937
33978W        W  519  13.154   9.157  11.555
33979W        W  520  40.016  35.992   1.660
33980W        W  521  17.757  29.034   0.770
33981W        W  522  33.815  31.677   0.377
33982W        W  523  42.342  27.586   4.372
33983W        W  524  11.919   7.172  12.994
33984W        W  525  32.107  16.765  14.409
33985W        W  526  37.006  18.529   4.085
33986W        W  527  40.813  10.115  14.058
33987W        W  528  24.525   7.201   4.683
33988W        W  529  31.433   4.395   1.536
33989W        W  530  30.105  33.071   2.463
33990W        W  531  25.687  30.010   3.379
33991W        W  532  12.755  10.265   4.927
33992W        W  533  42.870  42.239   1.741
33993W        W  534  27.977  37.775   4.315
33994W        W  535  28.682   0.937   0.895
33995W        W  536   6.812   3.170  10.671
33996W        W  537   5.168  22.009  12.572
33997W        W  538   4.304  16.608  11.633
33998W        W  539  34.501  38.533  12.909
33999W        W  540   6.468   7.204   2.231
34000W        W  541  38.693   4.344  11.933
34001W        W  542   5.145   5.288  11.217
34002W        W  543  11.403   4.492  12.174
34003W        W  544   6.373  21.326  11.524
34004W        W  545   2.854  15.207  11.587
34005W        W  546   7.535  24.785   9.674
34006W        W  547  41.259   4.392   2.316
34007W        W  548  12.242  26.526  13.216
34008W        W  549  39.471  29.027   1.672
34009W        W  550  10.638  33.453   2.858
34010W        W  551   5.612   6.219  12.486
34011W        W  552  23.457  17.250  12.254
34012W        W  553  24.946  13.709  13.017
34013W        W  554  11.213  37.540  11.511
34014W        W  555   0.051  32.439   1.323
34015W        W  556  18.040  38.416   4.357
34016W        W  557  25.181  40.036  13.554
34017W        W  558  21.558   4.142   4.073
34018W        W  559  18.307  44.381   4.628
34019W        W  560  14.590  10.152  13.837
34020W        W  561  31.988  13.068   1.845
34021W        W  562  12.281  36.561  10.869
34022W        W  563  11.842  30.997   2.181
34023W        W  564  17.262  43.919  13.940
34024W        W  565   7.364  35.673   1.679
34025W        W  566  23.675  37.479   0.801
34026W        W  567  18.130  36.739   0.721
34027W        W  568  21.590  27.440  11.497
34028W        W  569   4.386   8.825   1.463
34029W        W  570  44.043  39.424  14.909
34030W        W  571  10.448  15.157   0.334
34031W        W  572  24.413  14.637   2.167
34032W        W  573  20.626  15.775  14.908
34033W        W  574  37.939  40.523   3.428
34034W        W  575   1.261  10.294  12.364
34035W        W  576   4.613  38.562   5.138
34036W        W  577  31.486  12.105   3.679
34037W        W  578  28.416   5.431  10.932
34038W        W  579  17.395  19.170   2.332
34039W        W  580  33.669   2.406   2.229
34040W        W  581   0.920   5.118   0.490
34041W        W  582  41.277  37.329  14.297
34042W        W  583  33.413  17.176   3.125
34043W        W  584  33.930  21.267  10.451
34044W        W  585  24.774  42.461   3.131
34045W        W  586  18.300   0.447  12.148
34046W        W  587  29.099   0.844   4.013
34047W        W  588  39.270  40.291  10.435
34048W        W  589  23.879  23.497   4.458
34049W        W  590  37.483  13.536   2.429
34050W        W  591  35.077  42.272  10.605
34051W        W  592  17.531  41.780  14.594
34052W        W  593   3.101  43.133   1.868
34053W        W  594   6.223  14.223  10.689
34054W        W  595  44.928  17.629  13.436
34055W        W  596   4.272   7.331   3.256
34056W        W  597   1.126   1.923   0.765
34057W        W  598  21.182  21.953  12.030
34058W        W  599  34.877   0.595  11.153
34059W        W  600  20.594  19.702  14.731
34060W        W  601  17.769  12.697   3.849
34061W        W  602  27.708   9.473  11.245
34062W        W  603  36.115   7.344  11.538
34063W        W  604   3.025  27.124  12.457
34064W        W  605   2.875  19.646   4.512
34065W        W  606  38.083  30.109   3.300
34066W        W  607  31.140  28.218   3.203
34067W        W  608  23.783   0.275   1.274
34068W        W  609  24.730  39.423   3.228
34069W        W  610  11.749  22.481   0.519
34070W        W  611  39.595  14.700  11.951
34071W        W  612  15.642   6.286  13.024
34072W        W  613   4.706  33.371  12.543
34073W        W  614  16.725  44.271   3.371
34074W        W  615  30.698   1.298   3.250
34075W        W  616  35.871  24.136  13.981
34076W        W  617  26.531   5.904   4.506
34077W        W  618  15.321  41.821  10.865
34078W        W  619   8.272  33.450   3.720
34079W        W  620  25.708  38.972  11.069
34080W        W  621  40.656  11.854   3.170
34081W        W  622  39.797   1.117   0.468
34082W        W  623  12.119   4.654   0.416
34083W        W  624  25.531   5.270  11.954
34084W        W  625  27.962  17.383   4.006
34085W        W  626   6.347   8.384   3.084
34086W        W  627  26.612  10.525   1.369
34087W        W  628  23.307   9.194  11.118
34088W        W  629   0.962  16.622  12.024
34089W        W  630  12.845  30.528   0.569
34090W        W  631  43.361  18.967   1.044
34091W        W  632  11.712   7.357  11.661
34092W        W  633  42.240  36.979  12.301
34093W        W  634   3.700  36.035  10.520
34094W        W  635  26.256   2.833  11.085
34095W        W  636  28.073   9.346   2.715
34096W        W  637   0.074  15.243  11.598
34097W        W  638   6.523  19.743   3.739
34098W        W  639  14.098  19.017   0.739
34099W        W  640  32.947   6.709   2.208
34100W        W  641   9.244  23.900   0.459
34101W        W  642  34.997   3.109   3.800
34102W        W  643  15.182  32.672  13.393
34103W        W  644  38.036  29.152   4.177
34104W        W  645  29.625  31.207   2.359
34105W        W  646  21.717  42.599   1.297
34106W        W  647   1.320  11.373   1.278
34107W        W  648  36.092  18.387  12.715
34108W        W  649   1.044  15.381  11.396
34109W        W  650  43.857  21.858  11.064
34110W        W  651  26.968   7.795  10.520
34111W        W  652  18.548  35.018  14.790
34112W        W  653  26.568  34.337  14.463
34113W        W  654  41.874  36.406  10.752
34114W        W  655  30.711  28.783   2.358
34115W        W  656  41.618  28.050   4.499
34116W        W  657  36.976  38.489   1.641
34117W        W  658  27.095   5.316  10.733
34118W        W  659  23.981  36.570   1.282
34119W        W  660  12.577  34.991   3.582
34120W        W  661  41.563   3.894  14.245
34121W        W  662  18.288   3.930  13.587
34122W        W  663  41.736  19.749   0.905
34123W        W  664   6.261  33.658   2.376
34124W        W  665  21.351  30.996  13.545
34125W        W  666  17.911  18.242   4.778
34126W        W  667  37.836  12.214   2.450
34127W        W  668  32.674   1.295   2.273
34128W        W  669  44.923  36.117  13.933
34129W        W  670  20.770   6.132  10.188
34130W        W  671  29.453  18.688   1.321
34131W        W  672  12.072   6.338   3.739
34132W        W  673  22.632   2.146  13.062
34133W        W  674   4.969  15.137  10.242
34134W        W  675  28.484   3.677   4.107
34135W        W  676  42.874  43.471   3.122
34136W        W  677   0.179  18.670  12.607
34137W        W  678  35.061  22.502  13.086
34138W        W  679  18.687  31.378   2.155
34139W        W  680  27.615  11.666   3.776
34140W        W  681  19.669  36.896  14.792
34141W        W  682  21.071   9.903  14.783
34142W        W  683  24.621  28.368  13.043
34143W        W  684  26.136  36.592   4.183
34144W        W  685  44.278  21.681   1.259
34145W        W  686  11.695  30.970   1.672
34146W        W  687   5.225   9.791  10.567
34147W        W  688   6.217  31.722   2.827
34148W        W  689   5.210   2.045   3.118
34149W        W  690  14.394   7.044   9.833
34150W        W  691  21.306   7.356  11.562
34151W        W  692  14.383  39.880   4.331
34152W        W  693  32.687  16.782   1.956
34153W        W  694  29.579  15.872  10.284
34154W        W  695  35.878  14.776   4.108
34155W        W  696  25.968  34.457  10.732
34156W        W  697   1.180  42.315  13.313
34157W        W  698  44.076  33.005  12.543
34158W        W  699   6.691  27.144  14.419
34159W        W  700   6.326   7.914   3.346
34160W        W  701   8.646  38.216  13.465
34161W        W  702  40.941  31.122  14.819
34162W        W  703  38.921  11.101   3.255
34163W        W  704  18.603  31.704  12.336
34164W        W  705  43.579  29.392   3.743
34165W        W  706  10.748   3.730  12.084
34166W        W  707  33.150  25.394   4.071
34167W        W  708  24.745  11.703  14.770
34168W        W  709  15.016   7.741   3.228
34169W        W  710  36.558  40.768   4.882
34170W        W  711  13.593  12.767   1.410
34171W        W  712  30.889  19.125   0.392
34172W        W  713  32.504  33.553   3.078
34173W        W  714  30.916   8.173   2.680
34174W        W  715  33.886  31.432  13.566
34175W        W  716  43.971  19.722   3.317
34176W        W  717  41.502   5.697   3.309
34177W        W  718   2.778  43.738   2.492
34178W        W  719   4.218  18.395   4.580
34179W        W  720  29.614  15.263  10.933
34180W        W  721  38.451  35.605   0.880
34181W        W  722  35.512   8.868   0.243
34182W        W  723  11.638  15.164  13.100
34183W        W  724  16.615  27.089   3.714
34184W        W  725   4.672  22.039   0.418
34185W        W  726  17.522  12.082   0.353
34186W        W  727  40.307  16.969   2.261
34187W        W  728  31.008  28.049   0.991
34188W        W  729  21.231   0.463  14.039
34189W        W  730  32.125   0.935   3.332
34190W        W  731  11.704  37.426  11.629
34191W        W  732  31.275  25.450  10.219
34192W        W  733  44.656   7.664  12.593
34193W        W  734  39.488  11.162   2.846
34194W        W  735  31.672  27.324  14.290
34195W        W  736   9.758  16.496   3.274
34196W        W  737   5.950  28.912  11.657
34197W        W  738   9.319  44.703  14.564
34198W        W  739  19.933  33.437   0.007
34199W        W  740   7.356  35.860   4.623
34200W        W  741  44.838  29.827  14.621
34201W        W  742   0.699  44.929  11.163
34202W        W  743  35.138  43.623   1.414
34203W        W  744  19.433  43.418   0.889
34204W        W  745   7.905   2.658  11.112
34205W        W  746  36.969  37.598   3.731
34206W        W  747  40.576  31.534  14.197
34207W        W  748   7.291  29.572   2.139
34208W        W  749  17.813  13.697   3.398
34209W        W  750  34.737  14.631  13.842
34210W        W  751   3.985   9.006   1.196
34211W        W  752   7.455   2.931  13.139
34212W        W  753  11.502  16.515   0.773
34213W        W  754  19.587  17.546  13.577
34214W        W  755  24.807   9.327   3.612
34215W        W  756  12.544  18.032   0.435
34216W        W  757  13.356   8.274  12.879
34217W        W  758  10.099  19.620  11.510
34218W        W  759  38.425   1.059   2.796
34219W        W  760  36.944  11.962   2.763
34220W        W  761  36.448  38.398   4.622
34221W        W  762  23.603   5.462  13.583
34222W        W  763  35.348  39.468  13.454
34223W        W  764  26.251  41.355  14.513
34224W        W  765   0.842  32.134  11.616
34225W        W  766   6.760   1.712  13.409
34226W        W  767  33.395  28.221   2.688
34227W        W  768   4.802  23.611  14.804
34228W        W  769  39.877  37.381  11.242
34229W        W  770   4.755  24.457  11.847
34230W        W  771   8.729  33.988   0.471
34231W        W  772   5.284  19.832  10.998
34232W        W  773   8.915   9.899  12.698
34233W        W  774  40.769  37.506   3.732
34234W        W  775  29.437   2.744   4.273
34235W        W  776  22.967  24.157  12.557
34236W        W  777  33.101   5.359  13.272
34237W        W  778   0.564   0.526  10.479
34238W        W  779  27.679   8.896  13.536
34239W        W  780  10.872  16.429   2.593
34240W        W  781  12.930  20.976   4.404
34241W        W  782  36.159  18.001  11.082
34242W        W  783   7.324  31.344  11.980
34243W        W  784  43.596  20.539   2.396
34244W        W  785  15.208  23.523  11.791
34245W        W  786  15.715   5.463   0.472
34246W        W  787  31.644   7.135  14.058
34247W        W  788  13.633  26.434  12.530
34248W        W  789  28.231  35.090   1.989
34249W        W  790   0.882  41.830  10.741
34250W        W  791  39.954  12.148   5.417
34251W        W  792  18.954  33.354  13.943
34252W        W  793   1.271  22.056   0.918
34253W        W  794  20.081   4.745   1.159
34254W        W  795  36.634  14.073  13.168
34255W        W  796  19.839  12.065  11.955
34256W        W  797  11.975   0.797  10.998
34257W        W  798  11.595  37.920  11.473
34258W        W  799  23.649  35.366   1.371
34259W        W  800   8.969  37.465   0.437
34260W        W  801  11.506   0.846   2.109
34261W        W  802  15.016  14.285   0.786
34262W        W  803  34.144  15.745   0.488
34263W        W  804  25.975  26.123   0.756
34264W        W  805   1.247  23.203   0.226
34265W        W  806  44.312   8.082  14.423
34266W        W  807  14.983  22.712  10.283
34267W        W  808  10.794  25.935   1.726
34268W        W  809  24.165  17.387   0.308
34269W        W  810   3.992   5.853  10.767
34270W        W  811   9.235  24.608  11.586
34271W        W  812  33.958  32.628   1.359
34272W        W  813  16.187  13.739   2.930
34273W        W  814  22.739  31.544   4.583
34274W        W  815  33.838   6.866  10.850
34275W        W  816  35.840  21.116  13.499
34276W        W  817  44.493  19.798  14.794
34277W        W  818  31.157  40.965  12.831
34278W        W  819  29.156  28.122   1.079
34279W        W  820   0.525   7.722   3.660
34280W        W  821  29.789  21.623  12.530
34281W        W  822   4.312   0.466  14.724
34282W        W  823   7.726   6.820  14.979
34283W        W  824  17.214   8.454  11.618
34284W        W  825  35.474  40.993  14.251
34285W        W  826  27.124  37.569   1.315
34286W        W  827  22.698  39.899   4.317
34287W        W  828  41.045  42.019   1.630
34288W        W  829  27.604  20.682  14.560
34289W        W  830  43.319  16.445   2.269
34290W        W  831   5.986  37.804   1.364
34291W        W  832  38.652  30.004  12.875
34292W        W  833  28.456  13.316   1.439
34293W        W  834  21.472  34.780  12.469
34294W        W  835  25.523  28.663  13.614
34295W        W  836  15.702  38.212  10.570
34296W        W  837   6.056   2.771  14.353
34297W        W  838  21.529  19.337   2.306
34298W        W  839  19.770   9.696  14.469
34299W        W  840  17.159  25.862   3.502
34300W        W  841   5.058  40.268  13.348
34301W        W  842  39.408  14.669   2.857
34302W        W  843   2.702   3.342  13.080
34303W        W  844  12.178  35.696  13.896
34304W        W  845   5.920  26.483   1.290
34305W        W  846  17.298  27.182   3.088
34306W        W  847  44.822  35.389   4.150
34307W        W  848  12.294  43.087  12.541
34308W        W  849  41.049  17.051   3.400
34309W        W  850  35.807   5.832  12.863
34310W        W  851  11.170  23.160  10.938
34311W        W  852  39.067  42.584  14.777
34312W        W  853   0.245  32.391   2.683
34313W        W  854   1.234  14.522  13.796
34314W        W  855   3.355  18.411   4.442
34315W        W  856  33.272  20.099   1.947
34316W        W  857   8.935  41.213   3.357
34317W        W  858  21.234  12.761   0.354
34318W        W  859  12.462  43.012   2.986
34319W        W  860  34.573  42.061  13.020
34320W        W  861  41.410   7.356   1.973
34321W        W  862  27.982  40.661  12.570
34322W        W  863  39.969  15.349  11.486
34323W        W  864  22.092  13.740   9.524
34324W        W  865  23.594  17.983   4.634
34325W        W  866  42.885  18.427   3.744
34326W        W  867  34.970  29.516   4.207
34327W        W  868  42.469  33.803  14.750
34328W        W  869  14.114  25.339  13.717
34329W        W  870  19.105   9.621   2.709
34330W        W  871  10.941  27.723   1.903
34331W        W  872  43.285  25.430   2.342
34332W        W  873  35.719  12.047  13.082
34333W        W  874  23.734   7.006  12.943
34334W        W  875  13.377  37.421   1.873
34335W        W  876  25.738  21.812  13.587
34336W        W  877  27.127  28.064   0.964
34337W        W  878  20.480  41.293   1.401
34338W        W  879  10.811  10.055  13.896
34339W        W  880   7.692  41.030   1.229
34340W        W  881  20.784  37.645   0.338
34341W        W  882  19.121   8.760  10.531
34342W        W  883   1.497  36.989   0.260
34343W        W  884  31.873  10.333  11.455
34344W        W  885  19.578  32.442  10.668
34345W        W  886  24.808  44.551  11.723
34346W        W  887  39.414   8.281   0.969
34347W        W  888  12.181  25.984   1.897
34348W        W  889  44.536   9.835  11.599
34349W        W  890  32.460  22.251   0.748
34350W        W  891  32.316   7.202  10.643
34351W        W  892  34.520  32.589   2.417
34352W        W  893  18.068  11.411   4.559
34353W        W  894  43.235  39.001   4.437
34354W        W  895  25.914  19.596   3.202
34355W        W  896  43.823  36.328  14.355
34356W        W  897  35.832  37.499   3.141
34357W        W  898   9.686  20.230  11.882
34358W        W  899  18.788   3.638   5.035
34359W        W  900  38.811  30.811  12.032
34360W        W  901  11.661  29.820  14.521
34361W        W  902  44.000  28.259   9.779
34362W        W  903  38.553  21.317  12.986
34363W        W  904  17.790  40.196  12.542
34364W        W  905  41.937  30.142   3.174
34365W        W  906   0.393   6.781   4.583
34366W        W  907  38.944  36.069   4.482
34367W        W  908  39.042  20.246  14.021
34368W        W  909  39.436   0.827  13.729
34369W        W  910  12.331  15.702   2.618
34370W        W  911  14.652  20.095  11.447
34371W        W  912  20.116  36.891  11.479
34372W        W  913   4.430  25.077   4.486
34373W        W  914  33.084  38.324   1.385
34374W        W  915  11.607  19.070  13.012
34375W        W  916   6.961  17.201   2.657
34376W        W  917  15.085  34.992  14.472
34377W        W  918  21.697  11.942  10.687
34378W        W  919  44.249  41.956  12.799
34379W        W  920  34.100  31.446  11.414
34380W        W  921  41.808  17.041  13.099
34381W        W  922  13.104  23.081   1.820
34382W        W  923  15.115  42.394  11.954
34383W        W  924  31.068  34.969   4.429
34384W        W  925   2.620  12.583   3.160
34385W        W  926  27.885  35.957   0.393
34386W        W  927   7.754  19.583   2.106
34387W        W  928  20.787  38.326  14.453
34388W        W  929  28.717  16.888   2.403
34389W        W  930  41.596   3.862  13.723
34390W        W  931  33.588  26.520  12.925
34391W        W  932  22.128  12.155  11.791
34392W        W  933  24.490  27.079   4.946
34393W        W  934  34.866  30.929  10.975
34394W        W  935  11.841   8.598  10.494
34395W        W  936  31.396  17.638   0.257
34396W        W  937  18.224  28.095  12.049
34397W        W  938  16.879  18.735  12.482
34398W        W  939  27.498  21.129  10.433
34399W        W  940   6.907  12.049  11.062
34400W        W  941  32.815  15.270  14.278
34401W        W  942   6.940  44.361  13.021
34402W        W  943  25.772   6.458  13.676
34403W        W  944  29.143  16.208  11.322
34404W        W  945  28.033  34.006   0.295
34405W        W  946  34.836   5.730   4.116
34406W        W  947   7.876  38.382  13.070
34407W        W  948   1.930  32.029   2.622
34408W        W  949   5.106  18.787  12.519
34409W        W  950   0.086   1.390  12.608
34410W        W  951  32.118  31.263   0.062
34411W        W  952  19.254  16.247  13.443
34412W        W  953  18.416   4.792   1.675
34413W        W  954  10.097   6.469   1.161
34414W        W  955   9.899  30.180   1.302
34415W        W  956  20.646   9.200  14.734
34416W        W  957   2.498  13.655  11.064
34417W        W  958  18.847  44.590  14.471
34418W        W  959  18.996  37.563  10.254
34419W        W  960  19.770  23.794  12.003
34420W        W  961  38.277  10.895   2.833
34421W        W  962   2.755  26.071  11.649
34422W        W  963  16.027  20.055  13.045
34423W        W  964  42.524   4.752  13.069
34424W        W  965  31.573  13.014   0.659
34425W        W  966  25.675  23.800  14.347
34426W        W  967   5.244  33.456  10.714
34427W        W  968  29.876  22.069   4.186
34428W        W  969  39.400  12.100   1.012
34429W        W  970   4.689  15.385  10.639
34430W        W  971  35.138  35.049  13.620
34431W        W  972  19.283  41.405  11.639
34432W        W  973  26.053  35.823   4.831
34433W        W  974   0.419  10.158   1.880
34434W        W  975  20.785  15.513   2.607
34435W        W  976   7.729  27.596   4.047
34436W        W  977  16.173   4.170   2.721
34437W        W  978  41.265  13.858  12.537
34438W        W  979  31.145   9.924  13.197
34439W        W  980   6.311  26.277  14.036
34440W        W  981   3.905   1.632   1.747
34441W        W  982  12.116  29.164   4.622
34442W        W  983  26.686  42.735   3.111
34443W        W  984  27.720  36.560   2.164
34444W        W  985  24.626   9.602   4.769
34445W        W  986   1.738  27.975  12.801
34446W        W  987   0.762  32.523   2.663
34447W        W  988  30.447  35.195   1.883
34448W        W  989  10.730  24.124  12.418
34449W        W  990  19.826  37.088  13.021
34450W        W  991  13.606  16.206   3.811
34451W        W  992  37.420  35.804   2.317
34452W        W  993  31.948   8.257   3.609
34453W        W  994   2.512   5.712   3.433
34454W        W  995  20.214  26.775  12.848
34455W        W  996   9.678  21.659  13.542
34456W        W  997   6.735  31.333   3.334
34457W        W  998  19.253  36.870  10.651
34458W        W  999   5.777  25.311   2.672
34459W        W 1000  26.919  39.982  13.780
34460W        W 1001   0.453  13.618  13.726
34461W        W 1002   5.874  32.489   1.787
34462W        W 1003  31.493  34.835  12.263
34463W        W 1004  29.558  24.604  13.870
34464W        W 1005  41.839  24.528  13.859
34465W        W 1006  25.195   6.874   2.878
34466W        W 1007   8.426  15.120  13.548
34467W        W 1008  17.592   0.539  14.420
34468W        W 1009  24.777  23.204   0.485
34469W        W 1010  34.931   5.987   1.282
34470W        W 1011  12.419   6.287  12.848
34471W        W 1012  35.756  34.950  13.818
34472W        W 1013  15.110   0.796   2.467
34473W        W 1014  34.980  42.209  14.008
34474W        W 1015   3.530   7.194   0.651
34475W        W 1016  13.238  23.803  14.763
34476W        W 1017  15.192  34.911   3.167
34477W        W 1018  13.989  11.324  11.591
34478W        W 1019  37.517   6.305   0.161
34479W        W 1020  37.279  44.714   4.977
34480W        W 1021   2.022  40.076   2.871
34481W        W 1022  14.680  23.961   3.326
34482W        W 1023   7.791   1.423  10.478
34483W        W 1024  20.279   4.349  10.439
34484W        W 1025  27.024   9.918  11.880
34485W        W 1026  31.409  32.145  12.900
34486W        W 1027  39.798  37.580   1.945
34487W        W 1028  17.743   6.494  13.356
34488W        W 1029  36.230   4.423   2.274
34489W        W 1030  27.825   8.195   4.798
34490W        W 1031  22.948  18.169   1.829
34491W        W 1032  44.745  21.567  10.918
34492W        W 1033  40.372  38.990   2.338
34493W        W 1034  20.892   6.228   1.420
34494W        W 1035  11.663  41.430   2.716
34495W        W 1036  13.040  15.718  14.567
34496W        W 1037  36.049  42.898  14.537
34497W        W 1038   0.242  36.901   1.366
34498W        W 1039  16.549  24.569   0.528
34499W        W 1040  29.176  36.991   2.699
34500W        W 1041  23.455  37.576  14.926
34501W        W 1042  14.592   3.370   0.320
34502W        W 1043  10.893  21.653   0.635
34503W        W 1044   6.650   4.605   4.457
34504W        W 1045  43.685   5.890   2.302
34505W        W 1046   0.592   5.880  14.500
34506W        W 1047   9.193  35.481   4.437
34507W        W 1048  16.489  18.376  12.520
34508W        W 1049  43.719  29.926   0.961
34509W        W 1050  28.464  39.948   1.227
34510W        W 1051  19.052  27.725   4.451
34511W        W 1052  37.487  17.754  11.467
34512W        W 1053  18.717   8.262  13.822
34513W        W 1054  42.428   9.459   1.370
34514W        W 1055   8.855  29.321   0.027
34515W        W 1056  44.824   2.423  13.908
34516W        W 1057   7.438  11.817  12.652
34517W        W 1058  43.912  35.726  10.663
34518W        W 1059  23.040  26.560  11.969
34519W        W 1060   0.423   5.056   4.999
34520W        W 1061  43.201   4.403   2.150
34521W        W 1062  10.289  43.999   2.324
34522W        W 1063  15.625  23.271  11.562
34523W        W 1064   3.968  29.755   0.066
34524W        W 1065   4.505  36.401   4.415
34525W        W 1066  31.682   8.303  11.403
34526W        W 1067   6.414   3.209   2.746
34527W        W 1068  27.458  17.549   1.299
34528W        W 1069   3.742  41.665  11.018
34529W        W 1070  30.949   7.937  12.471
34530W        W 1071  17.797  35.538   0.158
34531W        W 1072   4.125  13.886  10.399
34532W        W 1073  27.089  34.308   4.821
34533W        W 1074   2.857  24.393  12.302
34534W        W 1075   2.897   3.211   1.791
34535W        W 1076  33.502  14.805  14.022
34536W        W 1077   7.856   0.881  11.213
34537W        W 1078   6.303  26.151  12.983
34538W        W 1079  27.937  19.768   1.179
34539W        W 1080  25.767   6.933  12.547
34540W        W 1081   1.138  40.225  12.001
34541W        W 1082  17.696  22.474   2.844
34542W        W 1083  11.119   8.884  13.404
34543W        W 1084   8.767  26.151   3.741
34544W        W 1085  32.913  23.159   0.803
34545W        W 1086  41.007   3.240   2.144
34546W        W 1087   5.935  16.757   3.387
34547W        W 1088  33.612  17.227   0.225
34548W        W 1089  35.580  31.780   4.127
34549W        W 1090  26.495  40.546  13.088
34550W        W 1091  32.634  27.782  14.468
34551W        W 1092  38.606  19.120  12.952
34552W        W 1093  29.150  42.290   2.895
34553W        W 1094  24.903   4.448   2.841
34554W        W 1095  34.615  13.102  11.134
34555W        W 1096  29.870  20.541   3.129
34556W        W 1097  10.513  12.347  12.214
34557W        W 1098   5.364  33.724   4.136
34558W        W 1099  10.689  25.475   4.641
34559W        W 1100   9.372  41.388   0.318
34560W        W 1101  14.407  41.939   4.056
34561W        W 1102  31.615  33.824  14.162
34562W        W 1103  19.071  32.240   2.306
34563W        W 1104   3.384  19.264   2.837
34564W        W 1105   9.425   7.654   3.664
34565W        W 1106   5.735  31.833  14.750
34566W        W 1107  35.943  24.734  13.433
34567W        W 1108  14.047   5.394   1.456
34568W        W 1109  29.697  32.176  14.848
34569W        W 1110  21.522  10.389   2.901
34570W        W 1111  23.511   2.931   1.238
34571W        W 1112   3.789  39.288   0.884
34572W        W 1113  36.370  15.941  13.269
34573W        W 1114  28.647   0.707  14.013
34574W        W 1115  44.929  23.883   0.075
34575W        W 1116  29.454  10.321  14.792
34576W        W 1117  15.513   7.940   3.328
34577W        W 1118  14.776  38.515   1.276
34578W        W 1119  28.957  35.515  14.176
34579W        W 1120  26.003  30.344   0.479
34580W        W 1121  34.617  12.690   1.915
34581W        W 1122  17.496   1.144   2.787
34582W        W 1123  10.170  36.908   2.673
34583W        W 1124  40.779  24.883  11.277
34584W        W 1125  22.053   6.102  14.146
34585W        W 1126  37.095  40.286   3.844
34586W        W 1127   7.940  37.298   5.420
34587W        W 1128  12.645  31.894   2.274
34588W        W 1129  19.802  25.748  12.033
34589W        W 1130  14.871  40.716   4.547
34590W        W 1131   2.523  39.472  12.993
34591W        W 1132  30.116  34.072  12.458
34592W        W 1133  27.162  43.843  14.341
34593W        W 1134  42.799   8.445  11.155
34594W        W 1135  43.997  14.340  12.977
34595W        W 1136  36.875  41.387   1.511
34596W        W 1137  13.019  31.134   1.428
34597W        W 1138   8.972  33.135  14.644
34598W        W 1139  31.325   2.035   4.614
34599W        W 1140  16.987  32.962   0.700
34600W        W 1141  40.730  17.450  11.179
34601W        W 1142  20.720   7.800  11.980
34602W        W 1143  10.175  34.118  12.589
34603W        W 1144  32.614  10.733   4.181
34604W        W 1145   2.292  35.665   4.816
34605W        W 1146  38.497   6.048  11.981
34606W        W 1147  44.512  40.469   3.308
34607W        W 1148   7.047   8.764   2.662
34608W        W 1149  44.996  19.550   4.222
34609W        W 1150  13.211  12.796  11.238
34610W        W 1151  22.977  43.539  13.472
34611W        W 1152  26.077  26.496   2.366
34612W        W 1153  32.829  23.450  11.169
34613W        W 1154  23.059  35.397   4.428
34614W        W 1155  19.213   7.013   0.467
34615W        W 1156   4.203   4.464   0.014
34616W        W 1157   8.256   0.417  13.745
34617W        W 1158  31.520   1.312  10.412
34618W        W 1159  42.605  14.965  10.313
34619W        W 1160  23.719  28.691   3.012
34620W        W 1161  39.539  34.327  12.077
34621W        W 1162  15.169  43.733  13.427
34622W        W 1163   8.354  36.584  14.808
34623W        W 1164   5.165  36.490  11.217
34624W        W 1165  44.170  13.181  13.827
34625W        W 1166  32.067  33.527  11.114
34626W        W 1167  17.124  34.446  12.923
34627W        W 1168  19.717  15.227  13.596
34628W        W 1169  16.369  36.503  14.975
34629W        W 1170  25.007  17.297  11.873
34630W        W 1171   9.453   2.941   4.325
34631W        W 1172  23.040  43.375   1.901
34632W        W 1173  15.035  14.853  14.406
34633W        W 1174   6.147   1.435   3.383
34634W        W 1175  22.240  31.186  12.611
34635W        W 1176  34.255  33.458   0.694
34636W        W 1177  25.147  39.464  10.602
34637W        W 1178  16.519  29.416   1.339
34638W        W 1179  40.782  37.969  11.571
34639W        W 1180  13.670  31.329  14.828
34640W        W 1181  44.696  39.415   1.932
34641W        W 1182  22.693  29.502  13.034
34642W        W 1183  20.472   5.880   2.686
34643W        W 1184  24.319  16.666  10.868
34644W        W 1185  19.081  22.221  12.813
34645W        W 1186   5.298  25.124   2.654
34646W        W 1187  40.239  36.069  11.306
34647W        W 1188  43.455   9.169  13.353
34648W        W 1189   1.986  38.121   1.935
34649W        W 1190  11.086   1.319   0.750
34650W        W 1191  12.309  24.187   2.253
34651W        W 1192   3.273  37.730   3.076
34652W        W 1193  23.407  27.093   0.906
34653W        W 1194  44.963  13.779   4.664
34654W        W 1195  24.163   7.250   1.256
34655W        W 1196  30.289  10.291   9.820
34656W        W 1197  39.535  16.152  11.015
34657W        W 1198  26.385  41.055  11.916
34658W        W 1199  40.475  44.302   2.802
34659W        W 1200  16.597  35.845   3.168
34660W        W 1201  13.916  35.154   1.793
34661W        W 1202   1.064  36.602   3.843
34662W        W 1203   4.333  30.922   0.226
34663W        W 1204   6.759  24.529   0.989
34664W        W 1205   1.947   4.964  13.652
34665W        W 1206   8.456  31.100   3.129
34666W        W 1207  28.458  31.600  14.560
34667W        W 1208  19.675  23.365  10.722
34668W        W 1209  26.286  27.158   1.692
34669W        W 1210  43.473  40.330  12.908
34670W        W 1211   0.704   2.819  14.675
34671W        W 1212  21.518  19.714   3.301
34672W        W 1213  29.335   3.488  11.588
34673W        W 1214  20.624  28.678  13.337
34674W        W 1215   1.192   0.533   0.089
34675W        W 1216  28.177  26.708  10.603
34676W        W 1217   9.687   9.536  12.167
34677W        W 1218  25.067  10.175   0.116
34678W        W 1219  21.750  10.077  12.541
34679W        W 1220   6.183  17.207   3.305
34680W        W 1221  21.647  25.370   1.146
34681W        W 1222  34.553  31.444  11.164
34682W        W 1223  31.401   6.793   3.695
34683W        W 1224  15.557   1.494   1.311
34684W        W 1225  12.235   0.894  14.526
34685W        W 1226  11.707   3.959  11.205
34686W        W 1227  14.377  35.490   3.929
34687W        W 1228  24.458  39.081  14.654
34688W        W 1229  16.733   5.250  12.151
34689W        W 1230  42.273  28.866   0.285
34690W        W 1231  28.105   5.519   0.173
34691W        W 1232  32.121  15.747   2.588
34692W        W 1233  38.572  22.108   2.302
34693W        W 1234   5.727  36.956  11.635
34694W        W 1235  42.163   0.464  13.806
34695W        W 1236  28.054   1.329  13.080
34696W        W 1237  13.308  13.872   1.905
34697W        W 1238  10.714  37.395   1.937
34698W        W 1239  21.599  21.172  12.895
34699W        W 1240  32.892  21.652   0.338
34700W        W 1241   0.370  37.288   0.150
34701W        W 1242   1.272  34.714  13.965
34702W        W 1243  20.469  20.158  12.631
34703W        W 1244  17.186  39.448   3.883
34704W        W 1245  43.949  27.715   3.212
34705W        W 1246  40.888  17.006   2.912
34706W        W 1247  27.865  38.574  11.001
34707W        W 1248  22.286  41.487  13.506
34708W        W 1249   8.330  31.789  12.585
34709W        W 1250   2.764  19.788   4.036
34710W        W 1251  21.292  30.393   3.243
34711W        W 1252  14.748   4.016   1.957
34712W        W 1253  15.357  18.264  14.852
34713W        W 1254   6.566  24.696   3.954
34714W        W 1255  11.182  25.468   1.052
34715W        W 1256   0.768  10.786  14.391
34716W        W 1257  31.501   2.624   4.126
34717W        W 1258  38.021  38.062  12.010
34718W        W 1259  28.489  23.954   2.886
34719W        W 1260  17.220  26.011  10.543
34720W        W 1261  43.739  34.532  13.856
34721W        W 1262   8.491  43.316  11.123
34722W        W 1263  24.705  39.906  14.445
34723W        W 1264  18.052  26.972  14.095
34724W        W 1265  38.087  22.684   1.437
34725W        W 1266  31.936  27.159  11.106
34726W        W 1267  21.038  37.995   0.020
34727W        W 1268  25.208  20.537   3.779
34728W        W 1269  42.888   3.317  12.065
34729W        W 1270  29.611  23.553  12.953
34730W        W 1271  10.710  30.419   2.164
34731W        W 1272  33.327  30.022   1.468
34732W        W 1273  15.687  36.709  11.968
34733W        W 1274  15.709   1.777   1.834
34734W        W 1275  23.265  22.980  13.089
34735W        W 1276  20.393  13.966   2.781
34736W        W 1277  15.812  32.218   0.972
34737W        W 1278  22.591  42.736   0.470
34738W        W 1279  33.218  15.229  13.911
34739W        W 1280  31.176  42.579   0.908
34740W        W 1281  24.595  33.529   3.408
34741W        W 1282  10.831  42.753   5.011
34742W        W 1283  14.681  12.983   3.197
34743W        W 1284  30.957  24.789  10.735
34744W        W 1285  26.762  13.184   3.854
34745W        W 1286  10.447  24.481   0.997
34746W        W 1287   5.660  40.242   4.724
34747W        W 1288   4.351  24.289  13.811
34748W        W 1289  33.642  41.282  14.801
34749W        W 1290  12.693  23.610   2.438
34750W        W 1291  37.647  43.963  11.104
34751W        W 1292  37.389  30.737   3.226
34752W        W 1293  39.858   0.168   1.330
34753W        W 1294  24.445  24.471   2.611
34754W        W 1295  15.181  27.928   3.657
34755W        W 1296  24.277  26.085  13.867
34756W        W 1297  35.385  22.062  12.485
34757W        W 1298  35.323  13.598  14.315
34758W        W 1299  21.583  29.751   0.883
34759W        W 1300  14.592  23.576  13.958
34760W        W 1301  19.174  12.573   5.418
34761W        W 1302  31.030  11.364  14.355
34762W        W 1303  26.389  29.661   0.465
34763W        W 1304  38.151  30.120  11.109
34764W        W 1305  27.515  18.722   4.529
34765W        W 1306   3.309  41.829   1.916
34766W        W 1307  23.184  20.510  14.946
34767W        W 1308  34.236   4.674   9.779
34768W        W 1309  19.230  19.734   1.196
34769W        W 1310  39.791  10.766   2.702
34770W        W 1311  24.569  33.493   0.655
34771W        W 1312   3.052  40.440  10.802
34772W        W 1313  13.761  38.346   1.170
34773W        W 1314  42.882  42.520   0.746
34774W        W 1315   4.540   7.647   2.012
34775W        W 1316  23.000  14.003   1.850
34776W        W 1317  14.798   8.390   1.562
34777W        W 1318   5.681  26.081  12.203
34778W        W 1319   2.782  32.405   1.216
34779W        W 1320   4.643  16.877  14.341
34780W        W 1321  41.982  16.731   2.372
34781W        W 1322   6.473   2.351  11.886
34782W        W 1323  33.010  12.358  11.485
34783W        W 1324   4.562  31.705  12.171
34784W        W 1325  41.718  24.976  12.092
34785W        W 1326  12.359  26.395   2.660
34786W        W 1327  40.026  30.666  10.825
34787W        W 1328  33.580  39.581   0.447
34788W        W 1329  23.732  28.625  11.003
34789W        W 1330  42.597   6.078  12.603
34790W        W 1331   4.918  34.084  14.183
34791W        W 1332  30.415   8.341   3.709
34792W        W 1333  18.646  43.802   4.588
34793W        W 1334  17.574   4.229  14.801
34794W        W 1335  30.107  43.837   1.718
34795W        W 1336  21.323  28.302   3.265
34796W        W 1337   3.760  10.644   2.373
34797W        W 1338  29.907   7.991  10.573
34798W        W 1339  35.064  24.701  10.701
34799W        W 1340  11.339  37.537  13.305
34800W        W 1341  35.571   8.191   4.517
34801W        W 1342   3.311   8.839   4.430
34802W        W 1343   4.285  18.336   3.073
34803W        W 1344  43.354  42.057   3.732
34804W        W 1345  32.532  42.711  14.970
34805W        W 1346  18.473  16.189  11.119
34806W        W 1347  35.124  18.763   4.109
34807W        W 1348   5.371  44.444  12.053
34808W        W 1349  14.316   2.037  11.648
34809W        W 1350   2.784  28.791   0.948
34810W        W 1351  24.498  16.709   0.125
34811W        W 1352  28.486  19.779  14.874
34812W        W 1353  31.091  23.798   3.625
34813W        W 1354  24.645  27.579  14.938
34814W        W 1355  38.388  36.340   3.820
34815W        W 1356  13.676  30.450   1.230
34816W        W 1357  38.952  28.906   1.314
34817W        W 1358  33.615  20.186  12.211
34818W        W 1359  11.737   2.883  12.081
34819W        W 1360   0.695  37.683  13.686
34820W        W 1361  39.404  31.601  11.448
34821W        W 1362   8.582  19.294  11.484
34822W        W 1363  41.015  12.837  14.509
34823W        W 1364  34.166  33.501  11.928
34824W        W 1365   7.777  27.735  13.061
34825W        W 1366  13.903   4.572   3.679
34826W        W 1367  29.004  17.576  13.447
34827W        W 1368  40.443  38.307   3.629
34828W        W 1369  39.889   2.539  13.055
34829W        W 1370  15.671   1.700  13.582
34830W        W 1371   1.211  28.705  10.216
34831W        W 1372  38.955  16.322   2.315
34832W        W 1373  14.578  29.533   0.292
34833W        W 1374  12.690   5.911   2.841
34834W        W 1375  39.298  36.171   3.542
34835W        W 1376  20.516  10.348  13.943
34836W        W 1377  34.885  29.853   4.582
34837W        W 1378  36.006  40.502   4.505
34838W        W 1379  43.719  12.220   0.539
34839W        W 1380  26.630  11.801   2.800
34840W        W 1381  40.019   9.177  11.715
34841W        W 1382  37.053  39.981  14.394
34842W        W 1383  28.518  10.384   0.336
34843W        W 1384  26.917  22.694   4.252
34844W        W 1385   5.228  27.168   1.429
34845W        W 1386  12.218   1.396   2.276
34846W        W 1387  10.288  15.666  11.053
34847W        W 1388   6.295  15.832   1.417
34848W        W 1389  22.431   0.239  14.911
34849W        W 1390  41.884   8.848  11.475
34850W        W 1391  11.832  19.821  10.708
34851W        W 1392   9.085   2.837  10.668
34852W        W 1393  15.574  17.404  11.057
34853W        W 1394  32.529  19.774   4.637
34854W        W 1395  10.195  38.057  10.399
34855W        W 1396   4.610  16.540  11.220
34856W        W 1397  14.213  27.074  14.018
34857W        W 1398  36.468  27.005   2.951
34858W        W 1399  14.332  32.384   1.713
34859W        W 1400  16.400  27.279  10.832
34860W        W 1401   3.647  40.880  11.930
34861W        W 1402   7.038   0.449  10.213
34862W        W 1403  10.806  26.158   2.192
34863W        W 1404  28.351  19.916  10.003
34864W        W 1405  35.554  40.441   2.379
34865W        W 1406  34.710  40.212  12.464
34866W        W 1407  44.126   8.793   4.701
34867W        W 1408  38.803   4.738  13.554
34868W        W 1409  17.331  23.772   3.872
34869W        W 1410  25.187  18.626  10.725
34870W        W 1411  38.994  11.450  13.765
34871W        W 1412  33.407  23.816  11.952
34872W        W 1413   2.671  14.412   0.675
34873W        W 1414  43.913   4.798   0.799
34874W        W 1415  41.008  23.407   0.924
34875W        W 1416  12.652  15.846   4.101
34876W        W 1417   7.346  43.990  10.803
34877W        W 1418  30.657  33.115   3.644
34878W        W 1419  16.754  12.183  14.318
34879W        W 1420  12.608   8.335  14.714
34880W        W 1421  24.291  19.173   4.688
34881W        W 1422   1.578  41.447   2.835
34882W        W 1423  20.489  37.482  14.960
34883W        W 1424   0.209  15.104  14.933
34884W        W 1425  42.437  19.610   3.273
34885W        W 1426   1.481  42.245   1.582
34886W        W 1427  43.268   2.414  12.186
34887W        W 1428  26.944   3.142  14.883
34888W        W 1429  17.779  17.058   1.860
34889W        W 1430  14.830   4.810  14.985
34890W        W 1431  25.793  31.613  12.839
34891W        W 1432  33.752  43.179   0.704
34892W        W 1433  10.416  22.520  14.473
34893W        W 1434  17.638  32.553  13.319
34894W        W 1435  10.280  21.714  10.512
34895W        W 1436  32.665  17.086   2.369
34896W        W 1437   3.258  31.858   2.198
34897W        W 1438  38.765   3.550   1.232
34898W        W 1439  38.513  31.609  12.532
34899W        W 1440  35.101  37.844  11.082
34900W        W 1441  38.077  38.127   3.292
34901W        W 1442  33.024  29.108  10.555
34902W        W 1443  13.380  11.675   4.927
34903W        W 1444   8.126  15.222   3.562
34904W        W 1445  34.540  34.977  12.370
34905W        W 1446  12.395  12.704   0.963
34906W        W 1447  16.585  29.508  12.856
34907W        W 1448  30.943  21.679   4.548
34908W        W 1449  14.172  17.033  13.353
34909W        W 1450  26.480  20.996  11.484
34910W        W 1451  21.962  38.480  11.092
34911W        W 1452  41.655  25.019   1.944
34912W        W 1453  25.689  18.690   4.603
34913W        W 1454  30.956  26.202   3.153
34914W        W 1455   5.891   0.563  10.682
34915W        W 1456  18.291  32.074  11.448
34916W        W 1457  14.191  41.867   1.393
34917W        W 1458  31.899  10.899   0.264
34918W        W 1459   8.232   9.458   3.472
34919W        W 1460   5.223  37.869  14.966
34920W        W 1461  27.147  10.145   4.510
34921W        W 1462  38.355  25.167   4.216
34922W        W 1463  15.189  20.273   3.302
34923W        W 1464  16.605  33.507   1.464
34924W        W 1465   0.813  29.830   1.316
34925W        W 1466  36.958   1.011  12.491
34926W        W 1467  42.427  37.238  14.747
34927W        W 1468  18.880   2.966   2.746
34928W        W 1469   6.233   4.158   2.800
34929W        W 1470  24.103  30.606   3.879
34930W        W 1471  26.541  25.851  13.043
34931W        W 1472  19.772   9.861  11.604
34932W        W 1473  22.156  41.987   3.684
34933W        W 1474   0.967   5.287   4.199
34934W        W 1475  23.288  19.471   3.133
34935W        W 1476   9.728  28.111   1.292
34936W        W 1477  27.559   3.863  11.292
34937W        W 1478  34.101  14.325  14.300
34938W        W 1479  36.582   3.744   2.003
34939W        W 1480  39.610  30.415  11.009
34940W        W 1481  13.822  27.618  12.863
34941W        W 1482  24.047  39.355  14.990
34942W        W 1483  40.573  33.975   1.235
34943W        W 1484  13.034  24.530  12.614
34944W        W 1485  12.923  25.546  14.873
34945W        W 1486  42.163  25.471   4.667
34946W        W 1487   8.082  39.493   0.393
34947W        W 1488  38.086   3.958  14.821
34948W        W 1489  22.985   6.403  14.271
34949W        W 1490  38.372  28.059   3.755
34950W        W 1491   5.435   9.963   4.604
34951W        W 1492  40.563  28.674   1.312
34952W        W 1493   5.643  13.303   0.639
34953W        W 1494  18.949  21.132  12.399
34954W        W 1495  25.645  40.491   1.834
34955W        W 1496  44.499  24.413   4.963
34956W        W 1497  28.987  13.039   1.682
34957W        W 1498  10.300  25.258   0.535
34958W        W 1499  38.327  37.735   0.530
34959W        W 1500  17.339  44.501   1.631
34960W        W 1501  13.485  19.276   4.761
34961W        W 1502  41.246  14.643   1.764
34962W        W 1503  24.125  23.888  10.507
34963W        W 1504  18.779  26.864   4.249
34964W        W 1505  29.602  21.476   2.851
34965W        W 1506  42.493  24.682  11.330
34966W        W 1507  29.956  43.555   2.452
34967W        W 1508  44.335   7.496   2.835
34968W        W 1509   8.205  34.218  12.546
34969W        W 1510  39.039  10.731  14.355
34970W        W 1511  36.386  22.166  14.470
34971W        W 1512  37.114   2.371   3.605
34972W        W 1513  28.738  12.578   2.337
34973W        W 1514   4.460  44.895  11.432
34974W        W 1515  35.538  14.366  13.753
34975W        W 1516   1.671  22.764   0.013
34976W        W 1517  26.187  33.421  13.256
34977W        W 1518  42.847  37.586   2.441
34978W        W 1519   7.797  39.789   3.656
34979W        W 1520  21.288  43.238   2.364
34980W        W 1521  14.160  34.027   1.560
34981W        W 1522  19.268  32.619   4.098
34982W        W 1523  29.237  31.064  14.363
34983W        W 1524  15.985   8.402  14.660
34984W        W 1525  30.743  15.257   5.318
34985W        W 1526  29.541  24.293  14.283
34986W        W 1527  27.397   1.837  11.460
34987W        W 1528  37.101  23.166   3.179
34988W        W 1529  35.145  34.917  12.604
34989W        W 1530   5.800  20.243  13.906
34990W        W 1531  26.661  10.747   4.156
34991W        W 1532   1.345  28.017  10.663
34992W        W 1533  30.859   4.233  12.855
34993W        W 1534  15.656  11.354  14.515
34994W        W 1535  15.382  21.687   1.003
34995W        W 1536  23.255  34.601  12.482
34996W        W 1537  44.567  19.539   3.934
34997W        W 1538  20.214  32.880  14.399
34998W        W 1539  33.050  27.947   1.396
34999W        W 1540  20.129  12.987   4.090
35000W        W 1541  27.374  22.982   0.811
35001W        W 1542  11.359  26.722  12.100
35002W        W 1543  11.071  16.044   2.881
35003W        W 1544  33.137  27.430  10.896
35004W        W 1545  28.028  39.904  10.202
35005W        W 1546  10.404  34.589  14.317
35006W        W 1547  37.837   4.371   3.173
35007W        W 1548  41.281   6.315   4.710
35008W        W 1549  18.673  44.396   1.289
35009W        W 1550  18.622   7.997   0.739
35010W        W 1551  15.695   5.516   2.814
35011W        W 1552   2.439  44.443   2.708
35012W        W 1553  31.837  17.307   1.093
35013W        W 1554   9.163   0.991  12.314
35014W        W 1555  14.817  28.733   0.725
35015W        W 1556  29.493  29.132  14.426
35016W        W 1557   5.820  24.576   2.908
35017W        W 1558  23.706  31.385  10.597
35018W        W 1559  27.414  37.333   0.729
35019W        W 1560  20.144   5.467   1.773
35020W        W 1561  27.728  11.353   1.704
35021W        W 1562  15.890  40.539   2.225
35022W        W 1563  37.709  41.867  14.383
35023W        W 1564   9.803  32.930  13.921
35024W        W 1565  33.500   8.897  14.885
35025W        W 1566  36.731  30.432   2.248
35026W        W 1567  25.926   6.645   4.150
35027W        W 1568  27.460  22.761  11.883
35028W        W 1569   6.763   9.390  14.511
35029W        W 1570  31.981  37.326  10.704
35030W        W 1571  38.362  18.739   3.672
35031W        W 1572  35.801  40.522  14.844
35032W        W 1573  24.734  35.578   1.364
35033W        W 1574   8.728  32.073   3.257
35034W        W 1575  22.106  18.458   3.636
35035W        W 1576   6.764  42.725   4.806
35036W        W 1577  16.439  43.326   4.644
35037W        W 1578  21.172  14.603  12.833
35038W        W 1579  16.652   1.933  11.710
35039W        W 1580  39.863  26.217  12.985
35040W        W 1581  14.611  16.802   4.542
35041W        W 1582   5.050  23.461   4.718
35042W        W 1583  29.699  42.949  11.146
35043W        W 1584  35.322  25.519  13.850
35044W        W 1585  12.656  40.782  11.002
35045W        W 1586  31.597  34.061  10.606
35046W        W 1587   2.202  13.554  14.773
35047W        W 1588  18.253  35.773   4.194
35048W        W 1589  42.972  41.570  12.452
35049W        W 1590  16.401  36.399  12.928
35050W        W 1591   0.892  14.026  11.100
35051W        W 1592   6.772  10.897  14.502
35052W        W 1593   2.886  43.008  13.523
35053W        W 1594  40.975  33.020   3.683
35054W        W 1595   4.791   4.345  14.874
35055W        W 1596   9.667  13.611   3.280
35056W        W 1597   8.615   8.384   3.865
35057W        W 1598  21.060   7.650   3.188
35058W        W 1599   9.274  20.575   1.064
35059W        W 1600  20.220  20.222  13.082
35060W        W 1601  35.494  40.424   4.425
35061W        W 1602  39.944   9.754  14.016
35062W        W 1603  44.734   5.374   4.579
35063W        W 1604  30.524   9.500   5.010
35064W        W 1605  22.980  36.412  13.289
35065W        W 1606  19.553  26.028   1.874
35066W        W 1607  42.064  29.962   1.317
35067W        W 1608  31.181  34.041  11.153
35068W        W 1609  37.375  43.767   1.954
35069W        W 1610   2.935  27.630   0.264
35070W        W 1611  11.149  22.211   2.312
35071W        W 1612  27.426  13.719  14.381
35072W        W 1613   5.034  44.864   3.673
35073W        W 1614  33.479   9.235   2.607
35074W        W 1615  20.977  20.834  14.500
35075W        W 1616   9.860  42.404  10.584
35076W        W 1617  28.088   6.948   3.752
35077W        W 1618  14.746  31.180  12.893
35078W        W 1619  25.257  27.994   3.379
35079W        W 1620  12.322   2.472   4.525
35080W        W 1621  12.515  33.532   4.900
35081W        W 1622   9.845  44.020  14.371
35082W        W 1623  14.294  19.883   3.660
35083W        W 1624  10.172  36.452  11.529
35084W        W 1625  38.332   9.242   1.814
35085W        W 1626  40.380  38.097   0.422
35086W        W 1627   6.082   1.268   4.986
35087W        W 1628  13.274  18.531  12.430
35088W        W 1629  22.713   2.963   4.611
35089W        W 1630  36.030  11.089   2.665
35090W        W 1631   9.166  45.000   3.731
35091W        W 1632   4.297  32.572  13.041
35092W        W 1633  35.947  14.964  12.796
35093W        W 1634  36.509   6.764  14.795
35094W        W 1635  24.259  11.777  11.718
35095W        W 1636  35.545   8.800   1.850
35096W        W 1637  12.880   0.256  10.868
35097W        W 1638  38.838   6.785   0.255
35098W        W 1639  22.279   7.084   5.004
35099W        W 1640   5.151  41.353  14.769
35100W        W 1641  20.079  41.973  13.868
35101W        W 1642  25.704  25.257  10.345
35102W        W 1643  21.262   2.537   1.735
35103W        W 1644  20.583   6.605  14.267
35104W        W 1645   3.384  41.528  12.458
35105W        W 1646  34.949  40.087  11.141
35106W        W 1647  35.904  24.254  14.861
35107W        W 1648  10.924  15.929   2.384
35108W        W 1649  20.110  11.441  10.717
35109W        W 1650   2.724  23.263   3.254
35110W        W 1651   4.145   6.391   1.920
35111W        W 1652  21.164   2.723   0.407
35112W        W 1653  21.059  38.458  13.385
35113W        W 1654  11.304  36.555   0.164
35114W        W 1655  26.699  43.428   3.679
35115W        W 1656  11.352   7.719  11.554
35116W        W 1657  14.997  21.419  14.403
35117W        W 1658  16.602  28.645   2.816
35118W        W 1659  33.629  18.384   2.212
35119W        W 1660   4.917  42.448   0.391
35120W        W 1661  27.375  15.566   3.207
35121W        W 1662  21.490  19.662   1.889
35122W        W 1663  42.773  20.177   3.404
35123W        W 1664  44.734  31.005   3.183
35124W        W 1665  44.285  31.635  13.842
35125W        W 1666  27.285  25.529   3.246
35126W        W 1667  29.495  35.901  10.902
35127W        W 1668  36.000   8.344   3.618
35128W        W 1669   2.283  28.371   5.159
35129W        W 1670  32.756  38.931  11.979
35130W        W 1671   4.549  20.925   4.910
35131W        W 1672  14.300  33.812   3.437
35132W        W 1673  43.994  10.705  11.206
35133W        W 1674  42.983  35.522   3.069
35134W        W 1675   0.867  14.610   1.905
35135W        W 1676  41.941  15.376  11.257
35136W        W 1677  38.328  13.723   2.188
35137W        W 1678  25.907  11.350  13.245
35138W        W 1679  32.391   1.719  13.913
35139W        W 1680  14.385  42.843   2.492
35140W        W 1681  35.085   1.494  11.972
35141W        W 1682  37.556  10.437  12.588
35142W        W 1683   2.387  35.040  14.324
35143W        W 1684  35.622   9.801   4.881
35144W        W 1685  36.401  11.664  14.776
35145W        W 1686  33.487  32.992  10.778
35146W        W 1687   3.226  17.323   3.198
35147W        W 1688  34.700  16.577  13.422
35148W        W 1689  14.140   8.813  12.008
35149W        W 1690  25.025  24.871  10.809
35150W        W 1691   2.475  26.879  11.256
35151W        W 1692   3.612  19.028  11.165
35152W        W 1693  40.317  35.565  11.476
35153W        W 1694  22.797   6.280   0.278
35154W        W 1695  10.910  34.636  13.076
35155W        W 1696  43.457  24.941   3.156
35156W        W 1697  16.151  35.845   0.432
35157W        W 1698   1.795  38.644   2.863
35158W        W 1699  16.513   3.348  13.590
35159W        W 1700  42.858  19.743   1.426
35160W        W 1701  22.131   3.991  12.877
35161W        W 1702  43.280  38.547   4.707
35162W        W 1703  42.062  23.493   4.594
35163W        W 1704  12.750  20.065   2.305
35164W        W 1705  15.251  11.940  11.852
35165W        W 1706  19.197  38.445  11.238
35166W        W 1707  21.044  39.276  14.028
35167W        W 1708   8.172   4.765   1.927
35168W        W 1709  27.015  15.106   4.089
35169W        W 1710  11.444  35.100  14.360
35170W        W 1711  29.546  34.080   3.835
35171W        W 1712   2.037  32.168   4.462
35172W        W 1713  27.195  35.682  12.061
35173W        W 1714  39.872   4.775   0.549
35174W        W 1715  30.040   6.028  12.428
35175W        W 1716  37.756   6.198  14.506
35176W        W 1717  20.742   0.750  14.969
35177W        W 1718  23.293  15.835  10.155
35178W        W 1719  19.810  11.060   1.415
35179W        W 1720  34.039   4.380  13.051
35180W        W 1721  43.683  30.161  11.616
35181W        W 1722   6.794  32.646   0.515
35182W        W 1723  37.740  29.698   3.312
35183W        W 1724  33.810  11.264  11.634
35184W        W 1725   4.856  33.004   3.896
35185W        W 1726  19.297  36.494  12.481
35186W        W 1727   5.931  25.761   3.724
35187W        W 1728   7.333  42.697  12.715
35188W        W 1729  22.839   1.821   1.286
35189W        W 1730  35.917  30.497  11.989
35190W        W 1731   3.464   8.213  10.746
35191W        W 1732   1.041  12.333   4.002
35192W        W 1733  26.005   5.368   4.988
35193W        W 1734  41.970  24.139   1.109
35194W        W 1735   5.720  14.625   2.354
35195W        W 1736  29.445  35.679   4.583
35196W        W 1737  19.752  44.066   3.792
35197W        W 1738  44.971  15.393   1.217
35198W        W 1739  41.514  28.668   2.865
35199W        W 1740  11.535  37.784   2.830
35200W        W 1741  18.010   1.820  13.128
35201W        W 1742  44.058  39.605  12.631
35202W        W 1743  14.134  15.768   0.353
35203W        W 1744  30.553   9.981  10.202
35204W        W 1745  29.559  30.139  13.373
35205W        W 1746  17.060  37.356   4.150
35206W        W 1747  34.849  36.339   3.811
35207W        W 1748  41.358   2.551  12.878
35208W        W 1749  36.379   5.236   5.037
35209W        W 1750  42.717  24.577   2.850
35210W        W 1751  38.028  34.501  14.067
35211W        W 1752  19.878  34.163   0.530
35212W        W 1753  12.447  10.683  11.063
35213W        W 1754  17.774  11.919  11.732
35214W        W 1755  26.402  20.768  14.088
35215W        W 1756  16.587  12.025   2.277
35216W        W 1757  26.917  14.198   4.101
35217W        W 1758  24.486  39.304  11.567
35218W        W 1759  10.269  23.924  12.534
35219W        W 1760  31.057  17.429  11.363
35220W        W 1761  13.711  27.925  14.155
35221W        W 1762  40.566  41.390   3.226
35222W        W 1763  20.641  41.834  14.733
35223W        W 1764  12.551  30.959   0.995
35224W        W 1765  21.423  34.997   1.262
35225W        W 1766  20.235  31.036  11.400
35226W        W 1767   1.229   3.221   0.901
35227W        W 1768  15.309  30.024   2.894
35228W        W 1769   6.412   5.786  14.960
35229W        W 1770   8.208  12.655  14.774
35230W        W 1771  19.760  26.244   4.236
35231W        W 1772  13.647  39.058   0.856
35232W        W 1773  18.997  33.855  14.811
35233W        W 1774  27.954   5.451   4.049
35234W        W 1775  29.162   3.213   2.246
35235W        W 1776  24.172  11.799   2.711
35236W        W 1777  34.064  33.102  13.471
35237W        W 1778  39.936  20.091  11.192
35238W        W 1779   6.217   1.447  14.388
35239W        W 1780   0.191  12.745   0.706
35240W        W 1781  30.683   0.092   4.646
35241W        W 1782  40.399  39.077  10.947
35242W        W 1783  35.543   7.223   2.196
35243W        W 1784  27.397  44.759  11.634
35244W        W 1785  27.661  11.964  10.506
35245W        W 1786  17.120  10.885   4.550
35246W        W 1787  17.331  40.546  14.028
35247W        W 1788   8.167  20.549   4.342
35248W        W 1789  19.261  32.099   1.822
35249W        W 1790   4.380   3.699  11.504
35250W        W 1791  39.491  26.897   4.717
35251W        W 1792  13.999  31.714  11.558
35252W        W 1793  42.990   7.535  12.852
35253W        W 1794   8.658   0.505  14.422
35254W        W 1795  25.939  31.628  11.083
35255W        W 1796   6.972  10.350   2.233
35256W        W 1797  38.850  15.803   4.169
35257W        W 1798  37.310   8.674   3.726
35258W        W 1799  41.637  42.284   0.309
35259W        W 1800  20.720  14.603   0.296
35260W        W 1801  24.778   5.281  13.837
35261W        W 1802  20.812   7.694  13.462
35262W        W 1803  26.229  19.610  12.513
35263W        W 1804  42.023  25.593  13.297
35264W        W 1805  42.484  30.372   0.248
35265W        W 1806  15.199   9.711   4.802
35266W        W 1807  38.093  23.114   3.132
35267W        W 1808  24.579  21.054   3.481
35268W        W 1809  31.209   3.315   2.452
35269W        W 1810  17.870  18.073  11.799
35270W        W 1811  32.244  21.862   4.115
35271W        W 1812  39.903  16.568   3.217
35272W        W 1813  30.013  22.558  14.231
35273W        W 1814  31.034  25.240  13.435
35274W        W 1815  36.781  26.953   0.321
35275W        W 1816  32.535   7.652   1.921
35276W        W 1817  43.990  14.291  11.041
35277W        W 1818  23.001  23.188   4.192
35278W        W 1819  23.097  30.064  14.639
35279W        W 1820  12.415  39.994   4.512
35280W        W 1821  37.991   7.977   1.769
35281W        W 1822   3.154  40.697  12.561
35282W        W 1823   2.408  41.068  12.352
35283W        W 1824   2.860  44.772  12.401
35284W        W 1825  38.498  29.212   0.620
35285W        W 1826  33.844  11.815  11.211
35286W        W 1827  22.443  41.847   1.417
35287W        W 1828  41.923  27.929  13.752
35288W        W 1829  33.845   9.940   0.252
35289W        W 1830  42.246  30.637  14.438
35290W        W 1831  26.103  28.708   4.591
35291W        W 1832  11.926  20.951  12.974
35292W        W 1833  34.427   2.849  13.809
35293W        W 1834  39.099   3.494   0.387
35294W        W 1835  38.850  42.777   1.410
35295W        W 1836   2.465  28.383   0.899
35296W        W 1837  13.884  32.178  10.718
35297W        W 1838  44.530  17.826   3.840
35298W        W 1839  18.195  23.036  13.916
35299W        W 1840  12.747  28.354  14.367
35300W        W 1841  28.005   8.428  14.180
35301W        W 1842  16.885   9.737   1.943
35302W        W 1843  17.509  20.569   0.801
35303W        W 1844  44.366   9.116   1.711
35304W        W 1845   3.928  32.708   0.454
35305W        W 1846  34.882  42.453   4.606
35306W        W 1847  16.704  16.661  12.558
35307W        W 1848  12.216  13.627  13.779
35308W        W 1849   7.139  37.900  14.464
35309W        W 1850  26.648  28.100  12.627
35310W        W 1851  13.713  41.814   1.138
35311W        W 1852  40.993  30.635  12.580
35312W        W 1853  23.731  29.092  14.415
35313W        W 1854  44.935  35.839  13.510
35314W        W 1855  11.080  12.262  11.667
35315W        W 1856  41.555  29.636   1.893
35316W        W 1857  40.883   2.326   1.281
35317W        W 1858  28.836   5.882   3.791
35318W        W 1859  37.791  27.547  14.961
35319W        W 1860  19.951  16.983   2.637
35320W        W 1861  25.094  17.579  14.337
35321W        W 1862   9.842  35.371  14.903
35322W        W 1863  38.530  36.282  11.700
35323W        W 1864  13.221  42.355   2.623
35324W        W 1865  18.150  35.558  12.689
35325W        W 1866  37.596  30.553   4.106
35326W        W 1867  32.861   2.338   0.920
35327W        W 1868   1.762  30.473   1.764
35328W        W 1869   1.248   8.451  14.559
35329W        W 1870  21.802  15.693  12.489
35330W        W 1871  18.549  10.290  10.791
35331W        W 1872  12.308  34.263  12.112
35332W        W 1873  18.976  15.163  14.245
35333W        W 1874  43.537  40.815  10.376
35334W        W 1875   6.840  37.273   2.919
35335W        W 1876  21.852  14.184   3.175
35336W        W 1877  37.073   3.301   3.680
35337W        W 1878   6.639  38.584  13.587
35338W        W 1879  26.140  25.184   1.909
35339W        W 1880  21.563  40.146  13.380
35340W        W 1881  32.150  37.531  14.873
35341W        W 1882  30.236  32.414   1.261
35342W        W 1883  15.617  28.574  11.696
35343W        W 1884  15.363   1.792  12.517
35344W        W 1885   0.896  24.991  14.211
35345W        W 1886   1.923  17.725  11.330
35346W        W 1887   5.056  34.546  11.870
35347W        W 1888  37.846  37.412  14.476
35348W        W 1889  38.759  35.104  14.314
35349W        W 1890  36.291  43.429  12.122
35350W        W 1891  43.121  17.619   2.813
35351W        W 1892  36.521  43.488   4.137
35352W        W 1893  27.218   0.019   2.413
35353W        W 1894  16.652  38.467  12.485
35354W        W 1895  29.833  39.590   1.763
35355W        W 1896   7.455  18.059   1.811
35356W        W 1897  36.033   7.225   4.438
35357W        W 1898   0.041  29.073   3.854
35358W        W 1899  30.321  23.199   4.360
35359W        W 1900  24.940  20.228  12.186
35360W        W 1901  17.225  32.589  10.993
35361W        W 1902  27.975   9.828   3.880
35362W        W 1903  31.681  40.967  12.697
35363W        W 1904  29.170  25.617  13.925
35364W        W 1905   3.883  28.903   3.602
35365W        W 1906  43.053  14.760  10.124
35366W        W 1907  37.195   3.606  11.538
35367W        W 1908  12.623   8.297   4.811
35368W        W 1909  24.692  34.549  13.269
35369W        W 1910   2.744  23.160  12.847
35370W        W 1911  20.180  16.718  11.540
35371W        W 1912  42.403  36.450  11.658
35372W        W 1913   4.416  20.019   4.760
35373W        W 1914  35.823  31.089  10.572
35374W        W 1915  21.121   7.912   2.240
35375W        W 1916  19.651  16.832  14.049
35376W        W 1917  12.054   4.726  10.109
35377W        W 1918  44.958   3.909   0.823
35378W        W 1919  40.210  24.098  10.898
35379W        W 1920  21.724   5.734  14.553
35380W        W 1921  12.156  18.124  14.963
35381W        W 1922  30.065  39.137  10.674
35382W        W 1923  26.162  22.973   4.749
35383W        W 1924  15.098  36.366   0.853
35384W        W 1925  32.617  41.564   3.804
35385W        W 1926   7.746   7.872  13.395
35386W        W 1927  43.779  39.179  12.741
35387W        W 1928  41.739   4.767  12.772
35388W        W 1929  14.311  27.878  12.983
35389W        W 1930  12.605  26.065   4.332
35390W        W 1931  35.457  24.192   3.886
35391W        W 1932   3.260  40.814   0.247
35392W        W 1933  25.291  35.635   0.208
35393W        W 1934  12.808  24.368   3.669
35394W        W 1935   8.196  19.732   1.852
35395W        W 1936  30.238  10.686  11.201
35396W        W 1937  34.439  19.836  12.038
35397W        W 1938  17.187  22.727   0.545
35398W        W 1939   0.237  27.881  11.186
35399W        W 1940  22.638  36.126   1.683
35400W        W 1941   2.449  19.724   0.986
35401W        W 1942  25.039  26.869  10.645
35402W        W 1943  34.097  44.350   4.840
35403W        W 1944  44.425   7.235   3.278
35404W        W 1945  40.217  16.382  11.491
35405W        W 1946  22.438   1.331  12.001
35406W        W 1947  15.157  21.319  11.703
35407W        W 1948  27.524  16.021   4.252
35408W        W 1949   1.500  32.129   2.331
35409W        W 1950  13.326  20.619  10.686
35410W        W 1951  14.277  14.025   4.719
35411W        W 1952  37.536  17.044  14.980
35412W        W 1953  14.389  17.337  10.572
35413W        W 1954   8.460  12.310   4.329
35414W        W 1955  30.599   2.852   1.075
35415W        W 1956  22.665  21.739   0.063
35416W        W 1957  16.873  39.310  11.572
35417W        W 1958   9.353   9.755   1.361
35418W        W 1959  23.392  42.816  12.515
35419W        W 1960  29.545  43.494   4.667
35420W        W 1961   5.163  41.240  10.980
35421W        W 1962  16.512   2.838   2.215
35422W        W 1963  29.211  14.928   4.225
35423W        W 1964  38.900  15.390  13.961
35424W        W 1965   8.668  22.221   4.932
35425W        W 1966  10.580  40.786  13.986
35426W        W 1967  43.434  23.956  13.425
35427W        W 1968  24.111  14.574   0.385
35428W        W 1969  28.025  38.202   3.105
35429W        W 1970  29.190  42.756  14.935
35430W        W 1971   5.335   5.992   3.231
35431W        W 1972  25.176   2.820   4.286
35432W        W 1973  31.456  17.176  14.983
35433W        W 1974  32.428   5.954   2.190
35434W        W 1975   9.782  28.152  11.942
35435W        W 1976  30.485  23.710   0.464
35436W        W 1977  25.183  33.032  14.745
35437W        W 1978   1.807  33.666   4.997
35438W        W 1979  20.545   2.321  13.865
35439W        W 1980  30.484  16.698  13.026
35440W        W 1981  23.142   8.086  10.161
35441W        W 1982  44.346   3.690  11.569
35442W        W 1983   2.545  30.964  12.114
35443W        W 1984  38.800  35.634  10.722
35444W        W 1985  35.977   0.439  13.766
35445W        W 1986   4.013   5.350  12.612
35446W        W 1987  25.422  13.304  12.558
35447W        W 1988  40.273  15.663  11.007
35448W        W 1989  13.553   1.320  13.951
35449W        W 1990  23.112  29.216  12.205
35450W        W 1991  43.369  17.770   1.885
35451W        W 1992  40.004   1.658   0.449
35452W        W 1993   5.233  20.781  11.174
35453W        W 1994  12.195   0.728   4.218
35454W        W 1995  39.112   7.146  10.794
35455W        W 1996  16.324  38.476  12.084
35456W        W 1997  42.296  21.703  14.802
35457W        W 1998  12.001  35.518   3.398
35458W        W 1999  40.051  41.959  14.584
35459W        W 2000   1.226  39.821   4.571
35460W        W 2001   5.843  23.676  14.903
35461W        W 2002   1.426  22.625   1.937
35462W        W 2003  29.535  19.413  13.536
35463W        W 2004  41.856  35.066   3.159
35464W        W 2005   8.902  17.776  11.972
35465W        W 2006  43.100  26.064   2.802
35466W        W 2007  27.133   1.472   0.837
35467W        W 2008  32.929  33.915   0.736
35468W        W 2009  23.129  17.219  11.515
35469W        W 2010   7.453  26.223  12.469
35470W        W 2011   8.746  27.523  11.367
35471W        W 2012  23.083  13.873   3.123
35472W        W 2013  21.465  31.251   1.260
35473W        W 2014   7.143  13.590  14.952
35474W        W 2015  28.970  24.661   4.675
35475W        W 2016  39.864  23.743  11.017
35476W        W 2017  11.911   7.881  13.340
35477W        W 2018   4.665  36.350  13.392
35478W        W 2019  18.234   9.229   3.794
35479W        W 2020  30.106  17.720   0.040
35480W        W 2021  29.206  35.076  14.283
35481W        W 2022  24.713   5.439  14.326
35482W        W 2023  42.421  16.846   2.709
35483W        W 2024  44.234  14.763   2.814
35484W        W 2025  43.164  10.973  12.523
35485W        W 2026  14.880  31.950   0.882
35486W        W 2027   5.834  28.707  11.190
35487W        W 2028  27.454  28.589  10.930
35488W        W 2029   0.527  17.189  10.432
35489W        W 2030  27.443  43.013  14.465
35490W        W 2031  26.257   5.845  12.264
35491W        W 2032  40.383  37.138  10.606
35492W        W 2033  33.611  22.203   0.007
35493W        W 2034  31.907   4.497   4.222
35494W        W 2035  10.725   8.913  10.784
35495W        W 2036  18.104  13.660   2.403
35496W        W 2037  39.389  15.493   2.167
35497W        W 2038  16.339  32.849  14.320
35498W        W 2039   2.239  43.488  12.598
35499W        W 2040  15.211  13.739   0.179
35500W        W 2041  44.354  30.631   1.219
35501W        W 2042  37.183  33.832  12.974
35502W        W 2043  44.235   6.274  12.946
35503W        W 2044  42.365  20.249  11.965
35504W        W 2045  28.023  30.664   2.343
35505W        W 2046  18.772  37.378  12.500
35506W        W 2047  26.675  39.768  11.441
35507W        W 2048  29.422   7.393   2.211
35508W        W 2049  22.408  35.504  14.087
35509W        W 2050   7.629  28.673   4.799
35510W        W 2051  33.480  27.526   4.859
35511W        W 2052  26.619  20.435   4.095
35512W        W 2053  30.698  22.742   0.352
35513W        W 2054  19.826  27.667   0.315
35514W        W 2055  27.196  23.694  14.286
35515W        W 2056  30.402  33.966   2.919
35516W        W 2057   7.746  41.995  14.521
35517W        W 2058  17.650  40.032   0.222
35518W        W 2059  43.240   2.756   0.981
35519W        W 2060   3.694  30.387  11.484
35520W        W 2061  30.735  29.609   4.666
35521W        W 2062  10.928   6.768  11.604
35522W        W 2063  36.849  42.902   1.043
35523W        W 2064  16.405  40.942  13.925
35524W        W 2065   1.062  13.997  13.002
35525W        W 2066  17.119  33.869  11.819
35526W        W 2067  27.949  32.518   0.204
35527W        W 2068  28.097  19.019  12.854
35528W        W 2069   3.459  12.784   0.967
35529W        W 2070  12.825  10.796  14.950
35530W        W 2071  19.259  35.657   2.416
35531W        W 2072  43.403  40.320  13.453
35532W        W 2073  32.038  15.164  14.918
35533W        W 2074  18.509   7.279  11.160
35534W        W 2075  43.540   9.970   2.278
35535W        W 2076  41.527  27.446   2.429
35536W        W 2077  37.227   6.394  10.906
35537W        W 2078  36.662  15.406   1.391
35538W        W 2079   1.509  21.594  14.269
35539W        W 2080  35.874  20.222   4.228
35540W        W 2081  35.556  29.938   1.182
35541W        W 2082  11.483  36.041   0.940
35542W        W 2083  24.691  19.903  14.054
35543W        W 2084   3.443  42.177  11.197
35544W        W 2085   4.550  34.516  11.935
35545W        W 2086  15.371  31.912  13.857
35546W        W 2087   2.353  11.233  13.932
35547W        W 2088  24.542  16.062   2.621
35548W        W 2089  42.353  20.572   4.168
35549W        W 2090  12.840  28.626  10.508
35550W        W 2091  27.266  28.061  12.851
35551W        W 2092  21.983  30.091   0.932
35552W        W 2093  35.339  25.582   3.655
35553W        W 2094  31.382   9.769   4.717
35554W        W 2095   3.596   4.131  10.085
35555W        W 2096   1.731   6.177   1.722
35556W        W 2097  19.971  16.982  11.981
35557W        W 2098  33.793  15.237  12.332
35558W        W 2099  16.934  26.234   0.702
35559W        W 2100  11.108  20.062   1.421
35560W        W 2101   0.068   7.725   1.056
35561W        W 2102   3.429  43.792   2.612
35562W        W 2103  26.479  24.237   4.656
35563W        W 2104  37.375  22.508   2.512
35564W        W 2105  40.762  14.660   3.574
35565W        W 2106  17.801  33.022   1.677
35566W        W 2107  34.125   0.792  13.491
35567W        W 2108  10.120  28.103  10.606
35568W        W 2109  11.278   4.643  13.552
35569W        W 2110  39.091  42.753  11.551
35570W        W 2111  44.478  36.493  12.060
35571W        W 2112  34.291  15.463  13.530
35572W        W 2113   2.581  25.301   2.607
35573W        W 2114  44.837  33.882  11.497
35574W        W 2115  39.689  28.243   1.908
35575W        W 2116  40.873  15.711  10.397
35576W        W 2117  35.679  19.702   2.002
35577W        W 2118   7.842  31.331  11.586
35578W        W 2119  26.519  39.518  14.697
35579W        W 2120   3.824  13.252   0.376
35580W        W 2121  11.271  29.487   1.416
35581W        W 2122  18.583  36.166   4.094
35582W        W 2123   3.762  32.677  10.685
35583W        W 2124  19.272  33.203   3.850
35584W        W 2125  43.789   1.969  13.472
35585W        W 2126   4.471  37.335   0.340
35586W        W 2127  26.053  33.445   1.760
35587W        W 2128  15.434  21.203  13.660
35588W        W 2129  18.528  28.610  13.253
35589W        W 2130  41.313  36.334  12.441
35590W        W 2131  31.018  37.392  12.608
35591W        W 2132  11.479  30.512   2.918
35592W        W 2133  40.259   5.180   1.782
35593W        W 2134  33.102  40.362   3.846
35594W        W 2135  38.430  17.911  11.661
35595W        W 2136  15.247   8.735  14.118
35596W        W 2137  32.590   4.725  13.894
35597W        W 2138  35.811  13.821   2.816
35598W        W 2139  13.757  36.510  12.023
35599W        W 2140  20.014  41.761   0.319
35600W        W 2141  32.019  41.442  14.646
35601W        W 2142  42.417  37.653   4.930
35602W        W 2143   3.742   8.659   0.878
35603W        W 2144   9.600  40.510   2.592
35604W        W 2145  32.342  12.752  12.162
35605W        W 2146  29.403  25.148  11.317
35606W        W 2147  32.548   3.739   4.116
35607W        W 2148   0.246  24.072  11.928
35608W        W 2149  38.005  24.808   4.815
35609W        W 2150  28.866  15.144   2.943
35610W        W 2151  13.790  42.778   3.756
35611W        W 2152  32.380  43.101   4.995
35612W        W 2153  20.052  33.863  11.059
35613W        W 2154   3.708  43.951   0.797
35614W        W 2155  28.036  25.880   4.613
35615W        W 2156  22.777  43.100   0.818
35616W        W 2157   9.111  31.409  11.472
35617W        W 2158  25.456  15.618   3.025
35618W        W 2159  32.554  17.219  11.520
35619W        W 2160  23.036  24.241   4.856
35620W        W 2161  21.150  28.974   2.448
35621W        W 2162  33.357   9.791   1.366
35622W        W 2163  29.433  38.011  12.067
35623W        W 2164  11.122  44.465  14.414
35624W        W 2165  40.836  36.252   4.121
35625W        W 2166  14.323  31.725  12.667
35626W        W 2167  18.018   9.077   1.755
35627W        W 2168   2.170  21.281  11.219
35628W        W 2169  29.991  35.603   3.397
35629W        W 2170  29.059  11.544  10.205
35630W        W 2171   6.950  32.807  14.005
35631W        W 2172  20.236  40.085   0.803
35632W        W 2173   3.171  16.618   2.816
35633W        W 2174  32.526  30.079   1.000
35634W        W 2175  40.287  27.116  11.219
35635W        W 2176  21.242  36.460  14.358
35636W        W 2177   6.435  28.728   2.581
35637W        W 2178  22.523  11.106  14.743
35638W        W 2179  23.198  23.962  13.878
35639W        W 2180   7.653   9.683   4.622
35640W        W 2181   0.763  29.171  12.126
35641W        W 2182   4.782  33.253  11.567
35642W        W 2183  17.824  33.871  12.990
35643W        W 2184  20.662   3.969  12.443
35644W        W 2185  38.016  22.733   0.914
35645W        W 2186  20.513  39.569  10.756
35646W        W 2187  21.595   6.199  14.422
35647W        W 2188  44.752   9.163   3.695
35648W        W 2189   4.040  24.693   1.946
35649W        W 2190   2.218  25.982   2.289
35650W        W 2191  23.255   6.709   4.916
35651W        W 2192  27.669  35.708   2.296
35652W        W 2193  11.672  39.927   1.233
35653W        W 2194  31.402  23.580  11.145
35654W        W 2195   0.031  22.243  11.554
35655W        W 2196  30.446  23.918   0.947
35656W        W 2197  10.047  33.582   2.266
35657W        W 2198   7.958  11.124   0.842
35658W        W 2199  14.599  12.319   0.237
35659W        W 2200  24.124  11.255  10.681
35660W        W 2201  24.149   0.017   4.179
35661W        W 2202  41.303  11.390   0.348
35662W        W 2203   4.656   4.688  12.524
35663W        W 2204   7.802  25.026  12.082
35664W        W 2205   8.968  35.377  11.202
35665W        W 2206   5.469  38.435   4.678
35666W        W 2207  10.395  13.603  13.367
35667W        W 2208  11.598  21.256  12.042
35668W        W 2209  35.584  27.887   3.187
35669W        W 2210   9.173  17.609  11.534
35670W        W 2211  40.547   7.710   4.918
35671W        W 2212  32.139  31.944   0.033
35672W        W 2213  37.148  35.140   0.501
35673W        W 2214  10.647  32.219   3.221
35674W        W 2215  16.892  27.389  12.283
35675W        W 2216  35.835  42.830   1.481
35676W        W 2217  38.040  21.567  13.017
35677W        W 2218   4.415  19.297  12.616
35678W        W 2219   0.875  27.161   3.320
35679W        W 2220  22.265  13.514  14.087
35680W        W 2221  35.969  30.138  13.413
35681W        W 2222  14.225  13.736  12.919
35682W        W 2223  43.937  29.127  14.073
35683W        W 2224  36.411  33.565   3.505
35684W        W 2225  20.151  32.405  13.369
35685W        W 2226   2.536  39.785   0.238
35686W        W 2227  30.267  28.725  13.018
35687W        W 2228  11.855  22.865   4.098
35688W        W 2229   8.794  33.563  12.102
35689W        W 2230  22.580   8.684  14.554
35690W        W 2231  16.977  19.104  10.454
35691W        W 2232   3.886  23.023   0.842
35692W        W 2233  22.633  24.890   1.951
35693W        W 2234  17.646   2.434   4.888
35694W        W 2235  35.120  16.810  11.571
35695W        W 2236   8.652   1.430   0.529
35696W        W 2237  42.068  36.592   3.074
35697W        W 2238   2.760  30.955   2.072
35698W        W 2239  16.482  34.921  11.945
35699W        W 2240  13.056  32.079  13.871
35700W        W 2241  18.670   7.821   3.559
35701W        W 2242   5.935  39.101  14.880
35702W        W 2243  36.063  41.929  12.838
35703W        W 2244  32.969  13.715  13.951
35704W        W 2245  32.578  28.481   1.921
35705W        W 2246  25.545   5.590  14.810
35706W        W 2247   5.748  31.697   0.976
35707W        W 2248  22.553  39.452  14.299
35708W        W 2249  27.951  13.325   1.375
35709W        W 2250   8.049  27.995   0.476
35710W        W 2251  22.925  23.272   4.699
35711W        W 2252  17.046  37.120   3.131
35712W        W 2253  31.807   5.176   1.435
35713W        W 2254   8.642   4.009  11.807
35714W        W 2255  31.161  19.510   4.322
35715W        W 2256  37.925  11.721   2.353
35716W        W 2257   1.750  20.525  14.929
35717W        W 2258  25.109  26.079  14.277
35718W        W 2259  28.123  39.772  10.683
35719W        W 2260  16.056   4.387  13.792
35720W        W 2261  44.670  42.694  13.815
35721W        W 2262   4.680  30.851  13.527
35722W        W 2263   8.230   9.791  10.810
35723W        W 2264  12.360  10.981   1.717
35724W        W 2265  39.453   8.920  13.310
35725W        W 2266  43.971  24.737  10.697
35726W        W 2267   1.220   2.378   1.917
35727W        W 2268  22.481  44.439   2.872
35728W        W 2269   7.459  39.252   1.189
35729W        W 2270  26.025  39.305  13.932
35730W        W 2271  32.475  21.569   0.029
35731W        W 2272  13.549  30.683   4.112
35732W        W 2273  38.257  28.860   2.816
35733W        W 2274   4.901   6.266   0.482
35734W        W 2275   8.962  30.987   3.235
35735W        W 2276  36.356  31.927  10.823
35736W        W 2277  34.144  43.090  13.978
35737W        W 2278  35.595  39.744   0.723
35738W        W 2279  31.676  44.870  14.261
35739W        W 2280  19.495  14.678   0.333
35740W        W 2281  12.835   9.386   3.371
35741W        W 2282  40.333  16.112   2.427
35742W        W 2283  35.255  33.543   0.847
35743W        W 2284  16.517   7.904  14.997
35744W        W 2285  11.214   2.283   1.027
35745W        W 2286  33.460   8.130   2.269
35746W        W 2287   4.971  20.023   1.958
35747W        W 2288  13.120  31.503  11.459
35748W        W 2289  31.983   2.247   2.723
35749W        W 2290  41.323  18.138   3.283
35750W        W 2291  34.354  24.647  11.185
35751W        W 2292   5.216   6.139   4.057
35752W        W 2293  19.946  24.036   1.820
35753W        W 2294  33.089  20.146  14.087
35754W        W 2295  18.211  23.958  14.884
35755W        W 2296  32.717  23.490   4.076
35756W        W 2297  27.788  18.629  10.727
35757W        W 2298  37.088  22.335   1.229
35758W        W 2299   3.013   0.815  11.523
35759W        W 2300   7.208  11.059  13.922
35760W        W 2301   0.717  15.126  12.296
35761W        W 2302  20.853   0.775   3.614
35762W        W 2303   4.893  23.284  12.535
35763W        W 2304  16.265   6.829  12.463
35764W        W 2305  24.602  36.270  14.275
35765W        W 2306  21.072  19.710  13.882
35766W        W 2307  42.012   8.830  10.977
35767W        W 2308  26.613  40.075   4.554
35768W        W 2309  36.034  13.622  10.694
35769W        W 2310  27.508   9.266  10.806
35770W        W 2311  39.883  43.490   0.711
35771W        W 2312  10.658  22.607   0.860
35772W        W 2313  21.509  40.370  10.618
35773W        W 2314  38.879   5.460  12.548
35774W        W 2315   6.307  18.078  10.633
35775W        W 2316  28.717  44.381  12.985
35776W        W 2317  40.365  43.282  12.644
35777W        W 2318  44.577  28.861  14.859
35778W        W 2319  17.914  10.161   4.804
35779W        W 2320  16.067  14.803   4.532
35780W        W 2321  30.891  40.693   2.955
35781W        W 2322  19.683  42.119   2.660
35782W        W 2323  21.822  30.108   2.785
35783W        W 2324  14.054  16.705   0.331
35784W        W 2325  21.764  20.180  13.026
35785W        W 2326  14.701  39.854  12.121
35786W        W 2327  32.093  30.219   4.582
35787W        W 2328  30.506  44.542   3.191
35788W        W 2329  29.176  42.278   4.739
35789W        W 2330  19.999  29.800  11.474
35790W        W 2331   7.976  42.320   4.596
35791W        W 2332   5.228  18.724  14.540
35792W        W 2333   1.938  29.738  13.867
35793W        W 2334  39.612   9.625  11.134
35794W        W 2335   5.370  43.906  14.510
35795W        W 2336  26.579  40.950  10.616
35796W        W 2337   0.129  29.681  12.851
35797W        W 2338  16.523   4.699  13.829
35798W        W 2339   5.442  16.718   1.162
35799W        W 2340  34.814   7.543   2.373
35800W        W 2341  33.989  35.175   2.716
35801W        W 2342   4.853  28.196   4.062
35802W        W 2343  23.063  21.694  11.624
35803W        W 2344   8.123  31.608  14.473
35804W        W 2345  41.924   4.975  13.846
35805W        W 2346   5.046  34.552  11.114
35806W        W 2347  19.086  14.060  11.547
35807W        W 2348  20.116   9.798   2.369
35808W        W 2349  43.876  19.058   4.540
35809W        W 2350   9.287   5.286  14.065
35810W        W 2351  30.664  32.528  11.932
35811W        W 2352  38.020  18.040   1.888
35812W        W 2353  22.621  14.396   4.615
35813W        W 2354  12.064  36.794   1.346
35814W        W 2355  21.506  38.821  13.423
35815W        W 2356  37.048  25.607   4.347
35816W        W 2357   2.889  37.541   3.805
35817W        W 2358  29.908  37.506   2.531
35818W        W 2359  39.024   4.391   3.916
35819W        W 2360   0.903  11.736   2.828
35820W        W 2361  25.583   6.251  10.665
35821W        W 2362  34.020  39.129  12.664
35822W        W 2363   1.846  42.975   2.183
35823W        W 2364  37.409  21.466   3.501
35824W        W 2365  15.762   8.655   1.394
35825W        W 2366  20.306  11.711   4.490
35826W        W 2367  16.479  19.283   1.004
35827W        W 2368  16.049  32.076  12.763
35828W        W 2369  15.673  30.060  11.656
35829W        W 2370  10.111  37.771  10.832
35830W        W 2371   1.855  44.245   4.517
35831W        W 2372  17.197   8.442   2.851
35832W        W 2373  33.618  20.497  11.104
35833W        W 2374  19.253  43.177   2.893
35834W        W 2375  34.308  18.805   1.932
35835W        W 2376  20.472  44.130  11.915
35836W        W 2377   9.319  40.142  14.867
35837W        W 2378  20.590   8.823   3.909
35838W        W 2379  29.632  35.124  10.343
35839W        W 2380   5.753  23.634  13.102
35840W        W 2381  36.288  33.374  10.008
35841W        W 2382  34.366   5.360  11.969
35842W        W 2383  22.771  41.579   3.314
35843W        W 2384  16.201  44.255   4.842
35844W        W 2385  41.548  23.511   4.633
35845W        W 2386  23.806  34.335   1.351
35846W        W 2387  24.558  14.592   4.197
35847W        W 2388  13.079  27.528   2.657
35848W        W 2389  20.565  32.119   1.803
35849W        W 2390  20.083  28.109   0.391
35850W        W 2391  10.983  34.044  13.852
35851W        W 2392   1.823  38.421   0.901
35852W        W 2393   1.450   0.038   0.955
35853W        W 2394  22.754  35.942   3.159
35854W        W 2395   4.762  39.932  13.096
35855W        W 2396  22.280  36.074  13.974
35856W        W 2397   7.276  22.678   3.704
35857W        W 2398  33.571  27.452   9.934
35858W        W 2399  11.320  24.248  11.930
35859W        W 2400  29.549  12.883   3.338
35860W        W 2401  41.291  17.520   0.876
35861W        W 2402  27.580  11.079  13.883
35862W        W 2403  19.191  15.586   1.607
35863W        W 2404  15.068  44.461  13.121
35864W        W 2405  36.005  39.213  11.081
35865W        W 2406  43.749  38.059   3.154
35866W        W 2407  31.062  31.206  12.929
35867W        W 2408  12.011  13.381   3.040
35868W        W 2409  10.744   0.794   3.609
35869W        W 2410  27.101   8.152  14.286
35870W        W 2411  31.189  40.405  10.741
35871W        W 2412  30.941  36.002  11.124
35872W        W 2413  35.088  35.780   3.353
35873W        W 2414  35.313  25.136   4.013
35874W        W 2415  22.149   1.255  10.756
35875W        W 2416  29.071   9.597  14.363
35876W        W 2417  35.562  34.621   3.670
35877W        W 2418  44.710  36.245  10.761
35878W        W 2419  44.453  20.776   1.909
35879W        W 2420  11.621   8.388  12.645
35880W        W 2421  13.720  18.195   3.828
35881W        W 2422  33.176  11.645   2.876
35882W        W 2423   0.242  18.534   0.414
35883W        W 2424  30.190  18.026  12.598
35884W        W 2425  19.589  39.343   4.586
35885W        W 2426  34.118  17.592   2.088
35886W        W 2427  33.658  36.873   1.710
35887W        W 2428  27.006  10.725  14.345
35888W        W 2429  33.422  19.128   3.355
35889W        W 2430  15.599   2.548  11.066
35890W        W 2431  39.500  37.547  10.937
35891W        W 2432  44.837  24.059  12.254
35892W        W 2433  27.094  24.051  13.429
35893W        W 2434  29.702  14.385   2.341
35894W        W 2435  38.905  41.304   3.437
35895W        W 2436   8.931  18.706  12.847
35896W        W 2437  13.050  29.055  13.792
35897W        W 2438  36.728  37.595   3.266
35898W        W 2439  17.243  36.488   0.809
35899W        W 2440  31.830  20.683  11.984
35900W        W 2441  13.114  37.560   4.524
35901W        W 2442  41.074  40.938   0.059
35902W        W 2443  38.574   1.201  12.128
35903W        W 2444   6.365  31.214   2.096
35904W        W 2445  30.460   5.965   4.882
35905W        W 2446  36.343  16.444  13.160
35906W        W 2447  23.062  32.889   1.937
35907W        W 2448   9.796  37.387  11.646
35908W        W 2449   2.610  37.572   4.588
35909W        W 2450   1.983  31.935  12.947
35910W        W 2451  18.073  41.499  12.511
35911W        W 2452  31.664  17.363   4.587
35912W        W 2453  33.876  12.165   3.942
35913W        W 2454  26.482  23.586  12.534
35914W        W 2455   4.363  19.295   3.617
35915W        W 2456  30.982  42.864  11.553
35916W        W 2457  29.256  44.305   2.676
35917W        W 2458   0.341  35.065  10.500
35918W        W 2459  42.078  24.996   0.763
35919W        W 2460  11.136  39.857   1.282
35920W        W 2461   3.566  24.150  13.432
35921W        W 2462  29.605   1.475  14.451
35922W        W 2463   0.571  29.559  14.045
35923W        W 2464  15.796  43.768   0.846
35924W        W 2465  22.132  23.178   0.335
35925W        W 2466   9.902  16.678   1.863
35926W        W 2467  38.935   9.520   1.726
35927W        W 2468  32.961   4.031  12.492
35928W        W 2469   2.258   3.689  10.523
35929W        W 2470  35.812  39.290   1.931
35930W        W 2471   6.470  10.289  10.359
35931W        W 2472  13.560  19.101   0.234
35932W        W 2473  30.641   3.406  11.634
35933W        W 2474   7.130  16.242  13.521
35934W        W 2475  31.218  39.304   1.375
35935W        W 2476   8.876  24.132  13.164
35936W        W 2477  37.547   4.224   4.539
35937W        W 2478  40.733  34.311  14.952
35938W        W 2479  28.184   7.815  11.148
35939W        W 2480  20.704  35.280   2.283
35940W        W 2481  38.125   6.965   1.771
35941W        W 2482  41.232  10.144   1.378
35942W        W 2483   6.531  43.738   2.038
35943W        W 2484  10.358  39.405   0.179
35944W        W 2485  31.012  20.780   4.124
35945W        W 2486  39.055  41.022   1.768
35946W        W 2487  24.320  21.548  12.049
35947W        W 2488  17.595  11.048   1.776
35948W        W 2489  13.901   6.219   4.503
35949W        W 2490   0.570  14.261  14.971
35950W        W 2491  15.303  16.173  13.840
35951W        W 2492  33.958  29.695  12.924
35952W        W 2493  41.577   7.659  14.411
35953W        W 2494  37.885  31.651  13.566
35954W        W 2495  25.188  20.673  13.024
35955W        W 2496  18.211  25.238  11.660
35956W        W 2497  37.354  13.114   0.178
35957W        W 2498  38.523  11.634   1.952
35958W        W 2499  13.328  40.377  10.831
35959W        W 2500  41.793  31.364  12.437
35960W        W 2501  13.944  18.154   2.589
35961W        W 2502  27.891  15.518  14.429
35962W        W 2503  22.901   6.253  14.755
35963W        W 2504  25.766   6.116   5.456
35964W        W 2505  44.508  22.084   2.498
35965W        W 2506  30.111  14.098   0.013
35966W        W 2507  39.626   3.763   0.890
35967W        W 2508  38.045  34.361  12.980
35968W        W 2509   9.182  15.419  12.908
35969W        W 2510   9.719  17.195  14.001
35970W        W 2511  26.958  22.296   2.219
35971W        W 2512  28.217  31.561   3.816
35972W        W 2513  34.580  16.073  12.734
35973W        W 2514  30.311   7.985   1.140
35974W        W 2515  27.596  15.449   9.675
35975W        W 2516   6.924   6.244  12.473
35976W        W 2517  27.400  14.266   4.368
35977W        W 2518  38.149  13.108  12.488
35978W        W 2519   6.526  18.468   3.620
35979W        W 2520   3.804  44.763  11.602
35980W        W 2521   0.952  11.122  12.671
35981W        W 2522  20.542  41.277   3.215
35982W        W 2523   4.498   1.686  12.499
35983W        W 2524  35.434  13.004  12.168
35984W        W 2525  19.719  38.548  14.009
35985W        W 2526  14.661  23.279  11.321
35986W        W 2527  18.848  10.261  13.284
35987W        W 2528   7.606  39.658   0.246
35988W        W 2529  35.032   8.855   1.996
35989W        W 2530  15.500  27.283   0.832
35990W        W 2531  39.383   9.164  12.859
35991W        W 2532  12.172  42.252   1.825
35992W        W 2533  33.248   0.428  13.921
35993W        W 2534  35.591   5.730   1.932
35994W        W 2535  20.948  40.945   2.208
35995W        W 2536  17.040   7.762   0.517
35996W        W 2537  43.333  36.413   4.522
35997W        W 2538   8.004  13.109   3.330
35998W        W 2539   7.716  16.287  13.961
35999W        W 2540   1.459   2.408   2.357
36000W        W 2541  32.002  22.761  14.086
36001W        W 2542  44.455   6.376  14.905
36002W        W 2543  35.668  19.019  13.002
36003W        W 2544   4.170  17.197  14.246
36004W        W 2545  18.650   0.693   4.614
36005W        W 2546  35.055  16.596  12.073
36006W        W 2547  33.605  38.720  10.485
36007W        W 2548  21.106  12.605   2.246
36008W        W 2549  20.012   4.028   4.111
36009W        W 2550  21.739   9.819  14.295
36010W        W 2551   2.192  21.434   1.253
36011W        W 2552  33.311   5.427   2.148
36012W        W 2553   4.079  36.695  12.133
36013W        W 2554  33.261  41.548   2.102
36014W        W 2555  20.652  41.490  14.336
36015W        W 2556  11.180  10.000  12.035
36016W        W 2557  18.311  26.648   1.141
36017W        W 2558  23.571   2.971   1.812
36018W        W 2559  22.460  19.887   1.955
36019W        W 2560   1.849   2.191   1.241
36020W        W 2561  43.954  37.147   1.814
36021W        W 2562   0.995  39.107   0.624
36022W        W 2563  10.356  12.617   4.165
36023W        W 2564   9.384   7.707   4.622
36024W        W 2565  44.251  22.564  12.982
36025W        W 2566  27.026  28.638  11.218
36026W        W 2567  38.600   3.732  10.602
36027W        W 2568  33.748  30.543  11.673
36028W        W 2569   9.111   0.446  12.087
36029W        W 2570   3.283  19.641   4.131
36030W        W 2571  13.145   1.301   1.197
36031W        W 2572  37.631   3.017  14.861
36032W        W 2573  36.859  21.055  14.319
36033W        W 2574   9.358  41.151   1.653
36034W        W 2575   2.074  10.722   2.840
36035W        W 2576  35.292  26.987   0.479
36036W        W 2577  38.844  37.331   4.034
36037W        W 2578  37.011   4.475  13.929
36038W        W 2579  20.137  17.549   4.988
36039W        W 2580  10.717   1.228  12.687
36040W        W 2581  20.125   5.549   4.171
36041W        W 2582  25.725  29.062   0.073
36042W        W 2583  25.123  14.676  12.524
36043W        W 2584  23.781  42.710  13.883
36044W        W 2585  20.602   5.795  11.817
36045W        W 2586  26.398  20.521   3.334
36046W        W 2587  11.162  32.104   3.672
36047W        W 2588  38.666  19.895  11.441
36048W        W 2589  37.485  32.726  12.398
36049W        W 2590  37.164  14.811  12.962
36050W        W 2591  17.100  31.755   1.531
36051W        W 2592  35.590  19.764  10.708
36052W        W 2593   7.469  20.118   4.726
36053W        W 2594  25.759  28.243  11.196
36054W        W 2595  36.400  41.779   4.722
36055W        W 2596  10.503   5.008  12.027
36056W        W 2597   0.222  22.953   1.612
36057W        W 2598   0.583   0.256  13.533
36058W        W 2599   5.339   7.060   1.724
36059W        W 2600  37.580   6.142  12.228
36060W        W 2601   0.676  20.213  14.374
36061W        W 2602   1.034  22.789  11.992
36062W        W 2603  16.563  36.891   4.587
36063W        W 2604  42.539  30.931   1.180
36064W        W 2605  10.932  22.014  13.036
36065W        W 2606  34.232  34.695  13.304
36066W        W 2607   7.253  32.073  14.361
36067W        W 2608  19.749  10.552   4.209
36068W        W 2609  16.884  27.241  10.955
36069W        W 2610   1.202  35.293   1.075
36070W        W 2611  39.095  34.628  12.083
36071W        W 2612  27.123  29.625   2.393
36072W        W 2613  10.166  29.902   3.651
36073W        W 2614  13.553  44.290  12.054
36074W        W 2615  13.787  19.675  14.447
36075W        W 2616  37.823  17.202  14.267
36076W        W 2617  34.689  38.331  12.456
36077W        W 2618  40.896  39.422   3.907
36078W        W 2619  43.693   6.704   1.244
36079W        W 2620  39.048  28.362   3.160
36080W        W 2621  41.106  15.925  13.991
36081W        W 2622  26.788  37.939   0.927
36082W        W 2623  35.875  11.748  14.662
36083W        W 2624   3.287  40.576  13.867
36084W        W 2625  11.560  26.036   2.615
36085W        W 2626  37.397  11.760  10.763
36086W        W 2627  20.414  30.184   1.658
36087W        W 2628  27.965   0.879   3.569
36088W        W 2629  19.777  40.036   0.005
36089W        W 2630  23.659  17.651  12.556
36090W        W 2631  29.308   5.497   4.061
36091W        W 2632  14.638  28.939  14.994
36092W        W 2633  28.060   4.738  11.282
36093W        W 2634  31.957  37.299  12.669
36094W        W 2635  32.413  26.620   4.152
36095W        W 2636  17.088  38.736  10.171
36096W        W 2637  39.552  11.267   3.691
36097W        W 2638   2.456   9.762  13.365
36098W        W 2639  13.308  36.134   2.432
36099W        W 2640  30.158  34.459   3.889
36100W        W 2641  33.105  39.853  11.702
36101W        W 2642   6.841  16.237   3.379
36102W        W 2643   6.491  31.291   0.321
36103W        W 2644  34.455   4.877   4.832
36104W        W 2645  41.936  36.112  14.891
36105W        W 2646  21.026  23.140  11.546
36106W        W 2647   3.899  34.662   5.029
36107W        W 2648  27.854  40.788   2.075
36108W        W 2649  38.685  37.809  13.895
36109W        W 2650  26.761  14.521   2.724
36110W        W 2651  35.300  44.380  13.545
36111W        W 2652  22.193  41.343   1.168
36112W        W 2653   5.141  34.016  11.079
36113W        W 2654  42.512  36.191  14.895
36114W        W 2655  13.316  35.753   1.107
36115W        W 2656  14.667  17.651  11.226
36116W        W 2657  16.125   3.255  10.643
36117W        W 2658  43.508  11.249   3.659
36118W        W 2659  37.960  16.144   1.360
36119W        W 2660  40.559   9.769   2.372
36120W        W 2661  23.389  25.765   2.191
36121W        W 2662   7.208   4.933   2.450
36122W        W 2663   0.265  30.387   1.847
36123W        W 2664   3.871  17.817   0.900
36124W        W 2665  31.290  28.385   0.704
36125W        W 2666  35.116  23.235  10.517
36126W        W 2667  32.859  27.725   4.206
36127W        W 2668   1.317  33.334  11.934
36128W        W 2669   5.375  10.885  10.716
36129W        W 2670  37.761  21.109   1.762
36130W        W 2671  31.435  38.907  14.336
36131W        W 2672  41.025  33.329  14.974
36132W        W 2673  43.311  33.948   3.134
36133W        W 2674  13.376  44.219   1.905
36134W        W 2675  44.043  38.513   3.280
36135W        W 2676  18.962  23.078  12.546
36136W        W 2677  33.108  21.745   4.370
36137W        W 2678  11.181   9.712  10.730
36138W        W 2679  41.818   9.763  13.932
36139W        W 2680  17.657   8.359  11.021
36140W        W 2681  20.166  32.092   1.346
36141W        W 2682   4.165  33.455  11.956
36142W        W 2683  19.714   3.482  14.172
36143W        W 2684   6.895  26.581  10.920
36144W        W 2685  23.057  36.101   1.364
36145W        W 2686  38.297   8.931  14.372
36146W        W 2687  41.269  26.023  11.159
36147W        W 2688  38.458   5.614  14.239
36148W        W 2689  28.919  18.024   3.107
36149W        W 2690  14.195  23.764  10.692
36150W        W 2691   8.894  23.766   3.708
36151W        W 2692   4.781  16.071   3.655
36152W        W 2693  10.372  18.542   1.785
36153W        W 2694  14.119   1.535   3.431
36154W        W 2695  15.320  28.688   4.864
36155W        W 2696   0.908  30.597  14.434
36156W        W 2697   8.969  31.091  12.056
36157W        W 2698  38.424  26.202  14.088
36158W        W 2699  38.429  33.817   4.559
36159W        W 2700   1.854   3.804   1.567
36160W        W 2701  28.406  17.130  14.487
36161W        W 2702  28.178   8.643   1.169
36162W        W 2703  11.655  14.762  12.505
36163W        W 2704  16.266   7.484   3.181
36164W        W 2705   9.209  43.305   0.008
36165W        W 2706  39.399  41.597   3.626
36166W        W 2707   0.373   9.910  11.099
36167W        W 2708  16.138  32.857   4.132
36168W        W 2709   0.939  37.119   1.869
36169W        W 2710  23.481  33.799   2.869
36170W        W 2711  25.445  20.724  14.926
36171W        W 2712  24.920   1.007  14.837
36172W        W 2713  22.696   2.872   0.901
36173W        W 2714  38.386  36.136   0.880
36174W        W 2715  10.486  34.370   1.342
36175W        W 2716  43.829  19.063   1.283
36176W        W 2717  31.975  25.192   1.955
36177W        W 2718   8.222  17.608   0.435
36178W        W 2719  39.393  42.443   1.374
36179W        W 2720   3.815   4.847   0.288
36180W        W 2721  38.080  36.766  12.156
36181W        W 2722   7.117  14.133  13.417
36182W        W 2723  33.630  36.308  12.617
36183W        W 2724   0.716  30.928  11.331
36184W        W 2725   3.268  31.641  13.547
36185W        W 2726  23.684   9.842  10.740
36186W        W 2727  26.730  40.543   2.488
36187W        W 2728  30.204  17.765   4.162
36188W        W 2729  21.543  42.596  12.024
36189W        W 2730   1.755  26.232   2.261
36190W        W 2731   3.305  24.285  12.543
36191W        W 2732   1.395  34.622   1.460
36192W        W 2733  37.778   3.960  11.087
36193W        W 2734  25.918  33.004   1.465
36194W        W 2735  35.032  17.314  11.451
36195W        W 2736  11.115  19.703   0.070
36196W        W 2737  16.034  22.196  11.230
36197W        W 2738  37.419  12.102   2.168
36198W        W 2739  25.539  26.796  13.072
36199W        W 2740  27.964  35.922  11.671
36200W        W 2741   4.291  21.059  11.604
36201W        W 2742   9.433  30.839   4.198
36202W        W 2743  34.850  21.654  14.857
36203W        W 2744   4.745  28.375   1.877
36204W        W 2745  40.746  16.377  13.907
36205W        W 2746  29.473  27.089   4.191
36206W        W 2747  26.533  13.412   1.919
36207W        W 2748  29.229   7.735  13.465
36208W        W 2749  35.534  21.733   0.299
36209W        W 2750  33.658  36.090   2.150
36210W        W 2751  40.996  11.911  10.705
36211W        W 2752  13.395   2.908  11.883
36212W        W 2753  27.459  31.041   3.085
36213W        W 2754  41.560  16.727  10.427
36214W        W 2755   2.030  30.413  14.920
36215W        W 2756   5.823   9.857  14.554
36216W        W 2757  11.187  40.358   5.196
36217W        W 2758  40.156   6.213  11.525
36218W        W 2759  35.204  15.836  10.290
36219W        W 2760  43.107  14.815  13.150
36220W        W 2761  11.003  10.952   1.475
36221W        W 2762  28.055  25.469  11.148
36222W        W 2763  19.198   5.545   0.401
36223W        W 2764  41.763  21.531   1.746
36224W        W 2765   4.032   0.785   3.289
36225W        W 2766  26.503  27.682  14.422
36226W        W 2767  30.573   0.751   1.010
36227W        W 2768   3.997  15.789   2.349
36228W        W 2769  27.549  36.870   0.519
36229W        W 2770  11.644   2.397  12.952
36230W        W 2771   7.089  10.236  14.301
36231W        W 2772   7.431   9.868   2.972
36232W        W 2773  20.460  36.971   0.840
36233W        W 2774  39.443  28.709  11.647
36234W        W 2775  39.969   6.185   4.214
36235W        W 2776  16.821  33.591   0.996
36236W        W 2777  30.364  38.417   4.183
36237W        W 2778   2.845  44.654   5.004
36238W        W 2779  25.143   3.641  12.533
36239W        W 2780  35.203  16.948   2.867
36240W        W 2781  18.010  42.430  13.408
36241W        W 2782  27.195  35.318   2.385
36242W        W 2783  25.425  41.495  11.608
36243W        W 2784  40.962  11.435   3.261
36244W        W 2785  32.573  24.700  11.612
36245W        W 2786  36.509  40.491   1.590
36246W        W 2787  43.936  14.609  11.923
36247W        W 2788  31.602  16.298   1.191
36248W        W 2789  33.925  18.314  11.586
36249W        W 2790  10.343   6.883   2.470
36250W        W 2791   2.068  33.956  11.622
36251W        W 2792   0.647   2.842  13.253
36252W        W 2793  21.077  42.906  13.105
36253W        W 2794  36.543  39.810  12.958
36254W        W 2795  37.307  29.526   4.237
36255W        W 2796  31.833  17.193   3.470
36256W        W 2797  44.825  14.128  10.516
36257W        W 2798  10.930  16.146   4.213
36258W        W 2799   0.883  21.209  11.163
36259W        W 2800  26.040  43.409   4.533
36260W        W 2801   2.661  16.031   3.304
36261W        W 2802  20.571   1.234  14.909
36262W        W 2803   4.520  43.720   1.271
36263W        W 2804   0.344  21.953   1.707
36264W        W 2805  33.513  27.196  14.446
36265W        W 2806  11.821  36.479  11.602
36266W        W 2807  19.790  34.252  14.580
36267W        W 2808   6.822  32.141  11.942
36268W        W 2809  28.853  13.426   5.359
36269W        W 2810  19.787   2.548  11.121
36270W        W 2811  21.458  23.489   2.785
36271W        W 2812  26.435  33.099  13.643
36272W        W 2813  24.578  25.914   0.881
36273W        W 2814  33.900  11.217  12.961
36274W        W 2815  14.286   0.969  14.851
36275W        W 2816  25.067  36.304   3.731
36276W        W 2817  39.057  40.328   2.976
36277W        W 2818   2.915  20.800   1.300
36278W        W 2819  24.583  23.697   1.349
36279W        W 2820   7.259  44.303   2.719
36280W        W 2821  30.218  22.010   1.006
36281W        W 2822  43.178  11.210   1.322
36282W        W 2823   9.120   8.262   0.668
36283W        W 2824  25.163  22.465   2.082
36284W        W 2825  38.770  11.487   4.205
36285W        W 2826  18.830   2.816   0.009
36286W        W 2827  32.062  18.625   3.143
36287W        W 2828  24.190  20.011   3.169
36288W        W 2829  42.268  37.880  11.520
36289W        W 2830   4.166  14.300  11.223
36290W        W 2831  16.249  42.904   4.988
36291W        W 2832  31.331  31.817  11.562
36292W        W 2833  37.154  33.991   3.444
36293W        W 2834  32.636  10.797   2.429
36294W        W 2835  11.243  19.943  13.231
36295W        W 2836  36.320   8.492  13.683
36296W        W 2837  30.872  27.630   0.240
36297W        W 2838  23.249  10.975   4.571
36298W        W 2839  30.816  36.562   3.183
36299W        W 2840   6.377  13.667   1.116
36300W        W 2841  13.219  31.172   0.070
36301W        W 2842  14.850  25.122   0.268
36302W        W 2843   7.997   4.359  13.070
36303W        W 2844  17.959  34.628  11.628
36304W        W 2845  34.377  44.878  12.448
36305W        W 2846  23.175  36.850  13.480
36306W        W 2847  26.660  20.156   3.080
36307W        W 2848  16.699   5.174  13.795
36308W        W 2849   3.268   7.223   4.191
36309W        W 2850  20.187  12.115   0.292
36310W        W 2851   9.768  12.840  12.026
36311W        W 2852  42.109  44.801   0.970
36312W        W 2853  22.154  43.900   0.775
36313W        W 2854  38.751  42.804  13.112
36314W        W 2855  31.893   6.847   3.773
36315W        W 2856   6.951  44.477  10.798
36316W        W 2857  37.817  34.448  12.481
36317W        W 2858  11.476  19.599  14.336
36318W        W 2859  28.541  25.257  11.057
36319W        W 2860  43.321  33.710  14.594
36320W        W 2861  25.802   5.376   3.615
36321W        W 2862   0.704  12.745  12.504
36322W        W 2863  25.668  11.825  14.741
36323W        W 2864   5.477  23.057   1.314
36324W        W 2865  20.706  31.943   0.112
36325W        W 2866  15.778   8.838   2.336
36326W        W 2867  17.520  37.991  13.498
36327W        W 2868   6.903  19.473   0.236
36328W        W 2869  44.488  19.824  10.545
36329W        W 2870  41.795  18.816   0.851
36330W        W 2871  39.745  18.899   2.202
36331W        W 2872   0.526  27.565  14.870
36332W        W 2873  30.998  33.109   2.825
36333W        W 2874   2.184  41.359  11.145
36334W        W 2875  41.287  15.913  10.672
36335W        W 2876  39.138  33.757   2.179
36336W        W 2877   6.661  44.922  10.816
36337W        W 2878   8.331   4.687   2.901
36338W        W 2879  35.458   3.750   3.411
36339W        W 2880  26.743   9.728  11.491
36340W        W 2881  33.511  41.495   4.764
36341W        W 2882   5.910  10.795  14.844
36342W        W 2883  43.919  30.187  13.606
36343W        W 2884  30.697  21.958   0.777
36344W        W 2885  35.568   1.211  13.970
36345W        W 2886  37.515   7.665  13.839
36346W        W 2887  18.159  29.580   4.856
36347W        W 2888  43.326  28.481   1.212
36348W        W 2889  35.836  33.504  11.462
36349W        W 2890  13.151  44.451   1.472
36350W        W 2891  11.301  28.655  12.396
36351W        W 2892  38.933  13.295   1.067
36352W        W 2893  27.101  28.824   4.518
36353W        W 2894  12.834   4.430   2.769
36354W        W 2895   6.161  40.289   0.417
36355W        W 2896  10.151  12.302   0.948
36356W        W 2897  22.493  20.068   3.335
36357W        W 2898  22.261  40.264   0.446
36358W        W 2899  15.212  15.483  10.986
36359W        W 2900  28.799   5.851  14.333
36360W        W 2901   1.620   5.942  14.355
36361W        W 2902  40.839  40.955  14.574
36362W        W 2903  13.363   1.146   1.640
36363W        W 2904  41.390  30.836   3.927
36364W        W 2905  16.647  31.361   3.634
36365W        W 2906  24.427   4.189   4.563
36366W        W 2907   5.870   1.131   4.529
36367W        W 2908  10.891  41.130  11.635
36368W        W 2909   2.205  36.943   4.144
36369W        W 2910  16.712  10.401   0.803
36370W        W 2911  24.337  18.345   0.886
36371W        W 2912  24.992  24.351  10.796
36372W        W 2913  25.617  36.548  14.734
36373W        W 2914  18.555   7.157   1.223
36374W        W 2915  44.770   3.657  13.350
36375W        W 2916  38.050  38.081  14.693
36376W        W 2917  35.600   8.251   0.461
36377W        W 2918  14.121  29.820   5.488
36378W        W 2919  18.124  35.202   0.390
36379W        W 2920  42.822  28.925  10.644
36380W        W 2921   2.639  19.337  11.064
36381W        W 2922  19.556   1.275   5.149
36382W        W 2923  29.967  24.407   4.524
36383W        W 2924  40.384  12.995   4.527
36384W        W 2925  29.930  35.167  11.093
36385W        W 2926  23.535  21.389   4.161
36386W        W 2927   5.359  26.779   3.651
36387W        W 2928  11.982  36.853   0.465
36388W        W 2929  19.284  36.213  12.932
36389W        W 2930  18.757   8.164   3.206
36390W        W 2931  14.890  38.841  10.695
36391W        W 2932  14.215  38.631   1.322
36392W        W 2933  39.838  12.212   3.663
36393W        W 2934  31.064  17.861  13.876
36394W        W 2935  31.084  28.416  13.937
36395W        W 2936  15.540  16.380   4.830
36396W        W 2937  43.476  15.244   0.510
36397W        W 2938  20.060  20.466  14.402
36398W        W 2939  44.002   4.558  12.413
36399W        W 2940  21.496   8.489   1.823
36400W        W 2941  28.034  34.366  10.683
36401W        W 2942  14.196   3.700   2.708
36402W        W 2943  14.468  24.376  14.787
36403W        W 2944  27.923  30.238  11.619
36404W        W 2945  17.093  24.905   1.805
36405W        W 2946  23.997   1.246   4.666
36406W        W 2947  36.300  20.095  11.552
36407W        W 2948   3.747  40.358   3.679
36408W        W 2949   1.991  34.872  11.584
36409W        W 2950   8.907  11.307   2.656
36410W        W 2951   7.259  36.561   1.163
36411W        W 2952   7.910   7.808   3.375
36412W        W 2953  23.187  32.453   1.693
36413W        W 2954  13.454   2.068   0.786
36414W        W 2955  15.493  11.918   1.408
36415W        W 2956   8.390  33.159  11.529
36416W        W 2957  24.945  10.343   1.650
36417W        W 2958   0.378   3.875  10.577
36418W        W 2959  39.067  16.785  13.989
36419W        W 2960   1.773  13.295   1.177
36420W        W 2961  11.300  24.093   2.370
36421W        W 2962  37.486  15.786   1.294
36422W        W 2963  18.865  13.731  13.103
36423W        W 2964  33.488  38.645  14.386
36424W        W 2965  35.605  38.147  12.004
36425W        W 2966  29.603  19.552   0.212
36426W        W 2967  17.570   6.298  12.046
36427W        W 2968  18.315   0.008   3.115
36428W        W 2969   2.839  15.628  12.903
36429W        W 2970   0.215  35.348   2.897
36430W        W 2971   1.944  13.316  14.364
36431W        W 2972   2.430  23.495  13.447
36432W        W 2973  20.670  13.194   2.832
36433W        W 2974  15.156  16.654   0.238
36434W        W 2975  30.032  12.144  12.375
36435W        W 2976  40.117  15.486   1.614
36436W        W 2977   7.284  43.931   4.699
36437W        W 2978  30.725  14.067   2.460
36438W        W 2979  40.626  12.552   4.438
36439W        W 2980  31.845  25.654   1.714
36440W        W 2981  33.924  12.122  10.544
36441W        W 2982  34.766   4.714  14.383
36442W        W 2983  25.136  10.659  13.895
36443W        W 2984  29.940   0.640   4.271
36444W        W 2985  15.155  43.415  12.023
36445W        W 2986   2.523   6.689  11.883
36446W        W 2987  40.425  26.536   2.657
36447W        W 2988  28.419  37.851  14.070
36448W        W 2989   3.306  21.500   2.651
36449W        W 2990   4.509  39.073  12.680
36450W        W 2991  16.570  23.023   2.195
36451W        W 2992   2.567  28.146   1.356
36452W        W 2993   8.883  20.757  12.763
36453W        W 2994   3.559  32.450   3.957
36454W        W 2995  44.532  17.140   4.647
36455W        W 2996   1.261  40.954   0.374
36456W        W 2997  22.286  20.089  14.751
36457W        W 2998  29.486  29.202   0.917
36458W        W 2999  25.086   3.965  14.858
36459W        W 3000  23.592  23.969   3.654
36460W        W 3001  36.890   6.311   2.708
36461W        W 3002  19.796  23.923  14.034
36462W        W 3003  13.570  35.809   3.753
36463W        W 3004  18.934  37.119  14.337
36464W        W 3005  29.713  20.645  13.401
36465W        W 3006  33.483   7.766   1.301
36466W        W 3007  43.519  25.645   0.792
36467W        W 3008  35.064   8.813  14.974
36468W        W 3009   4.312  44.179  14.063
36469W        W 3010  40.025  33.036   1.364
36470W        W 3011   0.530  32.408  13.337
36471W        W 3012   5.219  12.873   4.315
36472W        W 3013  35.610  38.136   2.634
36473W        W 3014  28.273  34.267  13.501
36474W        W 3015  17.765  41.984  13.622
36475W        W 3016   6.480  26.226   4.443
36476W        W 3017  44.473  36.309   0.494
36477W        W 3018  15.113  10.153  13.875
36478W        W 3019  15.292  17.144   0.337
36479W        W 3020   1.268  36.597  10.964
36480W        W 3021  11.593  29.082  14.942
36481W        W 3022  27.265  43.016  12.969
36482W        W 3023   9.296  38.646   0.857
36483W        W 3024  30.440  36.451   0.677
36484W        W 3025  22.275  39.720  11.639
36485W        W 3026   3.499   6.202   3.768
36486W        W 3027   1.385  43.820   0.199
36487W        W 3028  24.811  36.565   4.104
36488W        W 3029  22.811  25.969  14.895
36489W        W 3030  26.860  37.418  12.564
36490W        W 3031  38.022  11.316   2.653
36491W        W 3032  37.361  42.464   4.199
36492W        W 3033   8.376  21.257   2.217
36493W        W 3034  29.637  23.184  11.169
36494W        W 3035  21.305  44.894  13.471
36495W        W 3036  26.874  27.086   4.579
36496W        W 3037   0.493  32.849  12.093
36497W        W 3038   1.088   3.491   4.741
36498W        W 3039   3.927  44.532  14.856
36499W        W 3040  27.687   8.313  12.164
36500W        W 3041  43.249  36.276  13.455
36501W        W 3042  24.960  39.563   4.762
36502W        W 3043  25.036  19.581   2.273
36503W        W 3044  18.084  32.950   2.626
36504W        W 3045   9.173  38.332   9.781
36505W        W 3046  27.571  32.976  11.645
36506W        W 3047  26.865  20.711   3.161
36507W        W 3048  14.595  18.239  10.672
36508W        W 3049  28.362   7.688  12.529
36509W        W 3050  32.917   5.944  11.568
36510W        W 3051  13.996  44.752   1.463
36511W        W 3052  42.589  24.141  13.915
36512W        W 3053  14.221  25.695  14.628
36513W        W 3054  33.329  35.941   3.985
36514W        W 3055   8.672   8.604  13.316
36515W        W 3056  21.671   7.405  11.160
36516W        W 3057  35.876  34.091   4.109
36517W        W 3058   1.767  42.422  11.922
36518W        W 3059  34.463  28.056   0.846
36519W        W 3060  15.879  32.438   4.946
36520W        W 3061  14.323  29.084   5.033
36521W        W 3062  40.837  32.639  10.619
36522W        W 3063   8.316  39.702  13.890
36523W        W 3064  20.312  16.050   0.213
36524W        W 3065  31.956  44.855   4.275
36525W        W 3066   1.410  13.363  12.579
36526W        W 3067   7.785  27.217  10.562
36527W        W 3068   6.254  34.156  14.003
36528W        W 3069  15.595  15.733   0.439
36529W        W 3070   4.355  13.744   1.090
36530W        W 3071  15.849  10.480   4.123
36531W        W 3072  19.201  15.393  12.025
36532W        W 3073   5.378  26.599  12.155
36533W        W 3074  12.250   9.595  14.649
36534W        W 3075  18.795  12.537   4.170
36535W        W 3076  10.111  40.234   1.858
36536W        W 3077  37.073  44.947  11.143
36537W        W 3078  20.008  30.412   0.762
36538W        W 3079  43.923  32.259   1.974
36539W        W 3080  29.437  14.660   3.323
36540W        W 3081  13.194  16.532   3.175
36541W        W 3082   4.044  35.087   3.386
36542W        W 3083   0.541  42.331  12.476
36543W        W 3084  41.885  18.521  13.883
36544W        W 3085  30.356  19.090   2.889
36545W        W 3086  31.012  34.132   2.449
36546W        W 3087  14.552  17.276  12.098
36547W        W 3088  30.478   9.777  14.850
36548W        W 3089  44.430  35.494  14.204
36549W        W 3090   0.464   5.334  13.898
36550W        W 3091  26.271  13.924   3.228
36551W        W 3092   3.148  26.802   3.593
36552W        W 3093  23.572   7.915   0.129
36553W        W 3094  10.395  25.006  12.559
36554W        W 3095  20.465  38.986   4.683
36555W        W 3096  25.166  36.458  10.578
36556W        W 3097  13.990  32.143  13.545
36557W        W 3098  29.033   4.883   2.307
36558W        W 3099  43.644  15.877   1.069
36559W        W 3100   6.393  32.011  14.930
36560W        W 3101  29.434  33.224  12.881
36561W        W 3102  20.015  15.262   3.186
36562W        W 3103  39.463   0.998   3.988
36563W        W 3104  30.777  43.229  14.703
36564W        W 3105  23.633   4.923   2.154
36565W        W 3106  17.757  14.342   0.366
36566W        W 3107   4.239   5.980   0.951
36567W        W 3108  17.495   2.195   0.036
36568W        W 3109   5.991  10.086  13.775
36569W        W 3110  26.175  16.349   3.247
36570W        W 3111  27.011  21.937  11.969
36571W        W 3112  25.220  41.752   4.506
36572W        W 3113   5.138  22.636   2.459
36573W        W 3114  19.727  24.119   4.453
36574W        W 3115  31.936  18.274  10.617
36575W        W 3116  13.745  38.479   2.773
36576W        W 3117  25.105  44.923   0.500
36577W        W 3118  33.067   2.222   2.651
36578W        W 3119  27.089  39.774   4.627
36579W        W 3120  42.626   7.911  11.585
36580W        W 3121  27.831  12.778   4.723
36581W        W 3122  20.325   3.926   1.117
36582W        W 3123  26.443  30.105   1.844
36583W        W 3124   1.349  31.786  12.314
36584W        W 3125  39.424   8.879   4.676
36585W        W 3126  17.044  10.457  10.149
36586W        W 3127   7.549  29.338   3.569
36587W        W 3128  27.466   9.979  10.622
36588W        W 3129  41.753  44.947   2.977
36589W        W 3130  30.168   5.964   1.289
36590W        W 3131   6.753  19.068  10.690
36591W        W 3132  32.502  34.319  11.078
36592W        W 3133  14.647   7.669  10.755
36593W        W 3134  33.866  32.388  13.912
36594W        W 3135   5.673   2.863  11.792
36595W        W 3136   6.932   8.626   4.036
36596W        W 3137  30.943  17.001   4.202
36597W        W 3138   1.213  38.174  11.081
36598W        W 3139  36.521  15.090  10.984
36599W        W 3140  29.484  26.799  13.861
36600W        W 3141  20.966  25.757   4.959
36601W        W 3142  40.518   5.093   1.317
36602W        W 3143  43.765  41.896  12.976
36603W        W 3144  15.938  27.376  10.633
36604W        W 3145   0.370  21.470   0.825
36605W        W 3146   5.461  22.268  12.897
36606W        W 3147   2.957   6.916  11.599
36607W        W 3148  33.962  28.168  11.509
36608W        W 3149   8.054  30.159   2.736
36609W        W 3150  36.047   5.366   3.791
36610W        W 3151   7.188  34.748   1.853
36611W        W 3152  29.087  36.382  11.963
36612W        W 3153  43.455  16.420  10.768
36613W        W 3154  25.955  39.863   0.453
36614W        W 3155  41.592  16.250  11.600
36615W        W 3156  25.598  38.744  14.546
36616W        W 3157  20.181  10.927  10.673
36617W        W 3158  22.325   1.172  11.248
36618W        W 3159  17.487  35.022  14.790
36619W        W 3160  36.975  29.732   2.659
36620W        W 3161   3.964  15.302   4.905
36621W        W 3162   3.818  16.877  12.949
36622W        W 3163  43.721  31.029   2.124
36623W        W 3164   9.454  34.529  10.953
36624W        W 3165   3.404   8.075   0.352
36625W        W 3166  34.987  12.406   2.158
36626W        W 3167  22.214  25.019  11.427
36627W        W 3168  39.529  21.132   2.126
36628W        W 3169  41.418  38.512   2.178
36629W        W 3170  26.958  18.261  10.367
36630W        W 3171  43.962  38.051  11.493
36631W        W 3172   4.912  22.205  10.243
36632W        W 3173  13.306  34.237   1.546
36633W        W 3174   1.559  22.754  13.960
36634W        W 3175  21.864   2.182  10.371
36635W        W 3176  29.797  43.731  11.176
36636W        W 3177  14.910  18.070  11.062
36637W        W 3178  24.020  23.737   3.507
36638W        W 3179  28.501  19.335  13.048
36639W        W 3180  18.255  13.854  13.945
36640W        W 3181   5.733  27.912   0.360
36641W        W 3182  43.394  14.413  13.401
36642W        W 3183  35.560  35.491  13.146
36643W        W 3184  11.532   9.111   3.129
36644W        W 3185  41.018  28.684   4.080
36645W        W 3186  24.666  18.981  14.805
36646W        W 3187  20.585  10.731   1.665
36647W        W 3188  38.921  31.196   0.947
36648W        W 3189  32.934  17.392  11.928
36649W        W 3190  42.276  20.283   0.767
36650W        W 3191   2.265  44.844  13.870
36651W        W 3192  41.976  12.823   0.874
36652W        W 3193   4.828   9.975   1.911
36653W        W 3194  33.011   5.477  11.332
36654W        W 3195  15.988   4.685   2.344
36655W        W 3196  19.695   5.791   4.074
36656W        W 3197  26.116  23.064  13.137
36657W        W 3198  18.389  10.397   2.846
36658W        W 3199  32.386  40.435   1.753
36659W        W 3200   7.622   7.563   0.551
36660W        W 3201   6.357  32.115  11.063
36661W        W 3202  37.014  30.560  10.990
36662W        W 3203  26.718  11.900  13.511
36663W        W 3204   9.817  12.882  14.714
36664W        W 3205  41.491  28.066   1.079
36665W        W 3206  27.633  42.981  12.147
36666W        W 3207   9.433   7.716  12.610
36667W        W 3208  14.535  32.479   0.284
36668W        W 3209  39.576  41.491   4.637
36669W        W 3210  17.826  39.544  11.807
36670W        W 3211   2.927  12.058   1.494
36671W        W 3212   3.419   1.950   0.242
36672W        W 3213   9.934  41.599  13.687
36673W        W 3214   0.791  19.279  13.028
36674W        W 3215   0.468  41.251   4.830
36675W        W 3216  40.433  15.808   4.563
36676W        W 3217  26.201   9.231   2.351
36677W        W 3218  19.181  41.309   1.825
36678W        W 3219  11.063  15.683  11.555
36679W        W 3220  14.276   2.907  14.385
36680W        W 3221  37.222  19.331   1.554
36681W        W 3222  14.558  33.048   2.370
36682W        W 3223   0.168  40.365   0.032
36683W        W 3224  14.215  33.630  14.774
36684W        W 3225  42.486  38.307  12.401
36685W        W 3226  34.758  12.074  12.111
36686W        W 3227  22.431  22.641  11.663
36687W        W 3228   1.012  20.613  12.681
36688W        W 3229  23.180  25.967  10.702
36689W        W 3230  19.695  15.134   3.752
36690W        W 3231  41.357  36.406  10.923
36691W        W 3232  26.666   9.967   3.704
36692W        W 3233  24.418  12.859  10.967
36693W        W 3234  42.460  28.592   4.242
36694W        W 3235  16.179  19.551   4.981
36695W        W 3236   9.386  29.543  14.686
36696W        W 3237  39.223  26.722  11.465
36697W        W 3238  24.758   1.493  14.803
36698W        W 3239  31.892   0.876   2.449
36699W        W 3240  35.962  21.984   0.464
36700W        W 3241  11.656  22.163   2.498
36701W        W 3242   8.221  26.211   0.481
36702W        W 3243  37.243  23.285  10.945
36703W        W 3244   4.211  29.335  14.888
36704W        W 3245  14.444  39.891   4.894
36705W        W 3246  10.009  34.476   4.675
36706W        W 3247  34.444  30.073   2.067
36707W        W 3248  16.164  13.662   3.842
36708W        W 3249  41.149   3.495   1.720
36709W        W 3250  16.253  26.849  10.597
36710W        W 3251  29.240  44.011  10.335
36711W        W 3252   0.715  36.400  13.035
36712W        W 3253  36.491  34.276  12.631
36713W        W 3254  27.259   4.391   4.161
36714W        W 3255  11.482   1.279   4.678
36715W        W 3256  44.308  35.930   2.441
36716W        W 3257  13.975   5.616   2.910
36717W        W 3258  13.711  37.611   3.203
36718W        W 3259  33.883  37.363   0.514
36719W        W 3260   4.138  24.567  14.265
36720W        W 3261  20.777   8.688  12.932
36721W        W 3262  32.924  38.575   0.930
36722W        W 3263  31.969  22.232   2.916
36723W        W 3264   9.641  34.566   0.825
36724W        W 3265  24.880  15.130  12.413
36725W        W 3266  20.205  19.004  14.370
36726W        W 3267  14.251  16.334   3.181
36727W        W 3268  18.935  43.474   2.002
36728W        W 3269  26.855  11.998   4.158
36729W        W 3270   5.593   5.012   4.618
36730W        W 3271  33.088  22.107   3.177
36731W        W 3272   1.226  35.136   4.645
36732W        W 3273  44.202  19.077   3.206
36733W        W 3274  36.158  33.079  13.566
36734W        W 3275   2.979  39.243  14.805
36735W        W 3276  26.112  39.847   4.312
36736W        W 3277  35.830  19.309  10.813
36737W        W 3278  36.350  14.047  11.978
36738W        W 3279  36.032  15.336  12.386
36739W        W 3280  24.092  13.766  14.783
36740W        W 3281  21.643  27.088  13.707
36741W        W 3282  25.359  11.871  12.574
36742W        W 3283  10.412   7.328   0.278
36743W        W 3284  42.394   3.173   0.531
36744W        W 3285  37.459  41.409  14.565
36745W        W 3286  44.430  27.712  12.836
36746W        W 3287  30.026  29.019   4.717
36747W        W 3288  12.760  40.516  14.166
36748W        W 3289   2.492  15.199   2.882
36749W        W 3290  36.355  23.685   3.111
36750W        W 3291  12.547   4.889   1.744
36751W        W 3292  29.085  24.701   3.181
36752W        W 3293  41.019  37.819  12.536
36753W        W 3294  31.852  44.301   3.212
36754W        W 3295  18.945   7.855  10.994
36755W        W 3296  19.978   0.405   0.021
36756W        W 3297  15.291   0.808  13.592
36757W        W 3298  10.632   1.966   2.130
36758W        W 3299  37.623  20.315   0.321
36759W        W 3300  43.512  10.287  13.682
36760W        W 3301  20.680  12.779   1.986
36761W        W 3302  31.506  23.469  12.084
36762W        W 3303   9.563   6.139  10.273
36763W        W 3304   7.798  14.761   4.353
36764W        W 3305  35.229  11.330   0.753
36765W        W 3306  30.976  30.610   1.428
36766W        W 3307   5.353  10.609   3.634
36767W        W 3308   5.010  33.125  12.052
36768W        W 3309  26.676  17.670   4.482
36769W        W 3310  34.444   0.281   0.551
36770W        W 3311   1.205  15.464  14.400
36771W        W 3312  39.794   7.596   2.321
36772W        W 3313  39.449  21.518  12.204
36773W        W 3314   0.751  37.494  11.469
36774W        W 3315  28.472  40.586  14.866
36775W        W 3316  32.587  27.679   5.033
36776W        W 3317  26.442  38.789  13.854
36777W        W 3318   0.016  19.958  10.773
36778W        W 3319   8.154   1.907  12.160
36779W        W 3320  25.533  38.828   2.406
36780W        W 3321  12.613  32.657   3.691
36781W        W 3322  41.268  28.960   4.829
36782W        W 3323  35.027  11.881   0.429
36783W        W 3324   2.755  43.298  14.725
36784W        W 3325  11.815  36.092   4.158
36785W        W 3326  20.999  43.311  14.484
36786W        W 3327  10.320  17.421   5.148
36787W        W 3328  22.155  26.011   0.836
36788W        W 3329   7.225  30.445  11.191
36789W        W 3330   0.403  41.948   3.593
36790W        W 3331  26.544  44.589   1.889
36791W        W 3332  18.349  36.515   1.202
36792W        W 3333  21.388  31.466   4.586
36793W        W 3334  27.519  26.666  12.368
36794W        W 3335  20.139   8.272   1.895
36795W        W 3336  44.172   4.441   0.028
36796W        W 3337  41.555   6.253   2.758
36797W        W 3338  25.140   5.824  11.555
36798W        W 3339  35.877  34.048  13.415
36799W        W 3340  19.830  12.538   0.290
36800W        W 3341  18.008  13.706   0.939
36801W        W 3342   5.353  21.693  12.222
36802W        W 3343  27.662  25.269  13.437
36803W        W 3344  17.220  36.083   1.304
36804W        W 3345  10.777   2.015   1.079
36805W        W 3346   4.920   7.266   0.056
36806W        W 3347  20.393  25.101  11.499
36807W        W 3348  10.409   0.718   0.305
36808W        W 3349  17.671  38.851  13.634
36809W        W 3350  20.514  32.405  12.140
36810W        W 3351  32.910  33.555   2.159
36811W        W 3352  34.497  24.664   3.399
36812W        W 3353  28.410  20.802   3.215
36813W        W 3354   6.918  27.783   3.160
36814W        W 3355  10.153   7.237   2.794
36815W        W 3356  34.969  43.073  12.172
36816W        W 3357  41.441  38.983   3.878
36817W        W 3358   0.447  17.926   4.086
36818W        W 3359  24.006  17.275   0.817
36819W        W 3360   0.484  19.137  14.977
36820W        W 3361  22.544  25.377  11.613
36821W        W 3362  13.573  44.573  13.488
36822W        W 3363  41.888  26.187  11.503
36823W        W 3364  32.930   0.012  14.889
36824W        W 3365  26.067  37.830  10.730
36825W        W 3366  24.172  24.153  12.446
36826W        W 3367  24.282  10.139   3.690
36827W        W 3368   1.417  41.972  11.576
36828W        W 3369   5.883  26.608   0.769
36829W        W 3370  21.249  18.602  12.567
36830W        W 3371  39.953  23.718   3.433
36831W        W 3372   3.975  11.195  14.285
36832W        W 3373  32.919  22.798   2.821
36833W        W 3374  29.108  27.468   0.273
36834W        W 3375  30.547  21.584  14.981
36835W        W 3376  12.672   8.601   3.819
36836W        W 3377  37.530  29.820   4.584
36837W        W 3378   2.855  10.691  11.324
36838W        W 3379   9.801  29.865  12.065
36839W        W 3380   0.842  43.146  11.261
36840W        W 3381  33.190   1.130  12.189
36841W        W 3382   6.876  44.346   3.657
36842W        W 3383  35.409  29.542  11.925
36843W        W 3384  44.890  19.266  12.287
36844W        W 3385  26.598  31.744   1.360
36845W        W 3386  32.174  14.058  12.820
36846W        W 3387  23.691  25.618  12.553
36847W        W 3388  23.578   1.438  11.786
36848W        W 3389  28.721   9.717  12.048
36849W        W 3390  24.992  13.149  11.617
36850W        W 3391  33.623  32.559   3.291
36851W        W 3392   8.161   9.605   4.659
36852W        W 3393  42.424  12.831   4.170
36853W        W 3394  40.209   6.796   3.603
36854W        W 3395  41.900  12.702  12.190
36855W        W 3396  11.726  35.256   5.347
36856W        W 3397  19.636  26.933  13.538
36857W        W 3398  23.040   6.713   2.829
36858W        W 3399  21.594  31.438  13.798
36859W        W 3400  35.960  29.869  14.818
36860W        W 3401  35.171  44.516   4.468
36861W        W 3402   4.457  21.553  11.398
36862W        W 3403  14.042  36.805   4.538
36863W        W 3404  21.071  17.157  11.249
36864W        W 3405  34.006  29.311  10.744
36865W        W 3406  44.923  26.253  10.774
36866W        W 3407  35.071   8.543   2.429
36867W        W 3408  26.094  21.750   2.903
36868W        W 3409  31.646  18.223   2.045
36869W        W 3410  18.221  14.379  13.843
36870W        W 3411  32.800  22.541   4.205
36871W        W 3412  21.156  28.870  12.584
36872W        W 3413  16.805  11.450   2.194
36873W        W 3414  34.124  27.399  13.604
36874W        W 3415  15.609  42.213   1.811
36875W        W 3416  19.096  21.627  12.465
36876W        W 3417   1.314  13.804   0.058
36877W        W 3418  44.905  27.125  11.769
36878W        W 3419  21.992  19.213   1.429
36879W        W 3420   9.105  33.776  13.281
36880W        W 3421  38.350  34.064   1.795
36881W        W 3422  27.106  40.933   0.331
36882W        W 3423  37.180  37.232   3.419
36883W        W 3424  43.299  34.977  14.538
36884W        W 3425  16.290  33.366  14.421
36885W        W 3426   8.413  40.203   5.096
36886W        W 3427   2.978   4.304  14.440
36887W        W 3428  11.248  32.505  12.451
36888W        W 3429  18.958  42.756  11.314
36889W        W 3430  29.354  19.125   2.854
36890W        W 3431  36.727   8.340   1.260
36891W        W 3432  34.265  32.642   4.938
36892W        W 3433   6.854   4.047   4.580
36893W        W 3434  40.319  28.527  12.930
36894W        W 3435  21.892  23.499  13.815
36895W        W 3436  31.570   1.517   4.619
36896W        W 3437  36.581  21.696   4.029
36897W        W 3438  41.063  38.518  14.282
36898W        W 3439   5.899   0.145   4.528
36899W        W 3440   3.529  17.171  12.608
36900W        W 3441   8.870  27.971  12.644
36901W        W 3442  27.854  44.818  14.893
36902W        W 3443  32.525  28.607  12.962
36903W        W 3444   9.302  25.755  11.113
36904W        W 3445  24.251  32.573  13.077
36905W        W 3446  43.533  40.918   4.126
36906W        W 3447  40.158  11.937   9.830
36907W        W 3448   6.324  17.796  11.054
36908W        W 3449  44.768  44.580  12.890
36909W        W 3450  29.190  41.334   4.465
36910W        W 3451  30.270   5.874  14.735
36911W        W 3452  13.240   2.600  13.131
36912W        W 3453  23.036  26.137   2.150
36913W        W 3454  39.904   7.999   3.192
36914W        W 3455  37.500  21.492  12.256
36915W        W 3456  13.532  28.098  11.912
36916W        W 3457   5.221  20.658   2.185
36917W        W 3458   3.291  27.585  11.198
36918W        W 3459  37.830   5.237   0.256
36919W        W 3460  20.193  35.880  10.705
36920W        W 3461  42.740  11.818   3.310
36921W        W 3462  13.028   0.875  11.929
36922W        W 3463  35.323   5.767   5.027
36923W        W 3464  28.682  42.390   2.190
36924W        W 3465  19.022  42.924  13.858
36925W        W 3466  17.574  17.547   2.764
36926W        W 3467  39.982  43.866  10.823
36927W        W 3468  10.402  14.295   1.394
36928W        W 3469   4.985  35.362   1.453
36929W        W 3470  30.095  27.950   2.318
36930W        W 3471  43.146  23.345  11.526
36931W        W 3472  41.019  21.088  11.342
36932W        W 3473  11.594  23.494   3.583
36933W        W 3474  40.517  12.082  13.486
36934W        W 3475  38.987  32.184   2.252
36935W        W 3476  42.419   9.779  10.191
36936W        W 3477   0.976   9.825   0.386
36937W        W 3478   5.232   0.813   1.957
36938W        W 3479  38.194  16.156   3.831
36939W        W 3480  15.886  44.558   0.409
36940W        W 3481  12.790  23.573  14.816
36941W        W 3482  38.260  26.748  13.162
36942W        W 3483  17.320  29.733  12.553
36943W        W 3484  36.430  11.063   1.345
36944W        W 3485  44.231  41.332   0.456
36945W        W 3486  25.014  24.009  13.373
36946W        W 3487  20.273  38.257  12.245
36947W        W 3488  13.276  20.528   1.742
36948W        W 3489  21.668  38.418   4.979
36949W        W 3490   4.895   0.469  12.409
36950W        W 3491  11.124   5.271  12.491
36951W        W 3492  20.529  11.372  13.827
36952W        W 3493  32.536  42.111   4.669
36953W        W 3494  43.508   7.725   0.253
36954W        W 3495  32.409   5.011  13.488
36955W        W 3496  22.244  32.423   0.700
36956W        W 3497  43.922   2.401  11.296
36957W        W 3498   2.941  10.814  14.541
36958W        W 3499  44.835  34.971   0.455
36959W        W 3500  34.737  40.962  13.021
36960W        W 3501  23.674  18.009  14.913
36961W        W 3502  14.989  19.089   0.919
36962W        W 3503  37.122  21.400  11.149
36963W        W 3504  18.649  34.740   2.305
36964W        W 3505  11.670  22.200  14.238
36965W        W 3506  42.616  16.651  13.069
36966W        W 3507   1.404  15.591  11.702
36967W        W 3508  39.857  43.246   4.533
36968W        W 3509  27.678  10.937   0.452
36969W        W 3510  29.601   6.750   2.199
36970W        W 3511   3.654  36.601  14.254
36971W        W 3512  39.322   3.388   1.760
36972W        W 3513  23.948  34.053   3.948
36973W        W 3514  21.067   3.818  13.806
36974W        W 3515  14.195  16.052   2.727
36975W        W 3516  22.845  39.161  13.964
36976W        W 3517  38.710  44.324  14.552
36977W        W 3518  22.754   9.845  12.552
36978W        W 3519   4.544  28.449  14.951
36979W        W 3520  12.638  13.087  12.002
36980W        W 3521  28.147  33.972   2.202
36981W        W 3522  39.324  34.952  12.878
36982W        W 3523   2.998  31.152  13.982
36983W        W 3524  27.940  12.662  10.031
36984W        W 3525  15.451  18.504  12.441
36985W        W 3526  12.259   0.229   1.938
36986W        W 3527  14.821  32.205  12.002
36987W        W 3528   0.143  38.933  13.388
36988W        W 3529  14.225  43.505  10.587
36989W        W 3530  42.915   4.477   4.141
36990W        W 3531   8.916  15.633  11.071
36991W        W 3532  15.919  44.411  14.364
36992W        W 3533  17.171  33.860   0.309
36993W        W 3534   7.802  20.766  14.684
36994W        W 3535  15.756  41.228   4.068
36995W        W 3536  35.967   6.730   1.275
36996W        W 3537   1.734   6.446  14.228
36997W        W 3538  23.007   5.665  12.157
36998W        W 3539  24.629  37.537   1.989
36999W        W 3540  27.919  30.961  13.802
37000W        W 3541  31.034  27.158  13.072
37001W        W 3542  40.110  34.931  13.384
37002W        W 3543  34.157  10.170  13.958
37003W        W 3544  11.463   0.045   2.658
37004W        W 3545  12.835  40.328  10.882
37005W        W 3546   9.319  43.256  10.726
37006W        W 3547  18.958   4.356  12.215
37007W        W 3548   6.721  26.232  12.515
37008W        W 3549  17.383   0.790   0.279
37009W        W 3550  21.493  19.207   3.135
37010W        W 3551  26.509  21.739   0.277
37011W        W 3552   6.987  37.695  12.492
37012W        W 3553  21.544  11.546   2.298
37013W        W 3554  21.465   0.528  14.675
37014W        W 3555  17.745  26.041  10.460
37015W        W 3556  12.728  15.080  10.955
37016W        W 3557  33.423  14.806   1.292
37017W        W 3558  24.519  37.570   3.909
37018W        W 3559  15.644  40.105   2.072
37019W        W 3560  31.534   5.752  10.905
37020W        W 3561  33.144  18.524   0.445
37021W        W 3562  43.375  15.269  12.217
37022W        W 3563  21.629  31.977  13.596
37023W        W 3564  30.082  28.161   4.065
37024W        W 3565  36.520  34.428   3.943
37025W        W 3566   0.170  44.944   4.055
37026W        W 3567   9.088  14.622  14.337
37027W        W 3568  13.347  12.341  11.403
37028W        W 3569  11.235  16.155  11.683
37029W        W 3570  16.640  14.625  13.498
37030W        W 3571   2.675  40.887   0.360
37031W        W 3572  37.421  14.733   1.260
37032W        W 3573  15.772   5.769   3.742
37033W        W 3574  31.346  22.643   4.605
37034W        W 3575  22.071  28.723  11.562
37035W        W 3576   9.624  41.445   3.846
37036W        W 3577  14.818  36.302   4.101
37037W        W 3578  19.679  31.909  12.051
37038W        W 3579   1.974  24.466   0.413
37039W        W 3580  15.037  32.201   4.108
37040W        W 3581   6.869  18.327  12.077
37041W        W 3582  43.993  29.817  11.415
37042W        W 3583  24.005   5.118   1.394
37043W        W 3584  36.851  41.981   1.491
37044W        W 3585  40.799   5.295  10.649
37045W        W 3586   8.740  41.978  13.993
37046W        W 3587  26.590  40.310   0.964
37047W        W 3588  16.833   0.711   3.152
37048W        W 3589  19.748  10.398  12.461
37049W        W 3590   2.148  29.248  13.099
37050W        W 3591  22.279   2.735  14.297
37051W        W 3592  31.901  32.008   3.112
37052W        W 3593  33.974  17.655   3.074
37053W        W 3594  23.427  35.076  14.024
37054W        W 3595  34.071  30.011  14.903
37055W        W 3596  38.619  26.932   1.284
37056W        W 3597  27.446  35.846  11.634
37057W        W 3598  38.481  29.088  10.743
37058W        W 3599  38.266  22.931  11.208
37059W        W 3600  13.109  31.713  11.955
37060W        W 3601  31.847  44.307  14.802
37061W        W 3602  43.516  25.721  13.825
37062W        W 3603  40.897  28.507  10.646
37063W        W 3604  19.652  34.893   1.025
37064W        W 3605  39.764  26.326   1.693
37065W        W 3606  10.354   7.808   0.936
37066W        W 3607   7.877   4.157  14.771
37067W        W 3608  17.478   9.692   4.173
37068W        W 3609  19.162  43.011   3.387
37069W        W 3610  42.115   5.467  11.468
37070W        W 3611  41.006   3.765   2.138
37071W        W 3612  22.977   0.843   2.708
37072W        W 3613  38.911  42.494   0.670
37073W        W 3614  11.835  10.668  12.883
37074W        W 3615   1.699  20.766   0.951
37075W        W 3616  17.278  16.012  10.543
37076W        W 3617  33.913  44.264  10.443
37077W        W 3618   4.750  41.302  12.230
37078W        W 3619   8.420  13.176  12.899
37079W        W 3620  29.591  16.533   4.765
37080W        W 3621  23.943  39.909  13.763
37081W        W 3622  44.067   5.923   0.473
37082W        W 3623  44.543   5.845   4.693
37083W        W 3624   3.828  16.465  12.049
37084W        W 3625  14.862  18.269   0.845
37085W        W 3626  33.318  13.902  10.104
37086W        W 3627   5.338  10.833   3.163
37087W        W 3628  39.252  13.112  11.600
37088W        W 3629  22.151  44.312  14.846
37089W        W 3630  12.772  40.248  14.602
37090W        W 3631  27.857   4.372   2.462
37091W        W 3632  24.251  40.237   4.944
37092W        W 3633  42.885   4.176  14.440
37093W        W 3634   2.621  32.073  10.638
37094W        W 3635  21.663  37.093   4.102
37095W        W 3636  17.806  38.496  11.056
37096W        W 3637  35.227  17.750   4.234
37097W        W 3638  14.569  16.968   1.424
37098W        W 3639  13.529   2.485  13.537
37099W        W 3640  11.021  35.459   1.375
37100W        W 3641  15.877   8.404  11.998
37101W        W 3642  16.603   7.932   3.989
37102W        W 3643   3.722   9.963   1.693
37103W        W 3644  13.796  17.511  10.695
37104W        W 3645  41.495  42.010   1.921
37105W        W 3646  29.231   1.489   0.225
37106W        W 3647  18.950  21.590  14.296
37107W        W 3648  10.595   1.997  10.344
37108W        W 3649   0.272  14.479   2.753
37109W        W 3650   9.707  41.558   2.963
37110W        W 3651   6.782  42.772  14.348
37111W        W 3652   7.388  34.178  13.513
37112W        W 3653   3.948  42.748   0.308
37113W        W 3654   5.664  25.841  10.824
37114W        W 3655  35.076  33.482   4.281
37115W        W 3656   1.695  27.966   2.907
37116W        W 3657   8.002  16.648   3.136
37117W        W 3658   5.137  27.323   5.607
37118W        W 3659  30.387  16.232  13.354
37119W        W 3660  11.650  31.375   1.341
37120W        W 3661  21.567  12.021   4.085
37121W        W 3662  41.054  12.697   0.373
37122W        W 3663  39.441  42.311   4.148
37123W        W 3664  27.031   4.670   1.947
37124W        W 3665  26.124  10.748  14.245
37125W        W 3666  23.764  15.364   0.225
37126W        W 3667  18.155  28.524   1.434
37127W        W 3668  25.355  33.541   0.714
37128W        W 3669  22.029  25.306  12.826
37129W        W 3670   2.435  24.544   4.246
37130W        W 3671  13.498   0.713  13.393
37131W        W 3672  26.875  33.546   3.166
37132W        W 3673  21.394  28.559  14.590
37133W        W 3674   5.939  36.859  14.402
37134W        W 3675   2.225   7.255  12.639
37135W        W 3676   5.117  23.202  14.805
37136W        W 3677  36.522  12.077   3.158
37137W        W 3678   3.592  28.605  11.145
37138W        W 3679  21.566  36.834   1.908
37139W        W 3680  22.453  37.561   0.952
37140W        W 3681  25.526  41.225  12.048
37141W        W 3682  27.470  19.194   4.173
37142W        W 3683  18.339  20.922  14.299
37143W        W 3684  21.230   9.033   1.337
37144W        W 3685  40.815  14.081  12.418
37145W        W 3686  11.318  34.668  11.308
37146W        W 3687  43.994   4.629   4.854
37147W        W 3688  32.715  24.151   3.001
37148W        W 3689  36.087  40.282   2.737
37149W        W 3690  29.669  20.051   2.338
37150W        W 3691   2.164  30.124  10.155
37151W        W 3692  34.935  37.986  12.810
37152W        W 3693  22.049  11.203   1.666
37153W        W 3694  21.153  19.010   2.765
37154W        W 3695  12.290   8.259   3.783
37155W        W 3696  29.419  10.339  13.473
37156W        W 3697  23.426  36.095  12.593
37157W        W 3698  11.841  44.408  10.776
37158W        W 3699  38.627  14.741  13.027
37159W        W 3700   0.534  39.437   4.296
37160W        W 3701  43.424  10.167  13.204
37161W        W 3702  44.336  38.655  13.336
37162W        W 3703  26.083  42.284   1.807
37163W        W 3704  12.210  38.861   4.596
37164W        W 3705  17.774  39.406   3.217
37165W        W 3706   2.977  16.136   2.879
37166W        W 3707  23.091  36.113  11.262
37167W        W 3708   1.787   4.333   4.509
37168W        W 3709  14.424  17.114  14.330
37169W        W 3710   1.263  19.638  13.899
37170W        W 3711  34.733  15.562  10.282
37171W        W 3712  16.202   2.964  13.425
37172W        W 3713  21.185   9.519   1.177
37173W        W 3714  37.002  40.094  12.990
37174W        W 3715  38.302  16.145  11.541
37175W        W 3716  42.510  11.207  11.226
37176W        W 3717  18.123  33.325  14.930
37177W        W 3718  24.143  18.025   1.279
37178W        W 3719  41.337  39.001   2.336
37179W        W 3720  37.914  26.777  12.782
37180W        W 3721  39.590  11.729   0.686
37181W        W 3722   5.930   3.260   2.886
37182W        W 3723  40.538  39.874   1.456
37183W        W 3724   8.911  43.026   0.738
37184W        W 3725  18.984  18.549   2.863
37185W        W 3726  26.476   0.627  10.848
37186W        W 3727  16.784  44.745   3.136
37187W        W 3728  10.687   8.818   3.440
37188W        W 3729  12.673  43.238   3.413
37189W        W 3730  41.568  33.069  10.743
37190W        W 3731  17.379  10.087  10.012
37191W        W 3732  16.777  23.817   1.855
37192W        W 3733  28.399  43.972  12.966
37193W        W 3734  20.231  29.976   0.928
37194W        W 3735   7.296  25.911   4.714
37195W        W 3736  22.597  43.988   4.512
37196W        W 3737  21.257  21.656   1.195
37197W        W 3738  39.811  37.807   1.458
37198W        W 3739   2.497  32.243  14.412
37199W        W 3740  18.610  38.887  13.297
37200W        W 3741   2.800  21.200  14.281
37201W        W 3742  24.503  24.957   1.808
37202W        W 3743  32.427  43.577   0.942
37203W        W 3744  35.834  23.231   1.306
37204W        W 3745   5.640  21.308  13.136
37205W        W 3746  11.571  13.118  14.352
37206W        W 3747  32.086  21.544   3.714
37207W        W 3748  32.887  11.750  14.409
37208W        W 3749  43.289  11.322  12.094
37209W        W 3750  35.326  11.754  13.254
37210W        W 3751  36.759  28.355  14.515
37211W        W 3752  33.682  24.044  13.470
37212W        W 3753   8.575  30.719   0.211
37213W        W 3754  43.911  31.244  12.116
37214W        W 3755  14.250  42.873   3.514
37215W        W 3756  13.192  25.192   3.976
37216W        W 3757  25.258  26.040   1.349
37217W        W 3758   0.001  34.918   3.239
37218W        W 3759  18.974  19.313  13.133
37219W        W 3760  14.658  42.661   4.290
37220W        W 3761  18.152  44.966  14.048
37221W        W 3762  22.746  23.461   2.000
37222W        W 3763  37.123  43.703  11.606
37223W        W 3764   2.467  37.972   4.874
37224W        W 3765  43.339  42.455  11.417
37225W        W 3766  21.683  38.879   4.433
37226W        W 3767  36.241  30.960   1.258
37227W        W 3768  33.091  16.869   3.688
37228W        W 3769  36.999  19.671  11.621
37229W        W 3770   6.517  21.522   5.011
37230W        W 3771  14.812   5.908  12.140
37231W        W 3772  30.121   4.446   1.716
37232W        W 3773  24.783  16.161   4.158
37233W        W 3774  18.045   0.261  14.466
37234W        W 3775  12.220   2.936   3.611
37235W        W 3776   6.392  31.142  12.855
37236W        W 3777  13.605  25.146  13.765
37237W        W 3778   3.342   3.457   0.401
37238W        W 3779  32.393   2.926   0.653
37239W        W 3780  41.859  10.637  12.974
37240W        W 3781  41.884   7.896   4.183
37241W        W 3782   2.176   7.016  11.068
37242W        W 3783   2.292  43.047  12.310
37243W        W 3784   0.499  42.404   2.734
37244W        W 3785   7.117  19.771   4.486
37245W        W 3786  27.630  10.318   4.561
37246W        W 3787   7.336  42.520  11.968
37247W        W 3788   8.244   4.995  12.542
37248W        W 3789  16.584  14.207   2.814
37249W        W 3790  20.172  36.853   0.431
37250W        W 3791  17.697  28.959  14.841
37251W        W 3792  21.183  34.505  11.472
37252W        W 3793  19.119   8.298   0.032
37253W        W 3794   2.793  11.335  12.113
37254W        W 3795   4.712  34.524  14.396
37255W        W 3796   4.616   1.492  14.378
37256W        W 3797  26.502  28.362   4.732
37257W        W 3798  14.311   2.830   3.199
37258W        W 3799  30.033   1.953  13.844
37259W        W 3800  35.646  33.978  11.128
37260W        W 3801  10.168  17.326  14.232
37261W        W 3802  32.058  16.403   1.401
37262W        W 3803  32.676  35.034  11.775
37263W        W 3804   7.250  30.372  14.155
37264W        W 3805  32.135  43.019  11.174
37265W        W 3806  31.884  27.881  13.149
37266W        W 3807  29.025  36.158  14.103
37267W        W 3808  26.398  10.934  14.967
37268W        W 3809  41.228   4.532  12.092
37269W        W 3810  19.519  20.362  13.535
37270W        W 3811  34.882   5.442   0.387
37271W        W 3812   5.735  26.650  11.350
37272W        W 3813  33.670  10.364  14.274
37273W        W 3814   8.726   0.712   0.965
37274W        W 3815   0.041  42.947   3.473
37275W        W 3816  22.730  11.207   0.453
37276W        W 3817   4.414  24.800  13.896
37277W        W 3818  26.403  37.552   2.744
37278W        W 3819  20.040  43.167   1.425
37279W        W 3820  34.230  22.320  11.705
37280W        W 3821  18.746  28.107  10.714
37281W        W 3822  30.885  12.804  13.363
37282W        W 3823  34.084   5.616  13.409
37283W        W 3824  21.268  17.097   4.590
37284W        W 3825  11.953   4.138   4.052
37285W        W 3826  35.689  23.412   4.064
37286W        W 3827  20.155  28.717   3.719
37287W        W 3828  26.193   6.193   4.217
37288W        W 3829  19.524  26.419  13.564
37289W        W 3830  21.088  17.535   3.692
37290W        W 3831  22.249  11.785   0.431
37291W        W 3832  22.167  43.084  12.149
37292W        W 3833  32.992  17.300  10.636
37293W        W 3834   1.426  34.808  10.785
37294W        W 3835  31.152   6.711  14.469
37295W        W 3836  21.698   6.354  12.156
37296W        W 3837  14.113  19.191  12.564
37297W        W 3838  15.054  23.281  10.965
37298W        W 3839  12.811  20.631  10.662
37299W        W 3840   7.483  15.193   4.332
37300W        W 3841  40.511   8.766  11.126
37301W        W 3842  21.159  22.205   4.955
37302W        W 3843  11.870   2.351  10.686
37303W        W 3844  44.402  24.437   1.657
37304W        W 3845  17.818  43.192   2.158
37305W        W 3846  34.641  20.874  11.511
37306W        W 3847   8.913  42.112   0.860
37307W        W 3848   1.764  29.004   0.205
37308W        W 3849   9.510  37.974  11.928
37309W        W 3850  13.340   7.807  10.408
37310W        W 3851  34.126  12.746   3.239
37311W        W 3852  11.380  40.709  11.077
37312W        W 3853  28.992   1.055  14.327
37313W        W 3854  24.048  33.703   1.354
37314W        W 3855   4.117  17.266   0.653
37315W        W 3856   3.454   0.492   4.754
37316W        W 3857   7.820  35.901  12.914
37317W        W 3858  40.451  27.967  10.375
37318W        W 3859   7.326  28.530   0.038
37319W        W 3860  33.797   6.892  12.245
37320W        W 3861   4.884  26.638   4.485
37321W        W 3862  15.249  16.715  12.305
37322W        W 3863  20.516  30.088  13.147
37323W        W 3864  13.674   5.881  14.068
37324W        W 3865  24.585  23.294  14.305
37325W        W 3866   8.692  17.882   0.415
37326W        W 3867  41.338  36.539   3.612
37327W        W 3868   0.522   0.996   2.219
37328W        W 3869  39.049  33.653  11.103
37329W        W 3870  37.145  37.353  10.658
37330W        W 3871  41.635  44.257   2.168
37331W        W 3872   4.844  37.651  11.618
37332W        W 3873  36.459  23.986  10.638
37333W        W 3874  44.211  32.670   2.171
37334W        W 3875  40.750  41.432  12.706
37335W        W 3876  24.703  35.493  12.891
37336W        W 3877  25.005  35.017   2.321
37337W        W 3878   6.066  38.953   5.114
37338W        W 3879   3.839  28.574  14.282
37339W        W 3880   1.673  38.849  12.265
37340W        W 3881  25.107  18.699   0.832
37341W        W 3882   0.798  28.135   0.600
37342W        W 3883  30.690  36.377   3.651
37343W        W 3884  12.656  41.841  13.953
37344W        W 3885   3.934   0.250   1.335
37345W        W 3886  34.028  22.804  11.722
37346W        W 3887   0.888  27.014   3.815
37347W        W 3888  40.017   8.569  14.787
37348W        W 3889  14.606  34.880  11.121
37349W        W 3890  26.576  44.588   0.923
37350W        W 3891  42.446  41.579  13.790
37351W        W 3892  19.482  19.459  10.918
37352W        W 3893  12.184  31.435  14.739
37353W        W 3894   2.258  29.595  11.984
37354W        W 3895  41.429   7.675   1.568
37355W        W 3896  16.154  39.380  14.394
37356W        W 3897  16.714  24.541  12.123
37357W        W 3898  11.301  28.085  11.122
37358W        W 3899  10.397  36.186  12.435
37359W        W 3900  20.639  14.602  12.560
37360W        W 3901   0.679  12.624   3.298
37361W        W 3902   1.814  24.261   2.006
37362W        W 3903  20.206  22.074   0.204
37363W        W 3904  16.733  43.365  14.409
37364W        W 3905  15.209  12.992   0.869
37365W        W 3906  30.340  20.709   0.817
37366W        W 3907   0.208  26.662   1.253
37367W        W 3908   0.798  26.151  12.459
37368W        W 3909  33.444  12.265   1.207
37369W        W 3910  25.580   5.691   0.705
37370W        W 3911  15.850  26.978   4.176
37371W        W 3912  10.790  29.486   2.547
37372W        W 3913  13.303  33.522  12.133
37373W        W 3914   7.732  13.179  12.454
37374W        W 3915  22.139  44.594  14.413
37375W        W 3916   1.728   9.404  12.000
37376W        W 3917  16.187  31.631   0.377
37377W        W 3918  27.599  16.740  13.679
37378W        W 3919  38.008  23.275  14.905
37379W        W 3920  11.849  24.532  13.308
37380W        W 3921   4.733  24.005  14.063
37381W        W 3922  40.066  27.008   3.308
37382W        W 3923  26.969  13.633  11.797
37383W        W 3924  23.935  16.276  12.871
37384W        W 3925  11.737  19.985   2.312
37385W        W 3926  10.670  39.075   3.600
37386W        W 3927  10.761  32.538   2.807
37387W        W 3928  32.248  25.749  11.971
37388W        W 3929  13.134  15.321   1.002
37389W        W 3930   3.451   0.073   0.315
37390W        W 3931   0.749  14.594  11.774
37391W        W 3932  15.633  41.297   2.983
37392W        W 3933  39.107  29.642  13.586
37393W        W 3934  40.424  29.694  14.759
37394W        W 3935  24.128  35.263  12.889
37395W        W 3936   7.843  36.728  14.929
37396W        W 3937  31.515  39.852   1.814
37397W        W 3938  44.504  25.611   3.853
37398W        W 3939  23.795  22.676   0.826
37399W        W 3940   4.182  31.999   1.199
37400W        W 3941   2.918  15.916  11.001
37401W        W 3942   1.971  26.547  13.839
37402W        W 3943   2.153  18.609  12.534
37403W        W 3944   4.134  16.793  11.196
37404W        W 3945   6.610  43.937   4.900
37405W        W 3946  24.068   1.379  11.932
37406W        W 3947  26.470  11.708  13.910
37407W        W 3948  29.662   4.983  12.457
37408W        W 3949  38.496  21.952   1.810
37409W        W 3950  20.089  15.273  11.778
37410W        W 3951   0.375   0.294  10.907
37411W        W 3952  21.961   6.748  12.369
37412W        W 3953   0.949  10.144   3.208
37413W        W 3954  10.381  26.629  14.002
37414W        W 3955  39.290  15.272   4.086
37415W        W 3956  24.690  29.382  12.066
37416W        W 3957   9.655  28.018  13.207
37417W        W 3958  15.725  40.006  13.601
37418W        W 3959  37.031  34.832   1.536
37419W        W 3960  21.806  41.052   3.079
37420W        W 3961  25.953   7.698  11.528
37421W        W 3962   7.165  16.686  13.273
37422W        W 3963  44.806  35.528  12.037
37423W        W 3964   1.558  16.251  11.164
37424W        W 3965  16.971  13.783   4.464
37425W        W 3966   9.884   7.878   0.752
37426W        W 3967  39.011  25.318   0.042
37427W        W 3968  28.099  40.446   5.086
37428W        W 3969   4.759  14.084  12.121
37429W        W 3970  41.439  13.604   3.131
37430W        W 3971  33.323  36.880   4.947
37431W        W 3972   1.599  33.650  11.624
37432W        W 3973  19.570  17.665   3.873
37433W        W 3974   4.920  36.433  11.673
37434W        W 3975  16.024  42.556   3.710
37435W        W 3976  41.034  10.102   4.584
37436W        W 3977  25.331   2.473   2.625
37437W        W 3978  30.127  33.870  13.388
37438W        W 3979  33.406  36.700  12.403
37439W        W 3980  16.248  29.498  13.324
37440W        W 3981  39.966  25.188   2.371
37441W        W 3982  37.371  11.711  12.800
37442W        W 3983  44.558  44.953   2.729
37443W        W 3984  19.123   5.833   1.726
37444W        W 3985  39.707   8.793  11.595
37445W        W 3986  16.792   6.270   3.816
37446W        W 3987  36.997  25.526  14.951
37447W        W 3988   6.559  14.053   1.395
37448W        W 3989  41.104  11.211  14.836
37449W        W 3990  22.245  36.071   1.997
37450W        W 3991  32.059  37.578   4.008
37451W        W 3992  37.829  40.421   2.473
37452W        W 3993   6.852  32.416  14.420
37453W        W 3994  41.930  24.677   1.175
37454W        W 3995   7.906  13.916  12.929
37455W        W 3996  36.935  32.050   4.425
37456W        W 3997   5.967  32.428  13.883
37457W        W 3998   7.410   1.421   5.009
37458W        W 3999   9.451   1.235  11.908
37459W        W 4000   0.462  11.517   1.381
37460W        W 4001  42.820   2.287   2.332
37461W        W 4002  33.489  42.180   2.940
37462W        W 4003  13.701  37.251  12.960
37463W        W 4004  23.588  33.165   0.793
37464W        W 4005  24.024  22.977  13.626
37465W        W 4006   1.220   6.558  13.143
37466W        W 4007  22.929  17.247  13.936
37467W        W 4008  23.447   8.826  14.827
37468W        W 4009  18.646  21.480   0.795
37469W        W 4010   3.748  26.886   2.304
37470W        W 4011   5.324  10.803  13.996
37471W        W 4012  22.713  14.204  13.941
37472W        W 4013  11.862   1.073   1.808
37473W        W 4014  10.842  35.284  11.513
37474W        W 4015   9.676  33.896  13.498
37475W        W 4016  14.669  33.575  14.543
37476W        W 4017  44.341   3.837  12.090
37477W        W 4018  17.069  14.563  13.807
37478W        W 4019  33.950  30.653   1.553
37479W        W 4020  18.626   8.903   0.553
37480W        W 4021   8.821   7.478   2.632
37481W        W 4022  22.955  42.459   1.858
37482W        W 4023   5.286  42.577   4.643
37483W        W 4024   2.927  31.662  13.968
37484W        W 4025  16.153   3.457  12.572
37485W        W 4026  17.148  27.237  13.949
37486W        W 4027  23.069  30.089  12.151
37487W        W 4028  26.699  18.197  14.040
37488W        W 4029  15.929   6.890  10.718
37489W        W 4030  12.274  15.269   0.458
37490W        W 4031  16.643  43.836  12.984
37491W        W 4032  29.589  40.382   3.343
37492W        W 4033  43.443  32.967  14.947
37493W        W 4034  44.022  36.051   9.921
37494W        W 4035  18.188  36.530   3.199
37495W        W 4036  37.749  25.617   1.414
37496W        W 4037   9.618  38.559  11.080
37497W        W 4038   6.285  15.629  12.555
37498W        W 4039  14.220  35.156  12.261
37499W        W 4040  41.963  15.664   0.235
37500W        W 4041   7.806   5.479  13.482
37501W        W 4042  32.663  14.081   2.894
37502W        W 4043  18.140   1.717  10.769
37503W        W 4044  16.160   4.662   4.285
37504W        W 4045   4.020  42.757  11.565
37505W        W 4046   5.465  18.736  11.636
37506W        W 4047  30.389  32.690  11.097
37507W        W 4048  25.254  27.171  11.010
37508W        W 4049  21.068  33.634  12.472
37509W        W 4050  22.032  35.357   0.819
37510W        W 4051  43.872  23.808   2.296
37511W        W 4052  18.442  10.683  11.119
37512W        W 4053  30.938  39.468  12.043
37513W        W 4054  28.618  17.301  14.925
37514W        W 4055  15.169  20.310  11.550
37515W        W 4056  42.323   6.197   1.900
37516W        W 4057  18.278  14.840  12.937
37517W        W 4058  20.474  30.571   2.905
37518W        W 4059   9.324  25.053   0.997
37519W        W 4060   1.734   9.533   3.545
37520W        W 4061  42.007  12.676   2.592
37521W        W 4062  10.198  24.791  12.114
37522W        W 4063  16.991  16.948  13.937
37523W        W 4064  12.784  34.886  12.548
37524W        W 4065  32.840  24.173  11.563
37525W        W 4066  14.210  30.284   0.440
37526W        W 4067  22.469   4.794  12.903
37527W        W 4068   0.778  21.888  12.641
37528W        W 4069  33.033  29.375   3.222
37529W        W 4070  30.642  12.813  12.904
37530W        W 4071  40.426  16.566  11.063
37531W        W 4072  16.070  39.000   3.615
37532W        W 4073  40.817  13.303  12.893
37533W        W 4074  31.053  34.402  12.157
37534W        W 4075  42.885  21.068  12.132
37535W        W 4076  35.377  32.694  12.080
37536W        W 4077   9.075  21.099  13.103
37537W        W 4078  17.190   1.910  13.914
37538W        W 4079  28.889  22.075   1.409
37539W        W 4080  15.132  11.466   4.574
37540W        W 4081  35.384  16.067   2.756
37541W        W 4082  14.683  11.704  10.510
37542W        W 4083  30.934   1.305  11.546
37543W        W 4084  20.322  12.851  13.039
37544W        W 4085  24.689  12.684   1.340
37545W        W 4086  38.894  11.535   2.334
37546W        W 4087  35.163  19.266   0.405
37547W        W 4088   7.246   7.248  14.294
37548W        W 4089  25.543   0.336   0.514
37549W        W 4090  21.273  14.209   2.329
37550W        W 4091  12.658  20.892  12.852
37551W        W 4092   7.753   4.383   3.454
37552W        W 4093   8.227  18.537   3.235
37553W        W 4094  18.706  19.053  14.215
37554W        W 4095  31.874  44.544   3.826
37555W        W 4096   1.236  43.928  10.736
37556W        W 4097   3.953  13.332  13.462
37557W        W 4098  19.299  24.223   3.638
37558W        W 4099   4.222   7.879   2.338
37559W        W 4100   5.361  38.092  11.678
37560W        W 4101  11.331   2.093  13.887
37561W        W 4102  40.286  27.036  12.990
37562W        W 4103  20.069   5.189   3.162
37563W        W 4104  38.885   6.131  11.579
37564W        W 4105  35.594  32.300   4.137
37565W        W 4106  21.549  41.423   3.990
37566W        W 4107  16.828  37.403  10.665
37567W        W 4108  21.778  14.004   2.263
37568W        W 4109  25.970  39.836  13.917
37569W        W 4110  16.294  37.941   0.468
37570W        W 4111  12.607  43.802  11.995
37571W        W 4112  20.627  26.718  14.364
37572W        W 4113  35.392   9.146  10.748
37573W        W 4114  39.205  44.302   1.763
37574W        W 4115  40.557  17.193   3.286
37575W        W 4116   0.532  25.622  10.670
37576W        W 4117  38.624  31.148   3.623
37577W        W 4118  25.627  42.103   4.496
37578W        W 4119  33.632  23.555  10.743
37579W        W 4120  26.352  17.081  14.760
37580W        W 4121  22.521  17.030   3.634
37581W        W 4122  32.910  29.425  11.472
37582W        W 4123   0.189  15.046   0.913
37583W        W 4124  25.515  16.486   1.687
37584W        W 4125  37.551  19.104  11.220
37585W        W 4126  36.891  32.138  11.577
37586W        W 4127  36.413  36.847   4.691
37587W        W 4128  31.014  34.024  13.990
37588W        W 4129  36.516  28.166   4.079
37589W        W 4130  23.076  40.332   0.725
37590W        W 4131  13.510  22.191  11.108
37591W        W 4132  28.605  37.801  14.910
37592W        W 4133   0.301  15.173  11.057
37593W        W 4134   5.356  22.712  10.698
37594W        W 4135  22.139  25.428  14.471
37595W        W 4136  34.963   1.374   1.120
37596W        W 4137  18.190  40.999  10.483
37597W        W 4138  38.291   2.984  11.094
37598W        W 4139   2.964  11.468  13.456
37599W        W 4140   4.399  16.660  13.404
37600W        W 4141  28.590  20.887   4.515
37601W        W 4142  41.127  18.346  13.135
37602W        W 4143  29.068   8.430  13.925
37603W        W 4144  12.861  17.702   2.387
37604W        W 4145  31.504   8.691  10.606
37605W        W 4146  36.854   5.777  10.805
37606W        W 4147   4.426  28.107   0.753
37607W        W 4148  12.114   5.718  10.655
37608W        W 4149  39.953  13.220   3.577
37609W        W 4150  32.726  29.007   2.780
37610W        W 4151  20.428  27.592   1.420
37611W        W 4152   1.920  41.091   4.610
37612W        W 4153  13.843  40.317  10.776
37613W        W 4154   1.607  17.361  11.571
37614W        W 4155  11.192   5.518   2.898
37615W        W 4156   9.606  25.003   1.898
37616W        W 4157  29.543  22.459  10.494
37617W        W 4158  31.570  36.521   1.346
37618W        W 4159   3.983  13.162  14.424
37619W        W 4160  25.607  28.960   3.863
37620W        W 4161  35.032  38.396   3.393
37621W        W 4162   1.322  39.504  12.545
37622W        W 4163   2.499  28.666   1.344
37623W        W 4164   6.820   7.887  14.280
37624W        W 4165   8.778  22.250  10.730
37625W        W 4166  33.329   1.935  12.418
37626W        W 4167  38.990   1.429  10.696
37627W        W 4168  21.264  34.212  12.267
37628W        W 4169  23.290   6.335  13.383
37629W        W 4170  17.364   9.282   4.587
37630W        W 4171   2.925  38.864  10.675
37631W        W 4172  21.794   1.983   5.038
37632W        W 4173  27.219   2.802   0.770
37633W        W 4174  13.736  25.572  14.014
37634W        W 4175  21.687  13.888  13.368
37635W        W 4176   9.686  14.711  13.128
37636W        W 4177   2.903  27.066  14.042
37637W        W 4178  42.453  16.023  11.670
37638W        W 4179   2.544  14.069  13.911
37639W        W 4180  17.676   6.839  14.274
37640W        W 4181  31.297  13.788   0.305
37641W        W 4182   1.461  20.016  11.055
37642W        W 4183  17.560  32.926   2.210
37643W        W 4184   6.957  23.025   4.468
37644W        W 4185  23.207   2.316  11.932
37645W        W 4186  21.511  37.419  13.072
37646W        W 4187  21.587  20.670   0.901
37647W        W 4188  13.001  43.108   1.947
37648W        W 4189  26.652   1.038  11.137
37649W        W 4190   0.965  18.068   1.899
37650W        W 4191  18.580  15.250   0.530
37651W        W 4192  13.368  39.614  13.474
37652W        W 4193  18.487  24.004  12.417
37653W        W 4194  30.658  26.958  13.411
37654W        W 4195  38.973  12.318   1.285
37655W        W 4196  40.599  38.631   4.960
37656W        W 4197  18.245  22.073   0.070
37657W        W 4198   1.864  39.557   3.791
37658W        W 4199  30.415   0.862  12.931
37659W        W 4200  39.467  31.564  10.944
37660W        W 4201  37.475  19.806   0.417
37661W        W 4202  26.361  24.664  11.947
37662W        W 4203  31.149  11.042   2.199
37663W        W 4204  24.910  11.454  13.500
37664W        W 4205  40.402  10.015   0.689
37665W        W 4206   0.357   1.411   0.988
37666W        W 4207   1.831  35.900   3.295
37667W        W 4208  37.013  19.658   2.460
37668W        W 4209  29.613   1.899  11.567
37669W        W 4210  25.121  22.116   4.357
37670W        W 4211  23.715  32.869  11.746
37671W        W 4212  11.542  23.234  14.975
37672W        W 4213  10.956   2.922  13.129
37673W        W 4214   4.273  30.205  14.390
37674W        W 4215  14.708  12.653  12.502
37675W        W 4216   4.160  16.121  11.659
37676W        W 4217  31.918  17.124  12.655
37677W        W 4218  40.288  14.724   3.387
37678W        W 4219  31.403  17.085  12.891
37679W        W 4220  36.373  23.677   2.213
37680W        W 4221  29.379  14.735   2.037
37681W        W 4222   3.473  35.501  12.113
37682W        W 4223  16.012  25.533   0.712
37683W        W 4224  35.117  32.950   1.934
37684W        W 4225  22.686   7.283   5.608
37685W        W 4226  31.715  35.175   1.075
37686W        W 4227  20.101  44.930   1.818
37687W        W 4228  44.333  23.952  12.074
37688W        W 4229  14.410  36.309  11.446
37689W        W 4230  39.413  20.306  12.847
37690W        W 4231  21.020  38.864  12.083
37691W        W 4232  30.368  38.449  11.107
37692W        W 4233  32.314   8.662  10.940
37693W        W 4234  40.950  31.134  10.666
37694W        W 4235  33.126  40.760   4.611
37695W        W 4236   6.119  20.181  11.103
37696W        W 4237  28.162  13.259   0.907
37697W        W 4238   7.123  18.818   2.274
37698W        W 4239  35.173  41.361  14.851
37699W        W 4240  19.644   6.229   4.306
37700W        W 4241  39.463   7.429  11.729
37701W        W 4242  11.822  25.444  13.855
37702W        W 4243  18.854   0.879   3.719
37703W        W 4244   9.972   6.937  12.153
37704W        W 4245  23.451   0.967   4.210
37705W        W 4246  21.091   3.386  13.220
37706W        W 4247  39.987  20.453  10.819
37707W        W 4248  31.557   6.744   4.684
37708W        W 4249  34.333  22.289  12.417
37709W        W 4250   7.469  25.069   0.950
37710W        W 4251  43.813  24.655   1.443
37711W        W 4252  32.084   8.144   0.164
37712W        W 4253  30.190  29.069   4.196
37713W        W 4254  32.301   4.217  14.492
37714W        W 4255  29.441  23.713   4.138
37715W        W 4256  16.221  31.115   3.870
37716W        W 4257   8.529  24.924   5.087
37717W        W 4258   6.842  34.828  11.095
37718W        W 4259  36.056  35.856  12.982
37719W        W 4260  35.984  26.196  14.706
37720W        W 4261  16.821  26.178   2.650
37721W        W 4262  36.441  32.089   0.827
37722W        W 4263  33.379  39.409   1.750
37723W        W 4264  28.428   2.868   4.553
37724W        W 4265  32.735  42.654  12.051
37725W        W 4266  30.518  40.922   1.916
37726W        W 4267  42.420  14.905  12.509
37727W        W 4268  24.412  11.202  13.995
37728W        W 4269   5.795   4.285  12.415
37729W        W 4270  35.772   8.401  13.941
37730W        W 4271  33.920  15.326   0.242
37731W        W 4272  43.330  25.964  13.400
37732W        W 4273  24.698   0.434  13.122
37733W        W 4274  24.608  11.032  13.525
37734W        W 4275   9.709  13.898   2.837
37735W        W 4276  18.832  12.651   3.644
37736W        W 4277   6.093  31.891  11.525
37737W        W 4278   6.788  31.084   2.899
37738W        W 4279   2.512  35.845  12.471
37739W        W 4280  14.129  38.347  12.551
37740W        W 4281  10.940  16.323  14.896
37741W        W 4282  39.060  40.846   3.227
37742W        W 4283  35.884  40.993  14.605
37743W        W 4284   8.123   8.219  13.524
37744W        W 4285  35.882   6.877   4.786
37745W        W 4286  42.006  15.163   1.943
37746W        W 4287  36.988  13.140   0.776
37747W        W 4288  29.219  39.496  14.475
37748W        W 4289  30.261  33.310   0.728
37749W        W 4290  14.168  30.509   1.991
37750W        W 4291  27.918   1.249  10.993
37751W        W 4292  44.249  15.882  13.355
37752W        W 4293  33.651  31.003   2.551
37753W        W 4294  43.797  38.531   4.644
37754W        W 4295   5.232  13.619  11.584
37755W        W 4296  37.246  21.258  10.670
37756W        W 4297  31.553   9.737  11.959
37757W        W 4298  25.203  20.870   4.211
37758W        W 4299  31.800  28.546  12.259
37759W        W 4300  42.396  23.607   2.897
37760W        W 4301  17.768  24.709  14.887
37761W        W 4302  27.025  21.603   0.307
37762W        W 4303  41.810  35.747   1.449
37763W        W 4304   7.183  27.511  10.629
37764W        W 4305  27.683  24.662   1.259
37765W        W 4306  14.811  10.754  11.439
37766W        W 4307  36.756  38.061   3.793
37767W        W 4308  12.706  19.239   0.953
37768W        W 4309  28.429  35.649  11.022
37769W        W 4310  30.536  13.904  11.478
37770W        W 4311  17.695  23.652   1.910
37771W        W 4312   0.447  41.269   3.287
37772W        W 4313  10.642  23.758  11.461
37773W        W 4314   0.750  10.400   0.705
37774W        W 4315  19.268  41.372  12.157
37775W        W 4316  21.721  16.570   2.163
37776W        W 4317   5.206  36.887  11.570
37777W        W 4318  16.317  32.336   4.097
37778W        W 4319  26.664   1.617   1.057
37779W        W 4320  44.501  15.181   3.017
37780W        W 4321  38.708  12.681   4.175
37781W        W 4322  15.684  14.880   0.780
37782W        W 4323  19.750  31.611  11.618
37783W        W 4324   9.154  42.772  14.278
37784W        W 4325  33.879   5.975  11.951
37785W        W 4326  36.559   7.995  12.427
37786W        W 4327  37.335  29.777  12.962
37787W        W 4328  26.823   5.528  11.123
37788W        W 4329   2.360   0.535  12.685
37789W        W 4330  18.721  23.584   3.216
37790W        W 4331  34.222   1.321   2.308
37791W        W 4332   6.400  44.008   3.090
37792W        W 4333  43.174  40.924   1.333
37793W        W 4334  12.180   6.902  13.338
37794W        W 4335  19.449  19.263   1.161
37795W        W 4336  31.710  44.936  13.755
37796W        W 4337  10.592  31.071   2.789
37797W        W 4338  15.819   7.633  12.900
37798W        W 4339   5.485  12.695  13.601
37799W        W 4340  37.526  25.691   2.712
37800W        W 4341  21.056  11.927  13.380
37801W        W 4342  26.588   7.926   3.902
37802W        W 4343  33.175  30.289   1.901
37803W        W 4344  40.730  24.634   0.030
37804W        W 4345  39.563  40.533   3.854
37805W        W 4346   9.422  18.659  13.819
37806W        W 4347  21.954  17.833   4.580
37807W        W 4348   6.143  16.392  12.412
37808W        W 4349  30.026  28.609   4.373
37809W        W 4350  14.345  33.358   1.632
37810W        W 4351   1.739  41.472  12.061
37811W        W 4352  21.951  44.910   3.273
37812W        W 4353  42.528   1.620   4.352
37813W        W 4354  30.700  41.616   3.246
37814W        W 4355   6.515  32.524   3.676
37815W        W 4356  43.174  32.163  12.059
37816W        W 4357  16.265  35.462   4.149
37817W        W 4358  10.724   5.177   0.246
37818W        W 4359   5.438  30.283  13.823
37819W        W 4360   7.611  30.605  11.956
37820W        W 4361  39.015  11.400   2.825
37821W        W 4362  28.495  41.377  13.783
37822W        W 4363  24.473  27.467   1.863
37823W        W 4364  14.378  13.648  14.519
37824W        W 4365  37.706   2.894   3.907
37825W        W 4366  44.565  15.007  10.724
37826W        W 4367  23.488   5.946  12.980
37827W        W 4368   5.932   5.708   0.856
37828W        W 4369  11.715  25.192  11.150
37829W        W 4370  27.478   7.992   1.366
37830W        W 4371   5.392  32.179  14.544
37831W        W 4372  40.238   4.151  12.664
37832W        W 4373  35.358  18.567   0.039
37833W        W 4374  22.517  21.796  12.269
37834W        W 4375  31.131  18.605   0.407
37835W        W 4376   8.389  21.190   1.699
37836W        W 4377  22.157  13.685  14.566
37837W        W 4378   8.110  12.390  13.270
37838W        W 4379  37.518  28.462  12.910
37839W        W 4380  24.770  37.345  14.415
37840W        W 4381  34.982  39.261   2.741
37841W        W 4382  32.901  44.816  12.359
37842W        W 4383  19.487  23.207  14.503
37843W        W 4384   6.750   5.641  12.376
37844W        W 4385  29.330   2.287  14.046
37845W        W 4386  43.897  42.957  13.913
37846W        W 4387  23.666  22.747  11.046
37847W        W 4388   6.402  21.712  13.360
37848W        W 4389  13.705   5.746   4.312
37849W        W 4390  25.023  11.160   2.815
37850W        W 4391   9.398   9.704   1.887
37851W        W 4392  28.510  11.381   0.355
37852W        W 4393  27.730  25.203  11.988
37853W        W 4394  28.315  13.508   4.870
37854W        W 4395  37.559   1.412   2.297
37855W        W 4396  31.994  38.568   0.922
37856W        W 4397  37.369  40.822   4.591
37857W        W 4398  28.907   6.398   0.822
37858W        W 4399  17.590  30.903  11.980
37859W        W 4400  34.591  15.964  13.229
37860W        W 4401   3.019  21.131   3.417
37861W        W 4402   9.414  26.437   2.114
37862W        W 4403  11.060  16.594   3.383
37863W        W 4404   4.434  26.300   4.450
37864W        W 4405  40.949  16.437  11.050
37865W        W 4406  42.579   0.946  11.099
37866W        W 4407   2.614  14.319  13.012
37867W        W 4408  36.838   5.748  12.658
37868W        W 4409  31.338  29.114   1.766
37869W        W 4410  31.053   1.003  11.145
37870W        W 4411  22.321  31.463   4.188
37871W        W 4412  10.632   7.128  13.551
37872W        W 4413  22.963  17.816  13.039
37873W        W 4414  43.789  36.056  13.866
37874W        W 4415   8.635  23.916  13.599
37875W        W 4416   7.986  16.276  12.990
37876W        W 4417   7.640  13.509  14.769
37877W        W 4418  20.413  42.697   9.984
37878W        W 4419   8.494   6.369   0.349
37879W        W 4420  26.079  28.194   3.772
37880W        W 4421  39.307  42.809  13.952
37881W        W 4422   1.215   2.525   4.603
37882W        W 4423  32.623  21.223  11.868
37883W        W 4424  20.567  35.668   0.045
37884W        W 4425  28.008  37.753   3.368
37885W        W 4426  22.100   2.461  13.881
37886W        W 4427   5.681  12.813   4.568
37887W        W 4428  44.783  18.044  14.253
37888W        W 4429   6.001  42.798  10.717
37889W        W 4430  17.784  39.956  12.089
37890W        W 4431  39.887  34.944   4.584
37891W        W 4432  33.795  38.499  11.104
37892W        W 4433  13.467  26.982  10.571
37893W        W 4434  11.966  17.885   1.310
37894W        W 4435  38.607  24.945  12.522
37895W        W 4436  30.611  20.671  12.511
37896W        W 4437  24.508  35.916   4.707
37897W        W 4438  29.278  19.113  13.926
37898W        W 4439  37.474  20.301   4.928
37899W        W 4440  29.032   1.804   3.635
37900W        W 4441  27.159  31.580   1.986
37901W        W 4442  29.891  17.601  11.959
37902W        W 4443  10.848   0.316   3.333
37903W        W 4444  11.807  22.619   4.529
37904W        W 4445   4.874  32.772  11.692
37905W        W 4446   7.811   1.942  12.942
37906W        W 4447  19.168  27.459  12.031
37907W        W 4448   3.814  29.113   2.750
37908W        W 4449   1.405  16.382  12.062
37909W        W 4450   0.864   5.217   2.342
37910W        W 4451   6.609   5.917   2.820
37911W        W 4452  24.672  26.642   4.698
37912W        W 4453   7.888  29.913  11.503
37913W        W 4454   1.338  38.298   1.645
37914W        W 4455  23.991  26.313  11.665
37915W        W 4456  30.604  38.261  12.714
37916W        W 4457  42.478  35.553  12.353
37917W        W 4458  31.479  13.533  11.286
37918W        W 4459   8.154  36.821   1.642
37919W        W 4460  19.158  11.808   4.649
37920W        W 4461  19.473  44.465  11.898
37921W        W 4462  27.696   0.482   4.714
37922W        W 4463  15.748  40.515  13.570
37923W        W 4464  12.215  38.903  14.333
37924W        W 4465  10.801   2.721   4.755
37925W        W 4466  21.025  17.047  12.765
37926W        W 4467  15.876  20.856   2.002
37927W        W 4468   0.514  12.318  12.820
37928W        W 4469  14.370   2.410  14.559
37929W        W 4470   1.715  10.824   3.331
37930W        W 4471  12.708  34.825   0.710
37931W        W 4472  31.955  14.324  13.761
37932W        W 4473  25.961   6.414  11.982
37933W        W 4474  26.955  29.142  12.004
37934W        W 4475  43.444  22.833   1.315
37935W        W 4476   8.780   4.421  14.257
37936W        W 4477  34.905   6.948   0.078
37937W        W 4478   5.964  24.041  11.711
37938W        W 4479  42.912   6.971  12.774
37939W        W 4480  19.318  28.628  12.573
37940W        W 4481   3.822  41.850  12.016
37941W        W 4482   4.660   5.360   4.558
37942W        W 4483  41.462  15.754   4.889
37943W        W 4484   4.715  43.236  14.265
37944W        W 4485  22.831  23.616  10.578
37945W        W 4486  33.327   1.167  11.204
37946W        W 4487  41.562  17.470  10.573
37947W        W 4488  38.065  23.227   0.783
37948W        W 4489  28.664  12.075  10.977
37949W        W 4490  44.790  40.385   0.425
37950W        W 4491  34.898  28.672   3.160
37951W        W 4492  20.699  16.005   4.345
37952W        W 4493  33.877  21.316   2.867
37953W        W 4494  26.273   0.216   1.780
37954W        W 4495  35.396  17.652   2.747
37955W        W 4496  44.211  17.690   0.225
37956W        W 4497  36.492  10.547  12.267
37957W        W 4498  29.204  30.615   2.901
37958W        W 4499  25.232   2.458   1.277
37959W        W 4500  20.481   0.314   1.903
37960W        W 4501  40.455  16.548  14.314
37961W        W 4502  36.907  38.470   2.165
37962W        W 4503  34.552  22.977   2.878
37963W        W 4504  14.668  37.088   0.008
37964W        W 4505  20.116  11.160   2.185
37965W        W 4506  15.187  16.650   3.373
37966W        W 4507  30.979  41.301   4.307
37967W        W 4508  15.569  22.712   4.999
37968W        W 4509   3.489  34.997   4.153
37969W        W 4510  33.979  38.610  14.275
37970W        W 4511  32.353  18.153   4.174
37971W        W 4512   0.933  44.015   1.351
37972W        W 4513  17.312   4.462  14.400
37973W        W 4514   1.382   5.187   1.812
37974W        W 4515  16.034   1.003  10.521
37975W        W 4516  21.859  21.486   2.403
37976W        W 4517   9.581  34.066   0.877
37977W        W 4518  25.194  33.712  11.069
37978W        W 4519  44.419  19.992   0.795
37979W        W 4520  30.440  41.730   3.688
37980W        W 4521  25.643  40.324  13.597
37981W        W 4522  14.818  22.961  14.075
37982W        W 4523  35.722  36.448   3.449
37983W        W 4524  16.857   5.607   3.249
37984W        W 4525   5.409  44.166   0.292
37985W        W 4526   8.760   1.062  14.445
37986W        W 4527   7.249  35.638   5.118
37987W        W 4528  40.071  20.585   1.735
37988W        W 4529  21.545  11.266   3.147
37989W        W 4530  15.484  28.192   4.886
37990W        W 4531  21.344   6.794   0.718
37991W        W 4532  25.168  15.757  13.929
37992W        W 4533   9.559  14.883   3.721
37993W        W 4534  32.034  31.888   1.302
37994W        W 4535  26.489  38.628  10.674
37995W        W 4536  29.619  37.555  13.010
37996W        W 4537  23.526  14.119   4.142
37997W        W 4538   6.700  38.101   3.326
37998W        W 4539  24.080   3.209  11.485
37999W        W 4540  23.559  12.643  13.530
38000W        W 4541  41.454   2.061  14.990
38001W        W 4542  32.161  12.349   1.164
38002W        W 4543  10.523  32.116  10.625
38003W        W 4544  27.579  39.946   1.655
38004W        W 4545  14.736  34.474   3.564
38005W        W 4546   0.439  32.926   2.688
38006W        W 4547  22.483  31.916   0.668
38007W        W 4548  11.746  29.600   2.913
38008W        W 4549  37.299  29.693   3.066
38009W        W 4550  31.936  40.012  13.044
38010W        W 4551  22.926   9.768   3.561
38011W        W 4552  27.395  10.311  11.851
38012W        W 4553  25.246  24.525  11.185
38013W        W 4554  10.783   1.312  11.561
38014W        W 4555  31.124  39.851   4.184
38015W        W 4556   0.700   7.695  13.443
38016W        W 4557  14.782  16.498   1.414
38017W        W 4558  21.186   5.932   2.422
38018W        W 4559  24.127  25.305   1.580
38019W        W 4560  28.517   4.265   0.363
38020W        W 4561   5.891  36.852   1.435
38021W        W 4562  42.856   3.870   2.187
38022W        W 4563  33.794  22.196  13.359
38023W        W 4564   0.443  43.951  13.850
38024W        W 4565   1.687  38.403   4.633
38025W        W 4566  28.954  30.431   4.205
38026W        W 4567  21.764  16.200  11.978
38027W        W 4568   3.311   5.939   5.153
38028W        W 4569  32.674  42.622   2.870
38029W        W 4570   2.558   3.759  12.790
38030W        W 4571  20.500  10.855  13.832
38031W        W 4572  40.777   3.958  11.119
38032W        W 4573  12.402  22.984   0.921
38033W        W 4574  11.443  44.433  14.012
38034W        W 4575  25.965  36.000  13.906
38035W        W 4576  15.822  18.880  12.632
38036W        W 4577   9.427   1.911  13.124
38037W        W 4578  26.615  22.618   2.704
38038W        W 4579  34.901   7.333   3.680
38039W        W 4580  15.781  20.510  14.688
38040W        W 4581   3.180  10.286   1.076
38041W        W 4582  33.398   4.928   1.382
38042W        W 4583  25.366  26.435  13.421
38043W        W 4584  30.662  32.744   4.057
38044W        W 4585  36.669   2.156  11.186
38045W        W 4586  13.859  44.795  13.123
38046W        W 4587   5.691  41.408   2.905
38047W        W 4588  21.239  44.646   2.159
38048W        W 4589  39.186   1.470  10.213
38049W        W 4590  18.176   1.865  13.976
38050W        W 4591  40.206  37.470  13.428
38051W        W 4592  21.053  25.563  14.712
38052W        W 4593  10.926  12.433  13.497
38053W        W 4594  41.345  35.996  13.990
38054W        W 4595  17.781  14.196   3.163
38055W        W 4596  42.159  44.475  14.282
38056W        W 4597  11.737  18.058   1.774
38057W        W 4598  42.050  32.867   1.449
38058W        W 4599  35.354  16.544   4.076
38059W        W 4600  34.189  39.170   2.891
38060W        W 4601  36.422  20.932   1.951
38061W        W 4602  21.251   4.670  11.210
38062W        W 4603  33.820  27.423   3.647
38063W        W 4604  11.380   7.935   2.779
38064W        W 4605  29.448  31.864   3.242
38065W        W 4606  12.600  11.215  10.459
38066W        W 4607  23.483   2.526  11.537
38067W        W 4608  23.124  34.931   3.079
38068W        W 4609  20.111   8.257   2.872
38069W        W 4610  41.719   1.069  14.959
38070W        W 4611  38.297  42.581  11.934
38071W        W 4612  22.992  28.718   4.630
38072W        W 4613   4.234   0.161   4.613
38073W        W 4614  14.379  19.786  10.623
38074W        W 4615   6.594  35.634   4.726
38075W        W 4616  18.895   8.250   2.326
38076W        W 4617  13.278  26.223  14.371
38077W        W 4618  34.434   1.581  10.301
38078W        W 4619  27.536  25.603  14.458
38079W        W 4620  19.744   8.852   2.808
38080W        W 4621  39.834  28.463   0.905
38081W        W 4622  25.503   3.337  11.076
38082W        W 4623  33.492  11.295   1.594
38083W        W 4624  15.834  30.491   3.357
38084W        W 4625   3.083   4.828  10.573
38085W        W 4626  39.768   8.823   1.832
38086W        W 4627   3.326  19.382   4.588
38087W        W 4628  27.892   3.300  14.037
38088W        W 4629  33.984  44.810  12.122
38089W        W 4630   6.150   0.574  11.143
38090W        W 4631  42.762  10.870  10.641
38091W        W 4632  16.757   2.546  12.620
38092W        W 4633  30.667  40.252  14.881
38093W        W 4634  35.910  16.706  14.979
38094W        W 4635  17.886  12.161   3.126
38095W        W 4636  14.188  31.755   1.381
38096W        W 4637  28.889  35.550  12.951
38097W        W 4638   9.967  34.945   0.774
38098W        W 4639  25.259  44.367   3.746
38099W        W 4640   8.310   4.052  11.020
38100W        W 4641  37.359  23.354   4.535
38101W        W 4642  41.365  15.708   2.322
38102W        W 4643  27.656  35.574  13.496
38103W        W 4644  14.177   9.758   3.283
38104W        W 4645  29.635  33.199   1.838
38105W        W 4646   2.797  41.572   3.250
38106W        W 4647  17.604  17.524  13.520
38107W        W 4648  13.299  27.484   0.317
38108W        W 4649   5.278   4.897  13.500
38109W        W 4650  43.366  14.914   9.726
38110W        W 4651  35.682  30.480  14.494
38111W        W 4652   0.374  36.331  11.224
38112W        W 4653  32.305  18.402  10.984
38113W        W 4654  10.571   5.902   3.866
38114W        W 4655  40.021  44.262  13.296
38115W        W 4656  18.979  11.303  11.955
38116W        W 4657   7.415   5.826   1.053
38117W        W 4658  25.203  44.337   4.647
38118W        W 4659  18.725  10.749  14.959
38119W        W 4660  25.972  28.642   4.089
38120W        W 4661  23.750  17.064   1.374
38121W        W 4662  27.027  43.781   2.843
38122W        W 4663   4.316   6.589  11.316
38123W        W 4664  35.859  14.234   4.164
38124W        W 4665   6.335   6.347  13.262
38125W        W 4666  34.603  37.032   1.389
38126W        W 4667  36.906  29.177   1.478
38127W        W 4668  33.508  16.402   4.160
38128W        W 4669  12.685  31.148   2.804
38129W        W 4670  20.125   3.902   2.720
38130W        W 4671  17.690  17.606   0.849
38131W        W 4672   9.884  23.226   1.798
38132W        W 4673  16.111  19.314  12.576
38133W        W 4674   0.245  33.605   3.039
38134W        W 4675  31.652  24.635  10.501
38135W        W 4676  10.957   6.107   0.290
38136W        W 4677  20.447   4.769   0.648
38137W        W 4678  32.071  16.566   4.578
38138W        W 4679  10.722  43.574  13.686
38139W        W 4680  33.126  32.680  11.348
38140W        W 4681  13.128  20.145   2.897
38141W        W 4682   0.632  35.826  10.597
38142W        W 4683   5.515  36.139  11.998
38143W        W 4684  28.459  27.592  13.376
38144W        W 4685  19.246  42.929   0.895
38145W        W 4686  31.370  33.552  14.970
38146W        W 4687  13.274   4.705  11.616
38147W        W 4688  43.199   3.073   4.170
38148W        W 4689   2.927  40.820  13.085
38149W        W 4690   3.225  26.214   4.888
38150W        W 4691  44.905  13.954   1.295
38151W        W 4692   5.824  43.181  11.893
38152W        W 4693  43.466  36.757  11.506
38153W        W 4694  12.738  19.811   2.772
38154W        W 4695  33.329  39.062  14.128
38155W        W 4696  26.904  20.246   1.791
38156W        W 4697  35.511  25.827  14.793
38157W        W 4698  10.863  30.667  11.149
38158W        W 4699  31.460  32.333   2.673
38159W        W 4700  28.032  21.116  13.884
38160W        W 4701  10.267  24.738   3.659
38161W        W 4702  41.746   4.307   0.223
38162W        W 4703  43.374   0.988  12.571
38163W        W 4704   7.500  11.184   5.003
38164W        W 4705  35.407   9.480   1.004
38165W        W 4706  12.162   7.688   0.346
38166W        W 4707   3.778  26.663   2.835
38167W        W 4708  26.506   3.862  12.965
38168W        W 4709  32.033   2.647   1.912
38169W        W 4710  31.230  14.899   2.366
38170W        W 4711  34.091   8.310  12.745
38171W        W 4712  18.772  12.682  13.953
38172W        W 4713  28.588  22.763  11.075
38173W        W 4714  39.797  10.789   3.634
38174W        W 4715  24.568  12.801   3.142
38175W        W 4716  21.460  22.151   4.094
38176W        W 4717  19.651  22.414  11.548
38177W        W 4718   1.305  40.558  14.040
38178W        W 4719  41.480  25.466  12.764
38179W        W 4720  36.855   2.786   3.794
38180W        W 4721  22.779  44.289  10.349
38181W        W 4722  42.496  23.505   3.801
38182W        W 4723  19.219  19.758  14.859
38183W        W 4724  21.749   2.392  14.245
38184W        W 4725  15.980  33.911  13.020
38185W        W 4726  35.814  26.107   0.186
38186W        W 4727  25.163   5.653  14.465
38187W        W 4728  10.269  30.468   0.390
38188W        W 4729  19.572  32.105  11.060
38189W        W 4730  20.896  15.964   2.872
38190W        W 4731  23.119   7.757  13.876
38191W        W 4732  14.196  34.967   2.216
38192W        W 4733   9.271   1.968   4.305
38193W        W 4734   5.272  29.075   3.373
38194W        W 4735  26.366  36.902  14.980
38195W        W 4736  13.739  20.151   2.241
38196W        W 4737  14.260  30.687  12.624
38197W        W 4738  34.683  39.914  11.601
38198W        W 4739  29.086  14.403  11.159
38199W        W 4740  19.252  18.113  13.881
38200W        W 4741  43.767  19.561   4.594
38201W        W 4742  42.001  34.842   4.517
38202W        W 4743  33.828  28.438   1.438
38203W        W 4744  34.010   2.728   3.534
38204W        W 4745  20.285   3.025   0.724
38205W        W 4746  42.686  43.026  11.147
38206W        W 4747  33.920   5.951  13.046
38207W        W 4748  27.933   7.707  11.579
38208W        W 4749  17.470  39.597   4.561
38209W        W 4750  39.211  39.515  11.558
38210W        W 4751  31.670  42.746   0.953
38211W        W 4752  32.967  35.641   3.787
38212W        W 4753  38.635   4.431  11.159
38213W        W 4754  35.124  10.816   0.784
38214W        W 4755  30.003  43.088   3.406
38215W        W 4756  37.102   1.478  14.917
38216W        W 4757  27.187  36.124  14.336
38217W        W 4758  44.697   2.824   4.130
38218W        W 4759   2.202  37.614  12.488
38219W        W 4760  40.318   0.758  10.852
38220W        W 4761  10.403  40.542  12.549
38221W        W 4762  44.901  18.223  12.768
38222W        W 4763   8.681  14.463   3.998
38223W        W 4764  33.704  21.554  13.820
38224W        W 4765  29.042  21.965   4.061
38225W        W 4766  42.527   8.987  12.635
38226W        W 4767  22.105   3.918   0.174
38227W        W 4768  32.393   6.333  12.581
38228W        W 4769  37.563  21.120   0.917
38229W        W 4770  36.547  44.272  11.853
38230W        W 4771  41.774  26.874   2.914
38231W        W 4772   7.646   4.482   4.414
38232W        W 4773  24.572  31.689   3.337
38233W        W 4774  12.285   2.491  14.595
38234W        W 4775   9.295   5.901   2.810
38235W        W 4776   3.685   3.630  14.337
38236W        W 4777  23.773  38.156  12.155
38237W        W 4778  12.401  37.019   1.679
38238W        W 4779  14.811   2.587  11.843
38239W        W 4780  28.390   2.233   4.107
38240W        W 4781  38.880  41.403   1.476
38241W        W 4782   2.286  44.842   0.907
38242W        W 4783  17.345  18.998  12.576
38243W        W 4784  30.200  31.974   2.311
38244W        W 4785   9.140  18.219   4.278
38245W        W 4786  41.424  21.219   1.513
38246W        W 4787  38.935  14.886   4.657
38247W        W 4788  25.170  44.624  11.034
38248W        W 4789  28.319   6.583   0.194
38249W        W 4790  21.208  16.937  14.435
38250W        W 4791  44.427  19.224   2.248
38251W        W 4792  42.921   7.662  11.214
38252W        W 4793   6.675  29.078  12.990
38253W        W 4794  38.811  14.445  11.032
38254W        W 4795   3.021   1.778   2.644
38255W        W 4796   3.294  22.695  10.828
38256W        W 4797  41.330  18.162  11.352
38257W        W 4798  21.128  34.806   4.169
38258W        W 4799  22.131   9.124   1.183
38259W        W 4800   7.367   1.883   3.342
38260W        W 4801  18.931  41.370   1.367
38261W        W 4802  41.893  37.744   0.285
38262W        W 4803  25.800   9.266  14.115
38263W        W 4804  39.833   8.094  14.818
38264W        W 4805  41.619   9.292   1.758
38265W        W 4806  24.574  39.792   0.259
38266W        W 4807  30.329  22.093  14.788
38267W        W 4808   5.158  43.243   3.626
38268W        W 4809  15.262  19.774  13.868
38269W        W 4810  44.053  18.132   2.152
38270W        W 4811  32.397   9.166   3.365
38271W        W 4812   7.680   8.076   4.747
38272W        W 4813   9.103  27.652   4.754
38273W        W 4814   0.571  42.765  14.941
38274W        W 4815  40.576   4.846   0.219
38275W        W 4816   9.572  11.018   3.695
38276W        W 4817  38.752  10.690   0.874
38277W        W 4818  31.160  37.085  14.592
38278W        W 4819  26.410   8.273   1.748
38279W        W 4820  20.299  15.648  12.083
38280W        W 4821   5.850  19.650   3.195
38281W        W 4822   0.508  16.117  11.698
38282W        W 4823  29.870  15.232  11.371
38283W        W 4824   8.194  16.314   0.731
38284W        W 4825  26.186  43.609   2.159
38285W        W 4826  15.298  33.964   3.243
38286W        W 4827  41.349  25.858   4.973
38287W        W 4828  38.352   7.202   0.029
38288W        W 4829   3.264  10.775  11.634
38289W        W 4830  35.635  15.336  10.938
38290W        W 4831   2.278   3.930   2.706
38291W        W 4832  14.828   2.650   3.436
38292W        W 4833   9.955  18.124   3.965
38293W        W 4834  26.163  10.662   4.415
38294W        W 4835  18.692  30.706  12.567
38295W        W 4836  14.991   9.322   4.554
38296W        W 4837  28.547  15.889   3.174
38297W        W 4838   5.895  22.288  14.862
38298W        W 4839   6.226  32.126  12.662
38299W        W 4840  44.815  25.178   3.179
38300W        W 4841  39.440  15.494  11.493
38301W        W 4842   1.904  28.942  10.080
38302W        W 4843  16.733  33.583   4.223
38303W        W 4844  11.787   6.812   4.554
38304W        W 4845  36.365  34.932  11.630
38305W        W 4846   9.954   5.669  11.966
38306W        W 4847  13.782  29.350   2.334
38307W        W 4848  33.583  17.745   0.378
38308W        W 4849  32.335  14.278  12.383
38309W        W 4850  26.515   1.780  14.815
38310W        W 4851  16.102  44.819  13.613
38311W        W 4852  17.534  20.936  13.272
38312W        W 4853  34.544   6.379   2.558
38313W        W 4854   4.347  10.426  14.055
38314W        W 4855   6.463  15.413   2.232
38315W        W 4856  39.461   1.230  10.594
38316W        W 4857  30.346  39.535   1.857
38317W        W 4858  20.087  21.680  14.824
38318W        W 4859  41.766   5.032   2.711
38319W        W 4860  11.147  13.843   4.622
38320W        W 4861  20.653   6.755  14.788
38321W        W 4862  10.384  16.492   2.697
38322W        W 4863   0.232  38.846   0.790
38323W        W 4864  39.297   1.873  12.598
38324W        W 4865  16.591   9.321  12.562
38325W        W 4866  21.962  26.165  12.475
38326W        W 4867  40.005  41.511  14.353
38327W        W 4868   6.344   6.387   0.119
38328W        W 4869  34.483  39.083   1.887
38329W        W 4870  35.434  11.550  11.894
38330W        W 4871  18.386  20.042   4.086
38331W        W 4872  33.578   1.012  11.899
38332W        W 4873  22.566   3.986   1.785
38333W        W 4874   2.891  38.365  14.793
38334W        W 4875  22.116  14.872  13.577
38335W        W 4876   8.317  24.542  14.448
38336W        W 4877  38.499  40.887  10.982
38337W        W 4878   2.725  22.714  12.074
38338W        W 4879  26.985  18.727   1.147
38339W        W 4880  15.467  35.479   2.247
38340W        W 4881  11.586  20.737  12.054
38341W        W 4882  38.230   2.005   0.766
38342W        W 4883  22.706  13.251  14.011
38343W        W 4884  19.859  11.685   0.291
38344W        W 4885   4.901  39.832   3.339
38345W        W 4886   9.374  31.602  13.878
38346W        W 4887  20.085  37.884   3.720
38347W        W 4888  12.498  42.348  13.864
38348W        W 4889   9.144  16.102   2.123
38349W        W 4890   2.528  44.187   4.097
38350W        W 4891  29.923   9.099   1.790
38351W        W 4892  21.412   2.031  13.469
38352W        W 4893   3.002  31.965   0.287
38353W        W 4894  43.888  23.713  11.583
38354W        W 4895  40.304   2.696  11.638
38355W        W 4896   7.910  23.730  14.335
38356W        W 4897  34.256  31.789  10.943
38357W        W 4898  38.858  40.574   1.981
38358W        W 4899  38.635  16.686  14.281
38359W        W 4900   0.783  41.315  14.486
38360W        W 4901  28.968   5.774   4.848
38361W        W 4902  36.818  20.136  11.715
38362W        W 4903  30.878  42.838   0.417
38363W        W 4904  30.205   7.858   1.651
38364W        W 4905  39.972   1.409  10.604
38365W        W 4906   3.183   4.268  14.953
38366W        W 4907  32.537  37.593   1.375
38367W        W 4908  21.492  28.526   4.571
38368W        W 4909  38.081  38.878   2.682
38369W        W 4910  37.441  21.990   2.585
38370W        W 4911  15.879  19.064   4.123
38371W        W 4912   0.245  11.238   3.595
38372W        W 4913  40.877  18.666  11.498
38373W        W 4914   3.396  39.188  12.536
38374W        W 4915  31.163  20.215   3.174
38375W        W 4916  10.204   4.468   0.523
38376W        W 4917  33.968  10.807   3.808
38377W        W 4918  10.085   8.248   2.821
38378W        W 4919  23.522  22.068   0.249
38379W        W 4920  29.880   9.460  14.871
38380W        W 4921  25.770  40.517  11.699
38381W        W 4922  16.232  17.245   0.096
38382W        W 4923  44.459  12.283  13.474
38383W        W 4924  29.027  24.710   0.071
38384W        W 4925   3.637   9.242   3.669
38385W        W 4926  38.838  41.760  11.722
38386W        W 4927  15.227  38.680  13.255
38387W        W 4928  19.100  43.572  12.469
38388W        W 4929  25.048   7.480   4.602
38389W        W 4930  33.471  10.794   3.750
38390W        W 4931   1.166  31.936  13.853
38391W        W 4932  25.717   2.883   4.286
38392W        W 4933  32.091   0.389  12.657
38393W        W 4934  26.422  33.586  12.460
38394W        W 4935  38.040  41.831   4.143
38395W        W 4936   7.995  39.020  13.787
38396W        W 4937   7.085  32.062  10.764
38397W        W 4938  16.980  33.572   4.681
38398W        W 4939  43.807  21.155   0.235
38399W        W 4940  27.459  34.945  14.977
38400W        W 4941   7.867   4.433  11.504
38401W        W 4942  23.660  34.676   4.683
38402W        W 4943  43.989  17.359   3.653
38403W        W 4944  39.493  20.224  10.901
38404W        W 4945  36.034  18.916  11.069
38405W        W 4946  24.217  22.344  12.348
38406W        W 4947  23.592  10.387   2.346
38407W        W 4948  28.618  25.887   0.464
38408W        W 4949   4.285  44.559   3.891
38409W        W 4950   8.115   8.205   4.518
38410W        W 4951  15.182   4.801  10.673
38411W        W 4952  38.840  20.631   1.330
38412W        W 4953  30.440  42.055   4.094
38413W        W 4954  19.540  44.532   2.704
38414W        W 4955  25.689  36.506   2.220
38415W        W 4956   1.709  17.520   4.132
38416W        W 4957  24.209  30.913   0.093
38417W        W 4958  31.441  24.114  11.213
38418W        W 4959  37.273  30.570   2.449
38419W        W 4960  35.960  12.978   2.125
38420W        W 4961  16.323  25.859   4.072
38421W        W 4962   1.768  13.326   2.696
38422W        W 4963  10.561  24.161   1.592
38423W        W 4964  25.655  31.593  11.527
38424W        W 4965  35.349  33.260  11.469
38425W        W 4966  20.592  39.334  11.908
38426W        W 4967   3.840  21.912   5.029
38427W        W 4968  18.605   2.323   4.357
38428W        W 4969  14.332  28.501   0.685
38429W        W 4970  17.340  20.221  12.956
38430W        W 4971  35.483  17.649  11.473
38431W        W 4972  21.508  39.416  14.216
38432W        W 4973  18.336   0.508   4.186
38433W        W 4974   0.491  37.502   1.100
38434W        W 4975   0.289  33.078   3.155
38435W        W 4976  29.869   5.301   0.747
38436W        W 4977  12.224  11.821   2.324
38437W        W 4978  29.208   1.639  13.387
38438W        W 4979  38.376  35.824   3.678
38439W        W 4980  40.359  41.128   3.653
38440W        W 4981   6.233  27.158  12.975
38441W        W 4982  18.178  16.349   4.565
38442W        W 4983  27.732   3.953  14.482
38443W        W 4984  38.607   1.854  14.834
38444W        W 4985  20.923  44.914  12.439
38445W        W 4986  13.269  34.227   4.235
38446W        W 4987  34.334  22.804  12.594
38447W        W 4988  15.221   8.662   5.316
38448W        W 4989  41.258   5.182   1.890
38449W        W 4990   5.396  26.922  14.950
38450W        W 4991   9.556  35.821   4.268
38451W        W 4992  36.553  25.637  14.676
38452W        W 4993  22.260   5.946   1.136
38453W        W 4994   1.256  11.851   3.217
38454W        W 4995  34.487  26.509   4.058
38455W        W 4996  39.844   7.580  14.931
38456W        W 4997  37.801   8.265  12.192
38457W        W 4998  26.089  38.916   2.338
38458W        W 4999  29.504  13.211   0.374
38459W        W 5000   1.587  30.045  12.894
38460W        W 5001  12.655  10.210   2.802
38461W        W 5002  35.268  43.745  13.882
38462W        W 5003  17.325  44.687  13.460
38463W        W 5004  20.410  21.253  11.448
38464W        W 5005  44.222  39.110  13.527
38465W        W 5006  16.649  41.257  12.413
38466W        W 5007   4.218  30.644  13.377
38467W        W 5008  32.912  24.613  12.485
38468W        W 5009  15.091  33.726  13.858
38469W        W 5010  23.231  10.716  11.570
38470W        W 5011  32.675  10.698   0.269
38471W        W 5012   7.271   6.339  13.772
38472W        W 5013   9.798  20.692   0.375
38473W        W 5014  37.842   4.511  12.660
38474W        W 5015  28.116  42.965   5.119
38475W        W 5016  33.659  37.990   1.908
38476W        W 5017   6.971  27.638  13.791
38477W        W 5018   6.527  44.734   3.718
38478W        W 5019  20.668   8.377   4.153
38479W        W 5020  19.718  42.898   3.337
38480W        W 5021  25.119  16.038  14.364
38481W        W 5022  33.087  25.173  13.446
38482W        W 5023  29.675  32.078  14.324
38483W        W 5024  28.395   8.203   0.967
38484W        W 5025  20.771  27.272   3.899
38485W        W 5026  33.559   2.049  14.231
38486W        W 5027  41.796  32.392   0.713
38487W        W 5028  14.805  10.761   4.069
38488W        W 5029  14.906  19.190   3.177
38489W        W 5030  15.641  24.393   1.804
38490W        W 5031  41.405  20.155   2.789
38491W        W 5032  35.516  16.308   0.400
38492W        W 5033  10.624  25.485   1.909
38493W        W 5034   8.451  27.115  11.182
38494W        W 5035  27.727  34.686   4.151
38495W        W 5036  43.771  35.136  11.987
38496W        W 5037   5.284  38.887  11.035
38497W        W 5038  16.737  25.937   3.773
38498W        W 5039  15.067  31.473  13.814
38499W        W 5040  20.062   5.494   2.705
38500W        W 5041  37.249  30.256   4.595
38501W        W 5042  10.931  29.548  11.408
38502W        W 5043  16.133  23.935   3.232
38503W        W 5044  44.318  35.014  12.066
38504W        W 5045   4.795  38.978  13.086
38505W        W 5046  24.594   4.835   3.157
38506W        W 5047   3.866  17.055   2.895
38507W        W 5048  11.416  24.454  11.060
38508W        W 5049  13.103  21.528   1.631
38509W        W 5050  10.670   0.789  12.988
38510W        W 5051  30.421   9.066  12.046
38511W        W 5052   7.630  43.562   3.224
38512W        W 5053   9.845  26.557  13.100
38513W        W 5054  16.238  40.449   3.847
38514W        W 5055  43.095  21.541  13.783
38515W        W 5056  38.897  32.565   1.383
38516W        W 5057   5.878  23.795   0.385
38517W        W 5058  22.161   0.745   1.657
38518W        W 5059   9.738  18.153  14.938
38519W        W 5060  41.795   7.794  13.931
38520W        W 5061  11.878  30.914  13.235
38521W        W 5062  32.493  40.892   0.463
38522W        W 5063   7.214  35.891  14.923
38523W        W 5064   8.956  32.548   0.869
38524W        W 5065   8.393  42.416   2.217
38525W        W 5066  15.184  16.073   4.606
38526W        W 5067  41.451   7.695  13.516
38527W        W 5068  42.867  17.574   1.406
38528W        W 5069  18.332   5.488   4.583
38529W        W 5070   4.282  31.545  14.434
38530W        W 5071  17.658  41.089  13.389
38531W        W 5072  41.961  28.931  14.013
38532W        W 5073  16.999  41.296   3.608
38533W        W 5074  22.114   9.303  12.766
38534W        W 5075  11.718  22.199  13.728
38535W        W 5076  24.012  41.099  12.062
38536W        W 5077  15.111  11.716  13.242
38537W        W 5078  34.873  39.825  13.513
38538W        W 5079   6.644  10.116   0.236
38539W        W 5080  13.343  13.572  14.436
38540W        W 5081  19.800  40.734  12.532
38541W        W 5082  28.113  10.342   0.012
38542W        W 5083  36.814  17.568   0.316
38543W        W 5084  15.168  24.695   0.311
38544W        W 5085  10.130  34.933  14.893
38545W        W 5086  25.461  23.327  14.291
38546W        W 5087  25.215  21.523  10.452
38547W        W 5088  35.558  25.570  10.467
38548W        W 5089  12.185  26.582   0.734
38549W        W 5090  10.150  23.672   1.877
38550W        W 5091  37.340  39.059  12.983
38551W        W 5092  23.687  44.498   0.408
38552W        W 5093  12.878   8.043  13.898
38553W        W 5094  24.590  29.941   2.666
38554W        W 5095  19.577  13.263   1.390
38555W        W 5096  21.918  32.482   2.906
38556W        W 5097  41.348   5.196   4.227
38557W        W 5098  24.189  15.765   2.828
38558W        W 5099   7.787  35.825  13.826
38559W        W 5100  18.487   2.156  12.513
38560W        W 5101  38.244  18.898  11.566
38561W        W 5102   7.721  28.842   0.797
38562W        W 5103  44.855  32.103  13.328
38563W        W 5104  17.847  38.444   2.615
38564W        W 5105  43.049  35.661   2.376
38565W        W 5106  21.728  35.917   2.827
38566W        W 5107  10.386  17.742  11.012
38567W        W 5108  38.847  17.411   2.620
38568W        W 5109  16.132  19.755  11.446
38569W        W 5110   2.376   0.399  11.033
38570W        W 5111  24.655   7.104   0.930
38571W        W 5112  14.044  38.739  11.619
38572W        W 5113  29.997  21.230  12.068
38573W        W 5114  16.450   3.866  11.515
38574W        W 5115  18.108  34.077  12.091
38575W        W 5116  29.624   6.225   0.336
38576W        W 5117  15.746  38.979  11.241
38577W        W 5118  26.866  21.699   3.376
38578W        W 5119  31.963  28.245   4.096
38579W        W 5120  41.533  24.864   1.468
38580W        W 5121   5.031  12.949  14.502
38581W        W 5122   4.414  12.007  13.391
38582W        W 5123  37.116  37.998   1.750
38583W        W 5124  43.465  40.359  12.387
38584W        W 5125  16.036  38.935   2.284
38585W        W 5126  11.407  29.763   4.070
38586W        W 5127  21.069  42.354   2.972
38587W        W 5128  26.027  17.746   0.245
38588W        W 5129   1.554   0.756  13.029
38589W        W 5130  33.347  30.553  14.850
38590W        W 5131  30.926  36.879   2.293
38591W        W 5132  36.900  31.038  10.736
38592W        W 5133  15.682   8.943  11.089
38593W        W 5134  31.488  40.860  11.660
38594W        W 5135  18.385  16.713  13.953
38595W        W 5136  35.306  37.695   1.317
38596W        W 5137  16.518  13.603   1.238
38597W        W 5138  27.808  28.930  12.917
38598W        W 5139  34.203  14.101   1.408
38599W        W 5140   6.217   1.735  14.829
38600W        W 5141   5.905   5.117  11.106
38601W        W 5142  10.648  42.521   1.161
38602W        W 5143  37.608  14.215  10.457
38603W        W 5144  18.250  40.797  12.915
38604W        W 5145  12.169   9.724   4.084
38605W        W 5146   7.634  10.932  11.659
38606W        W 5147  19.825  34.469  13.745
38607W        W 5148   8.369   6.789   2.882
38608W        W 5149  39.967  18.317   0.890
38609W        W 5150  37.695   2.843   4.403
38610W        W 5151   9.149  34.075  14.411
38611W        W 5152  10.671  10.229  12.184
38612W        W 5153   0.499   4.002  12.521
38613W        W 5154   8.092  15.773   4.638
38614W        W 5155  29.835   9.178   4.385
38615W        W 5156  40.397  24.993   2.113
38616W        W 5157   8.457  14.302   1.782
38617W        W 5158  31.272  32.380   3.619
38618W        W 5159  24.472  38.570   4.714
38619W        W 5160  10.533  39.076  10.267
38620W        W 5161  12.596  29.170  14.024
38621W        W 5162  39.419   4.941   1.857
38622W        W 5163  41.854  31.022   3.704
38623W        W 5164  37.853  20.591  11.995
38624W        W 5165   5.406   9.343   2.221
38625W        W 5166  18.900   7.386  13.946
38626W        W 5167   7.203  30.923   1.413
38627W        W 5168   8.909  23.436  14.501
38628W        W 5169  41.808  19.419  11.652
38629W        W 5170  42.761  36.396   4.040
38630W        W 5171  38.536  20.798  12.991
38631W        W 5172  10.429   2.488  10.446
38632W        W 5173  30.037  13.735  12.204
38633W        W 5174  43.458   7.173   2.898
38634W        W 5175   9.418  37.809   1.287
38635W        W 5176  21.679  15.564  14.951
38636W        W 5177  17.150  29.983   2.272
38637W        W 5178  35.510   1.903   9.906
38638W        W 5179  35.503   1.325  12.250
38639W        W 5180   4.197  22.994   2.328
38640W        W 5181  35.547  43.216   4.551
38641W        W 5182  15.307  16.046   3.705
38642W        W 5183  33.550  38.141  13.062
38643W        W 5184  11.190  34.975   1.311
38644W        W 5185   0.757  22.515   3.237
38645W        W 5186   7.708  43.416  14.411
38646W        W 5187   6.381  32.456  14.676
38647W        W 5188   9.832  25.236   3.278
38648W        W 5189  18.771   0.508   1.712
38649W        W 5190   2.227  14.728   3.741
38650W        W 5191  44.729   7.670   4.144
38651W        W 5192  11.597  26.652   3.175
38652W        W 5193  42.074  13.312  13.485
38653W        W 5194   8.132  41.535  12.394
38654W        W 5195  20.328  28.734  11.156
38655W        W 5196  41.459   9.530   3.653
38656W        W 5197  16.089  27.817  14.352
38657W        W 5198   9.783  36.998   2.348
38658W        W 5199  34.963  23.574  12.189
38659W        W 5200   5.833  16.717  12.977
38660W        W 5201  19.483   6.484   2.370
38661W        W 5202  20.087  27.810   3.686
38662W        W 5203  13.160  39.171  10.289
38663W        W 5204  26.235  17.287   3.171
38664W        W 5205  12.903   3.669   4.219
38665W        W 5206  30.383  21.642  10.761
38666W        W 5207   9.851  18.671  14.131
38667W        W 5208  23.089  30.618  10.394
38668W        W 5209  29.655  19.167   1.818
38669W        W 5210  12.855  30.653   2.847
38670W        W 5211  26.748   6.474  12.520
38671W        W 5212  30.590   4.775  14.877
38672W        W 5213  23.663   7.356   2.923
38673W        W 5214  15.640  16.530  14.027
38674W        W 5215  26.467   8.268   4.743
38675W        W 5216  31.628  35.842   1.958
38676W        W 5217   2.058  24.733  13.795
38677W        W 5218  21.524   6.741   3.915
38678W        W 5219   5.339  39.359  11.258
38679W        W 5220   1.249  26.507  14.416
38680W        W 5221   1.698   5.176   0.124
38681W        W 5222  26.656   6.626  11.106
38682W        W 5223  35.571  17.243   2.051
38683W        W 5224   0.312  24.071   3.519
38684W        W 5225  23.091  40.011  12.523
38685W        W 5226  24.244  39.323   1.829
38686W        W 5227  16.355  37.069   0.661
38687W        W 5228  14.748  13.523   4.196
38688W        W 5229  40.300   3.813  13.582
38689W        W 5230  10.108  10.494  13.499
38690W        W 5231  20.978  40.979  13.506
38691W        W 5232   8.571  44.532   3.277
38692W        W 5233  17.230  23.049   3.572
38693W        W 5234  10.676  13.731  13.892
38694W        W 5235  42.968  38.578   1.440
38695W        W 5236  35.033   3.922   3.123
38696W        W 5237  36.289  36.858  14.854
38697W        W 5238  20.617  42.471  12.132
38698W        W 5239  37.169  28.422   3.099
38699W        W 5240  23.893  15.639   1.405
38700W        W 5241   6.826  18.022  14.065
38701W        W 5242  25.295  19.384  11.106
38702W        W 5243  20.813  18.638  12.825
38703W        W 5244  12.305  33.770   4.141
38704W        W 5245  41.948  10.116   4.182
38705W        W 5246  12.570  33.325   0.241
38706W        W 5247  16.912  29.154   3.705
38707W        W 5248  28.048  25.515   2.339
38708W        W 5249  34.132  15.141  10.571
38709W        W 5250  39.440  27.752  11.576
38710W        W 5251  27.864  31.649  12.650
38711W        W 5252  25.961  16.861   3.290
38712W        W 5253  22.083  33.030  14.419
38713W        W 5254   9.567  18.220  14.076
38714W        W 5255   1.951  32.688   4.423
38715W        W 5256  22.695   9.734   1.704
38716W        W 5257  36.798   2.533   3.210
38717W        W 5258  27.752  14.825  13.946
38718W        W 5259   0.713  36.525   4.717
38719W        W 5260  31.511   5.969   1.236
38720W        W 5261  27.150  31.664   3.764
38721W        W 5262  30.980  11.746  12.488
38722W        W 5263  23.242  27.160  13.613
38723W        W 5264   2.788  43.227   2.345
38724W        W 5265  34.670  34.022  12.587
38725W        W 5266  23.870  16.815  12.969
38726W        W 5267  37.530   7.669  10.771
38727W        W 5268  43.521  25.913   1.253
38728W        W 5269   7.473   3.334  14.917
38729W        W 5270  29.087   3.157  13.292
38730W        W 5271  25.505  37.590   1.723
38731W        W 5272  36.084  27.713   3.426
38732W        W 5273  21.017  44.282   0.508
38733W        W 5274  14.547  23.225   4.119
38734W        W 5275  43.513  26.090  11.138
38735W        W 5276  15.143  33.510  10.561
38736W        W 5277  12.885  17.057  14.650
38737W        W 5278  40.322  44.487  11.473
38738W        W 5279   1.716   5.486   4.557
38739W        W 5280   0.645   6.465   3.623
38740W        W 5281  42.321  26.087  11.749
38741W        W 5282  36.594  15.654  12.914
38742W        W 5283   8.623  28.997   2.195
38743W        W 5284   4.291   7.323  12.401
38744W        W 5285  11.611   5.932  12.609
38745W        W 5286  37.115   2.889  14.849
38746W        W 5287  17.534  25.699  11.993
38747W        W 5288  25.639  20.665   4.353
38748W        W 5289   2.511   0.233  13.497
38749W        W 5290   4.134  41.553  14.782
38750W        W 5291  40.438  33.960   0.232
38751W        W 5292  18.569  33.556   1.681
38752W        W 5293  36.360  41.497   2.309
38753W        W 5294   1.552  10.640   2.885
38754W        W 5295  40.519  20.314   2.209
38755W        W 5296  26.850  33.982   5.108
38756W        W 5297  10.389  44.887   4.575
38757W        W 5298  27.938   8.165   1.200
38758W        W 5299  10.372  41.828   0.035
38759W        W 5300  20.712  21.674   2.993
38760W        W 5301  40.458  34.434   4.156
38761W        W 5302  28.917  23.449  11.609
38762W        W 5303  18.957  41.932   3.667
38763W        W 5304  36.435  12.325  13.519
38764W        W 5305  32.428   4.154   0.098
38765W        W 5306  33.892  12.334   3.429
38766W        W 5307  20.239  37.070   1.827
38767W        W 5308   4.386  30.493  14.930
38768W        W 5309  15.364  41.423  10.554
38769W        W 5310  10.268  10.258   1.151
38770W        W 5311  18.096  11.334   4.042
38771W        W 5312  27.472   3.803   0.428
38772W        W 5313   4.068   8.697  13.344
38773W        W 5314   7.682   2.829  14.403
38774W        W 5315  28.917  28.158   1.962
38775W        W 5316  24.391  21.215   1.294
38776W        W 5317  28.929  42.934  13.417
38777W        W 5318   8.168   3.933   1.824
38778W        W 5319  21.948  26.539   3.115
38779W        W 5320  40.879  41.865   4.675
38780W        W 5321   8.307  33.136  12.938
38781W        W 5322   8.122  42.241   3.241
38782W        W 5323  13.167  21.316  14.220
38783W        W 5324   5.773  26.710  10.826
38784W        W 5325  22.626  29.028   0.577
38785W        W 5326   5.679  28.728   3.620
38786W        W 5327  12.344  24.961  12.443
38787W        W 5328  20.515  16.196  13.007
38788W        W 5329  33.345  37.996  12.615
38789W        W 5330  35.532  44.665  13.929
38790W        W 5331   5.908  19.779  11.413
38791W        W 5332  25.906  31.162  11.912
38792W        W 5333  20.114   5.726  13.829
38793W        W 5334  36.065   1.659   1.761
38794W        W 5335  13.816  30.473   0.736
38795W        W 5336  40.591  16.337  12.626
38796W        W 5337   9.377  34.090   2.739
38797W        W 5338   0.759  34.816  10.976
38798W        W 5339   5.881  13.211  11.982
38799W        W 5340  38.092  18.148  13.330
38800W        W 5341   9.815   3.929   2.294
38801W        W 5342   6.815  31.768   4.232
38802W        W 5343  44.818  34.350   4.144
38803W        W 5344   9.670  26.641   4.309
38804W        W 5345  24.525   7.609  11.768
38805W        W 5346   9.455  31.252  12.147
38806W        W 5347  18.494  32.580  13.961
38807W        W 5348  35.751  34.549  13.462
38808W        W 5349  31.951  39.954  10.660
38809W        W 5350  26.850  32.723   1.553
38810W        W 5351  28.170  30.589  10.711
38811W        W 5352  34.989  43.276  10.734
38812W        W 5353  32.544  28.588  13.471
38813W        W 5354  17.117  30.678  13.563
38814W        W 5355  22.217  33.874   3.251
38815W        W 5356  43.255   5.806   2.784
38816W        W 5357   0.529   9.916  11.638
38817W        W 5358  19.481  41.241   2.260
38818W        W 5359   0.884  35.585  11.237
38819W        W 5360  11.134  34.014   3.240
38820W        W 5361  29.717  27.062   2.388
38821W        W 5362  16.407  18.062  14.079
38822W        W 5363   4.590  11.323   3.562
38823W        W 5364   9.682   3.213  13.552
38824W        W 5365  36.712  37.212  12.473
38825W        W 5366  37.931  43.323   0.956
38826W        W 5367   9.056  44.361  12.444
38827W        W 5368  39.866  16.443  14.954
38828W        W 5369   6.895  23.758  10.707
38829W        W 5370  16.810  38.183  12.979
38830W        W 5371  24.940   8.661  13.002
38831W        W 5372  27.586  42.009   0.841
38832W        W 5373   1.761  40.819  12.948
38833W        W 5374  36.943  27.169  14.836
38834W        W 5375  11.323  16.286  11.206
38835W        W 5376  38.542  22.229  10.865
38836W        W 5377  25.615  30.173   2.371
38837W        W 5378   5.967  27.067   1.831
38838W        W 5379  37.485  16.289   1.256
38839W        W 5380  39.557  25.690   0.832
38840W        W 5381  19.206  29.991  14.231
38841W        W 5382  14.820  12.650   3.658
38842W        W 5383  22.720  30.540  13.817
38843W        W 5384  23.776  40.367  14.049
38844W        W 5385  31.828  30.008   1.453
38845W        W 5386   5.837  26.653   2.335
38846W        W 5387  19.084  25.185  14.070
38847W        W 5388  33.492   5.692  12.138
38848W        W 5389  39.138  26.954   1.249
38849W        W 5390  18.591  21.959   2.798
38850W        W 5391  28.801  24.188  13.566
38851W        W 5392  37.291   7.931   0.829
38852W        W 5393  17.319  37.828  12.581
38853W        W 5394   2.601   4.333  14.057
38854W        W 5395  23.890  12.855   0.917
38855W        W 5396  43.551  37.325   4.244
38856W        W 5397  22.287  22.617   4.530
38857W        W 5398  32.432   6.781   4.375
38858W        W 5399  15.551  16.531   1.756
38859W        W 5400  29.334  26.008  11.035
38860W        W 5401   6.157  15.608   2.925
38861W        W 5402  27.929  29.421   3.692
38862W        W 5403  32.061   1.829  13.458
38863W        W 5404  39.438  39.385  12.418
38864W        W 5405  10.096   0.371  14.206
38865W        W 5406  26.671   7.470   4.134
38866W        W 5407  34.456  42.567  12.984
38867W        W 5408  15.730   2.270   2.407
38868W        W 5409   1.333  15.320   3.211
38869W        W 5410  38.906  39.479   3.623
38870W        W 5411  19.105  24.251  11.602
38871W        W 5412  28.075  12.642  10.530
38872W        W 5413   8.801  24.023   1.044
38873W        W 5414  19.857  26.748   4.306
38874W        W 5415   5.448  21.046   2.404
38875W        W 5416   6.419  29.660   2.757
38876W        W 5417  13.251   4.388   4.151
38877W        W 5418  31.108  12.193  11.419
38878W        W 5419  13.903   3.847  12.307
38879W        W 5420   3.934  38.437  14.558
38880W        W 5421  32.322  10.457  11.185
38881W        W 5422  17.070  22.814   2.223
38882W        W 5423   5.608  18.696  12.632
38883W        W 5424   0.440   8.862   3.134
38884W        W 5425  39.063  11.080   0.739
38885W        W 5426  28.759  27.563  12.945
38886W        W 5427   6.199  10.088  14.263
38887W        W 5428  17.629  14.716   3.218
38888W        W 5429   3.523  41.281  11.593
38889W        W 5430  33.035   5.568  12.355
38890W        W 5431  17.309  38.764   2.682
38891W        W 5432  41.898   5.553  14.683
38892W        W 5433  31.975  38.318   1.406
38893W        W 5434  28.688  20.579   2.819
38894W        W 5435  22.917  23.448   9.993
38895W        W 5436  40.081   6.644  14.306
38896W        W 5437  18.292   9.728  14.235
38897W        W 5438   4.807  27.929  10.415
38898W        W 5439  44.454  37.595   3.161
38899W        W 5440  19.286  41.588   3.914
38900W        W 5441  23.748  16.594   0.362
38901W        W 5442  24.614  15.554   3.533
38902W        W 5443  15.018  36.391  10.717
38903W        W 5444   9.894   9.096   2.547
38904W        W 5445  11.667  21.763  11.923
38905W        W 5446  37.976   7.380   4.170
38906W        W 5447  42.581   3.881   4.938
38907W        W 5448  39.853  31.860   3.647
38908W        W 5449  20.605   8.253  12.642
38909W        W 5450  39.273  27.908   3.838
38910W        W 5451  14.089   6.378  14.771
38911W        W 5452   7.830  25.935   0.674
38912W        W 5453  36.393  37.436  13.360
38913W        W 5454  30.091  26.498  14.367
38914W        W 5455  11.239   1.778   0.935
38915W        W 5456   9.020  30.227  12.173
38916W        W 5457   2.742   9.912   4.254
38917W        W 5458   1.876  13.883   0.504
38918W        W 5459   1.308  34.062   5.558
38919W        W 5460   0.341  41.382   4.289
38920W        W 5461   0.383  35.958   3.563
38921W        W 5462  42.894  11.406  12.695
38922W        W 5463  43.424  25.741  12.372
38923W        W 5464  32.657  26.483   2.152
38924W        W 5465  42.428  33.189   0.175
38925W        W 5466  31.129   7.928  14.812
38926W        W 5467  33.860  33.323  10.663
38927W        W 5468  25.094  32.831  13.835
38928W        W 5469  36.314   1.494  11.584
38929W        W 5470  33.587   8.984   1.817
38930W        W 5471   4.947  35.487  10.762
38931W        W 5472  12.201  22.229  11.904
38932W        W 5473  10.851  38.028  10.992
38933W        W 5474  23.634   5.745  12.535
38934W        W 5475   0.065   7.208  11.378
38935W        W 5476   7.680  36.144  13.375
38936W        W 5477  12.256  29.540   2.961
38937W        W 5478  41.599  39.445  14.236
38938W        W 5479  22.077   2.687  11.111
38939W        W 5480  38.844   0.724   2.797
38940W        W 5481   3.639  43.944  11.004
38941W        W 5482   9.117   6.924  11.879
38942W        W 5483  21.008  32.534  10.436
38943W        W 5484  19.189  35.156   2.303
38944W        W 5485   1.181   9.834  12.643
38945W        W 5486  21.510  33.970   3.825
38946W        W 5487   4.331  24.706  12.013
38947W        W 5488   1.200  18.066  13.970
38948W        W 5489   8.279  35.492   4.288
38949W        W 5490   3.581  10.705  12.018
38950W        W 5491  32.281  25.267  14.446
38951W        W 5492  22.276   5.263  13.963
38952W        W 5493  22.054  43.311   3.574
38953W        W 5494  16.748  21.163   3.729
38954W        W 5495  44.217   6.697   1.148
38955W        W 5496  43.572   9.096   1.455
38956W        W 5497  40.344  11.339  13.948
38957W        W 5498  36.629  42.125  11.502
38958W        W 5499   9.402   1.211   2.812
38959W        W 5500  34.520  14.065   1.926
38960W        W 5501  40.106  38.746   0.977
38961W        W 5502  18.762  20.250   4.412
38962W        W 5503  23.198  14.178   2.308
38963W        W 5504   5.212   0.879  11.181
38964W        W 5505  20.249   7.752  11.673
38965W        W 5506   0.409  10.409  12.953
38966W        W 5507  18.342   1.536  13.401
38967W        W 5508  37.672   1.015   4.188
38968W        W 5509  44.351  30.112  10.769
38969W        W 5510   5.317  25.785   0.909
38970W        W 5511   3.868  44.335   3.144
38971W        W 5512  19.273  32.778   0.672
38972W        W 5513   1.796  41.808  12.936
38973W        W 5514  32.762  26.984  12.482
38974W        W 5515  12.591  24.633   2.387
38975W        W 5516  14.834  11.935  14.987
38976W        W 5517  24.980  20.714  14.023
38977W        W 5518  36.065  43.953   2.289
38978W        W 5519  30.859   5.092   0.689
38979W        W 5520  38.789  35.095   4.500
38980W        W 5521   3.387  22.188  10.526
38981W        W 5522  28.265  41.016   2.317
38982W        W 5523  11.911  33.934  13.031
38983W        W 5524  39.722  11.768   3.181
38984W        W 5525  23.755  13.884  13.454
38985W        W 5526  29.072  23.018   3.614
38986W        W 5527  14.232   3.646   3.730
38987W        W 5528  25.582  40.764  11.291
38988W        W 5529  14.212  15.002  12.659
38989W        W 5530  42.559  15.689   2.908
38990W        W 5531  19.226  31.599  11.651
38991W        W 5532   1.914  14.664   3.319
38992W        W 5533  16.498   9.921  14.046
38993W        W 5534  21.398   3.031  11.589
38994W        W 5535  13.225  24.508   0.324
38995W        W 5536  24.217  40.601   1.322
38996W        W 5537  42.500   1.352   0.213
38997W        W 5538  27.142  38.096   1.309
38998W        W 5539  34.078  34.368   0.887
38999W        W 5540  40.785  19.061   1.944
39000W        W 5541  29.058  27.567  14.357
39001W        W 5542  27.020  31.227   3.506
39002W        W 5543  29.977  11.627  12.549
39003W        W 5544   0.703  35.652   0.128
39004W        W 5545  40.023  21.169  14.740
39005W        W 5546  30.121  14.887   4.189
39006W        W 5547  13.656   1.715  14.873
39007W        W 5548  28.602  38.653  11.955
39008W        W 5549  30.601  10.202   2.807
39009W        W 5550  27.843  21.203   4.087
39010W        W 5551   8.768  38.902   1.809
39011W        W 5552   5.760  19.074  13.936
39012W        W 5553   4.767  10.161  14.319
39013W        W 5554  25.304  14.330  14.936
39014W        W 5555   7.528  17.771   3.952
39015W        W 5556   0.486   7.260  12.612
39016W        W 5557   8.216  36.730   0.294
39017W        W 5558   5.412  14.078  13.101
39018W        W 5559   7.202   4.291   1.716
39019W        W 5560  10.421  16.054  10.737
39020W        W 5561  42.257   5.749  14.037
39021W        W 5562   7.175  41.538  11.440
39022W        W 5563  38.644  37.428  10.746
39023W        W 5564  38.788   5.654   3.696
39024W        W 5565  11.485  11.300   3.793
39025W        W 5566   0.554  42.207   1.237
39026W        W 5567  37.928  10.205   4.467
39027W        W 5568  36.319   0.254   0.916
39028W        W 5569  22.909  35.130  12.437
39029W        W 5570  28.519  20.289  14.825
39030W        W 5571  24.239  21.489  13.889
39031W        W 5572  33.611   8.183  12.163
39032W        W 5573  19.826  22.681   3.220
39033W        W 5574   5.221  38.423  12.562
39034W        W 5575  22.547  40.525  11.352
39035W        W 5576   7.895  31.740  10.594
39036W        W 5577  21.087  15.465   3.732
39037W        W 5578  10.096  22.251   0.357
39038W        W 5579  28.615  38.839  14.621
39039W        W 5580  36.199   3.995   4.088
39040W        W 5581  32.407  33.980   2.819
39041W        W 5582   1.859   7.849  12.596
39042W        W 5583   8.958  44.280   4.175
39043W        W 5584  36.747  19.692   2.906
39044W        W 5585  37.238  16.847  10.629
39045W        W 5586   8.278  11.429   4.316
39046W        W 5587  34.994  34.910  12.120
39047W        W 5588  36.318   3.778   3.206
39048W        W 5589  19.288  33.102   3.338
39049W        W 5590  32.176  22.781   0.597
39050W        W 5591   1.881  16.282   0.665
39051W        W 5592  17.273  18.651  14.893
39052W        W 5593  10.537  24.255  11.350
39053W        W 5594  32.427  23.462  13.991
39054W        W 5595  37.477  38.572   1.833
39055W        W 5596  10.688  44.180  14.522
39056W        W 5597   1.767  24.627  14.778
39057W        W 5598  24.067  40.596  12.137
39058W        W 5599  33.064   4.029  14.238
39059W        W 5600  29.812  43.941  11.995
39060W        W 5601  43.511   1.370  14.500
39061W        W 5602  20.137  33.698  14.077
39062W        W 5603  16.363  42.137  13.149
39063W        W 5604  26.203   7.254  11.713
39064W        W 5605  41.931  31.612  14.445
39065W        W 5606  13.068  26.481   0.429
39066W        W 5607  43.335  34.571   4.401
39067W        W 5608   0.452  24.795  13.040
39068W        W 5609  12.110  31.632   1.425
39069W        W 5610   5.835  33.483   4.105
39070W        W 5611  35.106  42.733  14.016
39071W        W 5612  27.650   1.699   3.640
39072W        W 5613  22.995  25.761   3.414
39073W        W 5614   6.330  22.980   0.390
39074W        W 5615  28.069  25.304  11.621
39075W        W 5616  44.459   4.898  14.461
39076W        W 5617   4.742  31.184  12.606
39077W        W 5618  29.705   8.161   3.203
39078W        W 5619  31.610  35.337  11.119
39079W        W 5620  44.459  30.824  13.296
39080W        W 5621  11.699  24.236  14.998
39081W        W 5622   9.672   6.394  10.732
39082W        W 5623   7.992  24.446   2.756
39083W        W 5624  13.926  10.770  11.451
39084W        W 5625  44.296  19.724  11.364
39085W        W 5626  13.242   4.997   3.373
39086W        W 5627  11.715   3.696   2.621
39087W        W 5628   3.825  41.442   0.972
39088W        W 5629   3.145  23.568  13.995
39089W        W 5630  18.255  22.202  12.374
39090W        W 5631  21.198  25.165  12.221
39091W        W 5632  41.588  37.928  14.880
39092W        W 5633  34.724  30.250   0.453
39093W        W 5634  10.142   1.329   5.303
39094W        W 5635  12.395  20.050  11.159
39095W        W 5636   3.386  44.458   4.628
39096W        W 5637  40.077  28.850   4.120
39097W        W 5638  43.908   8.862   1.839
39098W        W 5639  15.099  11.644  11.444
39099W        W 5640  29.425  20.134  12.603
39100W        W 5641  41.016  41.473   2.858
39101W        W 5642  12.802  18.227   0.850
39102W        W 5643  44.164  23.450   3.196
39103W        W 5644  20.727  36.902   3.588
39104W        W 5645  22.560  38.078   4.653
39105W        W 5646   1.789  12.693   0.894
39106W        W 5647  16.913  11.273   4.265
39107W        W 5648  34.069  21.958  12.038
39108W        W 5649  20.674  34.335   3.590
39109W        W 5650  42.379  27.718   1.808
39110W        W 5651  26.222  25.708   0.900
39111W        W 5652   4.174  22.665   0.479
39112W        W 5653  25.850   6.487   1.034
39113W        W 5654  10.322  44.727  11.989
39114W        W 5655   7.695  12.849  11.157
39115W        W 5656  27.722  18.016   1.344
39116W        W 5657  24.498  19.480  14.729
39117W        W 5658  32.835  17.092  11.103
39118W        W 5659   2.685  38.411  10.713
39119W        W 5660   5.028  22.936  13.899
39120W        W 5661  21.508  19.873   4.735
39121W        W 5662  18.789  36.629  11.696
39122W        W 5663  40.305  12.024   2.282
39123W        W 5664   1.937   6.937   1.611
39124W        W 5665  16.125  22.230   0.828
39125W        W 5666  13.803   0.888  13.890
39126W        W 5667  34.102  20.136  13.960
39127W        W 5668  42.489  12.891   2.674
39128W        W 5669  12.794  28.853  14.420
39129W        W 5670   7.592   1.335   3.308
39130W        W 5671  33.686   5.488  10.664
39131W        W 5672   3.137   5.282   0.155
39132W        W 5673   6.848  33.554   3.987
39133W        W 5674  18.818  44.887   3.660
39134W        W 5675   7.828  44.459   0.408
39135W        W 5676   6.299  24.262   0.941
39136W        W 5677  22.769  37.135  13.356
39137W        W 5678  22.493  36.207   4.025
39138W        W 5679  15.331  30.154  10.659
39139W        W 5680  11.818  32.673  13.425
39140W        W 5681  34.639   4.267   1.452
39141W        W 5682   1.410   6.113   2.801
39142W        W 5683  14.015  24.110  13.264
39143W        W 5684   8.346   1.022  11.039
39144W        W 5685  32.416  19.749  11.161
39145W        W 5686  35.612  38.315   3.269
39146W        W 5687  28.658  34.910   2.222
39147W        W 5688   5.404  42.988   1.943
39148W        W 5689  44.193   7.243   0.044
39149W        W 5690  26.133  37.440   2.266
39150W        W 5691  16.620  40.328   4.737
39151W        W 5692   5.480  43.214   0.665
39152W        W 5693  41.999  30.135   4.041
39153W        W 5694  41.626  38.918  11.687
39154W        W 5695  17.293  26.510  12.871
39155W        W 5696  14.440  40.279  12.874
39156W        W 5697  44.957  13.814   3.183
39157W        W 5698  37.970  28.319  14.014
39158W        W 5699   7.826  29.533   0.902
39159W        W 5700  19.196   7.124   2.326
39160W        W 5701   8.256  29.946  14.165
39161W        W 5702   9.054  43.941   4.571
39162W        W 5703  24.082  13.472  12.513
39163W        W 5704  29.002   8.219  12.199
39164W        W 5705  32.751  42.826   3.356
39165W        W 5706   5.446  33.952   1.421
39166W        W 5707  38.437  41.603  11.225
39167W        W 5708   3.755  32.124  13.946
39168W        W 5709  36.367  10.256   1.713
39169W        W 5710  44.610  44.988  12.088
39170W        W 5711  29.172  15.621  11.556
39171W        W 5712  11.202  15.887  12.604
39172W        W 5713  15.582  17.712   1.667
39173W        W 5714  39.046  36.155  14.316
39174W        W 5715   2.381  15.049  11.675
39175W        W 5716  41.314   2.699   0.799
39176W        W 5717  33.159  34.040   2.346
39177W        W 5718  15.396  36.083   4.923
39178W        W 5719  15.151  30.700  13.147
39179W        W 5720  32.863  44.481   2.429
39180W        W 5721  24.720  22.256  10.588
39181W        W 5722  17.671   9.828  10.377
39182W        W 5723  33.637  25.273   3.216
39183W        W 5724  34.570   6.817   0.461
39184W        W 5725  24.648  19.947  12.966
39185W        W 5726  14.858  26.918  13.292
39186W        W 5727  10.604  31.838  12.656
39187W        W 5728  15.748  26.170  13.331
39188W        W 5729   6.922   6.809  10.726
39189W        W 5730  36.520  13.656   1.261
39190W        W 5731  34.858   7.640  12.068
39191W        W 5732   6.791   6.476  11.606
39192W        W 5733  25.269   8.836   2.857
39193W        W 5734   3.408  17.657  12.491
39194W        W 5735   8.540  10.097  13.028
39195W        W 5736  28.145   0.297  12.939
39196W        W 5737   7.781  11.875   5.145
39197W        W 5738  21.295  10.343  12.620
39198W        W 5739  32.031   4.443   0.805
39199W        W 5740  36.122   6.357  14.923
39200W        W 5741  11.663  26.238   4.351
39201W        W 5742  10.127  35.899  10.674
39202W        W 5743   5.035  22.098  14.434
39203W        W 5744  21.657  10.902  10.572
39204W        W 5745  27.593  41.336  12.875
39205W        W 5746  24.609  27.177  11.462
39206W        W 5747  32.543  23.669  13.414
39207W        W 5748  31.234  15.324  13.742
39208W        W 5749  31.045   6.964   0.329
39209W        W 5750  16.800  18.781  13.928
39210W        W 5751  32.557  44.829   4.233
39211W        W 5752  32.246  33.157   1.692
39212W        W 5753  44.207  23.364  13.515
39213W        W 5754  35.010  34.533   4.561
39214W        W 5755   7.227  27.927  13.068
39215W        W 5756   6.924  43.357  12.298
39216W        W 5757   7.866   7.775   4.382
39217W        W 5758  37.281  12.566   4.053
39218W        W 5759  31.634   0.104  13.249
39219W        W 5760  19.144  28.208   3.642
39220W        W 5761  21.990  16.719  10.227
39221W        W 5762  12.258  30.753   3.682
39222W        W 5763   8.264  13.307   4.897
39223W        W 5764   9.848  32.156   0.779
39224W        W 5765  25.512  29.420   4.585
39225W        W 5766  32.123  24.586  10.679
39226W        W 5767  35.015  13.200  11.475
39227W        W 5768  41.048  42.864   4.564
39228W        W 5769   5.949  34.472   1.809
39229W        W 5770  21.051   4.642  13.008
39230W        W 5771  20.264  15.099   9.996
39231W        W 5772  35.403  14.716   3.872
39232W        W 5773  32.707  14.739  10.753
39233W        W 5774  16.713  30.451   3.435
39234W        W 5775  14.959  13.218  13.811
39235W        W 5776  24.437   3.620   0.983
39236W        W 5777  26.198  33.627   3.599
39237W        W 5778  28.632  26.085   1.813
39238W        W 5779   2.494  13.815   1.324
39239W        W 5780  19.398   5.325  11.105
39240W        W 5781   0.267  10.629   2.762
39241W        W 5782  43.010  31.025   1.372
39242W        W 5783   1.365  24.706  11.544
39243W        W 5784  22.546  35.607  14.578
39244W        W 5785  18.668  23.715  13.343
39245W        W 5786  28.222  31.011   0.849
39246W        W 5787  21.064  10.864   4.579
39247W        W 5788  10.590  38.886   1.745
39248W        W 5789  12.282   6.223   2.918
39249W        W 5790  42.041  24.575  13.385
39250W        W 5791  22.502   4.335   4.085
39251W        W 5792  28.336  36.943  14.765
39252W        W 5793   8.760  17.540   1.810
39253W        W 5794  13.552   7.616  11.255
39254W        W 5795  22.142  25.299   3.687
39255W        W 5796   6.116   7.470  11.208
39256W        W 5797  18.139  31.397  10.723
39257W        W 5798  17.735  20.661   1.779
39258W        W 5799  11.748  36.318   3.715
39259W        W 5800   8.790  43.414   4.057
39260W        W 5801  18.972  25.084   2.004
39261W        W 5802  21.268  17.871  14.323
39262W        W 5803  18.761   6.254   4.096
39263W        W 5804   0.464   1.022  12.509
39264W        W 5805  35.652  38.543  12.363
39265W        W 5806  31.717  34.590  11.481
39266W        W 5807  27.416   4.675   2.347
39267W        W 5808  28.134  19.360  10.506
39268W        W 5809   5.270  34.185   0.444
39269W        W 5810  18.575  25.139  14.243
39270W        W 5811   6.893  23.784  13.520
39271W        W 5812  42.811  32.462   3.771
39272W        W 5813  41.989  33.882   1.231
39273W        W 5814   8.541   8.405   0.002
39274W        W 5815  32.418  28.188  11.986
39275W        W 5816  35.057  25.244  13.001
39276W        W 5817  16.936  28.119  14.451
39277W        W 5818   4.532   3.684   0.412
39278W        W 5819   1.448  13.223  11.162
39279W        W 5820  30.284   3.180  13.487
39280W        W 5821  19.751  22.538  12.982
39281W        W 5822  13.095  13.508   2.771
39282W        W 5823  27.227  21.109   4.188
39283W        W 5824  32.553  35.990   4.011
39284W        W 5825   4.444  38.338  14.394
39285W        W 5826  33.924  33.391  13.886
39286W        W 5827  44.949   3.304  12.141
39287W        W 5828  15.885   8.720  11.531
39288W        W 5829  24.163  41.044   3.084
39289W        W 5830  10.161   5.758   4.133
39290W        W 5831   5.355  33.215   4.038
39291W        W 5832   5.356  29.108   1.280
39292W        W 5833   6.681  26.748  12.392
39293W        W 5834  44.591  40.315   4.491
39294W        W 5835  29.025   3.010  12.050
39295W        W 5836  25.945  11.679  11.110
39296W        W 5837  28.268  44.164   5.049
39297W        W 5838   2.454  34.683  11.048
39298W        W 5839  38.370  29.468   4.662
39299W        W 5840   5.418  32.519  14.936
39300W        W 5841   5.262  32.828  12.864
39301W        W 5842  24.478   2.774   0.660
39302W        W 5843   3.456  11.812  12.882
39303W        W 5844  42.561  14.426  12.381
39304W        W 5845  22.182  25.969  13.350
39305W        W 5846   7.252  37.196   3.354
39306W        W 5847  11.599   1.380  12.175
39307W        W 5848  12.407  28.606  11.849
39308W        W 5849  21.089  33.362   1.655
39309W        W 5850   4.079  13.087  12.557
39310W        W 5851   2.322  22.778  12.855
39311W        W 5852  28.729  34.332  11.051
39312W        W 5853   6.619  15.995   0.595
39313W        W 5854   2.880  29.086  10.914
39314W        W 5855   3.077  28.629  11.059
39315W        W 5856  29.536  16.129  13.026
39316W        W 5857  18.214  17.258   3.079
39317W        W 5858  19.193  23.110  14.934
39318W        W 5859  12.734  39.045  13.797
39319W        W 5860   4.698  19.139   2.244
39320W        W 5861  33.284  42.454   0.312
39321W        W 5862  44.075   0.900  13.056
39322W        W 5863  19.372  38.522  12.195
39323W        W 5864  41.544  37.764  12.528
39324W        W 5865  44.290  38.349   3.730
39325W        W 5866   7.261  22.189  11.985
39326W        W 5867   4.891  25.974   1.662
39327W        W 5868  10.111  32.632  14.255
39328W        W 5869  35.323  40.900   4.234
39329W        W 5870  42.469  16.359   2.585
39330W        W 5871  22.125  24.646  12.224
39331W        W 5872  12.782   3.189   1.482
39332W        W 5873  42.524   9.148   4.165
39333W        W 5874  10.312   0.895   0.855
39334W        W 5875  36.727   3.323  10.604
39335W        W 5876   8.780  29.838   0.037
39336W        W 5877  11.701  31.519   4.830
39337W        W 5878  26.894  27.093  14.840
39338W        W 5879  35.427  14.029  14.657
39339W        W 5880  35.835  17.596   0.377
39340W        W 5881   2.925  16.544  10.762
39341W        W 5882  39.346  38.565   1.876
39342W        W 5883  21.689  16.939  11.917
39343W        W 5884   3.338  19.887   4.596
39344W        W 5885  43.891   6.793   0.756
39345W        W 5886  24.126   5.946  14.004
39346W        W 5887  24.750  23.981  14.042
39347W        W 5888  16.025   0.876   2.963
39348W        W 5889  18.148  10.804  11.579
39349W        W 5890  36.097  44.992   3.680
39350W        W 5891  16.347  10.350  14.909
39351W        W 5892  18.073   7.497   3.255
39352W        W 5893  11.700   3.513   3.107
39353W        W 5894  28.978   3.558  12.906
39354W        W 5895  32.601  24.535   4.028
39355W        W 5896  20.688  38.887   4.205
39356W        W 5897  35.389  18.739   4.587
39357W        W 5898  29.846  27.809   3.623
39358W        W 5899  36.373  27.667  13.096
39359W        W 5900  40.953  18.189  14.138
39360W        W 5901  21.635   8.432  11.045
39361W        W 5902  17.614  31.604  11.392
39362W        W 5903  11.842  42.739  14.339
39363W        W 5904  38.940  29.081   2.812
39364W        W 5905  24.718  19.479  13.729
39365W        W 5906  32.656  13.267  13.314
39366W        W 5907   5.958   3.893   1.354
39367W        W 5908   0.945  32.099  12.949
39368W        W 5909  23.198  38.104   2.459
39369W        W 5910   2.233  18.487   3.435
39370W        W 5911  11.212   8.187  12.448
39371W        W 5912  12.307  44.026   3.819
39372W        W 5913   7.503   5.391   3.686
39373W        W 5914  37.425  43.286   4.581
39374W        W 5915  32.926  25.300  12.331
39375W        W 5916  30.803  39.368  13.643
39376W        W 5917   4.252   6.281   5.075
39377W        W 5918  43.257  36.395  14.354
39378W        W 5919  43.803   7.734   3.959
39379W        W 5920  23.069  22.278  14.427
39380W        W 5921  37.808  27.406  14.098
39381W        W 5922  14.794   1.205  10.736
39382W        W 5923  14.335  10.302   3.516
39383W        W 5924  35.270  34.399   1.651
39384W        W 5925   0.687  42.395  13.410
39385W        W 5926   7.789   6.517   2.211
39386W        W 5927  34.322  20.133   4.194
39387W        W 5928  27.560   3.151   3.763
39388W        W 5929  17.742   9.619   0.375
39389W        W 5930  24.041   2.443   3.235
39390W        W 5931  36.307  29.860  11.634
39391W        W 5932  12.275  43.212   0.749
39392W        W 5933   5.661  29.021  12.049
39393W        W 5934  30.008  31.899   1.136
39394W        W 5935  16.744  43.463   0.357
39395W        W 5936  38.102  44.865  10.343
39396W        W 5937  29.423  37.504   2.786
39397W        W 5938  20.802   6.288  13.266
39398W        W 5939  25.550  19.782   0.383
39399W        W 5940  16.727  29.853   1.153
39400W        W 5941  24.765   1.000   1.417
39401W        W 5942   5.982  14.808   2.755
39402W        W 5943   1.938  11.263  13.449
39403W        W 5944   4.190  29.124   4.665
39404W        W 5945  30.626  37.619   4.715
39405W        W 5946   9.874  33.449  14.774
39406W        W 5947   7.345   0.206   0.274
39407W        W 5948  36.120  12.142   1.808
39408W        W 5949  36.260   6.297   3.467
39409W        W 5950  19.757   0.851   4.348
39410W        W 5951  35.687   2.927   2.296
39411W        W 5952  22.097   5.849  12.810
39412W        W 5953  21.797  40.965  14.001
39413W        W 5954   2.028  28.466   1.364
39414W        W 5955   1.810  23.119   1.276
39415W        W 5956  36.989  36.526  10.746
39416W        W 5957  13.593  27.495  13.335
39417W        W 5958  16.277  24.513  10.277
39418W        W 5959  15.675  22.598   2.542
39419W        W 5960  24.108  32.898  12.251
39420W        W 5961  24.543   0.400   3.687
39421W        W 5962   3.772  21.114   4.528
39422W        W 5963  20.366  44.948   3.595
39423W        W 5964  39.489  10.546   5.310
39424W        W 5965  35.068  40.829   3.782
39425W        W 5966  22.816  10.066   2.855
39426W        W 5967  33.616   6.749   1.530
39427W        W 5968   5.540  13.169   0.139
39428W        W 5969  19.415  40.734   3.784
39429W        W 5970   0.190   7.687  13.481
39430W        W 5971  15.427  12.708  10.809
39431W        W 5972  30.554  43.236   0.717
39432W        W 5973  20.723  14.729  13.048
39433W        W 5974  35.937  26.606   0.039
39434W        W 5975  32.545  37.453   2.235
39435W        W 5976  30.022  24.218   0.832
39436W        W 5977  38.649   3.649   2.246
39437W        W 5978  29.022   0.998  13.794
39438W        W 5979  25.639   4.663   0.084
39439W        W 5980  44.050  14.312  14.791
39440W        W 5981  16.778  16.907   3.133
39441W        W 5982  25.908  34.136   1.792
39442W        W 5983  10.898  14.161  11.996
39443W        W 5984  42.493  25.657  11.524
39444W        W 5985  10.695  27.825   9.974
39445W        W 5986  40.151  10.195  12.493
39446W        W 5987   1.476  16.513   3.772
39447W        W 5988   8.810  44.644   3.747
39448W        W 5989  28.586  11.239   4.581
39449W        W 5990  27.526  20.800  12.143
39450W        W 5991  35.821  24.077  13.045
39451W        W 5992  44.995  24.655   5.020
39452W        W 5993   8.530   6.326   4.971
39453W        W 5994  26.576  14.296   4.522
39454W        W 5995   0.727  17.282   5.147
39455W        W 5996  31.394   5.265  11.092
39456W        W 5997  14.247  30.677  13.585
39457W        W 5998   0.283  28.418   2.831
39458W        W 5999   4.090   1.562   4.852
39459W        W 6000  37.535  29.576  13.788
39460W        W 6001  39.081  38.275  13.035
39461W        W 6002  44.665   5.308   0.887
39462W        W 6003  15.843  16.562  12.936
39463W        W 6004  15.805   6.979   4.070
39464W        W 6005  19.871  38.783   5.093
39465W        W 6006   1.943   2.646   1.489
39466W        W 6007  23.226   2.688   3.674
39467W        W 6008  21.108   0.049  13.014
39468W        W 6009  31.569   3.930  12.564
39469W        W 6010   2.659  14.662   2.810
39470W        W 6011  36.111  27.604  11.163
39471W        W 6012  37.336  23.223   1.317
39472W        W 6013  28.025  30.133  10.529
39473W        W 6014  15.872  40.809   2.877
39474W        W 6015   6.246  13.202  10.986
39475W        W 6016  43.274  29.668  13.786
39476W        W 6017  38.105  24.058   2.127
39477W        W 6018  21.729  21.105   2.746
39478W        W 6019  13.641  21.875   2.278
39479W        W 6020  26.569   1.710  12.000
39480W        W 6021  10.835   8.230   0.337
39481W        W 6022  30.635   6.932   4.355
39482W        W 6023  41.833  42.467   4.338
39483W        W 6024  24.381  38.505   2.929
39484W        W 6025  38.768   9.729  10.730
39485W        W 6026  33.494  25.508  11.555
39486W        W 6027  30.422   7.678   0.288
39487W        W 6028  13.696  32.663  10.617
39488W        W 6029  37.807  35.776  12.962
39489W        W 6030  27.075  39.477   1.460
39490W        W 6031  27.688  18.261  12.128
39491W        W 6032  42.831  42.125   3.621
39492W        W 6033  18.574  39.879   4.555
39493W        W 6034  26.168  20.537  11.677
39494W        W 6035  40.952  32.563  11.113
39495W        W 6036  41.799  15.641  12.262
39496W        W 6037   4.220  31.149   1.254
39497W        W 6038  28.734  41.810  13.963
39498W        W 6039  30.624  42.341  14.701
39499W        W 6040  37.426  26.755   4.198
39500W        W 6041  40.892  24.601  12.549
39501W        W 6042  36.770  36.502  14.314
39502W        W 6043  36.089   6.352   3.953
39503W        W 6044  30.447  42.343   1.645
39504W        W 6045   0.352  25.846   3.206
39505W        W 6046  14.114  28.984   9.891
39506W        W 6047  32.252  19.953  14.700
39507W        W 6048  44.737   3.581   5.049
39508W        W 6049  26.122   3.873   3.202
39509W        W 6050   5.582   5.250  11.479
39510W        W 6051   4.370   5.830   0.070
39511W        W 6052  25.424  15.709  12.909
39512W        W 6053  36.051  26.810  14.034
39513W        W 6054  27.166  15.151  13.154
39514W        W 6055  20.125   7.396   1.760
39515W        W 6056  29.179   8.218  12.677
39516W        W 6057  23.978  44.936  11.484
39517W        W 6058  36.945  14.154  14.053
39518W        W 6059  28.457   8.320   3.507
39519W        W 6060  14.846   9.723   4.198
39520W        W 6061   2.710  21.723  13.030
39521W        W 6062  35.806  37.578  12.723
39522W        W 6063  17.442  17.133  11.146
39523W        W 6064  30.530   2.400   5.008
39524W        W 6065  22.286  13.270  12.517
39525W        W 6066  21.153  41.799  12.081
39526W        W 6067   1.867  40.487  11.549
39527W        W 6068  38.117  37.563   2.495
39528W        W 6069   4.664  11.190  13.402
39529W        W 6070  19.502  38.964  10.787
39530W        W 6071  33.397   0.965   4.894
39531W        W 6072  15.119  37.928  11.922
39532W        W 6073  31.891  39.089   5.018
39533W        W 6074  13.332  22.662   0.929
39534W        W 6075   7.785   9.038   0.277
39535W        W 6076   3.739  22.421   5.021
39536W        W 6077  13.170  25.252  13.507
39537W        W 6078  22.785   4.343   0.753
39538W        W 6079  41.121  40.585  11.466
39539W        W 6080  36.587  13.791  11.478
39540W        W 6081   3.345  16.366   1.666
39541W        W 6082  29.362   5.785  12.378
39542W        W 6083   2.516  39.369  10.962
39543W        W 6084  19.241  16.234   1.874
39544W        W 6085  23.987  14.328   0.829
39545W        W 6086  30.304  30.532  12.795
39546W        W 6087  15.499  12.632   9.964
39547W        W 6088  35.956  31.006   3.689
39548W        W 6089   7.230  26.988  14.700
39549W        W 6090  18.364   4.446  13.538
39550W        W 6091  23.154  40.581  10.212
39551W        W 6092  33.585  12.080  14.868
39552W        W 6093  11.970  36.127   5.010
39553W        W 6094  42.405  40.553  10.981
39554W        W 6095   2.849  10.043  13.561
39555W        W 6096  21.066  26.496   3.694
39556W        W 6097  37.918   4.907  13.979
39557W        W 6098  32.484  20.540  12.363
39558W        W 6099  23.869  37.910  14.876
39559W        W 6100   5.827  44.502   1.728
39560W        W 6101  42.114  16.525   0.778
39561W        W 6102  25.582  19.283  11.983
39562W        W 6103   8.099   5.968  12.433
39563W        W 6104  32.022  31.676   2.726
39564W        W 6105   6.123   6.498  10.955
39565W        W 6106  18.217  37.559  14.209
39566W        W 6107  41.228   7.400  11.663
39567W        W 6108  28.085  20.290   2.304
39568W        W 6109  27.141  20.568   4.010
39569W        W 6110  34.438  40.847  14.889
39570W        W 6111  14.059  18.146   3.099
39571W        W 6112  15.528  25.655   4.243
39572W        W 6113  40.856  18.332  11.106
39573W        W 6114  33.875  32.282   2.431
39574W        W 6115  11.822  11.461  11.608
39575W        W 6116  35.882  24.239  12.554
39576W        W 6117  15.404  24.812  11.233
39577W        W 6118   8.433   2.477  13.472
39578W        W 6119  27.616  30.663  11.543
39579W        W 6120   8.725  24.572   0.905
39580W        W 6121  31.019  33.777  11.558
39581W        W 6122   8.737  32.620  12.014
39582W        W 6123   1.677  16.425   5.032
39583W        W 6124   7.988  25.229  12.496
39584W        W 6125   4.812  31.484  14.357
39585W        W 6126  11.596  14.340  13.262
39586W        W 6127  43.029   5.765   4.050
39587W        W 6128  14.761  44.482  10.089
39588W        W 6129   2.998  30.727  14.882
39589W        W 6130   6.103  27.241   0.103
39590W        W 6131  41.430   2.440   4.197
39591W        W 6132  18.257  35.857  13.837
39592W        W 6133   6.329  32.943  14.829
39593W        W 6134  25.004   8.028  13.580
39594W        W 6135  24.193   4.601  10.878
39595W        W 6136  43.029  14.566  12.176
39596W        W 6137  42.967  44.342  11.420
39597W        W 6138   3.944  34.550  14.832
39598W        W 6139  40.170  36.004   0.307
39599W        W 6140  13.106   0.417   3.560
39600W        W 6141   5.677  30.099  12.857
39601W        W 6142  27.558  27.697   4.926
39602W        W 6143  26.990  28.430  10.174
39603W        W 6144  31.459  30.760   0.694
39604W        W 6145  26.399  13.884  14.526
39605W        W 6146   4.211  29.787  13.484
39606W        W 6147   5.685  22.754  13.060
39607W        W 6148  33.887  32.433   3.735
39608W        W 6149   1.867  31.383   4.446
39609W        W 6150  14.320   1.962   3.267
39610W        W 6151  22.038  30.879  13.012
39611W        W 6152  21.708   7.672   0.788
39612W        W 6153   3.242   3.223   3.230
39613W        W 6154  26.105  42.011   0.286
39614W        W 6155  21.574  44.813   4.388
39615W        W 6156  30.910   3.119  12.025
39616W        W 6157  10.554  30.400  10.637
39617W        W 6158  12.582  24.684  13.975
39618W        W 6159   0.859   1.543  10.449
39619W        W 6160  19.745  33.180   2.442
39620W        W 6161  34.403  26.058   2.132
39621W        W 6162  13.758  25.609   0.440
39622W        W 6163  13.292  24.439   3.176
39623W        W 6164  36.186  16.015   4.990
39624W        W 6165  25.143  18.558   1.831
39625W        W 6166  28.195  13.908  11.145
39626W        W 6167  31.621  22.293  12.450
39627W        W 6168  28.890   0.559   2.219
39628W        W 6169   9.138  10.124  13.496
39629W        W 6170  24.026  30.092  12.061
39630W        W 6171  27.266  24.331   4.890
39631W        W 6172  12.271  43.733   0.843
39632W        W 6173   8.198  14.203  11.962
39633W        W 6174  33.108  25.431  10.957
39634W        W 6175  18.783   8.418  13.330
39635W        W 6176  38.890  18.296  13.171
39636W        W 6177  29.199   4.423  13.432
39637W        W 6178  37.196  19.278   2.774
39638W        W 6179  43.861  33.521   3.486
39639W        W 6180  41.752  24.588  14.787
39640W        W 6181  12.504  10.313   0.896
39641W        W 6182  25.135  20.143   5.096
39642W        W 6183  28.380  23.636  12.937
39643W        W 6184  27.750  29.427   2.413
39644W        W 6185  11.609  14.037   2.426
39645W        W 6186  12.079  13.210   1.688
39646W        W 6187   0.003  26.640   4.238
39647W        W 6188  18.144   3.347   2.859
39648W        W 6189  19.013  43.657  11.451
39649W        W 6190  14.896  36.427  11.674
39650W        W 6191  39.113   3.737   0.846
39651W        W 6192  33.905  32.650   2.858
39652W        W 6193  37.816  27.734   4.129
39653W        W 6194  41.918  31.446   0.788
39654W        W 6195  24.067  23.465   1.221
39655W        W 6196   1.376  21.292  10.940
39656W        W 6197  36.350  11.090   3.652
39657W        W 6198   1.672   1.845   4.493
39658W        W 6199  21.099  14.705  12.289
39659W        W 6200  20.682   9.734   4.598
39660W        W 6201   7.390  21.291  14.737
39661W        W 6202   1.687  41.071   1.738
39662W        W 6203   9.106  11.841  14.477
39663W        W 6204  24.704  33.582  14.280
39664W        W 6205  38.362   5.050   4.254
39665W        W 6206  36.947   5.372  14.027
39666W        W 6207  29.556  43.807   2.751
39667W        W 6208   7.712  42.975   5.116
39668W        W 6209  26.687  15.296  12.720
39669W        W 6210  27.009   3.696   1.710
39670W        W 6211  37.393  19.644  14.541
39671W        W 6212  34.401  16.616   0.490
39672W        W 6213   5.855  35.953  13.070
39673W        W 6214  39.860  38.352  10.691
39674W        W 6215   8.284   5.703  11.985
39675W        W 6216  25.181  29.450   2.316
39676W        W 6217   8.709  37.798  14.243
39677W        W 6218   8.949  10.196  14.224
39678W        W 6219  35.598  29.888   0.303
39679W        W 6220  11.956   5.098   4.065
39680W        W 6221   4.703  21.021   4.349
39681W        W 6222  32.138  23.647  13.093
39682W        W 6223  27.897  34.655   3.599
39683W        W 6224   8.829  22.119   1.069
39684W        W 6225  42.000   1.666   3.121
39685W        W 6226  41.766  15.195   0.999
39686W        W 6227  22.731  21.194   3.859
39687W        W 6228  18.026   4.397  13.012
39688W        W 6229  42.341  30.614   4.322
39689W        W 6230  38.311  17.357  12.378
39690W        W 6231  11.719  27.712  14.786
39691W        W 6232  37.349  41.083   4.152
39692W        W 6233   0.795  21.496  13.676
39693W        W 6234  26.715  35.597  13.104
39694W        W 6235  20.348  21.659  12.999
39695W        W 6236  11.128  35.126  11.088
39696W        W 6237   4.401  31.371  14.944
39697W        W 6238   3.095  44.515   3.843
39698W        W 6239   4.209  36.070   3.777
39699W        W 6240  37.616  37.493   2.754
39700W        W 6241  21.432  32.162  12.043
39701W        W 6242  30.042  43.715   4.722
39702W        W 6243  36.532   5.943   2.748
39703W        W 6244  16.715  25.063   4.255
39704W        W 6245   6.840   2.978   1.850
39705W        W 6246  33.847  33.800  10.433
39706W        W 6247   0.464  32.893   0.527
39707W        W 6248   5.279  36.716  13.961
39708W        W 6249  15.165  20.174  13.512
39709W        W 6250  24.433  32.947   1.378
39710W        W 6251  17.477  25.886   2.646
39711W        W 6252  40.583  11.802  13.029
39712W        W 6253  43.509  10.666   0.451
39713W        W 6254   2.435  41.897   0.389
39714W        W 6255  43.482   2.564  12.866
39715W        W 6256  44.636  24.359  12.627
39716W        W 6257  14.970  40.643  11.445
39717W        W 6258  35.403  19.299  13.837
39718W        W 6259  18.008  17.328  14.951
39719W        W 6260   7.936  34.971  14.275
39720W        W 6261  35.800  26.911  10.701
39721W        W 6262  20.834  19.055  13.148
39722W        W 6263  41.372  32.958   0.803
39723W        W 6264   2.732   5.011  14.379
39724W        W 6265   9.102  28.696  11.189
39725W        W 6266   7.800  30.147  10.624
39726W        W 6267   2.832  35.562  14.771
39727W        W 6268  25.250   5.794   9.840
39728W        W 6269  11.359  33.108  10.712
39729W        W 6270  43.903  16.366  12.588
39730W        W 6271  41.091  32.426   1.497
39731W        W 6272   9.973  21.643   1.098
39732W        W 6273   9.766   4.121   1.757
39733W        W 6274   8.407   6.860   0.494
39734W        W 6275  31.253  16.797   0.414
39735W        W 6276   4.803  43.143  12.081
39736W        W 6277   7.434  29.627  11.608
39737W        W 6278  10.327  14.704  13.811
39738W        W 6279  44.071  21.255  13.775
39739W        W 6280   4.495  24.710   2.812
39740W        W 6281   0.944  40.133  10.184
39741W        W 6282  20.825  29.236   1.148
39742W        W 6283  10.510  36.567   3.290
39743W        W 6284  43.826   9.864  13.027
39744W        W 6285  42.819  10.130  12.992
39745W        W 6286  12.174  21.468  13.525
39746W        W 6287  22.154   8.633  13.912
39747W        W 6288  15.022  36.455   0.283
39748W        W 6289   8.219  19.135  12.942
39749W        W 6290  38.206  38.277   2.490
39750W        W 6291  18.476  30.516   0.926
39751W        W 6292  18.721  38.320   3.172
39752W        W 6293   0.300  26.772  14.387
39753W        W 6294   4.684  32.001   1.962
39754W        W 6295  34.535  18.313   2.123
39755W        W 6296   5.276  18.370   3.648
39756W        W 6297  36.339  35.203   2.721
39757W        W 6298  39.118  30.468   3.106
39758W        W 6299  16.418   8.771  11.507
39759W        W 6300  34.312  29.978   3.729
39760W        W 6301   1.336  14.269   2.890
39761W        W 6302   1.482  31.625   2.292
39762W        W 6303  41.624  12.594  12.743
39763W        W 6304   4.615  23.575  14.325
39764W        W 6305  29.431   9.253   0.000
39765W        W 6306  18.310  20.642  11.979
39766W        W 6307   3.260  29.508   1.796
39767W        W 6308  40.495  17.356  12.886
39768W        W 6309  39.007   4.667   1.700
39769W        W 6310  19.137  20.759  14.740
39770W        W 6311  31.349   4.459  14.545
39771W        W 6312  28.309  14.729   0.721
39772W        W 6313  42.782   7.309   4.215
39773W        W 6314  25.681  32.100  14.563
39774W        W 6315  13.250  26.780  12.569
39775W        W 6316  38.470   0.993   1.405
39776W        W 6317   0.981   3.300  11.394
39777W        W 6318  33.172  24.355  12.027
39778W        W 6319  44.944  37.488   3.065
39779W        W 6320  34.936   0.453  12.092
39780W        W 6321  33.524  37.148  13.893
39781W        W 6322  28.851   8.377  13.039
39782W        W 6323  36.325  26.585  14.683
39783W        W 6324   8.961  42.527   4.607
39784W        W 6325  42.457   2.714  12.988
39785W        W 6326  18.962  33.536  12.202
39786W        W 6327   5.116   6.178  14.275
39787W        W 6328  18.737  19.491  14.852
39788W        W 6329   8.137  34.856  11.973
39789W        W 6330  44.414  16.350  12.508
39790W        W 6331  28.723   1.907   4.367
39791W        W 6332  33.378  12.978   0.831
39792W        W 6333   0.410  29.825   0.370
39793W        W 6334  25.139  23.971   2.655
39794W        W 6335  21.632   1.309   2.768
39795W        W 6336  11.139  29.228  13.860
39796W        W 6337   2.894  19.545  13.854
39797W        W 6338  16.551  39.430  14.077
39798W        W 6339  33.511  20.170  11.637
39799W        W 6340   6.239   0.783   0.339
39800W        W 6341  23.161   8.879   0.849
39801W        W 6342  33.359  15.274   3.703
39802W        W 6343  22.980   5.918  14.064
39803W        W 6344  13.203  43.364  13.845
39804W        W 6345  44.280   1.489   4.855
39805W        W 6346   4.913  38.849   0.506
39806W        W 6347  39.146  22.810  14.821
39807W        W 6348  21.785  27.381   1.269
39808W        W 6349   2.815  11.116   0.770
39809W        W 6350  35.128  15.685  11.976
39810W        W 6351  42.838  15.257   2.820
39811W        W 6352  17.260  14.312   3.234
39812W        W 6353  32.292  27.895  12.818
39813W        W 6354  41.436  27.696  13.799
39814W        W 6355   9.724  10.805  14.772
39815W        W 6356  25.189  30.812  11.471
39816W        W 6357  37.372  18.736   0.717
39817W        W 6358  14.503  22.145  14.890
39818W        W 6359  24.659  39.471   0.668
39819W        W 6360  41.710  27.567   1.059
39820W        W 6361   8.126  28.165  14.213
39821W        W 6362   2.755  11.732   2.234
39822W        W 6363  25.637   6.259   3.874
39823W        W 6364  34.553  12.515   3.463
39824W        W 6365  40.036  36.357  12.137
39825W        W 6366  28.868   1.549  11.139
39826W        W 6367  32.008  20.672   2.742
39827W        W 6368  13.762  36.349   4.521
39828W        W 6369  10.187   9.016   1.837
39829W        W 6370  32.079  37.795   0.535
39830W        W 6371  21.732  20.573   2.825
39831W        W 6372  19.160  21.624  10.353
39832W        W 6373   6.555  41.872  12.130
39833W        W 6374  30.748  21.776  12.095
39834W        W 6375  30.664  27.232   2.429
39835W        W 6376  27.903  17.037  11.916
39836W        W 6377  44.014  25.999   0.282
39837W        W 6378  39.953  19.293  13.508
39838W        W 6379  37.433  23.755  10.783
39839W        W 6380  33.423  10.784  12.337
39840W        W 6381  20.162  38.053  14.708
39841W        W 6382   5.255  23.367   4.217
39842W        W 6383  44.929   9.127  12.654
39843W        W 6384  42.162  24.474   0.729
39844W        W 6385   4.792  18.663  11.171
39845W        W 6386  43.696  42.315   1.261
39846W        W 6387  29.894  20.821   0.393
39847W        W 6388  44.875  16.708   1.139
39848W        W 6389  34.450   4.511   5.635
39849W        W 6390  24.151  26.311  14.815
39850W        W 6391  15.852   7.415   2.351
39851W        W 6392  18.444  22.542   0.060
39852W        W 6393  36.620  21.387   1.834
39853W        W 6394  22.921  14.290  13.407
39854W        W 6395  20.156  16.217   2.316
39855W        W 6396  36.024  36.040   3.578
39856W        W 6397  21.262  25.475  11.421
39857W        W 6398  35.246  40.543   1.463
39858W        W 6399  32.807   3.806   3.635
39859W        W 6400  37.518   8.284  12.766
39860W        W 6401   9.817  38.369  10.225
39861W        W 6402  36.334  24.696  12.579
39862W        W 6403  28.638   5.417   4.611
39863W        W 6404  41.785   1.707  10.353
39864W        W 6405   3.509  14.232  14.823
39865W        W 6406   1.263  25.062   1.932
39866W        W 6407  12.039  15.544  13.133
39867W        W 6408  41.008  26.391  11.586
39868W        W 6409  18.146   8.239   0.632
39869W        W 6410   5.282   9.758   1.710
39870W        W 6411  25.958  44.164  11.114
39871W        W 6412   4.206  12.613  11.478
39872W        W 6413  26.201  21.696  11.588
39873W        W 6414   6.432  36.141   1.748
39874W        W 6415  11.569  44.738  11.669
39875W        W 6416  36.638   8.084   4.497
39876W        W 6417  44.773  44.197  14.887
39877W        W 6418  43.226   3.799  14.541
39878W        W 6419  13.693   1.166  13.119
39879W        W 6420  23.458  29.410  10.586
39880W        W 6421  35.659  27.635   1.035
39881W        W 6422  18.094  41.386   1.726
39882W        W 6423   7.176  12.891  11.165
39883W        W 6424   7.463   2.501  12.016
39884W        W 6425  31.025   3.211  14.294
39885W        W 6426  34.013   1.015  13.947
39886W        W 6427  12.771  17.139   0.149
39887W        W 6428  30.608  35.518   4.862
39888W        W 6429   7.137  37.013  11.698
39889W        W 6430  41.743  21.574  10.388
39890W        W 6431  12.349  22.072   2.619
39891W        W 6432  21.451  15.797  12.860
39892W        W 6433  43.118   2.924  13.979
39893W        W 6434  15.655  22.957  12.507
39894W        W 6435   1.320  42.516  12.859
39895W        W 6436  22.973  42.835  14.568
39896W        W 6437   2.934   2.873  13.024
39897W        W 6438  41.397  39.401   4.217
39898W        W 6439   4.811  39.900   4.918
39899W        W 6440  36.880  37.783  10.749
39900W        W 6441   6.628  24.537   0.465
39901W        W 6442  15.084  43.506  12.966
39902W        W 6443   1.912  35.449  12.004
39903W        W 6444  20.762  24.972  12.804
39904W        W 6445  36.065  18.419   0.855
39905W        W 6446   1.142  19.181   0.771
39906W        W 6447   0.258  23.588   4.304
39907W        W 6448  27.724   3.359   4.192
39908W        W 6449  37.630  39.922   3.405
39909W        W 6450  14.895  43.498  11.155
39910W        W 6451  40.716   8.083  14.425
39911W        W 6452   5.653  19.574   1.752
39912W        W 6453   2.214  30.564   4.224
39913W        W 6454  22.086   0.801  13.765
39914W        W 6455  10.822  44.878  11.957
39915W        W 6456  18.165  16.482   0.319
39916W        W 6457  36.969  41.079  13.363
39917W        W 6458  14.594  27.522   4.144
39918W        W 6459   6.859  35.545  10.553
39919W        W 6460  23.807   9.156   2.813
39920W        W 6461   7.485  42.269   0.337
39921W        W 6462  40.285  34.696  11.677
39922W        W 6463  18.062  29.475  13.526
39923W        W 6464  38.892  43.888   1.812
39924W        W 6465  40.031  23.215  11.055
39925W        W 6466  19.136  18.824   1.024
39926W        W 6467  34.873  12.147  13.361
39927W        W 6468   4.347  16.848  12.928
39928W        W 6469  28.008  19.554  14.965
39929W        W 6470   9.597  30.019   3.526
39930W        W 6471  21.160  27.703  14.743
39931W        W 6472  36.967  12.650   1.785
39932W        W 6473  11.204  14.577  14.093
39933W        W 6474   6.629  25.970  12.051
39934W        W 6475  23.081  28.410  12.347
39935W        W 6476  16.095  16.756   0.150
39936W        W 6477  19.516   2.514  10.688
39937W        W 6478   5.181   8.386  12.030
39938W        W 6479   5.191  27.519  13.553
39939W        W 6480  13.880  23.336   0.793
39940W        W 6481  37.912  30.761  14.383
39941W        W 6482  37.606  12.932   4.840
39942W        W 6483  41.938  43.813  10.566
39943W        W 6484  14.304   0.334  12.104
39944W        W 6485   7.174  24.091   2.738
39945W        W 6486  12.364  30.125   4.956
39946W        W 6487  20.999  18.051   0.784
39947W        W 6488  17.788  27.602   0.865
39948W        W 6489   5.768  35.484  11.946
39949W        W 6490  22.768  18.206   0.880
39950W        W 6491  15.434   1.252   0.403
39951W        W 6492   6.388  31.289   2.599
39952W        W 6493   4.880  44.428  12.389
39953W        W 6494   0.063   6.850   1.469
39954W        W 6495  16.980  21.743  14.669
39955W        W 6496  28.908  12.766  13.323
39956W        W 6497  36.473   7.396  10.722
39957W        W 6498  30.975  30.269  14.538
39958W        W 6499  27.391  38.484  14.319
39959W        W 6500  27.947  14.799  13.467
39960W        W 6501  43.917  15.166  14.475
39961W        W 6502  36.422  35.980   1.310
39962W        W 6503   6.025  43.949  14.798
39963W        W 6504  10.300  22.676  13.072
39964W        W 6505  28.092   3.236   5.168
39965W        W 6506   0.373  19.335   1.253
39966W        W 6507   1.103  27.177   0.374
39967W        W 6508   2.754  27.432  14.832
39968W        W 6509   7.366  29.015   4.281
39969W        W 6510  41.113  35.010  13.538
39970W        W 6511  35.736  26.983  12.061
39971W        W 6512   6.151   2.305   3.154
39972W        W 6513  19.650  12.547  12.107
39973W        W 6514  26.911  43.579  12.450
39974W        W 6515  27.118  11.764  13.195
39975W        W 6516  16.602   4.659   4.651
39976W        W 6517  38.145  20.136  11.164
39977W        W 6518   5.142  17.853   3.691
39978W        W 6519  34.303   9.834   3.664
39979W        W 6520  25.248  18.753   3.378
39980W        W 6521   9.114  30.373  10.613
39981W        W 6522  29.424  28.156  14.865
39982W        W 6523  30.316  38.844  13.849
39983W        W 6524   1.798  18.638   0.359
39984W        W 6525  35.961  10.951  11.160
39985W        W 6526  40.000  20.656  12.051
39986W        W 6527  36.954  17.586   4.793
39987W        W 6528  23.665  23.938   2.277
39988W        W 6529  15.833  26.363   3.676
39989W        W 6530   1.793  39.804  12.666
39990W        W 6531  35.067   5.892  10.722
39991W        W 6532   6.382  16.481   3.384
39992W        W 6533  35.722  27.726   2.696
39993W        W 6534  43.516   1.924  12.160
39994W        W 6535  10.112  10.458   3.021
39995W        W 6536  32.341  42.415  11.817
39996W        W 6537  20.989   8.771   0.937
39997W        W 6538   5.630  11.852   3.124
39998W        W 6539   2.211  23.346   3.057
39999W        W 6540  25.148  22.507   2.682
40000W        W 6541  23.472  19.800  11.422
40001W        W 6542  22.099  14.744   1.131
40002W        W 6543  38.986  14.828  11.930
40003W        W 6544  37.352  18.633  11.191
40004W        W 6545   4.026   0.580   1.719
40005W        W 6546  20.558   2.196  12.902
40006W        W 6547   0.270  41.072   2.693
40007W        W 6548  44.567  44.350   1.858
40008W        W 6549  17.155  43.387   3.156
40009W        W 6550  32.521  33.475   3.586
40010W        W 6551   5.249  30.819  13.931
40011W        W 6552  15.682  42.552  11.173
40012W        W 6553  26.609  40.692  13.786
40013W        W 6554  37.522   1.712  12.679
40014W        W 6555  42.047  38.821  13.451
40015W        W 6556  28.195  11.067   1.672
40016W        W 6557  32.234   1.797   5.180
40017W        W 6558  17.166  30.747   5.063
40018W        W 6559  38.388   4.212  10.737
40019W        W 6560  25.695  32.593   4.588
40020W        W 6561   1.451  41.217   3.672
40021W        W 6562  35.894  16.315  13.968
40022W        W 6563  21.667   2.871   2.530
40023W        W 6564  10.133  23.063   4.537
40024W        W 6565  30.696  22.024  10.474
40025W        W 6566   0.280  28.112   1.935
40026W        W 6567  17.284  35.597  11.148
40027W        W 6568  29.575  40.997   2.941
40028W        W 6569  15.663  38.526  14.467
40029W        W 6570  34.327  31.262  12.028
40030W        W 6571  39.978  37.994  12.617
40031W        W 6572  40.159  42.261  12.466
40032W        W 6573  12.080   3.181  12.433
40033W        W 6574  37.915  32.896   2.340
40034W        W 6575  28.126  20.908   0.523
40035W        W 6576   3.203  41.133  12.029
40036W        W 6577  36.908  21.104   2.729
40037W        W 6578   7.194  10.160  12.022
40038W        W 6579  40.457   2.223  11.901
40039W        W 6580   9.318  42.949   0.376
40040W        W 6581  27.702   8.290   3.408
40041W        W 6582  42.835  19.457  12.381
40042W        W 6583  36.100   2.648  12.886
40043W        W 6584  31.525  14.562   4.035
40044W        W 6585   1.881  26.494  12.892
40045W        W 6586  19.146  15.563   2.128
40046W        W 6587  35.649  26.953   2.338
40047W        W 6588  34.115  37.987   4.239
40048W        W 6589   2.417  36.606   0.728
40049W        W 6590  32.627   9.285   3.842
40050W        W 6591   5.567   7.367  12.140
40051W        W 6592  31.622  22.021  11.076
40052W        W 6593   1.523   3.387  11.085
40053W        W 6594  44.276  20.348   1.640
40054W        W 6595   0.540  23.105  11.635
40055W        W 6596  40.878  18.762  12.953
40056W        W 6597  35.976  18.924   0.796
40057W        W 6598  23.774   4.773  11.635
40058W        W 6599   0.036  30.578   3.232
40059W        W 6600   8.890  38.467   2.951
40060W        W 6601  13.779  42.071   4.724
40061W        W 6602  27.645  15.131  12.899
40062W        W 6603  30.048  18.675   2.846
40063W        W 6604  16.188   1.570  13.835
40064W        W 6605   1.475  37.171  12.958
40065W        W 6606  24.486  30.543   0.963
40066W        W 6607  44.289  28.380  10.720
40067W        W 6608  15.869  23.061  12.013
40068W        W 6609  35.917   6.458   0.813
40069W        W 6610   1.539  11.725   3.708
40070W        W 6611  44.396  16.399   1.501
40071W        W 6612  20.139  20.302  11.659
40072W        W 6613  34.858  11.595  13.396
40073W        W 6614  23.666  17.215  14.285
40074W        W 6615  33.298  41.337  10.285
40075W        W 6616  17.204  32.826   2.610
40076W        W 6617  32.133  29.864  13.990
40077W        W 6618  42.904  36.423   2.788
40078W        W 6619  39.514  38.146   4.267
40079W        W 6620  42.696   5.928  13.780
40080W        W 6621   5.341  29.564   3.120
40081W        W 6622  39.284  36.760   1.772
40082W        W 6623   8.312  25.271   1.552
40083W        W 6624  12.245  44.853   2.871
40084W        W 6625  34.372  42.776   1.351
40085W        W 6626  38.466  44.728   4.502
40086W        W 6627  42.264  31.616  10.748
40087W        W 6628  13.614  32.980   1.364
40088W        W 6629  34.976  16.856   2.277
40089W        W 6630  27.886  22.458  12.410
40090W        W 6631  37.618  36.119   1.343
40091W        W 6632  12.520  18.512   3.399
40092W        W 6633  10.535   6.602   3.406
40093W        W 6634  18.433  19.536   9.797
40094W        W 6635  11.078  23.570  11.249
40095W        W 6636  19.132  13.011   3.144
40096W        W 6637  42.496  10.059   0.408
40097W        W 6638  34.965  14.908  14.414
40098W        W 6639  24.676  26.515   3.674
40099W        W 6640  31.115  21.219  11.453
40100W        W 6641  30.693  42.237   0.776
40101W        W 6642  41.073  15.683   0.017
40102W        W 6643  40.625  42.059   3.444
40103W        W 6644  16.745  38.982  10.495
40104W        W 6645  40.845  39.584  14.671
40105W        W 6646  20.468   7.377   2.747
40106W        W 6647  23.159  36.465  12.808
40107W        W 6648   6.823  44.203  12.395
40108W        W 6649  25.492  28.160   2.306
40109W        W 6650  10.756  39.528   1.422
40110W        W 6651  16.529   0.535  12.377
40111W        W 6652  13.408  38.036   3.726
40112W        W 6653   2.704  42.419  12.819
40113W        W 6654   8.194  13.586   3.237
40114W        W 6655  43.354  34.201  11.144
40115W        W 6656  26.589  11.558   4.199
40116W        W 6657  13.232   5.818   4.512
40117W        W 6658  36.546  10.355  13.602
40118W        W 6659   0.844  34.945  12.833
40119W        W 6660   2.220  44.486   2.236
40120W        W 6661   4.908  20.194  12.495
40121W        W 6662   4.370   3.435  12.031
40122W        W 6663  43.310  33.213  14.457
40123W        W 6664  35.492   2.997  12.478
40124W        W 6665   0.948  29.118   4.056
40125W        W 6666   9.778  24.263  13.419
40126W        W 6667  34.942  34.313  13.790
40127W        W 6668   1.564  14.215  14.761
40128W        W 6669  42.334  17.060  13.244
40129W        W 6670  33.616   3.799   0.460
40130W        W 6671   2.240  25.523   1.374
40131W        W 6672  44.024  16.546  14.839
40132W        W 6673   4.415  14.651   4.223
40133W        W 6674  41.975  18.303  13.421
40134W        W 6675   0.225  29.380  11.078
40135W        W 6676  13.536  30.370  11.515
40136W        W 6677  19.181  29.080  13.161
40137W        W 6678  18.033  30.522  14.053
40138W        W 6679  15.289  40.797  11.083
40139W        W 6680  19.069  34.428   0.680
40140W        W 6681  27.167  25.475   2.738
40141W        W 6682   8.638  12.474   2.859
40142W        W 6683   2.779  30.481   0.322
40143W        W 6684  24.228  38.497  10.802
40144W        W 6685   9.098  26.023  12.972
40145W        W 6686  26.247   3.420  11.585
40146W        W 6687   6.948  43.100   0.872
40147W        W 6688   9.656  20.011   4.230
40148W        W 6689  31.652  10.899   2.225
40149W        W 6690   1.436  44.278  13.275
40150W        W 6691  38.598  36.203  11.152
40151W        W 6692  39.480  25.077  12.602
40152W        W 6693   7.786   3.541   9.923
40153W        W 6694  35.989  33.014   0.927
40154W        W 6695  14.196  35.862  10.729
40155W        W 6696   1.151  11.399  14.866
40156W        W 6697  43.387  32.924  13.139
40157W        W 6698   7.751  33.229   0.418
40158W        W 6699  29.593  39.091  14.538
40159W        W 6700  30.153  40.203  14.956
40160W        W 6701   8.583  38.801   3.225
40161W        W 6702  20.805  27.054   3.415
40162W        W 6703  44.735  43.365   3.601
40163W        W 6704  25.074  11.690   2.755
40164W        W 6705  27.109  16.636  13.772
40165W        W 6706   8.254  32.504  14.943
40166W        W 6707   3.905  30.026   3.787
40167W        W 6708  44.920   8.598  12.482
40168W        W 6709  31.988  25.693   5.039
40169W        W 6710  15.989  34.486  12.502
40170W        W 6711  19.599  38.888   2.266
40171W        W 6712  30.146  30.230  12.100
40172W        W 6713  42.412  10.595  14.781
40173W        W 6714  44.109   7.752  11.954
40174W        W 6715   1.374  32.486  13.906
40175W        W 6716  32.954  16.720  12.576
40176W        W 6717   7.321  17.670   4.435
40177W        W 6718  38.918  38.262   2.676
40178W        W 6719   4.716  39.315   2.362
40179W        W 6720  13.205   3.139  11.092
40180W        W 6721  34.676  19.732   1.713
40181W        W 6722  27.471  37.943   4.641
40182W        W 6723   2.876  17.333  11.084
40183W        W 6724  13.361  35.965  11.204
40184W        W 6725  30.061  16.310   2.345
40185W        W 6726  28.907  27.029   2.541
40186W        W 6727   2.276   2.187  11.543
40187W        W 6728  21.959  33.669  12.787
40188W        W 6729   3.931  12.423   4.122
40189W        W 6730   2.835  20.061   3.434
40190W        W 6731  24.247   5.823   3.189
40191W        W 6732  28.182  23.643   4.210
40192W        W 6733  27.444  44.939  13.855
40193W        W 6734   7.857   0.573  12.396
40194W        W 6735   3.822  21.600   2.570
40195W        W 6736  37.322   0.759  13.412
40196W        W 6737  38.045  32.567   4.408
40197W        W 6738  42.348  38.044   3.934
40198W        W 6739  35.891   8.983  12.507
40199W        W 6740   0.315  42.296  14.906
40200W        W 6741   6.367  13.006  12.534
40201W        W 6742  40.948   8.329  14.022
40202W        W 6743  10.088  17.407   4.613
40203W        W 6744   9.956  13.033  12.496
40204W        W 6745  19.730  21.911  11.476
40205W        W 6746  25.481  38.630  10.328
40206W        W 6747  19.987  33.788   3.861
40207W        W 6748  31.555  20.594  11.549
40208W        W 6749  33.038  11.646  13.133
40209W        W 6750  33.021  33.222  10.670
40210W        W 6751   3.743  21.398   5.094
40211W        W 6752  35.124  11.252   1.706
40212W        W 6753  21.149  34.360   3.869
40213W        W 6754  20.184  14.838   2.869
40214W        W 6755  24.711  39.994  13.140
40215W        W 6756   8.269  26.885   3.862
40216W        W 6757  28.659  40.413   4.111
40217W        W 6758  14.638  34.666  10.267
40218W        W 6759   3.402  14.420   3.336
40219W        W 6760  16.872  41.438   2.278
40220W        W 6761  22.165  16.378  14.825
40221W        W 6762  20.561  36.683   1.711
40222W        W 6763  31.996  31.668   4.491
40223W        W 6764  42.440   2.176   4.502
40224W        W 6765  10.739  28.627   2.725
40225W        W 6766  36.460  20.619  13.690
40226W        W 6767  33.525  28.834   0.188
40227W        W 6768  39.503  43.047  10.574
40228W        W 6769  35.491  25.458  14.355
40229W        W 6770  37.576   5.278  11.017
40230W        W 6771  39.566  20.081  14.731
40231W        W 6772   4.932  29.998   3.558
40232W        W 6773  28.545  40.008   3.770
40233W        W 6774   3.907  17.773   1.432
40234W        W 6775   5.038   1.990  12.536
40235W        W 6776  26.686  26.255   0.506
40236W        W 6777  37.495  17.003  12.031
40237W        W 6778   2.302  27.099   0.748
40238W        W 6779  20.645   0.474  13.806
40239W        W 6780  37.906   4.999   0.779
40240W        W 6781  34.983  26.640  12.610
40241W        W 6782   0.174  20.079  14.582
40242W        W 6783  31.707   9.173  11.171
40243W        W 6784  34.994  16.139  13.556
40244W        W 6785  28.442  16.680   2.835
40245W        W 6786   4.296  37.338   4.286
40246W        W 6787  22.146  28.531  14.521
40247W        W 6788  30.415  35.065  14.806
40248W        W 6789  23.031  23.185  12.161
40249W        W 6790  29.015  11.569   4.973
40250W        W 6791  39.978  36.803   4.881
40251W        W 6792  43.724   9.290   3.700
40252W        W 6793   1.283  22.098   1.720
40253W        W 6794  39.475  22.285   3.750
40254W        W 6795  14.143   8.144  11.529
40255W        W 6796  26.255  31.795  12.469
40256W        W 6797  27.009  35.029   0.288
40257W        W 6798  44.512  11.828   1.792
40258W        W 6799   2.822  26.672   2.890
40259W        W 6800  18.588  43.143  13.576
40260W        W 6801   1.252   1.235  11.623
40261W        W 6802  28.749   6.652   4.264
40262W        W 6803   9.476  24.755  13.844
40263W        W 6804   9.122  17.803  10.653
40264W        W 6805  43.686  28.478   0.208
40265W        W 6806  18.379  19.075   4.929
40266W        W 6807  16.565  14.150  10.507
40267W        W 6808  25.445   0.038   4.198
40268W        W 6809   6.254  15.655  11.114
40269W        W 6810  15.852  41.400  13.409
40270W        W 6811  43.098  31.961  13.450
40271W        W 6812  31.642  27.082   4.923
40272W        W 6813  26.478  16.787   3.188
40273W        W 6814   7.469  35.637  12.625
40274W        W 6815  13.178  11.425   2.437
40275W        W 6816   2.392  28.737   1.829
40276W        W 6817  42.903   3.528   0.828
40277W        W 6818  44.357   0.864   4.200
40278W        W 6819   1.135  36.344   0.241
40279W        W 6820   5.966   2.302  12.019
40280W        W 6821  21.136  12.494  14.711
40281W        W 6822   7.839  40.587  12.792
40282W        W 6823  39.575  39.828   4.488
40283W        W 6824  34.352  25.258  14.660
40284W        W 6825  13.345   5.899   3.997
40285W        W 6826  42.960  13.246   4.675
40286W        W 6827  12.801  41.581  11.504
40287W        W 6828  36.668  38.888   4.092
40288W        W 6829  40.866  42.822  12.386
40289W        W 6830  14.857  13.566  10.634
40290W        W 6831  15.917   2.249   0.891
40291W        W 6832  21.468  24.270  13.437
40292W        W 6833  25.903   6.644  10.729
40293W        W 6834  29.656   0.130   1.573
40294W        W 6835  43.064  41.809   4.546
40295W        W 6836   0.320  28.598  10.717
40296W        W 6837  12.086  25.484   0.373
40297W        W 6838  31.085  28.966   2.685
40298W        W 6839  31.003  29.661   1.231
40299W        W 6840   4.458  17.729  12.795
40300W        W 6841  10.357  44.478   0.772
40301W        W 6842   1.925  17.696  13.298
40302W        W 6843   5.426  12.654   2.852
40303W        W 6844  23.067  44.104   1.225
40304W        W 6845  25.735   0.987  12.442
40305W        W 6846  11.639   5.062   4.861
40306W        W 6847  35.843  25.098   2.327
40307W        W 6848  21.982  26.691  12.467
40308W        W 6849  12.844   7.630  13.600
40309W        W 6850  11.694  40.532  13.809
40310W        W 6851  12.747  32.137  13.411
40311W        W 6852  33.338  31.697  13.899
40312W        W 6853   9.325  33.059   1.479
40313W        W 6854  39.053  18.452  14.272
40314W        W 6855  38.787  27.122  13.986
40315W        W 6856  38.279  20.199   0.893
40316W        W 6857  22.090  33.361  10.597
40317W        W 6858   8.969  42.118   4.296
40318W        W 6859  15.672  25.889   3.694
40319W        W 6860  13.788  30.433   3.284
40320W        W 6861  12.697  15.485   4.473
40321W        W 6862  13.597   4.903   2.266
40322W        W 6863  22.522  30.901  11.665
40323W        W 6864   5.512  16.307  14.372
40324W        W 6865  36.411  13.261   4.456
40325W        W 6866  17.356  40.228  12.208
40326W        W 6867   7.787  30.944   0.697
40327W        W 6868  39.433  31.620  11.972
40328W        W 6869  17.687  31.163   1.896
40329W        W 6870  41.386   1.675  13.540
40330W        W 6871   8.690  18.685  12.389
40331W        W 6872   7.183  36.179  13.511
40332W        W 6873  37.952  29.415  11.550
40333W        W 6874  32.432  24.891  11.125
40334W        W 6875  34.131  35.958   1.683
40335W        W 6876  44.445  32.834   3.635
40336W        W 6877  10.464  19.503  13.079
40337W        W 6878   6.594  27.672   4.752
40338W        W 6879  13.649  29.427  13.400
40339W        W 6880  42.361   6.729  13.780
40340W        W 6881  32.699  25.441   2.319
40341W        W 6882   5.794  17.261  12.979
40342W        W 6883  24.125  39.243   4.634
40343W        W 6884  23.680  30.645   3.106
40344W        W 6885  35.119  30.568   0.324
40345W        W 6886   8.517  42.799   4.570
40346W        W 6887  34.811   2.450  12.098
40347W        W 6888   4.809  16.794  11.619
40348W        W 6889  43.065   6.408  11.421
40349W        W 6890   7.058   2.326   4.071
40350W        W 6891  26.064  26.873   1.325
40351W        W 6892  20.498  29.178   3.710
40352W        W 6893  30.709  35.146   3.635
40353W        W 6894  23.953  22.555   3.745
40354W        W 6895   4.888  11.685   2.179
40355W        W 6896  39.855  22.170   0.242
40356W        W 6897   4.316  35.748  11.580
40357W        W 6898  21.795  29.959   1.889
40358W        W 6899  43.506  27.370   0.422
40359W        W 6900  29.860  20.224  14.534
40360W        W 6901   2.964  44.863   0.442
40361W        W 6902  33.119   9.945   2.230
40362W        W 6903  21.187  28.940   0.842
40363W        W 6904  13.550  14.432   0.506
40364W        W 6905  16.165  43.107   2.430
40365W        W 6906  44.253  18.157   2.683
40366W        W 6907  33.612  34.313   4.638
40367W        W 6908   8.895  16.390   0.451
40368W        W 6909  10.684  17.805   3.880
40369W        W 6910  25.691  24.327  14.460
40370W        W 6911  16.762  22.266  14.765
40371W        W 6912   0.057  38.638  13.976
40372W        W 6913  11.957  43.590  11.642
40373W        W 6914  13.642  26.522  10.724
40374W        W 6915  16.747  38.278  11.109
40375W        W 6916   8.114  31.614  13.552
40376W        W 6917   1.327  15.703   0.904
40377W        W 6918  40.362  28.868   1.762
40378W        W 6919   2.780   4.889  12.891
40379W        W 6920  27.997   8.475  14.685
40380W        W 6921   6.966  15.314   2.620
40381W        W 6922  11.381  14.220  14.608
40382W        W 6923  44.376  14.294   2.946
40383W        W 6924  30.144  35.848  14.297
40384W        W 6925  38.488   9.222  13.964
40385W        W 6926   3.156  19.076  14.012
40386W        W 6927  15.270  32.984   4.470
40387W        W 6928  44.908  36.941   4.807
40388W        W 6929  13.107   3.130   2.652
40389W        W 6930   2.856  16.100  10.515
40390W        W 6931  37.826  23.451   0.393
40391W        W 6932   2.342  22.231  14.292
40392W        W 6933  24.960  40.190   1.705
40393W        W 6934  31.993   5.812  11.190
40394W        W 6935   8.895  37.427  14.565
40395W        W 6936  15.892  26.003  12.482
40396W        W 6937  15.269  31.461   4.608
40397W        W 6938  39.592  28.994   2.216
40398W        W 6939  27.913  11.170  11.578
40399W        W 6940  19.752  27.886   0.772
40400W        W 6941  42.258  33.630  13.444
40401W        W 6942  37.971   2.051  11.560
40402W        W 6943  23.461  21.137  11.154
40403W        W 6944  14.053  36.464   0.905
40404W        W 6945  43.459  12.500   9.740
40405W        W 6946  25.741  12.606  11.341
40406W        W 6947  21.127   8.752  11.173
40407W        W 6948  15.201  10.340  10.894
40408W        W 6949  25.238  11.550  14.848
40409W        W 6950  44.625  26.017  13.079
40410W        W 6951  13.439  20.272   4.354
40411W        W 6952  18.236  22.020   0.950
40412W        W 6953   8.502  44.351   0.970
40413W        W 6954   0.679  32.757  10.428
40414W        W 6955  25.549  39.326  12.648
40415W        W 6956   9.213  15.527   4.508
40416W        W 6957  31.006  29.214  14.350
40417W        W 6958  16.075  12.650   2.393
40418W        W 6959  15.187  39.098   1.265
40419W        W 6960  40.469   7.873  10.479
40420W        W 6961  24.058  17.897   0.380
40421W        W 6962  32.024   2.405   0.357
40422W        W 6963   7.116  32.286   1.781
40423W        W 6964   3.543  19.814  10.551
40424W        W 6965  13.414  44.527  11.608
40425W        W 6966  11.823  27.596  10.572
40426W        W 6967  43.106  38.006  11.179
40427W        W 6968   1.640  30.324   4.984
40428W        W 6969   6.262   7.853   3.843
40429W        W 6970  44.746  18.295   2.774
40430W        W 6971  19.294  10.617   2.974
40431W        W 6972  16.024  30.245  12.903
40432W        W 6973  31.123  15.794  12.256
40433W        W 6974  26.144  33.427  10.695
40434W        W 6975  12.148   0.935   1.398
40435W        W 6976  37.261  17.002   1.737
40436W        W 6977  28.055   3.772  13.869
40437W        W 6978  25.257   7.754   5.006
40438W        W 6979  33.942  18.301  14.983
40439W        W 6980  35.118  39.892  13.962
40440W        W 6981   8.564   7.780   0.353
40441W        W 6982   1.842  44.019  13.492
40442W        W 6983  14.386  42.769   1.708
40443W        W 6984  34.798  42.930   3.746
40444W        W 6985  33.136   6.417   2.769
40445W        W 6986  14.568  41.810  14.978
40446W        W 6987  35.521  27.731  10.708
40447W        W 6988   5.263  21.003   1.379
40448W        W 6989  38.669  32.415  11.488
40449W        W 6990   8.550  44.255  12.504
40450W        W 6991  29.999   6.084  11.741
40451W        W 6992  22.247   3.694  14.356
40452W        W 6993  20.696   9.956  13.447
40453W        W 6994  12.594   3.998  11.196
40454W        W 6995   4.079  29.179  12.792
40455W        W 6996  23.451  42.523   3.646
40456W        W 6997  44.521  42.529   5.385
40457W        W 6998  16.772  11.385  13.337
40458W        W 6999  21.260  13.101   2.276
40459W        W 7000  37.535  23.009   0.861
40460W        W 7001  38.012   8.971  13.928
40461W        W 7002  21.276  38.628  11.665
40462W        W 7003  14.837  44.621  14.276
40463W        W 7004  26.848  12.391  12.058
40464W        W 7005  26.592   4.751  11.546
40465W        W 7006   8.295  37.941   3.593
40466W        W 7007  34.126   3.539   3.160
40467W        W 7008  41.394  18.797   1.210
40468W        W 7009  43.825  34.657   2.776
40469W        W 7010  38.293  32.545   2.390
40470W        W 7011  19.387  16.890  12.007
40471W        W 7012   5.947  21.520  14.870
40472W        W 7013  12.717  25.185   4.182
40473W        W 7014  21.616  27.054   1.642
40474W        W 7015  37.423  12.212  11.473
40475W        W 7016  10.267  44.338   3.665
40476W        W 7017  41.972  21.552   0.617
40477W        W 7018  29.844  38.363  11.972
40478W        W 7019  15.613  14.704  12.745
40479W        W 7020  13.226  31.567  14.727
40480W        W 7021  10.694  43.531  12.653
40481W        W 7022  16.412  17.328   3.710
40482W        W 7023   2.019  33.617   0.901
40483W        W 7024  34.008  42.339   1.301
40484W        W 7025  23.987  37.301   4.568
40485W        W 7026  15.925   1.171   3.427
40486W        W 7027  29.555  40.181   2.472
40487W        W 7028  11.456  32.579   0.905
40488W        W 7029   4.653  38.600   4.172
40489W        W 7030  19.772  21.814   0.230
40490W        W 7031   8.208   8.745  13.554
40491W        W 7032  23.961  29.997  13.120
40492W        W 7033  34.521  40.803   2.217
40493W        W 7034  33.000  26.742   2.497
40494W        W 7035  43.198  22.183   4.134
40495W        W 7036  42.298  31.412  12.604
40496W        W 7037  30.729   1.924   5.170
40497W        W 7038   1.349  28.238   3.188
40498W        W 7039  33.392  18.130   1.760
40499W        W 7040  22.956   1.449  13.849
40500W        W 7041  25.777  23.461  14.720
40501W        W 7042  14.037  38.263   0.722
40502W        W 7043  42.206   7.188   0.524
40503W        W 7044  29.279  43.814   3.724
40504W        W 7045   9.801   5.311  14.195
40505W        W 7046  10.792   0.718   2.702
40506W        W 7047  35.798  12.347   3.115
40507W        W 7048   7.323  14.110   2.896
40508W        W 7049  25.977  28.612   2.680
40509W        W 7050  18.131   7.683  10.596
40510W        W 7051  41.780  15.696   1.136
40511W        W 7052  27.897  36.463   3.594
40512W        W 7053  14.706  24.282  11.426
40513W        W 7054  38.151   1.144   4.011
40514W        W 7055  10.031  38.507   3.208
40515W        W 7056  38.573  28.470  14.014
40516W        W 7057   1.374   3.706   1.835
40517W        W 7058  25.552  18.340   4.174
40518W        W 7059  11.316  37.782   1.287
40519W        W 7060  21.292   9.696   1.642
40520W        W 7061  17.053   8.874   2.619
40521W        W 7062  13.835  11.631   3.566
40522W        W 7063  39.368  36.874  13.009
40523W        W 7064   1.832  34.471   3.511
40524W        W 7065  35.006   3.493   3.441
40525W        W 7066  12.612   8.858  12.002
40526W        W 7067  44.840   2.682   3.192
40527W        W 7068  26.191  35.972   2.869
40528W        W 7069  43.806  18.279   4.231
40529W        W 7070  42.758   9.030  11.999
40530W        W 7071  14.018   8.627   4.536
40531W        W 7072  38.571  26.749   3.341
40532W        W 7073  35.508   2.708   0.337
40533W        W 7074   6.524  27.294  13.905
40534W        W 7075   5.886  33.077   5.140
40535W        W 7076   7.814  44.051   3.388
40536W        W 7077  38.203   9.517   3.207
40537W        W 7078  40.017  36.071   3.748
40538W        W 7079  27.974   5.159   3.549
40539W        W 7080  14.625  20.006  12.912
40540W        W 7081  44.069  35.485  11.086
40541W        W 7082  40.042  13.569   3.162
40542W        W 7083  28.650  35.603   0.905
40543W        W 7084  28.266   6.792   2.724
40544W        W 7085  13.565   0.682  11.116
40545W        W 7086  30.357  38.926   3.095
40546W        W 7087   1.246  28.396  14.058
40547W        W 7088   7.581  19.032  12.091
40548W        W 7089  43.445  21.031   0.677
40549W        W 7090  21.639  37.586   3.950
40550W        W 7091  13.365  30.118   3.285
40551W        W 7092   0.272  34.735  14.962
40552W        W 7093  14.046  26.671  13.184
40553W        W 7094  28.652  25.183   3.678
40554W        W 7095   9.133   7.372   0.855
40555W        W 7096   2.529   5.885   4.510
40556W        W 7097  14.470   3.373   5.038
40557W        W 7098   0.938  41.489  14.002
40558W        W 7099  29.164  16.790  13.146
40559W        W 7100  23.021  34.824  13.795
40560W        W 7101  12.327   4.427   4.282
40561W        W 7102  33.887   3.873   2.787
40562W        W 7103  27.786  25.648   4.086
40563W        W 7104  26.447  43.807  11.602
40564W        W 7105  12.144  16.593  10.357
40565W        W 7106  20.318  30.139  10.730
40566W        W 7107  19.510  11.703  10.168
40567W        W 7108  37.989  27.428   0.879
40568W        W 7109   8.888  17.337   1.342
40569W        W 7110   0.456   8.280   4.723
40570W        W 7111  28.505  29.572  11.462
40571W        W 7112  23.713   3.901   2.742
40572W        W 7113  33.934  13.700   2.899
40573W        W 7114  41.052   8.675   2.265
40574W        W 7115  43.553  42.305   2.832
40575W        W 7116   1.455  36.961  13.440
40576W        W 7117  41.770  42.234  13.787
40577W        W 7118  20.016  14.834   0.066
40578W        W 7119   4.839  42.680  11.328
40579W        W 7120  10.751  39.322  11.969
40580W        W 7121   7.959  18.223  12.143
40581W        W 7122  26.949  10.645  13.333
40582W        W 7123  14.017  42.937  12.490
40583W        W 7124   3.363  11.333  10.725
40584W        W 7125  10.250   6.646  10.529
40585W        W 7126  32.988  15.625   0.326
40586W        W 7127  20.230  18.888  13.566
40587W        W 7128   2.497  23.239   0.794
40588W        W 7129  37.609  18.766  12.272
40589W        W 7130  20.987   0.998  12.793
40590W        W 7131   5.749   8.677   3.492
40591W        W 7132  27.706  32.323   0.626
40592W        W 7133  12.905  43.929   0.302
40593W        W 7134  32.708  25.569   0.901
40594W        W 7135   5.221  20.744   0.915
40595W        W 7136  38.150  38.579   0.200
40596W        W 7137   5.294   5.672  11.530
40597W        W 7138  37.347   9.473  14.282
40598W        W 7139  10.190   3.419  12.702
40599W        W 7140  13.510  33.049  12.136
40600W        W 7141  10.864  35.122  14.372
40601W        W 7142   5.973  31.560   2.158
40602W        W 7143  20.636  16.130   3.832
40603W        W 7144  22.219  39.085   1.945
40604W        W 7145   3.465  30.414  12.317
40605W        W 7146  42.918  32.634   2.511
40606W        W 7147  13.618  40.797  10.693
40607W        W 7148  15.084  15.135  11.357
40608W        W 7149  13.936  11.210  10.707
40609W        W 7150  36.740  35.555   2.639
40610W        W 7151  34.333   4.410   4.606
40611W        W 7152   9.793  40.556   3.088
40612W        W 7153  20.574   6.358   0.455
40613W        W 7154  28.101  15.266  13.230
40614W        W 7155  11.339  24.463  13.346
40615W        W 7156  39.854  38.014  12.036
40616W        W 7157   6.284  30.062  10.452
40617W        W 7158  43.349  18.173   4.437
40618W        W 7159  43.596  19.855   1.853
40619W        W 7160  27.122  37.843  12.674
40620W        W 7161  38.305   6.396   3.407
40621W        W 7162  24.727   5.421  12.835
40622W        W 7163  43.684   5.506  13.525
40623W        W 7164  43.325   8.191  12.067
40624W        W 7165   9.257   0.940  11.199
40625W        W 7166  24.333   8.938   2.304
40626W        W 7167   3.623  41.523  14.777
40627W        W 7168  39.020  44.957   3.145
40628W        W 7169   5.147   9.598   2.763
40629W        W 7170  28.938  19.169   3.724
40630W        W 7171  15.880  37.926   4.104
40631W        W 7172  19.014  33.127   2.744
40632W        W 7173   1.238  10.122  11.863
40633W        W 7174  25.212  20.248  14.826
40634W        W 7175  31.254   7.270   3.862
40635W        W 7176   9.713  38.032  10.624
40636W        W 7177  32.240  15.782   4.260
40637W        W 7178  30.287  25.756   2.737
40638W        W 7179   5.346  35.166  12.987
40639W        W 7180   4.534  32.020  10.558
40640W        W 7181  11.582  22.964   2.675
40641W        W 7182  20.587  24.626  11.305
40642W        W 7183  20.111  18.889   3.958
40643W        W 7184  16.821  16.230   3.704
40644W        W 7185  25.546  23.912  11.540
40645W        W 7186   4.110   8.793   3.285
40646W        W 7187  10.378   6.964  14.391
40647W        W 7188   4.293  27.647   1.505
40648W        W 7189   9.134  21.936   0.530
40649W        W 7190  22.125  27.390   3.618
40650W        W 7191  32.477   6.703  11.932
40651W        W 7192  38.645  27.134  12.482
40652W        W 7193   3.708   8.249  14.916
40653W        W 7194  20.988  12.674  11.708
40654W        W 7195  44.480  39.414  12.370
40655W        W 7196  31.713  28.166   0.496
40656W        W 7197  12.498   6.773   1.836
40657W        W 7198  16.302   1.331   3.052
40658W        W 7199  28.043  35.019  14.997
40659W        W 7200  10.475   1.910   4.868
40660W        W 7201  30.063   0.659   4.868
40661W        W 7202  34.497  23.711  13.434
40662W        W 7203  13.847   7.424   1.193
40663W        W 7204  12.846  12.386  11.493
40664W        W 7205   4.775  26.187   3.058
40665W        W 7206  18.366   8.745  13.349
40666W        W 7207   0.794  39.855  14.390
40667W        W 7208  10.950  16.609  11.431
40668W        W 7209  11.618  34.234   3.169
40669W        W 7210  13.234  25.645   4.742
40670W        W 7211   9.250   4.465  13.480
40671W        W 7212  41.947  32.941   4.830
40672W        W 7213  36.962  40.254   0.311
40673W        W 7214  17.294  10.670  13.192
40674W        W 7215   1.989   8.003  13.074
40675W        W 7216   7.785  33.561   3.595
40676W        W 7217   4.661  37.898  11.173
40677W        W 7218  27.586   1.530  12.896
40678W        W 7219  20.093  11.814  13.179
40679W        W 7220  25.514  44.812   1.312
40680W        W 7221  38.973   6.313   1.434
40681W        W 7222   0.554  38.000  10.524
40682W        W 7223  26.761   0.353  13.054
40683W        W 7224  25.033  23.051   0.043
40684W        W 7225  10.473   3.853   2.788
40685W        W 7226  22.230   9.386  14.945
40686W        W 7227  10.614   6.471   0.287
40687W        W 7228   4.663  43.361   3.720
40688W        W 7229  20.679   8.144   2.132
40689W        W 7230  44.378  44.295   3.318
40690W        W 7231   4.708  17.684  13.657
40691W        W 7232   8.718  20.031   3.942
40692W        W 7233  28.195  18.319  13.828
40693W        W 7234   4.440  15.624  13.422
40694W        W 7235  22.182   4.882   0.404
40695W        W 7236  26.632   9.189  11.836
40696W        W 7237   9.247  16.599  11.109
40697W        W 7238   6.401  12.066  13.925
40698W        W 7239  35.500  28.892   0.454
40699W        W 7240   3.723  35.439   3.622
40700W        W 7241  32.219  21.222   0.911
40701W        W 7242   2.433   5.757  14.915
40702W        W 7243  10.648  26.574   0.855
40703W        W 7244   2.315  35.377   2.834
40704W        W 7245   0.881  28.417  12.837
40705W        W 7246  42.957  28.240   2.238
40706W        W 7247  22.042  25.821  10.986
40707W        W 7248  18.310  34.871   4.675
40708W        W 7249  36.102  31.362  13.943
40709W        W 7250  35.045  19.987  13.930
40710W        W 7251  37.023  25.920   0.773
40711W        W 7252  40.791  26.143   2.720
40712W        W 7253  18.020  12.920  10.187
40713W        W 7254   2.354   9.563   4.233
40714W        W 7255  30.609  33.446  13.964
40715W        W 7256  30.861   8.832  11.579
40716W        W 7257  37.830  42.143   3.275
40717W        W 7258  25.415   8.738   0.348
40718W        W 7259  14.985  34.207  14.029
40719W        W 7260  33.167  35.094  14.614
40720W        W 7261  10.718   3.417   2.595
40721W        W 7262  36.684   0.599  11.518
40722W        W 7263  15.570  34.505  13.276
40723W        W 7264  43.516  10.902  11.202
40724W        W 7265  39.387  31.559  10.431
40725W        W 7266   4.894   4.308  12.796
40726W        W 7267   1.334  19.359  14.713
40727W        W 7268   7.398  15.095   1.936
40728W        W 7269  43.005  21.230   4.314
40729W        W 7270  28.620   0.983   4.208
40730W        W 7271  21.213  28.798  11.596
40731W        W 7272  29.434   7.810  10.746
40732W        W 7273  11.581   7.470  12.137
40733W        W 7274   6.740  10.926  13.568
40734W        W 7275  22.977  14.338   3.353
40735W        W 7276  41.885  39.557   4.928
40736W        W 7277   1.849  33.376  14.158
40737W        W 7278  10.412   2.289  14.346
40738W        W 7279  22.381   0.821  10.630
40739W        W 7280   9.126  37.458   4.766
40740W        W 7281   3.945  24.111   0.983
40741W        W 7282  41.635   0.308  10.852
40742W        W 7283  13.125  12.808   2.422
40743W        W 7284  36.676   7.179  11.895
40744W        W 7285  26.016  40.335  12.953
40745W        W 7286   1.428  38.760   1.420
40746W        W 7287  27.014   5.042  11.164
40747W        W 7288  18.747  32.568  14.426
40748W        W 7289  16.433   6.002  13.078
40749W        W 7290   8.905   4.371  11.573
40750W        W 7291   0.084   9.883   2.842
40751W        W 7292   1.486  35.580  13.798
40752W        W 7293  21.179   4.211   1.559
40753W        W 7294  29.026  21.659  13.158
40754W        W 7295  21.032  15.829   0.249
40755W        W 7296  42.754   0.815   3.212
40756W        W 7297  42.643   5.856   2.126
40757W        W 7298  15.007  42.341  14.440
40758W        W 7299  17.110  28.599   2.764
40759W        W 7300  16.215  38.368   2.774
40760W        W 7301  37.230  16.297   4.320
40761W        W 7302  28.567  44.876   1.829
40762W        W 7303  23.464  20.750   1.348
40763W        W 7304  35.559  41.548   2.703
40764W        W 7305  36.685  43.754  11.333
40765W        W 7306  34.850  25.511  13.426
40766W        W 7307  24.120  20.484   2.373
40767W        W 7308  44.080  38.879   3.837
40768W        W 7309  17.577  41.564  12.289
40769W        W 7310  40.899   5.252   2.633
40770W        W 7311   0.862   1.538   1.396
40771W        W 7312  40.977   4.502  13.715
40772W        W 7313  36.269   3.652   3.688
40773W        W 7314  30.936  10.762   0.540
40774W        W 7315  37.013  42.544  12.788
40775W        W 7316  22.844  42.006  11.039
40776W        W 7317  36.857  24.196  14.900
40777W        W 7318  20.577  30.897   1.696
40778W        W 7319  41.190  26.218  14.762
40779W        W 7320  18.716  19.350   1.600
40780W        W 7321  21.663  37.018   1.429
40781W        W 7322  20.075  41.283  11.121
40782W        W 7323  41.853  44.364   1.184
40783W        W 7324  13.638  23.422   2.921
40784W        W 7325  38.020   8.187  13.400
40785W        W 7326  26.684  22.683  13.926
40786W        W 7327  22.295  41.835  10.616
40787W        W 7328  21.451  18.062   5.428
40788W        W 7329   9.278  10.403   2.618
40789W        W 7330  44.333  30.186  13.954
40790W        W 7331  22.200  19.394  12.139
40791W        W 7332  23.067   3.233   1.761
40792W        W 7333  22.365  44.510  13.939
40793W        W 7334  31.661  31.441  11.797
40794W        W 7335  19.524  31.418  12.063
40795W        W 7336  11.816   6.974  11.128
40796W        W 7337  28.165  23.076  14.837
40797W        W 7338  19.182  40.264  11.091
40798W        W 7339   2.193  44.014   1.949
40799W        W 7340  34.558  24.287  14.489
40800W        W 7341   8.778  36.399  11.172
40801W        W 7342  38.262  17.199   0.952
40802W        W 7343  16.116  42.785   0.528
40803W        W 7344  12.606   0.226  14.009
40804W        W 7345  36.205   9.893   4.327
40805W        W 7346   2.713  16.755   0.407
40806W        W 7347  20.219  39.881  14.816
40807W        W 7348  35.593  17.669  14.201
40808W        W 7349  15.054  11.215   0.371
40809W        W 7350   6.923  26.942   1.465
40810W        W 7351  31.075  32.425   4.081
40811W        W 7352  32.922  34.098   2.818
40812W        W 7353  14.597  34.922   2.675
40813W        W 7354  28.956  40.330   3.684
40814W        W 7355  23.035   0.893   0.743
40815W        W 7356  32.989  41.948   3.794
40816W        W 7357  20.122   3.448   0.996
40817W        W 7358  22.758   6.675  12.808
40818W        W 7359  20.306  35.807   4.953
40819W        W 7360  28.879  16.589   1.229
40820W        W 7361  28.053  25.913   3.715
40821W        W 7362  11.879  37.648  12.121
40822W        W 7363   4.341  26.186  13.400
40823W        W 7364   2.337  14.104  13.435
40824W        W 7365  27.992  17.188   2.317
40825W        W 7366  22.292   7.772   2.817
40826W        W 7367  37.285  11.338   4.840
40827W        W 7368  44.321  15.126   4.347
40828W        W 7369  36.317  14.774   3.663
40829W        W 7370  42.097  39.432  14.303
40830W        W 7371   0.903  13.767  12.575
40831W        W 7372   9.446  12.292  11.358
40832W        W 7373  16.294  25.353   4.178
40833W        W 7374  20.682   0.839  11.529
40834W        W 7375   5.233  42.716   3.880
40835W        W 7376  44.722  15.920  10.443
40836W        W 7377  33.936  39.078   0.014
40837W        W 7378  16.610  22.451   0.237
40838W        W 7379   4.890  10.391   4.005
40839W        W 7380  18.791   1.798  14.763
40840W        W 7381   2.273   5.698  13.931
40841W        W 7382  30.139  32.354   4.684
40842W        W 7383  40.438  44.444   0.018
40843W        W 7384  11.098   6.208  13.409
40844W        W 7385  20.460   4.343  11.585
40845W        W 7386   9.888  42.453  13.455
40846W        W 7387   6.851  37.471   4.161
40847W        W 7388  41.466   2.208  11.616
40848W        W 7389  31.486  41.893  14.338
40849W        W 7390  23.346   8.252   1.801
40850W        W 7391   9.905  42.403   1.888
40851W        W 7392  29.354  24.744  12.096
40852W        W 7393  35.343  35.161  14.072
40853W        W 7394   2.269   9.888   3.347
40854W        W 7395   1.656  39.357  11.287
40855W        W 7396  38.419   9.895  12.891
40856W        W 7397  32.083  27.457  10.694
40857W        W 7398   2.386  30.312  11.316
40858W        W 7399   3.176  32.574  14.575
40859W        W 7400  15.226  35.946   0.296
40860W        W 7401   9.213  12.055  11.770
40861W        W 7402  29.614  34.435   0.385
40862W        W 7403  24.796  40.391   2.169
40863W        W 7404   8.093  25.576   3.740
40864W        W 7405  14.094   5.750  11.204
40865W        W 7406   9.128  18.341  14.921
40866W        W 7407  39.443  12.946  12.044
40867W        W 7408  25.185  41.889   4.978
40868W        W 7409  15.359  10.834  12.137
40869W        W 7410  42.436   0.045  11.619
40870W        W 7411  30.638  31.023   1.328
40871W        W 7412   4.817  27.156  13.946
40872W        W 7413  30.964  23.744   0.268
40873W        W 7414  43.714   0.318   4.656
40874W        W 7415  18.709  39.542   2.452
40875W        W 7416  14.497   2.968  12.581
40876W        W 7417  27.590  42.391  14.949
40877W        W 7418  33.103  19.256  12.014
40878W        W 7419   5.648  29.174  12.988
40879W        W 7420  44.327  12.377  12.543
40880W        W 7421  44.883  41.340   4.018
40881W        W 7422  12.132  39.869   2.291
40882W        W 7423  41.515  28.194  12.059
40883W        W 7424   6.741   5.691   4.110
40884W        W 7425  27.441  14.406  13.942
40885W        W 7426  23.177  31.173  13.583
40886W        W 7427  42.618  37.347  13.988
40887W        W 7428  11.378   3.465  13.910
40888W        W 7429  30.257  39.313   0.362
40889W        W 7430  37.726  13.692   9.743
40890W        W 7431   8.391  12.572  11.010
40891W        W 7432  25.959  14.158   2.870
40892W        W 7433  35.878  13.302   3.504
40893W        W 7434  11.287  15.390  12.415
40894W        W 7435  30.144  12.450   1.745
40895W        W 7436  26.183   5.038   3.669
40896W        W 7437  32.660  14.293   4.310
40897W        W 7438  41.378  39.351  11.589
40898W        W 7439  11.624   1.821  12.438
40899W        W 7440  41.239  10.311  14.305
40900W        W 7441  42.966  30.601  14.407
40901W        W 7442  17.012   4.883  12.848
40902W        W 7443  22.555  14.055  11.685
40903W        W 7444  41.094  43.426   0.463
40904W        W 7445  29.904  26.243   0.347
40905W        W 7446  34.481  23.946  10.709
40906W        W 7447  21.472  23.198   2.189
40907W        W 7448  36.889   7.065  13.039
40908W        W 7449   7.848  17.311  14.017
40909W        W 7450   3.945   3.332  10.198
40910W        W 7451  20.248  33.082   2.347
40911W        W 7452   6.298  17.287   4.122
40912W        W 7453  13.158   2.177   4.414
40913W        W 7454  26.726  18.565   3.854
40914W        W 7455  36.396  30.887   2.232
40915W        W 7456  37.474  15.151  14.966
40916W        W 7457  38.044  19.124  13.009
40917W        W 7458  44.787  37.441   3.547
40918W        W 7459  40.251  34.026  13.405
40919W        W 7460   6.185  41.412  11.045
40920W        W 7461  15.677   4.489  10.620
40921W        W 7462  33.295  20.971  12.570
40922W        W 7463   3.421   7.802  10.412
40923W        W 7464  22.497  12.998  10.310
40924W        W 7465  14.818  14.574  14.857
40925W        W 7466   0.819  43.569   3.193
40926W        W 7467  31.566   2.196   1.374
40927W        W 7468  28.545  22.868  12.802
40928W        W 7469  14.240  12.146   2.064
40929W        W 7470  42.935  36.758   3.209
40930W        W 7471  30.472  25.996   4.705
40931W        W 7472  27.604  37.316   1.253
40932W        W 7473  14.012  12.375   3.582
40933W        W 7474  17.015  24.361   1.695
40934W        W 7475  10.008   7.020   3.879
40935W        W 7476  32.905  40.795  10.641
40936W        W 7477  13.314  15.220  12.515
40937W        W 7478  29.931  44.235   4.834
40938W        W 7479  43.319  13.551  12.989
40939W        W 7480  34.403   7.737   1.314
40940W        W 7481  41.258  22.689   2.320
40941W        W 7482  32.606  17.671  13.970
40942W        W 7483  14.376  21.089  12.141
40943W        W 7484  34.884  30.933  14.122
40944W        W 7485  44.985  14.455   1.377
40945W        W 7486  40.273   6.463  12.894
40946W        W 7487  31.904  37.368   4.842
40947W        W 7488  40.048  11.561  10.213
40948W        W 7489  19.738  15.055  12.086
40949W        W 7490  14.677   6.814   3.265
40950W        W 7491  12.842  43.264  12.469
40951W        W 7492   0.234  28.509   2.256
40952W        W 7493  21.341  33.502   3.611
40953W        W 7494   2.041  31.559   3.129
40954W        W 7495  24.538  21.028  13.915
40955W        W 7496   0.435  12.907  10.834
40956W        W 7497  22.635  19.378   1.882
40957W        W 7498   3.711   2.941   0.608
40958W        W 7499   8.923  29.031   4.522
40959W        W 7500  42.542  34.350  12.986
40960W        W 7501  44.324   5.250  11.536
40961W        W 7502   5.428   8.188  14.443
40962W        W 7503  10.425  38.287   1.447
40963W        W 7504  15.999  12.787  10.005
40964W        W 7505  39.901   5.189  14.241
40965W        W 7506  24.112   6.364   0.869
40966W        W 7507   0.803  38.409   2.386
40967W        W 7508   3.289  40.315   1.180
40968W        W 7509  40.470  41.539   4.640
40969W        W 7510  27.237  23.804  12.041
40970W        W 7511  20.855  28.154  11.223
40971W        W 7512  14.362   8.328   2.345
40972W        W 7513  30.567  16.822   2.778
40973W        W 7514  42.534  43.700  14.101
40974W        W 7515  39.792  35.152  14.542
40975W        W 7516  36.322   1.017   1.786
40976W        W 7517  14.126  30.965   3.019
40977W        W 7518   4.706  17.868   2.700
40978W        W 7519  26.324  26.090   2.717
40979W        W 7520  37.993  13.361  15.000
40980W        W 7521   5.325  12.270   0.154
40981W        W 7522  23.543   1.806   4.516
40982W        W 7523  23.666  22.949  12.762
40983W        W 7524  30.315  33.804  12.015
40984W        W 7525  21.970  39.319   4.388
40985W        W 7526   3.300  29.165   2.818
40986W        W 7527  25.948  10.745  14.722
40987W        W 7528  36.378  26.950  13.318
40988W        W 7529  31.924  38.077   1.875
40989W        W 7530  24.247  11.813   3.640
40990W        W 7531  34.357   9.788   0.308
40991W        W 7532  42.375  33.176  12.609
40992W        W 7533  23.289  26.205   4.768
40993W        W 7534  20.105   3.309  14.447
40994W        W 7535  18.809  30.766   2.778
40995W        W 7536   9.393  28.220   2.717
40996W        W 7537  12.153   2.975  14.775
40997W        W 7538  40.037  19.069  13.020
40998W        W 7539  27.191  34.129  14.345
40999W        W 7540  42.531  13.792  14.246
41000W        W 7541  31.069  38.455   0.674
41001W        W 7542  35.617  33.610  11.937
41002W        W 7543  41.925  14.210   2.320
41003W        W 7544  22.121   6.934   1.000
41004W        W 7545  13.771  26.555   4.427
41005W        W 7546   9.936  14.271  10.410
41006W        W 7547  10.346   8.426  13.051
41007W        W 7548  18.754  17.355  11.686
41008W        W 7549   6.067  12.336  11.523
41009W        W 7550   3.288  43.348   1.390
41010W        W 7551  39.865   5.527  12.476
41011W        W 7552  26.846  21.514  13.573
41012W        W 7553  16.174   4.200   4.052
41013W        W 7554   5.346  39.314  10.734
41014W        W 7555  19.770  40.290  13.591
41015W        W 7556  18.986  27.665  10.547
41016W        W 7557  43.395   8.938   3.086
41017W        W 7558  19.400  16.343   2.507
41018W        W 7559  36.780  12.174  11.075
41019W        W 7560  24.649  20.052   3.842
41020W        W 7561   1.478   9.358   4.599
41021W        W 7562  11.769  37.513  14.090
41022W        W 7563  26.064  40.072  13.437
41023W        W 7564  36.331   0.401  12.631
41024W        W 7565   6.286   1.911  12.103
41025W        W 7566   1.689  34.982  12.153
41026W        W 7567  15.827  17.155  10.652
41027W        W 7568  44.685  40.949   3.209
41028W        W 7569  10.394   8.923   0.953
41029W        W 7570  15.886  26.711   5.118
41030W        W 7571  19.468  15.358   4.568
41031W        W 7572  26.517  25.959  13.563
41032W        W 7573  34.920  11.894  14.920
41033W        W 7574   6.754  15.489  13.223
41034W        W 7575  16.315  17.287  13.378
41035W        W 7576   6.373  38.422   4.944
41036W        W 7577  44.738  23.663  13.505
41037W        W 7578   0.914  24.438  11.871
41038W        W 7579  41.264  27.197   0.024
41039W        W 7580  12.885  16.229  13.977
41040W        W 7581   0.791   2.952   2.553
41041W        W 7582  33.667  31.188   1.611
41042W        W 7583  30.603  31.635  14.836
41043W        W 7584  34.928  34.068   2.731
41044W        W 7585  30.549  32.017   4.675
41045W        W 7586  26.989  22.081   2.705
41046W        W 7587  41.608  24.059   3.657
41047W        W 7588  39.785  10.184  11.626
41048W        W 7589  19.190   3.284   1.470
41049W        W 7590   3.895  33.328   2.779
41050W        W 7591   9.367  23.434   4.527
41051W        W 7592  17.088  17.694   2.917
41052W        W 7593  28.675   2.586   3.627
41053W        W 7594  29.441  41.308  13.301
41054W        W 7595  11.893  27.947   2.808
41055W        W 7596  25.624  21.253  14.173
41056W        W 7597  11.882  18.229  13.386
41057W        W 7598  17.023  10.355   2.412
41058W        W 7599   6.351  33.659   3.349
41059W        W 7600  13.603  29.055   1.938
41060W        W 7601  38.261  40.808   4.625
41061W        W 7602  29.043  28.864  13.281
41062W        W 7603  14.086  36.020   1.946
41063W        W 7604  22.255  21.027   3.658
41064W        W 7605  37.339  34.516  12.847
41065W        W 7606  30.518   1.783   0.839
41066W        W 7607  35.110   5.915   1.870
41067W        W 7608  34.600  38.897  13.577
41068W        W 7609  28.689  44.785   3.214
41069W        W 7610  28.054  33.886   4.726
41070W        W 7611   1.772   8.864  12.907
41071W        W 7612  13.809  42.930   0.362
41072W        W 7613  37.934  10.896   1.467
41073W        W 7614  41.377  42.425  12.900
41074W        W 7615  29.398   0.489   4.309
41075W        W 7616  28.470  32.203  13.911
41076W        W 7617  43.338  12.901   2.744
41077W        W 7618  25.072  19.972   0.248
41078W        W 7619  27.032  11.640   4.496
41079W        W 7620  38.787  12.373  10.603
41080W        W 7621  30.059  23.975   0.360
41081W        W 7622  38.798  41.012  12.342
41082W        W 7623  34.507  28.712  13.832
41083W        W 7624  32.101  18.612   4.109
41084W        W 7625  35.106  43.333   3.654
41085W        W 7626  34.967   7.304   0.488
41086W        W 7627  17.822  26.580  12.874
41087W        W 7628  30.150  34.930  13.992
41088W        W 7629   8.908  18.859   2.560
41089W        W 7630   6.515  19.255  11.110
41090W        W 7631  11.334  29.110   1.787
41091W        W 7632   7.836  43.327  13.856
41092W        W 7633  18.824  32.379   1.827
41093W        W 7634  36.241   7.121  11.102
41094W        W 7635   4.238  34.976   4.582
41095W        W 7636  33.497   4.140   1.832
41096W        W 7637  40.019  20.207   2.077
41097W        W 7638  35.434  27.469  13.952
41098W        W 7639   2.329  25.083   0.428
41099W        W 7640  34.606   8.165   3.635
41100W        W 7641   9.861  22.233   2.841
41101W        W 7642  43.778   9.641   4.560
41102W        W 7643   6.995  16.197   4.953
41103W        W 7644   9.642   2.553   3.335
41104W        W 7645  22.934   1.402   3.369
41105W        W 7646  16.995  24.729   4.904
41106W        W 7647  13.726  42.777  12.895
41107W        W 7648  20.258  25.215   4.495
41108W        W 7649  37.054  44.590  14.930
41109W        W 7650   2.804  27.665   1.287
41110W        W 7651   3.404  27.266   3.525
41111W        W 7652  22.391  17.162  11.610
41112W        W 7653  31.932  24.257  11.988
41113W        W 7654  26.633   0.318  11.221
41114W        W 7655  39.401  25.218   4.079
41115W        W 7656   6.675   4.310  13.803
41116W        W 7657  24.964  12.341  13.403
41117W        W 7658  36.815  14.668   3.467
41118W        W 7659  42.241  40.057  10.927
41119W        W 7660  43.441   3.683   0.568
41120W        W 7661  41.775   9.135   3.559
41121W        W 7662  25.735  16.020   1.810
41122W        W 7663   2.162   6.249   2.738
41123W        W 7664  31.317  26.099   2.217
41124W        W 7665  42.072  41.320  14.726
41125W        W 7666  23.408  33.218  12.657
41126W        W 7667   2.868  24.077  12.746
41127W        W 7668  34.692   1.213   4.187
41128W        W 7669  26.274  31.919   0.968
41129W        W 7670  28.588   6.723  14.779
41130W        W 7671   9.156  31.588   1.393
41131W        W 7672  13.863  37.841   1.026
41132W        W 7673  34.143  18.049   2.332
41133W        W 7674  27.089   7.375  11.652
41134W        W 7675  13.373   0.961  14.824
41135W        W 7676   4.670  39.941  14.543
41136W        W 7677  31.111  27.546  10.873
41137W        W 7678  18.293  35.993  12.942
41138W        W 7679  19.164  38.335   3.749
41139W        W 7680  15.277  32.771  11.462
41140W        W 7681  25.127   0.755   0.353
41141W        W 7682   8.651  43.761   1.234
41142W        W 7683  20.159  27.829   2.803
41143W        W 7684  41.403  33.624  12.961
41144W        W 7685  18.740  19.270  11.895
41145W        W 7686   8.814  12.065   3.145
41146W        W 7687   8.648  31.046   3.616
41147W        W 7688   8.666   0.895  14.947
41148W        W 7689  28.925  26.016   1.327
41149W        W 7690  17.847  19.032  10.661
41150W        W 7691  37.865  26.988   4.437
41151W        W 7692  23.204  41.322   4.175
41152W        W 7693  20.086   9.887  14.853
41153W        W 7694  28.048  20.613   3.516
41154W        W 7695  22.726  22.210  14.799
41155W        W 7696  11.345  33.922   3.921
41156W        W 7697   2.179  28.718  13.095
41157W        W 7698  43.467  14.321  14.303
41158W        W 7699  26.739   5.979  12.418
41159W        W 7700  12.284   2.105   2.572
41160W        W 7701  20.301  15.500  11.370
41161W        W 7702  12.851  26.445   2.751
41162W        W 7703  43.213   6.352  14.900
41163W        W 7704  34.898  28.206   4.529
41164W        W 7705   5.742   5.824  10.648
41165W        W 7706   7.763  39.482  13.875
41166W        W 7707  27.143  43.755  13.432
41167W        W 7708  12.160  33.317  12.056
41168W        W 7709  13.128  31.904   1.983
41169W        W 7710  16.326  27.984   3.369
41170W        W 7711  11.109  12.591   2.355
41171W        W 7712   7.204  41.901   3.595
41172W        W 7713  34.539   9.153   1.950
41173W        W 7714  30.998  22.080  13.829
41174W        W 7715  21.493  29.427  14.558
41175W        W 7716  36.625  37.469   2.371
41176W        W 7717  35.138  24.901   1.376
41177W        W 7718  17.429  26.036  12.619
41178W        W 7719  37.627  17.531  11.935
41179W        W 7720  28.590  15.328   9.992
41180W        W 7721   4.914   1.295   3.200
41181W        W 7722  25.497   4.737   3.181
41182W        W 7723  44.467   8.362   1.197
41183W        W 7724  31.880  38.430  14.878
41184W        W 7725  26.173  32.924   1.020
41185W        W 7726  36.059   1.193  12.411
41186W        W 7727   4.359  18.917  11.100
41187W        W 7728  14.661  38.226   4.565
41188W        W 7729  16.758  39.534  12.060
41189W        W 7730  29.644  36.422  11.203
41190W        W 7731  42.142  23.739  12.642
41191W        W 7732  27.918  36.107   4.145
41192W        W 7733  34.372  15.021   2.855
41193W        W 7734  24.177  37.373   3.543
41194W        W 7735  23.121  38.865   4.574
41195W        W 7736  25.633  38.250  13.554
41196W        W 7737  27.961  18.261   3.385
41197W        W 7738   4.605   9.535  11.213
41198W        W 7739  11.900  20.794   0.765
41199W        W 7740  44.554  38.834   0.101
41200W        W 7741  20.025  23.578  11.417
41201W        W 7742   3.210  42.473   2.453
41202W        W 7743  36.429  34.520  12.149
41203W        W 7744  16.575  35.889   0.744
41204W        W 7745   0.700  22.802   1.829
41205W        W 7746  16.878   6.323   1.912
41206W        W 7747  39.999  20.759   3.893
41207W        W 7748  38.239  26.957   2.352
41208W        W 7749  43.407  32.802   2.448
41209W        W 7750  23.667  14.858   0.413
41210W        W 7751  28.392  31.089  14.547
41211W        W 7752   2.513  29.169   3.266
41212W        W 7753   3.704  33.095   4.493
41213W        W 7754  27.632  20.982   1.360
41214W        W 7755  13.099  16.283  11.355
41215W        W 7756  12.002  28.256  12.928
41216W        W 7757  38.082  33.313  11.140
41217W        W 7758   5.302   8.651   1.809
41218W        W 7759   4.663  12.518  14.443
41219W        W 7760  35.403  29.649   0.771
41220W        W 7761  19.796  17.144   4.039
41221W        W 7762  44.336  14.298   2.426
41222W        W 7763  40.367  34.079  12.132
41223W        W 7764  34.824  31.078   1.434
41224W        W 7765  26.007  27.482  12.322
41225W        W 7766  26.048   5.460   0.788
41226W        W 7767   2.841  44.473  10.207
41227W        W 7768  20.801  24.381  12.126
41228W        W 7769  31.675  13.361   0.247
41229W        W 7770   7.253  26.452  14.707
41230W        W 7771  24.106   8.577   5.348
41231W        W 7772  37.884  10.646   4.765
41232W        W 7773  29.665   9.493  12.969
41233W        W 7774  18.022  43.940   0.828
41234W        W 7775   0.534  25.787  13.005
41235W        W 7776  30.195   2.867   0.758
41236W        W 7777  10.301  18.555   2.678
41237W        W 7778  21.195  34.703  12.960
41238W        W 7779   9.821  39.927  14.723
41239W        W 7780  42.404   1.249   0.713
41240W        W 7781  20.892   2.501   5.022
41241W        W 7782  42.509  21.069   4.237
41242W        W 7783   2.236  13.136   4.489
41243W        W 7784  11.815  27.560  12.929
41244W        W 7785   2.884  30.935   3.115
41245W        W 7786  20.681  26.392   2.850
41246W        W 7787  33.069  37.072  14.908
41247W        W 7788  31.041  24.272  11.482
41248W        W 7789  34.740  41.748  13.947
41249W        W 7790  24.766  36.920  13.493
41250W        W 7791  38.257  25.845  14.458
41251W        W 7792  18.172  36.369  14.734
41252W        W 7793  36.769   6.484   0.744
41253W        W 7794   5.403   8.251  12.478
41254W        W 7795  38.860  21.665   2.204
41255W        W 7796  39.036   6.249  13.031
41256W        W 7797   8.712  13.846   2.796
41257W        W 7798  38.581  40.003  14.302
41258W        W 7799  17.310  39.152  13.857
41259W        W 7800  21.568  22.301  12.148
41260W        W 7801   6.264  21.341  12.456
41261W        W 7802  28.911   0.697   1.294
41262W        W 7803   5.874   0.963   2.659
41263W        W 7804   2.185  36.980   1.196
41264W        W 7805  30.341  29.171   0.944
41265W        W 7806  28.021   9.829  13.814
41266W        W 7807  20.926  38.743   0.371
41267W        W 7808  40.374  12.408  10.297
41268W        W 7809   4.143  33.970  13.801
41269W        W 7810   6.283   8.631  11.945
41270W        W 7811  17.899  30.855   3.795
41271W        W 7812   9.643  17.592  12.357
41272W        W 7813  22.989  35.346  10.800
41273W        W 7814   3.385  42.114   0.478
41274W        W 7815  21.947  43.427   0.757
41275W        W 7816  38.912  20.527   3.916
41276W        W 7817  34.254  23.600   4.483
41277W        W 7818   2.217  16.217  12.273
41278W        W 7819  21.249  20.338   0.657
41279W        W 7820   3.319  20.764  13.476
41280W        W 7821  33.059  44.468   2.903
41281W        W 7822  10.357   5.552   2.241
41282W        W 7823  23.917  30.059  11.037
41283W        W 7824   6.785  31.491   4.672
41284W        W 7825   3.570  31.617   0.737
41285W        W 7826  20.770  40.494  13.366
41286W        W 7827  39.531  19.989  11.905
41287W        W 7828  14.598  39.320  11.521
41288W        W 7829   5.658  15.885   3.189
41289W        W 7830  23.836  29.207   3.193
41290W        W 7831   8.694  29.054  11.136
41291W        W 7832  39.659  11.149  11.625
41292W        W 7833  37.854   2.802  11.976
41293W        W 7834   5.387   6.208  13.259
41294W        W 7835   9.107  22.608  11.622
41295W        W 7836  12.872  21.610  10.713
41296W        W 7837  19.534   3.228   3.110
41297W        W 7838  35.411  35.124   3.677
41298W        W 7839   8.300   7.996   3.092
41299W        W 7840  25.402  30.230   0.700
41300W        W 7841  20.294   0.985   4.964
41301W        W 7842   5.999  38.465  11.959
41302W        W 7843   0.019  34.353  13.507
41303W        W 7844  16.109  27.659  11.039
41304W        W 7845  31.455   2.445   3.628
41305W        W 7846  13.749   9.915  14.804
41306W        W 7847   2.024  32.954  13.012
41307W        W 7848  15.310  20.425   0.788
41308W        W 7849  34.083   1.398   1.293
41309W        W 7850   9.584   0.375  14.726
41310W        W 7851   2.778  26.852  12.803
41311W        W 7852  13.084   6.197   0.802
41312W        W 7853  39.488  13.567   1.223
41313W        W 7854  27.031  17.840  11.668
41314W        W 7855  12.129  18.173   3.192
41315W        W 7856   9.165  32.908  11.159
41316W        W 7857  13.261  37.289  13.387
41317W        W 7858  22.252  16.884  14.722
41318W        W 7859  20.165  33.138  10.558
41319W        W 7860  39.431  11.045  10.678
41320W        W 7861  28.977  39.807   3.581
41321W        W 7862  18.568   2.717  10.886
41322W        W 7863   9.288  22.710  12.500
41323W        W 7864   8.736  21.696  14.337
41324W        W 7865   7.753  26.459  11.524
41325W        W 7866  22.499   4.493  12.423
41326W        W 7867  26.963  32.584   3.221
41327W        W 7868  25.127  41.425   1.663
41328W        W 7869  15.322   3.889   0.780
41329W        W 7870  27.520  11.501   2.161
41330W        W 7871  42.435  16.564  11.757
41331W        W 7872  35.811  34.342  14.685
41332W        W 7873   1.342  27.519  14.232
41333W        W 7874  24.923   8.281  10.666
41334W        W 7875  33.184  29.124  11.793
41335W        W 7876   6.904  20.692   2.397
41336W        W 7877  25.241  19.066   4.704
41337W        W 7878  36.600  11.159   3.179
41338W        W 7879   7.265  39.696   3.681
41339W        W 7880  17.869  32.321  14.534
41340W        W 7881   8.144   5.423   3.202
41341W        W 7882  32.463   0.399  13.559
41342W        W 7883   2.046  44.155   2.858
41343W        W 7884   9.427  22.587   4.414
41344W        W 7885  16.787   8.758  14.371
41345W        W 7886  44.912  34.364   3.279
41346W        W 7887  36.546  36.523   1.434
41347W        W 7888  41.181  43.834   4.404
41348W        W 7889  40.282  43.197  14.032
41349W        W 7890   5.696  41.222  13.852
41350W        W 7891  25.911  31.123  11.041
41351W        W 7892  15.817  36.966  12.918
41352W        W 7893   4.572  26.645   4.082
41353W        W 7894   6.177  27.182   4.704
41354W        W 7895  42.793  28.977   2.685
41355W        W 7896  26.134  29.118   2.691
41356W        W 7897   9.791  42.859   0.605
41357W        W 7898  34.339  33.964  12.081
41358W        W 7899  18.628  24.468   2.129
41359W        W 7900  28.029  35.065  12.786
41360W        W 7901   0.497  12.527  11.817
41361W        W 7902  13.886  15.296   1.223
41362W        W 7903  15.717  12.818  13.841
41363W        W 7904  18.395  35.518  13.340
41364W        W 7905  24.948  44.696   4.955
41365W        W 7906   6.999  21.728   0.559
41366W        W 7907   6.836   5.429   2.886
41367W        W 7908  23.990  36.397   4.502
41368W        W 7909  37.374  15.637   3.193
41369W        W 7910  36.155  13.794  13.903
41370W        W 7911  42.962  41.171  14.357
41371W        W 7912  38.027  31.114  12.427
41372W        W 7913  35.952   6.258  14.328
41373W        W 7914   5.830  27.724  11.111
41374W        W 7915  40.028  11.384   0.772
41375W        W 7916   6.404  11.385  10.729
41376W        W 7917   4.791   0.343  13.509
41377W        W 7918  12.128  34.486  14.372
41378W        W 7919  16.546   3.445   1.776
41379W        W 7920   8.152   8.809   2.786
41380W        W 7921  26.166   3.835   4.631
41381W        W 7922  35.621  33.838  12.403
41382W        W 7923  22.961  27.429  14.833
41383W        W 7924  42.280  38.523   0.137
41384W        W 7925  28.495  18.744  13.686
41385W        W 7926   8.389  42.075  13.616
41386W        W 7927  42.701  32.966   0.597
41387W        W 7928  20.065  23.825   0.235
41388W        W 7929  19.224  39.485   3.214
41389W        W 7930  31.973  12.738   3.148
41390W        W 7931  18.541  22.010  11.964
41391W        W 7932   8.392  30.653  11.133
41392W        W 7933  37.899  33.948  12.389
41393W        W 7934  31.111  25.294   4.808
41394W        W 7935  41.854  14.340   2.804
41395W        W 7936  39.944  37.709   4.523
41396W        W 7937  21.754  27.865   2.516
41397W        W 7938  26.912   1.945   0.751
41398W        W 7939  14.388  11.250   1.653
41399W        W 7940  12.305  11.601   4.206
41400W        W 7941  42.498   5.225  13.294
41401W        W 7942  24.140  10.766   3.096
41402W        W 7943  22.689  27.682   1.941
41403W        W 7944  37.065   8.534  13.445
41404W        W 7945  32.938   3.017   1.747
41405W        W 7946  31.130  10.767  13.523
41406W        W 7947  27.199   2.524  11.122
41407W        W 7948  18.502  35.931   0.854
41408W        W 7949   1.795  30.851   9.776
41409W        W 7950  41.287  32.860   1.779
41410W        W 7951   7.810   0.765   2.385
41411W        W 7952  12.709  38.268   1.254
41412W        W 7953  42.935   3.751   0.366
41413W        W 7954  17.780  15.738  14.233
41414W        W 7955  27.375  11.177   4.603
41415W        W 7956  19.187   4.068   4.218
41416W        W 7957  37.588  37.427  13.354
41417W        W 7958  25.758   2.369  12.229
41418W        W 7959   1.977  11.170  10.658
41419W        W 7960  18.398   8.334   2.225
41420W        W 7961   5.930  14.226   3.674
41421W        W 7962  16.367  34.133  13.322
41422W        W 7963  29.790  33.704   3.546
41423W        W 7964   2.686   2.719   2.689
41424W        W 7965  16.344  42.998  14.441
41425W        W 7966  31.518  22.440   3.712
41426W        W 7967   5.259   3.932   4.005
41427W        W 7968  11.880  20.326   1.029
41428W        W 7969  30.307  10.769  12.539
41429W        W 7970  11.733  39.805  13.320
41430W        W 7971  26.214  43.017   1.286
41431W        W 7972  17.506   3.648   3.598
41432W        W 7973  29.920  37.363   3.537
41433W        W 7974  41.392   1.288  10.493
41434W        W 7975  44.366  37.681  14.331
41435W        W 7976  31.940  39.524  12.825
41436W        W 7977  16.560  10.576   3.367
41437W        W 7978   4.708  27.059   1.851
41438W        W 7979  22.447   9.177   3.322
41439W        W 7980  39.058  38.496  10.733
41440W        W 7981  23.211  34.508   4.460
41441W        W 7982  22.558  22.168   0.798
41442W        W 7983  18.152  17.314   4.514
41443W        W 7984   8.454   4.667   4.269
41444W        W 7985  35.839  37.362  14.102
41445W        W 7986   5.829  19.423   5.042
41446W        W 7987  34.531   4.301  12.876
41447W        W 7988  44.745  24.100  11.245
41448W        W 7989  36.452  42.927  11.965
41449W        W 7990   6.352  33.714   4.978
41450W        W 7991  11.853   1.530   3.791
41451W        W 7992  31.206  17.832  14.779
41452W        W 7993  10.433  11.060   3.821
41453W        W 7994   1.595  27.222  12.613
41454W        W 7995   5.624  23.274  14.705
41455W        W 7996  11.836   9.938  11.540
41456W        W 7997  17.164   2.239  12.497
41457W        W 7998  31.538  14.666  14.330
41458W        W 7999  12.263  20.199   3.638
41459W        W 8000  39.075  26.633   2.687
41460W        W 8001  25.930   6.764   0.246
41461W        W 8002  15.498  35.383   3.658
41462W        W 8003  33.575  39.531  14.294
41463W        W 8004   1.702  29.050  12.571
41464W        W 8005   3.886  38.875   1.195
41465W        W 8006   9.081  34.517  10.073
41466W        W 8007  24.024   5.616   0.380
41467W        W 8008  40.055  39.323  11.828
41468W        W 8009   2.958  31.110  12.454
41469W        W 8010  44.744  26.554   0.339
41470W        W 8011  19.559  28.591   3.489
41471W        W 8012  19.370   0.967   3.660
41472W        W 8013  43.453  33.626  14.115
41473W        W 8014  19.158  43.173   1.334
41474W        W 8015  30.940  20.943   1.475
41475W        W 8016  37.454  27.676   0.358
41476W        W 8017  41.014  21.105  13.808
41477W        W 8018  17.271  11.243   1.418
41478W        W 8019  10.275   2.157   1.759
41479W        W 8020  11.813  28.455  10.418
41480W        W 8021  31.780   6.820   2.832
41481W        W 8022  22.476  24.084  14.457
41482W        W 8023   8.228  12.220   3.885
41483W        W 8024  24.148  35.345  14.129
41484W        W 8025  34.010  21.431  12.257
41485W        W 8026  19.276  26.481  14.463
41486W        W 8027  27.861  31.351  11.102
41487W        W 8028  44.015  20.178   3.584
41488W        W 8029  10.637  18.370  12.055
41489W        W 8030  25.986  40.819   2.022
41490W        W 8031  43.354  28.616  13.838
41491W        W 8032   4.665  18.335  12.537
41492W        W 8033   0.519   7.866   1.250
41493W        W 8034   6.669   8.178   0.342
41494W        W 8035  42.373  39.241  13.915
41495W        W 8036   0.938  32.373   1.318
41496W        W 8037   9.347   2.471   2.111
41497W        W 8038  34.818  33.569   1.211
41498W        W 8039  11.270  24.939  11.127
41499W        W 8040  34.471  13.274   3.822
41500W        W 8041  21.710  13.037   0.244
41501W        W 8042  43.513   4.732   0.375
41502W        W 8043   2.906  22.736   4.611
41503W        W 8044  30.564  29.953  10.650
41504W        W 8045  13.239  17.029   3.996
41505W        W 8046  35.998  43.626  12.540
41506W        W 8047   0.262  10.311   0.951
41507W        W 8048  19.269  10.652  12.467
41508W        W 8049  20.588  41.290  14.824
41509W        W 8050  13.184   9.561   2.820
41510W        W 8051  37.236  23.745  14.999
41511W        W 8052  38.457  42.176   1.423
41512W        W 8053   8.431   8.345  11.055
41513W        W 8054  39.826  11.201   4.585
41514W        W 8055  32.558   1.930  14.366
41515W        W 8056  13.884  35.986  14.968
41516W        W 8057  22.729  39.916   3.309
41517W        W 8058  35.074  22.169   2.959
41518W        W 8059  43.383  10.226   0.152
41519W        W 8060  31.655  37.003  14.437
41520W        W 8061  34.330  28.706   3.929
41521W        W 8062   3.515   4.437  14.102
41522W        W 8063  15.779   4.012   1.749
41523W        W 8064  40.998  18.652  10.652
41524W        W 8065  33.392  44.488   2.368
41525W        W 8066   2.339  28.691   0.488
41526W        W 8067  23.989  33.429   2.312
41527W        W 8068  12.318   1.919   2.108
41528W        W 8069  12.504  34.918   1.825
41529W        W 8070  21.474   9.787  12.164
41530W        W 8071   4.400  44.908   0.396
41531W        W 8072   8.196  11.738   3.302
41532W        W 8073  28.178  36.881   3.328
41533W        W 8074  34.635  15.057  10.474
41534W        W 8075  37.586  28.733   3.238
41535W        W 8076  40.367  21.474  14.427
41536W        W 8077  19.642  21.468   0.583
41537W        W 8078   8.893   9.271  11.236
41538W        W 8079   5.903  21.969  11.183
41539W        W 8080  22.966  27.414   3.102
41540W        W 8081  25.736  35.455  13.111
41541W        W 8082  29.162  29.587   4.573
41542W        W 8083  15.192  14.270   2.730
41543W        W 8084  18.645  16.296   2.091
41544W        W 8085  43.078  18.999  13.025
41545W        W 8086  30.337   2.982   4.364
41546W        W 8087  31.034  13.772  12.600
41547W        W 8088  18.712   7.284   2.181
41548W        W 8089  42.487  44.139   0.546
41549W        W 8090   2.593  28.541  13.898
41550W        W 8091  25.248  13.100   0.939
41551W        W 8092   1.329  12.413  12.668
41552W        W 8093  33.493  27.690   1.295
41553W        W 8094  28.654  37.041   3.457
41554W        W 8095  12.862  27.042  12.188
41555W        W 8096  20.832  15.306  14.851
41556W        W 8097  17.155  21.570   1.112
41557W        W 8098   7.834  14.900   0.890
41558W        W 8099  16.383   4.421  13.382
41559W        W 8100   1.642  22.304   2.852
41560W        W 8101   9.557  28.574  12.131
41561W        W 8102  25.267   3.822   2.307
41562W        W 8103   7.617  30.380  11.503
41563W        W 8104  27.537  31.610   1.324
41564W        W 8105  22.074  40.342   4.312
41565W        W 8106  30.539  22.988   3.574
41566W        W 8107   3.789  36.861  11.006
41567W        W 8108  30.079  18.987  11.021
41568W        W 8109   4.964   3.966   1.284
41569W        W 8110  21.709  30.181  14.020
41570W        W 8111  31.195   5.416  10.656
41571W        W 8112  41.819  38.087  14.448
41572W        W 8113  38.256  42.318  12.875
41573W        W 8114  28.991   9.849  14.821
41574W        W 8115  28.243  38.146  15.000
41575W        W 8116  30.673   1.057   5.057
41576W        W 8117  31.071  36.163  14.367
41577W        W 8118  31.974  26.140  12.587
41578W        W 8119   1.321  41.451   0.292
41579W        W 8120  13.301  42.507  11.235
41580W        W 8121   1.542  15.519   1.911
41581W        W 8122   2.220  35.766   3.645
41582W        W 8123  37.266   4.891   0.994
41583W        W 8124  12.702   5.664   3.297
41584W        W 8125  18.144  37.526  12.968
41585W        W 8126  32.504   3.776  12.557
41586W        W 8127  20.576  44.676  14.776
41587W        W 8128  19.251  13.619   1.907
41588W        W 8129   9.739  35.834   3.776
41589W        W 8130   8.803  22.346   0.585
41590W        W 8131  43.998   1.545   0.016
41591W        W 8132  44.104  14.705   1.234
41592W        W 8133  42.969  36.813   1.311
41593W        W 8134   4.457   0.526   3.189
41594W        W 8135   0.412  30.408  12.146
41595W        W 8136  36.539  37.115  10.049
41596W        W 8137  43.391  12.877   0.493
41597W        W 8138  19.140   3.101   0.989
41598W        W 8139  32.554   0.522  14.451
41599W        W 8140  16.839   6.132   3.333
41600W        W 8141   6.687  21.093   1.823
41601W        W 8142  14.752   2.769  14.503
41602W        W 8143  28.211  29.643   2.286
41603W        W 8144   7.251  32.440  12.096
41604W        W 8145  26.449  36.438  11.863
41605W        W 8146   2.150  12.276   0.755
41606W        W 8147  36.259  16.033  10.422
41607W        W 8148  27.973  14.664   1.122
41608W        W 8149   4.906  12.552  11.148
41609W        W 8150   0.229  29.347   4.300
41610W        W 8151  24.486  41.017  10.745
41611W        W 8152  17.684   4.963  10.256
41612W        W 8153   2.823  25.097  12.548
41613W        W 8154  26.710  16.308   3.198
41614W        W 8155  42.985   1.373   4.192
41615W        W 8156  36.972  29.621   0.575
41616W        W 8157  13.995   3.022  12.459
41617W        W 8158   5.689  32.729  13.142
41618W        W 8159  37.327  28.519   0.682
41619W        W 8160   8.863  42.499  11.440
41620W        W 8161  36.772  42.094   4.530
41621W        W 8162   9.873  10.164   0.374
41622W        W 8163  14.913  12.796  12.013
41623W        W 8164  30.856   1.106  12.824
41624W        W 8165  33.067  31.209  11.321
41625W        W 8166  34.378  35.789  10.708
41626W        W 8167   9.427  37.432  14.571
41627W        W 8168   4.185  12.834  14.815
41628W        W 8169  23.205  22.937   0.315
41629W        W 8170   8.190  37.847   1.753
41630W        W 8171   1.405  44.664  12.870
41631W        W 8172  22.548  19.602  13.521
41632W        W 8173  22.675  41.998   3.654
41633W        W 8174  12.667  16.356   1.809
41634W        W 8175   4.867  30.283   2.810
41635W        W 8176   8.241   3.194  12.492
41636W        W 8177  35.526  31.179   0.798
41637W        W 8178   3.790  18.579   3.196
41638W        W 8179  40.025  42.316   4.346
41639W        W 8180  13.404  39.916   1.750
41640W        W 8181  24.989  32.933  10.710
41641W        W 8182  34.969  23.760  14.749
41642W        W 8183  42.959   8.506  14.865
41643W        W 8184  23.276   9.693  12.588
41644W        W 8185   6.196  28.410  12.464
41645W        W 8186  44.976  41.304   4.979
41646W        W 8187   3.006  28.171   3.698
41647W        W 8188  34.671  21.290  13.888
41648W        W 8189  18.877  33.585   2.941
41649W        W 8190  18.330  37.880  11.519
41650W        W 8191  24.616   5.078   2.164
41651W        W 8192   9.234  15.931  13.841
41652W        W 8193  14.145  44.303   0.455
41653W        W 8194   8.858  20.231  14.888
41654W        W 8195  34.910  31.013   3.825
41655W        W 8196  22.753  38.111  12.101
41656W        W 8197  13.256   0.720   0.274
41657W        W 8198  24.675  36.009   3.338
41658W        W 8199  13.110  37.868  14.739
41659W        W 8200   5.753   2.882   2.546
41660W        W 8201  20.228  18.551  10.828
41661W        W 8202  37.991  14.772  11.865
41662W        W 8203  18.816  37.028   2.283
41663W        W 8204  30.360  32.036  10.547
41664W        W 8205  15.497  17.968   3.158
41665W        W 8206  42.908   6.428  12.827
41666W        W 8207   0.794  34.678  14.849
41667W        W 8208   9.136  22.288   3.602
41668W        W 8209  19.160  30.935  12.454
41669W        W 8210  10.813  11.916   0.303
41670W        W 8211  30.032   6.822   1.892
41671W        W 8212  10.752  37.053   1.328
41672W        W 8213  40.326   9.185  10.853
41673W        W 8214  16.502   2.479  14.261
41674W        W 8215  38.602   6.866   4.474
41675W        W 8216  24.167  38.342  14.839
41676W        W 8217  23.421   0.577  12.340
41677W        W 8218  29.192  29.732  11.192
41678W        W 8219  32.061   1.946   3.150
41679W        W 8220  44.899  30.997   9.800
41680W        W 8221  28.014   2.879  10.638
41681W        W 8222  28.138  21.555   4.964
41682W        W 8223  39.605  16.587  14.263
41683W        W 8224  31.695  11.732  13.079
41684W        W 8225  15.254  31.492   2.810
41685W        W 8226  21.132  41.041  12.545
41686W        W 8227  19.585  34.605   0.607
41687W        W 8228  42.322   6.884   2.761
41688W        W 8229  15.468   8.885   1.012
41689W        W 8230  31.014  23.601  10.766
41690W        W 8231  21.745  30.642  13.755
41691W        W 8232  29.488   2.873   1.413
41692W        W 8233  12.780  33.366   3.191
41693W        W 8234  10.444  16.560  11.594
41694W        W 8235  33.938  42.303  11.030
41695W        W 8236   2.455  38.143   2.209
41696W        W 8237  22.339  18.815   4.941
41697W        W 8238  13.552  27.479  11.148
41698W        W 8239  16.183   2.327   3.739
41699W        W 8240  24.070  32.126   3.891
41700W        W 8241  36.866  37.186  11.617
41701W        W 8242  38.341  34.982  14.962
41702W        W 8243  42.880  40.430   4.552
41703W        W 8244  20.031  16.241  14.816
41704W        W 8245   8.836  20.625  13.775
41705W        W 8246  27.922  34.436   2.180
41706W        W 8247  44.204  44.366   0.446
41707W        W 8248  20.673  17.485   2.383
41708W        W 8249  24.413   1.151  10.777
41709W        W 8250  42.922   3.331   2.211
41710W        W 8251   7.606  35.584   2.576
41711W        W 8252  33.849  40.924  10.851
41712W        W 8253  44.666  44.334   1.280
41713W        W 8254  30.199  22.123  10.622
41714W        W 8255  28.248  29.521  13.871
41715W        W 8256  24.327   6.620  10.133
41716W        W 8257  20.582  26.488   1.905
41717W        W 8258  38.358  15.290   1.805
41718W        W 8259  11.548   3.068   2.771
41719W        W 8260  34.019   7.339  10.943
41720W        W 8261   5.407   5.970  11.940
41721W        W 8262  41.811   4.215   1.244
41722W        W 8263  38.482  38.308  14.919
41723W        W 8264  12.857   9.247   2.364
41724W        W 8265  38.394  43.917   4.009
41725W        W 8266   1.272  20.112  12.926
41726W        W 8267   7.045  40.720  11.598
41727W        W 8268  18.840  33.079  12.674
41728W        W 8269  37.547   8.224   1.711
41729W        W 8270  36.742  12.601   4.101
41730W        W 8271   5.865  44.830   2.647
41731W        W 8272  31.873   8.021   3.154
41732W        W 8273   8.935  30.581   2.470
41733W        W 8274  24.620  18.218   1.287
41734W        W 8275  33.582  19.853  14.367
41735W        W 8276   6.227  41.094   4.596
41736W        W 8277  37.746   5.723   1.332
41737W        W 8278  29.660  23.114  12.159
41738W        W 8279  29.592  39.320  10.669
41739W        W 8280   9.836   6.436  12.344
41740W        W 8281  20.259  24.625  14.747
41741W        W 8282  12.848  37.763   1.336
41742W        W 8283  19.196  34.405  11.179
41743W        W 8284   9.701  17.304  11.413
41744W        W 8285  42.875   8.612  12.903
41745W        W 8286  39.357  22.196   1.616
41746W        W 8287  35.458  21.412  11.240
41747W        W 8288  19.336  26.633   1.224
41748W        W 8289  22.166  19.191   1.899
41749W        W 8290  25.237  13.383   3.714
41750W        W 8291  33.102  42.405   1.800
41751W        W 8292  10.703  17.337  11.048
41752W        W 8293   7.332  28.034  10.987
41753W        W 8294  26.902  27.770  11.981
41754W        W 8295  16.610   9.720   2.809
41755W        W 8296   4.316  33.098  14.692
41756W        W 8297  37.958  20.160   3.662
41757W        W 8298  42.861   8.785   4.816
41758W        W 8299  34.160  40.845   0.352
41759W        W 8300  12.653  44.510  13.494
41760W        W 8301  10.616  44.530  10.712
41761W        W 8302  12.534  40.184  13.071
41762W        W 8303   2.922   5.340  13.771
41763W        W 8304  34.445  31.070   4.545
41764W        W 8305  26.995  21.007  13.028
41765W        W 8306  15.243  38.418  14.114
41766W        W 8307  22.186   8.124  10.946
41767W        W 8308   3.499   7.452  13.787
41768W        W 8309   3.263  25.617   0.325
41769W        W 8310  17.731   6.958  14.791
41770W        W 8311   6.872  17.633   4.178
41771W        W 8312   8.384  21.499  12.582
41772W        W 8313  16.383   6.676   1.305
41773W        W 8314  32.421   0.130   4.615
41774W        W 8315  40.546   8.701   0.645
41775W        W 8316  11.432  34.047   1.867
41776W        W 8317  40.753  34.843  13.955
41777W        W 8318  29.036  20.257   4.151
41778W        W 8319  23.124  43.111  13.224
41779W        W 8320   2.290  38.442   0.637
41780W        W 8321  16.257   1.789  12.445
41781W        W 8322   1.170  41.111  13.657
41782W        W 8323  21.618  42.903   2.862
41783W        W 8324   6.948  20.689   2.915
41784W        W 8325  43.360  20.222  13.434
41785W        W 8326  34.494  33.067   4.712
41786W        W 8327  16.478   8.048   1.391
41787W        W 8328  28.669  15.945   5.113
41788W        W 8329   7.187  35.369   4.683
41789W        W 8330  40.963   1.381   3.192
41790W        W 8331   5.885   7.794  11.518
41791W        W 8332   6.787  35.896  13.763
41792W        W 8333  11.218  22.298   3.705
41793W        W 8334  10.847  23.993  13.837
41794W        W 8335  38.357  15.872   4.382
41795W        W 8336  10.889  28.684   0.364
41796W        W 8337  42.835  22.520  12.059
41797W        W 8338  26.442  40.906  14.701
41798W        W 8339   9.040  42.408   3.735
41799W        W 8340  31.647  23.062   4.619
41800W        W 8341  13.311  18.135   1.697
41801W        W 8342  22.644   9.180  13.117
41802W        W 8343  36.610   4.669  11.420
41803W        W 8344  13.970  44.469   4.224
41804W        W 8345  42.873  28.410  13.927
41805W        W 8346  21.636  18.014   4.200
41806W        W 8347  10.912  41.276   2.193
41807W        W 8348  33.381   6.023   3.034
41808W        W 8349   8.907  39.870  14.301
41809W        W 8350  37.336  16.650  12.886
41810W        W 8351   1.223  10.912   2.584
41811W        W 8352  38.184  32.426  11.656
41812W        W 8353  17.559  13.166  10.860
41813W        W 8354   4.437  17.113   0.234
41814W        W 8355  39.262   9.551   3.810
41815W        W 8356  23.149   5.317   0.412
41816W        W 8357  31.258  37.008  12.108
41817W        W 8358  14.243   4.537  10.467
41818W        W 8359  19.015  24.611   0.325
41819W        W 8360  16.272  35.158  13.549
41820W        W 8361  25.036  27.424  14.142
41821W        W 8362  19.469  38.202   1.419
41822W        W 8363  36.447   6.364  11.560
41823W        W 8364  17.371  27.102   2.139
41824W        W 8365  44.208  30.081  12.598
41825W        W 8366  22.545   0.241  12.648
41826W        W 8367  17.129  21.086  14.739
41827W        W 8368  39.759  41.831   1.339
41828W        W 8369  13.701  11.131  13.797
41829W        W 8370  12.809  43.512   2.437
41830W        W 8371  10.587   7.653   4.067
41831W        W 8372  37.555  31.656   0.367
41832W        W 8373  30.057  33.543   4.696
41833W        W 8374  16.848  34.619  10.705
41834W        W 8375  44.414   4.829   0.906
41835W        W 8376  10.503  29.436   0.977
41836W        W 8377   5.255   8.614   2.746
41837W        W 8378   3.722  38.462  12.558
41838W        W 8379  40.785  19.095  12.583
41839W        W 8380  18.317  40.216   1.523
41840W        W 8381  22.110   1.525  11.558
41841W        W 8382  32.123   0.949   1.234
41842W        W 8383  16.659  15.030   3.018
41843W        W 8384   9.929  14.918  14.067
41844W        W 8385   0.841  23.151  13.489
41845W        W 8386  43.730  24.204  11.553
41846W        W 8387  25.702  27.168   0.270
41847W        W 8388  24.040  43.967   4.464
41848W        W 8389   6.090  15.130  11.180
41849W        W 8390  13.420  18.046  12.391
41850W        W 8391  35.863  31.354  11.020
41851W        W 8392  26.227  19.348   0.931
41852W        W 8393   9.416  19.147   3.418
41853W        W 8394  31.503  38.318   1.664
41854W        W 8395  44.095  34.513  11.525
41855W        W 8396  14.452  21.440  13.694
41856W        W 8397  38.928   1.779   1.360
41857W        W 8398  27.892  17.021   4.445
41858W        W 8399  24.486  34.892  13.605
41859W        W 8400  43.372   9.201   0.562
41860W        W 8401  20.521   4.819   3.554
41861W        W 8402  43.392  26.104   4.559
41862W        W 8403  44.820  11.136  10.609
41863W        W 8404  38.095  15.259  11.998
41864W        W 8405   8.456   0.032  10.761
41865W        W 8406  10.707  20.732  12.498
41866W        W 8407   7.711  29.237   2.154
41867W        W 8408  25.377   4.461   4.872
41868W        W 8409  19.260  21.628   1.237
41869W        W 8410   5.711  10.915   2.812
41870W        W 8411  40.364  31.646   4.404
41871W        W 8412  10.818  16.967   2.461
41872W        W 8413  17.500   0.528  12.597
41873W        W 8414  44.657  35.694   5.054
41874W        W 8415  38.021  30.690  13.604
41875W        W 8416  12.478  33.494   0.744
41876W        W 8417  14.119  39.825  13.888
41877W        W 8418  15.992  23.763  13.018
41878W        W 8419  12.235  15.305   3.534
41879W        W 8420  19.187  23.239   0.952
41880W        W 8421  40.581   2.467   2.391
41881W        W 8422  20.390  33.065  12.651
41882W        W 8423   6.636  44.435  14.519
41883W        W 8424  26.560  27.453  13.941
41884W        W 8425  39.025  21.097  12.968
41885W        W 8426  32.080  36.412  13.789
41886W        W 8427  39.752  16.309  10.093
41887W        W 8428  28.034  43.085   1.420
41888W        W 8429  14.681   1.664  13.467
41889W        W 8430  32.376   2.971   3.361
41890W        W 8431  36.543  16.675   0.754
41891W        W 8432  36.029  29.662   1.229
41892W        W 8433  34.419  38.293  14.810
41893W        W 8434  24.855   4.206  11.116
41894W        W 8435  23.421  40.144   2.710
41895W        W 8436  37.122  29.213  13.993
41896W        W 8437  34.113  12.261   0.509
41897W        W 8438   8.422  20.322   0.787
41898W        W 8439  30.688  21.277  12.088
41899W        W 8440  44.034   7.703   0.324
41900W        W 8441  13.761  25.132  11.849
41901W        W 8442  27.463   7.856  12.073
41902W        W 8443  20.710  43.513  10.713
41903W        W 8444  15.290  27.394  11.914
41904W        W 8445  13.901  25.005   2.717
41905W        W 8446  20.768   0.495   2.337
41906W        W 8447   3.467  17.743  14.472
41907W        W 8448  29.411  37.678  11.679
41908W        W 8449  44.206   4.419  13.728
41909W        W 8450  24.072  15.241   4.550
41910W        W 8451   6.247  10.725  14.453
41911W        W 8452  17.429  40.985   0.705
41912W        W 8453   8.371   2.136  14.075
41913W        W 8454  15.624   6.571  12.194
41914W        W 8455  18.551  10.771  13.355
41915W        W 8456  38.801  11.100   4.568
41916W        W 8457  40.418  20.311   0.728
41917W        W 8458  16.600  37.003  10.947
41918W        W 8459  41.281  33.430   4.482
41919W        W 8460  21.717  14.872  10.651
41920W        W 8461  43.570  27.909   2.926
41921W        W 8462  15.122  15.759   0.215
41922W        W 8463  16.387  12.800   1.973
41923W        W 8464  36.018   4.194   2.724
41924W        W 8465  17.984  35.506  14.137
41925W        W 8466  31.919  41.589   2.308
41926W        W 8467   2.743  12.443  10.410
41927W        W 8468   0.922  16.184  14.479
41928W        W 8469   5.833  14.625  10.677
41929W        W 8470  15.362  10.604   2.678
41930W        W 8471  40.959  29.076  12.314
41931W        W 8472  22.226  21.515   2.820
41932W        W 8473  21.696  37.800  14.470
41933W        W 8474  21.128  17.793   3.223
41934W        W 8475  37.102  19.986   1.171
41935W        W 8476   3.319  42.698   3.339
41936W        W 8477  31.888  24.115  10.461
41937W        W 8478  16.458   5.274   3.288
41938W        W 8479   6.631  38.448   0.363
41939W        W 8480  36.705  11.356   0.744
41940W        W 8481   5.948  28.969  14.441
41941W        W 8482  30.393   0.328  13.087
41942W        W 8483   6.337  35.645   1.636
41943W        W 8484  44.327  28.240   1.428
41944W        W 8485  22.184  26.934   3.379
41945W        W 8486   2.651  20.682  10.773
41946W        W 8487  26.603  23.118   4.504
41947W        W 8488  37.319  18.466   1.207
41948W        W 8489  24.746  38.216  12.491
41949W        W 8490  32.682  34.955   2.377
41950W        W 8491   7.687  34.275   4.189
41951W        W 8492  27.437  28.011   3.239
41952W        W 8493  39.011  23.232   1.659
41953W        W 8494  18.536  23.675   4.527
41954W        W 8495   6.741   4.027  12.872
41955W        W 8496  34.437  19.270   1.728
41956W        W 8497  30.960  14.181   3.440
41957W        W 8498  19.923   9.334  10.786
41958W        W 8499  34.882   6.790  11.147
41959W        W 8500  25.460  24.143  11.991
41960W        W 8501  27.710  27.556  12.914
41961W        W 8502  28.119  26.183  11.926
41962W        W 8503  31.109  40.176  11.181
41963W        W 8504  12.577  12.620   0.001
41964W        W 8505  12.776  21.183  13.810
41965W        W 8506  29.965   4.239  10.675
41966W        W 8507  12.348   2.439   3.538
41967W        W 8508  36.565  25.378  13.412
41968W        W 8509  30.497  24.295  12.715
41969W        W 8510   8.839  10.931   0.269
41970W        W 8511  26.826   7.969   1.821
41971W        W 8512  35.797  30.165   2.518
41972W        W 8513   0.502  14.549   4.638
41973W        W 8514  44.360  11.171  11.983
41974W        W 8515  23.150  14.182  14.736
41975W        W 8516  36.241  31.468   3.866
41976W        W 8517  21.746  31.537   0.888
41977W        W 8518   8.871  44.174   3.566
41978W        W 8519  36.318  15.305   3.656
41979W        W 8520  14.350  20.475  14.016
41980W        W 8521  32.411  43.771   1.907
41981W        W 8522  27.552  15.623   0.666
41982W        W 8523   8.470  23.882   3.321
41983W        W 8524  23.066  19.193   0.073
41984W        W 8525  10.847  23.750   3.283
41985W        W 8526  11.270  27.099   3.874
41986W        W 8527  12.627  44.840  10.672
41987W        W 8528   5.391   7.188  10.687
41988W        W 8529  32.385  19.781   1.788
41989W        W 8530  25.709  30.929  12.324
41990W        W 8531  38.030  40.248  12.915
41991W        W 8532  26.356   1.988  12.405
41992W        W 8533  28.676   7.458  10.576
41993W        W 8534  11.374  42.838  14.592
41994W        W 8535   4.719  30.663  14.009
41995W        W 8536  36.397   4.880   4.084
41996W        W 8537   9.183  21.781   1.473
41997W        W 8538  15.131  19.735   2.287
41998W        W 8539  24.512  29.415   1.781
41999W        W 8540   8.178  16.334  11.708
42000W        W 8541   0.951  23.627  13.685
42001W        W 8542  44.482  32.149  11.214
42002W        W 8543  36.973  12.751  13.896
42003W        W 8544   6.336  35.047  14.093
42004W        W 8545  29.890   3.388   2.774
42005W        W 8546  14.309  40.634   3.287
42006W        W 8547  10.447  38.038  11.811
42007W        W 8548   9.776   9.355  13.526
42008W        W 8549   8.119   4.543  11.073
42009W        W 8550  13.441  39.875   0.827
42010W        W 8551  31.539  11.414  10.640
42011W        W 8552  23.598  38.903  13.752
42012W        W 8553  39.936  23.635   3.958
42013W        W 8554  25.027   7.733  10.659
42014W        W 8555  18.209  33.007   3.134
42015W        W 8556  16.035   4.689  13.110
42016W        W 8557  42.531  35.793  14.538
42017W        W 8558   7.386   5.366   2.768
42018W        W 8559  18.956  14.174  13.364
42019W        W 8560  34.917  20.510  11.776
42020W        W 8561  11.909  29.396  14.669
42021W        W 8562   1.888  44.532  13.337
42022W        W 8563  31.665  33.277  10.937
42023W        W 8564   0.839  22.072  12.151
42024W        W 8565  19.840  21.524  12.985
42025W        W 8566  19.678   6.728   4.135
42026W        W 8567  10.652  41.439   0.213
42027W        W 8568  12.207  21.482  14.426
42028W        W 8569  31.817   1.918   0.361
42029W        W 8570   0.464  20.593  12.677
42030W        W 8571  22.446  38.063  10.820
42031W        W 8572  40.599  41.086   4.946
42032W        W 8573  42.496  35.599   0.771
42033W        W 8574  39.306  10.838  11.223
42034W        W 8575  11.654  13.040  13.448
42035W        W 8576   5.967  44.443   0.319
42036W        W 8577  16.596  24.211   3.212
42037W        W 8578   5.209   8.769  12.546
42038W        W 8579  40.701  31.503  13.476
42039W        W 8580  32.397  21.244  12.317
42040W        W 8581  39.849   6.177  10.981
42041W        W 8582  32.156  28.214   1.779
42042W        W 8583  33.752  29.555  12.480
42043W        W 8584  28.523  14.837  12.427
42044W        W 8585  23.158  23.631  14.824
42045W        W 8586  32.196  35.821  13.554
42046W        W 8587   5.710  36.006  12.490
42047W        W 8588  13.058   0.803   1.324
42048W        W 8589  15.644  15.137   4.628
42049W        W 8590  34.511  12.395   0.881
42050W        W 8591  12.298  30.916   4.180
42051W        W 8592  23.641  40.117   1.767
42052W        W 8593  39.220  20.735  14.448
42053W        W 8594  36.537  36.304   2.355
42054W        W 8595  16.203   1.918  10.442
42055W        W 8596  29.156   6.768  14.410
42056W        W 8597  27.100   8.645   3.739
42057W        W 8598  16.812  25.258  11.549
42058W        W 8599  42.853  20.069   2.819
42059W        W 8600  44.574  31.049   0.032
42060W        W 8601   1.255   4.218  14.008
42061W        W 8602  28.984  40.768  11.560
42062W        W 8603   4.228   1.044  13.909
42063W        W 8604  41.532  38.976  14.890
42064W        W 8605  42.738  44.916  12.484
42065W        W 8606  19.619   1.712  12.098
42066W        W 8607  14.671  29.977   0.969
42067W        W 8608  36.474  26.441  11.883
42068W        W 8609  40.997  40.023  14.054
42069W        W 8610  38.021  27.477   1.767
42070W        W 8611  38.868  35.023  13.800
42071W        W 8612  25.734   3.409  11.546
42072W        W 8613  29.109  27.609   2.957
42073W        W 8614   8.559  16.706  13.637
42074W        W 8615  38.454  15.161  10.746
42075W        W 8616  11.559  23.277  11.466
42076W        W 8617  16.135  38.580   1.330
42077W        W 8618  44.327  42.280   4.794
42078W        W 8619  41.545  28.677   4.088
42079W        W 8620  18.098  16.355  14.212
42080W        W 8621   6.997  44.378   3.163
42081W        W 8622  26.616  41.195   4.158
42082W        W 8623  32.901  34.737  12.158
42083W        W 8624  20.921  28.629   3.194
42084W        W 8625  12.802  14.879  14.884
42085W        W 8626  26.229  27.142   0.305
42086W        W 8627  15.567  12.085  14.987
42087W        W 8628  29.143  14.279   3.116
42088W        W 8629  10.160  33.490   4.056
42089W        W 8630   3.859  10.046  11.266
42090W        W 8631  42.468   4.289  12.833
42091W        W 8632  15.495  27.895   1.280
42092W        W 8633   2.504   7.975  11.412
42093W        W 8634  28.440   3.009  11.571
42094W        W 8635  15.989  19.931   0.353
42095W        W 8636   7.517  23.207  12.109
42096W        W 8637  43.321  13.584  10.644
42097W        W 8638  16.124  25.850   0.249
42098W        W 8639  38.829  28.564   1.701
42099W        W 8640  18.273  42.285  13.837
42100W        W 8641  39.514   5.219  13.195
42101W        W 8642   2.016  42.719  14.869
42102W        W 8643  31.642  25.516   2.230
42103W        W 8644  11.639  30.985  10.367
42104W        W 8645   8.356  39.824  12.632
42105W        W 8646   9.694   0.663   2.101
42106W        W 8647  44.285  39.362  10.485
42107W        W 8648  43.254  22.860  11.617
42108W        W 8649  41.481  10.890  12.019
42109W        W 8650  22.442  42.989   3.701
42110W        W 8651  14.279  19.634   1.683
42111W        W 8652  21.026  18.826   2.090
42112W        W 8653   2.973  44.899   2.211
42113W        W 8654  32.555  30.498  13.323
42114W        W 8655  36.451  28.577  12.038
42115W        W 8656  15.771  37.995   2.159
42116W        W 8657  21.224   3.700  12.850
42117W        W 8658  40.323  42.527   2.334
42118W        W 8659   3.374  35.575  10.604
42119W        W 8660  33.413  32.367   2.857
42120W        W 8661  27.057  29.418  12.844
42121W        W 8662  18.319  27.693   0.713
42122W        W 8663   2.344   2.387   0.851
42123W        W 8664  33.148   3.650  10.085
42124W        W 8665  10.565  38.355   2.323
42125W        W 8666   1.034  43.030  12.714
42126W        W 8667   3.908   9.423   4.308
42127W        W 8668  38.619  40.861   0.222
42128W        W 8669  18.275   1.836   0.347
42129W        W 8670  10.204  30.090  10.864
42130W        W 8671  37.027   8.423  14.811
42131W        W 8672  36.332  11.976  13.902
42132W        W 8673  11.579  16.655   2.516
42133W        W 8674  39.400   9.624   1.954
42134W        W 8675   4.699  20.046  12.941
42135W        W 8676   4.474  32.753   4.667
42136W        W 8677  11.385  26.902   1.425
42137W        W 8678  32.433   5.449  10.066
42138W        W 8679   6.431  35.842  10.641
42139W        W 8680   2.402   1.730  13.008
42140W        W 8681  38.540  28.864   0.257
42141W        W 8682  32.046  32.210   2.642
42142W        W 8683  20.550  43.377   3.785
42143W        W 8684  21.517  11.272  11.967
42144W        W 8685  15.773  30.838   3.793
42145W        W 8686  41.084  33.054   0.397
42146W        W 8687  21.813   8.726   0.610
42147W        W 8688  41.412  35.909   0.004
42148W        W 8689  37.828  10.517  11.045
42149W        W 8690   3.806  11.449   0.704
42150W        W 8691  42.705  36.849   4.745
42151W        W 8692  19.904  42.920  12.450
42152W        W 8693  23.239  10.991  13.214
42153W        W 8694  22.239  36.545   0.438
42154W        W 8695  42.844  28.678  13.493
42155W        W 8696  19.041   0.996  11.091
42156W        W 8697  42.033  26.105   4.391
42157W        W 8698  10.433  20.310  12.776
42158W        W 8699  27.741  26.754  12.830
42159W        W 8700  32.355  39.875  13.336
42160W        W 8701  22.295  19.525   2.253
42161W        W 8702   9.586  32.389  11.990
42162W        W 8703  37.638  36.031  14.397
42163W        W 8704  17.605  13.932   1.862
42164W        W 8705  23.732  13.253  14.894
42165W        W 8706  32.627  37.508   4.692
42166W        W 8707  42.226  21.488   1.481
42167W        W 8708  33.424   8.487   4.958
42168W        W 8709   9.188   0.811   5.052
42169W        W 8710  37.209  22.230  12.060
42170W        W 8711  19.290  17.249   3.854
42171W        W 8712  44.500  15.629   2.693
42172W        W 8713   2.746  22.041   0.819
42173W        W 8714  29.056  11.602   0.692
42174W        W 8715  40.466  16.028  14.429
42175W        W 8716  41.161  11.883   4.920
42176W        W 8717  17.378  29.433   3.729
42177W        W 8718  38.067   0.196   1.397
42178W        W 8719  32.468  44.988   3.278
42179W        W 8720  41.267  32.969  11.141
42180W        W 8721  10.264  22.654  12.141
42181W        W 8722   7.808   8.752   1.861
42182W        W 8723  44.243  32.181  12.040
42183W        W 8724  24.533  10.409  12.848
42184W        W 8725  32.346  27.001  12.761
42185W        W 8726  26.171   5.151  12.938
42186W        W 8727  14.142   9.854  12.093
42187W        W 8728  42.227  16.031   0.755
42188W        W 8729  17.641   5.272   2.664
42189W        W 8730   5.186  27.255   0.314
42190W        W 8731  13.552  22.967   4.000
42191W        W 8732  14.294  26.163   3.903
42192W        W 8733  22.134  43.897   4.246
42193W        W 8734   2.930  12.244   0.022
42194W        W 8735  14.148   0.669  12.478
42195W        W 8736   7.343  15.338   0.237
42196W        W 8737   1.709  18.104  13.927
42197W        W 8738  42.443  29.808  11.873
42198W        W 8739  26.361  12.749  13.584
42199W        W 8740  12.561  38.239  13.913
42200W        W 8741  17.266   3.858  13.419
42201W        W 8742  25.973   5.086   2.313
42202W        W 8743  31.474  19.090   4.209
42203W        W 8744  37.346  33.150   4.558
42204W        W 8745  11.248  42.710   1.032
42205W        W 8746  38.925  42.183   5.078
42206W        W 8747  43.764  25.656  11.020
42207W        W 8748  16.003  20.056   4.944
42208W        W 8749   6.207  29.590  12.448
42209W        W 8750  38.013  35.351   2.939
42210W        W 8751   0.185  36.087  12.572
42211W        W 8752   3.250  21.704  13.339
42212W        W 8753   7.424  32.740  13.063
42213W        W 8754  29.478   0.419   3.310
42214W        W 8755  43.238  30.004   0.794
42215W        W 8756   8.659  37.430  11.137
42216W        W 8757  10.799   1.246  13.218
42217W        W 8758  19.881  14.131  14.381
42218W        W 8759  20.203  38.119   4.705
42219W        W 8760   2.919   5.753   0.308
42220W        W 8761   4.406  34.055  14.268
42221W        W 8762  16.148  14.244   9.581
42222W        W 8763  25.004  37.324   1.663
42223W        W 8764   1.482  17.553   4.609
42224W        W 8765  21.463  10.201  14.525
42225W        W 8766  31.604   3.629  14.751
42226W        W 8767  33.300  11.305   0.213
42227W        W 8768   6.479   8.169  13.151
42228W        W 8769  39.999  35.605   1.281
42229W        W 8770  42.816   9.130  13.074
42230W        W 8771   3.869  35.331  12.464
42231W        W 8772   4.843  24.762   0.334
42232W        W 8773  42.914  12.762   4.291
42233W        W 8774  17.604   9.215  14.397
42234W        W 8775  39.704   8.410   0.214
42235W        W 8776  35.853  39.325   3.804
42236W        W 8777  37.727  11.436  14.738
42237W        W 8778  30.577  32.868  11.558
42238W        W 8779  13.245  20.820  11.585
42239W        W 8780  16.968  42.248   3.730
42240W        W 8781  34.397  37.517   1.316
42241W        W 8782  17.040  32.927  11.332
42242W        W 8783  10.750  38.680   5.050
42243W        W 8784  43.939  42.682  14.350
42244W        W 8785  43.713  11.142   0.299
42245W        W 8786  29.652  37.984   1.913
42246W        W 8787   5.821  32.060  12.366
42247W        W 8788  23.061  29.909   4.143
42248W        W 8789  31.634   9.871  13.392
42249W        W 8790  42.213  36.351  11.191
42250W        W 8791  34.503  26.940  10.569
42251W        W 8792  32.865  27.460  13.982
42252W        W 8793  33.444  36.658  13.820
42253W        W 8794  28.010  14.352   0.324
42254W        W 8795   1.841  32.986  14.469
42255W        W 8796  26.008  21.689   3.421
42256W        W 8797  30.163  42.788   1.609
42257W        W 8798  37.514  26.796   3.390
42258W        W 8799  42.168  34.787  10.276
42259W        W 8800  33.041  39.656  13.664
42260W        W 8801   8.787  16.322   3.318
42261W        W 8802  42.489  35.074   4.554
42262W        W 8803  36.678  41.022  11.863
42263W        W 8804   1.813  17.865   2.790
42264W        W 8805  44.904   0.509   4.873
42265W        W 8806  28.232  11.137  13.396
42266W        W 8807  19.255  42.078  10.876
42267W        W 8808  21.763  30.212  12.464
42268W        W 8809  14.791  39.012   5.108
42269W        W 8810   9.470  34.503   4.662
42270W        W 8811  15.133   3.264  12.534
42271W        W 8812  29.883  30.108   1.649
42272W        W 8813   2.823  34.482  12.238
42273W        W 8814  11.101  21.596  13.342
42274W        W 8815  19.208  36.282   3.700
42275W        W 8816  15.086  41.897  11.308
42276W        W 8817  18.483  32.097   4.080
42277W        W 8818  18.226  21.684  14.114
42278W        W 8819  19.943   9.209  14.423
42279W        W 8820  15.648  34.431  10.182
42280W        W 8821  32.632  19.448  14.593
42281W        W 8822  35.319  42.385   1.206
42282W        W 8823  14.759  42.031   1.442
42283W        W 8824  11.675  11.563  14.491
42284W        W 8825  19.378  25.570  14.294
42285W        W 8826  20.050  14.789   3.900
42286W        W 8827  44.875  30.539  13.401
42287W        W 8828   0.430  22.219   2.727
42288W        W 8829  36.105  36.828   0.346
42289W        W 8830  33.959  39.543   2.652
42290W        W 8831  11.320  39.977  13.588
42291W        W 8832  13.317   7.434   3.168
42292W        W 8833   6.711  43.406  11.384
42293W        W 8834  33.491  40.788   1.473
42294W        W 8835  43.784  20.759  12.028
42295W        W 8836  23.777  16.245   4.135
42296W        W 8837  35.419   7.916   0.863
42297W        W 8838  42.435   5.787   3.006
42298W        W 8839  22.217  10.287  12.267
42299W        W 8840  32.484   1.918  13.022
42300W        W 8841   7.830  33.981  14.855
42301W        W 8842   1.284  43.402   2.401
42302W        W 8843  41.874  39.064  13.889
42303W        W 8844  30.586   8.894   0.700
42304W        W 8845  19.784  17.327   0.399
42305W        W 8846  20.109  23.622  10.893
42306W        W 8847   8.647  31.523   1.315
42307W        W 8848  39.767   5.323   1.891
42308W        W 8849  41.007  17.854  10.988
42309W        W 8850   0.601   3.204  12.886
42310W        W 8851   3.439  38.818  11.857
42311W        W 8852  26.938  36.071  10.735
42312W        W 8853   2.361  38.067  12.762
42313W        W 8854   3.783  38.087   4.191
42314W        W 8855   1.520   2.254   4.089
42315W        W 8856   1.046  40.640   3.282
42316W        W 8857   1.319  25.965   0.852
42317W        W 8858  27.648  25.564  11.479
42318W        W 8859  12.543  38.365  12.476
42319W        W 8860  22.136  34.786  13.706
42320W        W 8861   2.024  14.189  11.615
42321W        W 8862  17.321   9.802  12.638
42322W        W 8863  42.310  37.381   4.485
42323W        W 8864  24.295  34.679  12.130
42324W        W 8865  16.775   7.589   0.941
42325W        W 8866  10.369  34.563  11.393
42326W        W 8867  30.949  36.280   0.684
42327W        W 8868  28.082  26.450   3.608
42328W        W 8869  35.992  16.212  13.460
42329W        W 8870  27.595  36.062  12.088
42330W        W 8871  41.457   2.222   0.958
42331W        W 8872  26.682  17.784  13.064
42332W        W 8873  27.674   9.905  11.612
42333W        W 8874  39.779  16.898   2.237
42334W        W 8875  27.603   6.260   2.711
42335W        W 8876  32.521  38.801   3.574
42336W        W 8877  21.793   5.495  11.285
42337W        W 8878  13.703  44.374  11.214
42338W        W 8879  27.685  38.861  11.379
42339W        W 8880  14.048  17.258   5.045
42340W        W 8881   5.126   9.870  11.459
42341W        W 8882  18.496  41.950  14.574
42342W        W 8883  40.194  18.103  11.556
42343W        W 8884   4.677  42.963  13.099
42344W        W 8885  18.097  43.213   0.474
42345W        W 8886  40.267   8.316   1.608
42346W        W 8887  17.220  41.089  13.010
42347W        W 8888   0.024  23.145  12.847
42348W        W 8889   0.952  31.180   0.346
42349W        W 8890  29.689  37.175  14.928
42350W        W 8891  38.019  44.112  12.985
42351W        W 8892  19.350  11.718   0.184
42352W        W 8893  35.561   3.705   5.378
42353W        W 8894  15.588  25.622   1.882
42354W        W 8895  33.642  34.057  13.166
42355W        W 8896  25.372   9.323   2.668
42356W        W 8897   4.751  41.587   1.193
42357W        W 8898  29.183   6.007  13.995
42358W        W 8899  11.624  40.793  12.020
42359W        W 8900  27.270  18.660  11.751
42360W        W 8901  38.445  36.495   4.329
42361W        W 8902  10.677  29.120  11.512
42362W        W 8903  31.642  29.577   2.397
42363W        W 8904  21.450  36.167   0.592
42364W        W 8905  19.447  22.627  11.996
42365W        W 8906  30.118  39.670  10.728
42366W        W 8907  25.522  26.886  14.854
42367W        W 8908  36.592  16.008   0.043
42368W        W 8909  29.410  20.708   3.327
42369W        W 8910  44.726  22.707  11.589
42370W        W 8911  17.772   0.403   1.939
42371W        W 8912   9.292  44.458   3.826
42372W        W 8913  31.535  37.968   4.689
42373W        W 8914  32.348   0.858  11.909
42374W        W 8915  37.013  13.509   9.803
42375W        W 8916  32.429  16.374  12.459
42376W        W 8917  41.833  25.964   1.508
42377W        W 8918   4.722  35.728  10.358
42378W        W 8919  14.713   2.800   3.903
42379W        W 8920  20.061  13.880  13.943
42380W        W 8921  35.905  18.169  10.653
42381W        W 8922  37.932   6.257   4.810
42382W        W 8923  20.602   2.030  12.136
42383W        W 8924  44.409  32.906   1.748
42384W        W 8925   7.202   6.837   1.898
42385W        W 8926  13.128  34.163   3.340
42386W        W 8927  11.618  24.075   1.380
42387W        W 8928   1.898  21.943  14.355
42388W        W 8929   8.703  43.762   3.281
42389W        W 8930  41.689  42.415  12.349
42390W        W 8931  13.150  15.794  14.088
42391W        W 8932   0.759   3.851   2.232
42392W        W 8933   9.845   7.200  11.129
42393W        W 8934   2.785  23.242   1.269
42394W        W 8935  32.179  16.653   0.897
42395W        W 8936  21.307  26.006  14.795
42396W        W 8937  24.227  21.164  10.762
42397W        W 8938  16.661  15.384  14.032
42398W        W 8939   2.385   3.370  14.461
42399W        W 8940  34.812  39.478  11.958
42400W        W 8941  10.123  34.174  13.538
42401W        W 8942  11.437  29.570  11.078
42402W        W 8943  44.439  43.229  10.726
42403W        W 8944  16.340  29.996   3.774
42404W        W 8945  14.774  15.008   1.323
42405W        W 8946  31.431  30.106  13.486
42406W        W 8947  20.500  41.081   3.917
42407W        W 8948  13.654  30.423  13.373
42408W        W 8949   8.945  11.785   0.371
42409W        W 8950  22.721  38.809  10.900
42410W        W 8951  21.222  34.938  14.643
42411W        W 8952   8.457  25.675   3.206
42412W        W 8953  43.778  43.428   3.678
42413W        W 8954  40.803  38.293  12.444
42414W        W 8955  34.849   7.692  11.126
42415W        W 8956  39.913  23.658   1.331
42416W        W 8957  39.034  24.976   5.008
42417W        W 8958  36.207  41.352  14.828
42418W        W 8959   8.769   6.149   3.253
42419W        W 8960   0.334  19.531   0.280
42420W        W 8961   0.956  19.761  14.326
42421W        W 8962  15.278   4.245  13.648
42422W        W 8963  11.331  30.968  13.175
42423W        W 8964   1.901  32.563   0.856
42424W        W 8965  28.580   5.350   0.348
42425W        W 8966  13.375   1.351   2.384
42426W        W 8967  25.262   6.266   5.239
42427W        W 8968  36.522  10.939  13.928
42428W        W 8969   8.396  30.625   3.791
42429W        W 8970  39.360  42.330   3.241
42430W        W 8971  17.603  35.482   1.539
42431W        W 8972  41.597   0.148   3.433
42432W        W 8973  25.501  25.491   4.657
42433W        W 8974  37.401  40.009   4.186
42434W        W 8975   9.723   7.670   1.662
42435W        W 8976  34.299   0.550   4.906
42436W        W 8977  35.185  41.316   3.952
42437W        W 8978  18.535  29.535  13.366
42438W        W 8979  22.474  40.921   2.258
42439W        W 8980  41.425  10.282  11.314
42440W        W 8981  19.141  37.537  12.954
42441W        W 8982   7.157   2.034  14.615
42442W        W 8983   0.375  41.138   0.474
42443W        W 8984   9.557  42.807  13.025
42444W        W 8985  16.344  25.149   3.282
42445W        W 8986  37.164  38.034  12.871
42446W        W 8987  40.130  42.590   0.293
42447W        W 8988  20.208   6.960  11.954
42448W        W 8989  28.964  14.539  12.547
42449W        W 8990  35.817  38.427   1.460
42450W        W 8991   0.241  36.224   2.339
42451W        W 8992  22.394  15.911   4.991
42452W        W 8993  44.415  19.325  14.584
42453W        W 8994   7.368   0.197   3.744
42454W        W 8995  38.369  30.468   1.333
42455W        W 8996  33.441   3.156   1.802
42456W        W 8997  42.387  11.391   2.864
42457W        W 8998  25.432  30.009  11.924
42458W        W 8999  41.270   4.798   2.682
42459W        W 9000  15.304  10.655   0.714
42460W        W 9001  37.539  36.614   2.897
42461W        W 9002  38.009   1.307   3.560
42462W        W 9003  43.865   8.371  14.460
42463W        W 9004   7.967  23.296   3.547
42464W        W 9005  27.192   0.314   4.574
42465W        W 9006  31.835  12.786   0.271
42466W        W 9007  10.256   1.314  12.891
42467W        W 9008   1.923   6.717   4.704
42468W        W 9009  10.208  15.054   4.699
42469W        W 9010   0.737   2.398  11.509
42470W        W 9011  30.058   0.015   4.935
42471W        W 9012  11.568  28.619  13.660
42472W        W 9013  23.800  25.560   4.239
42473W        W 9014   7.309  13.567   0.882
42474W        W 9015   6.403  17.741  12.385
42475W        W 9016  23.727   9.256   3.670
42476W        W 9017  40.346  38.555  13.804
42477W        W 9018  14.846  18.995   1.436
42478W        W 9019   1.164   0.502  13.928
42479W        W 9020  43.201  40.317   1.802
42480W        W 9021  12.684  39.792   3.188
42481W        W 9022   4.747  28.901   3.086
42482W        W 9023  23.453  37.161   3.113
42483W        W 9024  26.282  24.869  13.765
42484W        W 9025  18.076  43.726  13.340
42485W        W 9026  22.786   3.813  13.568
42486W        W 9027  34.477  18.297  12.025
42487W        W 9028  35.550   6.156  13.810
42488W        W 9029  22.048   5.242  13.513
42489W        W 9030  43.434  16.832  13.903
42490W        W 9031   3.442  40.520   4.119
42491W        W 9032  23.895  14.584  13.571
42492W        W 9033  17.546   4.185  13.120
42493W        W 9034  21.061  28.555  13.585
42494W        W 9035  13.090  32.799   3.599
42495W        W 9036  36.444  31.441   1.271
42496W        W 9037  42.501  11.688  11.087
42497W        W 9038  16.763  13.902  12.827
42498W        W 9039  35.853  37.048  12.645
42499W        W 9040  25.486  24.978  13.390
42500W        W 9041   4.499  32.209   3.736
42501W        W 9042  19.708  37.085  12.145
42502W        W 9043  25.694  23.704   2.397
42503W        W 9044   2.511  20.244   4.619
42504W        W 9045  38.119   7.152  13.412
42505W        W 9046  30.163  24.199  10.832
42506W        W 9047  19.277  13.092   5.410
42507W        W 9048  35.364  34.983   5.048
42508W        W 9049  28.901  42.949   0.995
42509W        W 9050   5.316  23.229   1.792
42510W        W 9051  28.534  10.687   2.458
42511W        W 9052  33.829   2.558  14.811
42512W        W 9053  33.610  41.378  14.040
42513W        W 9054  37.409  11.546  11.930
42514W        W 9055  41.462  30.594  11.177
42515W        W 9056  18.078  24.500   1.860
42516W        W 9057  10.095   0.300  12.946
42517W        W 9058  16.151  39.493   4.837
42518W        W 9059  10.416  39.969   2.694
42519W        W 9060  27.230  20.668  10.484
42520W        W 9061   2.284   7.203   4.091
42521W        W 9062  25.217   1.208  12.689
42522W        W 9063  32.310  23.213  13.568
42523W        W 9064  19.507  27.033   2.828
42524W        W 9065   4.674  14.644   4.746
42525W        W 9066   9.426   6.845  13.326
42526W        W 9067   3.011  43.759   2.928
42527W        W 9068  31.936  26.532  10.714
42528W        W 9069  17.645  25.006   0.526
42529W        W 9070  36.973   4.491   0.799
42530W        W 9071  13.392  26.109   3.340
42531W        W 9072   5.610  30.467   0.394
42532W        W 9073  27.637  14.192   1.741
42533W        W 9074  20.736  11.089   4.164
42534W        W 9075  20.593  18.379  13.748
42535W        W 9076  12.576   7.273  10.557
42536W        W 9077  21.322   1.869  12.591
42537W        W 9078   4.424  30.457  12.391
42538W        W 9079  32.015  28.089   1.308
42539W        W 9080  28.713  27.530   3.300
42540W        W 9081  39.886   3.281  14.178
42541W        W 9082   2.536  40.733   1.181
42542W        W 9083  40.744   9.643   0.784
42543W        W 9084  44.767   9.156  13.654
42544W        W 9085  23.588  34.159   4.728
42545W        W 9086  37.949  21.585  12.025
42546W        W 9087  23.085   9.209  12.624
42547W        W 9088   4.679  22.320   1.362
42548W        W 9089  36.515  17.811  12.123
42549W        W 9090  26.783   3.859   2.174
42550W        W 9091  40.212  15.029  10.660
42551W        W 9092  41.944  23.123   4.233
42552W        W 9093  14.644   1.386  14.471
42553W        W 9094  19.415  44.833  10.811
42554W        W 9095   3.860   9.480   0.458
42555W        W 9096  14.581  24.745  10.712
42556W        W 9097  33.167  10.388   3.726
42557W        W 9098  38.375   2.278   2.776
42558W        W 9099  30.573  43.719   4.834
42559W        W 9100  22.650  13.999   4.205
42560W        W 9101  31.395   0.762  13.914
42561W        W 9102  40.253   3.168   1.563
42562W        W 9103  13.292  23.599  12.999
42563W        W 9104  11.652   9.889  13.965
42564W        W 9105  33.123  32.388   3.298
42565W        W 9106  20.682   1.748   0.821
42566W        W 9107  12.664   8.322   1.183
42567W        W 9108  20.076   2.557   0.825
42568W        W 9109   1.015   7.974   1.911
42569W        W 9110  33.954  12.360   2.899
42570W        W 9111  37.940  20.994  14.829
42571W        W 9112  26.918  18.343  11.588
42572W        W 9113  16.531  33.171   0.741
42573W        W 9114   5.957   1.846  12.493
42574W        W 9115  27.402  42.782   3.606
42575W        W 9116  11.535  39.051   5.087
42576W        W 9117   0.975  31.991  14.651
42577W        W 9118  29.118  15.259   0.321
42578W        W 9119  34.514  10.303   0.379
42579W        W 9120  29.019  25.538  14.428
42580W        W 9121  19.400  38.141  14.165
42581W        W 9122  14.133  33.668  11.403
42582W        W 9123  39.232  19.103  12.533
42583W        W 9124  24.308  42.926  14.832
42584W        W 9125   6.552  14.869  14.353
42585W        W 9126  24.133  28.882  12.515
42586W        W 9127  24.297  14.201  10.453
42587W        W 9128  22.435  37.060   0.963
42588W        W 9129   7.187  29.347  12.485
42589W        W 9130   7.165  24.665   0.667
42590W        W 9131  29.955  11.881   0.291
42591W        W 9132   3.752  29.973  13.289
42592W        W 9133  11.357  31.130  13.647
42593W        W 9134   4.642  19.586   4.608
42594W        W 9135  13.639  44.049  13.448
42595W        W 9136  18.586  37.250   3.278
42596W        W 9137   6.858  40.786   1.787
42597W        W 9138   1.973  36.446   0.928
42598W        W 9139  11.190  24.355  12.417
42599W        W 9140  44.529   4.012  14.060
42600W        W 9141  29.172  40.361  13.032
42601W        W 9142  30.568  19.261  12.627
42602W        W 9143  20.444  43.380  11.159
42603W        W 9144  12.055  19.224  12.422
42604W        W 9145  43.004  21.403  12.736
42605W        W 9146   6.857  16.517  12.423
42606W        W 9147  10.309  37.911   2.250
42607W        W 9148  20.182  24.823   2.237
42608W        W 9149  10.559  27.526   3.760
42609W        W 9150   1.538  28.649  12.075
42610W        W 9151   5.337  40.902   4.563
42611W        W 9152  10.364  15.179   3.664
42612W        W 9153   1.090  26.433   9.909
42613W        W 9154  44.919   4.674  12.452
42614W        W 9155   6.360  32.443   0.723
42615W        W 9156  27.667  33.421   2.746
42616W        W 9157  39.251  26.618  14.507
42617W        W 9158  34.060  19.849  12.512
42618W        W 9159   6.716  24.034  10.317
42619W        W 9160  40.868  12.398   0.810
42620W        W 9161   1.266  20.468   0.996
42621W        W 9162  32.178  16.325   3.192
42622W        W 9163  24.472   2.733   0.137
42623W        W 9164  42.635  25.323  11.889
42624W        W 9165  25.013  26.990   4.186
42625W        W 9166   9.322  33.130  13.926
42626W        W 9167  27.557   5.780  12.705
42627W        W 9168  35.085  23.472   0.322
42628W        W 9169   7.629   7.323  10.781
42629W        W 9170  40.927  20.438   4.132
42630W        W 9171  37.657  31.577  14.028
42631W        W 9172  37.357  38.599  12.745
42632W        W 9173   3.225   0.518   3.234
42633W        W 9174  14.237  27.156   1.034
42634W        W 9175  32.085  14.613   3.155
42635W        W 9176  22.222  23.464  12.369
42636W        W 9177   8.432  40.573   0.992
42637W        W 9178   5.777  10.096   0.499
42638W        W 9179  12.592  17.258  12.714
42639W        W 9180  31.915  44.289   2.206
42640W        W 9181  38.058  19.097  14.852
42641W        W 9182  28.134  14.800  11.838
42642W        W 9183  25.146  39.934   3.082
42643W        W 9184  29.465  39.300  14.054
42644W        W 9185  22.987  34.770   2.600
42645W        W 9186   2.926  37.018   1.855
42646W        W 9187   7.351  32.156   2.284
42647W        W 9188  39.210  24.041   5.092
42648W        W 9189  15.528  15.375   0.893
42649W        W 9190  31.604  40.844  14.493
42650W        W 9191  38.585  16.608  10.838
42651W        W 9192  25.465  28.500   2.676
42652W        W 9193  27.608  27.370  10.590
42653W        W 9194   6.800  20.008   4.102
42654W        W 9195  34.097  11.132   4.735
42655W        W 9196  13.193  14.023  14.745
42656W        W 9197  39.900   3.079   0.223
42657W        W 9198  33.150   1.490  14.922
42658W        W 9199   1.314  27.106  13.921
42659W        W 9200  42.193  28.931  11.247
42660W        W 9201  36.886  40.762   3.182
42661W        W 9202  25.752  14.714   1.857
42662W        W 9203   3.767  14.202   3.035
42663W        W 9204  14.591  28.105  10.265
42664W        W 9205  18.101  21.795  14.631
42665W        W 9206  15.315  27.243  13.083
42666W        W 9207  32.469  26.757   1.756
42667W        W 9208  43.508  18.836  14.864
42668W        W 9209  36.904  42.515  14.761
42669W        W 9210   6.261  35.925   2.570
42670W        W 9211   8.870  34.835  13.919
42671W        W 9212  22.377  15.609   1.310
42672W        W 9213   8.863   7.078   1.669
42673W        W 9214  35.809  39.696  11.166
42674W        W 9215  18.598  37.528   4.169
42675W        W 9216  35.856  42.425   0.316
42676W        W 9217   6.904  35.410   1.900
42677W        W 9218  17.157  30.635   0.625
42678W        W 9219  35.478  26.862  14.910
42679W        W 9220  17.546   4.681   4.519
42680W        W 9221  14.017  33.178   4.476
42681W        W 9222   4.976  37.521  14.684
42682W        W 9223   4.425   2.760  13.451
42683W        W 9224   3.824  27.288  12.332
42684W        W 9225  28.166  40.771  10.867
42685W        W 9226  40.722   4.486   1.687
42686W        W 9227  44.973   3.735  14.241
42687W        W 9228  14.632  28.916   9.828
42688W        W 9229  41.459  44.855  14.602
42689W        W 9230  23.849  13.187   3.158
42690W        W 9231   2.724  24.133   4.361
42691W        W 9232   8.817  29.721   3.610
42692W        W 9233   3.763   8.654   2.138
42693W        W 9234  40.393  18.267  12.439
42694W        W 9235  15.383  33.898  14.276
42695W        W 9236  19.967  41.221  13.346
42696W        W 9237  28.091  30.079   0.564
42697W        W 9238  11.346  13.890  13.283
42698W        W 9239  32.343  37.063   4.675
42699W        W 9240  20.368  18.343   3.766
42700W        W 9241  19.107  10.366  12.859
42701W        W 9242  16.695  29.212  13.345
42702W        W 9243  43.488  21.061   2.767
42703W        W 9244  30.711   9.792   3.102
42704W        W 9245  21.454  35.198   4.056
42705W        W 9246  16.272  36.024  10.702
42706W        W 9247   9.618  38.858   1.720
42707W        W 9248  19.625  22.925  11.625
42708W        W 9249   4.551  22.931   1.420
42709W        W 9250   5.450  14.208   1.417
42710W        W 9251  13.620   2.725  14.967
42711W        W 9252  13.849  29.137   2.822
42712W        W 9253  16.066  23.025  11.545
42713W        W 9254  22.766  17.483   3.659
42714W        W 9255  18.197   1.358   3.773
42715W        W 9256  29.591  34.075  12.493
42716W        W 9257  32.573  22.999   4.074
42717W        W 9258   2.230   6.282   4.653
42718W        W 9259  43.050  34.817   1.450
42719W        W 9260  14.367  32.512   2.605
42720W        W 9261  36.530   9.688   1.029
42721W        W 9262  42.090  14.366   1.833
42722W        W 9263  16.637   5.387  14.292
42723W        W 9264  35.029  17.109  13.785
42724W        W 9265  23.579  18.082   0.408
42725W        W 9266  18.123  31.138   4.292
42726W        W 9267  22.627  22.074   3.877
42727W        W 9268  21.005   7.002   3.494
42728W        W 9269  21.262   9.593  11.597
42729W        W 9270  19.579  34.613   4.826
42730W        W 9271  13.094   3.331   5.071
42731W        W 9272  42.371   9.590   4.389
42732W        W 9273  44.110   7.228   0.578
42733W        W 9274  21.311  43.492  14.861
42734W        W 9275  12.083  20.519  12.016
42735W        W 9276   3.841   6.745   2.167
42736W        W 9277  40.873  38.512   3.892
42737W        W 9278  27.985  19.305  11.447
42738W        W 9279  44.298   2.147   3.664
42739W        W 9280   4.421   8.335   4.073
42740W        W 9281  12.259  39.300  12.971
42741W        W 9282  21.514  11.773   0.665
42742W        W 9283  35.310  24.149   1.327
42743W        W 9284   1.375  22.980   2.801
42744W        W 9285  23.932  35.924   4.695
42745W        W 9286  37.954  40.107   4.931
42746W        W 9287  28.417  38.427  14.371
42747W        W 9288  40.494  31.888   3.215
42748W        W 9289  37.718   7.500  11.240
42749W        W 9290  15.488  10.328  11.990
42750W        W 9291  34.942  35.572  14.420
42751W        W 9292  27.007  40.096  12.900
42752W        W 9293  19.665   5.155   2.593
42753W        W 9294  26.606   8.357   1.268
42754W        W 9295   9.655   8.610  14.070
42755W        W 9296  18.501  21.200   3.246
42756W        W 9297  40.666  14.493   5.104
42757W        W 9298  40.313  36.451   2.765
42758W        W 9299  15.563   0.487   2.749
42759W        W 9300  27.111   1.382   2.398
42760W        W 9301  32.468  15.879  12.454
42761W        W 9302  34.437  24.857   2.202
42762W        W 9303  17.605  33.121   2.718
42763W        W 9304  38.536  23.215   2.856
42764W        W 9305  39.570  41.096   3.711
42765W        W 9306  19.556  13.364  13.483
42766W        W 9307  39.074  38.598   4.702
42767W        W 9308   8.060  24.944  11.025
42768W        W 9309  40.427   2.090   4.094
42769W        W 9310  27.077  18.205   0.958
42770W        W 9311  27.110  31.368   2.913
42771W        W 9312  10.895  10.228   4.623
42772W        W 9313  14.953   7.396   2.819
42773W        W 9314  20.238  12.664  12.139
42774W        W 9315  12.628  21.275  13.311
42775W        W 9316  22.630  12.089  10.606
42776W        W 9317  12.757  17.709   0.938
42777W        W 9318  43.944  18.580   1.906
42778W        W 9319  30.400  22.900   0.751
42779W        W 9320  22.245  10.437   4.922
42780W        W 9321   9.580  38.261  11.521
42781W        W 9322   4.299  28.417  10.299
42782W        W 9323  24.549  16.628   4.128
42783W        W 9324  31.554  39.703  14.844
42784W        W 9325  16.862   3.210   0.783
42785W        W 9326  43.714  44.178  13.473
42786W        W 9327  22.177  34.442  10.540
42787W        W 9328  39.975  10.723  13.432
42788W        W 9329  14.071   1.986  12.801
42789W        W 9330   8.953  16.451  14.421
42790W        W 9331   2.035  43.862  13.029
42791W        W 9332   3.987  11.267   3.229
42792W        W 9333  35.354  29.239  14.047
42793W        W 9334   4.811  20.649  10.674
42794W        W 9335  18.757  16.932  11.397
42795W        W 9336  28.086   5.160  14.215
42796W        W 9337  36.915  36.609   4.611
42797W        W 9338  34.888   6.769  12.187
42798W        W 9339   1.639  22.071   3.571
42799W        W 9340  40.549  40.640  11.330
42800W        W 9341  23.713  12.996  14.067
42801W        W 9342  31.800  14.691   1.737
42802W        W 9343   3.500  24.706   0.375
42803W        W 9344  13.780   3.217  12.029
42804W        W 9345  30.862  17.059   1.376
42805W        W 9346   6.724  33.963  10.780
42806W        W 9347   6.857  22.092   4.250
42807W        W 9348  17.906   7.918  11.218
42808W        W 9349   9.336  41.946   3.064
42809W        W 9350   1.563  41.379   0.817
42810W        W 9351  29.516  12.091   4.818
42811W        W 9352  32.206  42.857   4.564
42812W        W 9353  22.811  22.965  12.812
42813W        W 9354  22.790  19.622   0.503
42814W        W 9355  25.224   7.878  14.869
42815W        W 9356  37.317  30.428   3.678
42816W        W 9357   6.676  40.365  11.608
42817W        W 9358  28.112  15.092  14.226
42818W        W 9359  43.355  20.197  11.952
42819W        W 9360  19.947   0.026   4.517
42820W        W 9361  20.175  38.404  13.745
42821W        W 9362   8.222   5.944   3.191
42822W        W 9363  30.930  20.613  12.910
42823W        W 9364   5.654  42.893   2.641
42824W        W 9365  31.563  44.408   4.805
42825W        W 9366  10.345  42.434   4.575
42826W        W 9367  17.310  16.281   2.154
42827W        W 9368  35.905  25.774   5.131
42828W        W 9369  15.718  16.177  10.214
42829W        W 9370   8.379   5.206   0.809
42830W        W 9371  14.041  38.790   0.645
42831W        W 9372  17.826  17.990  12.867
42832W        W 9373   5.461   3.161  13.073
42833W        W 9374  12.554  24.751  10.544
42834W        W 9375   5.348  11.844   4.044
42835W        W 9376  18.111   9.802  11.141
42836W        W 9377  44.273  29.813  13.541
42837W        W 9378   9.935  41.407   3.428
42838W        W 9379  31.144  31.350  11.802
42839W        W 9380  42.806   2.499   0.867
42840W        W 9381  38.937  29.335  10.754
42841W        W 9382  35.136  25.613   2.662
42842W        W 9383  11.880  28.775  12.795
42843W        W 9384  34.026   7.619   4.352
42844W        W 9385  13.750  34.723   0.238
42845W        W 9386  12.291  18.360   0.895
42846W        W 9387  20.597  31.085  12.518
42847W        W 9388   6.258   3.077   1.723
42848W        W 9389  26.004   5.993  13.511
42849W        W 9390  22.469   1.131   1.858
42850W        W 9391  40.726  22.055   4.182
42851W        W 9392  36.874  40.944   2.671
42852W        W 9393  34.427  23.653  11.145
42853W        W 9394  42.768   4.391   1.202
42854W        W 9395  27.097  35.288  14.796
42855W        W 9396  14.765  14.220   2.433
42856W        W 9397  33.018   8.742  11.387
42857W        W 9398  15.621   8.272  10.616
42858W        W 9399  11.734  33.325  11.057
42859W        W 9400  43.241  13.408   1.364
42860W        W 9401   5.797   9.120   2.491
42861W        W 9402   6.572  13.306   4.932
42862W        W 9403  44.332  17.909  13.317
42863W        W 9404  28.029  26.065  14.971
42864W        W 9405  13.085  29.560   1.233
42865W        W 9406  12.190  43.259  13.732
42866W        W 9407  29.146  39.583  10.677
42867W        W 9408  24.421   2.555  11.910
42868W        W 9409  12.622  41.984   1.316
42869W        W 9410   7.337   8.863   2.240
42870W        W 9411  24.011  21.620  13.444
42871W        W 9412  35.082  44.906  10.953
42872W        W 9413  35.396  17.086   3.572
42873W        W 9414   6.121  15.121   3.146
42874W        W 9415  37.792   2.242   3.199
42875W        W 9416  37.477  21.780   4.265
42876W        W 9417   9.360   3.986   0.772
42877W        W 9418   5.768  35.791   4.430
42878W        W 9419  43.195  20.516  13.840
42879W        W 9420  11.148  22.026   4.536
42880W        W 9421  44.473   0.389   1.314
42881W        W 9422  14.601  27.551   2.727
42882W        W 9423  31.341  21.984   0.103
42883W        W 9424  35.675  44.781  13.038
42884W        W 9425  39.036  35.454  14.036
42885W        W 9426  42.753  13.878   4.249
42886W        W 9427   9.588  43.600   3.644
42887W        W 9428  41.336  28.760  13.477
42888W        W 9429  42.623  34.048  12.563
42889W        W 9430  34.081  31.264   2.422
42890W        W 9431  44.995  12.091  11.506
42891W        W 9432  15.010  29.136   3.302
42892W        W 9433  40.728  33.671   2.889
42893W        W 9434   4.435  44.056   2.829
42894W        W 9435  11.645   4.821   1.238
42895W        W 9436  25.760  28.380  10.374
42896W        W 9437  34.089  28.941  13.629
42897W        W 9438  16.214  21.273   0.018
42898W        W 9439   1.954  35.810   1.012
42899W        W 9440   4.993   2.256   3.552
42900W        W 9441  14.975  10.137   3.296
42901W        W 9442  27.750  39.433  10.543
42902W        W 9443  30.440  42.438  10.699
42903W        W 9444  23.036  12.707  10.548
42904W        W 9445  44.809   2.880  11.339
42905W        W 9446   4.862  41.531  10.034
42906W        W 9447   8.980  11.752  12.530
42907W        W 9448   3.445  31.163  10.331
42908W        W 9449  37.398  31.044   4.106
42909W        W 9450  42.285  29.385   0.290
42910W        W 9451  19.521   0.010   3.990
42911W        W 9452  21.043  21.332   4.093
42912W        W 9453  28.912   4.960   0.481
42913W        W 9454  20.215  31.939  11.909
42914W        W 9455  13.300  19.722  13.030
42915W        W 9456   8.211  14.594   2.880
42916W        W 9457   7.788  43.384  13.327
42917W        W 9458  26.795  39.063  11.951
42918W        W 9459  26.276   5.571  11.031
42919W        W 9460  32.012  11.904   4.883
42920W        W 9461  20.599  43.700  13.430
42921W        W 9462   6.278   8.207   0.800
42922W        W 9463  41.509  10.349  13.841
42923W        W 9464  18.704  16.256   2.606
42924W        W 9465  29.559  33.764  10.357
42925W        W 9466  13.807  15.174   3.860
42926W        W 9467  38.939  31.477  11.232
42927W        W 9468   4.028  10.847  11.035
42928W        W 9469  28.594  20.535   4.153
42929W        W 9470   1.278  32.998  13.202
42930W        W 9471   7.848   8.809   2.371
42931W        W 9472  23.663  25.237  11.475
42932W        W 9473  12.043  15.476   1.308
42933W        W 9474  24.546  24.680  12.812
42934W        W 9475  33.369  16.793  12.944
42935W        W 9476  24.710  34.992  12.168
42936W        W 9477  27.742  35.640   4.256
42937W        W 9478  41.101  13.231  13.324
42938W        W 9479   2.421  32.501  13.020
42939W        W 9480  18.031  33.858  14.866
42940W        W 9481   6.820  11.738   1.322
42941W        W 9482  30.140  38.448   2.308
42942W        W 9483  14.357  39.031  11.889
42943W        W 9484   9.336   5.057   0.335
42944W        W 9485  11.946  32.939   2.742
42945W        W 9486  18.749   3.003  10.486
42946W        W 9487  23.982  10.208   4.535
42947W        W 9488  13.846  23.427   0.210
42948W        W 9489  42.839  11.110   2.712
42949W        W 9490  36.357   2.895  14.146
42950W        W 9491  14.691  16.407   1.924
42951W        W 9492  16.785  33.131   0.237
42952W        W 9493  22.917  26.899  14.813
42953W        W 9494  32.849  17.234   1.179
42954W        W 9495  31.545  23.833   3.301
42955W        W 9496  38.456  28.862  13.369
42956W        W 9497  10.927  33.640   4.662
42957W        W 9498  19.429  22.007   1.537
42958W        W 9499  17.043  35.323   0.868
42959W        W 9500  33.541  16.147  11.358
42960W        W 9501   1.349   6.133   0.791
42961W        W 9502  40.044  22.103  11.612
42962W        W 9503  20.670  16.119  11.204
42963W        W 9504   2.756  41.975   1.107
42964W        W 9505  34.942  19.542  14.866
42965W        W 9506  39.961  11.026  11.112
42966W        W 9507  10.680  40.057   3.129
42967W        W 9508  12.160   4.340  12.685
42968W        W 9509  28.911  42.003   2.465
42969W        W 9510  10.670  44.003   0.797
42970W        W 9511   8.816  16.265  13.843
42971W        W 9512  44.074  37.497   4.878
42972W        W 9513  28.939   7.296  12.341
42973W        W 9514   2.902  43.755   0.290
42974W        W 9515   2.499  26.403  12.009
42975W        W 9516   3.305   6.199  12.985
42976W        W 9517  33.702  25.557   0.721
42977W        W 9518  42.000   5.739   4.218
42978W        W 9519  39.819  20.562  14.939
42979W        W 9520  40.910  16.249   5.117
42980W        W 9521  14.577  27.596   0.361
42981W        W 9522  23.718  22.966   0.411
42982W        W 9523   7.258  28.980   3.771
42983W        W 9524  44.247  16.842  12.483
42984W        W 9525  17.200   4.875  10.523
42985W        W 9526  11.356  39.709  12.584
42986W        W 9527   3.137   1.446   1.351
42987W        W 9528  13.566   6.200  14.618
42988W        W 9529  40.839  32.302  11.574
42989W        W 9530   7.827  39.816   2.656
42990W        W 9531  22.608  32.505  13.940
42991W        W 9532  15.508  35.532  10.675
42992W        W 9533  22.185  36.041  13.027
42993W        W 9534   1.463  25.445  14.833
42994W        W 9535  40.821  38.851  13.010
42995W        W 9536  20.109  27.519  14.823
42996W        W 9537  21.715   2.924  11.989
42997W        W 9538  34.481  37.311   4.501
42998W        W 9539   5.397  20.903  12.932
42999W        W 9540  35.392  26.583  13.462
43000W        W 9541  27.231  23.241   1.718
43001W        W 9542  43.415  36.520  11.987
43002W        W 9543  13.190  28.145  10.695
43003W        W 9544  31.814  23.301  10.938
43004W        W 9545   9.771  38.880   3.592
43005W        W 9546   7.228   7.664  10.637
43006W        W 9547  17.611  23.094   0.032
43007W        W 9548  11.722  36.985  14.528
43008W        W 9549  31.662  16.211   3.211
43009W        W 9550  26.920  23.179  10.571
43010W        W 9551  25.011  39.520   0.289
43011W        W 9552  23.929  27.057   0.857
43012W        W 9553   5.822   3.340   4.562
43013W        W 9554  16.626  29.154  12.431
43014W        W 9555  19.129  43.167  11.644
43015W        W 9556  11.682   0.964  13.908
43016W        W 9557   6.594   7.701  12.435
43017W        W 9558   5.120  16.764   0.131
43018W        W 9559  15.063   1.812   2.182
43019W        W 9560  10.368  37.363  14.120
43020W        W 9561  16.400  12.526  11.943
43021W        W 9562  42.227  20.094  14.417
43022W        W 9563  38.883   2.304  14.863
43023W        W 9564  17.635  36.941  13.113
43024W        W 9565  28.009   1.881  14.993
43025W        W 9566  18.224  32.021  10.385
43026W        W 9567  11.847  30.478  13.911
43027W        W 9568   1.905  12.604   5.034
43028W        W 9569   1.879  19.220  11.120
43029W        W 9570  16.947  37.617   2.884
43030W        W 9571  34.269   9.119  13.445
43031W        W 9572   3.793   2.582   2.863
43032W        W 9573  41.067   3.048   0.459
43033W        W 9574  14.503  17.515  13.990
43034W        W 9575   6.257  27.935  14.266
43035W        W 9576  17.301  44.760   0.319
43036W        W 9577   4.201  18.787   2.811
43037W        W 9578   7.363  37.448  11.562
43038W        W 9579  29.829  26.026   2.598
43039W        W 9580   4.591  19.529  13.404
43040W        W 9581  24.155  31.548  14.474
43041W        W 9582   9.716  39.119  12.563
43042W        W 9583  21.527  11.936  14.305
43043W        W 9584  25.516  25.633   2.601
43044W        W 9585   8.991  29.176   1.363
43045W        W 9586  39.891  44.800   4.719
43046W        W 9587  14.922  39.801   1.866
43047W        W 9588  43.508  37.153   2.058
43048W        W 9589  15.625  16.942  13.673
43049W        W 9590  33.749   4.270   0.285
43050W        W 9591   5.442  16.137   1.886
43051W        W 9592  21.256   2.526  13.368
43052W        W 9593  36.122  15.412  11.112
43053W        W 9594   1.022   0.026   1.345
43054W        W 9595  30.549   8.353   0.788
43055W        W 9596  26.520  43.903  12.481
43056W        W 9597  17.023   9.478   4.250
43057W        W 9598  31.622   3.510  11.622
43058W        W 9599  43.273  16.335   3.417
43059W        W 9600  28.679  17.724   0.778
43060W        W 9601   7.156  18.693  11.232
43061W        W 9602  39.565  31.695  13.908
43062W        W 9603  35.259  41.831   4.032
43063W        W 9604  31.727   0.309  12.299
43064W        W 9605  42.233  34.036   2.011
43065W        W 9606  44.689  34.101   3.694
43066W        W 9607  20.107  32.731  12.976
43067W        W 9608   3.435  40.811   1.148
43068W        W 9609  10.656  37.968   0.146
43069W        W 9610  32.984  26.223  12.150
43070W        W 9611  18.501  31.153   2.606
43071W        W 9612  38.540  17.461  11.900
43072W        W 9613  23.458  41.004   0.474
43073W        W 9614  26.145   4.228   2.214
43074W        W 9615   4.428  20.406  14.834
43075W        W 9616   7.455  24.653   1.677
43076W        W 9617   2.186  26.176  13.326
43077W        W 9618  13.830  13.804   3.888
43078W        W 9619  41.255   9.826   0.839
43079W        W 9620   4.948  29.807   2.541
43080W        W 9621   2.839  28.104  13.604
43081W        W 9622  16.342  15.298   0.313
43082W        W 9623  44.224   1.268   1.772
43083W        W 9624  19.648  25.583  10.934
43084W        W 9625  19.662  18.175   2.141
43085W        W 9626  34.542  11.892   4.394
43086W        W 9627  26.017  39.292  12.984
43087W        W 9628  34.077  39.529   4.252
43088W        W 9629  43.817   4.368  14.070
43089W        W 9630  44.336  20.133  12.352
43090W        W 9631  10.516  24.132   0.572
43091W        W 9632  22.679  25.998  14.073
43092W        W 9633   4.054  33.081  13.800
43093W        W 9634  22.584  40.487  14.356
43094W        W 9635  26.754  44.152   4.035
43095W        W 9636  32.467  25.709  13.244
43096W        W 9637   5.497  26.578  12.645
43097W        W 9638  26.218  11.965   4.221
43098W        W 9639  13.024  44.777  12.481
43099W        W 9640  26.965  24.070   2.974
43100W        W 9641  31.618  43.216  14.854
43101W        W 9642  24.311  13.215   2.892
43102W        W 9643  20.575  10.767  11.010
43103W        W 9644  12.293  19.056  11.971
43104W        W 9645  30.953  23.703   2.626
43105W        W 9646  19.750   4.344  10.911
43106W        W 9647  44.245  38.501  11.991
43107W        W 9648   9.726   2.773   1.929
43108W        W 9649   9.623  28.859  11.075
43109W        W 9650  15.853  37.107   2.461
43110W        W 9651  34.786  18.021   2.976
43111W        W 9652  21.838  30.893   1.236
43112W        W 9653  24.155  23.011  11.759
43113W        W 9654   7.924  39.056   4.173
43114W        W 9655  30.848  32.976  12.984
43115W        W 9656  17.813  18.204   2.726
43116W        W 9657  10.704  10.758   0.491
43117W        W 9658  43.770   4.335   1.285
43118W        W 9659  26.544   0.775   2.318
43119W        W 9660  16.736  28.079   3.673
43120W        W 9661  34.637  20.632  10.491
43121W        W 9662  30.460  29.697   1.877
43122W        W 9663   7.092   1.462   3.270
43123W        W 9664  38.048  11.777   0.901
43124W        W 9665   5.181  27.852  13.983
43125W        W 9666  34.004  19.861  14.859
43126W        W 9667  30.880  20.632   3.177
43127W        W 9668  23.126  14.135   1.376
43128W        W 9669  19.372  32.345   3.237
43129W        W 9670  19.714  15.667   3.734
43130W        W 9671  11.816  43.518   0.715
43131W        W 9672   4.437  11.576  13.092
43132W        W 9673  21.833  15.806   3.587
43133W        W 9674  43.438  20.748  13.440
43134W        W 9675  19.260  23.539  12.621
43135W        W 9676  27.648  25.175   1.246
43136W        W 9677   2.477   0.340   1.821
43137W        W 9678  24.458  30.064  12.335
43138W        W 9679  35.822  13.489   2.134
43139W        W 9680   4.803  17.023  11.165
43140W        W 9681   0.577  37.474   4.629
43141W        W 9682  44.352  39.026   4.272
43142W        W 9683  40.526  21.519   3.747
43143W        W 9684  42.555  40.462  11.863
43144W        W 9685  11.683  42.233   3.137
43145W        W 9686  18.274  19.350   3.344
43146W        W 9687  11.250  18.800   2.933
43147W        W 9688  35.886  14.277  11.121
43148W        W 9689  25.610  34.226  13.336
43149W        W 9690  28.403  32.427  13.036
43150W        W 9691  43.787  11.800   1.917
43151W        W 9692  29.961  27.781   0.968
43152W        W 9693   5.285  26.880  13.843
43153W        W 9694  16.101  33.396  13.050
43154W        W 9695  34.107  44.977  10.710
43155W        W 9696  39.577  22.214   0.694
43156W        W 9697  22.821  37.637  13.449
43157W        W 9698   4.436   0.426   0.217
43158W        W 9699  13.289   7.705  13.875
43159W        W 9700  43.882  16.663   4.231
43160W        W 9701   1.306  10.127   1.967
43161W        W 9702  44.405  30.180   2.734
43162W        W 9703  31.566  20.266   0.880
43163W        W 9704  35.787  42.836   3.907
43164W        W 9705  25.299  32.738  11.128
43165W        W 9706  33.757  11.016   0.754
43166W        W 9707   7.414  44.439   4.567
43167W        W 9708   3.062  21.218  13.340
43168W        W 9709  42.483  30.648   0.760
43169W        W 9710  30.945   6.692  12.151
43170W        W 9711  27.528  32.561  11.992
43171W        W 9712   3.063  24.142   3.530
43172W        W 9713  19.287  22.494   4.928
43173W        W 9714  22.907  11.850   4.067
43174W        W 9715  15.230  38.378  11.041
43175W        W 9716  13.150  44.981  12.956
43176W        W 9717  15.364  32.479  14.351
43177W        W 9718   4.512  40.521  11.081
43178W        W 9719  16.568  31.254   1.007
43179W        W 9720  30.976   4.272   3.434
43180W        W 9721  14.755  41.066   3.236
43181W        W 9722  16.292  25.516  11.058
43182W        W 9723  27.224  26.758   0.899
43183W        W 9724  37.764   4.990   1.819
43184W        W 9725  38.101  26.655  10.927
43185W        W 9726   0.446  30.869   0.959
43186W        W 9727  28.030  33.864   3.167
43187W        W 9728   6.244  18.828  13.560
43188W        W 9729  34.290  19.704   4.563
43189W        W 9730  25.738   0.930   3.002
43190W        W 9731  20.283  27.267  12.952
43191W        W 9732  16.119  29.656  14.409
43192W        W 9733  30.374  42.557   4.276
43193W        W 9734  27.407   3.205  13.069
43194W        W 9735   2.286  10.793  12.583
43195W        W 9736  13.072  17.722   1.912
43196W        W 9737  25.630  19.567  10.703
43197W        W 9738   5.696  39.921   0.430
43198W        W 9739  17.489  14.121  11.315
43199W        W 9740  17.172   5.328   2.449
43200W        W 9741   5.927  34.043   1.557
43201W        W 9742  13.115   2.690   1.726
43202W        W 9743   9.131   8.002  13.906
43203W        W 9744   4.337   2.064  13.852
43204W        W 9745   8.318  17.855  14.974
43205W        W 9746   8.716  20.137  13.913
43206W        W 9747  11.624  43.351   0.257
43207W        W 9748  44.933   9.596   4.015
43208W        W 9749  14.107  23.475   1.960
43209W        W 9750  24.921  27.942  13.441
43210W        W 9751  20.139  28.169   2.412
43211W        W 9752   8.397  15.866   0.544
43212W        W 9753  43.936  12.065  14.374
43213W        W 9754  16.261   7.155  12.043
43214W        W 9755  30.519   9.236  10.703
43215W        W 9756  40.775  12.194   4.776
43216W        W 9757  41.978  44.020   5.004
43217W        W 9758  42.544   9.417  11.604
43218W        W 9759  14.761   2.033   1.056
43219W        W 9760  38.914  35.928  13.863
43220W        W 9761  16.213  17.710   4.439
43221W        W 9762  31.986  32.495   4.129
43222W        W 9763  30.968  36.178  12.564
43223W        W 9764   4.116  31.037   2.230
43224W        W 9765  19.068  37.707  12.011
43225W        W 9766  13.929  31.075   1.740
43226W        W 9767  35.208  15.086   1.865
43227W        W 9768  40.900  35.511  12.187
43228W        W 9769  28.921  34.827  12.464
43229W        W 9770  18.302  12.428  11.070
43230W        W 9771   3.830  36.669   0.176
43231W        W 9772   9.441   8.585   2.197
43232W        W 9773   9.024  36.385   1.225
43233W        W 9774  14.891  28.479   4.084
43234W        W 9775   9.794  10.352  12.589
43235W        W 9776  33.102   9.919   0.394
43236W        W 9777  36.335  39.808  14.831
43237W        W 9778  17.213   3.401   4.544
43238W        W 9779   1.125  11.134  10.974
43239W        W 9780  27.114   6.270   1.410
43240W        W 9781  16.046  19.555   3.720
43241W        W 9782  38.851  10.446   0.268
43242W        W 9783  38.603  15.667  14.292
43243W        W 9784   3.464  13.724  13.940
43244W        W 9785   6.952  36.297  12.966
43245W        W 9786  30.503  42.532  12.170
43246W        W 9787  27.873  15.479   1.418
43247W        W 9788  17.117  30.209   4.168
43248W        W 9789  39.785   8.893  13.885
43249W        W 9790   0.887  44.523   1.427
43250W        W 9791  38.577  16.214   0.519
43251W        W 9792  40.893  31.361   1.371
43252W        W 9793  24.495   9.362   3.211
43253W        W 9794  18.296  29.039   1.328
43254W        W 9795   1.465  32.984  10.007
43255W        W 9796  22.782  41.542  10.107
43256W        W 9797  32.128  36.822   1.140
43257W        W 9798  14.909  35.332   5.050
43258W        W 9799  10.366   3.377  11.769
43259W        W 9800  39.560   0.775  10.340
43260W        W 9801  44.532  35.414   0.264
43261W        W 9802   9.452  29.011  12.414
43262W        W 9803  42.533  28.650  11.585
43263W        W 9804  40.921   7.352   3.175
43264W        W 9805  16.191  39.420  10.666
43265W        W 9806  37.031   8.296   3.528
43266W        W 9807  25.703  24.752  11.160
43267W        W 9808   5.344  37.355  10.210
43268W        W 9809  42.294   2.840   0.915
43269W        W 9810  34.522  42.224   0.926
43270W        W 9811  13.296  21.764   4.471
43271W        W 9812  19.008  38.912  10.503
43272W        W 9813   8.943  20.557   3.869
43273W        W 9814  32.249  24.165   2.756
43274W        W 9815   7.476  44.652  10.567
43275W        W 9816  43.855  40.118  14.516
43276W        W 9817  30.436  12.383   3.124
43277W        W 9818  14.599  27.732  12.434
43278W        W 9819  10.751  41.306  14.210
43279W        W 9820   8.899  43.458   0.425
43280W        W 9821  37.992  14.795   0.319
43281W        W 9822   9.175   5.551   3.151
43282W        W 9823  20.525  24.204  13.380
43283W        W 9824  36.283  24.287  13.425
43284W        W 9825   4.363   0.974   1.816
43285W        W 9826  34.857  33.009   4.334
43286W        W 9827  33.874   5.420  14.497
43287W        W 9828  21.343   0.365   5.113
43288W        W 9829   4.000  29.492  10.571
43289W        W 9830   2.200  11.676   2.080
43290W        W 9831  17.585   5.222  13.925
43291W        W 9832  23.228   4.183  14.844
43292W        W 9833  40.389  41.027   1.527
43293W        W 9834  35.508  23.481  12.906
43294W        W 9835  38.962  30.879  10.739
43295W        W 9836  23.041  35.818  14.517
43296W        W 9837  11.255  29.652   2.728
43297W        W 9838  40.957  19.315   3.330
43298W        W 9839  22.506  12.754   4.511
43299W        W 9840  43.038  33.810  13.836
43300W        W 9841  23.290  22.045  13.018
43301W        W 9842  35.928   0.270   4.089
43302W        W 9843  33.909  25.992   1.972
43303W        W 9844  11.705  35.002   2.301
43304W        W 9845  12.099   7.410  13.947
43305W        W 9846  15.144  13.057   3.011
43306W        W 9847  36.844  11.867  13.926
43307W        W 9848  30.062  34.543   1.152
43308W        W 9849  23.654  32.829   4.234
43309W        W 9850  36.964   2.625   1.302
43310W        W 9851  21.615  44.502  14.928
43311W        W 9852  19.584  30.648  14.371
43312W        W 9853  38.535  23.343  10.329
43313W        W 9854   1.309  34.955   4.168
43314W        W 9855  32.921  26.402   2.926
43315W        W 9856  10.322  29.145   9.924
43316W        W 9857  29.446  13.572   1.180
43317W        W 9858  12.702  33.901  12.579
43318W        W 9859   5.207  21.797   1.854
43319W        W 9860  42.100   8.219  14.855
43320W        W 9861  18.218   5.921  12.856
43321W        W 9862  15.719  37.592   2.454
43322W        W 9863  33.917  35.118   1.088
43323W        W 9864  24.516   2.910  11.550
43324W        W 9865  34.484  31.813   9.854
43325W        W 9866  14.036  44.744   0.747
43326W        W 9867  31.064  43.833   1.208
43327W        W 9868  13.286  38.325  11.949
43328W        W 9869   8.746  10.277   4.170
43329W        W 9870  36.123  29.420   0.768
43330W        W 9871  14.692  11.943  11.533
43331W        W 9872  24.246  38.186  11.962
43332W        W 9873  10.170  30.990   5.162
43333W        W 9874  16.653  10.354   4.399
43334W        W 9875  20.330  27.302  14.264
43335W        W 9876  35.569  14.019  12.904
43336W        W 9877   9.826  25.305   0.796
43337W        W 9878  15.671  32.051  12.000
43338W        W 9879   5.076  10.204   5.042
43339W        W 9880   2.515  34.332   1.928
43340W        W 9881   6.753   6.338   2.542
43341W        W 9882   6.238  26.512  11.572
43342W        W 9883  31.024   7.189   2.898
43343W        W 9884  32.377   5.226  13.959
43344W        W 9885  14.373  44.824   0.321
43345W        W 9886  44.325  12.656  14.036
43346W        W 9887  40.733  41.120   1.898
43347W        W 9888  43.974  23.650   2.772
43348W        W 9889  23.233  26.999   4.160
43349W        W 9890  10.168  23.915   4.023
43350W        W 9891  31.893   9.244   0.954
43351W        W 9892  38.505  16.092   2.848
43352W        W 9893  25.248  29.283   3.661
43353W        W 9894  21.116  17.287   3.235
43354W        W 9895  30.668  11.798   4.944
43355W        W 9896   1.892  12.601   3.906
43356W        W 9897   5.757  24.818   0.333
43357W        W 9898  12.574  18.991   3.183
43358W        W 9899   5.976  27.676   3.678
43359W        W 9900   6.985  17.239   3.559
43360W        W 9901   5.968  26.773   0.271
43361W        W 9902  40.123  11.390   4.980
43362W        W 9903  20.250   0.763   4.201
43363W        W 9904   4.658  42.178  14.039
43364W        W 9905   9.282  30.176  11.381
43365W        W 9906  38.547  22.254  14.967
43366W        W 9907  20.798  40.928   1.174
43367W        W 9908  16.643  37.657   2.483
43368W        W 9909   4.262  38.894   4.023
43369W        W 9910  18.191  27.644   0.208
43370W        W 9911  33.730   7.641  14.805
43371W        W 9912  44.112  27.432   1.177
43372W        W 9913  12.887   2.716   2.422
43373W        W 9914  35.140  16.399  14.497
43374W        W 9915   5.900  16.972   1.137
43375W        W 9916  22.294  44.333   1.207
43376W        W 9917  44.510  35.045   2.362
43377W        W 9918   3.304  33.913   0.279
43378W        W 9919  27.118   4.063  12.889
43379W        W 9920  23.688  29.847   3.617
43380W        W 9921  16.292  15.533  14.802
43381W        W 9922  19.272   3.947   3.182
43382W        W 9923   5.328  38.550  13.895
43383W        W 9924  43.329  15.428   4.573
43384W        W 9925  35.576   9.234   4.501
43385W        W 9926   1.380  28.069   2.168
43386W        W 9927  32.364  15.589  14.944
43387W        W 9928  41.131   9.691   0.337
43388W        W 9929  30.516  40.631  13.076
43389W        W 9930   7.853  27.417   1.874
43390W        W 9931  39.348  21.197   0.365
43391W        W 9932  12.694  40.988  11.468
43392W        W 9933  42.390  40.805   3.322
43393W        W 9934  27.890  44.324   0.053
43394W        W 9935  39.778  17.034  12.581
43395W        W 9936  19.627  28.854  13.920
43396W        W 9937  12.218  41.897  12.151
43397W        W 9938  42.546  20.754  10.636
43398W        W 9939   2.340  40.262   1.098
43399W        W 9940  12.187  28.675   2.699
43400W        W 9941  40.140   4.396  12.169
43401W        W 9942  27.031   6.896  13.552
43402W        W 9943   1.505   7.875  12.088
43403W        W 9944  16.200  24.547  11.827
43404W        W 9945   4.198  32.054  11.915
43405W        W 9946  19.579  29.902   4.903
43406W        W 9947  24.437  36.518   1.754
43407W        W 9948  41.055  10.913   4.036
43408W        W 9949   8.061  13.361   1.530
43409W        W 9950  10.364  21.288  13.105
43410W        W 9951  31.885  41.414   0.623
43411W        W 9952  25.021  19.504   3.916
43412W        W 9953  37.714  44.215  13.398
43413W        W 9954  17.579  41.248   1.763
43414W        W 9955  34.308   0.209   1.028
43415W        W 9956  43.636  29.829   1.456
43416W        W 9957  40.570  38.369  13.369
43417W        W 9958  14.698  19.518  13.047
43418W        W 9959   9.802  19.225  14.068
43419W        W 9960  39.299  15.272  14.260
43420W        W 9961  34.066  17.751  12.436
43421W        W 9962  18.212  22.546   1.545
43422W        W 9963  29.687  37.077   2.674
43423W        W 9964  21.774  42.132  12.059
43424W        W 9965   1.372   6.928   0.366
43425W        W 9966  28.441  42.923   1.729
43426W        W 9967  14.201  12.990   3.344
43427W        W 9968  31.988  38.390  10.728
43428W        W 9969  41.677  44.625   3.371
43429W        W 9970  24.845  37.706  12.571
43430W        W 9971  29.153  30.969   2.387
43431W        W 9972  27.527  20.056  11.213
43432W        W 9973   1.329  14.660  11.740
43433W        W 9974   0.365  19.561  14.720
43434W        W 9975   7.499   1.200   4.539
43435W        W 9976  21.814  41.549   3.209
43436W        W 9977   5.287  12.487   4.646
43437W        W 9978  40.286   1.242   0.309
43438W        W 9979  12.925  38.042   2.272
43439W        W 9980  43.462  22.246  13.094
43440W        W 9981   3.021  14.743  13.552
43441W        W 9982  38.515  15.558  12.068
43442W        W 9983  19.778  24.782  12.995
43443W        W 9984  37.055  35.354   4.211
43444W        W 9985  33.207  21.166   3.729
43445W        W 9986  30.772   7.137   3.899
43446W        W 9987   7.708  42.978  12.924
43447W        W 9988  30.909  26.212  13.502
43448W        W 9989  24.061  39.525   4.204
43449W        W 9990  14.231  18.738  12.808
43450W        W 9991   2.986  20.148   2.397
43451W        W 9992  36.980   9.145  14.003
43452W        W 9993   9.252   3.875  13.059
43453W        W 9994  23.999  16.622  14.908
43454W        W 9995  43.826  15.291   2.764
43455W        W 9996  28.083   7.970  13.886
43456W        W 9997   4.458  30.505   4.954
43457W        W 9998  12.201  18.801   1.135
43458W        W 9999  39.710  39.477  11.432
43459W        W10000  21.309  29.471   3.194
43460W        W10001  37.235   9.028  12.519
43461W        W10002  21.861  17.197  13.790
43462W        W10003  12.386  18.230  12.499
43463W        W10004  18.769   5.387  12.969
43464W        W10005  10.884  28.501  14.288
43465W        W10006  38.383  41.268   1.413
43466W        W10007   2.665  32.705  14.599
43467W        W10008  34.853   2.455  14.739
43468W        W10009  41.904  15.966  14.480
43469W        W10010  29.852  36.519   4.180
43470W        W10011  32.635  16.596  12.023
43471W        W10012  21.138  31.832  13.393
43472W        W10013  20.012  29.649   4.156
43473W        W10014  29.178  28.138  10.652
43474W        W10015  19.464   5.470  14.271
43475W        W10016  17.257  23.537   3.340
43476W        W10017  22.988  38.295   3.703
43477W        W10018  15.145  22.523   4.699
43478W        W10019  30.523  22.060   0.294
43479W        W10020   4.863  10.578  14.615
43480W        W10021  18.855   3.953   4.615
43481W        W10022  10.727  43.314  11.187
43482W        W10023  17.309  31.119  13.822
43483W        W10024  28.791  36.779   0.010
43484W        W10025  23.413  44.778   2.860
43485W        W10026  13.876  36.039   3.282
43486W        W10027  33.984   4.930  13.047
43487W        W10028  22.299  12.978  12.956
43488W        W10029  38.589  44.733   2.912
43489W        W10030   5.872   7.196   0.320
43490W        W10031  35.547  26.413  12.057
43491W        W10032  23.331   6.276  13.887
43492W        W10033  30.395  20.855  12.061
43493W        W10034  13.350   9.355  11.106
43494W        W10035   9.562  18.107   0.797
43495W        W10036  39.974  16.093   0.356
43496W        W10037  17.691   4.683   3.619
43497W        W10038   5.680  26.950  11.932
43498W        W10039  30.656   9.264   4.571
43499W        W10040  17.366  42.938   4.529
43500W        W10041  32.362  44.598   4.664
43501W        W10042   4.233   6.702   3.279
43502W        W10043  37.388  13.765  10.528
43503W        W10044  31.673  16.241  13.982
43504W        W10045  33.444  15.409   0.451
43505W        W10046  16.610  40.753  12.401
43506W        W10047  40.831  30.674   3.725
43507W        W10048  21.497  24.242  14.318
43508W        W10049  44.964  41.807   2.200
43509W        W10050   0.998  38.011  14.735
43510W        W10051   1.162  27.775   0.485
43511W        W10052   4.543  21.721  13.743
43512W        W10053   1.136  27.865   4.510
43513W        W10054  29.191  10.317   0.408
43514W        W10055   0.214  11.822   3.153
43515W        W10056  22.919  18.654  14.813
43516W        W10057   9.721  41.458   0.680
43517W        W10058  29.740  29.289   3.253
43518W        W10059  44.860   4.543   2.695
43519W        W10060   1.933  23.180  12.620
43520W        W10061   7.499  13.119   3.280
43521W        W10062  27.633  22.318  11.431
43522W        W10063  18.269  26.559  10.384
43523W        W10064  33.449  16.669   1.481
43524W        W10065  26.095  36.328   0.885
43525W        W10066  42.058  29.557   2.771
43526W        W10067  10.844   2.585  14.432
43527W        W10068  19.542  27.071   1.633
43528W        W10069  37.853   1.560  11.507
43529W        W10070  41.492  44.544  10.375
43530W        W10071   7.418  13.287  12.032
43531W        W10072  31.113  25.034   2.695
43532W        W10073  22.981   4.293   1.904
43533W        W10074  43.916  26.646   3.143
43534W        W10075   2.904  21.171   4.458
43535W        W10076  36.307   5.190   0.892
43536W        W10077  28.732  24.677  13.734
43537W        W10078  30.832  14.668   1.721
43538W        W10079  32.191  42.006  12.077
43539W        W10080  19.572  10.339   0.456
43540W        W10081  14.039  17.258  14.009
43541W        W10082  29.573   7.606  11.205
43542W        W10083  18.403  23.030   1.714
43543W        W10084   6.805  11.488   4.204
43544W        W10085  12.578   9.237   0.052
43545W        W10086  25.716  18.659  10.704
43546W        W10087  14.149   0.282  12.823
43547W        W10088  39.744  22.583   2.447
43548W        W10089   9.374   3.537  13.903
43549W        W10090  38.601   8.576   1.313
43550W        W10091  13.810  43.765  13.863
43551W        W10092  12.975  32.261  10.279
43552W        W10093   2.300  28.996   0.953
43553W        W10094  13.705  26.694   2.408
43554W        W10095  36.496   8.635   0.854
43555W        W10096  33.395  26.191  14.256
43556W        W10097  25.913  20.648   0.922
43557W        W10098  27.653  39.085  10.911
43558W        W10099  34.498   5.609  14.989
43559W        W10100  28.174  33.463   2.871
43560W        W10101  23.562  13.361   2.205
43561W        W10102  20.148  36.801  10.469
43562W        W10103  42.794  32.522   0.867
43563W        W10104  38.348  21.109  14.313
43564W        W10105   5.948  19.063  12.466
43565W        W10106  33.578  35.886  13.396
43566W        W10107  22.519   4.777   0.813
43567W        W10108  40.334   2.794  12.981
43568W        W10109  17.158  32.895  13.735
43569W        W10110   0.389  18.809   2.182
43570W        W10111  28.989  20.629   0.711
43571W        W10112  44.832   9.324   4.643
43572W        W10113  14.273  20.060   2.257
43573W        W10114   1.399   8.495  10.827
43574W        W10115  37.729  21.196   0.356
43575W        W10116  16.620  35.544   1.656
43576W        W10117  11.157  29.330   0.151
43577W        W10118  19.708  44.213   5.347
43578W        W10119  44.208  33.016  11.579
43579W        W10120  31.254  15.236   5.214
43580W        W10121  32.418  29.466  14.832
43581W        W10122   7.332   4.422  11.568
43582W        W10123  13.961  12.438   1.211
43583W        W10124   9.865  24.898  12.519
43584W        W10125  22.676  37.106   2.761
43585W        W10126  14.056  16.503  14.856
43586W        W10127   1.406  31.864  12.820
43587W        W10128   6.478  26.340  11.138
43588W        W10129  15.349  18.527   2.686
43589W        W10130  14.641  34.175  12.970
43590W        W10131   4.905  30.517  12.619
43591W        W10132  34.329   6.049  12.608
43592W        W10133  41.442  13.501   2.109
43593W        W10134  21.105   4.253   3.076
43594W        W10135   4.349  17.726   0.706
43595W        W10136  23.674   9.787  11.642
43596W        W10137  30.840  31.681  12.084
43597W        W10138   0.476  36.889  12.998
43598W        W10139  26.021  38.380  10.590
43599W        W10140  33.012  12.271   1.937
43600W        W10141  10.626  20.086   3.167
43601W        W10142  12.242  31.001   5.098
43602W        W10143  37.723  43.728   0.008
43603W        W10144  33.006  25.919   0.338
43604W        W10145   3.507  37.503   1.381
43605W        W10146  16.011   3.487   1.897
43606W        W10147  42.950   3.045   1.736
43607W        W10148  15.871   1.503   0.391
43608W        W10149  34.548   9.264   0.511
43609W        W10150  13.119   9.509  14.482
43610W        W10151  17.746  39.362  13.494
43611W        W10152   9.749  13.872   3.726
43612W        W10153  15.138   1.031   0.061
43613W        W10154  25.636  24.708  14.839
43614W        W10155  32.363  27.880  10.771
43615W        W10156  32.215  32.370   3.273
43616W        W10157  36.954  23.609  13.474
43617W        W10158   0.667  14.583  12.281
43618W        W10159  40.173  19.299   2.118
43619W        W10160  25.589  41.264  11.193
43620W        W10161  37.380  43.475  12.944
43621W        W10162  14.572   3.716   4.628
43622W        W10163  41.832  27.508  13.464
43623W        W10164   9.829  29.476  14.041
43624W        W10165   6.238  14.264   4.073
43625W        W10166  26.716  34.489   2.005
43626W        W10167  14.608  12.160  12.354
43627W        W10168  39.368  17.290   2.759
43628W        W10169  36.430  36.990  10.685
43629W        W10170   4.670  16.237  11.642
43630W        W10171   7.362  28.522  14.493
43631W        W10172  26.958  43.987  13.842
43632W        W10173  18.588  34.361   1.931
43633W        W10174  19.169  42.839   3.913
43634W        W10175  33.467   9.943   1.860
43635W        W10176  37.377  18.387   2.400
43636W        W10177  18.125   7.813   1.466
43637W        W10178  14.309   0.701   3.227
43638W        W10179  23.994  30.784  13.382
43639W        W10180   8.953   9.250   2.577
43640W        W10181  40.815  38.350  13.838
43641W        W10182  38.807   7.651  12.979
43642W        W10183  44.872  29.448   4.711
43643W        W10184  43.592   7.243  11.496
43644W        W10185   7.223  27.692   4.145
43645W        W10186  36.660  20.614  10.713
43646W        W10187  16.682   7.754   3.053
43647W        W10188  14.650  21.135  10.823
43648W        W10189  43.509  11.218  13.306
43649W        W10190  30.726  37.929  10.522
43650W        W10191  33.023  15.437   4.926
43651W        W10192  41.765  14.364  11.208
43652W        W10193  25.073  25.237  14.389
43653W        W10194  23.309   9.486   4.735
43654W        W10195  11.721  41.993  11.073
43655W        W10196  34.609  10.961  13.868
43656W        W10197  36.311  20.566   2.685
43657W        W10198   6.928  27.288   3.318
43658W        W10199  36.400  38.937   4.567
43659W        W10200   1.340  18.351   2.117
43660W        W10201  22.156   9.152   1.694
43661W        W10202  15.340  15.103   1.338
43662W        W10203  35.095   4.995   1.548
43663W        W10204  18.327  21.989  11.470
43664W        W10205  31.072  42.352   0.437
43665W        W10206   4.527  40.665   9.998
43666W        W10207  16.548  37.789  12.087
43667W        W10208  33.378  33.313   3.639
43668W        W10209  38.070   4.184  12.989
43669W        W10210  26.037  13.565  11.986
43670W        W10211  14.747  13.790   3.292
43671W        W10212  14.755   2.656   1.913
43672W        W10213  12.656  10.661   2.480
43673W        W10214  23.140  22.445   1.301
43674W        W10215  17.376  29.072   1.493
43675W        W10216   5.399  24.929  12.989
43676W        W10217  13.693  36.877   2.740
43677W        W10218   6.267  26.484  13.527
43678W        W10219  17.522   2.507  12.200
43679W        W10220  12.595  35.357  12.464
43680W        W10221  44.692  15.854  12.529
43681W        W10222  41.921  40.952  11.954
43682W        W10223  24.979  12.296  11.898
43683W        W10224  17.958  36.605   1.528
43684W        W10225  39.616  26.423   4.541
43685W        W10226  31.720  42.885   3.208
43686W        W10227  30.951  25.542   0.901
43687W        W10228  34.117  43.093   1.693
43688W        W10229  42.501  43.252  12.051
43689W        W10230  43.787  13.782  11.860
43690W        W10231   5.748  23.599   2.654
43691W        W10232  31.147  42.294  13.947
43692W        W10233  33.531   0.424  13.371
43693W        W10234  14.533  37.965   2.674
43694W        W10235  31.445  23.339  12.610
43695W        W10236  23.705  15.807  13.449
43696W        W10237  36.345  21.053  13.444
43697W        W10238  25.020  13.239   0.492
43698W        W10239   7.419  30.869   5.027
43699W        W10240  11.362  37.938  11.004
43700W        W10241  15.209  42.993   3.904
43701W        W10242  21.081  18.365  14.390
43702W        W10243  20.267  23.599   1.763
43703W        W10244  29.500  22.082  12.537
43704W        W10245  35.023  18.363  10.743
43705W        W10246  23.919  10.798  12.931
43706W        W10247  34.978  15.657  10.728
43707W        W10248   7.399  12.421  11.106
43708W        W10249  29.067   6.604  14.928
43709W        W10250  18.141  22.201  14.282
43710W        W10251   6.984  26.166   4.348
43711W        W10252  43.801  14.181   3.607
43712W        W10253  16.837  33.111  10.626
43713W        W10254  41.074  17.716  11.472
43714W        W10255  19.127  29.248  10.660
43715W        W10256  33.011  14.364  13.338
43716W        W10257  42.474   3.920  12.042
43717W        W10258  19.319  43.327  12.927
43718W        W10259  27.665  19.003  12.576
43719W        W10260  19.450  34.364   1.957
43720W        W10261  33.699  19.780  10.668
43721W        W10262  27.652  36.554   4.186
43722W        W10263  41.281  16.294   2.242
43723W        W10264  36.514  40.060  13.923
43724W        W10265   2.907   7.877  14.926
43725W        W10266   3.732  10.438   4.177
43726W        W10267   2.641  35.605   4.204
43727W        W10268  29.915  39.378  11.101
43728W        W10269  10.226  31.604   3.620
43729W        W10270  36.209   1.070   4.321
43730W        W10271   5.971  25.018  12.535
43731W        W10272  22.698  11.359  11.142
43732W        W10273  34.926   4.475  10.691
43733W        W10274  41.279  39.061  14.417
43734W        W10275  23.174  14.443  13.836
43735W        W10276  15.999  37.211   4.964
43736W        W10277  37.353  14.019   2.259
43737W        W10278  44.194  26.567   1.350
43738W        W10279  40.546  27.200   3.383
43739W        W10280  37.295  24.192   2.738
43740W        W10281  33.160   6.855  11.595
43741W        W10282  19.286  30.913   3.606
43742W        W10283   9.228  14.768  12.163
43743W        W10284  41.588  24.255  11.163
43744W        W10285  14.748  35.898  14.106
43745W        W10286  33.505  31.988   2.094
43746W        W10287  22.082  20.249  12.628
43747W        W10288  29.488   2.173  11.146
43748W        W10289  25.048   1.485  10.832
43749W        W10290  35.135   5.298   3.388
43750W        W10291  43.340  12.197  12.530
43751W        W10292  20.212  36.124  12.967
43752W        W10293  12.523  20.776  14.086
43753W        W10294  19.778   1.486  12.532
43754W        W10295  42.979  35.928  14.778
43755W        W10296  41.884   3.744   1.392
43756W        W10297  20.528  10.836   2.183
43757W        W10298  41.524  20.965   4.669
43758W        W10299  27.604   5.216  13.913
43759W        W10300  14.650   2.151   3.612
43760W        W10301  16.251  32.115   3.612
43761W        W10302  42.391  34.870   2.370
43762W        W10303  43.257   1.641  12.526
43763W        W10304  13.745  22.953  11.522
43764W        W10305  30.762  37.305   0.857
43765W        W10306   9.790  14.132  10.885
43766W        W10307  36.568  27.042  13.896
43767W        W10308  15.320  40.887   2.892
43768W        W10309  20.525  11.113   0.189
43769W        W10310  11.518  23.985   3.628
43770W        W10311  18.216  34.851   3.928
43771W        W10312   5.315  29.494  13.408
43772W        W10313   4.214  34.352   1.257
43773W        W10314  27.765  27.517   3.119
43774W        W10315  40.483  34.123   2.669
43775W        W10316  38.560  24.239  12.924
43776W        W10317  37.033   1.030   4.499
43777W        W10318  16.455  39.221  12.625
43778W        W10319  22.252  15.121   1.606
43779W        W10320  23.983   3.238  13.084
43780W        W10321  29.432  10.763   0.616
43781W        W10322   7.886  33.394   2.298
43782W        W10323  14.839  37.591   3.727
43783W        W10324  18.730  34.007   1.531
43784W        W10325  37.898  19.512   0.706
43785W        W10326  25.208   7.979   4.545
43786W        W10327  24.275  25.238   3.565
43787W        W10328  41.313  35.680   1.235
43788W        W10329  15.767  39.346  13.115
43789W        W10330   5.823  34.395  13.796
43790W        W10331  34.636  38.248   1.712
43791W        W10332  24.234  19.029   1.257
43792W        W10333  10.955  25.979   0.268
43793W        W10334  11.632  40.046   2.165
43794W        W10335   4.413  44.032   3.875
43795W        W10336  13.231   9.140   3.149
43796W        W10337  41.559  12.611   3.646
43797W        W10338  26.690   7.088   1.817
43798W        W10339  10.389  33.606  14.225
43799W        W10340  41.804  30.075   1.775
43800W        W10341  30.190  43.838  14.385
43801W        W10342  22.617  32.656   3.355
43802W        W10343  28.891  16.670   3.663
43803W        W10344  14.668  11.903  13.466
43804W        W10345  42.438  41.857   2.342
43805W        W10346  11.108  37.021   0.882
43806W        W10347  34.533   1.806  14.941
43807W        W10348  29.687  42.548  14.339
43808W        W10349  21.186   2.799   3.629
43809W        W10350  16.868  28.471   2.181
43810W        W10351   3.064  29.597   4.667
43811W        W10352  18.880  39.429   0.470
43812W        W10353   5.122  41.946   1.333
43813W        W10354  30.781  29.522  11.406
43814W        W10355  28.026   7.874   0.291
43815W        W10356   1.666  35.122  11.115
43816W        W10357  34.809  15.507  13.395
43817W        W10358  41.052  25.630  13.518
43818W        W10359  44.858  42.334  14.496
43819W        W10360  16.637  15.661  13.566
43820W        W10361  33.069  28.181   0.796
43821W        W10362  19.593  28.006  13.056
43822W        W10363  19.879  44.407  13.371
43823W        W10364  36.340  40.873  12.239
43824W        W10365   6.265   7.007   2.847
43825W        W10366  19.567  13.548   0.912
43826W        W10367  37.503  20.430  13.081
43827W        W10368  43.957   5.880   3.200
43828W        W10369  17.497   0.859  11.136
43829W        W10370  37.664   7.251   4.593
43830W        W10371  11.897  39.898   2.742
43831W        W10372   2.046  39.600  11.032
43832W        W10373   3.790   9.747  13.989
43833W        W10374  22.221  13.989   0.565
43834W        W10375  17.246  15.597  14.773
43835W        W10376   1.236  18.033   2.906
43836W        W10377   1.893  33.586  12.542
43837W        W10378  44.862  32.414  13.905
43838W        W10379  14.937  20.792   0.752
43839W        W10380   5.164  13.185   1.426
43840W        W10381  12.327  21.520  10.741
43841W        W10382  10.713  15.093  12.873
43842W        W10383   9.598   0.204   0.663
43843W        W10384  21.198  11.132  10.737
43844W        W10385  22.676   1.841   1.795
43845W        W10386  42.791  24.784   3.792
43846W        W10387  29.654  28.003   4.339
43847W        W10388  22.477   5.736   2.414
43848W        W10389  11.333  13.759  11.617
43849W        W10390  19.079  10.888  12.895
43850W        W10391  31.283  25.541  12.346
43851W        W10392  24.207   7.765  13.747
43852W        W10393  37.364  23.204   0.379
43853W        W10394  31.591  29.482   3.415
43854W        W10395  14.652  43.703  13.893
43855W        W10396  27.129  33.957   3.347
43856W        W10397  28.186  36.084  11.219
43857W        W10398  24.604  37.098   2.284
43858W        W10399  40.511  14.733   0.365
43859W        W10400  35.122   4.482   1.834
43860W        W10401  26.224  11.337  10.799
43861W        W10402  25.965  10.708   3.386
43862W        W10403  41.893  21.706   4.129
43863W        W10404  23.366  23.248   0.711
43864W        W10405  16.062  34.760   4.922
43865W        W10406  14.596  30.956  14.996
43866W        W10407  22.819  14.805   2.792
43867W        W10408   2.004   5.764   1.826
43868W        W10409  11.883  31.929  10.647
43869W        W10410  43.589  35.359  12.480
43870W        W10411  16.238  14.291  10.095
43871W        W10412  43.316   1.569   4.988
43872W        W10413  36.451  27.024  14.935
43873W        W10414  43.036  37.546  10.937
43874W        W10415   0.912  27.368   4.618
43875W        W10416  44.449   9.116  14.330
43876W        W10417  18.052  37.939  11.953
43877W        W10418   3.873  10.926   1.921
43878W        W10419  28.688  31.204   2.377
43879W        W10420  16.376  28.561   0.070
43880W        W10421  39.327   7.571   4.209
43881W        W10422  38.910  30.402  13.077
43882W        W10423  28.308   3.753  12.208
43883W        W10424  23.095   4.940  14.237
43884W        W10425  36.507  17.314  12.220
43885W        W10426  22.765  43.461  12.995
43886W        W10427  21.084  26.138   4.083
43887W        W10428   5.624  38.417   3.420
43888W        W10429  19.193  12.933  13.772
43889W        W10430  34.557   0.932  13.253
43890W        W10431   3.670  18.533  12.581
43891W        W10432  29.703  34.961   0.447
43892W        W10433  15.313  20.728  12.884
43893W        W10434  16.121  43.786   1.338
43894W        W10435   5.881   1.743   3.056
43895W        W10436  26.109  32.083   1.416
43896W        W10437   4.402   0.168  13.144
43897W        W10438  28.416   4.313   1.284
43898W        W10439   3.670  22.438   2.596
43899W        W10440   3.451  40.048  13.377
43900W        W10441  11.813  31.224   3.208
43901W        W10442  23.610  14.551   4.423
43902W        W10443  40.338  43.489  11.427
43903W        W10444  41.890  36.030  12.883
43904W        W10445   7.147  39.448  12.561
43905W        W10446  17.071  14.936  12.412
43906W        W10447   9.302  10.752   4.704
43907W        W10448   0.394  14.882   1.863
43908W        W10449   7.473  15.345   1.399
43909W        W10450  12.831  29.989   0.419
43910W        W10451   3.549  14.312   1.811
43911W        W10452  40.423   0.794   3.538
43912W        W10453  31.368  17.140  14.407
43913W        W10454  16.705  19.236   4.527
43914W        W10455  35.084   1.977   1.729
43915W        W10456  24.710  30.387  13.100
43916W        W10457  21.034  31.897   1.772
43917W        W10458  17.686  26.927  10.387
43918W        W10459  29.938  34.651   3.198
43919W        W10460   3.716   3.244  13.856
43920W        W10461  19.638   6.990  11.516
43921W        W10462  34.265  41.626  13.708
43922W        W10463  37.901  36.357   0.940
43923W        W10464  15.998  22.184   3.208
43924W        W10465  16.111  22.122   1.370
43925W        W10466  27.440  42.333  11.156
43926W        W10467  18.515  11.031  14.515
43927W        W10468  25.202  29.476  12.272
43928W        W10469  13.723  38.612  11.248
43929W        W10470   7.751  36.455   0.400
43930W        W10471   5.928   9.040   3.913
43931W        W10472   0.064  34.059   0.364
43932W        W10473  17.660  43.267   3.076
43933W        W10474  11.487  14.800   0.199
43934W        W10475   8.178  12.706   1.164
43935W        W10476  16.733   3.257  11.395
43936W        W10477   2.885  39.122  13.135
43937W        W10478   3.234  36.627   2.407
43938W        W10479  16.909  16.655   4.363
43939W        W10480   4.826  26.160   0.155
43940W        W10481  31.998  24.418   4.623
43941W        W10482  18.834   1.558   1.136
43942W        W10483  40.652   2.913   1.793
43943W        W10484  19.878   5.207   5.002
43944W        W10485  30.671   0.974  10.472
43945W        W10486  34.054  33.192  11.135
43946W        W10487   4.397  26.526   0.857
43947W        W10488  16.017  14.575  11.214
43948W        W10489  26.742  16.104  13.105
43949W        W10490  17.716  26.888   3.162
43950W        W10491  25.062  27.060   1.098
43951W        W10492  17.555  25.086  10.889
43952W        W10493  29.456   4.841   2.660
43953W        W10494  24.426  11.109   4.202
43954W        W10495  11.293   4.167   1.407
43955W        W10496  41.683  44.991   0.738
43956W        W10497   1.380  13.295   0.299
43957W        W10498  32.525  18.700  13.172
43958W        W10499  40.429  23.995  12.722
43959W        W10500  26.336  39.242   2.773
43960W        W10501  40.524  20.087  11.592
43961W        W10502   2.500  40.537   0.695
43962W        W10503  25.345  32.408   1.276
43963W        W10504  21.901  12.297  14.435
43964W        W10505  24.518  20.564   4.528
43965W        W10506  39.807   2.297  10.683
43966W        W10507   0.116   3.859   4.381
43967W        W10508  28.376   9.872   2.311
43968W        W10509  11.666   4.238  12.565
43969W        W10510  31.153  23.283   4.759
43970W        W10511  13.380   8.664  11.562
43971W        W10512  20.986  35.151   0.053
43972W        W10513  22.428   9.621   2.119
43973W        W10514  20.107  35.906   1.750
43974W        W10515  22.700   6.698   2.007
43975W        W10516  25.053  32.394  13.568
43976W        W10517   8.475   4.303   1.975
43977W        W10518   6.930   9.885   2.808
43978W        W10519  28.242   5.921  11.068
43979W        W10520  43.908  40.951  13.405
43980W        W10521  38.382  40.400  10.979
43981W        W10522  34.053  35.337  11.895
43982W        W10523   5.156  42.859   1.454
43983W        W10524  37.559  19.237  12.001
43984W        W10525  24.171  28.113   2.699
43985W        W10526  14.686   7.914  12.581
43986W        W10527  14.424   6.450   1.968
43987W        W10528  25.300  28.731  12.414
43988W        W10529  43.786  38.430  10.707
43989W        W10530  36.351  22.255  11.274
43990W        W10531  18.798  22.606  11.172
43991W        W10532   7.788  21.776  13.232
43992W        W10533  35.982  14.287   3.138
43993W        W10534   2.894  24.620   1.373
43994W        W10535   9.212  25.934   0.237
43995W        W10536  28.420  30.945   0.044
43996W        W10537   0.034  16.552   2.161
43997W        W10538   0.520  40.932  14.232
43998W        W10539   7.204  18.478   3.200
43999W        W10540  17.740  42.908   4.885
44000W        W10541  19.554  13.774   3.005
44001W        W10542  18.519  20.050  11.618
44002W        W10543  16.132   2.054   1.941
44003W        W10544  11.965  27.563   1.661
44004W        W10545  15.580  36.526  13.819
44005W        W10546  40.261  44.412   3.362
44006W        W10547   7.299  18.985   3.205
44007W        W10548   2.345   8.384  14.430
44008W        W10549   0.425  26.929  11.060
44009W        W10550  13.555  11.143   0.329
44010W        W10551  19.883  43.278  11.127
44011W        W10552  23.564  28.441   2.001
44012W        W10553  15.125  30.368   2.121
44013W        W10554  40.448  21.322  12.041
44014W        W10555  29.640  32.623   1.809
44015W        W10556   2.524  18.260   1.327
44016W        W10557  11.770  28.416  12.417
44017W        W10558  22.147  29.224   4.492
44018W        W10559  24.567   9.390  11.506
44019W        W10560  33.516  13.427   5.154
44020W        W10561  21.008  44.697  11.596
44021W        W10562  24.452  19.017  11.943
44022W        W10563  11.382  13.877   3.798
44023W        W10564  27.787   4.346  13.391
44024W        W10565  17.815   1.806  12.135
44025W        W10566  12.975   5.017   2.001
44026W        W10567   9.758  18.622   3.800
44027W        W10568  13.042  17.505  14.884
44028W        W10569  22.938  32.309  11.141
44029W        W10570  39.809  43.041   3.773
44030W        W10571  35.984  38.026   1.169
44031W        W10572   2.571  16.494  13.861
44032W        W10573  16.611  28.727  10.721
44033W        W10574  34.561  37.087  12.975
44034W        W10575   1.294  28.809   0.360
44035W        W10576  15.539  20.256   0.348
44036W        W10577  17.094   1.013   0.695
44037W        W10578  41.790  26.287  11.016
44038W        W10579  33.555  38.653  13.101
44039W        W10580  40.957  39.540   0.683
44040W        W10581  14.244  20.733  11.765
44041W        W10582  31.035   3.250   4.646
44042W        W10583   3.730  30.397  14.409
44043W        W10584  22.030  13.431  12.925
44044W        W10585   7.289  12.368  13.526
44045W        W10586  10.143  28.930  10.989
44046W        W10587  43.624  39.138  14.880
44047W        W10588  44.228  41.594   1.849
44048W        W10589   2.909   0.977   1.203
44049W        W10590  17.304   7.846  12.576
44050W        W10591  44.087  10.333   1.791
44051W        W10592  44.934  38.180   4.145
44052W        W10593  24.998   6.182  14.481
44053W        W10594  32.178  32.695   1.882
44054W        W10595  38.322  21.503   3.121
44055W        W10596  42.983   1.901  14.025
44056W        W10597  15.325   3.850   0.012
44057W        W10598  31.753  37.165  12.224
44058W        W10599  29.848   3.047   4.121
44059W        W10600  13.633   1.730   3.617
44060W        W10601  34.012  35.413   3.935
44061W        W10602  26.623  33.569  13.475
44062W        W10603  41.085  38.112   3.154
44063W        W10604   9.288  39.031   3.714
44064W        W10605  12.113   2.704   0.238
44065W        W10606  26.499  17.871   1.320
44066W        W10607   2.524  23.783   0.811
44067W        W10608  18.247   0.449   1.708
44068W        W10609  26.135   1.105   2.265
44069W        W10610  19.754  44.290   3.176
44070W        W10611  15.366  43.740   0.481
44071W        W10612  27.110  28.003   4.043
44072W        W10613  42.976   8.734   2.842
44073W        W10614  18.870  17.774   2.007
44074W        W10615  17.197  11.091   2.949
44075W        W10616  28.705  42.997  12.115
44076W        W10617  35.527  31.711  11.236
44077W        W10618  35.452   8.925   3.313
44078W        W10619   7.559  36.446  11.230
44079W        W10620  33.952  13.575   3.892
44080W        W10621  11.600   2.139  11.073
44081W        W10622  34.143  42.782  12.610
44082W        W10623  12.073  21.126  10.485
44083W        W10624  12.941  13.663   2.300
44084W        W10625  39.672  36.004  12.064
44085W        W10626   2.129  35.000  12.570
44086W        W10627  18.087  21.472   2.261
44087W        W10628  22.272  27.607  12.482
44088W        W10629   6.688  14.419  10.533
44089W        W10630  13.072  26.009   2.936
44090W        W10631  21.988  27.824  13.057
44091W        W10632   7.557  26.287  10.273
44092W        W10633  34.190  39.048  14.471
44093W        W10634  14.071  22.585   1.905
44094W        W10635  38.864  32.079   1.196
44095W        W10636  16.126   8.395   3.398
44096W        W10637  12.688  32.073   1.790
44097W        W10638  41.317  22.549  13.516
44098W        W10639  13.614  31.963  12.649
44099W        W10640  30.352   8.472   4.707
44100W        W10641  30.169  11.318   1.105
44101W        W10642  14.849  38.589  12.852
44102W        W10643  40.105   7.663  11.258
44103W        W10644  38.628   8.289   3.634
44104W        W10645  37.117  38.606  13.215
44105W        W10646   9.603  16.291   1.736
44106W        W10647  29.425  39.920   0.229
44107W        W10648   6.070  17.115   4.553
44108W        W10649   7.479   9.638   1.419
44109W        W10650  41.879  25.394  12.405
44110W        W10651  39.013  14.259  14.866
44111W        W10652   4.487  26.111   2.620
44112W        W10653  35.531   6.326   2.716
44113W        W10654  10.340  19.779  11.088
44114W        W10655   5.331  38.236   2.708
44115W        W10656  22.143  23.697   0.294
44116W        W10657  34.330  42.519  13.520
44117W        W10658   8.025  33.000  14.982
44118W        W10659  40.982   5.327   1.406
44119W        W10660   7.624  18.294  14.146
44120W        W10661   4.356  20.601  13.477
44121W        W10662  38.729  19.005  12.444
44122W        W10663  38.217   9.243  11.457
44123W        W10664  42.029  35.099  14.772
44124W        W10665  41.162  24.552  11.201
44125W        W10666  43.945   1.531  11.995
44126W        W10667  26.850  38.847   1.142
44127W        W10668  39.450  15.138   2.562
44128W        W10669  36.938  19.084   0.715
44129W        W10670  24.305  41.071   1.732
44130W        W10671  27.793  43.304   2.771
44131W        W10672  35.557  28.555   3.366
44132W        W10673   1.953   1.309  10.936
44133W        W10674  37.990   2.326  10.584
44134W        W10675  31.527  24.247  12.597
44135W        W10676  33.974  27.545   2.350
44136W        W10677   0.710   1.050  10.455
44137W        W10678  14.681  20.536   4.663
44138W        W10679  12.266   9.227   4.027
44139W        W10680  36.008  17.166  13.458
44140W        W10681  28.692   4.734   4.197
44141W        W10682  18.750  42.285   0.197
44142W        W10683   2.454   7.888  10.888
44143W        W10684  21.214   1.728   3.751
44144W        W10685  38.321  39.602  11.913
44145W        W10686  31.484  12.322  13.671
44146W        W10687   1.908  36.780   0.050
44147W        W10688  23.612   2.156   3.174
44148W        W10689   9.309   7.629   1.330
44149W        W10690   6.902  16.155   3.877
44150W        W10691   8.614  28.063   5.172
44151W        W10692  43.312  27.539   4.631
44152W        W10693  39.818   7.631   1.439
44153W        W10694  36.083  36.770   1.776
44154W        W10695  22.373  17.467  10.186
44155W        W10696  43.285  23.564  13.153
44156W        W10697  16.067   5.887  11.635
44157W        W10698  20.190  16.376   3.666
44158W        W10699  40.576   9.630  13.426
44159W        W10700   2.200   1.651  14.788
44160W        W10701  24.509   1.487   3.680
44161W        W10702  12.666  12.434   4.739
44162W        W10703  40.971  25.970   4.624
44163W        W10704  40.037  20.860  12.814
44164W        W10705  21.623  35.439  11.536
44165W        W10706  43.817   1.831  11.600
44166W        W10707  44.814  29.434  13.812
44167W        W10708  10.094  37.491   3.267
44168W        W10709  40.256   6.313  12.043
44169W        W10710   8.390  23.568  14.462
44170W        W10711  26.495  44.872  12.939
44171W        W10712  25.454  29.407   1.864
44172W        W10713  21.724   0.401  10.882
44173W        W10714  40.409  23.871  12.227
44174W        W10715   2.597  40.571  13.522
44175W        W10716  25.114  36.945   4.965
44176W        W10717   5.751  32.155   4.836
44177W        W10718  22.631  12.085   0.592
44178W        W10719  12.296  31.624  11.882
44179W        W10720   6.922  25.710   5.032
44180W        W10721  42.528  36.120   1.660
44181W        W10722  32.946  25.033   1.561
44182W        W10723  16.123  27.494  12.422
44183W        W10724  18.206  44.190   0.387
44184W        W10725  37.113   4.437   0.225
44185W        W10726   3.364   6.792   2.423
44186W        W10727  38.354  14.819  13.462
44187W        W10728  26.192  31.454  14.002
44188W        W10729  35.895   9.139   3.153
44189W        W10730  12.642  18.411  14.250
44190W        W10731  42.876  39.077  13.101
44191W        W10732   3.495  23.959  10.993
44192W        W10733  40.865  38.481   2.870
44193W        W10734  29.742  21.183  14.384
44194W        W10735  25.513  39.836  12.121
44195W        W10736   1.434  11.875   2.711
44196W        W10737  27.247  38.146   2.737
44197W        W10738  38.701  16.278   4.363
44198W        W10739  39.025  33.658   3.130
44199W        W10740  25.550  39.139  10.204
44200W        W10741  44.548  16.654   0.724
44201W        W10742   1.764  43.749  12.037
44202W        W10743  16.528  17.126   2.728
44203W        W10744  39.025  37.585  11.699
44204W        W10745   7.169  35.131  12.584
44205W        W10746  13.837  19.450   1.447
44206W        W10747  19.813  30.655   2.105
44207W        W10748   1.124  41.058   1.701
44208W        W10749  30.558  44.889   0.379
44209W        W10750  29.063   6.675  11.526
44210W        W10751  14.364  24.061   3.711
44211W        W10752  21.735  14.508   2.320
44212W        W10753  35.069   2.815  13.005
44213W        W10754  20.103   5.517  15.000
44214W        W10755  10.040  35.848  14.845
44215W        W10756  19.851  38.446   2.349
44216W        W10757   9.707   5.375  11.587
44217W        W10758  35.520  38.163  13.302
44218W        W10759   7.130  10.960  11.561
44219W        W10760  37.265  43.735  12.505
44220W        W10761  30.499   3.917  13.456
44221W        W10762  27.999  44.802  13.097
44222W        W10763   2.380  17.472  11.211
44223W        W10764  14.935  26.565   1.277
44224W        W10765   3.009  19.635   3.144
44225W        W10766  36.927  42.533   3.309
44226W        W10767  26.910  29.685  13.244
44227W        W10768  23.498  33.172   1.774
44228W        W10769   5.280   4.192  14.831
44229W        W10770   5.923  16.320   0.285
44230W        W10771  26.160   6.379  11.481
44231W        W10772  39.341  42.328  12.922
44232W        W10773   1.183  26.035  12.135
44233W        W10774  16.553  39.612   2.216
44234W        W10775  35.121  30.577   1.665
44235W        W10776   9.714  39.341   1.947
44236W        W10777  14.426  12.737  14.474
44237W        W10778  43.756  44.334  12.972
44238W        W10779  32.701  40.305  10.643
44239W        W10780  42.448   8.807  11.222
44240W        W10781  12.045   1.349   3.331
44241W        W10782  41.712   0.492   0.670
44242W        W10783  27.608  36.883  12.645
44243W        W10784  32.707   9.244  12.523
44244W        W10785  44.809  38.304   3.667
44245W        W10786  23.709   6.956   4.996
44246W        W10787  39.823   4.286   2.154
44247W        W10788  17.120   9.325  12.548
44248W        W10789  34.338  32.112   5.026
44249W        W10790  28.623  18.836  13.105
44250W        W10791  11.855  30.083   4.811
44251W        W10792  27.460  26.576   0.443
44252W        W10793   4.104   4.860  10.550
44253W        W10794  40.310  38.611  10.715
44254W        W10795  23.078  18.938  12.002
44255W        W10796  10.723   8.513  11.709
44256W        W10797  27.960  23.983  11.135
44257W        W10798  35.460  35.057  11.949
44258W        W10799   9.349  10.220   4.583
44259W        W10800  44.920  22.086   0.262
44260W        W10801  43.603  12.741  10.200
44261W        W10802  43.363   4.911   2.248
44262W        W10803  37.737  28.680  14.331
44263W        W10804   6.150  44.860   1.379
44264W        W10805  11.603  22.537   4.991
44265W        W10806  26.462  23.698   4.609
44266W        W10807  19.262  18.016  14.784
44267W        W10808  41.440  42.233  14.456
44268W        W10809  19.606   5.442  10.198
44269W        W10810  38.648  32.122  11.923
44270W        W10811   4.161  43.063   3.712
44271W        W10812  44.669   6.925   3.635
44272W        W10813  24.230   4.419  14.957
44273W        W10814  21.746  39.866  14.810
44274W        W10815  31.694  40.399   4.576
44275W        W10816  20.958  13.878  11.080
44276W        W10817  20.522  16.146   3.320
44277W        W10818  33.158  36.291   2.385
44278W        W10819  26.100  11.692  11.596
44279W        W10820  12.749   5.424  11.540
44280W        W10821  29.341  41.556  11.139
44281W        W10822   5.827  35.354   0.942
44282W        W10823  34.364  30.173   3.151
44283W        W10824  40.253  14.104   1.278
44284W        W10825  26.593  26.786   1.407
44285W        W10826  22.715  27.219  14.432
44286W        W10827  39.087  28.912   2.331
44287W        W10828  37.000   0.386   0.397
44288W        W10829  33.477  13.357  13.098
44289W        W10830   4.811  32.560   5.503
44290W        W10831  35.992  40.458  13.159
44291W        W10832   1.100  32.693  14.746
44292W        W10833  30.409  13.475   3.036
44293W        W10834  15.687  21.216   3.635
44294W        W10835  11.901   5.524  13.897
44295W        W10836   3.644  42.169  13.260
44296W        W10837  16.755  39.371   3.193
44297W        W10838  10.321   9.824   2.658
44298W        W10839  12.935  11.701  12.074
44299W        W10840  31.078  39.012   3.668
44300W        W10841  30.705  16.829  10.274
44301W        W10842  35.572  34.076  13.821
44302W        W10843  17.992  14.735   1.989
44303W        W10844  31.591  27.431  12.929
44304W        W10845  40.266  34.635  14.033
44305W        W10846   0.019   6.326   2.670
44306W        W10847  30.987   4.767   4.764
44307W        W10848  25.120   5.298  11.639
44308W        W10849  27.061  14.631   4.558
44309W        W10850  11.154  43.839  10.727
44310W        W10851  36.041  22.021   2.833
44311W        W10852  17.720   5.978  13.412
44312W        W10853  38.378  17.978  14.944
44313W        W10854   7.289  15.795  11.715
44314W        W10855  39.054  17.565   1.876
44315W        W10856  26.397  13.329   2.404
44316W        W10857  22.940  19.313   4.220
44317W        W10858  13.327  24.072   1.904
44318W        W10859   0.224  37.627  10.714
44319W        W10860  42.855  18.724   0.850
44320W        W10861  36.706  43.276  10.532
44321W        W10862  21.710  27.066  11.138
44322W        W10863  12.362  18.154   2.684
44323W        W10864  14.556  11.280  12.666
44324W        W10865  16.252  38.351   0.161
44325W        W10866   8.621  35.894   4.346
44326W        W10867  40.307   4.866   2.610
44327W        W10868   5.738  18.195  14.096
44328W        W10869  35.642   6.367  14.749
44329W        W10870  26.559  31.231   1.332
44330W        W10871   9.574   4.502  11.146
44331W        W10872   4.176  25.685  14.902
44332W        W10873   8.377  28.279   1.773
44333W        W10874  40.665  44.223  10.228
44334W        W10875  15.985   5.498   3.254
44335W        W10876  22.507  13.459   1.241
44336W        W10877  27.950   7.821  12.883
44337W        W10878   3.560  28.600  13.864
44338W        W10879   6.890  26.779   0.570
44339W        W10880   3.001  12.709   4.277
44340W        W10881   1.301  13.537  14.089
44341W        W10882  27.872  32.017  11.504
44342W        W10883   1.017  23.634   3.685
44343W        W10884   8.835  26.178  10.281
44344W        W10885  43.809  27.986   4.655
44345W        W10886  20.347  26.002   2.888
44346W        W10887   3.230   8.387   0.757
44347W        W10888  36.785  33.560   2.231
44348W        W10889   4.499  34.465  13.923
44349W        W10890  22.732  43.977  14.662
44350W        W10891  20.619  44.955   3.098
44351W        W10892   4.811   7.380  11.526
44352W        W10893   7.386  37.607  10.702
44353W        W10894  23.037  40.799   4.916
44354W        W10895  25.510  13.799   2.255
44355W        W10896  38.128  27.888  11.323
44356W        W10897   5.919   6.620   2.434
44357W        W10898  27.113  18.196  14.428
44358W        W10899  25.636  16.017  14.366
44359W        W10900  17.877   9.181   4.637
44360W        W10901  35.778  33.014   2.785
44361W        W10902  20.933  29.113   3.954
44362W        W10903   7.980   9.301  14.395
44363W        W10904  33.613  28.579  10.627
44364W        W10905  29.033   0.252  13.190
44365W        W10906  37.926   3.597   9.869
44366W        W10907  21.726  15.853   0.936
44367W        W10908  23.929  19.124  12.016
44368W        W10909  13.617  17.435  10.217
44369W        W10910  38.052   8.879   1.161
44370W        W10911  32.050  38.310   0.474
44371W        W10912  38.886  12.372  11.999
44372W        W10913   7.985  16.803  10.597
44373W        W10914  24.003  21.772  11.066
44374W        W10915  36.005  42.241  12.036
44375W        W10916  23.269   8.417   2.314
44376W        W10917  14.999  31.878  14.997
44377W        W10918  26.686   3.849  10.971
44378W        W10919  28.988  23.180  10.739
44379W        W10920  22.143   7.875  11.396
44380W        W10921  12.546  26.063   3.825
44381W        W10922   3.486  43.829   1.303
44382W        W10923   3.711  30.455  13.457
44383W        W10924  29.449   3.295  12.927
44384W        W10925  31.930   6.717   1.454
44385W        W10926  20.600  33.641  14.288
44386W        W10927  32.129   3.277  12.567
44387W        W10928  19.133  18.450   0.018
44388W        W10929   2.389   5.411   1.801
44389W        W10930  43.503  20.553  14.780
44390W        W10931  41.569   0.736   3.801
44391W        W10932   5.235  34.925  14.980
44392W        W10933  42.580  44.213  14.184
44393W        W10934  40.907  21.275   2.185
44394W        W10935  25.747  34.355  13.819
44395W        W10936  36.939  44.303   0.354
44396W        W10937  17.379  13.924   4.743
44397W        W10938  20.962  19.222  14.030
44398W        W10939   5.915  12.245  13.857
44399W        W10940   9.857   3.153  13.043
44400W        W10941   0.732  26.707   1.212
44401W        W10942   1.601   2.887   2.991
44402W        W10943  34.294  22.058  13.362
44403W        W10944  31.056  27.771   4.214
44404W        W10945  41.786  41.923   2.841
44405W        W10946  33.948  35.945  13.934
44406W        W10947   7.695  10.165   0.807
44407W        W10948  11.765  41.715   1.343
44408W        W10949  14.972  35.891   3.371
44409W        W10950   3.799   2.732   1.953
44410W        W10951  30.459  14.788   0.312
44411W        W10952  38.718   1.580   4.844
44412W        W10953   1.955  17.119   2.184
44413W        W10954  18.778  18.227  14.697
44414W        W10955  36.265  41.720  13.347
44415W        W10956  11.319   0.275  10.651
44416W        W10957   0.927  20.278   1.828
44417W        W10958  12.987   7.089  14.405
44418W        W10959  15.113  34.225  12.583
44419W        W10960  11.255  14.721   1.190
44420W        W10961  31.916  35.477  14.817
44421W        W10962  19.342   0.923   0.855
44422W        W10963  33.469  37.817   3.643
44423W        W10964   9.407  24.615   2.931
44424W        W10965  13.964  37.243  14.004
44425W        W10966   3.669  12.115   2.116
44426W        W10967  16.341  21.939  14.509
44427W        W10968  24.659  28.564   2.457
44428W        W10969  27.447  32.053   3.626
44429W        W10970   1.208  30.070   3.691
44430W        W10971   5.678   9.851   2.840
44431W        W10972  10.460  35.952   4.932
44432W        W10973   4.471  14.615  10.433
44433W        W10974  18.839  39.455  11.140
44434W        W10975  36.372  27.539  11.701
44435W        W10976  23.711  26.382   2.932
44436W        W10977  14.599  19.677   2.408
44437W        W10978   7.200  21.797  13.865
44438W        W10979   1.305  22.284  14.072
44439W        W10980  15.600  13.899   5.007
44440W        W10981  28.616  29.103  13.461
44441W        W10982  21.097  42.810  12.155
44442W        W10983  29.509  42.070   0.740
44443W        W10984  31.048  41.488   2.256
44444W        W10985  20.850  18.765  12.280
44445W        W10986  16.160   0.795  10.974
44446W        W10987  26.174  23.614   3.115
44447W        W10988   7.199  20.551  12.563
44448W        W10989   2.410  27.048   3.833
44449W        W10990  27.850   6.507   2.313
44450W        W10991  21.876  33.991  14.782
44451W        W10992  36.010  36.483   4.779
44452W        W10993   4.073  19.587  13.413
44453W        W10994   8.947  37.889   2.134
44454W        W10995   6.592  11.756   3.184
44455W        W10996   9.209   6.908  14.917
44456W        W10997   7.745  18.142  13.653
44457W        W10998   2.421   2.414  14.527
44458W        W10999  30.135  44.019  10.681
44459W        W11000  43.085  43.179   4.845
44460W        W11001  23.415   1.846   2.567
44461W        W11002  25.530  11.346   4.294
44462W        W11003   7.438  27.816  13.555
44463W        W11004  20.424  40.588   4.696
44464W        W11005  27.369  15.128  10.566
44465W        W11006  19.991  23.836   4.875
44466W        W11007   0.710   7.210   4.512
44467W        W11008  16.516   1.836  14.656
44468W        W11009   6.501  29.564  10.616
44469W        W11010  33.593  41.966   2.079
44470W        W11011  21.331  14.196   3.254
44471W        W11012  15.064  43.412   4.211
44472W        W11013  14.699  21.524  11.513
44473W        W11014  19.619   1.182  14.902
44474W        W11015  39.636   2.033  12.963
44475W        W11016   3.736  22.349  12.375
44476W        W11017  28.660   9.412  11.583
44477W        W11018  43.006  29.195   3.302
44478W        W11019   3.510  38.324  12.023
44479W        W11020  30.675  35.696   1.752
44480W        W11021  11.820  15.310   0.243
44481W        W11022  24.235   5.315  12.637
44482W        W11023  21.155  13.086  12.003
44483W        W11024  25.730  17.652   4.661
44484W        W11025   4.319  29.594  11.935
44485W        W11026  14.426  10.629   2.820
44486W        W11027  35.567   6.585  10.645
44487W        W11028   3.065  30.587   2.277
44488W        W11029  29.329  25.709  13.066
44489W        W11030  15.860  20.077  10.716
44490W        W11031  23.944  15.793   1.904
44491W        W11032  38.626   1.792  13.935
44492W        W11033  22.529   0.841  12.137
44493W        W11034  10.516  44.950  11.547
44494W        W11035  44.918  30.776   1.730
44495W        W11036  21.961  22.677  11.480
44496W        W11037   2.922  15.548  14.937
44497W        W11038  12.589  40.945  10.526
44498W        W11039   6.691   4.941   1.881
44499W        W11040   8.561  23.606  14.933
44500W        W11041  26.751   6.112  11.138
44501W        W11042  41.565  15.783  12.896
44502W        W11043  12.311   6.824   3.736
44503W        W11044  42.437   4.681   4.540
44504W        W11045  27.388  16.835   3.617
44505W        W11046  33.479  44.753   2.806
44506W        W11047  42.436   1.661  13.779
44507W        W11048  12.374  19.129  11.117
44508W        W11049  16.512  28.203  13.476
44509W        W11050  26.034  18.608  11.107
44510W        W11051  43.931  43.204  14.367
44511W        W11052  24.707  11.625  13.994
44512W        W11053  33.055  24.107  11.099
44513W        W11054  27.492  37.373   0.218
44514W        W11055  26.470  41.200   0.507
44515W        W11056  23.767   1.611   1.263
44516W        W11057  30.392  21.738   1.473
44517W        W11058  12.806  21.208   2.027
44518W        W11059  44.801  26.394   2.233
44519W        W11060  21.578  17.763   3.493
44520W        W11061  23.274  22.694  10.667
44521W        W11062  21.000  13.803   3.162
44522W        W11063  10.625  33.525   3.787
44523W        W11064   2.762   7.310  12.635
44524W        W11065  15.649  26.487   0.460
44525W        W11066  32.912  17.511   2.206
44526W        W11067  12.910  42.656   0.288
44527W        W11068  13.715  23.015   1.206
44528W        W11069  43.711  31.496  10.503
44529W        W11070  42.541  35.999   1.171
44530W        W11071   9.661  42.883   3.119
44531W        W11072  22.576   6.976   2.871
44532W        W11073  15.380  12.984  10.351
44533W        W11074  11.219   5.211   1.802
44534W        W11075   9.918   1.986   1.138
44535W        W11076  17.210  34.414   3.258
44536W        W11077  25.342   3.271  10.606
44537W        W11078  37.553   1.665   1.839
44538W        W11079  28.177  31.586   2.866
44539W        W11080   6.894  40.582   4.398
44540W        W11081   8.820   6.623  13.985
44541W        W11082   5.145  40.628   0.407
44542W        W11083   9.711   7.315   2.537
44543W        W11084  22.277   9.395   2.868
44544W        W11085   9.357  10.381  13.916
44545W        W11086  33.669   5.341   4.674
44546W        W11087  29.933  10.525   2.194
44547W        W11088  13.107   6.850  12.992
44548W        W11089  14.094  29.060   1.886
44549W        W11090  26.233   9.130   4.739
44550W        W11091  36.597  43.724  13.217
44551W        W11092   1.305  40.400   4.530
44552W        W11093  26.864  37.896  10.598
44553W        W11094  35.423  12.679   2.938
44554W        W11095  42.994  33.139   3.321
44555W        W11096  38.326  31.026   3.219
44556W        W11097  40.837  13.726   3.670
44557W        W11098  14.358  38.851   4.240
44558W        W11099  33.111  37.036  12.627
44559W        W11100  42.720   8.184   1.827
44560W        W11101  13.645  20.008  11.649
44561W        W11102  31.036  23.945  13.901
44562W        W11103  17.062  33.093  12.861
44563W        W11104  20.286   4.845  10.249
44564W        W11105  40.462  15.459   4.098
44565W        W11106  35.837  15.150   3.743
44566W        W11107   2.221  19.203   0.869
44567W        W11108  21.238  42.572  14.985
44568W        W11109  14.721  17.535   2.176
44569W        W11110  12.075  20.276  10.835
44570W        W11111  26.533  24.196  14.343
44571W        W11112  18.527  12.165   3.901
44572W        W11113  18.774  25.290  12.410
44573W        W11114  37.036   2.289   0.852
44574W        W11115  33.152   0.262  12.434
44575W        W11116  19.618   5.613  11.472
44576W        W11117  40.669  27.763   1.048
44577W        W11118  10.479  18.091  14.456
44578W        W11119  37.843  33.471  10.320
44579W        W11120  10.318  41.184   3.691
44580W        W11121  16.620  39.500  14.608
44581W        W11122  36.189   0.472  11.514
44582W        W11123  23.122   6.665   0.493
44583W        W11124   6.831  19.641  12.425
44584W        W11125  33.896  17.819  13.248
44585W        W11126   1.302   3.876   2.321
44586W        W11127  21.441   1.825   2.712
44587W        W11128  41.342  20.155   1.713
44588W        W11129  43.478  41.863   4.183
44589W        W11130  10.220  23.994  13.466
44590W        W11131   1.449  10.760  11.682
44591W        W11132  11.841  13.475   1.303
44592W        W11133   0.506  36.136   1.894
44593W        W11134  11.309   0.407   3.050
44594W        W11135  41.773  41.908  11.940
44595W        W11136  10.908  27.818  10.893
44596W        W11137  20.233  14.822   1.483
44597W        W11138  35.485  44.982  10.641
44598W        W11139   5.038  28.513  14.811
44599W        W11140  33.120   0.644  12.034
44600W        W11141   6.797  29.977  10.615
44601W        W11142   0.814  25.041   1.644
44602W        W11143   1.315  18.458  10.950
44603W        W11144  37.784  17.007   1.796
44604W        W11145  29.172  27.938   3.361
44605W        W11146  15.780  34.514   4.530
44606W        W11147   5.395   5.312   2.833
44607W        W11148  25.609  18.554   3.700
44608W        W11149  30.623  14.389  12.890
44609W        W11150  37.983  24.471   0.404
44610W        W11151  26.382  36.176   5.084
44611W        W11152  20.681  28.798   0.846
44612W        W11153  25.438  26.135   2.763
44613W        W11154  26.707  28.670  14.318
44614W        W11155   7.306  19.477   0.951
44615W        W11156  32.908   4.948  13.542
44616W        W11157  43.883  18.175   1.550
44617W        W11158   1.964  26.621   1.955
44618W        W11159  20.072  43.918  12.223
44619W        W11160  31.500  21.198  14.124
44620W        W11161  17.547  35.147   0.776
44621W        W11162  13.308  38.491   3.997
44622W        W11163   8.206  33.407  13.411
44623W        W11164  24.297  34.158   1.373
44624W        W11165   6.727  38.077  13.732
44625W        W11166  18.074  41.993   0.831
44626W        W11167  36.309  15.588   3.219
44627W        W11168  38.982  10.364  14.735
44628W        W11169  43.486   9.453   3.248
44629W        W11170   0.709  35.087   1.753
44630W        W11171  22.170  29.173   1.340
44631W        W11172  41.928  13.894   1.911
44632W        W11173  36.339   8.924   2.504
44633W        W11174   2.659   1.716  13.930
44634W        W11175   0.733  29.503  10.874
44635W        W11176  18.320  38.511   3.446
44636W        W11177  16.599  27.048   4.599
44637W        W11178  21.081   7.349   4.391
44638W        W11179  26.881   5.802  10.707
44639W        W11180  15.105  15.539   1.193
44640W        W11181  36.759  18.823   3.734
44641W        W11182  22.236  33.494  12.372
44642W        W11183  30.459   0.436   2.866
44643W        W11184  27.439  37.019  14.629
44644W        W11185   6.992  26.122  11.136
44645W        W11186   0.789  30.341   1.212
44646W        W11187  12.798   7.853   1.367
44647W        W11188   4.433  31.423   4.032
44648W        W11189  40.437   2.970   2.281
44649W        W11190  12.384   7.875  13.515
44650W        W11191  27.150  14.868   3.638
44651W        W11192  18.544  26.147   0.464
44652W        W11193  33.617   2.210   3.119
44653W        W11194  10.213  16.021  11.565
44654W        W11195  14.628  34.720  12.928
44655W        W11196  39.923  43.335   2.761
44656W        W11197  12.446  21.158   4.423
44657W        W11198  20.267  32.401  11.677
44658W        W11199  23.073   6.518   1.293
44659W        W11200   5.779  32.189  11.882
44660W        W11201  20.340  29.135   1.000
44661W        W11202  44.235  33.700   2.836
44662W        W11203  43.849  16.039  12.180
44663W        W11204  44.292  15.090  11.201
44664W        W11205  20.198  26.462   3.143
44665W        W11206  29.379  11.956  13.332
44666W        W11207  17.085  13.908  10.509
44667W        W11208   5.036  39.885   1.352
44668W        W11209  28.458   8.116   2.611
44669W        W11210  42.358  22.169  12.879
44670W        W11211  32.098  41.949  14.829
44671W        W11212  21.082  17.604  11.977
44672W        W11213  34.907  40.258   1.108
44673W        W11214  36.488   2.964  12.583
44674W        W11215  37.973  10.116  11.313
44675W        W11216  12.969  16.352  10.397
44676W        W11217   2.369  40.824   3.446
44677W        W11218   7.660  38.107   0.481
44678W        W11219  14.362  11.975  14.704
44679W        W11220   5.595  19.959  12.097
44680W        W11221  30.539  17.522   1.841
44681W        W11222  18.771  21.499   2.654
44682W        W11223   5.748   2.724  14.794
44683W        W11224  13.579  34.896  12.060
44684W        W11225  23.262   4.200   3.720
44685W        W11226   5.282  13.671  12.365
44686W        W11227  17.163   1.926   4.193
44687W        W11228  36.010  34.825  12.962
44688W        W11229   7.940  30.558   4.728
44689W        W11230   7.267  11.400   1.906
44690W        W11231   9.334  37.056   2.090
44691W        W11232  36.011   4.676  14.470
44692W        W11233  18.229  29.420   3.380
44693W        W11234  30.021  36.323  14.762
44694W        W11235   3.836  22.983   4.144
44695W        W11236  37.997  42.769  10.666
44696W        W11237  21.698  14.024   1.305
44697W        W11238  24.634  28.096  11.605
44698W        W11239   6.756  42.906  11.228
44699W        W11240  28.667   0.753   1.768
44700W        W11241  27.468  37.435   2.664
44701W        W11242  12.884  21.461   4.594
44702W        W11243  19.651  39.457   0.929
44703W        W11244   7.381  10.665   2.366
44704W        W11245  35.894  26.767   3.754
44705W        W11246  44.818   5.492   3.580
44706W        W11247  18.022  26.147   1.822
44707W        W11248  10.320  38.352   0.261
44708W        W11249  35.836   4.522  13.445
44709W        W11250   8.633  29.450  12.459
44710W        W11251  25.856  39.853   3.848
44711W        W11252  20.559  42.736  13.011
44712W        W11253  43.367  44.861  10.717
44713W        W11254  44.866  35.667  12.534
44714W        W11255  11.904   1.777   2.386
44715W        W11256  24.212   3.905   2.845
44716W        W11257  11.663  40.532   5.028
44717W        W11258  15.659  26.109   0.079
44718W        W11259  16.197  22.575  10.424
44719W        W11260  34.798  35.836   3.789
44720W        W11261  42.939  43.887   3.925
44721W        W11262  28.622  44.606   4.251
44722W        W11263  37.827  26.575  11.746
44723W        W11264  29.412  24.902  12.587
44724W        W11265   8.412  41.488   1.723
44725W        W11266  10.924   9.081  14.329
44726W        W11267  12.956  38.624  11.528
44727W        W11268   1.359   2.942   0.335
44728W        W11269  26.473  15.699   0.678
44729W        W11270  43.575  22.141   1.475
44730W        W11271  39.851  38.309   2.654
44731W        W11272  40.988  41.697   3.341
44732W        W11273  16.802  18.074   1.765
44733W        W11274  26.777  14.238   2.220
44734W        W11275   1.742  15.331  12.508
44735W        W11276   9.730   2.182   2.945
44736W        W11277   5.835  35.498   0.425
44737W        W11278  10.896  33.448  11.257
44738W        W11279  27.909  31.163   3.941
44739W        W11280  31.638  19.581   0.374
44740W        W11281  24.624  32.873   0.006
44741W        W11282  15.739  42.768  12.647
44742W        W11283  37.000  37.592   4.965
44743W        W11284  40.809  27.837  12.436
44744W        W11285  14.046   3.240  13.520
44745W        W11286  30.768   6.075   5.275
44746W        W11287  18.186  43.763   2.440
44747W        W11288  36.579  12.891   0.526
44748W        W11289   8.273  29.402  12.824
44749W        W11290  44.915   1.897  11.242
44750W        W11291  23.324  27.780   3.641
44751W        W11292  42.991  40.007   0.745
44752W        W11293   3.736  33.856   3.755
44753W        W11294   1.236  37.104  14.801
44754W        W11295  34.647  40.373  10.804
44755W        W11296  11.043  37.340   5.017
44756W        W11297  28.376  16.592   3.692
44757W        W11298  21.801  11.678   3.310
44758W        W11299  10.860  31.103  13.466
44759W        W11300  16.663   8.842  11.974
44760W        W11301  12.599  35.085   0.244
44761W        W11302  25.933  26.668   1.841
44762W        W11303  11.880  35.141  13.577
44763W        W11304  44.017  26.521  14.967
44764W        W11305   0.253  14.856  12.190
44765W        W11306  28.810  20.638  13.937
44766W        W11307   5.152  35.047   2.011
44767W        W11308  23.751  37.641  14.447
44768W        W11309   9.065  18.220  13.926
44769W        W11310  30.812   6.382  13.263
44770W        W11311  42.292  15.172   3.575
44771W        W11312  42.211  13.313  14.510
44772W        W11313  44.801  31.393  13.004
44773W        W11314  32.585  15.055  14.892
44774W        W11315  17.674  43.331  11.557
44775W        W11316  31.459   2.513   1.807
44776W        W11317  24.058  41.092   1.261
44777W        W11318  32.732  31.589   3.721
44778W        W11319  42.531  22.021  14.357
44779W        W11320  31.649  31.061  14.512
44780W        W11321  31.902  39.439   2.855
44781W        W11322  15.897  12.699  10.977
44782W        W11323  33.672   9.457  12.613
44783W        W11324   6.162   3.159  11.045
44784W        W11325  41.348   5.272   2.906
44785W        W11326  21.361  40.128   1.370
44786W        W11327  26.148  37.287  12.062
44787W        W11328  18.066  12.203  12.464
44788W        W11329  17.812   2.372   2.303
44789W        W11330  14.188  41.482  13.786
44790W        W11331   1.025  42.389  11.547
44791W        W11332  34.643  21.114   1.101
44792W        W11333  36.980   1.969   4.918
44793W        W11334  12.797  19.526   1.370
44794W        W11335  23.566  20.344  13.627
44795W        W11336  28.075  29.962   0.065
44796W        W11337  21.059  33.973  11.023
44797W        W11338  26.922  38.975  13.863
44798W        W11339  19.719  43.702  14.372
44799W        W11340  16.318  33.398  11.446
44800W        W11341  13.424   9.311  11.993
44801W        W11342  39.284  41.806   4.086
44802W        W11343  41.488  12.912  14.271
44803W        W11344  20.119  40.226  11.103
44804W        W11345   4.323  18.907   0.041
44805W        W11346  19.297  39.353  14.003
44806W        W11347  19.747  26.715  12.630
44807W        W11348  27.177   3.423  12.103
44808W        W11349  23.007  31.910   0.517
44809W        W11350  33.397  21.051   1.757
44810W        W11351  32.015   0.140   5.155
44811W        W11352  18.669  20.089  10.630
44812W        W11353   5.747  34.001  11.864
44813W        W11354  16.125   7.676  14.010
44814W        W11355  40.490  15.069   2.551
44815W        W11356  16.040  43.305  13.819
44816W        W11357   5.020   9.818  11.985
44817W        W11358  17.249   0.463   3.383
44818W        W11359  24.247  15.499   2.219
44819W        W11360  39.021   7.463   1.712
44820W        W11361  19.956  29.985   1.351
44821W        W11362  27.755  27.939   4.519
44822W        W11363  23.908  41.118  14.371
44823W        W11364  43.831  13.025  13.424
44824W        W11365  19.809  21.312  14.554
44825W        W11366  30.483  33.969  13.898
44826W        W11367  42.364   9.995  12.509
44827W        W11368  35.083  21.263   3.151
44828W        W11369   1.847  44.251   0.887
44829W        W11370  39.758  12.164   4.585
44830W        W11371  31.599  30.090   2.777
44831W        W11372  19.801  17.836   0.449
44832W        W11373  14.802   9.076  14.786
44833W        W11374  13.812  25.623  11.956
44834W        W11375   4.404  27.471   2.774
44835W        W11376  36.410  36.918  11.541
44836W        W11377  37.856  11.957  10.683
44837W        W11378  17.870  25.920  12.323
44838W        W11379  23.179   8.758  12.868
44839W        W11380  21.647  44.296   4.272
44840W        W11381  42.521  15.421  12.551
44841W        W11382  10.395  43.284   0.986
44842W        W11383  44.043   0.986  14.924
44843W        W11384  42.317  37.393  12.026
44844W        W11385  11.868   2.299   2.297
44845W        W11386  43.785  27.982   4.129
44846W        W11387  24.684  44.435  11.226
44847W        W11388  40.290  14.505  13.272
44848W        W11389  24.825  40.859  13.149
44849W        W11390  37.305   3.779  14.370
44850W        W11391  28.215  31.982   0.754
44851W        W11392  31.444   7.628   0.378
44852W        W11393  41.024   4.236   4.610
44853W        W11394   6.314  42.870   2.320
44854W        W11395   0.827  10.065   2.222
44855W        W11396  31.078  23.052   2.365
44856W        W11397  21.713  33.434   4.832
44857W        W11398  33.201  21.572   1.870
44858W        W11399  30.440   6.470  10.882
44859W        W11400  13.169  39.398   3.672
44860W        W11401  25.452   4.641   0.572
44861W        W11402  15.676   0.050  11.124
44862W        W11403  36.357  42.948  13.026
44863W        W11404  16.950   7.833   1.383
44864W        W11405   8.779  35.520   3.096
44865W        W11406  40.025  27.554  11.188
44866W        W11407  34.539  19.338   4.914
44867W        W11408  34.298  38.564   4.137
44868W        W11409   7.733  40.293   1.719
44869W        W11410  14.696   6.974   3.809
44870W        W11411  18.627  29.896  14.330
44871W        W11412  27.556  44.478  13.055
44872W        W11413  43.293  21.429   3.112
44873W        W11414  37.378  35.083  11.977
44874W        W11415  16.314  28.661   4.244
44875W        W11416  15.155  37.801  13.490
44876W        W11417   3.794  33.397   1.827
44877W        W11418  27.506   2.290  13.293
44878W        W11419  43.679  39.800   0.009
44879W        W11420  18.035  23.064   0.821
44880W        W11421  44.994  28.960  13.622
44881W        W11422  22.905  14.867   4.219
44882W        W11423   1.363  39.536  13.477
44883W        W11424   6.675  35.457   2.973
44884W        W11425  35.632  44.399   0.365
44885W        W11426  44.511  38.674  11.144
44886W        W11427   2.001   7.535  13.273
44887W        W11428   8.420  17.113   1.779
44888W        W11429  18.821  37.418   1.448
44889W        W11430  13.611   7.342  10.519
44890W        W11431  29.582  30.470  14.783
44891W        W11432  44.360  22.272  12.485
44892W        W11433   0.172   8.422  12.018
44893W        W11434   4.190  23.990   1.458
44894W        W11435  30.867  40.773   1.115
44895W        W11436  20.474  42.439  10.490
44896W        W11437  15.073   2.390   1.237
44897W        W11438  29.939  41.358   1.202
44898W        W11439  24.507   2.147  13.432
44899W        W11440  10.284  32.036   1.511
44900W        W11441   7.884  19.816   3.967
44901W        W11442  30.785  26.246   2.257
44902W        W11443  23.869  10.577   4.890
44903W        W11444  28.896  24.208   3.178
44904W        W11445   5.710  39.493  14.096
44905W        W11446  38.539   7.147   0.875
44906W        W11447  31.869   1.382   2.590
44907W        W11448  37.546  37.570   0.857
44908W        W11449   3.743  19.898  10.030
44909W        W11450  41.938  26.285  12.031
44910W        W11451  20.545  41.884  10.635
44911W        W11452  31.872  36.677  13.336
44912W        W11453  26.931  20.266  14.275
44913W        W11454  15.150  23.302  14.268
44914W        W11455  39.007  18.577   1.834
44915W        W11456  36.048  41.243   1.363
44916W        W11457   7.469  29.195  13.397
44917W        W11458  43.498  38.819   2.562
44918W        W11459   6.304  22.691  14.930
44919W        W11460  11.669  38.742   0.081
44920W        W11461  20.708  36.674  13.516
44921W        W11462   3.716  24.585  13.211
44922W        W11463  33.623   1.287  14.812
44923W        W11464   6.367  28.661  10.444
44924W        W11465  11.756   0.441  13.882
44925W        W11466  14.156  28.401   4.555
44926W        W11467  16.984  20.177   1.551
44927W        W11468  34.928  14.869   3.684
44928W        W11469  37.209   5.057   5.369
44929W        W11470  20.234  31.147   4.115
44930W        W11471  23.738  15.635   4.557
44931W        W11472  38.314  17.926   4.185
44932W        W11473  34.435  23.723   3.584
44933W        W11474  43.472  26.947   3.266
44934W        W11475   0.990  18.305  14.378
44935W        W11476  12.275  22.905  13.963
44936W        W11477   1.771  17.816   0.874
44937W        W11478  22.719  10.733  11.574
44938W        W11479  44.866  14.121   5.031
44939W        W11480   4.419  13.821  13.840
44940W        W11481   4.302  43.568  11.856
44941W        W11482  36.905  27.923   2.181
44942W        W11483   5.758  16.009  13.807
44943W        W11484  23.992  16.745   2.476
44944W        W11485  19.240  27.057  13.279
44945W        W11486  13.152  18.798  13.408
44946W        W11487  36.570  40.526   2.092
44947W        W11488   6.869  13.910   2.779
44948W        W11489  29.216   0.190  12.675
44949W        W11490  10.930   1.039  11.132
44950W        W11491   1.787   1.244  12.368
44951W        W11492  14.294   5.865  14.798
44952W        W11493  32.495  23.174   2.193
44953W        W11494  16.056  21.924   4.103
44954W        W11495  32.458   5.061   4.637
44955W        W11496  15.370  25.482   3.742
44956W        W11497  16.213  14.790  10.260
44957W        W11498  24.306  32.544   3.709
44958W        W11499   2.382  34.608   2.375
44959W        W11500   8.889  25.907   3.287
44960W        W11501  42.675  42.779   4.818
44961W        W11502  26.974   7.872  14.725
44962W        W11503  40.648  41.346  13.364
44963W        W11504  39.022  32.640  14.486
44964W        W11505  10.130  33.359   2.743
44965W        W11506  41.895   0.771   4.187
44966W        W11507   0.362  27.955   3.241
44967W        W11508  23.115  14.211   0.299
44968W        W11509   0.297   8.112  14.351
44969W        W11510   8.397  16.629   3.455
44970W        W11511  30.048  20.562   4.566
44971W        W11512   1.548  24.642   2.847
44972W        W11513   1.297  16.173  12.542
44973W        W11514  38.966  10.139   2.667
44974W        W11515   0.816  13.896   1.272
44975W        W11516  21.532  35.402   2.673
44976W        W11517  30.642  26.460  14.485
44977W        W11518   0.901  16.223  12.872
44978W        W11519  22.947  39.632   1.391
44979W        W11520  12.720   6.871   4.126
44980W        W11521   5.382  27.236   9.636
44981W        W11522   6.770  30.610   1.477
44982W        W11523   1.654  20.099  11.561
44983W        W11524  37.256   5.879   1.296
44984W        W11525  40.926  18.831   1.498
44985W        W11526   0.454   7.749   0.181
44986W        W11527  35.435  26.568  10.631
44987W        W11528  28.426  25.518   0.033
44988W        W11529  44.854  32.529   4.507
44989W        W11530   8.935  39.968   2.737
44990W        W11531  29.660  40.297   4.180
44991W        W11532  41.771  26.975   2.408
44992W        W11533  26.668  35.287   2.405
44993W        W11534   6.700  44.224   1.934
44994W        W11535  43.829  38.926  13.252
44995W        W11536  42.347  22.087   4.516
44996W        W11537  18.690  23.392   1.474
44997W        W11538  28.180  39.524   3.218
44998W        W11539  36.052  18.125  13.154
44999W        W11540  37.103  20.166   2.573
45000W        W11541  41.720  22.723   2.104
45001W        W11542  12.130   1.819   0.513
45002W        W11543   2.966  35.133  11.557
45003W        W11544  26.700  42.698  13.962
45004W        W11545  28.753  30.028  11.129
45005W        W11546   6.658  38.482   5.372
45006W        W11547  35.801  25.241  11.407
45007W        W11548   2.495   5.483  14.441
45008W        W11549   4.771  34.922   4.584
45009W        W11550  44.710  40.820   2.183
45010W        W11551  26.598  20.693   4.545
45011W        W11552  17.713  11.773   3.954
45012W        W11553  42.991  33.523  13.107
45013W        W11554   1.245   8.286   0.922
45014W        W11555   1.339  29.079   1.302
45015W        W11556   4.200  13.999  14.280
45016W        W11557  12.765  31.045   0.504
45017W        W11558  39.793  29.480   2.415
45018W        W11559  18.443  23.838  13.803
45019W        W11560  21.578  30.973   2.094
45020W        W11561  28.594  35.257  11.851
45021W        W11562  29.502  39.296   0.790
45022W        W11563  28.165  38.811  12.185
45023W        W11564  16.330  16.710  12.928
45024W        W11565  42.425  28.128  10.795
45025W        W11566  16.276  39.353   1.829
45026W        W11567  34.842  40.775   1.739
45027W        W11568  18.120  22.466  11.523
45028W        W11569  24.316   5.470  13.980
45029W        W11570  42.026  37.252   2.285
45030W        W11571  29.547   2.297   3.401
45031W        W11572  27.570  30.715   4.007
45032W        W11573  29.526   3.175   1.856
45033W        W11574  37.937  20.757  13.384
45034W        W11575   7.651   2.194  13.376
45035W        W11576  40.068  42.926  13.336
45036W        W11577  26.996   0.990   1.613
45037W        W11578  15.938  12.927  14.286
45038W        W11579  10.680  16.314   3.165
45039W        W11580  17.072  24.544   3.848
45040W        W11581  20.447  10.725   2.867
45041W        W11582  17.267  22.811   1.239
45042W        W11583  32.417  17.555   2.387
45043W        W11584   8.092  42.220  14.828
45044W        W11585  44.434  42.877   1.158
45045W        W11586  28.664  42.531   0.769
45046W        W11587  44.236   7.401  11.053
45047W        W11588  44.253  40.336   3.747
45048W        W11589  39.006  29.913  14.029
45049W        W11590   2.546  31.567   3.078
45050W        W11591  13.863  18.030   0.826
45051W        W11592  27.901  39.495  11.075
45052W        W11593  30.436   0.946   2.787
45053W        W11594   9.275   3.989   1.915
45054W        W11595  39.873  28.744  13.056
45055W        W11596  15.049  25.923   2.341
45056W        W11597  44.930  12.905   1.149
45057W        W11598  21.646  26.602   1.373
45058W        W11599  18.254  40.391   2.970
45059W        W11600  10.199   1.544   4.062
45060W        W11601   2.165  38.482  10.736
45061W        W11602   9.422  34.435   5.165
45062W        W11603  30.563  33.083   4.521
45063W        W11604  16.121  35.611   4.623
45064W        W11605  27.755  44.454   4.277
45065W        W11606  27.588   0.411  13.650
45066W        W11607  20.841   0.895  14.052
45067W        W11608  21.713   7.915  11.065
45068W        W11609  31.883  15.048   3.269
45069W        W11610   0.806  32.630   1.779
45070W        W11611   3.207  17.600   0.398
45071W        W11612   0.294   8.708  14.763
45072W        W11613  25.068  41.357  14.949
45073W        W11614  21.456  11.026  12.404
45074W        W11615  14.373  44.338   0.905
45075W        W11616  27.029  33.040   0.456
45076W        W11617  18.016  27.009  11.614
45077W        W11618  14.123  31.884   0.406
45078W        W11619  20.640  28.915  12.879
45079W        W11620  22.896  10.244  11.494
45080W        W11621   6.936  17.767   1.446
45081W        W11622  19.027  27.002  11.725
45082W        W11623  34.602  38.909   2.791
45083W        W11624  25.723   0.479  13.998
45084W        W11625  25.464   8.709  12.051
45085W        W11626  16.330  11.145  12.658
45086W        W11627  43.446  38.564  13.399
45087W        W11628  17.027  21.476  12.569
45088W        W11629  10.727  42.999   1.832
45089W        W11630  38.406   1.653  12.344
45090W        W11631  16.640  23.276  14.998
45091W        W11632  35.088  10.293  10.318
45092W        W11633  26.222  19.249  14.720
45093W        W11634   0.909  14.551   0.436
45094W        W11635  16.715   3.353   4.324
45095W        W11636  30.508   0.877   3.614
45096W        W11637  16.885  12.871   3.646
45097W        W11638  24.385  12.903  13.539
45098W        W11639  11.585  21.172  10.726
45099W        W11640  38.834  38.632  13.320
45100W        W11641   1.264   2.854   3.406
45101W        W11642  33.014   1.831   9.681
45102W        W11643  31.300  25.688  11.023
45103W        W11644   4.475  26.627  12.456
45104W        W11645  36.134  42.455  14.834
45105W        W11646  18.975  26.670   4.691
45106W        W11647   9.642  16.050   1.260
45107W        W11648  36.876  44.422   4.882
45108W        W11649   0.789  38.298   4.578
45109W        W11650  26.132  23.957  11.116
45110W        W11651  21.244  38.255   2.910
45111W        W11652   4.449  12.203  12.369
45112W        W11653  42.368   8.615   1.874
45113W        W11654  18.738  25.614  14.304
45114W        W11655   8.601  28.530   4.904
45115W        W11656  29.036  30.806  12.984
45116W        W11657   3.077  23.146  11.056
45117W        W11658  44.274  12.983   3.563
45118W        W11659   2.790   6.340   4.601
45119W        W11660  38.229  12.336  14.165
45120W        W11661  16.703   6.280   0.966
45121W        W11662   1.378  19.791  10.591
45122W        W11663  13.035  42.620   5.143
45123W        W11664  20.726  25.046   4.301
45124W        W11665  13.634  33.422   3.299
45125W        W11666  31.644  18.389  14.178
45126W        W11667   7.509   1.431   1.390
45127W        W11668  12.301  13.611  11.572
45128W        W11669  31.493  24.450   0.455
45129W        W11670  25.101  33.183  14.231
45130W        W11671   1.888  18.308  13.492
45131W        W11672  24.627  36.988  11.252
45132W        W11673   3.881  20.492   4.109
45133W        W11674  35.513   1.790  14.811
45134W        W11675  40.104   4.664   4.151
45135W        W11676   7.423   2.974  13.669
45136W        W11677  29.970  35.298  14.907
45137W        W11678  19.116  19.844  10.779
45138W        W11679   7.789   5.426   4.708
45139W        W11680  21.872  27.128   4.599
45140W        W11681  18.096  13.506  14.402
45141W        W11682  21.281  18.454  10.962
45142W        W11683  27.683  42.931  14.914
45143W        W11684   2.729  12.193  13.969
45144W        W11685   6.868  31.510  10.609
45145W        W11686  39.971   2.008   2.353
45146W        W11687  35.824  17.005   4.718
45147W        W11688  11.951  44.028  12.959
45148W        W11689   3.253  13.721   5.064
45149W        W11690  39.250  22.735   4.702
45150W        W11691  18.739  13.356   1.210
45151W        W11692  44.790   0.377  14.005
45152W        W11693   4.260   4.818  11.037
45153W        W11694  36.833  28.857  14.255
45154W        W11695  16.494  12.270  14.741
45155W        W11696  43.181  19.199   3.412
45156W        W11697   4.978   7.683  13.029
45157W        W11698   6.390  41.032   0.936
45158W        W11699  37.846   0.542   1.889
45159W        W11700  11.876   0.930   0.960
45160W        W11701  13.605   3.566   0.409
45161W        W11702   7.748  33.739   0.382
45162W        W11703  19.910   4.268   1.062
45163W        W11704  16.208  10.209   3.388
45164W        W11705  28.718  36.029  14.519
45165W        W11706   1.008  19.463  13.473
45166W        W11707  23.026   3.907   3.290
45167W        W11708   1.959   6.768   2.994
45168W        W11709  24.176  12.325  14.527
45169W        W11710  10.430  31.215   3.271
45170W        W11711  26.666   2.516  11.799
45171W        W11712  32.095   3.004  13.537
45172W        W11713   2.513  24.191  14.350
45173W        W11714   2.681  27.629   2.215
45174W        W11715  15.248  21.665   3.173
45175W        W11716  36.499  25.895   3.752
45176W        W11717  21.709   1.793  11.242
45177W        W11718  21.619   2.915  11.079
45178W        W11719   6.322  37.135  10.928
45179W        W11720   2.166  21.580   4.354
45180W        W11721  16.148  20.980   0.457
45181W        W11722  26.966  17.297  10.241
45182W        W11723  37.076   5.463  11.160
45183W        W11724   3.259  35.023   2.523
45184W        W11725  39.623  32.940   2.262
45185W        W11726  13.851   0.368  11.404
45186W        W11727  32.234  35.194   1.176
45187W        W11728  30.569  11.571   3.517
45188W        W11729   9.200  33.745   2.406
45189W        W11730   7.800  27.916  10.314
45190W        W11731  23.187   6.998   3.592
45191W        W11732  37.560  35.366   3.261
45192W        W11733  44.540  20.624   0.136
45193W        W11734  12.354   2.329  11.570
45194W        W11735  32.825   8.163  12.896
45195W        W11736   6.925  14.245  13.892
45196W        W11737  19.496  34.372  12.452
45197W        W11738  41.731   9.266   0.230
45198W        W11739   1.246   9.175   2.676
45199W        W11740  31.619   2.496  12.893
45200W        W11741  44.902   8.310   4.876
45201W        W11742   9.833   2.412   0.198
45202W        W11743  17.714  44.385  13.625
45203W        W11744  35.066  31.821   0.688
45204W        W11745  40.067  31.118  14.791
45205W        W11746  16.198  34.453  11.967
45206W        W11747  42.213  25.082  12.051
45207W        W11748  44.983  43.821   3.751
45208W        W11749  43.539  18.294  12.920
45209W        W11750  21.008  23.562   0.699
45210W        W11751  36.624  38.144   1.844
45211W        W11752   3.517  39.035  13.905
45212W        W11753  30.104  36.486   3.737
45213W        W11754  29.578   7.715  13.077
45214W        W11755   5.887  40.775  13.682
45215W        W11756  21.604  29.450   0.442
45216W        W11757  25.503  32.186   2.473
45217W        W11758  37.603   4.008   0.697
45218W        W11759   7.852   3.547  12.491
45219W        W11760  36.222  40.851  14.981
45220W        W11761   1.531  42.877  13.995
45221W        W11762  27.294  27.655  10.938
45222W        W11763   9.378  37.049   4.522
45223W        W11764  28.470  13.732  14.717
45224W        W11765  18.775  25.486   1.107
45225W        W11766  24.452   0.662  12.002
45226W        W11767  44.809  35.916   2.361
45227W        W11768  43.557  13.921   4.579
45228W        W11769  35.255   7.996   1.597
45229W        W11770  39.618  26.629   3.613
45230W        W11771  40.413  11.745   0.009
45231W        W11772  26.551  29.431   2.549
45232W        W11773   8.153   5.340  11.605
45233W        W11774  34.615  28.492  10.588
45234W        W11775  11.084  11.326  12.863
45235W        W11776  32.179  23.140   3.781
45236W        W11777   6.010  40.278  12.978
45237W        W11778  43.225   6.361   0.419
45238W        W11779  10.703  15.987  13.401
45239W        W11780  42.974  15.020  14.472
45240W        W11781  27.909  28.376  11.158
45241W        W11782  11.885  17.505  11.672
45242W        W11783  19.005  44.404  14.957
45243W        W11784  31.403   4.878   1.303
45244W        W11785  27.196  16.392   0.779
45245W        W11786  10.043  31.163  14.946
45246W        W11787  15.307  28.266  12.928
45247W        W11788  21.181  34.780  13.525
45248W        W11789   1.833  14.822   0.859
45249W        W11790  25.869  33.563   3.211
45250W        W11791  29.245   0.122   2.294
45251W        W11792   5.692  17.341   3.299
45252W        W11793  27.989  13.246  12.886
45253W        W11794   8.788  30.925  11.525
45254W        W11795  19.127  12.891   4.964
45255W        W11796  19.178  44.209  11.511
45256W        W11797   0.760  37.377   4.168
45257W        W11798   4.280  28.752  11.579
45258W        W11799  17.548  36.342  10.610
45259W        W11800   6.319  40.020  11.176
45260W        W11801  24.659  17.575   3.980
45261W        W11802   9.607  12.439   3.803
45262W        W11803  37.883  27.252   0.370
45263W        W11804  22.976  42.493  12.083
45264W        W11805  41.358  39.488  14.720
45265W        W11806  30.556  16.998  12.066
45266W        W11807  17.540  37.886  14.002
45267W        W11808  20.056  25.641  13.903
45268W        W11809  25.115  19.022  14.447
45269W        W11810  18.174  14.563  14.500
45270W        W11811  30.147   8.248   2.327
45271W        W11812  20.322  24.179   0.503
45272W        W11813  15.709  29.007  12.976
45273W        W11814  40.650   5.898   0.774
45274W        W11815  40.909  35.042   1.624
45275W        W11816  42.210   4.442  11.066
45276W        W11817  40.738  37.474   2.386
45277W        W11818  17.675  11.728   2.215
45278W        W11819  30.893  26.715   5.109
45279W        W11820   1.777  16.995   5.053
45280W        W11821  43.884  27.923  11.727
45281W        W11822  24.038  20.327  11.385
45282W        W11823   0.838   9.773  10.458
45283W        W11824  16.211  22.320   1.914
45284W        W11825  39.282  12.693   3.162
45285W        W11826  11.162  41.776   3.649
45286W        W11827  16.765  24.753  11.456
45287W        W11828  20.067  40.332  12.349
45288W        W11829   1.612  39.993  11.931
45289W        W11830  10.372   8.136  13.576
45290W        W11831   3.880  24.609  12.213
45291W        W11832  12.244  14.406  10.626
45292W        W11833  33.090  23.110   3.895
45293W        W11834  20.890  23.641   1.189
45294W        W11835  32.001  22.286  13.444
45295W        W11836  33.967   7.256  13.960
45296W        W11837  12.637  20.625  13.316
45297W        W11838  27.512  10.166  13.927
45298W        W11839  24.201   3.509  14.024
45299W        W11840  44.564  23.314  13.137
45300W        W11841   5.880   4.250   0.974
45301W        W11842  25.754   5.527  11.099
45302W        W11843   4.011  12.763  11.936
45303W        W11844   6.762  20.643  13.477
45304W        W11845  35.037  27.440   1.999
45305W        W11846  26.590  14.334   0.747
45306W        W11847  42.510  36.887   2.966
45307W        W11848  15.047  21.163   0.389
45308W        W11849  30.570  17.922  14.870
45309W        W11850  30.657  27.467  12.169
45310W        W11851  19.909  42.217  14.546
45311W        W11852  12.197  21.958  10.462
45312W        W11853  30.611  26.056   3.836
45313W        W11854   0.582  35.198  11.365
45314W        W11855  23.604  42.822   0.812
45315W        W11856   3.387  34.044  13.333
45316W        W11857  44.481  25.996  11.524
45317W        W11858  17.151  16.256   2.665
45318W        W11859  31.563  41.876   1.722
45319W        W11860  20.270  17.771  14.232
45320W        W11861   3.933  21.966   3.327
45321W        W11862  15.588  10.789   3.658
45322W        W11863  13.038  25.578  12.582
45323W        W11864  10.876   9.176   2.694
45324W        W11865  18.623  26.528   2.721
45325W        W11866  34.079  29.388   2.847
45326W        W11867   2.048  28.613  14.669
45327W        W11868  40.826  27.062  12.984
45328W        W11869  27.052   7.295   4.565
45329W        W11870  12.178   2.476   1.296
45330W        W11871  22.671  18.610   3.607
45331W        W11872  17.123   2.546  14.918
45332W        W11873  26.500  32.949   0.578
45333W        W11874   8.459  21.687   1.922
45334W        W11875  18.770  16.298  10.729
45335W        W11876  16.576  12.544   2.413
45336W        W11877  39.405  24.428  13.384
45337W        W11878   5.839   2.239  13.517
45338W        W11879  42.092  36.739  13.055
45339W        W11880  37.504   0.343   2.273
45340W        W11881  11.219  12.368   1.864
45341W        W11882  38.303  12.090   2.642
45342W        W11883   7.395  43.418   3.994
45343W        W11884   1.027  26.198   1.231
45344W        W11885  21.997  16.105   4.553
45345W        W11886  34.584  14.599  13.330
45346W        W11887  35.184  25.544  12.497
45347W        W11888  41.158   5.935   3.000
45348W        W11889   3.205   0.391   3.735
45349W        W11890   8.169  29.209   4.119
45350W        W11891   7.974  27.531   3.598
45351W        W11892   7.748  36.972   0.389
45352W        W11893  21.086  44.543   1.288
45353W        W11894  44.422  37.164  14.295
45354W        W11895  25.941  24.960  11.990
45355W        W11896  24.553  36.020  11.836
45356W        W11897  13.716  39.137  11.101
45357W        W11898  14.183  44.803  12.110
45358W        W11899   5.786  28.945   2.116
45359W        W11900  38.778  44.409   1.492
45360W        W11901  34.576  38.617   2.090
45361W        W11902  27.921  40.784   4.552
45362W        W11903  21.710  14.717  13.851
45363W        W11904  24.995   1.782  11.635
45364W        W11905  10.235  43.867  10.305
45365W        W11906  19.534  12.879  12.748
45366W        W11907   4.675  39.463  13.751
45367W        W11908  38.008  25.217   3.833
45368W        W11909   8.185   6.077   4.080
45369W        W11910  41.206  21.433  12.253
45370W        W11911  22.105  29.069   0.805
45371W        W11912  18.056  17.488  13.744
45372W        W11913  14.662  10.321  10.102
45373W        W11914   2.379  23.944   2.231
45374W        W11915   8.804  29.221   4.984
45375W        W11916   1.486  44.553  14.803
45376W        W11917  40.536  25.348  13.437
45377W        W11918   7.075  17.027   1.801
45378W        W11919  36.451  12.080  12.365
45379W        W11920  32.664  32.612   3.302
45380W        W11921   0.720   6.276   4.100
45381W        W11922  40.148  15.338   2.844
45382W        W11923  22.224  22.404   2.782
45383W        W11924   9.170  17.475   0.923
45384W        W11925  40.775  27.947   2.387
45385W        W11926  22.927  15.864   0.278
45386W        W11927  33.100  31.109  10.824
45387W        W11928  14.841   1.515  12.620
45388W        W11929  40.512  12.675  10.713
45389W        W11930  25.623  30.637  13.993
45390W        W11931   9.264  11.667  12.096
45391W        W11932  43.883  29.087   2.069
45392W        W11933  14.227   6.642  12.077
45393W        W11934  37.770  42.295   1.577
45394W        W11935  24.499  39.316  13.337
45395W        W11936  20.885  35.796  10.168
45396W        W11937   5.178  37.496   2.310
45397W        W11938  25.559  28.179   1.310
45398W        W11939  38.305  23.002  14.571
45399W        W11940  10.310  25.658   2.759
45400W        W11941  27.391  32.491   2.464
45401W        W11942   9.798   9.352   1.745
45402W        W11943   9.239  11.379   4.518
45403W        W11944  39.408  16.650  10.860
45404W        W11945  32.714  26.648  11.213
45405W        W11946  42.822  29.366   4.127
45406W        W11947  17.646  31.850   3.785
45407W        W11948   9.536  12.298  13.884
45408W        W11949   0.346  39.425  12.093
45409W        W11950   4.401  32.548  12.016
45410W        W11951  39.915  34.019  11.937
45411W        W11952  21.678  13.862  10.866
45412W        W11953  17.552  26.915  13.967
45413W        W11954  31.104  23.155  14.384
45414W        W11955   5.843  25.874   1.276
45415W        W11956  21.718   0.046  12.112
45416W        W11957  18.243  32.162  13.316
45417W        W11958  15.779  11.263   0.859
45418W        W11959  23.456  21.132  13.138
45419W        W11960   2.781  39.965  14.379
45420W        W11961  33.544  32.140  12.470
45421W        W11962  34.071  41.784   2.153
45422W        W11963  22.039   5.430  14.834
45423W        W11964  25.158  12.059  14.928
45424W        W11965  37.189   7.379   4.703
45425W        W11966  36.486  39.419  11.144
45426W        W11967  28.942  41.385   1.364
45427W        W11968  15.163  43.055  11.013
45428W        W11969  28.637  12.229  12.416
45429W        W11970  24.193  39.979   4.438
45430W        W11971  31.399   1.037  11.746
45431W        W11972  24.596   5.735  11.386
45432W        W11973  39.625  24.745   3.222
45433W        W11974  35.866   9.721  11.261
45434W        W11975   5.635  23.204   3.136
45435W        W11976  41.494  30.054  11.138
45436W        W11977  33.176  10.627  10.207
45437W        W11978  42.532  39.894  10.541
45438W        W11979  34.038   6.831   0.328
45439W        W11980  20.680  28.473   1.734
45440W        W11981  18.171  26.605   1.627
45441W        W11982  18.671  16.806   1.954
45442W        W11983  13.134  33.187   1.441
45443W        W11984  27.622  26.645   4.878
45444W        W11985  25.458  38.317   0.475
45445W        W11986  28.123  13.994   4.987
45446W        W11987  23.472   3.435  10.272
45447W        W11988  34.198  29.915  10.745
45448W        W11989  36.335   1.926   2.717
45449W        W11990   2.256  16.666  12.536
45450W        W11991   5.758  31.356   1.360
45451W        W11992  35.670  28.462  11.996
45452W        W11993  11.866  24.467   0.465
45453W        W11994   4.195  21.241  14.298
45454W        W11995  29.596  17.634  14.953
45455W        W11996  38.127  38.933  13.376
45456W        W11997  23.471  34.465   1.731
45457W        W11998  40.784   2.902  14.039
45458W        W11999  32.021  41.025   0.284
45459W        W12000   0.179  15.650  12.563
45460W        W12001   3.507   0.378   1.627
45461W        W12002  28.502   2.788   2.752
45462W        W12003  23.479   4.471   2.733
45463W        W12004  29.635  33.280   4.836
45464W        W12005  26.745  13.594   2.697
45465W        W12006  31.708   9.224   1.861
45466W        W12007  28.218  33.837   0.812
45467W        W12008  24.551  32.035   1.606
45468W        W12009  30.596  18.054   0.396
45469W        W12010  20.702  31.874   3.501
45470W        W12011   3.627  25.150   1.085
45471W        W12012  11.662   6.351  11.169
45472W        W12013  21.133  31.730  11.933
45473W        W12014   7.483  29.049   0.028
45474W        W12015  34.564  32.590  10.639
45475W        W12016  42.604   9.311  13.942
45476W        W12017  16.599   5.324   0.749
45477W        W12018  22.075  18.578  12.339
45478W        W12019  25.037  44.105  10.996
45479W        W12020  15.808  39.864  13.117
45480W        W12021  28.450  17.544   0.343
45481W        W12022  18.363  17.248   4.059
45482W        W12023  32.686  40.437   4.656
45483W        W12024  33.667  43.105  10.607
45484W        W12025  15.529  42.442   3.679
45485W        W12026  17.274  15.132  12.901
45486W        W12027  21.948  19.793  11.916
45487W        W12028  16.314  30.052   2.858
45488W        W12029  10.320  44.375   4.166
45489W        W12030  10.961  18.247   1.124
45490W        W12031  14.391   6.580   0.365
45491W        W12032  28.822   1.260   1.634
45492W        W12033  11.912  26.897   0.040
45493W        W12034   4.813  40.897  13.994
45494W        W12035  16.211  32.888  13.223
45495W        W12036  44.011  22.131   1.183
45496W        W12037  14.342  37.534  11.808
45497W        W12038  32.336  41.448  12.498
45498W        W12039  35.425  38.445  14.768
45499W        W12040  44.918  19.595  14.470
45500W        W12041  21.620  44.609   3.861
45501W        W12042  13.821   3.338  13.025
45502W        W12043   0.227   2.356   0.739
45503W        W12044  43.317  24.763   5.121
45504W        W12045   9.343   3.376  11.585
45505W        W12046   0.404  23.100   2.644
45506W        W12047  24.697   3.958   1.289
45507W        W12048  15.716  13.583   0.114
45508W        W12049  20.251  39.118   0.754
45509W        W12050  35.493  33.708  13.290
45510W        W12051   4.429   8.148  14.478
45511W        W12052  29.781  30.215  11.650
45512W        W12053   3.708  25.983  12.832
45513W        W12054  27.893  12.757   3.022
45514W        W12055  13.944  31.518  13.963
45515W        W12056  33.895   9.313   2.169
45516W        W12057   4.414  36.747  11.720
45517W        W12058  23.122  28.133  13.279
45518W        W12059   7.238   2.930  14.135
45519W        W12060   3.578  35.809   2.432
45520W        W12061  22.587   2.890   2.810
45521W        W12062  19.655   6.338   0.292
45522W        W12063  11.771  11.523   1.323
45523W        W12064  30.457  28.557  11.085
45524W        W12065  19.545  32.111   2.492
45525W        W12066  13.743  18.640   0.856
45526W        W12067  16.311  31.378  11.189
45527W        W12068   5.944  44.135  11.479
45528W        W12069   0.782  12.386  11.140
45529W        W12070   4.360   6.459  12.890
45530W        W12071  12.685  37.329  13.687
45531W        W12072   6.716  27.598   0.920
45532W        W12073  39.273  38.508  12.614
45533W        W12074  17.776  44.036  13.999
45534W        W12075  35.523  32.137  14.966
45535W        W12076  36.888  10.757  13.575
45536W        W12077   7.225  24.033   3.697
45537W        W12078  13.744  37.060   4.124
45538W        W12079   2.571  25.395   9.887
45539W        W12080  29.204   7.986  11.193
45540W        W12081  40.861  17.126  12.629
45541W        W12082  17.227  28.415  13.650
45542W        W12083   4.317   5.908   1.868
45543W        W12084   1.775  40.614  13.822
45544W        W12085  29.578  37.748  12.496
45545W        W12086   8.300  44.976   3.226
45546W        W12087   7.043  43.788   1.934
45547W        W12088  33.569  35.701   1.132
45548W        W12089  18.470  31.985   2.730
45549W        W12090  37.890  13.780  11.760
45550W        W12091   9.235  12.849   1.459
45551W        W12092  36.035   3.150  12.787
45552W        W12093  39.003  16.816  11.126
45553W        W12094  22.540  29.167   0.059
45554W        W12095   4.329  43.750   9.968
45555W        W12096  23.048  39.048   0.469
45556W        W12097   3.961   3.836   2.216
45557W        W12098  23.068  20.187  12.922
45558W        W12099   2.122  33.013  13.856
45559W        W12100   3.962   3.456  11.694
45560W        W12101   4.271  44.319  12.494
45561W        W12102  22.562  41.794   0.513
45562W        W12103  15.836  23.434   2.882
45563W        W12104  20.221  42.480  13.877
45564W        W12105   8.926   1.714  11.163
45565W        W12106  22.550  42.625   0.981
45566W        W12107   4.407  26.975  13.095
45567W        W12108  31.145  38.369   2.391
45568W        W12109  17.073  32.225   1.779
45569W        W12110  43.997  31.054   4.532
45570W        W12111  43.168   0.213  13.384
45571W        W12112   1.553  43.809  11.122
45572W        W12113  32.128  41.349  12.013
45573W        W12114  41.871  34.346   2.786
45574W        W12115  11.161  40.520  10.627
45575W        W12116  24.604  42.132  11.530
45576W        W12117   9.546  22.182  13.477
45577W        W12118  20.710  19.220   4.596
45578W        W12119   4.680  11.396   4.066
45579W        W12120  23.842  29.292   4.441
45580W        W12121  25.103  42.977   4.075
45581W        W12122  17.090  20.568  14.653
45582W        W12123  41.774  16.568   3.828
45583W        W12124  20.041   7.517   0.007
45584W        W12125  36.781  26.191   2.677
45585W        W12126  29.234  27.174   3.230
45586W        W12127  20.924  36.498   2.011
45587W        W12128  20.099  33.136   0.463
45588W        W12129   2.724   4.841  13.892
45589W        W12130  18.757  13.891   3.075
45590W        W12131  40.085  42.518  11.588
45591W        W12132  25.863  20.125   1.282
45592W        W12133  28.382  42.005  11.221
45593W        W12134   0.402  13.303   3.300
45594W        W12135  27.533   7.286  12.291
45595W        W12136  31.800  41.578  12.880
45596W        W12137   3.448  23.277   3.644
45597W        W12138  22.875   7.994   3.689
45598W        W12139  16.072  27.366  11.479
45599W        W12140  10.316  29.693  11.641
45600W        W12141   6.167  32.527  11.837
45601W        W12142  44.334  25.893  13.520
45602W        W12143   0.775  37.649   3.253
45603W        W12144   9.196  37.639   0.853
45604W        W12145  40.381   3.644  11.264
45605W        W12146  35.102   9.358  11.121
45606W        W12147  24.016  20.340  10.889
45607W        W12148  28.545  15.652   3.622
45608W        W12149  39.873  43.993   1.834
45609W        W12150  28.894   1.411   4.377
45610W        W12151  14.868  37.581  14.962
45611W        W12152   4.653  36.619  11.278
45612W        W12153  22.974  41.910   0.263
45613W        W12154  29.182  22.314   2.697
45614W        W12155  20.294  31.562   0.406
45615W        W12156  43.984  31.131   2.773
45616W        W12157  31.258  33.454   5.019
45617W        W12158   2.382  32.437   4.172
45618W        W12159   8.266  16.141   3.374
45619W        W12160  28.035  24.419  13.383
45620W        W12161  34.027  40.938   1.503
45621W        W12162  21.609  35.021  10.976
45622W        W12163  37.392  27.273  11.167
45623W        W12164  18.253   4.750  11.092
45624W        W12165  33.569  36.042  12.071
45625W        W12166   4.796   5.846  12.599
45626W        W12167  39.917  18.918   4.594
45627W        W12168  17.723  33.549  14.260
45628W        W12169  19.999  44.884  10.746
45629W        W12170  42.362  38.931  13.020
45630W        W12171  28.458  22.685   4.418
45631W        W12172  14.519  28.615  10.282
45632W        W12173   3.712  29.565  13.631
45633W        W12174  20.134  28.292   1.855
45634W        W12175   9.295  22.400  13.912
45635W        W12176  10.944  20.739  11.591
45636W        W12177  39.271  20.025   0.968
45637W        W12178  36.995  11.160   2.396
45638W        W12179  13.756  43.881   1.955
45639W        W12180   0.347  10.957   4.123
45640W        W12181   6.272  33.324  11.556
45641W        W12182   5.107  35.014   2.538
45642W        W12183  30.585  12.840   0.892
45643W        W12184  20.091   0.420   3.621
45644W        W12185  24.706   8.279   1.441
45645W        W12186  11.168  37.999  12.352
45646W        W12187  32.911   8.230  14.851
45647W        W12188  31.092  18.722  12.856
45648W        W12189   2.719  30.072   1.334
45649W        W12190  34.987  29.641  10.521
45650W        W12191  17.766  31.047   0.080
45651W        W12192  39.472  20.518  13.295
45652W        W12193   0.227  35.287   1.930
45653W        W12194   3.455   8.481  12.754
45654W        W12195  44.311  44.760  13.790
45655W        W12196  26.223   5.303   0.320
45656W        W12197  43.169   5.687  13.698
45657W        W12198   5.591   3.213  14.961
45658W        W12199  42.494  28.591   2.890
45659W        W12200  10.422   9.219  14.315
45660W        W12201   9.429  30.480   3.670
45661W        W12202  17.083  32.459  14.056
45662W        W12203  41.029   5.698   0.474
45663W        W12204   2.303  36.142   4.601
45664W        W12205  13.083  19.186  10.620
45665W        W12206  26.313  11.798   3.251
45666W        W12207  16.668   0.214  12.752
45667W        W12208   0.259   1.822   4.162
45668W        W12209   9.829   8.208   1.954
45669W        W12210  22.431  35.656   1.719
45670W        W12211  17.277  25.027  13.616
45671W        W12212   1.230   3.355  13.977
45672W        W12213  40.702  21.643  12.956
45673W        W12214  27.120  19.850  14.588
45674W        W12215  42.590  30.059   1.274
45675W        W12216   5.882  12.812  11.516
45676W        W12217  13.881  16.659   3.673
45677W        W12218  17.606   3.464  11.232
45678W        W12219  44.418  44.760  10.452
45679W        W12220  14.739  29.663  11.988
45680W        W12221   2.207  32.275  11.391
45681W        W12222  26.509  42.747  11.127
45682W        W12223   3.357  36.810  12.898
45683W        W12224  40.259   1.241   2.835
45684W        W12225   1.787  18.285  12.646
45685W        W12226  26.306  22.282   2.285
45686W        W12227  17.386  35.382   2.301
45687W        W12228  26.312   3.396   3.245
45688W        W12229  24.768  28.901   4.302
45689W        W12230  23.212  26.037  12.944
45690W        W12231  17.091  31.528  12.487
45691W        W12232  35.651   8.386  13.425
45692W        W12233  25.740  20.688   0.450
45693W        W12234  43.422  27.134  10.655
45694W        W12235   3.374   0.704  13.876
45695W        W12236  34.338   1.335   2.814
45696W        W12237  20.130  26.152  10.573
45697W        W12238  13.829   8.514   3.752
45698W        W12239  11.608   9.245   1.633
45699W        W12240   5.713  34.828   4.667
45700W        W12241  23.031  40.402  11.537
45701W        W12242  31.619  27.501  12.052
45702W        W12243   3.546  33.272  10.791
45703W        W12244  24.782  19.337  11.143
45704W        W12245   5.725  32.480  11.488
45705W        W12246  25.935  41.937  13.397
45706W        W12247  15.143  15.545  13.800
45707W        W12248  20.112  34.367  11.096
45708W        W12249  24.518  31.883   3.818
45709W        W12250  44.460  37.548   0.329
45710W        W12251  32.012  33.487  10.082
45711W        W12252   0.246  37.044  12.538
45712W        W12253  16.736  33.930  12.139
45713W        W12254   8.700  43.478  11.548
45714W        W12255   3.301  35.413  13.126
45715W        W12256  33.968  35.765  14.427
45716W        W12257  28.344  40.366  13.397
45717W        W12258  23.686   1.677   2.978
45718W        W12259  23.008  38.517  11.309
45719W        W12260  34.621  44.094  12.471
45720W        W12261  28.909  37.861   3.168
45721W        W12262   8.384   7.747  13.523
45722W        W12263   5.814  15.302   2.694
45723W        W12264   2.314  12.344  11.812
45724W        W12265   7.935  26.919   1.860
45725W        W12266  12.564  15.618  12.309
45726W        W12267  40.076  29.151   2.129
45727W        W12268  30.742   8.892   4.904
45728W        W12269  23.479   5.672   3.606
45729W        W12270  10.398  21.169   2.298
45730W        W12271  26.212  17.308  13.895
45731W        W12272  17.405  12.752  11.120
45732W        W12273   5.450  23.020   0.144
45733W        W12274  13.113  23.158  14.848
45734W        W12275  19.981  13.190   4.547
45735W        W12276  22.175  21.000   0.784
45736W        W12277  16.929  33.314  13.532
45737W        W12278  40.943  17.527   1.254
45738W        W12279   1.422   2.756  13.880
45739W        W12280  41.937   9.235   0.698
45740W        W12281  44.514  19.273  11.282
45741W        W12282  35.888   7.835   0.584
45742W        W12283   7.647  33.383   3.109
45743W        W12284  27.909  16.263  11.722
45744W        W12285  19.600  13.719   3.503
45745W        W12286  17.243  27.042  13.032
45746W        W12287  40.920  11.492  13.832
45747W        W12288  31.078  10.182   3.162
45748W        W12289   9.311  14.707   1.874
45749W        W12290  25.121   5.788   4.973
45750W        W12291  26.193  14.053  13.113
45751W        W12292   8.421  41.362   4.089
45752W        W12293  41.038  34.422   4.388
45753W        W12294  23.216  41.629  11.926
45754W        W12295   0.739  33.850  13.515
45755W        W12296  29.843  22.470   4.517
45756W        W12297   4.008   0.174  12.543
45757W        W12298  38.511  37.122   3.143
45758W        W12299  30.065  36.848  14.743
45759W        W12300  26.879  31.217  11.651
45760W        W12301  35.147  24.042   4.844
45761W        W12302  26.082  40.853  12.934
45762W        W12303   2.188  19.748   2.831
45763W        W12304  16.508  17.653   2.763
45764W        W12305  19.974  11.264   4.529
45765W        W12306  34.277  11.276  14.346
45766W        W12307  20.625  12.774   4.168
45767W        W12308  14.401   6.774  10.681
45768W        W12309  40.039  43.782  10.318
45769W        W12310  20.004   0.934  13.165
45770W        W12311  34.816  21.437   2.721
45771W        W12312  33.277  44.650  11.002
45772W        W12313  15.639  44.479  12.015
45773W        W12314   6.553  41.806   2.486
45774W        W12315  23.152  25.227   2.653
45775W        W12316  16.679  38.467  10.431
45776W        W12317  28.398  10.704   0.727
45777W        W12318  24.537   2.367   4.227
45778W        W12319  16.783   8.981  10.460
45779W        W12320  17.167  15.261   2.734
45780W        W12321  29.339   9.146   4.137
45781W        W12322  25.909  36.798   4.667
45782W        W12323   9.809  11.540   2.593
45783W        W12324   8.768   9.445  12.503
45784W        W12325  37.837  44.678   4.269
45785W        W12326   2.368   1.246   5.438
45786W        W12327  11.898  30.102  13.537
45787W        W12328  24.218  26.195   2.086
45788W        W12329  36.455   7.368   3.363
45789W        W12330  34.675  36.076   3.312
45790W        W12331  17.549  29.671   0.357
45791W        W12332  24.684   2.422  11.485
45792W        W12333   7.131   5.805  12.701
45793W        W12334  40.721  30.425   0.402
45794W        W12335   4.292  42.095   0.662
45795W        W12336  42.756  39.485  10.814
45796W        W12337  35.975  33.549  14.489
45797W        W12338  26.956  30.414  14.159
45798W        W12339  18.813  28.022  14.875
45799W        W12340  39.681  18.048   0.538
45800W        W12341  23.601  35.177   4.967
45801W        W12342  20.218  17.264  13.410
45802W        W12343  17.743  32.184  10.201
45803W        W12344  19.243  11.376   1.019
45804W        W12345  33.402  25.548  12.449
45805W        W12346  38.630  40.375   0.961
45806W        W12347  33.594  31.418  11.534
45807W        W12348  23.286  17.558   4.514
45808W        W12349   4.693  25.704  14.944
45809W        W12350  10.546  14.096   0.939
45810W        W12351  13.186  32.568  14.075
45811W        W12352   3.567  12.262  12.656
45812W        W12353  36.955  16.095   0.404
45813W        W12354  31.681  29.412   4.350
45814W        W12355   0.561  41.342   0.943
45815W        W12356  33.604  38.836   3.695
45816W        W12357  38.849  29.200  13.485
45817W        W12358  41.144   5.290  11.621
45818W        W12359  23.160  35.596   2.267
45819W        W12360  20.354  18.265   1.325
45820W        W12361  22.419  12.406  10.218
45821W        W12362  13.206  38.329   1.032
45822W        W12363  39.840  37.810   2.850
45823W        W12364  13.334  32.569   3.223
45824W        W12365  40.490  13.280  14.803
45825W        W12366   8.290  42.373  12.642
45826W        W12367  44.716  16.260   1.891
45827W        W12368  41.800  32.882  11.191
45828W        W12369  39.521  43.069  12.634
45829W        W12370  30.993  44.428  13.932
45830W        W12371  36.405  31.353  13.540
45831W        W12372  37.762  38.968   3.612
45832W        W12373  39.998  16.502   4.951
45833W        W12374  12.069  29.449   0.265
45834W        W12375  11.362  20.111   1.900
45835W        W12376  11.560  25.180   1.735
45836W        W12377   6.693   1.972   3.951
45837W        W12378  37.178  31.030   3.647
45838W        W12379  30.048  22.619  10.672
45839W        W12380  43.769  26.599   5.089
45840W        W12381   4.825  10.646  14.085
45841W        W12382  28.421  33.995  11.565
45842W        W12383  21.827   0.266   1.867
45843W        W12384  21.272   5.335   0.753
45844W        W12385  25.717   7.938   0.707
45845W        W12386  14.156  39.110   1.081
45846W        W12387  12.271  18.846   0.623
45847W        W12388  28.846  29.291  11.178
45848W        W12389  31.015  13.767   4.197
45849W        W12390  13.673   4.733   4.114
45850W        W12391  40.937  26.604   2.438
45851W        W12392  20.014   4.822  12.981
45852W        W12393   1.174   2.608   3.842
45853W        W12394  19.519   4.935   3.201
45854W        W12395  17.924  44.530  11.268
45855W        W12396   6.309   3.380   1.289
45856W        W12397   6.013  37.541  10.968
45857W        W12398  40.615  10.126  13.349
45858W        W12399  33.461  33.626   2.326
45859W        W12400  43.628  36.262   5.014
45860W        W12401  21.158  30.748  13.105
45861W        W12402  40.159   1.436  11.084
45862W        W12403   3.004   9.230  13.887
45863W        W12404  41.975  35.475  12.989
45864W        W12405   9.261  10.894   2.301
45865W        W12406  41.079  11.090   5.351
45866W        W12407   1.411  24.078   2.267
45867W        W12408  37.408  20.373   2.964
45868W        W12409  41.848  36.430  13.403
45869W        W12410  28.034  22.150  10.668
45870W        W12411  31.121  22.011   1.397
45871W        W12412  33.459  27.202  10.522
45872W        W12413  40.335  31.356   3.215
45873W        W12414  24.280  17.497   4.359
45874W        W12415  23.714  24.271  11.985
45875W        W12416  30.468  35.853  11.215
45876W        W12417  37.311  18.033   1.498
45877W        W12418  15.117  32.881   3.194
45878W        W12419  42.456   3.681   0.603
45879W        W12420   0.583  15.165  11.495
45880W        W12421  17.556  16.307   4.528
45881W        W12422  40.011  29.609  13.432
45882W        W12423  26.497  41.477   1.831
45883W        W12424  13.655   6.235  13.315
45884W        W12425  10.818  40.446   3.805
45885W        W12426  15.600  33.549   2.159
45886W        W12427   8.632  31.522  13.529
45887W        W12428  22.232  33.499   4.878
45888W        W12429  43.355  30.690  12.229
45889W        W12430  30.581  23.549  12.945
45890W        W12431   6.829  40.793   0.852
45891W        W12432  19.142  16.593  11.645
45892W        W12433  24.315  43.807  10.707
45893W        W12434   0.316  28.975   2.077
45894W        W12435  25.575  41.550   1.876
45895W        W12436  23.278   1.794  12.003
45896W        W12437  44.982  18.165   1.718
45897W        W12438  22.594  25.385   2.077
45898W        W12439  30.491   4.671   2.666
45899W        W12440   4.850   8.445   3.096
45900W        W12441  33.206  26.628  11.312
45901W        W12442   5.446  30.449  14.908
45902W        W12443   5.503  34.989  12.504
45903W        W12444  24.494  30.374   3.597
45904W        W12445  11.179  18.706   2.436
45905W        W12446   2.528   8.835  13.503
45906W        W12447   4.001  40.033  13.520
45907W        W12448   8.591   3.915   3.642
45908W        W12449  33.544  42.661   2.713
45909W        W12450  13.322   8.769  13.963
45910W        W12451  16.223  34.829  13.951
45911W        W12452  35.583  18.181  11.519
45912W        W12453  14.632  26.441  14.378
45913W        W12454  30.226  43.742   4.208
45914W        W12455   2.938   3.759  13.599
45915W        W12456  34.469  26.147  14.174
45916W        W12457  36.096   8.096   4.492
45917W        W12458  37.410  23.525  13.736
45918W        W12459  35.591   6.841  14.409
45919W        W12460  11.087  31.604   3.702
45920W        W12461  23.466   6.828  13.346
45921W        W12462  16.822   6.230   2.438
45922W        W12463  30.693  17.807  13.036
45923W        W12464  39.566  19.312   0.217
45924W        W12465  39.347  25.119  10.706
45925W        W12466  36.632  21.325   3.338
45926W        W12467  14.254   2.920   3.708
45927W        W12468  32.091  43.741   4.835
45928W        W12469   2.985  20.471   0.436
45929W        W12470   5.513  14.525   2.825
45930W        W12471  13.461  10.180   9.852
45931W        W12472   7.500   3.649   5.066
45932W        W12473  13.675  16.425  14.500
45933W        W12474  40.091   5.725   1.403
45934W        W12475  42.734  35.872   0.262
45935W        W12476   6.854  33.636  14.977
45936W        W12477  15.116  33.473  12.050
45937W        W12478  10.125  14.719   1.283
45938W        W12479  34.609   9.019  12.836
45939W        W12480   6.783   8.666  12.434
45940W        W12481  40.175  22.112  12.448
45941W        W12482  26.499  12.669   3.144
45942W        W12483  14.110  29.770   0.365
45943W        W12484   8.260  13.635  14.061
45944W        W12485  27.290  18.733  10.781
45945W        W12486  22.603  30.982   0.741
45946W        W12487   4.350  31.530   3.146
45947W        W12488   7.204  16.611  12.785
45948W        W12489  28.039  41.413   0.488
45949W        W12490   5.649   4.719   4.166
45950W        W12491  16.887  24.221  14.960
45951W        W12492   3.862  27.194   3.271
45952W        W12493  30.167  40.011   2.973
45953W        W12494   0.293  17.483   4.870
45954W        W12495   5.963  15.081   0.867
45955W        W12496   0.675  21.463   3.270
45956W        W12497  34.297  17.851  12.902
45957W        W12498   5.229  41.829  10.264
45958W        W12499   2.877  13.759   2.220
45959W        W12500   0.917  20.537  13.581
45960W        W12501   2.961  11.277   4.339
45961W        W12502  11.508  37.952   1.950
45962W        W12503  38.876   2.427  10.777
45963W        W12504   2.529  16.193   2.614
45964W        W12505   8.438  32.935  13.416
45965W        W12506  38.376  18.637  11.134
45966W        W12507  40.452  28.178  13.456
45967W        W12508  40.771  34.603  11.625
45968W        W12509  20.484   2.549   0.486
45969W        W12510  15.011  21.759  11.926
45970W        W12511  21.443  15.540   4.971
45971W        W12512  13.339  33.250   0.952
45972W        W12513   1.343  11.905   4.687
45973W        W12514  19.278   0.999  13.324
45974W        W12515   6.671  26.543   4.086
45975W        W12516  35.776  12.144  11.903
45976W        W12517  42.697   6.402   4.709
45977W        W12518  33.646  13.173  12.101
45978W        W12519   8.823  22.589   2.288
45979W        W12520  23.719   5.914  10.191
45980W        W12521  40.301   9.331   2.925
45981W        W12522   9.623   7.114  14.560
45982W        W12523  18.641  23.320   4.882
45983W        W12524  42.941   8.299  13.352
45984W        W12525  17.259   8.232  10.716
45985W        W12526   4.814  14.616  14.019
45986W        W12527  24.066  38.856  14.889
45987W        W12528  43.194  39.930  12.370
45988W        W12529   6.198  15.897   4.579
45989W        W12530  37.432  19.981   3.337
45990W        W12531  21.416  42.736   2.287
45991W        W12532   0.519  40.005  14.809
45992W        W12533  26.860  39.160   3.683
45993W        W12534  29.886  31.894   0.260
45994W        W12535   1.896  37.063   4.709
45995W        W12536  26.873  16.858   3.556
45996W        W12537  27.995  15.251  13.746
45997W        W12538   7.734  44.667  12.258
45998W        W12539   1.953  16.736  12.942
45999W        W12540   9.760  38.353   3.604
46000W        W12541  43.388  28.088  11.649
46001W        W12542  28.648  37.432  10.677
46002W        W12543  35.703  24.606  13.888
46003W        W12544  24.169   4.962   3.827
46004W        W12545  44.981   4.680   0.218
46005W        W12546  38.523   6.702   1.587
46006W        W12547  32.544  17.841  14.480
46007W        W12548  38.529  10.853  14.450
46008W        W12549  26.166  43.384  11.631
46009W        W12550  31.927  29.848   3.178
46010W        W12551   6.835  18.515   1.948
46011W        W12552   4.362  25.774  12.474
46012W        W12553  28.496   1.284   1.240
46013W        W12554  39.153  11.058   1.703
46014W        W12555  30.683  30.225  12.967
46015W        W12556  43.255   6.223  13.182
46016W        W12557  27.162  22.185  13.983
46017W        W12558  18.199  16.804  14.459
46018W        W12559  38.409  28.039  10.599
46019W        W12560  32.183   9.624   3.116
46020W        W12561   8.333   7.664   1.204
46021W        W12562  14.332   1.848  13.816
46022W        W12563  21.227  39.784   4.293
46023W        W12564  44.452  19.716  13.352
46024W        W12565  20.160   2.257   2.422
46025W        W12566  24.111   0.748   0.373
46026W        W12567  36.838  29.642  12.977
46027W        W12568   1.840  21.303   9.724
46028W        W12569  30.251   5.346   3.273
46029W        W12570  39.478  12.207   3.287
46030W        W12571  35.085  38.015  13.522
46031W        W12572  20.688  39.692   2.610
46032W        W12573  43.046  39.538   3.287
46033W        W12574  23.573  38.982  10.824
46034W        W12575  13.621  27.419  12.410
46035W        W12576  33.873  17.069  11.142
46036W        W12577   2.066  30.221  12.799
46037W        W12578   9.745  18.139   2.022
46038W        W12579  19.016   4.181  11.576
46039W        W12580  31.221   3.572  13.396
46040W        W12581   0.679  23.223   1.504
46041W        W12582  21.779  44.024  10.413
46042W        W12583  18.632  15.368  12.528
46043W        W12584  15.544   6.026   1.983
46044W        W12585   0.131  36.682  11.527
46045W        W12586  40.103  10.179   4.683
46046W        W12587  37.957  30.881   1.369
46047W        W12588   6.330  43.730  12.884
46048W        W12589  37.371  34.287   3.795
46049W        W12590  26.764  20.499  12.448
46050W        W12591  31.615  21.301  13.147
46051W        W12592  28.892  34.006   2.735
46052W        W12593  17.486  38.768  11.960
46053W        W12594  21.828  22.496  12.563
46054W        W12595  21.125  26.360  11.258
46055W        W12596  30.062   2.222  13.399
46056W        W12597  44.288  38.016  10.469
46057W        W12598  42.683  37.279  11.404
46058W        W12599  20.535   4.725  10.690
46059W        W12600   2.649  15.141  12.948
46060W        W12601  21.701  31.014   2.604
46061W        W12602  24.746   8.912   3.167
46062W        W12603  22.304  35.186   3.676
46063W        W12604   1.559  39.671  14.000
46064W        W12605  17.348  36.642   0.257
46065W        W12606  13.649   1.754  12.983
46066W        W12607  40.298  17.082   4.186
46067W        W12608   0.389   9.389   1.301
46068W        W12609  40.921  29.245   2.764
46069W        W12610  38.976   7.227  14.373
46070W        W12611  43.847  23.035   3.816
46071W        W12612  33.165  16.156  13.836
46072W        W12613  15.659  22.533   4.512
46073W        W12614  23.123  14.586   4.627
46074W        W12615  32.425  29.406   0.386
46075W        W12616  11.674  32.888  12.887
46076W        W12617  24.525  44.659   4.187
46077W        W12618  20.466  28.275  12.051
46078W        W12619  31.420  18.613   0.828
46079W        W12620  13.593  38.315  12.668
46080W        W12621   0.253  18.491  11.207
46081W        W12622   0.830  39.286  10.886
46082W        W12623   6.677  23.190  11.631
46083W        W12624  32.747   2.201   2.249
46084W        W12625  35.825   1.712  12.406
46085W        W12626  31.842  18.159   4.082
46086W        W12627  35.795  16.249  11.715
46087W        W12628   0.610  39.028  14.809
46088W        W12629  19.499  25.849   3.519
46089W        W12630  18.795  18.643  12.622
46090W        W12631  14.606  43.152   4.390
46091W        W12632  18.525  15.661  14.222
46092W        W12633  38.893   1.266   1.243
46093W        W12634  13.317  17.810   0.263
46094W        W12635  21.256  40.810   3.651
46095W        W12636  28.520  39.074   2.367
46096W        W12637  15.283  37.819   2.291
46097W        W12638  33.331  11.121  11.565
46098W        W12639   2.226  33.281  11.130
46099W        W12640  20.564  18.302   0.850
46100W        W12641   2.256  29.074  12.631
46101W        W12642  14.041  16.559   4.540
46102W        W12643  37.556  10.377  11.487
46103W        W12644  11.714  42.527   1.869
46104W        W12645  38.921  18.606  11.871
46105W        W12646  17.434   9.186  11.238
46106W        W12647  40.493  43.343  14.472
46107W        W12648  37.135   4.335  12.193
46108W        W12649  12.108  38.863   0.717
46109W        W12650  17.122   9.221   2.140
46110W        W12651   5.798   5.250   5.062
46111W        W12652  32.674  33.431   1.668
46112W        W12653  35.969  30.994   3.174
46113W        W12654  29.121  13.797  12.023
46114W        W12655  37.876   2.309  14.032
46115W        W12656  31.191  11.928   0.296
46116W        W12657  40.946  40.791   3.621
46117W        W12658  22.203   0.339   2.471
46118W        W12659  34.129  22.654   4.816
46119W        W12660  32.537   8.068  11.560
46120W        W12661   5.648  23.161  11.349
46121W        W12662  13.264  20.606   3.697
46122W        W12663  25.959  18.670   1.284
46123W        W12664  34.032  24.499   1.323
46124W        W12665  38.100  11.248  10.673
46125W        W12666  40.555  36.384   0.090
46126W        W12667  11.775  36.973   3.966
46127W        W12668  22.050   0.825   2.689
46128W        W12669  39.492  32.944  14.488
46129W        W12670  16.068  31.520  11.615
46130W        W12671  43.679  15.014  10.618
46131W        W12672  11.413  39.647  14.939
46132W        W12673  36.074  12.995  12.395
46133W        W12674  15.874  18.187   3.731
46134W        W12675  43.279  22.768  12.107
46135W        W12676  29.638  44.175   9.843
46136W        W12677  16.105  29.021   0.778
46137W        W12678  13.284  36.264  13.458
46138W        W12679  40.117  41.332  10.656
46139W        W12680   5.380  34.661  13.913
46140W        W12681  40.275  24.915   3.780
46141W        W12682  25.657  11.510   0.162
46142W        W12683  33.866  35.868   3.671
46143W        W12684  32.545  25.687   0.434
46144W        W12685  33.027  30.464   2.375
46145W        W12686  38.490  43.038   1.693
46146W        W12687   5.200   7.349   2.743
46147W        W12688  35.004  32.308  10.567
46148W        W12689  26.945  16.525  12.492
46149W        W12690  42.759  32.421  14.940
46150W        W12691   3.641   9.771   4.650
46151W        W12692  42.943  43.330   1.253
46152W        W12693  13.688  15.086  11.535
46153W        W12694   8.213   3.296   1.069
46154W        W12695   5.453  12.651  13.104
46155W        W12696  42.082  27.449   3.563
46156W        W12697  37.825  28.074   3.748
46157W        W12698  16.829  32.515   0.045
46158W        W12699  27.014  39.400  11.615
46159W        W12700  41.901  34.612   4.069
46160W        W12701   4.213   4.351  11.971
46161W        W12702  41.993  26.609  13.386
46162W        W12703   6.312  30.691  13.370
46163W        W12704  15.122  10.355  14.896
46164W        W12705   2.321  17.178   1.271
46165W        W12706   2.735  29.370  12.010
46166W        W12707  14.700   3.245   4.509
46167W        W12708   8.154  18.250  14.100
46168W        W12709  39.060  13.101   9.868
46169W        W12710  41.987   9.801  14.955
46170W        W12711  27.437  18.450   1.258
46171W        W12712  40.853  30.599  14.902
46172W        W12713  15.844  13.671  10.792
46173W        W12714  42.339  17.285   5.035
46174W        W12715  39.597  42.291  11.590
46175W        W12716  33.963   7.811   3.882
46176W        W12717  13.815  23.137  12.006
46177W        W12718   0.954  29.109   3.020
46178W        W12719  26.636  24.464   0.213
46179W        W12720  24.200  14.829   3.028
46180W        W12721  17.778   4.272   2.741
46181W        W12722  37.381   1.730  13.506
46182W        W12723  20.389  26.298  10.995
46183W        W12724   5.821  30.575   2.865
46184W        W12725  40.963   0.391   4.209
46185W        W12726  20.164   1.927  14.932
46186W        W12727  36.682  33.377   2.698
46187W        W12728  14.503  37.378  14.041
46188W        W12729  11.638  32.381   1.375
46189W        W12730  38.921  10.606   4.629
46190W        W12731   8.874  27.999  14.175
46191W        W12732   7.814  11.544   3.602
46192W        W12733   0.965  22.296  12.913
46193W        W12734   4.382  26.440   3.612
46194W        W12735  33.138  24.519  10.780
46195W        W12736  31.839   1.333  13.580
46196W        W12737  18.579  14.812   0.271
46197W        W12738  40.941  21.209  11.841
46198W        W12739  40.298   1.601   4.051
46199W        W12740  39.479  11.783   3.653
46200W        W12741  17.120  20.284   4.142
46201W        W12742  18.207  10.283   4.364
46202W        W12743   6.679  42.850  12.992
46203W        W12744  11.784   0.069   0.763
46204W        W12745   8.690  14.751  12.355
46205W        W12746   1.000  21.253   1.808
46206W        W12747  37.604  30.021  14.450
46207W        W12748  25.165  28.064  11.587
46208W        W12749   7.744   6.865   1.852
46209W        W12750  21.890  38.695   1.832
46210W        W12751  14.108  29.182  13.360
46211W        W12752   3.245   5.926  12.139
46212W        W12753  35.545  24.257   0.296
46213W        W12754   4.006  30.554   2.362
46214W        W12755  43.952   1.102  12.320
46215W        W12756   1.431  35.928   2.849
46216W        W12757  13.234  36.875   3.289
46217W        W12758  11.614  31.937  12.022
46218W        W12759  36.765  43.529  12.352
46219W        W12760  31.521   7.632  14.086
46220W        W12761  44.062  23.037  11.267
46221W        W12762  38.582   4.437   1.397
46222W        W12763  19.250   2.963  13.021
46223W        W12764  17.124  26.847  14.314
46224W        W12765  28.926  44.874  13.989
46225W        W12766  33.218  20.685  10.797
46226W        W12767  16.031  24.060   1.847
46227W        W12768  22.775  43.972  12.831
46228W        W12769  18.314  15.340  12.117
46229W        W12770  12.526   1.471  13.817
46230W        W12771  44.230  39.974  14.021
46231W        W12772  43.809  20.394  11.157
46232W        W12773   2.466  44.180  14.878
46233W        W12774  14.740  10.400  12.603
46234W        W12775  32.341  31.655  11.216
46235W        W12776  35.428  27.152   0.954
46236W        W12777  14.749   4.613  14.129
46237W        W12778  32.287   3.824  13.076
46238W        W12779  38.310  25.680  11.095
46239W        W12780  27.197   0.563   1.863
46240W        W12781  36.973  17.733  11.517
46241W        W12782   9.088  22.173  12.273
46242W        W12783  24.112   7.432   3.164
46243W        W12784  21.548  24.928   1.445
46244W        W12785  22.294   3.095  12.464
46245W        W12786   8.159  16.834   0.831
46246W        W12787  43.738  36.143  12.182
46247W        W12788  28.096  31.485   0.716
46248W        W12789   9.932  40.532   2.210
46249W        W12790  40.523  38.624  11.202
46250W        W12791  12.089   4.328   3.334
46251W        W12792   8.896   8.470   1.482
46252W        W12793  44.005  31.980  11.106
46253W        W12794  10.737  30.176  11.067
46254W        W12795  21.124   2.023   0.744
46255W        W12796  32.958   3.444   1.018
46256W        W12797  23.631  32.887   1.349
46257W        W12798   2.288  42.802  11.859
46258W        W12799  31.881  13.139   2.813
46259W        W12800  44.986   2.003   3.759
46260W        W12801   2.173  25.982   4.996
46261W        W12802  32.672  10.178   0.290
46262W        W12803   8.919  25.434   1.094
46263W        W12804  10.268  40.356  10.767
46264W        W12805  11.709  40.035  14.733
46265W        W12806  33.942   7.829  13.040
46266W        W12807  25.051  40.737   0.847
46267W        W12808  42.715  31.617   4.688
46268W        W12809  11.257  21.024   1.569
46269W        W12810   3.301  16.056  13.527
46270W        W12811  32.070  20.470   3.226
46271W        W12812  39.371  26.014  12.995
46272W        W12813   4.720  12.982   5.047
46273W        W12814  32.078   8.582  11.818
46274W        W12815  25.583  38.427  11.829
46275W        W12816  41.274  39.410   1.520
46276W        W12817   8.283   9.895   3.206
46277W        W12818  35.775  37.883   0.238
46278W        W12819   1.125  44.157   5.003
46279W        W12820  44.192   3.663   4.169
46280W        W12821  44.393  33.211   2.754
46281W        W12822  37.368  34.927  13.981
46282W        W12823   1.898   3.263  14.330
46283W        W12824   3.756  29.084  14.874
46284W        W12825   6.934  28.607  12.937
46285W        W12826   7.870  32.633   2.681
46286W        W12827  29.628  23.109  11.664
46287W        W12828  23.071  20.499  11.895
46288W        W12829  37.142  14.541  12.453
46289W        W12830  24.093  16.577  11.908
46290W        W12831  35.372  14.734   1.439
46291W        W12832  26.401  19.975   4.046
46292W        W12833   3.886  30.912   5.513
46293W        W12834  37.368  27.481  13.106
46294W        W12835  44.365  35.477   0.775
46295W        W12836  36.982   0.514   4.359
46296W        W12837   8.448  44.036  13.792
46297W        W12838  44.738   2.478   1.854
46298W        W12839  42.099   8.322   3.826
46299W        W12840  21.018  14.224   2.806
46300W        W12841  43.976  36.004  11.242
46301W        W12842  11.153   9.898  13.277
46302W        W12843  29.108   0.280  10.677
46303W        W12844  43.834   1.961   1.895
46304W        W12845  22.239   4.454   1.154
46305W        W12846  25.484  19.845   2.041
46306W        W12847  18.809  18.138  12.089
46307W        W12848  14.697  11.165  11.186
46308W        W12849   5.662  38.197   1.386
46309W        W12850  40.865  32.005   1.283
46310W        W12851  41.910  17.037  11.176
46311W        W12852   5.686  18.777  14.845
46312W        W12853  39.102  28.976  13.871
46313W        W12854   5.116   4.892  12.605
46314W        W12855  28.913   2.892   0.004
46315W        W12856  44.069   4.280  10.959
46316W        W12857   1.828  20.453   1.776
46317W        W12858  20.793  29.091  11.644
46318W        W12859  34.452   3.275   0.463
46319W        W12860   1.888  14.792   0.329
46320W        W12861  38.335  34.341  12.555
46321W        W12862  40.905   7.362   1.832
46322W        W12863   4.213  44.284  13.029
46323W        W12864  30.832  22.262  14.427
46324W        W12865   9.204  37.942  10.630
46325W        W12866   2.947  23.470   2.791
46326W        W12867  16.726  14.103  13.502
46327W        W12868  13.996  44.530   5.089
46328W        W12869   9.924  44.194   0.981
46329W        W12870  42.063  25.028  13.899
46330W        W12871  13.244   4.360   0.755
46331W        W12872  37.716  11.974  11.872
46332W        W12873  15.895   7.813  11.555
46333W        W12874  40.027   3.799   3.912
46334W        W12875  29.043  31.126   0.237
46335W        W12876   2.550  12.212   3.765
46336W        W12877  22.907  12.908  14.803
46337W        W12878  38.656  40.102   2.203
46338W        W12879  15.177  14.707   5.010
46339W        W12880  15.818   2.993  12.272
46340W        W12881  16.129   9.061   4.180
46341W        W12882  27.492  17.151   2.735
46342W        W12883  22.594  13.789   0.264
46343W        W12884  41.553  29.940   4.591
46344W        W12885  42.427  39.134  12.120
46345W        W12886   1.902  41.427   1.379
46346W        W12887  24.124  29.120  14.037
46347W        W12888  17.880  13.196   2.797
46348W        W12889   8.371  41.943   1.987
46349W        W12890  39.129  32.071  12.094
46350W        W12891  32.075  25.687  14.235
46351W        W12892  43.882  10.417   0.892
46352W        W12893   2.407   9.831   1.263
46353W        W12894  36.961  26.135   3.652
46354W        W12895  24.468  25.584   3.217
46355W        W12896  18.562  21.251   2.168
46356W        W12897  15.222  39.413   1.699
46357W        W12898  31.643   2.990   1.925
46358W        W12899  19.077   7.743  11.896
46359W        W12900  43.948  24.470   4.161
46360W        W12901   4.732  10.423   2.760
46361W        W12902  33.101  11.222   3.206
46362W        W12903  37.986  41.089  11.124
46363W        W12904   7.731  10.797  13.183
46364W        W12905  26.051  42.232   0.909
46365W        W12906  43.057  39.865  10.570
46366W        W12907   5.484  44.842  13.958
46367W        W12908  41.889  32.026  11.634
46368W        W12909  37.001  40.683   4.184
46369W        W12910   7.357  34.961   0.526
46370W        W12911  44.659  12.239  13.970
46371W        W12912  44.950   9.047   3.235
46372W        W12913   0.447  41.505  10.702
46373W        W12914  34.172   8.312   3.892
46374W        W12915  31.352  24.399  13.535
46375W        W12916  12.288  31.753  14.314
46376W        W12917   0.418  17.491   3.842
46377W        W12918  25.264   9.041  11.158
46378W        W12919  13.114  23.653  12.514
46379W        W12920  35.873  24.500  14.382
46380W        W12921  15.231   3.475   4.478
46381W        W12922  30.437  39.511   0.992
46382W        W12923  29.112  11.588   1.695
46383W        W12924   8.907  18.696  13.799
46384W        W12925   7.107  17.749   3.676
46385W        W12926  21.088  37.316  12.038
46386W        W12927  13.595  30.146   4.145
46387W        W12928   8.394   3.033   3.951
46388W        W12929  38.393  23.257  10.817
46389W        W12930  13.186  41.493  14.587
46390W        W12931   1.538  26.267   1.343
46391W        W12932   7.182  12.622  14.868
46392W        W12933  27.624   8.799   4.527
46393W        W12934  35.013  31.051   0.094
46394W        W12935  36.554   5.217   1.815
46395W        W12936  24.959   7.826  12.007
46396W        W12937  17.345  34.165  11.148
46397W        W12938   6.887  10.733   0.017
46398W        W12939  27.583   9.414   0.328
46399W        W12940   6.539  24.500  11.943
46400W        W12941  38.619  42.555  14.997
46401W        W12942  11.179   8.244  14.938
46402W        W12943   1.452  38.615  11.180
46403W        W12944  22.230  39.924   2.569
46404W        W12945  17.027  35.465  10.708
46405W        W12946  17.963  36.781  12.399
46406W        W12947   8.704  36.490   2.237
46407W        W12948   4.837   9.197   4.572
46408W        W12949  12.974  44.812  14.867
46409W        W12950  44.982  15.694   4.541
46410W        W12951  13.092  31.887  12.565
46411W        W12952  37.502   8.728  10.622
46412W        W12953  33.889   5.883   3.109
46413W        W12954   0.887  15.084   0.354
46414W        W12955  20.963  10.925   3.718
46415W        W12956  12.733  30.563   3.758
46416W        W12957  11.310  23.683  14.861
46417W        W12958  23.069   3.361  10.630
46418W        W12959   6.287  19.352  11.563
46419W        W12960  17.017  24.801  10.159
46420W        W12961   2.388  17.126  11.972
46421W        W12962   0.745  25.387   4.764
46422W        W12963  43.442  22.750   0.358
46423W        W12964  18.115   3.162   2.331
46424W        W12965  34.877  35.996  13.470
46425W        W12966  11.581  35.343   1.461
46426W        W12967  22.028   0.902   4.413
46427W        W12968  37.483  39.554  12.874
46428W        W12969   5.945   3.077   5.007
46429W        W12970   6.623  20.959   1.325
46430W        W12971  44.795  37.368  13.495
46431W        W12972  33.539  16.225   0.141
46432W        W12973   9.823  19.723  11.963
46433W        W12974  22.774   4.361   3.165
46434W        W12975  13.742  22.583   1.511
46435W        W12976   5.404  30.601  10.128
46436W        W12977  22.832  27.686   3.528
46437W        W12978  21.494  40.365   3.520
46438W        W12979   6.894  26.099   1.972
46439W        W12980   8.686  25.205  14.190
46440W        W12981  39.795  35.078   4.089
46441W        W12982   0.968  19.091   2.816
46442W        W12983  28.958  37.813  11.880
46443W        W12984   3.343  35.509  14.916
46444W        W12985   9.405  20.275   2.411
46445W        W12986   5.725  14.347  13.441
46446W        W12987  14.804  38.895   1.836
46447W        W12988  23.850  17.187  12.604
46448W        W12989  42.011  43.867   0.437
46449W        W12990  22.120   3.057   2.656
46450W        W12991  37.140  22.184  10.213
46451W        W12992   2.256  16.510   3.338
46452W        W12993  20.839  11.274  11.164
46453W        W12994  26.472   2.059  11.571
46454W        W12995  20.675  37.529  11.815
46455W        W12996  22.118  31.868   1.307
46456W        W12997   6.510   0.809  10.582
46457W        W12998   0.407  14.363   1.903
46458W        W12999  27.938  14.769   3.366
46459W        W13000  19.711  44.788   3.127
46460W        W13001   3.450  36.488  10.670
46461W        W13002   7.429  25.058   4.816
46462W        W13003  40.693  22.246   3.218
46463W        W13004  18.063   2.994  11.561
46464W        W13005   0.022  37.834   3.770
46465W        W13006  13.682  27.365   3.024
46466W        W13007  27.615  13.922  13.893
46467W        W13008  13.778  33.323  14.008
46468W        W13009   1.887  19.561   1.211
46469W        W13010  32.555  41.084  11.919
46470W        W13011  31.392   9.275  12.147
46471W        W13012  19.497  31.601  11.159
46472W        W13013  11.155  24.729  12.046
46473W        W13014  38.644  43.586   1.470
46474W        W13015  11.647   7.422  13.369
46475W        W13016  40.584   9.234   3.800
46476W        W13017  18.073  11.895   4.751
46477W        W13018  28.112  40.533   4.118
46478W        W13019  15.803   9.155   1.295
46479W        W13020  34.734   3.524  13.917
46480W        W13021  23.285  24.484  11.041
46481W        W13022  39.038  26.655  13.400
46482W        W13023   6.464   4.437  11.743
46483W        W13024  43.007  30.226  11.002
46484W        W13025  18.270  17.755  12.502
46485W        W13026   1.823  17.601   2.298
46486W        W13027  31.120  15.741  10.717
46487W        W13028  13.305  41.802   0.667
46488W        W13029  15.072  24.385   3.380
46489W        W13030  37.484  39.356   1.319
46490W        W13031  39.380   7.725   0.889
46491W        W13032  13.434  37.134  13.898
46492W        W13033  42.321  34.161  13.433
46493W        W13034  15.612  39.736  12.411
46494W        W13035  20.656   6.472   4.970
46495W        W13036  19.730  26.762  12.119
46496W        W13037  38.738   6.704  12.949
46497W        W13038  28.158  41.916   4.179
46498W        W13039  31.743  37.001   1.481
46499W        W13040  40.550   8.746   2.441
46500W        W13041  12.486  11.036   3.888
46501W        W13042  17.216  29.194   3.285
46502W        W13043  31.077  12.291  13.347
46503W        W13044   9.276  13.676  14.512
46504W        W13045  25.703   5.231  14.340
46505W        W13046  41.213  17.492   5.524
46506W        W13047   8.517   5.743   2.311
46507W        W13048  40.058  26.965  11.663
46508W        W13049  40.010  17.831  10.706
46509W        W13050   5.325  33.198   2.680
46510W        W13051  17.457  41.527   3.629
46511W        W13052  18.534   9.444   0.827
46512W        W13053  24.941   2.412  13.486
46513W        W13054  16.388   8.769  10.696
46514W        W13055  38.993  40.724  11.931
46515W        W13056  34.397  37.367   2.725
46516W        W13057  35.167  12.418  13.857
46517W        W13058  28.617  23.582   0.351
46518W        W13059  35.317   1.328  10.616
46519W        W13060  41.317  11.732  10.327
46520W        W13061  25.997   5.055  12.128
46521W        W13062  33.083  31.147  13.318
46522W        W13063  12.118  26.593  11.581
46523W        W13064  12.728  23.900   0.796
46524W        W13065  15.060  33.892  12.964
46525W        W13066  43.258   5.709  11.878
46526W        W13067  16.209  15.600  11.154
46527W        W13068  16.202   9.151   2.238
46528W        W13069   5.640   6.137  11.031
46529W        W13070  41.584  43.867   0.081
46530W        W13071  34.524  31.769   1.419
46531W        W13072  13.126  37.817  11.836
46532W        W13073  13.107  14.320   0.759
46533W        W13074  24.508   1.661  14.189
46534W        W13075  34.315   1.967   0.413
46535W        W13076  31.445  14.054   4.160
46536W        W13077   6.253  19.943  13.787
46537W        W13078  34.029  31.437   0.836
46538W        W13079  15.597  20.845   1.170
46539W        W13080  44.562  25.153   2.189
46540W        W13081  18.357   3.941   1.804
46541W        W13082  34.175  39.398   2.194
46542W        W13083  30.913  37.414  12.108
46543W        W13084  43.317   6.844   3.714
46544W        W13085  24.057  17.120  11.575
46545W        W13086  28.467  14.795  14.450
46546W        W13087  36.909  42.438   0.315
46547W        W13088  42.086  29.458  11.702
46548W        W13089  11.379  38.274  14.315
46549W        W13090   6.403  41.550   0.706
46550W        W13091  40.860   1.944   3.166
46551W        W13092   4.293  14.733   0.821
46552W        W13093  27.338   9.234   1.303
46553W        W13094   0.620  17.333  11.769
46554W        W13095  25.387   5.277   5.484
46555W        W13096  23.711  38.504  14.972
46556W        W13097  29.410   7.235  14.491
46557W        W13098  17.919  26.287  11.130
46558W        W13099  44.444  25.097   2.701
46559W        W13100  44.994  26.507   1.747
46560W        W13101  24.025  29.358   2.250
46561W        W13102  18.083  23.960  11.726
46562W        W13103   8.261  33.902   3.494
46563W        W13104  31.981  29.327   3.033
46564W        W13105  21.340  19.693   0.453
46565W        W13106  21.129  21.773   0.275
46566W        W13107   7.017  29.458   3.562
46567W        W13108  19.064  44.364  12.774
46568W        W13109  43.338   9.108  11.306
46569W        W13110  32.626  10.245   1.692
46570W        W13111  39.474  26.895  11.897
46571W        W13112  29.952  31.155  11.598
46572W        W13113  10.779  10.925   1.007
46573W        W13114   7.885  20.524   1.728
46574W        W13115  32.770  31.827   1.011
46575W        W13116  23.176   5.662   0.824
46576W        W13117  27.164  11.274  14.602
46577W        W13118  29.726   7.727  12.017
46578W        W13119  22.385  15.062   2.973
46579W        W13120  44.463  35.880  14.934
46580W        W13121  14.152  36.804   1.722
46581W        W13122   8.419  44.566  10.519
46582W        W13123  15.033  33.046  10.753
46583W        W13124  30.238   1.695   0.402
46584W        W13125   1.060  12.258   3.458
46585W        W13126  20.690  16.812  11.369
46586W        W13127  21.328   7.201   3.162
46587W        W13128  37.946   2.256  12.970
46588W        W13129   4.186   2.450  14.359
46589W        W13130  24.563   6.605   0.880
46590W        W13131  13.134  25.740  11.489
46591W        W13132  10.793   3.224   3.824
46592W        W13133  28.904   7.206   1.164
46593W        W13134   4.344   2.679   3.181
46594W        W13135  14.735  24.729   1.648
46595W        W13136   0.468  29.253  14.466
46596W        W13137  20.665  38.961  14.766
46597W        W13138  29.380  11.340  14.923
46598W        W13139  25.399  24.678  12.053
46599W        W13140   3.041   5.436  12.343
46600W        W13141   1.954  19.142   0.399
46601W        W13142  14.044  23.776   1.014
46602W        W13143  44.265  26.448  12.279
46603W        W13144  12.571  26.858   2.801
46604W        W13145  28.752   0.283   1.029
46605W        W13146  42.971  43.874  11.223
46606W        W13147  20.173  11.935   4.036
46607W        W13148  11.845  15.584  11.121
46608W        W13149  42.111  31.741  13.432
46609W        W13150  23.679  41.432  12.389
46610W        W13151   2.852  36.364   3.355
46611W        W13152  31.130  22.089  13.313
46612W        W13153   0.784  44.861   1.806
46613W        W13154   2.684  41.413   4.234
46614W        W13155  42.776  21.080  14.580
46615W        W13156   3.398  20.636  11.642
46616W        W13157  20.145  27.143   4.494
46617W        W13158  34.452  35.464   1.780
46618W        W13159   6.313  30.856  10.876
46619W        W13160   8.388  21.260   0.339
46620W        W13161  38.877  19.136   3.407
46621W        W13162   4.690  17.525  11.233
46622W        W13163  10.998   2.471   1.451
46623W        W13164  15.047  10.796   3.605
46624W        W13165  28.977   5.177  12.940
46625W        W13166  20.217  39.247  12.424
46626W        W13167  19.676  16.795  14.971
46627W        W13168  24.575  42.872   2.355
46628W        W13169  43.759   7.577  10.852
46629W        W13170  10.757  30.953   0.684
46630W        W13171  13.205  23.995   0.275
46631W        W13172   0.297  17.787   1.298
46632W        W13173  18.258  22.954   4.066
46633W        W13174   7.902  36.038  11.298
46634W        W13175   0.043  42.082   0.305
46635W        W13176   5.056  30.546  10.537
46636W        W13177  41.427  10.414   4.788
46637W        W13178  31.837  39.885  10.118
46638W        W13179  16.880  36.464   0.100
46639W        W13180  25.882   5.913  12.590
46640W        W13181  14.166  32.620  14.932
46641W        W13182  34.184  13.144   2.096
46642W        W13183  39.590  37.251  13.907
46643W        W13184  29.075  22.380   0.226
46644W        W13185  18.023  21.548   3.618
46645W        W13186  11.756  33.848  11.082
46646W        W13187  36.920  41.599  11.069
46647W        W13188  42.151  18.663   0.479
46648W        W13189  10.291  15.673  11.950
46649W        W13190   9.130  13.615  12.419
46650W        W13191  29.714  38.871  12.126
46651W        W13192  38.319  24.674   4.336
46652W        W13193   7.923  25.873  14.853
46653W        W13194   2.963  40.909  13.596
46654W        W13195  23.504  10.382  14.145
46655W        W13196  27.065  27.496   4.836
46656W        W13197   5.494  38.817  14.825
46657W        W13198  26.381  31.359  10.940
46658W        W13199  27.055  39.828   2.790
46659W        W13200  39.978  32.400   4.494
46660W        W13201  10.871  15.374   0.619
46661W        W13202  33.072  42.925   2.672
46662W        W13203  26.677  22.968  14.800
46663W        W13204  16.003  27.214   0.699
46664W        W13205   0.470  19.950  11.028
46665W        W13206  19.001  10.456   0.960
46666W        W13207   2.181   4.550   4.228
46667W        W13208  33.497  18.506   2.737
46668W        W13209  14.048   1.015   1.198
46669W        W13210  13.069  31.096  12.388
46670W        W13211   5.270  42.079  10.734
46671W        W13212  43.225  18.683  14.432
46672W        W13213  33.481  11.284   2.102
46673W        W13214  40.859   7.914  12.865
46674W        W13215   1.873   7.249   4.614
46675W        W13216  28.172  21.597  14.849
46676W        W13217  23.987  42.816   1.471
46677W        W13218  24.325  39.946   2.528
46678W        W13219  10.986  43.777  13.013
46679W        W13220  11.948  21.055   4.125
46680W        W13221   3.892  29.711  12.179
46681W        W13222  11.173  35.498  12.314
46682W        W13223  34.094  37.405   0.000
46683W        W13224  30.001  21.576  13.249
46684W        W13225  21.255  24.274   0.516
46685W        W13226  35.182   2.355  12.489
46686W        W13227  16.225   0.496  10.568
46687W        W13228  24.145  36.743  12.040
46688W        W13229  38.835  10.184  13.008
46689W        W13230   3.922  34.850   1.849
46690W        W13231  12.873  40.321   0.456
46691W        W13232  32.806  13.818   4.527
46692W        W13233  32.026  27.050  13.555
46693W        W13234  33.309  20.830   4.136
46694W        W13235  28.223   4.247  11.373
46695W        W13236  32.444  35.856  11.179
46696W        W13237  20.174   6.877   4.102
46697W        W13238   3.693  33.053  12.486
46698W        W13239   1.416   7.664   1.804
46699W        W13240  19.947  40.801   3.726
46700W        W13241  18.436  28.601  12.752
46701W        W13242   6.273   5.701  10.564
46702W        W13243   6.305  18.593  10.702
46703W        W13244  23.196   2.265   0.519
46704W        W13245  29.153  14.718  11.620
46705W        W13246   2.505  30.602  14.895
46706W        W13247   6.149  23.057   4.050
46707W        W13248  26.238   2.315   1.515
46708W        W13249  43.989  17.060  14.946
46709W        W13250  17.181  38.014   1.290
46710W        W13251  40.866  44.191   1.346
46711W        W13252  20.517  20.169   4.596
46712W        W13253  12.708  20.567   1.378
46713W        W13254  12.885  41.532  12.272
46714W        W13255   5.188   1.249   9.782
46715W        W13256  10.404  24.494  12.538
46716W        W13257  26.509   5.249   1.507
46717W        W13258  28.968  18.675  13.499
46718W        W13259  37.303  40.379  13.606
46719W        W13260  11.376  41.700  12.989
46720W        W13261  32.773  26.922  13.993
46721W        W13262  28.687  10.119  10.725
46722W        W13263  37.460  11.791   2.577
46723W        W13264  12.870   1.353  13.428
46724W        W13265  37.281  11.181   3.812
46725W        W13266  43.544  23.604  12.312
46726W        W13267  15.207   7.843   4.202
46727W        W13268  30.669  38.933   4.082
46728W        W13269  21.010  19.692   0.857
46729W        W13270  10.696  30.427   0.756
46730W        W13271  18.093   4.348  14.790
46731W        W13272  30.478  30.668  14.072
46732W        W13273  27.191   4.883   2.793
46733W        W13274  21.116  22.103   2.664
46734W        W13275  40.245  37.804  11.684
46735W        W13276  13.618  17.796  13.794
46736W        W13277  29.296  30.538   4.578
46737W        W13278  12.831  22.718  11.500
46738W        W13279  39.075   3.677  10.415
46739W        W13280  17.861  39.550   1.892
46740W        W13281  36.880  42.943   4.719
46741W        W13282  44.481  31.313  13.443
46742W        W13283  23.733   3.306  14.012
46743W        W13284   1.863   1.912   4.978
46744W        W13285  31.409  36.912  11.229
46745W        W13286  44.995   2.360   4.199
46746W        W13287   5.103  31.114   2.322
46747W        W13288  36.389   9.218  11.805
46748W        W13289  44.553   3.490  12.911
46749W        W13290  44.026  41.535   3.303
46750W        W13291  10.702  26.480  14.451
46751W        W13292  44.241  12.346   4.184
46752W        W13293  20.244  14.145   2.295
46753W        W13294   6.453  30.952  14.477
46754W        W13295  30.516  27.444  13.558
46755W        W13296  19.274   4.834  11.131
46756W        W13297   1.803  24.596   0.882
46757W        W13298  42.472  27.483  11.597
46758W        W13299  20.596   2.184  11.636
46759W        W13300  18.162   2.788  13.810
46760W        W13301  40.503  23.671   0.911
46761W        W13302  18.021  38.851  12.026
46762W        W13303  42.200  23.454   3.369
46763W        W13304  15.217  42.844   1.180
46764W        W13305  41.765  19.293   0.678
46765W        W13306  20.112  18.813  13.064
46766W        W13307  29.873  13.217  14.963
46767W        W13308  22.063  35.483   4.716
46768W        W13309  37.273  36.742  13.882
46769W        W13310   8.420  28.032  12.405
46770W        W13311   4.044  36.188  12.008
46771W        W13312   2.312  35.818   1.785
46772W        W13313  36.987  30.097  11.211
46773W        W13314   5.667  41.586  10.182
46774W        W13315  12.067  30.288   3.577
46775W        W13316  17.903   1.470   0.891
46776W        W13317  19.740  42.316  14.079
46777W        W13318   1.140  21.584   4.710
46778W        W13319  16.350  12.759   3.703
46779W        W13320   7.672  30.834  13.917
46780W        W13321  32.369  41.543   2.060
46781W        W13322  44.594  38.009   0.855
46782W        W13323  24.114  21.633  11.568
46783W        W13324  13.660  33.389   1.983
46784W        W13325  43.782  33.907   3.906
46785W        W13326  33.040  36.024  11.943
46786W        W13327  42.549  27.861   4.774
46787W        W13328  35.105  17.655   4.757
46788W        W13329   3.371  23.507  10.800
46789W        W13330  18.674  36.390  14.021
46790W        W13331  37.465  21.793   3.082
46791W        W13332  26.581  42.449  14.972
46792W        W13333  44.958  44.537  12.424
46793W        W13334   5.858  25.034   0.829
46794W        W13335  16.105  40.721  11.058
46795W        W13336  23.729  20.126   2.439
46796W        W13337  25.731  35.517  13.947
46797W        W13338  25.622  40.943  10.788
46798W        W13339  40.388  35.149  12.971
46799W        W13340  34.180  10.686  14.034
46800W        W13341  33.507  14.252   1.849
46801W        W13342   3.476  13.676  13.032
46802W        W13343   9.083   6.245   4.243
46803W        W13344  32.130  17.009  13.498
46804W        W13345  42.564  42.944   2.295
46805W        W13346  37.980   7.924  14.772
46806W        W13347  17.783  22.733  12.947
46807W        W13348   3.350  13.420   0.349
46808W        W13349  43.269  11.701  12.409
46809W        W13350  19.050  20.587   3.704
46810W        W13351  28.915  32.629  11.851
46811W        W13352  33.456  28.549   4.482
46812W        W13353  37.126   3.046   5.075
46813W        W13354   7.286  18.835  11.686
46814W        W13355  40.591  14.779  11.907
46815W        W13356  34.023  18.055  12.021
46816W        W13357  16.094  10.847  11.195
46817W        W13358  43.521   0.847  12.107
46818W        W13359  15.103   0.704   2.991
46819W        W13360   9.411   9.985  13.027
46820W        W13361  14.228  38.531  13.441
46821W        W13362  10.247  41.205  11.121
46822W        W13363  35.293  15.134   0.505
46823W        W13364  25.579  33.511   4.196
46824W        W13365  33.538  16.205   1.677
46825W        W13366   8.520  43.892  12.903
46826W        W13367  42.576   4.171   0.762
46827W        W13368  28.985  10.415   4.258
46828W        W13369   6.285  38.329   2.218
46829W        W13370  39.487  27.546  14.820
46830W        W13371  34.698  25.513  12.649
46831W        W13372   1.360  16.383   2.393
46832W        W13373  39.990  23.911  14.158
46833W        W13374   9.847  43.842  12.361
46834W        W13375  31.374  30.073  11.212
46835W        W13376  26.102  43.744  14.364
46836W        W13377  11.223  11.422  11.867
46837W        W13378   6.072  22.120  13.424
46838W        W13379  16.614  40.138   4.247
46839W        W13380  27.151  13.297  14.538
46840W        W13381  14.824   8.166   0.559
46841W        W13382  13.132  21.691   3.991
46842W        W13383  37.577  24.346   4.952
46843W        W13384   4.291  30.904  13.839
46844W        W13385  21.526   3.667   0.426
46845W        W13386  30.969  14.710   0.182
46846W        W13387  13.707  28.986   0.041
46847W        W13388  21.989  16.699  13.842
46848W        W13389  14.865   4.942  10.238
46849W        W13390  36.863   1.559   3.202
46850W        W13391  43.321  41.271   0.941
46851W        W13392  38.446  31.197   2.684
46852W        W13393  21.992  37.625  13.126
46853W        W13394  43.498  18.762  10.701
46854W        W13395  10.859   4.736  11.427
46855W        W13396  33.357  43.313  14.004
46856W        W13397  29.911   9.171  13.524
46857W        W13398   5.352  17.344   2.321
46858W        W13399   7.152   5.109   3.161
46859W        W13400  20.404  31.852   0.872
46860W        W13401   9.167  21.216   1.507
46861W        W13402  38.935  10.143   3.571
46862W        W13403  44.770  41.884  13.989
46863W        W13404  42.514  12.381   1.209
46864W        W13405  16.817  38.950  12.415
46865W        W13406   3.226  43.749   0.858
46866W        W13407  23.541   6.399  14.779
46867W        W13408  15.238  42.907  11.931
46868W        W13409  37.470  29.485   3.717
46869W        W13410  14.796   8.428   4.149
46870W        W13411  37.395  44.402  10.881
46871W        W13412  32.941  21.086  10.574
46872W        W13413  13.144  18.185  11.984
46873W        W13414  11.270  39.515   1.738
46874W        W13415  14.648  11.581   3.224
46875W        W13416   3.678  21.998   2.865
46876W        W13417  44.732  33.922  13.559
46877W        W13418   7.132  24.266  14.765
46878W        W13419  39.219  27.692  13.768
46879W        W13420   9.561  31.955   4.155
46880W        W13421  42.363  21.677   0.319
46881W        W13422  11.833  37.943  14.510
46882W        W13423  35.029  29.351  10.933
46883W        W13424  37.310  11.109  14.815
46884W        W13425   6.680  11.763   2.227
46885W        W13426  32.683  33.457  12.950
46886W        W13427  22.042  10.062   3.591
46887W        W13428  40.540  22.369   1.305
46888W        W13429  26.514  18.722   1.364
46889W        W13430  30.111   3.751  10.631
46890W        W13431  11.062  22.948   0.913
46891W        W13432  10.781  27.002   2.698
46892W        W13433   4.256  22.253   4.281
46893W        W13434  25.375  42.930   3.626
46894W        W13435  11.478  41.276  11.974
46895W        W13436   7.203  23.133  11.560
46896W        W13437  37.724  22.324   2.172
46897W        W13438  13.245  23.005  11.601
46898W        W13439  42.736  18.301  11.683
46899W        W13440  36.122  38.360  12.324
46900W        W13441   7.810  36.111  12.379
46901W        W13442  29.658  33.388  13.739
46902W        W13443   8.643   5.639   3.148
46903W        W13444  19.758  40.051  13.102
46904W        W13445   9.434  25.229  13.482
46905W        W13446  12.830   6.708   4.619
46906W        W13447  36.126  21.549  13.390
46907W        W13448   7.296   3.771  14.169
46908W        W13449  37.306  28.865   1.354
46909W        W13450  33.453  36.893   3.693
46910W        W13451  12.009  25.684   1.095
46911W        W13452  30.109  42.454  12.960
46912W        W13453  38.583   6.185  14.853
46913W        W13454  37.199  37.082  12.552
46914W        W13455   1.962   9.237  13.806
46915W        W13456  34.912  20.136   1.959
46916W        W13457  42.663   6.718  14.179
46917W        W13458   3.392  29.135   3.684
46918W        W13459  10.795   4.360  11.054
46919W        W13460  35.327  26.535   5.252
46920W        W13461  31.223   7.398   1.925
46921W        W13462  44.805  30.597   0.195
46922W        W13463   0.772  41.536  11.165
46923W        W13464  37.317  15.662  12.385
46924W        W13465  13.297  11.841   0.703
46925W        W13466  42.983  37.621   3.299
46926W        W13467  42.474   2.270  13.784
46927W        W13468  11.984   4.377  13.155
46928W        W13469  38.552   1.458  13.552
46929W        W13470   6.402   2.847   0.364
46930W        W13471  27.581   9.325   4.324
46931W        W13472  19.545  23.475  13.281
46932W        W13473  34.991   1.564   2.898
46933W        W13474  24.275  19.162   3.671
46934W        W13475  43.955  40.520  13.708
46935W        W13476  27.486  32.364  12.923
46936W        W13477   3.000   3.189   0.727
46937W        W13478  34.366  25.575   1.482
46938W        W13479   5.270   6.660   4.083
46939W        W13480   3.752  12.251  11.884
46940W        W13481  40.307  30.723  13.345
46941W        W13482  27.537   5.681   0.004
46942W        W13483  39.267  14.915   0.776
46943W        W13484  42.599  14.910   1.315
46944W        W13485  34.285  34.622   0.487
46945W        W13486   0.737  35.454  12.984
46946W        W13487  44.212  36.494   3.837
46947W        W13488  29.495  14.038  14.283
46948W        W13489  34.511   4.721  10.499
46949W        W13490  37.446  42.627   3.348
46950W        W13491   6.530  33.988  11.244
46951W        W13492  41.362   4.241   0.962
46952W        W13493  13.105  27.641   5.201
46953W        W13494  26.722  44.474  13.178
46954W        W13495  16.399   9.225   2.750
46955W        W13496  14.598  16.912   1.939
46956W        W13497  34.904  19.274   3.080
46957W        W13498  29.531  26.125   1.706
46958W        W13499  37.114  43.992   2.368
46959W        W13500  14.839  40.706  14.053
46960W        W13501  13.376   4.562   3.649
46961W        W13502   8.975  22.334  12.742
46962W        W13503  39.324  25.746   3.553
46963W        W13504   2.435  19.307  14.481
46964W        W13505  19.145  38.890  14.861
46965W        W13506   7.094   3.368  13.898
46966W        W13507  42.860  40.310   3.667
46967W        W13508  13.135  37.971   4.165
46968W        W13509   7.477  22.170   4.926
46969W        W13510  13.909   7.868   0.930
46970W        W13511  15.637  15.515  13.969
46971W        W13512   2.200  25.541  12.114
46972W        W13513  15.069   5.883  12.586
46973W        W13514   1.810  39.956  13.207
46974W        W13515  26.314  27.430  10.996
46975W        W13516  22.434  44.346   4.145
46976W        W13517  33.997  19.540  14.424
46977W        W13518   3.291  26.783   2.609
46978W        W13519  35.908  42.356   3.272
46979W        W13520   6.720  35.412  12.988
46980W        W13521  31.042   0.705  10.717
46981W        W13522  10.126   9.275   3.659
46982W        W13523  12.148   6.729  12.349
46983W        W13524  21.827  36.860   2.830
46984W        W13525   5.080   6.263   1.389
46985W        W13526   4.805  31.696   0.680
46986W        W13527  39.229  11.956  12.043
46987W        W13528  22.621  43.976   0.987
46988W        W13529  35.734  16.358   0.922
46989W        W13530  25.001  39.704   1.493
46990W        W13531  36.295  17.046  11.842
46991W        W13532   8.794  19.611   4.277
46992W        W13533  15.798  13.531   1.911
46993W        W13534  10.281  43.234   1.952
46994W        W13535  36.885  28.572   1.254
46995W        W13536   5.578  11.437   0.537
46996W        W13537  14.150  34.054   4.292
46997W        W13538   2.793  27.339  12.058
46998W        W13539  20.648  23.277   1.968
46999W        W13540  39.208   0.227   0.451
47000W        W13541  11.206  35.661   2.319
47001W        W13542  40.867  11.340   0.717
47002W        W13543   0.350  11.828  14.828
47003W        W13544   7.051  37.343   0.569
47004W        W13545  36.393  16.950  13.154
47005W        W13546   6.889  11.239   3.758
47006W        W13547  39.968  33.178  14.464
47007W        W13548  22.757  24.710  12.828
47008W        W13549  24.039  29.884   2.276
47009W        W13550  42.155   2.980   3.942
47010W        W13551   8.603  23.454  10.184
47011W        W13552  17.794  31.586   1.618
47012W        W13553   6.497   1.247   1.269
47013W        W13554  42.791  18.655   4.192
47014W        W13555  21.953   2.320   3.826
47015W        W13556  44.711  22.793  10.713
47016W        W13557  38.920  12.551  14.430
47017W        W13558  27.517  32.047  10.259
47018W        W13559  28.631   6.250  12.383
47019W        W13560  42.710   8.589   1.470
47020W        W13561  39.895   3.509  12.171
47021W        W13562  27.479  13.415  13.959
47022W        W13563  38.134  42.478   0.154
47023W        W13564  12.803   7.646   1.868
47024W        W13565  18.319  17.017   3.537
47025W        W13566  39.765  15.501   4.099
47026W        W13567  41.735   0.165   0.248
47027W        W13568  20.076  28.947  13.027
47028W        W13569   4.908  18.284  10.832
47029W        W13570  40.952  21.096   2.690
47030W        W13571   5.250  44.453   4.268
47031W        W13572  43.818   0.958  14.387
47032W        W13573   0.286  20.655   2.939
47033W        W13574  36.391  16.264  11.416
47034W        W13575  40.435  25.270  11.218
47035W        W13576  18.982   6.953   3.233
47036W        W13577  43.747  18.377  14.954
47037W        W13578  32.984  12.682   3.230
47038W        W13579   4.802  36.591  13.854
47039W        W13580  15.571  31.025   0.921
47040W        W13581  28.522   1.235  14.502
47041W        W13582  30.012  21.522   1.163
47042W        W13583  43.438  37.841   0.864
47043W        W13584   6.602  17.200   4.560
47044W        W13585  17.642  33.611   2.591
47045W        W13586   2.952   0.862  10.689
47046W        W13587   4.242  12.918   4.790
47047W        W13588  18.242  15.994   1.326
47048W        W13589  13.327  10.630   2.720
47049W        W13590   9.174  18.835  14.786
47050W        W13591  33.777  42.938   3.636
47051W        W13592  12.646  39.847  10.741
47052W        W13593  33.023  12.245  14.306
47053W        W13594  27.402  35.517  13.018
47054W        W13595  31.068   5.793   4.921
47055W        W13596  18.991  33.062   4.282
47056W        W13597   4.426  32.490   0.316
47057W        W13598  35.110  14.714  11.182
47058W        W13599  42.340  43.451  13.367
47059W        W13600  30.948  29.417  14.827
47060W        W13601  39.008  34.207  14.497
47061W        W13602   2.391   5.417  10.609
47062W        W13603  44.352  43.699  12.929
47063W        W13604  39.119  11.695   4.891
47064W        W13605  25.352  25.489   1.292
47065W        W13606  32.175   8.381  11.345
47066W        W13607   3.426   2.304   1.218
47067W        W13608  18.678   7.715   4.048
47068W        W13609  30.485   1.199  14.058
47069W        W13610  13.599  17.737   1.854
47070W        W13611  13.682  28.167   4.509
47071W        W13612   4.200  37.563   3.334
47072W        W13613  17.010  41.399   1.494
47073W        W13614  36.859   3.388  12.587
47074W        W13615  36.876  37.063   3.811
47075W        W13616  12.351  32.620  11.616
47076W        W13617  21.947  34.568   1.823
47077W        W13618  33.753   1.699   1.625
47078W        W13619  32.188  32.547  12.884
47079W        W13620  15.176  13.337   0.497
47080W        W13621   3.420  32.352   2.108
47081W        W13622  33.477  18.029  14.942
47082W        W13623  34.071  17.314  10.739
47083W        W13624  12.262   6.220   0.024
47084W        W13625  20.130  12.883  11.307
47085W        W13626  20.543  17.378  10.180
47086W        W13627  11.062  42.229   2.284
47087W        W13628  24.958  30.879   0.266
47088W        W13629  43.248  32.835  13.632
47089W        W13630  11.731  39.565   0.341
47090W        W13631  11.383   2.949   3.671
47091W        W13632  13.306  35.585   0.602
47092W        W13633  23.485   7.451  14.890
47093W        W13634  12.585  35.371   1.379
47094W        W13635  23.487  31.042  12.396
47095W        W13636   0.207  40.817   3.149
47096W        W13637   8.838   3.929   2.175
47097W        W13638  22.544   7.594   3.835
47098W        W13639  40.378  27.464  14.717
47099W        W13640  11.200   0.430   4.097
47100W        W13641   5.908  23.118   2.690
47101W        W13642  27.679   9.389  13.300
47102W        W13643  23.618   7.316  13.456
47103W        W13644  13.445   9.591  11.565
47104W        W13645  23.008  14.316  12.552
47105W        W13646  22.637   1.220   2.841
47106W        W13647  14.841  29.974   2.335
47107W        W13648  44.204  13.188  12.033
47108W        W13649   6.366  31.382   4.364
47109W        W13650   3.899  11.004   0.404
47110W        W13651  27.524  37.857  12.363
47111W        W13652  19.516  43.935  10.641
47112W        W13653  40.848  41.964  11.275
47113W        W13654  28.395  37.049  10.376
47114W        W13655  32.260  18.159   3.231
47115W        W13656  23.051  35.704  11.747
47116W        W13657  26.861  20.745   4.992
47117W        W13658  34.656  24.691  11.600
47118W        W13659  34.342   6.185   3.413
47119W        W13660  40.319  32.259   0.455
47120W        W13661  25.406  41.591  12.786
47121W        W13662   1.865   9.961   2.167
47122W        W13663   5.055  18.413  14.930
47123W        W13664  27.538  30.534   3.185
47124W        W13665   3.497  28.040   3.116
47125W        W13666  28.638  15.437   5.024
47126W        W13667  10.625  41.511  13.331
47127W        W13668  27.981  16.626   1.091
47128W        W13669  36.368  37.106   4.213
47129W        W13670   8.464  38.710  13.797
47130W        W13671  36.274  14.454   4.990
47131W        W13672  15.191  25.140   0.675
47132W        W13673  12.346  42.136  13.408
47133W        W13674  15.190  23.621  13.142
47134W        W13675  27.090  37.389  13.002
47135W        W13676  11.172   7.362   3.304
47136W        W13677  44.442  34.250  13.022
47137W        W13678  34.967  30.536  11.917
47138W        W13679  13.272   9.648   3.319
47139W        W13680  29.625  13.039  14.554
47140W        W13681   7.413  37.502  14.759
47141W        W13682  14.699  33.596   4.875
47142W        W13683  29.669  41.066  14.422
47143W        W13684  42.989  29.947   2.894
47144W        W13685  42.272  23.141   1.662
47145W        W13686   2.816  18.669  10.518
47146W        W13687  29.716  28.521  14.364
47147W        W13688  36.736   6.253  11.007
47148W        W13689  31.633  26.113  11.600
47149W        W13690  41.619  29.606  11.867
47150W        W13691  33.980  31.599   1.341
47151W        W13692  18.504  30.651   3.171
47152W        W13693  39.380  10.840   4.449
47153W        W13694  21.476  19.104   4.114
47154W        W13695   6.668  20.230   3.611
47155W        W13696   1.345  44.849  10.839
47156W        W13697  18.783  28.132   3.274
47157W        W13698  18.162   1.455   4.829
47158W        W13699   0.456  14.807  10.748
47159W        W13700  21.634  37.123   2.395
47160W        W13701  29.095  28.412   4.186
47161W        W13702  23.682  11.330   3.248
47162W        W13703  24.511  39.275   0.207
47163W        W13704   1.479   9.415   2.298
47164W        W13705  41.970   7.746  12.941
47165W        W13706  12.106  17.207   2.353
47166W        W13707  34.643  39.004  12.039
47167W        W13708  31.552   9.346   1.363
47168W        W13709   6.872  26.201   4.853
47169W        W13710  15.135  16.054   2.712
47170W        W13711  20.848  33.466  12.029
47171W        W13712  27.727  32.015   3.176
47172W        W13713  43.264  11.401   0.292
47173W        W13714  42.724  32.182  12.986
47174W        W13715  25.101  30.457   1.115
47175W        W13716  16.529  25.008   1.294
47176W        W13717  17.022  20.625   0.631
47177W        W13718  13.033  33.052  11.107
47178W        W13719  29.682  16.971  11.580
47179W        W13720   2.646   1.361  12.095
47180W        W13721  42.452  30.136   0.728
47181W        W13722  38.928  19.424  11.372
47182W        W13723  41.075   1.490   3.698
47183W        W13724  36.411  18.384   0.299
47184W        W13725  42.821  41.608   2.805
47185W        W13726  18.287  24.183   2.603
47186W        W13727  44.816  22.995   0.264
47187W        W13728  20.747  33.536  14.765
47188W        W13729  37.874   1.755   1.040
47189W        W13730  29.048  18.530   4.920
47190W        W13731  34.064   2.233   0.831
47191W        W13732   1.351  13.739  11.214
47192W        W13733   2.885  24.155   0.740
47193W        W13734  35.332  32.732  14.461
47194W        W13735  24.438  35.311  12.496
47195W        W13736  41.008  21.942   2.929
47196W        W13737  21.813  11.409  10.604
47197W        W13738  42.260  31.509  14.038
47198W        W13739  35.300  41.371   2.235
47199W        W13740  43.217  39.434   4.732
47200W        W13741  19.122  31.949  10.859
47201W        W13742   4.715  11.705   3.136
47202W        W13743  25.227  10.848  12.643
47203W        W13744  33.535  31.482   3.376
47204W        W13745   8.289  14.800  14.794
47205W        W13746   9.794   0.291   2.444
47206W        W13747  17.368  24.131   2.458
47207W        W13748  11.454  32.010  13.842
47208W        W13749  15.289  30.129   0.268
47209W        W13750   4.968  23.727   0.287
47210W        W13751  41.038  38.615  13.423
47211W        W13752  17.371  43.021   2.721
47212W        W13753  22.759  11.593  14.656
47213W        W13754  25.554  18.329   1.301
47214W        W13755  15.994  39.996   3.564
47215W        W13756  11.403   5.941  13.090
47216W        W13757  29.259   6.200  10.270
47217W        W13758  22.112  34.918  14.188
47218W        W13759   3.155  15.640   4.503
47219W        W13760  23.862  42.011   3.067
47220W        W13761  10.616   1.987  10.870
47221W        W13762  39.516  11.665   1.223
47222W        W13763   2.289  24.776  11.589
47223W        W13764   8.958  40.452   1.193
47224W        W13765  44.498  12.830  13.588
47225W        W13766  11.587   4.480   3.176
47226W        W13767   7.202  32.319  14.812
47227W        W13768  31.207  29.975  13.933
47228W        W13769  32.620  31.092  12.121
47229W        W13770   2.361  18.079   2.894
47230W        W13771   4.337  43.970   0.782
47231W        W13772  35.569   2.920   1.768
47232W        W13773  23.761  36.417   0.417
47233W        W13774  36.358   1.511  14.278
47234W        W13775  40.797  17.668   1.808
47235W        W13776  44.908  30.617   2.237
47236W        W13777   5.261  22.969  11.636
47237W        W13778   8.355  44.886   2.257
47238W        W13779  36.153   0.911  10.647
47239W        W13780  20.362  29.346  12.817
47240W        W13781  25.028  20.494  13.497
47241W        W13782  32.232  22.784  11.577
47242W        W13783  31.651  13.270   1.212
47243W        W13784  27.249  28.106  14.504
47244W        W13785  16.130   3.600   0.346
47245W        W13786   7.166  18.077   4.164
47246W        W13787  29.969  17.719   0.557
47247W        W13788   2.509   0.507   4.651
47248W        W13789  31.879  23.733  11.196
47249W        W13790   0.974   1.001  14.221
47250W        W13791  30.463  11.424   0.669
47251W        W13792  44.918   0.956  11.506
47252W        W13793   6.681   6.773   1.755
47253W        W13794   9.847   4.061   3.237
47254W        W13795  19.491   3.357  13.305
47255W        W13796  21.108  32.846   4.264
47256W        W13797  43.377   8.430  12.907
47257W        W13798   1.437  40.813  14.484
47258W        W13799  14.666  19.752  11.060
47259W        W13800  44.961  30.330  14.773
47260W        W13801  37.357  13.779   2.864
47261W        W13802  11.648  17.073  11.878
47262W        W13803  11.027   7.840   3.152
47263W        W13804   1.188  23.473  14.748
47264W        W13805  24.860  42.393  13.770
47265W        W13806  33.554  35.485  11.090
47266W        W13807  42.855  13.210  12.386
47267W        W13808  33.883  28.017  14.912
47268W        W13809  26.490  13.192   4.836
47269W        W13810  43.157  16.402   4.612
47270W        W13811  36.265  40.043   3.708
47271W        W13812  14.340  24.425   0.935
47272W        W13813  28.734  15.698  14.299
47273W        W13814  22.170  36.396   4.397
47274W        W13815  37.530  13.806   1.730
47275W        W13816   4.850   9.687  13.469
47276W        W13817   4.788  12.811   4.041
47277W        W13818  29.431  17.334  11.941
47278W        W13819  24.898  24.578   1.747
47279W        W13820   4.346  24.732  11.075
47280W        W13821  42.543  38.663  11.985
47281W        W13822  15.482  35.738  10.192
47282W        W13823  22.089  29.738  11.424
47283W        W13824  40.075  17.037   3.216
47284W        W13825   3.642   1.301   4.067
47285W        W13826  31.180   8.934   3.775
47286W        W13827   4.904  40.257  10.845
47287W        W13828  31.503   8.148   0.463
47288W        W13829  21.716   9.569  12.586
47289W        W13830  27.016  42.554  12.905
47290W        W13831  20.981  12.328   1.305
47291W        W13832   2.014  36.038  12.507
47292W        W13833  19.259  17.607  14.030
47293W        W13834  24.544  20.565   0.747
47294W        W13835   4.863  31.681   1.203
47295W        W13836  20.623  17.772   0.495
47296W        W13837  42.511   7.223  10.598
47297W        W13838   6.634  34.969  13.268
47298W        W13839   9.202  13.253   3.051
47299W        W13840  36.877  25.800  12.918
47300W        W13841  11.102  12.913   4.620
47301W        W13842  33.688  37.959   4.618
47302W        W13843   7.660  27.702  10.761
47303W        W13844   3.478   9.225   0.176
47304W        W13845  26.464  38.548  13.068
47305W        W13846  16.679  22.133   2.104
47306W        W13847  15.590  30.383  12.627
47307W        W13848  27.467  37.016  11.624
47308W        W13849  11.862  24.224  14.104
47309W        W13850  34.444   3.426  11.926
47310W        W13851  28.240   9.174   1.394
47311W        W13852  38.420  35.678  13.413
47312W        W13853  39.086   2.034  13.912
47313W        W13854  12.730   1.621  12.907
47314W        W13855  13.732  32.916   3.243
47315W        W13856  33.254  29.914   3.898
47316W        W13857  30.682  19.300  13.992
47317W        W13858  22.064  26.702   1.674
47318W        W13859  39.830  20.376   3.583
47319W        W13860  40.818  36.374   2.780
47320W        W13861   0.382  14.149  12.573
47321W        W13862  38.868  13.062  14.501
47322W        W13863  33.415  16.482  12.540
47323W        W13864  28.694  29.516  11.958
47324W        W13865  30.869  44.178   3.137
47325W        W13866  36.046  28.368   0.734
47326W        W13867  42.587  34.528  12.396
47327W        W13868  32.363  18.205  12.780
47328W        W13869  30.974  19.779   1.981
47329W        W13870  25.438  15.728   0.854
47330W        W13871  40.883  24.225  12.897
47331W        W13872  14.080  28.320  10.199
47332W        W13873   3.168  13.460  11.737
47333W        W13874  17.842  10.137   3.600
47334W        W13875  21.770  29.181   3.198
47335W        W13876  24.792  22.408   0.731
47336W        W13877   1.263   3.154   2.693
47337W        W13878  10.697  44.134   4.425
47338W        W13879  12.062  23.275  14.899
47339W        W13880  10.179  29.561  10.204
47340W        W13881  14.873  43.832   0.300
47341W        W13882  41.559   6.892   1.274
47342W        W13883  32.684  32.007  14.552
47343W        W13884  42.834   6.691  11.063
47344W        W13885  27.649  23.236   0.003
47345W        W13886  44.047  16.088   0.854
47346W        W13887  10.718  43.053  13.579
47347W        W13888   7.714   6.047   2.036
47348W        W13889  39.524  33.491  13.576
47349W        W13890  35.384   1.872   3.024
47350W        W13891   6.909  10.663  11.214
47351W        W13892  29.133  38.337   3.320
47352W        W13893  25.393   8.147   3.280
47353W        W13894   7.266  36.306   0.724
47354W        W13895  12.158  26.673   1.718
47355W        W13896  43.084  39.441   4.182
47356W        W13897  10.090  40.069   1.388
47357W        W13898  13.336  10.671   4.179
47358W        W13899  28.687  39.217   1.832
47359W        W13900   4.947   2.314  13.062
47360W        W13901  40.307  22.738  10.297
47361W        W13902  38.726  22.611   2.295
47362W        W13903   7.247  39.110  12.958
47363W        W13904  37.636  14.346   2.570
47364W        W13905  29.712  33.571  12.429
47365W        W13906  26.825  36.084  13.393
47366W        W13907  17.019  39.317  14.288
47367W        W13908  38.800  16.862  12.607
47368W        W13909  12.769  44.945  12.013
47369W        W13910  34.813  11.657   1.890
47370W        W13911  38.799  26.143  11.037
47371W        W13912  21.801  34.480  12.206
47372W        W13913  30.031   0.782  12.136
47373W        W13914  34.123  20.110   3.703
47374W        W13915  12.122   1.418  10.465
47375W        W13916  38.316  19.762  13.992
47376W        W13917   4.284   5.896  13.535
47377W        W13918  25.646  23.517  12.899
47378W        W13919  21.794  37.354  11.134
47379W        W13920  21.669  44.175  13.169
47380W        W13921   4.707  39.385  12.354
47381W        W13922  22.630  40.896  12.146
47382W        W13923  14.117  37.551  13.195
47383W        W13924  16.058  29.693  11.090
47384W        W13925  35.344   8.437   4.126
47385W        W13926  24.488   9.213  10.649
47386W        W13927  42.379  39.346  11.609
47387W        W13928  36.017  11.421   0.024
47388W        W13929  44.764  24.600  11.097
47389W        W13930  33.707  26.726   4.536
47390W        W13931  38.798  34.009  12.466
47391W        W13932  17.675  18.577   1.766
47392W        W13933  38.616   3.379  10.214
47393W        W13934  26.519  43.455  14.538
47394W        W13935   1.442  17.008   2.764
47395W        W13936  17.820  24.742  11.163
47396W        W13937  44.016  24.443   1.002
47397W        W13938  10.779  28.908  10.668
47398W        W13939  41.067  17.970   3.714
47399W        W13940  29.674  38.282  12.451
47400W        W13941  35.114  32.935  13.458
47401W        W13942  29.494  31.586   1.027
47402W        W13943  37.762  41.929   1.988
47403W        W13944  37.292  24.545  12.510
47404W        W13945   5.749  29.619   3.840
47405W        W13946  37.604  13.642  13.668
47406W        W13947  35.525  27.475   0.552
47407W        W13948  21.202  30.889  10.605
47408W        W13949  29.254   0.363   0.818
47409W        W13950  21.492  15.866  13.912
47410W        W13951  37.467   6.664  12.175
47411W        W13952  43.545  42.900   2.215
47412W        W13953  30.731   0.779   3.176
47413W        W13954  34.305  28.262   1.324
47414W        W13955   1.394  15.402  10.568
47415W        W13956   1.440  44.820  13.417
47416W        W13957  38.098   7.671  13.407
47417W        W13958   0.829  42.119  11.158
47418W        W13959  30.124  22.193   2.743
47419W        W13960  13.541  31.729  11.183
47420W        W13961  18.345   9.240   2.886
47421W        W13962  40.642  20.804  11.081
47422W        W13963  42.037  34.590  14.461
47423W        W13964   6.016   9.217   0.199
47424W        W13965  40.550  16.286   3.450
47425W        W13966  41.789   8.880   1.458
47426W        W13967  21.792  25.226  11.654
47427W        W13968  41.486  17.995   0.752
47428W        W13969  22.033  43.516   2.586
47429W        W13970  34.066  14.681  10.291
47430W        W13971  24.164  28.979   3.686
47431W        W13972  15.103   6.141   2.595
47432W        W13973   4.809  12.282  13.187
47433W        W13974  17.566  44.942  11.145
47434W        W13975   3.942  44.485   2.656
47435W        W13976   9.686   5.244  13.233
47436W        W13977  28.473  16.845  13.526
47437W        W13978  17.336  14.504  12.474
47438W        W13979  35.901  23.697  12.618
47439W        W13980  41.509   2.990  11.184
47440W        W13981  44.210  22.240   4.175
47441W        W13982  12.528  38.943   0.436
47442W        W13983  12.088  21.136   1.249
47443W        W13984  26.519   7.122  12.827
47444W        W13985  24.238  38.483  13.447
47445W        W13986  32.565  12.570  11.653
47446W        W13987  23.550   4.269   4.902
47447W        W13988  14.118   9.595  14.547
47448W        W13989  43.399  29.160   0.920
47449W        W13990  36.908  32.545   2.134
47450W        W13991  20.514  27.426  10.733
47451W        W13992  30.229  42.952  12.027
47452W        W13993  12.313   3.834   1.712
47453W        W13994  29.638  33.858   1.244
47454W        W13995  15.515  44.033  11.198
47455W        W13996  43.468  16.509   1.370
47456W        W13997  35.496  33.400   0.383
47457W        W13998  24.478  44.348  14.089
47458W        W13999   0.139  20.483  14.140
47459W        W14000  18.254  31.612  14.363
47460W        W14001   8.114   9.667  12.040
47461W        W14002   8.428  39.325  13.058
47462W        W14003  29.702   5.863   4.086
47463W        W14004   6.641   4.748   1.380
47464W        W14005  29.170  39.323  12.581
47465W        W14006  33.598  22.257   3.149
47466W        W14007  43.814  40.839   0.029
47467W        W14008   1.256  20.613  13.160
47468W        W14009  13.247  21.040   1.783
47469W        W14010   4.757  21.585  10.395
47470W        W14011  14.802  25.425   2.839
47471W        W14012  12.680  36.349   3.668
47472W        W14013   8.776   1.236   0.991
47473W        W14014  11.798  44.042  11.507
47474W        W14015  40.704  40.628  11.822
47475W        W14016   3.735  19.859  14.263
47476W        W14017  14.041  21.372   0.357
47477W        W14018  11.178   4.189  12.704
47478W        W14019  38.820  34.575   4.580
47479W        W14020  29.559  23.718   0.467
47480W        W14021  16.674  41.090   0.301
47481W        W14022   3.252   0.941  10.291
47482W        W14023  11.293  32.577   2.234
47483W        W14024   0.357   0.706  14.298
47484W        W14025  15.082   6.407  13.741
47485W        W14026  40.334  34.515  10.719
47486W        W14027  26.679  40.415  12.628
47487W        W14028  43.186  19.195  12.097
47488W        W14029  43.967  13.607   3.495
47489W        W14030   6.256  13.567  14.208
47490W        W14031  38.748  40.465   3.373
47491W        W14032  13.122  40.109   4.059
47492W        W14033  31.589   2.207  14.958
47493W        W14034  33.471   1.429   4.640
47494W        W14035  34.854   5.685   2.660
47495W        W14036  39.934  13.841   3.581
47496W        W14037  19.111  43.667   2.841
47497W        W14038   6.189  28.110  12.930
47498W        W14039   3.346  31.526   2.586
47499W        W14040  19.226  39.768   3.675
47500W        W14041  23.527  11.618  12.118
47501W        W14042   1.993   6.395   4.209
47502W        W14043  37.819   8.791  11.026
47503W        W14044   3.133  22.416  11.988
47504W        W14045  35.930  34.895   2.803
47505W        W14046  39.279  33.992  13.618
47506W        W14047  39.277  30.946   1.935
47507W        W14048  42.734   5.667   0.191
47508W        W14049  26.324  32.649   1.445
47509W        W14050  41.168  40.404  11.940
47510W        W14051  29.004   8.194   3.765
47511W        W14052  13.316  27.138  14.331
47512W        W14053  38.250  23.733  13.745
47513W        W14054  15.576   5.716  11.633
47514W        W14055  36.268  18.279  14.011
47515W        W14056  29.600  29.921  10.686
47516W        W14057  38.324  16.379  13.487
47517W        W14058  22.572  20.190  12.763
47518W        W14059  10.274  25.275  13.017
47519W        W14060  23.678  44.620  11.988
47520W        W14061  25.652  29.193   1.433
47521W        W14062   3.674  37.440  10.622
47522W        W14063  17.545   7.355  12.514
47523W        W14064  26.936  21.235   3.169
47524W        W14065  11.894  31.229   4.163
47525W        W14066   9.295  13.118  10.866
47526W        W14067  28.721  32.025  12.425
47527W        W14068  35.745   6.383   4.898
47528W        W14069  41.848  44.210  13.940
47529W        W14070  13.118  44.104  14.326
47530W        W14071  21.822   0.265   4.416
47531W        W14072  25.968  36.893  10.717
47532W        W14073  25.787   3.733  12.096
47533W        W14074  13.248  24.480  12.097
47534W        W14075  24.466  10.095   4.701
47535W        W14076   6.881  22.768   1.347
47536W        W14077  29.919  28.438  12.724
47537W        W14078  16.597  24.758   1.743
47538W        W14079  31.635  25.130   2.862
47539W        W14080  24.062  31.204   0.483
47540W        W14081  30.013  35.910  12.461
47541W        W14082  43.373  18.764   3.634
47542W        W14083  44.456  39.873  11.634
47543W        W14084  14.145  34.654   1.812
47544W        W14085   2.318  43.929  12.328
47545W        W14086  20.550   7.100  11.572
47546W        W14087  18.694  15.765   2.849
47547W        W14088  25.709  35.878   3.111
47548W        W14089  13.873  22.248   0.522
47549W        W14090  12.648   8.830   1.284
47550W        W14091  10.693  39.580   2.390
47551W        W14092  21.682  43.990  11.548
47552W        W14093  20.867  43.830  12.129
47553W        W14094  35.244  37.027   5.064
47554W        W14095  36.546   8.709  11.853
47555W        W14096  44.000   0.206   1.923
47556W        W14097   9.137  32.807   2.734
47557W        W14098   8.266  16.957  12.491
47558W        W14099  39.779  24.660   1.411
47559W        W14100  33.176   7.354  10.984
47560W        W14101  13.932  15.663  12.008
47561W        W14102   9.966   0.960   0.471
47562W        W14103  37.201  43.462  12.083
47563W        W14104   0.853  37.010   4.652
47564W        W14105   3.429  39.551  14.006
47565W        W14106   3.622  38.596  13.122
47566W        W14107  33.142  23.032   0.293
47567W        W14108  26.224  38.991  10.926
47568W        W14109  11.710  40.862  13.343
47569W        W14110  28.220   3.265  10.203
47570W        W14111  40.279  39.248   0.964
47571W        W14112  13.883  20.111  12.088
47572W        W14113  10.156  44.040   3.206
47573W        W14114  42.858  19.601  14.216
47574W        W14115   1.460  15.107  11.570
47575W        W14116  16.511  20.725   3.679
47576W        W14117  33.000  44.322  12.592
47577W        W14118  28.579  42.692  13.074
47578W        W14119  12.056  11.348   2.473
47579W        W14120   7.271  24.643   1.189
47580W        W14121   1.411  41.516  10.753
47581W        W14122  28.517  29.060   1.943
47582W        W14123  40.864  15.875  12.667
47583W        W14124  26.918  13.795  13.287
47584W        W14125  33.664  43.851  10.681
47585W        W14126  14.743  20.655  10.576
47586W        W14127   7.882  39.762  12.436
47587W        W14128   1.335   9.837   3.353
47588W        W14129  19.052  30.676  10.924
47589W        W14130  26.011  25.003   1.405
47590W        W14131  18.323  41.444  11.774
47591W        W14132  13.307  43.475   1.220
47592W        W14133   2.036   3.177  14.823
47593W        W14134  17.138  38.586  12.914
47594W        W14135  14.304   4.386  11.643
47595W        W14136  15.726  35.877   2.534
47596W        W14137  33.593  41.660   3.110
47597W        W14138  42.340   9.724  13.830
47598W        W14139  29.214  36.374   1.353
47599W        W14140   1.047  40.040  14.830
47600W        W14141  15.598  27.580  11.533
47601W        W14142  23.707   2.808  13.872
47602W        W14143  32.970  35.478  11.748
47603W        W14144  35.222  20.402  13.122
47604W        W14145  38.455   0.652  11.500
47605W        W14146  33.113  44.792   0.801
47606W        W14147  14.207  10.759   2.369
47607W        W14148  27.715  30.699   1.656
47608W        W14149   1.440  29.653  10.287
47609W        W14150  37.510  44.572  13.956
47610W        W14151  44.232  18.337  13.566
47611W        W14152  17.419  13.046   4.545
47612W        W14153   6.254  39.398   1.506
47613W        W14154   7.177  39.320   0.262
47614W        W14155   3.344  28.526   0.308
47615W        W14156  33.091  19.649  14.373
47616W        W14157   3.183   3.788  11.217
47617W        W14158   1.992  38.880   0.719
47618W        W14159   6.897   7.289   3.240
47619W        W14160  39.764   7.945  14.039
47620W        W14161  11.634   2.547   1.859
47621W        W14162   2.930  42.007  14.114
47622W        W14163  44.210  19.072   2.686
47623W        W14164  31.705  17.577  12.863
47624W        W14165  15.197  14.509  11.971
47625W        W14166  19.606  36.572   2.850
47626W        W14167  33.976   4.978   2.232
47627W        W14168  43.521  36.211   3.614
47628W        W14169  37.556  35.587  11.895
47629W        W14170  12.533  20.222   4.086
47630W        W14171   8.466  22.502   4.083
47631W        W14172  15.054  13.556  13.403
47632W        W14173  35.395  33.768  11.502
47633W        W14174  10.692   9.176  13.448
47634W        W14175  41.653   8.875   4.374
47635W        W14176  19.642  12.686  13.830
47636W        W14177  44.897  31.612   1.875
47637W        W14178  37.391   5.447   3.604
47638W        W14179  35.653  21.419   4.227
47639W        W14180  13.712  40.818   1.180
47640W        W14181  44.873  16.353   0.323
47641W        W14182  13.319  28.563  11.983
47642W        W14183  16.700  31.029  12.002
47643W        W14184   2.498  29.601  12.464
47644W        W14185  21.868   3.886  13.392
47645W        W14186  10.236  35.431   4.595
47646W        W14187  32.118  15.923  11.197
47647W        W14188  31.420  17.290   1.975
47648W        W14189  34.346  31.632  13.444
47649W        W14190  35.065  16.885  12.574
47650W        W14191   9.782   5.084   2.746
47651W        W14192  28.621  25.049   4.647
47652W        W14193  29.421  39.528   2.671
47653W        W14194   5.141  38.034   4.652
47654W        W14195   7.415  29.119  11.618
47655W        W14196  34.455   3.834  14.768
47656W        W14197  26.971  14.772   0.816
47657W        W14198  41.764  22.016   0.390
47658W        W14199  39.738  15.952  13.471
47659W        W14200  19.774   2.372  14.331
47660W        W14201  19.627  40.845   3.306
47661W        W14202  16.312   0.782  10.138
47662W        W14203  41.327  26.698  10.430
47663W        W14204   2.202  10.702   4.234
47664W        W14205  32.485  12.323  11.124
47665W        W14206  37.064  36.637   3.607
47666W        W14207  24.513  24.564   4.559
47667W        W14208  22.668  36.860  11.717
47668W        W14209  24.729  44.782  10.831
47669W        W14210  20.042  15.842   1.501
47670W        W14211  19.186   3.898  10.324
47671W        W14212  36.382  16.487  14.076
47672W        W14213  30.057  43.364   3.857
47673W        W14214  42.421   8.991   4.677
47674W        W14215  35.585  17.992  13.326
47675W        W14216  25.722  39.378  12.169
47676W        W14217  40.387  13.248  11.693
47677W        W14218   5.295  28.633  11.983
47678W        W14219  24.410  30.437   1.867
47679W        W14220  14.819   1.370   1.868
47680W        W14221  32.817  12.170  12.435
47681W        W14222   6.893  34.074  11.618
47682W        W14223  24.964  31.382   0.034
47683W        W14224  15.354   7.936   4.710
47684W        W14225  43.291  17.585  11.404
47685W        W14226   1.902  20.956  11.650
47686W        W14227  12.587  33.275  10.871
47687W        W14228  44.234  40.968  14.310
47688W        W14229  12.329  40.885   0.429
47689W        W14230  10.302  13.737  11.666
47690W        W14231  19.720  14.756   2.606
47691W        W14232  43.898  13.157  10.190
47692W        W14233  20.475   9.330  13.796
47693W        W14234  33.108  10.513   4.988
47694W        W14235   3.246   4.455   1.908
47695W        W14236  26.673  23.232   3.547
47696W        W14237  42.059   3.014   1.812
47697W        W14238  17.704  42.726  14.771
47698W        W14239  15.103  30.548   1.255
47699W        W14240  44.591  32.652  11.139
47700W        W14241  26.658  16.021  14.437
47701W        W14242   5.923  21.009   0.694
47702W        W14243  34.899  14.325  11.969
47703W        W14244  30.176  16.216  13.833
47704W        W14245  11.607  19.588   4.748
47705W        W14246   1.428  29.522   0.862
47706W        W14247   9.845  29.644   1.470
47707W        W14248   7.732  33.879   2.357
47708W        W14249  13.732  20.302  12.531
47709W        W14250  39.996  40.497   0.933
47710W        W14251  26.217  21.739   0.751
47711W        W14252  34.806  25.469  13.973
47712W        W14253  11.322  28.629  11.132
47713W        W14254  36.337  35.588  12.176
47714W        W14255  19.265   6.925   9.831
47715W        W14256   5.419  21.556  13.527
47716W        W14257  38.329  26.108   2.786
47717W        W14258  19.289  29.925  12.148
47718W        W14259  36.557  28.142  12.345
47719W        W14260  25.710  41.240   1.358
47720W        W14261   2.796  23.977  13.895
47721W        W14262  28.459  44.429  13.412
47722W        W14263  30.089   3.463  10.201
47723W        W14264  32.082   6.414   2.840
47724W        W14265  33.612  23.024   2.825
47725W        W14266  20.997  30.915  13.972
47726W        W14267  10.450   0.772  12.020
47727W        W14268  15.736   9.813   0.438
47728W        W14269  27.679   6.733  13.665
47729W        W14270  13.729   5.202  14.400
47730W        W14271  40.994  19.233  14.091
47731W        W14272  32.858  43.275   2.359
47732W        W14273   6.274   9.593  14.391
47733W        W14274  28.066  31.627   1.745
47734W        W14275  15.291  12.650   2.726
47735W        W14276   9.301  37.971  12.399
47736W        W14277   1.711  13.245  13.002
47737W        W14278  31.535   8.676   4.647
47738W        W14279   9.172   3.120  13.512
47739W        W14280  17.908  13.440  10.229
47740W        W14281  19.142  22.791   2.822
47741W        W14282  15.382  33.139  13.388
47742W        W14283  27.028  10.212  10.552
47743W        W14284  39.979   3.789  10.958
47744W        W14285  44.851  33.336   3.244
47745W        W14286  12.111   9.397   0.955
47746W        W14287   0.772   3.289   3.418
47747W        W14288  30.134   3.286  14.571
47748W        W14289  13.719  21.770   0.417
47749W        W14290   0.503  12.086  11.422
47750W        W14291   4.845  27.917   1.064
47751W        W14292  26.647   1.830  13.341
47752W        W14293  41.967   1.752   0.344
47753W        W14294  18.619  39.237  14.492
47754W        W14295  16.249   1.366   4.648
47755W        W14296   6.794  20.008  10.520
47756W        W14297  38.677  11.285  11.499
47757W        W14298  38.936  40.455   2.483
47758W        W14299   6.465  25.756  10.489
47759W        W14300  20.907  19.627  11.515
47760W        W14301  37.406  13.858  11.909
47761W        W14302  40.401   9.831   1.185
47762W        W14303  12.803  27.447   0.469
47763W        W14304   8.489   5.813  11.522
47764W        W14305  30.404  41.116  10.565
47765W        W14306   3.238  13.064   1.363
47766W        W14307  23.972  30.377  11.430
47767W        W14308  21.526  18.122   2.166
47768W        W14309  22.677  20.210  12.253
47769W        W14310  32.533  18.425  13.602
47770W        W14311   1.453  10.500   0.795
47771W        W14312  29.826  28.880  13.181
47772W        W14313  10.826   6.693  14.465
47773W        W14314  25.388  15.602   1.740
47774W        W14315  43.301  40.357   3.327
47775W        W14316   7.738  44.452  14.355
47776W        W14317  18.273  37.839  14.899
47777W        W14318  36.604  28.893  11.641
47778W        W14319  34.415   7.028  12.305
47779W        W14320   0.750   2.531   0.323
47780W        W14321  10.704  40.344  11.038
47781W        W14322  27.948  42.893   1.914
47782W        W14323   0.270  33.417   1.887
47783W        W14324  25.224  33.429   2.106
47784W        W14325  15.665   9.353   0.808
47785W        W14326  23.509  40.098   0.899
47786W        W14327  10.980  10.071   3.117
47787W        W14328  18.798   4.522  12.675
47788W        W14329  25.557  32.520   3.677
47789W        W14330  38.464   1.974  11.075
47790W        W14331   4.753  42.942   4.596
47791W        W14332  10.617  28.939  14.359
47792W        W14333  33.949  25.417  13.182
47793W        W14334   2.290  10.423   0.738
47794W        W14335  18.731   2.532   1.433
47795W        W14336  30.770  18.683  11.834
47796W        W14337  40.454  16.682   3.088
47797W        W14338  16.096  32.918  11.729
47798W        W14339   4.997  37.923   0.844
47799W        W14340  13.832   7.397   0.630
47800W        W14341  33.572  31.101  10.164
47801W        W14342  28.355  28.620   0.329
47802W        W14343  28.395   0.296  13.833
47803W        W14344  20.333   2.686  12.362
47804W        W14345   6.245  16.787   2.963
47805W        W14346  41.623  28.912   0.703
47806W        W14347   1.950  30.524   3.159
47807W        W14348  21.944  41.765   4.118
47808W        W14349  12.176  30.677  12.859
47809W        W14350  25.505  31.950   3.452
47810W        W14351  19.912  32.212   3.343
47811W        W14352  17.210  25.512  13.892
47812W        W14353  19.323  42.432   0.885
47813W        W14354  16.566  34.958  14.719
47814W        W14355  44.724  33.407   4.438
47815W        W14356   6.216  36.099  11.051
47816W        W14357  13.843   3.858  12.831
47817W        W14358  42.984  33.880   3.813
47818W        W14359   6.114  42.338  12.400
47819W        W14360   8.156  41.057   0.878
47820W        W14361  35.957   0.683  12.359
47821W        W14362  44.818  21.165   0.767
47822W        W14363  23.945  10.341  13.862
47823W        W14364  38.958  31.592  12.209
47824W        W14365  15.899   3.326   3.327
47825W        W14366  21.016  41.979  11.589
47826W        W14367  15.238  16.044   2.167
47827W        W14368  23.469  28.910  10.667
47828W        W14369  26.995  40.455  14.036
47829W        W14370  24.670   7.768   1.640
47830W        W14371  31.462  20.774   4.933
47831W        W14372  13.662  42.769  13.904
47832W        W14373   5.232  31.357   1.878
47833W        W14374  41.026  27.030   3.242
47834W        W14375  24.135  41.314   2.637
47835W        W14376  14.423  43.762  12.102
47836W        W14377  32.862  12.762  14.192
47837W        W14378   8.392  42.339   1.674
47838W        W14379  17.559  13.396   0.279
47839W        W14380  18.733  35.064  12.584
47840W        W14381  25.575  23.138  13.262
47841W        W14382  43.909  36.703  10.597
47842W        W14383  39.958  27.503  14.294
47843W        W14384  39.561  17.138   0.456
47844W        W14385  16.330  13.204   0.966
47845W        W14386   9.834   8.793   3.693
47846W        W14387  11.413  21.794   2.226
47847W        W14388  18.722  27.598   3.272
47848W        W14389   5.006   5.896  13.463
47849W        W14390  10.119  36.416  10.710
47850W        W14391  44.086  11.103  14.752
47851W        W14392   6.525   2.414   0.984
47852W        W14393   5.693  13.644  14.938
47853W        W14394  15.568   9.679  14.970
47854W        W14395  18.281  41.283   3.576
47855W        W14396  41.365  34.972   1.852
47856W        W14397  43.450  10.196   1.190
47857W        W14398   3.937   9.710   3.665
47858W        W14399  41.315  44.326   3.159
47859W        W14400  38.727  30.666   0.243
47860W        W14401  41.091  28.479   1.341
47861W        W14402  36.169  37.869  14.907
47862W        W14403  39.507   6.176  14.796
47863W        W14404  35.756  36.545  10.441
47864W        W14405   6.579   7.275  12.094
47865W        W14406   3.690   7.770  12.934
47866W        W14407  42.424  22.102   1.333
47867W        W14408  23.700  27.474  13.044
47868W        W14409   3.216  31.797  11.241
47869W        W14410  31.694  37.929   2.307
47870W        W14411  38.484   2.113  11.599
47871W        W14412   0.793  39.395   1.339
47872W        W14413   7.645  27.548  14.513
47873W        W14414  19.324  23.062   1.847
47874W        W14415  23.469  35.100   0.967
47875W        W14416  36.930  38.211  13.942
47876W        W14417  38.548  25.692   1.793
47877W        W14418   7.965   1.575   2.508
47878W        W14419  40.832  15.167   0.948
47879W        W14420  30.157   7.497   1.257
47880W        W14421  31.698  18.279   4.981
47881W        W14422  36.997  24.207  12.209
47882W        W14423  25.395  11.743   1.105
47883W        W14424  26.557  44.583   0.017
47884W        W14425  14.282  15.634   3.669
47885W        W14426  28.511  44.890   2.717
47886W        W14427  30.155   8.172   0.470
47887W        W14428  23.551   3.169   3.142
47888W        W14429  28.736  33.689  14.184
47889W        W14430   4.936   9.100  10.285
47890W        W14431  36.102  18.631  10.655
47891W        W14432  34.559  34.466  10.565
47892W        W14433  27.175  10.873   3.241
47893W        W14434  37.485   9.734   1.888
47894W        W14435  30.254  22.151   4.549
47895W        W14436  34.799  42.493   2.912
47896W        W14437   5.432  19.178  12.508
47897W        W14438   1.280  17.688  12.463
47898W        W14439   5.462   2.293   1.885
47899W        W14440  38.685  30.107  14.518
47900W        W14441   8.399  30.226  14.999
47901W        W14442  31.695  44.262   1.741
47902W        W14443  10.763  22.538  14.880
47903W        W14444  33.129   2.275   0.489
47904W        W14445  30.228   0.214   4.443
47905W        W14446  27.805  17.999  11.111
47906W        W14447  34.238   3.456  12.938
47907W        W14448  19.247  22.143   1.041
47908W        W14449  23.251  43.160   0.972
47909W        W14450  37.440  44.068   3.692
47910W        W14451  13.451  42.316  13.857
47911W        W14452  21.770  24.692  13.462
47912W        W14453  16.793  10.354  14.062
47913W        W14454   7.820   8.632   3.735
47914W        W14455  22.750  15.291   1.529
47915W        W14456  22.563   0.009   4.716
47916W        W14457   1.377   2.323   1.006
47917W        W14458  41.458  25.279  13.566
47918W        W14459   3.400  34.020  14.748
47919W        W14460  37.281   8.701  12.917
47920W        W14461  34.194  27.761   1.927
47921W        W14462  17.149   1.463   3.061
47922W        W14463  28.538  17.074   3.653
47923W        W14464   4.706  27.978  11.463
47924W        W14465  31.916  18.063  11.576
47925W        W14466  24.994  26.128   4.680
47926W        W14467  37.270  16.149  11.683
47927W        W14468  42.274  20.298   4.636
47928W        W14469  13.265   0.651   1.771
47929W        W14470  44.846  33.455   1.549
47930W        W14471  29.703  13.606  12.858
47931W        W14472  30.943  40.297   1.392
47932W        W14473  30.546   0.233   0.756
47933W        W14474  25.092  39.057  12.530
47934W        W14475  11.725  43.058  13.867
47935W        W14476   3.230   9.119  13.392
47936W        W14477  22.963  20.768   4.078
47937W        W14478  24.206  16.696   1.525
47938W        W14479  39.326  40.487  13.687
47939W        W14480  10.735  29.996  11.572
47940W        W14481   5.242  43.562  11.613
47941W        W14482   0.776  30.354   2.183
47942W        W14483  37.228  14.316   0.239
47943W        W14484  24.985  19.066  13.081
47944W        W14485  15.230  39.787  11.259
47945W        W14486  13.651  30.971   3.157
47946W        W14487  36.416  31.936  11.639
47947W        W14488   6.793  24.954  12.103
47948W        W14489  40.564  22.020  11.581
47949W        W14490  21.076  13.383  12.634
47950W        W14491   2.914   2.888   1.170
47951W        W14492   8.463  31.238   0.866
47952W        W14493   2.707  32.494   0.394
47953W        W14494  42.321  30.474   1.408
47954W        W14495  29.881  23.899   4.391
47955W        W14496  15.279  17.090   3.703
47956W        W14497  14.336  36.101   2.386
47957W        W14498  12.197   8.582   1.249
47958W        W14499  18.378  19.116   4.379
47959W        W14500  12.880  28.704  11.019
47960W        W14501  18.769  40.369   5.010
47961W        W14502  28.429   7.058   0.408
47962W        W14503   5.282  39.863  10.669
47963W        W14504  11.645  21.445  14.906
47964W        W14505  44.755   8.127   3.857
47965W        W14506   8.978  33.595  11.131
47966W        W14507  44.801  37.965   3.269
47967W        W14508  18.070   3.487   1.863
47968W        W14509   7.513  42.944  14.055
47969W        W14510  21.162  28.195  11.681
47970W        W14511  15.527   8.914   0.484
47971W        W14512  29.122  16.294   0.428
47972W        W14513  28.601  22.495  14.054
47973W        W14514  10.389  38.218  10.829
47974W        W14515  34.990   0.987   4.550
47975W        W14516  20.502  26.435  14.814
47976W        W14517  23.769  34.111   2.536
47977W        W14518  24.410  32.487   0.800
47978W        W14519  39.283   2.509   1.515
47979W        W14520   3.871  21.512  12.532
47980W        W14521  38.411  17.251  13.548
47981W        W14522  13.541  17.167   4.860
47982W        W14523  37.306  22.806   4.511
47983W        W14524  24.229  27.481   0.897
47984W        W14525  37.522  44.483   1.175
47985W        W14526  17.265  15.351  13.385
47986W        W14527  14.101  20.601   1.979
47987W        W14528  35.584  39.515  13.927
47988W        W14529  38.478   3.408   4.160
47989W        W14530  25.909   2.345   1.933
47990W        W14531  10.119  37.357   3.760
47991W        W14532  32.053  12.651   2.139
47992W        W14533   5.262   3.134  13.998
47993W        W14534  24.075  10.349  14.811
47994W        W14535   3.176   8.825   2.959
47995W        W14536  38.665  37.294  11.497
47996W        W14537  40.525  38.816   4.132
47997W        W14538  25.045  28.921  13.614
47998W        W14539  25.116  37.523   0.214
47999W        W14540  14.810   0.449  11.092
48000W        W14541   2.826  31.371  13.536
48001W        W14542  29.939  43.402   0.007
48002W        W14543  18.349   2.067  14.857
48003W        W14544  17.674  20.961   4.060
48004W        W14545  23.607  11.519   1.021
48005W        W14546   3.108  41.569  14.753
48006W        W14547  14.150  32.961  13.966
48007W        W14548  39.827  40.282  14.892
48008W        W14549  30.415  41.055   4.046
48009W        W14550  17.745  38.606  12.359
48010W        W14551  13.545   9.227  13.811
48011W        W14552  35.785  28.004  11.086
48012W        W14553  18.178  34.362  11.257
48013W        W14554  10.791  34.551   3.609
48014W        W14555   4.724  20.114   3.396
48015W        W14556   3.847  23.584  11.118
48016W        W14557  40.827  30.115   3.900
48017W        W14558  16.267  39.132  14.846
48018W        W14559  29.143   2.654  13.452
48019W        W14560  36.006  17.718  14.897
48020W        W14561  33.055  12.374   9.756
48021W        W14562   1.815  31.055   1.769
48022W        W14563  33.521  35.624  13.895
48023W        W14564  21.024  39.100   1.227
48024W        W14565   8.733  13.720  12.791
48025W        W14566  42.498  30.349  12.015
48026W        W14567   0.212  23.978  13.394
48027W        W14568  38.041  31.025  11.551
48028W        W14569  39.995  10.451  12.944
48029W        W14570  37.823   4.813  11.067
48030W        W14571  41.018  28.068   0.268
48031W        W14572  10.793  17.759   0.522
48032W        W14573  30.810  17.274  12.410
48033W        W14574   5.758  11.210  11.309
48034W        W14575  11.665  12.755   4.507
48035W        W14576  44.443  23.168   3.823
48036W        W14577  12.043  34.530  12.458
48037W        W14578   1.436   5.866  13.709
48038W        W14579  22.427   1.280  12.920
48039W        W14580   2.879  37.588  13.582
48040W        W14581   8.394  21.762  11.535
48041W        W14582  24.034  21.497   3.829
48042W        W14583  22.060  22.026   4.602
48043W        W14584  15.268  18.697   4.625
48044W        W14585  25.413   6.128  12.475
48045W        W14586  37.581  20.963  12.972
48046W        W14587  28.166   9.597   3.165
48047W        W14588  19.696  32.193  14.449
48048W        W14589  29.025  30.568  13.894
48049W        W14590  33.883  37.331  11.701
48050W        W14591   9.910  43.356  10.660
48051W        W14592  19.137  31.329   4.267
48052W        W14593  41.621   8.406  13.102
48053W        W14594  29.415  26.715   2.112
48054W        W14595  42.001  31.713   1.753
48055W        W14596  26.568  12.963   0.485
48056W        W14597   9.746  10.924   0.767
48057W        W14598  30.643   4.660   0.851
48058W        W14599  43.050  25.034  11.942
48059W        W14600  40.338  42.249  13.813
48060W        W14601  32.848   5.187   2.302
48061W        W14602  27.604  10.811   4.333
48062W        W14603  21.506   1.292   1.085
48063W        W14604  13.299  19.167  14.354
48064W        W14605  11.987  37.302  14.953
48065W        W14606  44.458  35.657  13.712
48066W        W14607  20.613  19.633   4.235
48067W        W14608   7.728  26.193   0.239
48068W        W14609   8.786  41.708   2.223
48069W        W14610  28.015  25.499   4.972
48070W        W14611   8.662  38.921   0.729
48071W        W14612   9.874  33.021   0.192
48072W        W14613  39.850  15.818  10.758
48073W        W14614  33.429  22.441   0.920
48074W        W14615  39.834  37.387   2.446
48075W        W14616   0.727   0.428  11.278
48076W        W14617   3.687  11.984   0.320
48077W        W14618   0.363  26.558   3.667
48078W        W14619  19.679  29.968   4.411
48079W        W14620  14.835   6.583  12.937
48080W        W14621   6.897  32.115   2.856
48081W        W14622  20.177   1.928  13.803
48082W        W14623  40.419  33.525   0.552
48083W        W14624  31.083   0.902   2.221
48084W        W14625  12.843  38.172  14.356
48085W        W14626  33.986   0.251  10.263
48086W        W14627  40.618   8.299  12.589
48087W        W14628   4.318   5.759   4.218
48088W        W14629  44.457  34.613   0.959
48089W        W14630  10.999  37.560   0.920
48090W        W14631   9.846  30.324  11.131
48091W        W14632  15.923  44.200   4.276
48092W        W14633  31.597   6.346   2.618
48093W        W14634  20.695   5.925  12.315
48094W        W14635  17.756  22.608  14.343
48095W        W14636  11.297  42.015  11.740
48096W        W14637  33.552  38.184   3.068
48097W        W14638  28.203   3.852   1.430
48098W        W14639   1.912  23.693  11.175
48099W        W14640  22.717  27.113   4.020
48100W        W14641   8.152  43.271  12.909
48101W        W14642  11.776  26.018  12.013
48102W        W14643   8.155  41.593   2.292
48103W        W14644  40.378  44.815   2.647
48104W        W14645  35.354   3.531   4.935
48105W        W14646  32.092  28.903  10.829
48106W        W14647  24.102  23.481  13.719
48107W        W14648  12.140  20.527   2.829
48108W        W14649  28.961  35.486  12.111
48109W        W14650  36.610   6.152  13.474
48110W        W14651   5.936   4.184   3.260
48111W        W14652  34.912   0.216  14.423
48112W        W14653  23.880  20.518   3.868
48113W        W14654  12.210  19.341   0.815
48114W        W14655  19.208  23.628   1.297
48115W        W14656  37.356  37.427  11.612
48116W        W14657  31.132  34.839  13.128
48117W        W14658  26.748  37.772  11.755
48118W        W14659  23.633  19.641  11.874
48119W        W14660  23.664  21.571  12.933
48120W        W14661  44.775   9.656  13.793
48121W        W14662  21.454  22.512   1.479
48122W        W14663  23.948   9.569   1.346
48123W        W14664  33.880  12.929  13.958
48124W        W14665  27.263  12.152   2.820
48125W        W14666  30.818  16.756   3.228
48126W        W14667  17.071  25.942  14.285
48127W        W14668  43.061  32.392  13.844
48128W        W14669  36.846   5.368  14.967
48129W        W14670  26.609   6.841   0.936
48130W        W14671  22.069   2.425  11.552
48131W        W14672  26.005  22.577  13.005
48132W        W14673  43.073  28.007  12.075
48133W        W14674  25.467  21.245  11.989
48134W        W14675  34.143  20.333  12.357
48135W        W14676   3.231   9.325   1.166
48136W        W14677  24.128  15.642  11.654
48137W        W14678   7.741  12.521   3.871
48138W        W14679  39.815   2.854   3.805
48139W        W14680  43.990  31.990  13.566
48140W        W14681  30.428  41.993  10.409
48141W        W14682  36.749  27.153   3.697
48142W        W14683   2.411  23.223   1.641
48143W        W14684  12.944  40.630   3.291
48144W        W14685  12.866  34.316   4.575
48145W        W14686  23.928   7.184  11.783
48146W        W14687   5.758  21.993   2.280
48147W        W14688  28.099   8.570   3.222
48148W        W14689  18.294  31.617   4.179
48149W        W14690  40.935  16.661   4.340
48150W        W14691  42.754  34.377   0.741
48151W        W14692  30.453  41.375  14.312
48152W        W14693  24.776   2.043  12.981
48153W        W14694  30.046   5.459   1.211
48154W        W14695   0.491   3.829   5.704
48155W        W14696   3.466  32.201  14.371
48156W        W14697  14.311  14.780  13.994
48157W        W14698  42.957  27.040  14.441
48158W        W14699  22.710  20.700   3.102
48159W        W14700  23.254  41.719  10.279
48160W        W14701  26.263  26.388  14.798
48161W        W14702  19.694  40.709  10.723
48162W        W14703   0.367  30.486  14.027
48163W        W14704  15.394  44.232   1.690
48164W        W14705  35.935  24.616   2.448
48165W        W14706  27.443  39.908  14.434
48166W        W14707  15.408   5.228  10.875
48167W        W14708  10.230   2.776   0.042
48168W        W14709  29.560  30.893  12.887
48169W        W14710   0.269   3.209  14.222
48170W        W14711   9.389  34.228  13.216
48171W        W14712  42.971  38.120   0.748
48172W        W14713  39.334   8.092  14.988
48173W        W14714  32.853  31.844  11.248
48174W        W14715  38.583  17.747   1.757
48175W        W14716  43.986   5.408   2.395
48176W        W14717  31.255  40.455  14.451
48177W        W14718  36.678  16.760  14.406
48178W        W14719  19.531   6.249   2.839
48179W        W14720  17.267  15.671  12.890
48180W        W14721  17.227  35.908   2.395
48181W        W14722   2.166  31.099   0.148
48182W        W14723  27.044  32.041  12.949
48183W        W14724  10.460   9.224   4.050
48184W        W14725  17.164  11.789   2.344
48185W        W14726  23.254  18.954   1.578
48186W        W14727  23.244  26.644  13.494
48187W        W14728  34.535  30.271  11.912
48188W        W14729  44.034  35.355   5.065
48189W        W14730  14.300   4.343   0.309
48190W        W14731   6.973   3.693  12.583
48191W        W14732  21.261  24.804  12.872
48192W        W14733  17.582  12.266   2.680
48193W        W14734  11.852  13.151   3.501
48194W        W14735  44.454  17.449   1.173
48195W        W14736  44.309   2.836   1.473
48196W        W14737  34.697  41.823  11.140
48197W        W14738  42.839  23.051   3.896
48198W        W14739   1.843  14.182  12.538
48199W        W14740  34.422  10.807  14.486
48200W        W14741  16.134  25.331   1.183
48201W        W14742  25.431  40.194   3.831
48202W        W14743  35.833  23.711   4.460
48203W        W14744  20.939  39.151   5.106
48204W        W14745  37.479  10.744   1.772
48205W        W14746  34.396  26.631  13.426
48206W        W14747   7.650  11.784   4.513
48207W        W14748  38.605  17.781  12.297
48208W        W14749  24.528  42.406   4.749
48209W        W14750  19.039  26.064   1.929
48210W        W14751  32.624   9.780  11.749
48211W        W14752  36.458  11.469  13.813
48212W        W14753  36.602  22.448   3.655
48213W        W14754  17.682  32.543   2.524
48214W        W14755  12.032   4.220   1.897
48215W        W14756  18.486  34.083  13.555
48216W        W14757   4.464  34.906  13.476
48217W        W14758  38.035   8.356   1.017
48218W        W14759  22.154  12.565  12.101
48219W        W14760   4.506  25.307  13.829
48220W        W14761  13.665  11.889  12.589
48221W        W14762  23.737   8.357  14.011
48222W        W14763  32.922   7.359  11.931
48223W        W14764  35.668  11.825  11.495
48224W        W14765  10.676  22.707  11.335
48225W        W14766  15.720  32.963   0.253
48226W        W14767  20.159  26.537  12.361
48227W        W14768   3.360  32.572  14.029
48228W        W14769  38.347  12.431  11.198
48229W        W14770   0.275  25.112   0.040
48230W        W14771   5.177  41.604  12.996
48231W        W14772  26.858  32.732   4.667
48232W        W14773  34.880  15.405  11.368
48233W        W14774   8.400  43.782   1.669
48234W        W14775  19.695   7.590  13.378
48235W        W14776  27.272  25.019   0.358
48236W        W14777   0.204  24.534   3.741
48237W        W14778  33.673  16.940  13.416
48238W        W14779  24.793   4.026  14.416
48239W        W14780   5.709  33.816  10.861
48240W        W14781  35.913  35.308  12.071
48241W        W14782   1.420   1.294   0.496
48242W        W14783  34.932  39.967  12.079
48243W        W14784   7.757  39.747  13.373
48244W        W14785   8.161   3.778   0.894
48245W        W14786   8.111  38.596   3.295
48246W        W14787  21.756  20.650  11.342
48247W        W14788   3.150  28.156   5.132
48248W        W14789  22.915  12.228   3.716
48249W        W14790  20.823  33.749  13.332
48250W        W14791  30.000  12.637   3.202
48251W        W14792   5.798   0.192   0.815
48252W        W14793  37.997  10.702  13.520
48253W        W14794  12.255  42.836  12.059
48254W        W14795  29.381   3.850  11.985
48255W        W14796  16.292   2.755  10.414
48256W        W14797  28.896  30.193   2.701
48257W        W14798  38.649  11.757  13.549
48258W        W14799  40.410  37.817   3.532
48259W        W14800   1.644   5.110   4.905
48260W        W14801   8.929  19.206   2.176
48261W        W14802  33.609  44.439   5.045
48262W        W14803  25.531   7.303   3.261
48263W        W14804  34.809  40.269   1.623
48264W        W14805  38.547   1.689  10.660
48265W        W14806  36.423   2.233   5.555
48266W        W14807   1.692  30.561   0.807
48267W        W14808  12.812  34.499   1.713
48268W        W14809  26.196  32.900   4.319
48269W        W14810  38.990  27.570  14.226
48270W        W14811  37.418  42.735  12.475
48271W        W14812   2.867  33.044   5.428
48272W        W14813   2.789  38.365   1.831
48273W        W14814  37.878  34.525  14.569
48274W        W14815  31.571   0.242  14.986
48275W        W14816  24.991  42.911   0.351
48276W        W14817  27.586   3.363   0.960
48277W        W14818  42.466  12.363   2.636
48278W        W14819  30.131  35.303  10.449
48279W        W14820  38.878  17.216  11.551
48280W        W14821  15.788  18.970  11.648
48281W        W14822  17.295  31.934   0.802
48282W        W14823  16.291   5.765  10.765
48283W        W14824  20.930  30.160  11.709
48284W        W14825  18.952  40.596   4.578
48285W        W14826  35.989   5.394   4.740
48286W        W14827  37.841  43.169  12.979
48287W        W14828  20.094  36.441   1.735
48288W        W14829   2.256  19.498  14.034
48289W        W14830   0.810  31.514   3.702
48290W        W14831   6.293  40.575  14.995
48291W        W14832  21.309  28.155   2.463
48292W        W14833  14.265  18.593   3.290
48293W        W14834  21.945  23.103  11.150
48294W        W14835  22.494  19.543   4.105
48295W        W14836  32.066   9.488   1.362
48296W        W14837   1.301  33.393   1.754
48297W        W14838  14.629   4.781   0.483
48298W        W14839  10.364  33.081  10.268
48299W        W14840  15.635   3.198   2.136
48300W        W14841  17.230  13.731  11.021
48301W        W14842   3.775   6.896   3.125
48302W        W14843   5.509  36.471   0.272
48303W        W14844  40.191  27.527  12.900
48304W        W14845  17.097  35.912  14.510
48305W        W14846  20.287  24.899   4.050
48306W        W14847  26.636  30.177  10.252
48307W        W14848  34.091   6.357  14.922
48308W        W14849   9.028  41.396   4.643
48309W        W14850   7.264  27.910   1.814
48310W        W14851  15.315  38.907   1.737
48311W        W14852   0.817   6.791   1.014
48312W        W14853   1.699   2.899  11.665
48313W        W14854  20.592  23.336  14.522
48314W        W14855  27.571  16.279  13.428
48315W        W14856  25.739  12.678   3.770
48316W        W14857  40.046  43.795   0.313
48317W        W14858  11.835  10.477   9.961
48318W        W14859  13.464  37.914   1.842
48319W        W14860   9.276  11.131  13.400
48320W        W14861  16.026  20.451   0.437
48321W        W14862  26.526   0.455  14.523
48322W        W14863  13.063  14.849   1.762
48323W        W14864  11.684  16.085   3.689
48324W        W14865  13.688  42.251  12.932
48325W        W14866  10.520  34.603   4.490
48326W        W14867   6.376  22.194  14.323
48327W        W14868   4.722  13.574   2.277
48328W        W14869  37.014  41.130  12.840
48329W        W14870  43.829  28.033  12.591
48330W        W14871  16.128  24.462   3.353
48331W        W14872  33.667   9.419  13.989
48332W        W14873  43.990  40.137   0.889
48333W        W14874  13.307   9.869  10.697
48334W        W14875  39.981  20.268   4.075
48335W        W14876  16.672  28.212  10.784
48336W        W14877   4.830  43.893  10.033
48337W        W14878   8.253  33.704  14.786
48338W        W14879  14.385  43.633  14.941
48339W        W14880  39.118   3.764   2.084
48340W        W14881  10.270  21.763  11.030
48341W        W14882  42.850  23.063  11.912
48342W        W14883   7.814  24.682  13.812
48343W        W14884  20.279   3.873   1.654
48344W        W14885  21.224  13.352   3.772
48345W        W14886  18.629  24.774  13.486
48346W        W14887   0.444  40.151  12.861
48347W        W14888   7.427  11.162   0.753
48348W        W14889  23.793  13.197   1.311
48349W        W14890  10.393  16.396  13.853
48350W        W14891  24.021   2.802   0.463
48351W        W14892  31.172   7.704   0.805
48352W        W14893  20.623  26.724  12.501
48353W        W14894  14.699  42.904   3.820
48354W        W14895  28.479  36.013   2.862
48355W        W14896  14.704   2.736   4.429
48356W        W14897  41.963  31.073  12.844
48357W        W14898  11.628  44.380   3.929
48358W        W14899  14.535  22.277   4.130
48359W        W14900  23.682   5.647  14.520
48360W        W14901  23.641  16.127   1.076
48361W        W14902  29.991  24.424   3.141
48362W        W14903  22.638   5.351  11.896
48363W        W14904  33.690   0.182   5.505
48364W        W14905  34.651   8.158  13.333
48365W        W14906  39.087  42.338   0.228
48366W        W14907  16.354   3.898  13.489
48367W        W14908  30.052  14.582   4.608
48368W        W14909  10.291  18.294   3.154
48369W        W14910  20.485   5.485   0.891
48370W        W14911  19.622  12.724   5.223
48371W        W14912   9.946  33.002   3.235
48372W        W14913  25.676  31.937  12.458
48373W        W14914  14.348   6.625   3.621
48374W        W14915  10.966  20.226  11.615
48375W        W14916  10.292  23.186  13.047
48376W        W14917   6.444   4.789   0.752
48377W        W14918  25.766  18.934   3.396
48378W        W14919  31.118   0.133   3.566
48379W        W14920  44.065  24.151   4.772
48380W        W14921   0.310  40.035  14.314
48381W        W14922  38.779  40.009  12.590
48382W        W14923  44.336  40.350  11.868
48383W        W14924  41.947  28.430  13.904
48384W        W14925  12.157  18.591   2.913
48385W        W14926  32.528   2.282   2.722
48386W        W14927  42.445  17.296   1.457
48387W        W14928  15.877  39.759   0.768
48388W        W14929  20.789   0.059  11.915
48389W        W14930  13.227  11.815  14.280
48390W        W14931  40.530  44.979  13.418
48391W        W14932   1.963  34.720  14.238
48392W        W14933  23.549  32.280  14.859
48393W        W14934   0.365  24.870  11.629
48394W        W14935  14.196  33.377   3.164
48395W        W14936  16.471  19.952   4.131
48396W        W14937  42.530   3.376  13.157
48397W        W14938  32.315   9.924   1.333
48398W        W14939  23.960  24.342   2.177
48399W        W14940  31.674   9.852   1.332
48400W        W14941  19.262  24.674  10.729
48401W        W14942  44.356   6.150  11.825
48402W        W14943  15.813  38.380  12.935
48403W        W14944  27.426  16.739   4.508
48404W        W14945   2.348   6.738   4.414
48405W        W14946  12.373   9.900  13.407
48406W        W14947  31.220  33.075   3.294
48407W        W14948  12.142  37.504  14.437
48408W        W14949  24.790   8.659   2.316
48409W        W14950  34.980  43.116   1.259
48410W        W14951  31.299  34.053  14.995
48411W        W14952  33.855  15.444  10.906
48412W        W14953  35.884  37.008   3.609
48413W        W14954  30.103   7.359   3.185
48414W        W14955  37.566   5.961  11.629
48415W        W14956   9.889   7.196   0.279
48416W        W14957  29.541   8.412   3.671
48417W        W14958  38.705  43.914  13.489
48418W        W14959  19.760  14.623  12.926
48419W        W14960  40.784  13.741  14.792
48420W        W14961  19.212  15.924   5.010
48421W        W14962  28.920  25.362  13.015
48422W        W14963  42.319   5.491   0.443
48423W        W14964  40.021  44.134   3.025
48424W        W14965  10.756   6.884   0.631
48425W        W14966   0.736  30.183  13.784
48426W        W14967   0.307  11.037  14.396
48427W        W14968  20.288  18.339   9.705
48428W        W14969   4.451  17.791   2.242
48429W        W14970  22.742  20.785   1.695
48430W        W14971   0.872  13.590  11.370
48431W        W14972  18.733   1.268   2.145
48432W        W14973   0.832   0.362   0.476
48433W        W14974  44.873  11.984   3.514
48434W        W14975  24.992  13.801   2.278
48435W        W14976  30.480   9.406   0.697
48436W        W14977  15.269   3.162   1.268
48437W        W14978  14.098  23.590   4.348
48438W        W14979  30.960  41.768  12.577
48439W        W14980  15.104  15.291  10.388
48440W        W14981   3.049  16.694  13.782
48441W        W14982  16.174  30.616  13.815
48442W        W14983   2.257  21.779  11.331
48443W        W14984   6.850  13.105  14.707
48444W        W14985  15.345  11.780  10.968
48445W        W14986  44.120  22.405   2.459
48446W        W14987  19.134   4.811  12.001
48447W        W14988  32.979   3.867   0.176
48448W        W14989  28.554   4.905  13.098
48449W        W14990  41.097  43.571  12.061
48450W        W14991   8.446  17.004   1.251
48451W        W14992  39.597  13.971  13.043
48452W        W14993  26.081  33.835   2.149
48453W        W14994  13.869  15.455  14.266
48454W        W14995  38.452  34.663  12.970
48455W        W14996  12.408  29.091  12.050
48456W        W14997  10.689  10.442   0.922
48457W        W14998  11.120  32.183  11.114
48458W        W14999   8.222  17.340   0.900
48459W        W15000  32.741  41.468   2.859
48460W        W15001  41.915   2.258   4.316
48461W        W15002  41.314  44.953   4.256
48462W        W15003  19.570  10.399  13.834
48463W        W15004  16.303  17.284  10.499
48464W        W15005  25.927  41.684  11.571
48465W        W15006  29.653  16.367   4.219
48466W        W15007  27.562   9.866  13.504
48467W        W15008  15.112   8.334  10.430
48468W        W15009  43.950   9.087   0.015
48469W        W15010  29.882  21.776   4.645
48470W        W15011  17.181   2.873  10.932
48471W        W15012  25.659  32.383  11.072
48472W        W15013   5.632  29.957   0.288
48473W        W15014   0.515  16.605   2.335
48474W        W15015  12.739  10.236   3.901
48475W        W15016  21.036  26.680  10.504
48476W        W15017  25.312  22.537   1.602
48477W        W15018  14.904  37.351  12.098
48478W        W15019  33.286   7.220   0.908
48479W        W15020   1.435  10.874  13.650
48480W        W15021  41.473  11.748  10.840
48481W        W15022  32.047  35.035  10.961
48482W        W15023  33.899  13.297   1.673
48483W        W15024  21.283  33.005  11.240
48484W        W15025  25.470  32.802   0.379
48485W        W15026  14.067   0.704  14.292
48486W        W15027  26.407  32.986  14.659
48487W        W15028  33.084  28.236   4.933
48488W        W15029  16.578  17.333  13.873
48489W        W15030  35.714   8.874  13.345
48490W        W15031  33.016  13.739   3.157
48491W        W15032  31.399   6.173   0.677
48492W        W15033  11.892  41.848   0.445
48493W        W15034  38.349  40.055   4.082
48494W        W15035  37.663  15.869   2.719
48495W        W15036  18.978  11.033   1.709
48496W        W15037  44.498  33.749  13.120
48497W        W15038   1.696  41.062   0.081
48498W        W15039  41.826  11.040   3.248
48499W        W15040  26.488   8.336   2.706
48500W        W15041  18.061  25.231  11.150
48501W        W15042  14.180   7.117   4.665
48502W        W15043  34.672  35.088   2.312
48503W        W15044  16.673  38.873   3.144
48504W        W15045  27.667   7.695   0.979
48505W        W15046  27.886   6.383   0.971
48506W        W15047  10.340  23.158   1.518
48507W        W15048  19.242  20.338  10.715
48508W        W15049   6.007  13.372   0.267
48509W        W15050  19.005  28.577   4.710
48510W        W15051  40.020  44.221  12.270
48511W        W15052   9.758  25.581   2.887
48512W        W15053  37.096  36.460  12.046
48513W        W15054   0.723   9.073  13.569
48514W        W15055  29.522  40.422   0.119
48515W        W15056  31.469   2.075   9.627
48516W        W15057  23.493  39.559   0.911
48517W        W15058  34.525  28.112  13.439
48518W        W15059  14.336  37.819   0.754
48519W        W15060  43.886   5.716  10.704
48520W        W15061   2.824  26.734  13.652
48521W        W15062   9.300  23.476  10.689
48522W        W15063  38.411  30.228  13.281
48523W        W15064  19.756  19.890  10.816
48524W        W15065  33.336  27.118   2.659
48525W        W15066  15.275  17.797  13.884
48526W        W15067  17.087  21.073   1.758
48527W        W15068  27.925  34.311  14.576
48528W        W15069   4.859  27.980   0.507
48529W        W15070   1.866  12.154  14.812
48530W        W15071   0.582  17.655  14.866
48531W        W15072  39.024   3.255  14.309
48532W        W15073  19.257  16.108  11.558
48533W        W15074  35.794  15.789   4.129
48534W        W15075  34.470  26.112  14.682
48535W        W15076  11.274  36.445   1.885
48536W        W15077  13.304  25.542  11.949
48537W        W15078   7.922  37.987   2.251
48538W        W15079  34.929  29.607   2.653
48539W        W15080  38.474  17.443   4.184
48540W        W15081  38.064   0.035  11.290
48541W        W15082   2.964   0.295  11.495
48542W        W15083   8.319  36.217  13.089
48543W        W15084  14.317  36.061  14.308
48544W        W15085  19.024   7.709  14.750
48545W        W15086  28.063   3.691  11.167
48546W        W15087  15.566   3.784   3.567
48547W        W15088  11.946  33.638  12.388
48548W        W15089  27.727   0.443   0.002
48549W        W15090  26.480   6.638   1.891
48550W        W15091  39.284  35.603   1.851
48551W        W15092  28.545   0.708  12.544
48552W        W15093  15.680  39.810   3.952
48553W        W15094  16.249  44.984   2.331
48554W        W15095  40.931   2.321  11.098
48555W        W15096   1.787  39.307  12.491
48556W        W15097  37.036  14.027   1.827
48557W        W15098   4.958  32.609   4.546
48558W        W15099  41.823   3.186  14.425
48559W        W15100  43.065  10.959   3.650
48560W        W15101  23.595  37.631  12.092
48561W        W15102   4.970  32.369   1.738
48562W        W15103  13.111  25.687   3.484
48563W        W15104  11.640   2.800   2.313
48564W        W15105   9.925   0.206   1.929
48565W        W15106  31.998  28.701   3.897
48566W        W15107  44.015  35.348   0.406
48567W        W15108  42.933  21.788   0.815
48568W        W15109   9.688  22.322   3.987
48569W        W15110  10.207  24.581  14.934
48570W        W15111  39.906   0.888  14.025
48571W        W15112  43.035  44.829   1.191
48572W        W15113  31.020   7.406  12.405
48573W        W15114  27.548  44.968  12.878
48574W        W15115  32.713  13.782  11.714
48575W        W15116  13.256  17.283  10.558
48576W        W15117  20.954  29.600   4.140
48577W        W15118  36.425  32.519  12.366
48578W        W15119  22.470  17.582  10.698
48579W        W15120  23.655  37.048   3.885
48580W        W15121  14.308   1.287   2.577
48581W        W15122  31.081  17.974   1.326
48582W        W15123  37.077  23.197   1.897
48583W        W15124  33.588   8.449   4.091
48584W        W15125  36.061  28.366   3.990
48585W        W15126   4.809  42.061  10.493
48586W        W15127  15.988  16.158   5.466
48587W        W15128  42.501  11.719  11.973
48588W        W15129  29.089  17.136   4.755
48589W        W15130  43.244  23.991   3.075
48590W        W15131  14.097  28.645   0.231
48591W        W15132  18.805   9.327  11.559
48592W        W15133  28.855  44.399   0.751
48593W        W15134   3.828  28.172   2.741
48594W        W15135  25.698  14.825  13.843
48595W        W15136  36.426  28.348   1.361
48596W        W15137  30.965  32.189   2.809
48597W        W15138  40.520  18.149  13.869
48598W        W15139  33.920  25.993  11.224
48599W        W15140  27.381   7.290   0.833
48600W        W15141  33.836  24.925   4.166
48601W        W15142  18.591  18.999  13.312
48602W        W15143  13.707  25.619   2.256
48603W        W15144   1.503  16.470  12.922
48604W        W15145  10.830  17.528   2.458
48605W        W15146  16.704  42.717  13.310
48606W        W15147  18.698   7.365  13.451
48607W        W15148   0.426  32.962  14.037
48608W        W15149  28.723  44.891  10.544
48609W        W15150  24.260  12.425   4.661
48610W        W15151   8.803   6.686   3.163
48611W        W15152  35.887  42.006   0.811
48612W        W15153  15.826  15.059  14.065
48613W        W15154   0.838  12.648  14.899
48614W        W15155  44.401  19.532   1.832
48615W        W15156   8.152  18.348   4.086
48616W        W15157  30.170  38.757   1.545
48617W        W15158  26.108  36.373  13.065
48618W        W15159  31.454  19.260   3.580
48619W        W15160  41.947   6.486   3.079
48620W        W15161   7.680  39.142   0.386
48621W        W15162   0.012   0.379  14.522
48622W        W15163   2.712  37.448   0.909
48623W        W15164  17.834  31.109  13.527
48624W        W15165  25.464  27.722   4.151
48625W        W15166   9.645  25.662  13.332
48626W        W15167  10.409   3.841  13.889
48627W        W15168  35.203  15.133  13.337
48628W        W15169  19.106  20.497  12.342
48629W        W15170  21.696  43.079   1.905
48630W        W15171  41.957   1.473   0.813
48631W        W15172  38.158  30.115  12.809
48632W        W15173  10.645   0.313   1.278
48633W        W15174  19.660  30.071  14.481
48634W        W15175  40.812  43.456  11.156
48635W        W15176   6.717  16.650   2.204
48636W        W15177   3.007   5.464  14.285
48637W        W15178  17.526  36.350   2.373
48638W        W15179  32.850  20.745  11.983
48639W        W15180  13.846  27.022   4.238
48640W        W15181   8.652  27.635   4.452
48641W        W15182  22.606  18.650   4.523
48642W        W15183  19.643  23.019  13.067
48643W        W15184  35.593  44.259   0.887
48644W        W15185   6.707  25.117  13.511
48645W        W15186  19.718  22.524   2.181
48646W        W15187  13.402  28.340   3.946
48647W        W15188  26.967  38.520   1.545
48648W        W15189  42.825  10.269  11.303
48649W        W15190  43.274  11.329   2.465
48650W        W15191  29.731  35.463  10.715
48651W        W15192  31.014  18.730   3.561
48652W        W15193  34.198   5.042   3.149
48653W        W15194   2.847  18.298  10.861
48654W        W15195  20.995  35.887  11.047
48655W        W15196  10.754   9.961  14.842
48656W        W15197  22.652  29.915  11.532
48657W        W15198  31.348  31.765  12.063
48658W        W15199  36.713  30.194  11.629
48659W        W15200   0.523  31.413  14.331
48660W        W15201   4.918   0.464  14.999
48661W        W15202  26.583   2.234  12.788
48662W        W15203  33.346   9.322  11.940
48663W        W15204  10.707  19.783   2.710
48664W        W15205  27.358  33.107  13.538
48665W        W15206   9.836  31.053   1.474
48666W        W15207  17.003  21.323  13.920
48667W        W15208  16.568   0.182   3.863
48668W        W15209  20.615  16.638   3.566
48669W        W15210  22.025  17.133   3.755
48670W        W15211   3.130  30.108  12.008
48671W        W15212  10.817   5.378   2.095
48672W        W15213  33.011  20.495  12.400
48673W        W15214  41.011  40.965   4.628
48674W        W15215  29.279   8.607  14.396
48675W        W15216  36.485  17.943  11.597
48676W        W15217  12.493  16.716  14.761
48677W        W15218  18.273  20.061   2.189
48678W        W15219  26.490  23.431  10.725
48679W        W15220  24.945  30.136  11.095
48680W        W15221  40.970  15.415  13.920
48681W        W15222  22.844  19.121  12.921
48682W        W15223  17.495  22.005  11.038
48683W        W15224  26.636  35.662  10.618
48684W        W15225  34.866  35.987  10.687
48685W        W15226  10.257  28.028   1.263
48686W        W15227   7.929  21.077   1.441
48687W        W15228  44.023  39.452  12.142
48688W        W15229  29.012  36.454  13.300
48689W        W15230  25.019  11.703   1.461
48690W        W15231  40.397  29.902  13.762
48691W        W15232  44.275  17.020   4.204
48692W        W15233  11.289   0.947   3.913
48693W        W15234   4.179  41.454   1.869
48694W        W15235  15.065  29.115   1.023
48695W        W15236  33.286  26.965  14.014
48696W        W15237  16.796  17.152  10.509
48697W        W15238  25.436   4.762  14.332
48698W        W15239  37.899   8.253  11.691
48699W        W15240  39.535  44.834   0.355
48700W        W15241  23.184  38.510  10.817
48701W        W15242  36.118  23.223   3.068
48702W        W15243  29.207  18.717  14.431
48703W        W15244   1.386  32.551   3.225
48704W        W15245  41.793  40.070   4.081
48705W        W15246   6.518   9.201   0.357
48706W        W15247   6.962   0.720  11.214
48707W        W15248  27.093   1.548   3.861
48708W        W15249   0.583   6.741  11.971
48709W        W15250  26.094  19.348  12.044
48710W        W15251  14.362  38.038  14.363
48711W        W15252  19.674   6.859   1.215
48712W        W15253  20.625  30.951   3.227
48713W        W15254  21.443  14.649  13.287
48714W        W15255  20.955  28.258   1.365
48715W        W15256  36.087  37.525   2.261
48716W        W15257  17.298   3.434   5.069
48717W        W15258  13.471  40.341  10.338
48718W        W15259  27.645  30.601   4.504
48719W        W15260  30.883  12.687   3.166
48720W        W15261  36.074   4.287  14.834
48721W        W15262   6.249   3.540  12.389
48722W        W15263   4.133   0.022  14.948
48723W        W15264  30.093  39.675   4.372
48724W        W15265  28.654  19.635   2.781
48725W        W15266  38.699  24.523   0.473
48726W        W15267   3.706  15.796   0.504
48727W        W15268  30.331  25.586  11.165
48728W        W15269   0.445  25.255   3.019
48729W        W15270  22.293  29.680  11.907
48730W        W15271   0.233  13.563   1.168
48731W        W15272  40.861  27.546  14.525
48732W        W15273  27.308  11.594  12.238
48733W        W15274  15.293  31.572  13.036
48734W        W15275  34.434  26.117   3.675
48735W        W15276  12.749  25.149  10.814
48736W        W15277  17.643  44.727  14.902
48737W        W15278  43.173   9.857  14.361
48738W        W15279  21.932  14.843  11.970
48739W        W15280   2.194  40.201   4.555
48740W        W15281   3.873  30.985   2.690
48741W        W15282   0.763  34.394   2.276
48742W        W15283  21.517  16.208  14.690
48743W        W15284  39.192   3.345  12.456
48744W        W15285  15.793  35.079  13.936
48745W        W15286  25.248  30.027  10.689
48746W        W15287  14.834  12.257   1.887
48747W        W15288  23.976   9.314  10.575
48748W        W15289  28.361  34.855  11.624
48749W        W15290  40.808  34.071  12.405
48750W        W15291  30.396  41.056  12.368
48751W        W15292   1.011  10.550   2.893
48752W        W15293  22.169   2.408   0.481
48753W        W15294  24.365  40.360   3.149
48754W        W15295  25.532  38.119   1.810
48755W        W15296  28.474  32.584   4.183
48756W        W15297  20.081   1.113   3.272
48757W        W15298  17.087  14.131   2.763
48758W        W15299   5.862   9.167  13.827
48759W        W15300  20.486   8.945   0.931
48760W        W15301   5.706  16.906  11.061
48761W        W15302   4.206  33.098   0.722
48762W        W15303  16.205  21.155   3.638
48763W        W15304  30.100  40.841  13.881
48764W        W15305   1.813   4.995  14.142
48765W        W15306  21.933  28.722   3.332
48766W        W15307  33.493  42.125   1.280
48767W        W15308  21.101   1.233  11.583
48768W        W15309  17.121  42.835  11.155
48769W        W15310  29.537  11.583   0.362
48770W        W15311  10.216  26.704  11.442
48771W        W15312  27.716   0.965  14.293
48772W        W15313  33.938  36.958   2.144
48773W        W15314  28.828   1.671   1.155
48774W        W15315   2.331   9.859  12.331
48775W        W15316   5.941  27.965  12.476
48776W        W15317  35.679  12.111   5.130
48777W        W15318  18.288  10.316  13.359
48778W        W15319   0.122  15.120   3.782
48779W        W15320  44.677   8.398  11.077
48780W        W15321   1.515   9.265  10.761
48781W        W15322  35.412  21.667  12.147
48782W        W15323  15.601   7.945  11.990
48783W        W15324  25.245  30.242   2.740
48784W        W15325  21.029  20.980   1.478
48785W        W15326  30.707  12.568  11.557
48786W        W15327   9.270  15.306   1.759
48787W        W15328  41.911  17.314  11.623
48788W        W15329   5.476   6.910   0.470
48789W        W15330   0.251  12.028   0.288
48790W        W15331  14.741  33.625  10.253
48791W        W15332  15.784  18.270   2.790
48792W        W15333   7.361  32.571  14.289
48793W        W15334  16.747   2.160   4.025
48794W        W15335  34.990  28.933  13.831
48795W        W15336  35.053  15.210  11.802
48796W        W15337  42.449  25.502   3.307
48797W        W15338   8.819   8.373   2.952
48798W        W15339   5.952  17.410  12.500
48799W        W15340  28.082  37.450  14.449
48800W        W15341  32.551   5.814  14.322
48801W        W15342   1.617  13.131  13.976
48802W        W15343   8.455   3.392   4.313
48803W        W15344   7.826  44.144   4.555
48804W        W15345  19.402  42.762  12.511
48805W        W15346   2.792  40.336  12.382
48806W        W15347   6.412  22.553   1.339
48807W        W15348  18.212   1.743   2.795
48808W        W15349  43.956  19.801   0.562
48809W        W15350  40.294  24.592   0.335
48810W        W15351  19.193  13.557   4.217
48811W        W15352  35.520  12.204   2.128
48812W        W15353  12.851  23.638  14.284
48813W        W15354  29.649   8.569  12.890
48814W        W15355   9.575  29.064  14.273
48815W        W15356  10.246  16.569   0.411
48816W        W15357  29.717   1.328  12.236
48817W        W15358  23.504  30.092  14.321
48818W        W15359  14.498  22.094   3.124
48819W        W15360   9.742   7.720  11.080
48820W        W15361   2.676  10.125   0.912
48821W        W15362  19.978  32.158   4.028
48822W        W15363  24.529  41.985   1.203
48823W        W15364   1.168   9.311  13.268
48824W        W15365  25.040  36.442   5.064
48825W        W15366   4.503  31.070  14.310
48826W        W15367   8.529  32.898  14.784
48827W        W15368  30.023  43.281   1.499
48828W        W15369  23.491  31.434   2.673
48829W        W15370  16.860  25.188   3.120
48830W        W15371  28.416  37.379  12.575
48831W        W15372  30.524  40.405  13.925
48832W        W15373   1.527  39.652   4.171
48833W        W15374   8.216   0.859  13.159
48834W        W15375  36.998   3.752  10.496
48835W        W15376   2.293  29.093   4.305
48836W        W15377  44.903  10.060  14.133
48837W        W15378  16.841  26.677   0.972
48838W        W15379  14.569  36.102  12.949
48839W        W15380   4.697  25.074  12.525
48840W        W15381  22.133  15.820  13.509
48841W        W15382  25.010  35.889  12.035
48842W        W15383  39.044  25.596  14.245
48843W        W15384  34.447  20.267  11.732
48844W        W15385   0.730  21.618   0.468
48845W        W15386  22.598   7.078  10.712
48846W        W15387  18.514  40.542   0.323
48847W        W15388  19.267   1.522  12.580
48848W        W15389  39.120  24.364   0.765
48849W        W15390  34.994  28.964  12.796
48850W        W15391  13.728   1.937  10.669
48851W        W15392  14.868  43.000   2.429
48852W        W15393  27.590  10.400  10.344
48853W        W15394  32.570  21.077  10.943
48854W        W15395  40.696  43.802   4.282
48855W        W15396   7.406  14.323   2.433
48856W        W15397  43.765  17.284   0.925
48857W        W15398   8.423  19.375  13.445
48858W        W15399  30.300  43.706  11.063
48859W        W15400  37.916  17.748   0.008
48860W        W15401   2.796  17.552  13.224
48861W        W15402  37.511  43.054  14.252
48862W        W15403  23.190  18.631  14.335
48863W        W15404  14.387  37.913   1.654
48864W        W15405  10.305  20.256   0.953
48865W        W15406  33.178   8.925  10.559
48866W        W15407   7.639   4.977   4.527
48867W        W15408  23.095   6.669  14.976
48868W        W15409  21.530   3.474   1.399
48869W        W15410  26.758   0.062   1.955
48870W        W15411  31.207  27.128  10.558
48871W        W15412  39.967  38.009  14.205
48872W        W15413   2.973  27.002  11.653
48873W        W15414  28.524   5.710   3.314
48874W        W15415  38.924  22.541   0.228
48875W        W15416   7.190  21.268  13.895
48876W        W15417  39.868   8.294   4.615
48877W        W15418  35.968  10.344   4.573
48878W        W15419  35.214  38.915   4.267
48879W        W15420  41.765   1.997  13.403
48880W        W15421  35.846  41.825  13.999
48881W        W15422  37.685  32.569   3.309
48882W        W15423  37.941  30.444   1.652
48883W        W15424  41.607   4.390   1.882
48884W        W15425   1.560  38.782  13.169
48885W        W15426  30.522   3.051  11.167
48886W        W15427  30.052  41.780   1.466
48887W        W15428  38.424   1.370   0.524
48888W        W15429  36.308  37.125  13.912
48889W        W15430  29.391   9.882  13.202
48890W        W15431  43.429  29.404  13.359
48891W        W15432  31.047  12.271  12.400
48892W        W15433  14.032   4.552   2.444
48893W        W15434  26.057  12.524   4.155
48894W        W15435   8.844  26.185  12.393
48895W        W15436  17.013  39.069  11.099
48896W        W15437   3.306  24.151  11.428
48897W        W15438   8.156  22.016  14.872
48898W        W15439  33.051  24.576   1.344
48899W        W15440  38.521  35.327   3.674
48900W        W15441  36.914  23.465   0.333
48901W        W15442  25.673  36.449   4.375
48902W        W15443  21.298  14.284   4.460
48903W        W15444   0.634  17.708   1.691
48904W        W15445  43.069  41.588  14.896
48905W        W15446  25.443   9.621   1.409
48906W        W15447  18.795  41.595   4.023
48907W        W15448  39.356   0.477  12.000
48908W        W15449   3.271  29.440   3.260
48909W        W15450  17.268  40.132   1.025
48910W        W15451   3.855  11.827  11.054
48911W        W15452  39.948   6.982  12.553
48912W        W15453  34.379  15.913  14.818
48913W        W15454  32.853  22.510  14.628
48914W        W15455  38.114  34.949  13.275
48915W        W15456  34.393   0.408  10.895
48916W        W15457   9.229   1.242  10.765
48917W        W15458   1.515  26.043  14.443
48918W        W15459  23.774  24.285  11.169
48919W        W15460  25.050  42.076   3.689
48920W        W15461  32.847  15.285   3.813
48921W        W15462   3.797   4.349  11.667
48922W        W15463  37.299  30.461  14.252
48923W        W15464  18.334  38.011  14.423
48924W        W15465   1.365  37.877  12.475
48925W        W15466   2.853  19.690  12.862
48926W        W15467  41.756   0.766  11.627
48927W        W15468   3.400  14.530   2.355
48928W        W15469  40.658  17.617  11.764
48929W        W15470   4.303  42.846   2.455
48930W        W15471  35.452   6.535   4.516
48931W        W15472  22.179  26.495  13.421
48932W        W15473  13.520  16.921  10.290
48933W        W15474  10.204  26.443  10.067
48934W        W15475  37.596  25.775   3.214
48935W        W15476  40.952   1.270   4.172
48936W        W15477   8.911  16.781  14.004
48937W        W15478  23.457  21.995   3.195
48938W        W15479  40.366  29.952   2.855
48939W        W15480  21.767  32.863  13.969
48940W        W15481   6.347   6.769  12.983
48941W        W15482  15.060   3.207   2.622
48942W        W15483  31.333  38.967  11.093
48943W        W15484   5.737  44.509  10.660
48944W        W15485  20.902  13.681   5.430
48945W        W15486   3.838  21.364   1.754
48946W        W15487   6.420   4.903   3.615
48947W        W15488  11.058  19.267   2.730
48948W        W15489   9.253  38.294   2.253
48949W        W15490  34.621   4.939   0.254
48950W        W15491  34.959  17.004  13.264
48951W        W15492   6.748  37.096  14.128
48952W        W15493   4.466  42.458  13.143
48953W        W15494  13.287  35.598  10.531
48954W        W15495   7.041  43.736  11.156
48955W        W15496  21.187  30.622   4.197
48956W        W15497  30.037   4.768  14.320
48957W        W15498  15.752  21.722   3.169
48958W        W15499  35.072  27.133   2.942
48959W        W15500  43.805   5.337  11.534
48960W        W15501   6.558  30.144   1.197
48961W        W15502  25.655  20.582   1.381
48962W        W15503  17.643  40.641  13.628
48963W        W15504  29.973  10.791   3.475
48964W        W15505  22.584  11.016   3.011
48965W        W15506  43.434   1.499   2.154
48966W        W15507   8.628  40.629  13.915
48967W        W15508   9.567  20.399   3.288
48968W        W15509  37.985  25.686   4.796
48969W        W15510  23.090  12.049   0.364
48970W        W15511   3.823  37.554  14.078
48971W        W15512  24.943  41.439   4.831
48972W        W15513  35.745  14.795  14.083
48973W        W15514  20.745  35.987  12.961
48974W        W15515  26.634  19.164   3.197
48975W        W15516  36.561  42.710  13.438
48976W        W15517   7.399   9.887  14.076
48977W        W15518  40.529  12.351  13.927
48978W        W15519  31.036  28.696  14.398
48979W        W15520  40.391  31.014   4.514
48980W        W15521  10.165  41.652   4.616
48981W        W15522  40.782  23.056   1.289
48982W        W15523   9.137  38.351   3.391
48983W        W15524  36.156   9.838  12.505
48984W        W15525  37.026  13.857   0.383
48985W        W15526  20.733  37.992  10.292
48986W        W15527   2.883  13.533   1.728
48987W        W15528  37.528  11.740   4.606
48988W        W15529  39.644  40.035  14.433
48989W        W15530  34.540  43.868   2.365
48990W        W15531  32.061   5.781   0.074
48991W        W15532  34.258   4.067   2.274
48992W        W15533  17.175  30.223   3.324
48993W        W15534  36.682  41.141  14.948
48994W        W15535   1.307   5.631  12.178
48995W        W15536  43.442  21.665   1.686
48996W        W15537  35.748  25.747  11.331
48997W        W15538  27.403  25.640  12.140
48998W        W15539  44.342  37.587  10.728
48999W        W15540   1.757   8.841  10.503
49000W        W15541  34.709  24.275   0.293
49001W        W15542   6.243  26.125   1.504
49002W        W15543  11.163  15.059   1.977
49003W        W15544  40.996  24.454   0.874
49004W        W15545  18.413  30.933   3.919
49005W        W15546  40.190  37.832   0.026
49006W        W15547   0.278   5.958   2.961
49007W        W15548   0.575  33.315  14.795
49008W        W15549  39.081   8.275  13.367
49009W        W15550  43.095   1.700   1.286
49010W        W15551   2.713  19.650  10.625
49011W        W15552  34.496  13.082  12.038
49012W        W15553  44.488  10.398  12.455
49013W        W15554  25.406  34.194   1.852
49014W        W15555  17.064  35.577   1.334
49015W        W15556  25.949  38.777  13.876
49016W        W15557  39.890   9.675  11.588
49017W        W15558  38.896  20.145   1.535
49018W        W15559  36.986   0.093   4.770
49019W        W15560  43.352  35.041   4.136
49020W        W15561  11.573  15.493  14.829
49021W        W15562  41.327  30.974  14.137
49022W        W15563   9.392  39.302  12.157
49023W        W15564  38.921  44.334   0.007
49024W        W15565  21.671  15.606   4.502
49025W        W15566  30.411   3.338   0.881
49026W        W15567   7.755  29.461  11.258
49027W        W15568  14.315   5.127   3.684
49028W        W15569  36.862  37.516   1.900
49029W        W15570  26.458  18.920  12.040
49030W        W15571  15.648  16.008   1.798
49031W        W15572  33.946  27.250   4.399
49032W        W15573  40.844  12.906   0.804
49033W        W15574  14.454  20.980  11.307
49034W        W15575  44.337  44.249  11.720
49035W        W15576  18.460  44.575  11.237
49036W        W15577  23.487  30.404  14.753
49037W        W15578  39.064  31.605   1.305
49038W        W15579  24.612   6.241   2.388
49039W        W15580  37.859  31.335   1.875
49040W        W15581   0.844  13.592   3.663
49041W        W15582  22.119   9.616  11.684
49042W        W15583  21.887   6.862  13.129
49043W        W15584  16.933   2.417   0.917
49044W        W15585   6.235  11.888  10.736
49045W        W15586  22.332   0.920   3.145
49046W        W15587   1.012  24.931  11.895
49047W        W15588   3.014  31.260  14.892
49048W        W15589   4.873  12.903   0.763
49049W        W15590  36.735  10.746   4.547
49050W        W15591  42.329  44.829  13.903
49051W        W15592  23.183  11.316  10.549
49052W        W15593  35.587  40.238   0.584
49053W        W15594   4.267  24.940   0.194
49054W        W15595  37.541  24.516  12.963
49055W        W15596  27.636   4.410  14.288
49056W        W15597  31.426  44.095   2.155
49057W        W15598  40.039  29.230  13.093
49058W        W15599   8.840  13.068  12.130
49059W        W15600  31.498  40.065  13.861
49060W        W15601  15.644  31.062  14.916
49061W        W15602  10.833  12.170  12.613
49062W        W15603  41.054  27.064  10.763
49063W        W15604  26.188  35.596  11.386
49064W        W15605  44.713   0.413   2.309
49065W        W15606  22.065  28.394  12.371
49066W        W15607  33.434  23.292  12.975
49067W        W15608  40.438  40.850   0.955
49068W        W15609  27.570  27.216  12.508
49069W        W15610  14.823  18.365  14.889
49070W        W15611  15.278  35.046  11.615
49071W        W15612  13.235  14.546  14.881
49072W        W15613  16.647  39.622   4.167
49073W        W15614  34.854  41.532  14.419
49074W        W15615  19.180  29.162  14.672
49075W        W15616   1.402  34.244   1.079
49076W        W15617  21.226  35.748   0.795
49077W        W15618  20.781  21.388   4.932
49078W        W15619  33.895  21.122  14.023
49079W        W15620   9.741  24.711   3.327
49080W        W15621  26.486   5.725   0.132
49081W        W15622  30.464  15.672   1.040
49082W        W15623   5.093  23.826  14.417
49083W        W15624   3.172   0.191  10.644
49084W        W15625  34.595  26.500  12.941
49085W        W15626  29.973   3.261   0.500
49086W        W15627  17.140  24.714   2.278
49087W        W15628  23.178  38.921  11.608
49088W        W15629   9.175  40.778  12.993
49089W        W15630  44.478   1.719  14.837
49090W        W15631  13.261  12.199  12.442
49091W        W15632  39.596  19.560   3.317
49092W        W15633  34.534  16.484  10.556
49093W        W15634  16.787  14.087   1.256
49094W        W15635   8.866  23.743  10.823
49095W        W15636  25.167   9.097  14.346
49096W        W15637   6.292  42.333  14.267
49097W        W15638  41.959  34.873  13.330
49098W        W15639  34.591  34.598   2.232
49099W        W15640  38.786  17.381  12.596
49100W        W15641   3.443  37.922  10.600
49101W        W15642   0.169  42.838   4.733
49102W        W15643   9.350  21.660   4.391
49103W        W15644  15.858  17.301   3.783
49104W        W15645   9.734  14.794   0.376
49105W        W15646  12.317  23.166   0.339
49106W        W15647  38.599  35.339  12.442
49107W        W15648  10.317  10.091   0.098
49108W        W15649  17.566  27.847  12.573
49109W        W15650  12.849  41.728   0.442
49110W        W15651   4.172  25.418   0.341
49111W        W15652   6.297   2.679   3.517
49112W        W15653  20.015  29.137  12.025
49113W        W15654  14.197  42.591   0.076
49114W        W15655  40.394  15.314   1.207
49115W        W15656   2.829  30.929  14.411
49116W        W15657  15.770  28.356  12.594
49117W        W15658  40.315  30.019   4.739
49118W        W15659  26.378   7.773   1.926
49119W        W15660   5.740  20.564   2.159
49120W        W15661  26.220  21.116  13.369
49121W        W15662  12.498  20.345  13.759
49122W        W15663  16.178  22.656   4.342
49123W        W15664  34.737  33.426  13.493
49124W        W15665  19.338  38.447   2.309
49125W        W15666  28.839  16.002   4.308
49126W        W15667  16.886  12.701  14.537
49127W        W15668  34.369  33.655   3.568
49128W        W15669  16.592  13.175  11.295
49129W        W15670   7.814  10.619   3.971
49130W        W15671  36.764  28.180   1.713
49131W        W15672  21.756   3.180   4.197
49132W        W15673  40.952   3.472   3.386
49133W        W15674  35.944  35.871   3.099
49134W        W15675  33.359  17.118  13.825
49135W        W15676  37.797  35.495  14.432
49136W        W15677  13.830  14.255   2.799
49137W        W15678  24.219  22.612   3.085
49138W        W15679   4.846  44.372   4.597
49139W        W15680   7.310  16.051   4.551
49140W        W15681  40.159  32.971  12.097
49141W        W15682  13.708   6.302   1.991
49142W        W15683  37.751   6.860   4.254
49143W        W15684  20.065  19.332   3.269
49144W        W15685  10.282  30.791   0.782
49145W        W15686  39.803  24.367  10.703
49146W        W15687   8.348  29.699   4.148
49147W        W15688  18.129   0.481   4.651
49148W        W15689  33.486   5.428  12.573
49149W        W15690   5.523  34.601   0.262
49150W        W15691  14.600  19.452  12.530
49151W        W15692  36.836  26.963  14.343
49152W        W15693  16.341  44.992   3.266
49153W        W15694  24.460  26.431   2.706
49154W        W15695  44.274   1.159   3.338
49155W        W15696  13.107  34.241   5.054
49156W        W15697  44.263  15.190   2.524
49157W        W15698  34.138  24.040   2.244
49158W        W15699  33.693  18.166   0.843
49159W        W15700   6.028   2.566   5.155
49160W        W15701  20.285  25.959  14.763
49161W        W15702  34.533  18.823   2.918
49162W        W15703   6.449   6.279  11.276
49163W        W15704  26.947  28.320   4.465
49164W        W15705  24.474  34.877  11.671
49165W        W15706  25.514   8.936  12.510
49166W        W15707  16.878  12.396   3.382
49167W        W15708  41.059  29.119  13.946
49168W        W15709  21.161  43.930  13.593
49169W        W15710  32.061  16.430   0.436
49170W        W15711  42.886   2.803   2.179
49171W        W15712   9.900  38.640   0.357
49172W        W15713  33.892  41.528  11.440
49173W        W15714  14.673  29.728   4.628
49174W        W15715   0.253   0.898   0.970
49175W        W15716  33.586  10.340   3.085
49176W        W15717   3.510  26.907  12.509
49177W        W15718  33.599   5.428  13.434
49178W        W15719  39.159  28.162   1.752
49179W        W15720   7.284   5.411   1.443
49180W        W15721   1.482   9.684  11.629
49181W        W15722   6.668  22.007   1.939
49182W        W15723  12.863  43.791  12.539
49183W        W15724   5.859  25.482  12.742
49184W        W15725  41.887  26.526   4.048
49185W        W15726  22.196   4.735   3.584
49186W        W15727  20.274   3.873   3.669
49187W        W15728  41.569  35.857   2.854
49188W        W15729  39.416  16.589  11.844
49189W        W15730   0.882  30.856   2.185
49190W        W15731  17.766  21.985   3.734
49191W        W15732  28.048  11.815  13.439
49192W        W15733  18.133  21.196  13.904
49193W        W15734  40.583  38.091   3.135
49194W        W15735  19.252  10.900  14.858
49195W        W15736  14.306  10.207  11.423
49196W        W15737   3.248  38.397  11.592
49197W        W15738  12.873  29.648  11.477
49198W        W15739  29.084   3.672  13.388
49199W        W15740   4.400   1.346  13.467
49200W        W15741   3.850  22.204   4.581
49201W        W15742  21.777   4.552  10.014
49202W        W15743   4.927  16.118  11.171
49203W        W15744  38.488  39.777   3.120
49204W        W15745  30.543   5.001  12.533
49205W        W15746  37.601  23.167   3.183
49206W        W15747  12.711  28.561   4.393
49207W        W15748   9.805  36.067   3.317
49208W        W15749   8.267  26.570   0.867
49209W        W15750  39.266  17.591   2.352
49210W        W15751   5.196  16.484  10.225
49211W        W15752  10.634  34.515   1.868
49212W        W15753   4.413  37.811   1.928
49213W        W15754  11.259  15.783  12.059
49214W        W15755  37.535  41.154  11.383
49215W        W15756  35.816  26.602  11.307
49216W        W15757  32.054  21.424  11.556
49217W        W15758  14.192  38.843   3.122
49218W        W15759   2.290  36.110  12.063
49219W        W15760  43.832  41.694  14.594
49220W        W15761  23.104  33.299  11.689
49221W        W15762  33.941  12.056  14.516
49222W        W15763  13.637   2.841   4.533
49223W        W15764  41.401  32.954  14.850
49224W        W15765  12.987  13.091  14.269
49225W        W15766  12.081  10.858  13.301
49226W        W15767  33.419   2.213  13.162
49227W        W15768  41.346   1.707  11.638
49228W        W15769  38.994  40.949   1.231
49229W        W15770   1.551  27.748  12.352
49230W        W15771  19.995  17.781  13.311
49231W        W15772  41.972  33.616  13.894
49232W        W15773   6.380  32.499   0.207
49233W        W15774  44.787  18.273   0.684
49234W        W15775  16.726  12.983   2.705
49235W        W15776  15.955   1.296  14.857
49236W        W15777   7.857  22.406   3.220
49237W        W15778  26.812  36.937  12.931
49238W        W15779  31.218  10.151   3.761
49239W        W15780   1.588  29.109  11.348
49240W        W15781  39.802  24.247  11.201
49241W        W15782  28.431  21.645   2.194
49242W        W15783  28.941  23.907   4.122
49243W        W15784  34.999  18.315   1.379
49244W        W15785  30.627  10.685  11.520
49245W        W15786  38.163  44.483  13.316
49246W        W15787  11.059  31.100  14.532
49247W        W15788  21.608  31.742   1.335
49248W        W15789   2.459   1.385  10.840
49249W        W15790  10.877  40.503   1.338
49250W        W15791  14.634   1.326  13.890
49251W        W15792  22.949  28.169  12.774
49252W        W15793  34.368  24.124  14.043
49253W        W15794   2.166  10.303  14.302
49254W        W15795  23.656  39.992  11.758
49255W        W15796  18.090  29.555  12.087
49256W        W15797  40.456  32.993  10.635
49257W        W15798   1.856  15.633   3.885
49258W        W15799  24.055  35.992   0.419
49259W        W15800  11.359  29.447   2.263
49260W        W15801  20.128  13.971   1.776
49261W        W15802  41.212  13.319   0.825
49262W        W15803   3.983  13.062  13.913
49263W        W15804   1.882  15.008  11.217
49264W        W15805  17.535  29.838   1.367
49265W        W15806  27.231  26.546   3.798
49266W        W15807  41.932  26.857   1.439
49267W        W15808   7.620   1.923  10.541
49268W        W15809  33.806  16.832  11.579
49269W        W15810   7.873  34.418   4.728
49270W        W15811  22.540  12.614  10.678
49271W        W15812   6.242  17.091  14.437
49272W        W15813  33.905  33.874   3.749
49273W        W15814  17.265   6.879  12.497
49274W        W15815  11.545   2.242   0.034
49275W        W15816  25.334  38.929  14.974
49276W        W15817  40.094  15.417   4.483
49277W        W15818  14.709  27.776   3.687
49278W        W15819  29.230  25.218  11.856
49279W        W15820  20.180  39.047   3.263
49280W        W15821  13.099  28.381   2.709
49281W        W15822  28.045  31.946  10.154
49282W        W15823  42.560   5.448   3.968
49283W        W15824  22.737  28.183  11.974
49284W        W15825   6.642  21.800  10.643
49285W        W15826  23.652  35.580   3.733
49286W        W15827  20.553  41.344  10.666
49287W        W15828   9.182  43.851   0.629
49288W        W15829  31.970  10.263   2.591
49289W        W15830  10.363  37.307  13.511
49290W        W15831  10.333  37.501   0.145
49291W        W15832  43.336  40.386  14.585
49292W        W15833  38.067  17.220  12.812
49293W        W15834  41.703  23.794  14.344
49294W        W15835  13.402  43.767  12.499
49295W        W15836  26.089  30.322   4.046
49296W        W15837   9.176   0.905   0.095
49297W        W15838  22.803  15.877  10.982
49298W        W15839  43.339  19.661   4.158
49299W        W15840  20.592  36.019   3.455
49300W        W15841   8.192  12.574  13.820
49301W        W15842  30.347  28.634  12.520
49302W        W15843  19.489   0.942   2.813
49303W        W15844  26.494  27.532  11.512
49304W        W15845  11.270  38.496   1.711
49305W        W15846  19.310  37.171   0.213
49306W        W15847  44.755  13.684  14.828
49307W        W15848  32.659  35.474  10.930
49308W        W15849  20.794  29.243  12.513
49309W        W15850  35.550   3.701  12.054
49310W        W15851   9.913  37.796   2.711
49311W        W15852  43.052  27.011   4.606
49312W        W15853  31.056  26.739  14.770
49313W        W15854  43.306   7.446   4.236
49314W        W15855  17.556   0.848  10.588
49315W        W15856  11.383  31.209  14.146
49316W        W15857  20.779  34.044  12.377
49317W        W15858  40.883  21.295  14.351
49318W        W15859   9.581  24.116  13.914
49319W        W15860  12.793  20.025  11.503
49320W        W15861   2.725  36.979  11.881
49321W        W15862  38.305   7.691  12.929
49322W        W15863  22.991  10.729   0.709
49323W        W15864  43.678  15.509   1.466
49324W        W15865  32.679  44.433   0.804
49325W        W15866  20.209  11.968  10.806
49326W        W15867  31.961  42.908  12.433
49327W        W15868   9.271  32.683  12.932
49328W        W15869  28.408  16.289   1.793
49329W        W15870  29.405  32.345  13.036
49330W        W15871  40.947  21.754   4.540
49331W        W15872  41.387  22.506  12.986
49332W        W15873   1.157   8.811   0.978
49333W        W15874  18.765   4.796  11.091
49334W        W15875   8.518  16.186  14.564
49335W        W15876  41.961  27.461   0.077
49336W        W15877  20.914   1.250  12.061
49337W        W15878   0.708   6.691  13.776
49338W        W15879  20.542  10.511   4.982
49339W        W15880  37.572  34.445   4.238
49340W        W15881   7.542  10.186   3.979
49341W        W15882  38.169  23.036  12.136
49342W        W15883  39.019  35.483   4.172
49343W        W15884  13.797  25.746  14.919
49344W        W15885  27.649  28.067   0.533
49345W        W15886   0.954  29.674  11.291
49346W        W15887   4.287  40.016  11.113
49347W        W15888  35.349  20.585   4.214
49348W        W15889   8.473  32.087   0.185
49349W        W15890   8.734  41.054  13.143
49350W        W15891  16.337  23.164   3.529
49351W        W15892  39.470   2.295  11.574
49352W        W15893  21.104  24.261   4.027
49353W        W15894   2.433   2.978   1.804
49354W        W15895  16.550  14.576   0.816
49355W        W15896   5.737  14.753  11.160
49356W        W15897  22.285   9.794  14.301
49357W        W15898   5.905  20.113  14.952
49358W        W15899  23.102  32.073  14.697
49359W        W15900  28.975  42.076   0.664
49360W        W15901  31.436  32.174   3.180
49361W        W15902  37.502  35.879   0.425
49362W        W15903  23.142  23.723   4.973
49363W        W15904  19.249  35.810  11.552
49364W        W15905  25.246  25.123  13.867
49365W        W15906  12.333  24.126   3.125
49366W        W15907  22.600  22.449  13.015
49367W        W15908   4.152   4.695   1.523
49368W        W15909  22.207  10.777  11.576
49369W        W15910   8.158  26.601  13.368
49370W        W15911  42.473   4.314  13.359
49371W        W15912  33.679  32.624  12.581
49372W        W15913  38.908  21.073   9.881
49373W        W15914  23.532  17.700   3.381
49374W        W15915  37.943  14.592   2.144
49375W        W15916   9.028  16.908  10.703
49376W        W15917  21.151  33.597  10.658
49377W        W15918  38.796   0.197   2.733
49378W        W15919  44.574  10.659  12.891
49379W        W15920  42.574  24.780  11.824
49380W        W15921  13.423  26.942  14.864
49381W        W15922  18.665   1.342   3.521
49382W        W15923   7.499  24.227   2.322
49383W        W15924  18.744   7.340  14.469
49384W        W15925  27.108  17.114   2.236
49385W        W15926  19.182  15.947   3.723
49386W        W15927  12.262  44.750   3.390
49387W        W15928  15.900  26.054   3.222
49388W        W15929  38.820  22.303  12.297
49389W        W15930  44.301   7.495  10.130
49390W        W15931  23.516   3.369  14.471
49391W        W15932  40.265   7.326  14.735
49392W        W15933  26.598  13.186   0.961
49393W        W15934  31.536  34.340   4.608
49394W        W15935  42.299  33.661  14.299
49395W        W15936   7.396  32.350   4.643
49396W        W15937  15.566   5.802  12.610
49397W        W15938   2.334  35.512  14.586
49398W        W15939  28.521  37.506   3.237
49399W        W15940  14.188   2.263   2.344
49400W        W15941  38.815  43.515   2.807
49401W        W15942  40.603  44.851  11.948
49402W        W15943  40.034  19.089  11.302
49403W        W15944   5.401  41.466   3.902
49404W        W15945  31.629   3.427   1.500
49405W        W15946  34.351  21.260   4.788
49406W        W15947  23.038  30.457   0.006
49407W        W15948  12.933  10.772  12.680
49408W        W15949  12.134  19.526  12.011
49409W        W15950  16.704  10.708  14.856
49410W        W15951   3.300  19.336  13.576
49411W        W15952  33.497   4.744  12.497
49412W        W15953  14.937  19.615   4.942
49413W        W15954  41.932  41.494   0.895
49414W        W15955  15.858  31.532  12.078
49415W        W15956   6.887  39.842  13.897
49416W        W15957  32.848   1.225  12.583
49417W        W15958  41.623  33.132   4.073
49418W        W15959  34.137  29.691   3.332
49419W        W15960  26.959  21.028  11.747
49420W        W15961  19.266  32.162  11.874
49421W        W15962  12.615   0.007  14.499
49422W        W15963  33.442  43.343   3.607
49423W        W15964  10.631  41.296  10.721
49424W        W15965  27.944  37.515  13.369
49425W        W15966  12.286  27.725  11.794
49426W        W15967   1.478  23.619   1.822
49427W        W15968  27.267  44.133  11.170
49428W        W15969  26.890  32.917   3.722
49429W        W15970  13.385  44.790  11.156
49430W        W15971  43.271  21.699  11.051
49431W        W15972  40.502  11.827  13.950
49432W        W15973  18.658  24.021   0.799
49433W        W15974  35.630  19.708   0.572
49434W        W15975  36.053  34.570  12.515
49435W        W15976  17.928  21.654   0.102
49436W        W15977  14.185  17.598   3.650
49437W        W15978  23.003   4.263  10.749
49438W        W15979  41.547  25.797  13.513
49439W        W15980  38.207  42.799  13.127
49440W        W15981  34.487   9.783  14.707
49441W        W15982  31.082   8.969   0.551
49442W        W15983  22.753  32.921  11.601
49443W        W15984  23.024  31.403   3.285
49444W        W15985  15.619  17.425   1.249
49445W        W15986   8.714  40.556   4.029
49446W        W15987   8.208  40.392   0.010
49447W        W15988  21.516  15.123   4.676
49448W        W15989   5.878  15.956  11.294
49449W        W15990  25.804   3.398   1.180
49450W        W15991   9.375  42.070  11.599
49451W        W15992  26.522  22.908   3.140
49452W        W15993  10.786   2.063  13.266
49453W        W15994   4.095  25.996   1.207
49454W        W15995  12.995   6.755   1.856
49455W        W15996   6.382  31.522  11.989
49456W        W15997  44.915  12.133  14.467
49457W        W15998  40.585  12.710   1.739
49458W        W15999  40.879   9.660  13.833
49459W        W16000  25.373   7.582  10.193
49460W        W16001  17.254  37.441  10.969
49461W        W16002   2.031  20.594  12.601
49462W        W16003  14.171  27.624   1.275
49463W        W16004  17.440  43.785  12.078
49464W        W16005   6.627  36.559  12.640
49465W        W16006  17.760  21.674   3.217
49466W        W16007  37.463   2.071  13.083
49467W        W16008  29.635  21.822  12.994
49468W        W16009  18.663  14.602  12.083
49469W        W16010  17.310  38.465   1.016
49470W        W16011  10.407  19.629   3.766
49471W        W16012  35.193  12.621  13.366
49472W        W16013  26.595  14.784   1.520
49473W        W16014  31.556  12.623   3.713
49474W        W16015   9.142  13.205  14.281
49475W        W16016  22.211  19.274   4.721
49476W        W16017  34.913  28.667  11.404
49477W        W16018  22.810  34.557   4.141
49478W        W16019  24.502   1.415   4.646
49479W        W16020  22.748  35.535  12.154
49480W        W16021  17.700  32.857   3.831
49481W        W16022   6.353  23.473   3.810
49482W        W16023   9.554  34.854  12.996
49483W        W16024  22.061  15.269  12.765
49484W        W16025  12.671  13.443  13.429
49485W        W16026  34.342  17.116  14.059
49486W        W16027   6.350  10.586   3.104
49487W        W16028  19.624  40.022   1.975
49488W        W16029  26.031   0.494  10.607
49489W        W16030  23.838   0.697   2.812
49490W        W16031  16.367  19.277  12.110
49491W        W16032  36.900  44.682  11.545
49492W        W16033  40.873  41.215   3.882
49493W        W16034  16.623  33.086  12.556
49494W        W16035  33.471   6.223  13.103
49495W        W16036  10.487   2.393   1.355
49496W        W16037   2.433  34.978  13.006
49497W        W16038  39.772  13.800  14.358
49498W        W16039  38.570  12.819   0.411
49499W        W16040  18.230  10.284  14.910
49500W        W16041  21.683  43.070  10.730
49501W        W16042   5.685   7.823   4.203
49502W        W16043  36.310  26.434   1.131
49503W        W16044  29.692   5.953  14.902
49504W        W16045  31.898  17.778   0.293
49505W        W16046  16.243  41.050  11.543
49506W        W16047  23.597  37.338   1.304
49507W        W16048  30.552  19.513   2.185
49508W        W16049   9.096  31.368  10.959
49509W        W16050  11.840  30.388  12.549
49510W        W16051  30.954  43.366   2.486
49511W        W16052   4.726  44.206   3.221
49512W        W16053  23.973   9.686   3.651
49513W        W16054  16.084  34.119   2.752
49514W        W16055  25.029  44.994  13.920
49515W        W16056  39.262  22.567  13.422
49516W        W16057   2.773  21.156  13.747
49517W        W16058  15.621   4.691   4.490
49518W        W16059  41.269  37.045   3.234
49519W        W16060  30.795  12.633  10.672
49520W        W16061  10.630  37.195   0.804
49521W        W16062  25.188  20.557  12.505
49522W        W16063  13.266  36.556   0.303
49523W        W16064  38.550  19.083  14.737
49524W        W16065  28.156  43.906   2.294
49525W        W16066   2.339  17.570  14.564
49526W        W16067  35.651  12.575  13.075
49527W        W16068   8.205  42.497   0.705
49528W        W16069  18.854   3.527   1.152
49529W        W16070  17.010  43.545  12.221
49530W        W16071  32.713  38.807  12.926
49531W        W16072  31.931  19.039  12.138
49532W        W16073  42.659   6.957   1.277
49533W        W16074   1.921  31.323   2.201
49534W        W16075  43.253   9.887  12.827
49535W        W16076  14.407   1.444  10.470
49536W        W16077  41.028  18.514   2.880
49537W        W16078   2.991  18.129   1.142
49538W        W16079  15.663  15.827   3.305
49539W        W16080  18.981   7.265   2.790
49540W        W16081  37.959  44.559   2.913
49541W        W16082  37.104  11.899  14.384
49542W        W16083   7.511  21.799   0.679
49543W        W16084  31.895   8.221   4.577
49544W        W16085  36.871  20.521  14.389
49545W        W16086  11.370  22.342  12.955
49546W        W16087  26.624   2.812   2.576
49547W        W16088   9.291   8.393  11.512
49548W        W16089  23.069  29.285   0.481
49549W        W16090   8.653  30.899  12.521
49550W        W16091  44.826   2.840  11.852
49551W        W16092  18.353  30.058  13.826
49552W        W16093  15.824  34.893  12.815
49553W        W16094   8.916  27.011  13.013
49554W        W16095  41.111  28.197   2.802
49555W        W16096  40.920  24.810  14.595
49556W        W16097   4.758  24.264   4.514
49557W        W16098  20.766   4.614  10.254
49558W        W16099   7.633  42.982  12.383
49559W        W16100  37.544  18.533   3.336
49560W        W16101   8.861  13.261  11.111
49561W        W16102  33.357  28.647   1.429
49562W        W16103  19.535  42.037   4.262
49563W        W16104  37.624  15.826  10.983
49564W        W16105  36.540  32.557  14.978
49565W        W16106  40.035  11.658   1.326
49566W        W16107  37.269  39.322   2.878
49567W        W16108   1.165   6.668  14.045
49568W        W16109  30.543  25.625  12.918
49569W        W16110  27.517  17.958   2.214
49570W        W16111  28.197  14.336  13.386
49571W        W16112   4.445  12.821  13.950
49572W        W16113  38.490   4.849   2.440
49573W        W16114   0.487  30.767  13.599
49574W        W16115   4.049  21.614  13.845
49575W        W16116   3.227  13.432   3.018
49576W        W16117  40.634  37.048  13.981
49577W        W16118  44.364  17.007  10.839
49578W        W16119  21.327  18.038   4.601
49579W        W16120  12.403  11.451   4.706
49580W        W16121  17.768  31.167  11.086
49581W        W16122  34.564  26.494   1.910
49582W        W16123   8.134  16.909  14.779
49583W        W16124  37.325  10.747  13.001
49584W        W16125  14.248  25.029  11.155
49585W        W16126  39.702  44.025  14.745
49586W        W16127  41.524  43.994  10.960
49587W        W16128  19.364  31.302   4.734
49588W        W16129  25.259  27.154   1.570
49589W        W16130   9.232  33.555   2.902
49590W        W16131  31.212  22.538   2.321
49591W        W16132  40.752  28.006  11.404
49592W        W16133  21.190  10.185   4.161
49593W        W16134  20.493   6.153  10.982
49594W        W16135  41.971   5.520   0.834
49595W        W16136  25.741   2.195   2.769
49596W        W16137   2.263  34.480  12.852
49597W        W16138  24.279  16.172   4.117
49598W        W16139  19.563  37.608  11.266
49599W        W16140  41.225  13.346  14.436
49600W        W16141  38.434  20.312   1.386
49601W        W16142  40.439   0.773   1.633
49602W        W16143   4.545   2.528  12.112
49603W        W16144  27.541   4.259   0.154
49604W        W16145  26.472   4.208  11.289
49605W        W16146  31.674  41.372  13.664
49606W        W16147  18.556  16.788   3.946
49607W        W16148  18.368  13.291   3.649
49608W        W16149  19.724  41.507   0.930
49609W        W16150   8.458  32.658  11.081
49610W        W16151  10.332   8.803   3.797
49611W        W16152  16.747  10.110  13.264
49612W        W16153  11.944  44.549  14.155
49613W        W16154   5.177  37.454  10.689
49614W        W16155  26.158  21.085   2.166
49615W        W16156  10.526  36.823  11.567
49616W        W16157  13.830  25.707   4.588
49617W        W16158  31.581  37.763  11.020
49618W        W16159   7.166  30.569   1.812
49619W        W16160  23.548   8.861   4.711
49620W        W16161  28.085  32.606   1.930
49621W        W16162   0.637  12.841  11.297
49622W        W16163  35.079  19.775  10.767
49623W        W16164  14.348  17.955  12.303
49624W        W16165  42.349   8.170  12.006
49625W        W16166  16.594  39.853  13.758
49626W        W16167   5.456   1.678  12.688
49627W        W16168  25.629  15.805   4.577
49628W        W16169  36.726  30.897   4.059
49629W        W16170  30.909  22.966  10.741
49630W        W16171   0.348  22.290   1.267
49631W        W16172  39.477  43.715  11.765
49632W        W16173  40.379  29.215  14.314
49633W        W16174   3.495  25.033  13.880
49634W        W16175  44.260  24.070  11.512
49635W        W16176  18.720  10.102  11.222
49636W        W16177  10.321  14.025   2.685
49637W        W16178   2.508  28.821  11.187
49638W        W16179  11.966  19.592  14.454
49639W        W16180  27.488  23.554  12.525
49640W        W16181  10.105  28.899  14.398
49641W        W16182   1.195  37.846   1.389
49642W        W16183  37.342   5.617  14.861
49643W        W16184  36.767  14.318   0.449
49644W        W16185  24.072  44.009  14.095
49645W        W16186  24.471   9.774  11.161
49646W        W16187  10.444   3.265  14.916
49647W        W16188  44.913  25.911   2.409
49648W        W16189  15.848  26.578  10.413
49649W        W16190   8.479  16.188   0.144
49650W        W16191  15.315   3.321  12.067
49651W        W16192   0.105  27.989  12.045
49652W        W16193  15.885  21.272  13.408
49653W        W16194  28.557  26.965   0.701
49654W        W16195   6.406  22.439  12.044
49655W        W16196   2.459  38.907  11.605
49656W        W16197  36.287  33.555  11.739
49657W        W16198  14.576   3.015  11.695
49658W        W16199  29.236  10.356   3.811
49659W        W16200  39.935  34.184  10.674
49660W        W16201  17.214  11.926   4.823
49661W        W16202  20.799  33.434   3.629
49662W        W16203   3.406  24.215   0.869
49663W        W16204   0.843  36.225   5.117
49664W        W16205  20.190  40.027  13.905
49665W        W16206  33.629  30.497  14.401
49666W        W16207  22.017  27.157  11.571
49667W        W16208  15.574   9.814  11.970
49668W        W16209  33.573  16.577  14.740
49669W        W16210   2.222  12.671  13.388
49670W        W16211   6.777  33.536   2.523
49671W        W16212  14.663  25.823   3.643
49672W        W16213  17.655  27.967   1.846
49673W        W16214   3.532  33.134   4.977
49674W        W16215  41.260  14.824   2.920
49675W        W16216  44.440  13.869  14.349
49676W        W16217  26.313  25.056  14.238
49677W        W16218  31.024  10.805  10.143
49678W        W16219  13.065  30.105   3.703
49679W        W16220  18.608   3.470   4.553
49680W        W16221  21.572  13.360  13.157
49681W        W16222   2.302  25.646   3.551
49682W        W16223  16.617  27.842  12.176
49683W        W16224  36.371   3.785  14.301
49684W        W16225   7.666   7.339  13.395
49685W        W16226  15.142  29.398  10.262
49686W        W16227   8.947  24.967  10.342
49687W        W16228  17.594  31.569  13.797
49688W        W16229   8.205  31.094  12.851
49689W        W16230  30.707   5.164   0.213
49690W        W16231  26.436  36.631  12.759
49691W        W16232  41.504  34.525  10.771
49692W        W16233  27.463  27.462   4.455
49693W        W16234   2.205  20.350   2.152
49694W        W16235  12.893  26.014  14.661
49695W        W16236   1.361  37.583  12.055
49696W        W16237   7.081  33.848  11.199
49697W        W16238  33.952  15.686  13.909
49698W        W16239  22.282  32.350   1.206
49699W        W16240  25.350  20.167   1.193
49700W        W16241   5.248  30.714   4.324
49701W        W16242  35.469  15.828  10.727
49702W        W16243  16.394  20.165  12.249
49703W        W16244   4.177  25.547   3.304
49704W        W16245   1.765  30.057   0.213
49705W        W16246  23.638  26.154   2.456
49706W        W16247  30.852  25.901   1.876
49707W        W16248  24.960  44.059   0.942
49708W        W16249  37.624  13.321   2.884
49709W        W16250  14.190  20.832   3.863
49710W        W16251   9.403   6.285  12.601
49711W        W16252  31.299  20.816  11.164
49712W        W16253  40.689   5.465  14.009
49713W        W16254  39.950  31.555  14.530
49714W        W16255   5.646   1.206   2.226
49715W        W16256  36.885  16.602  13.937
49716W        W16257  22.775  40.526   2.395
49717W        W16258  42.267  11.361   4.133
49718W        W16259  40.555   2.975   0.325
49719W        W16260  38.543  34.821  12.481
49720W        W16261  31.103  43.878  13.474
49721W        W16262  42.138  19.792   4.595
49722W        W16263   8.241  23.438   3.103
49723W        W16264  39.920   6.866   4.033
49724W        W16265  37.987   8.276   0.364
49725W        W16266   0.463  15.001  14.490
49726W        W16267  36.859  19.091   1.254
49727W        W16268  23.297  14.203  12.132
49728W        W16269  10.602   5.237   1.136
49729W        W16270  20.304  26.804   0.141
49730W        W16271  40.787   3.262   4.191
49731W        W16272   3.279  24.759   0.879
49732W        W16273  27.462  40.246   1.228
49733W        W16274  40.110   1.939  13.883
49734W        W16275   5.945  31.330  13.250
49735W        W16276  29.598  33.057  12.424
49736W        W16277  19.121  42.667   1.393
49737W        W16278  10.625  40.046   1.335
49738W        W16279  11.360  20.720  10.648
49739W        W16280  17.059  11.805   0.920
49740W        W16281   3.236   1.278   2.618
49741W        W16282  38.563  26.628  10.699
49742W        W16283  36.376  33.294   0.284
49743W        W16284  36.146  29.063   1.814
49744W        W16285  23.852  27.641  11.675
49745W        W16286  37.960  10.455   2.476
49746W        W16287  14.191   2.244  11.200
49747W        W16288  29.317  19.064  11.309
49748W        W16289  30.899  41.868   1.271
49749W        W16290   3.830  35.057   0.520
49750W        W16291  10.315   3.750  10.648
49751W        W16292  29.651  38.391   2.611
49752W        W16293  17.031  20.037   0.300
49753W        W16294  16.255   1.400   0.729
49754W        W16295  29.885  37.468   3.034
49755W        W16296  16.191  40.179  11.149
49756W        W16297  39.315  25.673  10.371
49757W        W16298  43.441  26.558   0.787
49758W        W16299  25.582  24.251   4.278
49759W        W16300   4.830  39.509  11.893
49760W        W16301  12.284  44.781  11.965
49761W        W16302  23.947   9.056   1.377
49762W        W16303  34.074   1.040  14.923
49763W        W16304  28.486   9.368   4.386
49764W        W16305  40.584  35.601   2.153
49765W        W16306  19.572  28.134  12.514
49766W        W16307  26.655  36.962   4.642
49767W        W16308  22.533  14.496   4.115
49768W        W16309   5.944  41.923   3.196
49769W        W16310  22.190  14.170   1.402
49770W        W16311  15.284   7.314   0.716
49771W        W16312  26.147  40.365   1.220
49772W        W16313  13.310  35.501   2.861
49773W        W16314  29.501  42.480  12.907
49774W        W16315   8.078   2.661   1.753
49775W        W16316   9.844  23.123   2.838
49776W        W16317  10.951  30.996  13.975
49777W        W16318  43.870  41.068   2.899
49778W        W16319   7.343  19.855   1.377
49779W        W16320  31.748  33.531   5.166
49780W        W16321  28.640  19.690  13.490
49781W        W16322  36.601  21.451  13.170
49782W        W16323  24.626  32.921  12.096
49783W        W16324  15.184   3.797   1.764
49784W        W16325  30.237  10.204   3.717
49785W        W16326  26.042   5.139   1.190
49786W        W16327   8.143  38.750  11.140
49787W        W16328  36.580  25.622   4.603
49788W        W16329  37.271  20.956  10.232
49789W        W16330   5.297  16.258   4.628
49790W        W16331  34.836  23.758  10.351
49791W        W16332  42.166  26.269   0.878
49792W        W16333  14.768  30.238   4.629
49793W        W16334  20.849  38.259   2.392
49794W        W16335  18.432  41.185  12.196
49795W        W16336   8.920   3.712   2.652
49796W        W16337   2.445  21.292   4.739
49797W        W16338  20.197  29.346  13.344
49798W        W16339  12.623  24.849  12.851
49799W        W16340  17.328  16.277   1.634
49800W        W16341   3.756  41.097   3.296
49801W        W16342  26.506  32.136  10.464
49802W        W16343  16.763  28.663  12.490
49803W        W16344  26.521  17.077   2.761
49804W        W16345   1.320  25.200   3.736
49805W        W16346   4.374  15.241   0.684
49806W        W16347   0.755  14.752  13.143
49807W        W16348  28.523  33.809  12.025
49808W        W16349  43.271  20.018  11.490
49809W        W16350   4.244  10.388   2.472
49810W        W16351  21.114  19.559   4.551
49811W        W16352  32.985  13.633  13.050
49812W        W16353  24.070  40.893  14.814
49813W        W16354   1.529  16.571  13.892
49814W        W16355  43.718  33.255   0.753
49815W        W16356  21.230   0.458   0.812
49816W        W16357  19.102   7.998   1.915
49817W        W16358  14.450   1.805  11.211
49818W        W16359  41.992  31.973  14.921
49819W        W16360   0.785  28.963   1.121
49820W        W16361  14.222  34.123   1.040
49821W        W16362  25.030  24.477   4.560
49822W        W16363   3.239  33.078  13.581
49823W        W16364  12.328  36.968  13.493
49824W        W16365  30.087   5.807   1.795
49825W        W16366   0.829  33.507  12.017
49826W        W16367   9.209  20.602   4.310
49827W        W16368   6.290  34.531   3.418
49828W        W16369  31.828  27.579   1.279
49829W        W16370  30.631   1.737  10.783
49830W        W16371  34.315  15.523  12.449
49831W        W16372  14.732  20.564  11.636
49832W        W16373   4.300  11.812  12.027
49833W        W16374   6.187  40.775   3.256
49834W        W16375  18.634   8.735  14.061
49835W        W16376  40.338  28.433   0.185
49836W        W16377  36.983  22.999   4.887
49837W        W16378   7.256   3.663   0.971
49838W        W16379  26.247  28.066  13.936
49839W        W16380  27.822  18.784   0.789
49840W        W16381  21.452  19.589  13.489
49841W        W16382  32.373  39.771   4.652
49842W        W16383  38.548  29.183   4.246
49843W        W16384  13.771  10.860  12.929
49844W        W16385   1.145  35.157  11.072
49845W        W16386  29.043  25.212  10.923
49846W        W16387   2.776  23.390  10.676
49847W        W16388  27.513  29.108   3.647
49848W        W16389  39.227  26.135   4.322
49849W        W16390  14.171  23.486   2.824
49850W        W16391  38.031  29.084  14.382
49851W        W16392  18.154  27.924   2.035
49852W        W16393  43.582  19.661  14.733
49853W        W16394  41.710  12.390   0.919
49854W        W16395   5.783  17.045  14.818
49855W        W16396  23.670  21.998   4.641
49856W        W16397   9.478  32.518   0.774
49857W        W16398  39.603  31.558   2.187
49858W        W16399  29.058  33.587  10.399
49859W        W16400   1.287  28.746  14.469
49860W        W16401   4.654   5.990   1.316
49861W        W16402  41.917  19.289  12.571
49862W        W16403  27.007  42.409   3.850
49863W        W16404  44.957   1.153   3.445
49864W        W16405  14.880   6.723  11.580
49865W        W16406   9.416  18.764  11.666
49866W        W16407  12.231  44.699  13.750
49867W        W16408  16.164  13.932  13.012
49868W        W16409  24.923  18.559  14.555
49869W        W16410   8.880  19.174   0.495
49870W        W16411  36.163   2.515  13.395
49871W        W16412  42.879  21.705   3.291
49872W        W16413  40.139  39.003   4.485
49873W        W16414  10.038  14.644  10.750
49874W        W16415  26.026  12.244   0.468
49875W        W16416  30.511  13.829  14.032
49876W        W16417  23.957  19.326   0.913
49877W        W16418  20.643  15.439   9.835
49878W        W16419  43.871  28.013   1.809
49879W        W16420   3.153  29.625   3.726
49880W        W16421   6.870  31.407  13.420
49881W        W16422  44.787  17.729   1.468
49882W        W16423  16.086  23.188   2.025
49883W        W16424  33.793  34.215  10.751
49884W        W16425  18.713  33.285  11.834
49885W        W16426  44.965  15.834   4.040
49886W        W16427   3.368  15.119   0.888
49887W        W16428  31.356  34.505  14.731
49888W        W16429  30.082   1.471   2.438
49889W        W16430   8.252  18.961  12.457
49890W        W16431   3.482  28.132  14.091
49891W        W16432   6.617  43.729  12.445
49892W        W16433  22.212  27.888   2.229
49893W        W16434   6.490  37.582  12.541
49894W        W16435  43.728   1.452   1.729
49895W        W16436  21.432  25.963   1.790
49896W        W16437  41.190  41.584  12.477
49897W        W16438  19.838  16.560   4.081
49898W        W16439   7.576  33.148   2.630
49899W        W16440  25.240  25.935   0.304
49900W        W16441  34.912  12.598   1.130
49901W        W16442  38.460  21.756  10.693
49902W        W16443  14.805  39.327  12.038
49903W        W16444  42.651   7.112  10.086
49904W        W16445  37.624   3.267  11.605
49905W        W16446  11.626   1.348  14.805
49906W        W16447  24.689  39.535  12.903
49907W        W16448  10.524  32.613   0.828
49908W        W16449  35.387  27.140  13.010
49909W        W16450  42.242   2.876  14.492
49910W        W16451  30.122  35.824   4.134
49911W        W16452   6.757   1.535   3.677
49912W        W16453  42.931  14.674  12.662
49913W        W16454  19.511  29.614  12.518
49914W        W16455   0.951  14.244  10.131
49915W        W16456  23.473  16.073   4.533
49916W        W16457  31.948  22.540   0.975
49917W        W16458   6.373  11.461  14.807
49918W        W16459  43.809  25.030  13.076
49919W        W16460   2.676  10.925   1.737
49920W        W16461   6.306  18.023  12.840
49921W        W16462  31.463   3.719  11.111
49922W        W16463  24.200   6.686  11.623
49923W        W16464  29.637  25.790   0.325
49924W        W16465  11.749  39.418   4.339
49925W        W16466  36.039  35.005   4.442
49926W        W16467  34.974   9.779  10.697
49927W        W16468  29.549  29.024  14.920
49928W        W16469  23.783  13.561   1.751
49929W        W16470  43.970  26.483  11.856
49930W        W16471  10.722   3.627  10.319
49931W        W16472  33.378   4.267  12.313
49932W        W16473  21.510   3.763   2.474
49933W        W16474  23.122  33.355   3.103
49934W        W16475   3.886  28.252   4.233
49935W        W16476  12.852  29.441   2.852
49936W        W16477  42.039   4.787   2.355
49937W        W16478  28.639  23.632   4.447
49938W        W16479  30.740  39.458   0.463
49939W        W16480  32.014  29.076   0.489
49940W        W16481   7.702  15.740   2.764
49941W        W16482  38.779  34.673  14.626
49942W        W16483   3.444   4.643  10.139
49943W        W16484   7.273  25.435   3.163
49944W        W16485   8.457  27.132  14.522
49945W        W16486  43.610  43.279  11.004
49946W        W16487  38.634  24.258   2.766
49947W        W16488  32.006  35.347  12.816
49948W        W16489  14.014  39.922  11.995
49949W        W16490  12.841  17.627   3.300
49950W        W16491  26.814  23.690  10.373
49951W        W16492  43.456  32.102  12.511
49952W        W16493  20.587  43.005  10.777
49953W        W16494  23.067  11.816  10.458
49954W        W16495  32.872   6.208   2.278
49955W        W16496  30.610  20.242  13.892
49956W        W16497  26.127  16.024   0.438
49957W        W16498  18.540  43.547   4.141
49958W        W16499  44.267   6.613  11.641
49959W        W16500   1.092   3.447  10.127
49960W        W16501   2.010  37.924   2.413
49961W        W16502  31.624  37.466   1.242
49962W        W16503  37.855   3.342  13.617
49963W        W16504   5.654  24.508   2.045
49964W        W16505  24.429  26.947   0.877
49965W        W16506  23.211  40.526   1.208
49966W        W16507  25.641  25.229   1.713
49967W        W16508  32.564  32.631  13.309
49968W        W16509  12.242  39.940  13.485
49969W        W16510   0.300  17.587  10.695
49970W        W16511  23.512  41.509   1.848
49971W        W16512  26.552  28.699  11.426
49972W        W16513  28.420  26.223   3.921
49973W        W16514  34.910  25.889   3.669
49974W        W16515  32.844  21.537  10.851
49975W        W16516   8.410  30.178  13.534
49976W        W16517  37.466  22.325   1.658
49977W        W16518   4.944  31.496   4.133
49978W        W16519   8.974  17.842   2.245
49979W        W16520  20.981  17.044   2.767
49980W        W16521   9.423   1.472  11.188
49981W        W16522  26.385   7.820   4.997
49982W        W16523  12.117  40.259  11.503
49983W        W16524  13.088  11.167   1.041
49984W        W16525  20.438   9.434   0.726
49985W        W16526   1.000  21.701  14.568
49986W        W16527   8.558  21.300  11.657
49987W        W16528  21.995  16.743   0.762
49988W        W16529  20.251   4.801  11.647
49989W        W16530  42.195  26.369   3.672
49990W        W16531  33.450  31.046   3.053
49991W        W16532  26.222  26.602   3.782
49992W        W16533  15.002  14.175  12.565
49993W        W16534  28.489   3.791  10.678
49994W        W16535  35.008  14.528   2.716
49995W        W16536  42.207   9.286  12.962
49996W        W16537   6.320   3.375   3.708
49997W        W16538   6.964  17.984   1.926
49998W        W16539  41.019  30.683  13.859
49999W        W16540  10.368   0.972  14.824
50000W        W16541  35.361  38.600  11.962
50001W        W16542  11.402  23.754  11.621
50002W        W16543  24.012  35.532  10.766
50003W        W16544   5.320  37.261   2.746
50004W        W16545   3.146  41.912  13.177
50005W        W16546  37.954  33.254   2.704
50006W        W16547  28.053  37.327   3.087
50007W        W16548  33.177  34.532  11.274
50008W        W16549  12.259  41.544   2.416
50009W        W16550  40.785  35.335  13.769
50010W        W16551  11.404  19.708   2.632
50011W        W16552  43.317  35.440  11.645
50012W        W16553  39.013  37.193   0.975
50013W        W16554  13.623  41.637   2.942
50014W        W16555  33.329  36.813   2.665
50015W        W16556  23.536   0.645  14.919
50016W        W16557  28.152  19.603   2.607
50017W        W16558  10.387   2.363  12.586
50018W        W16559  43.399  10.346  11.207
50019W        W16560  36.991  38.871  11.617
50020W        W16561  23.119  24.017  10.732
50021W        W16562  29.315  16.899  14.311
50022W        W16563   7.846  38.754   3.732
50023W        W16564  12.535  31.027  12.476
50024W        W16565  41.519   5.620  14.304
50025W        W16566  22.826   8.990   0.458
50026W        W16567  26.765   3.181   3.322
50027W        W16568  42.121  11.965   2.186
50028W        W16569  24.560  16.325   1.311
50029W        W16570  43.826  27.446   2.725
50030W        W16571  10.693  27.286  14.824
50031W        W16572  36.547  26.106   0.481
50032W        W16573  28.586  20.986  11.308
50033W        W16574  23.386   7.921   3.710
50034W        W16575   1.197  28.304   0.313
50035W        W16576  18.466  40.701   0.887
50036W        W16577   4.970  25.008  11.564
50037W        W16578   2.881  44.774  11.490
50038W        W16579  22.203  22.546   0.889
50039W        W16580  10.592  44.771   1.648
50040W        W16581   6.793  44.868  14.239
50041W        W16582  44.364   2.641   3.778
50042W        W16583  41.395  14.863   3.436
50043W        W16584  30.630  15.888   2.934
50044W        W16585  20.148  39.354   3.739
50045W        W16586   5.853  32.245  13.021
50046W        W16587  37.823  21.081  14.314
50047W        W16588  20.375  32.720  13.935
50048W        W16589  14.796  22.833  11.083
50049W        W16590  26.867   0.765  10.518
50050W        W16591  15.267  22.041   0.326
50051W        W16592   0.522  25.059  14.573
50052W        W16593  16.382  31.763  12.994
50053W        W16594  11.779   4.472  14.877
50054W        W16595   9.374   0.007   3.186
50055W        W16596  22.423  31.235  14.822
50056W        W16597   4.163   4.370   4.754
50057W        W16598  15.686  12.820  12.468
50058W        W16599  23.756   9.213   0.914
50059W        W16600  35.329  15.445   1.198
50060W        W16601   1.422  39.834   1.014
50061W        W16602  16.185   8.272  12.420
50062W        W16603  10.492   4.885  12.988
50063W        W16604  33.482  35.354   2.662
50064W        W16605  40.615  17.914  11.328
50065W        W16606   0.739  14.066  12.173
50066W        W16607  10.241  17.047   1.854
50067W        W16608  10.970  26.134  13.467
50068W        W16609  20.677  35.044   1.801
50069W        W16610  31.999  11.169  10.651
50070W        W16611   1.734  37.040  11.492
50071W        W16612  10.232  43.243  13.578
50072W        W16613   9.621  38.689   2.220
50073W        W16614  28.295  30.583   2.794
50074W        W16615  42.224   3.246  10.312
50075W        W16616  37.169  33.880   1.353
50076W        W16617   9.935   7.823  10.497
50077W        W16618  24.118  43.505  14.770
50078W        W16619   9.161  20.981  14.870
50079W        W16620  31.036  17.734   3.097
50080W        W16621  10.976  16.402   0.810
50081W        W16622  34.871   6.145   3.367
50082W        W16623   1.250   4.261   0.050
50083W        W16624   6.352  40.974   1.841
50084W        W16625  32.841  30.602  14.802
50085W        W16626  13.335  28.539  12.946
50086W        W16627  30.649  23.008  14.888
50087W        W16628  31.055  20.815   4.634
50088W        W16629  30.721  32.058  14.494
50089W        W16630   5.871   9.056   4.812
50090W        W16631  19.048  18.994  13.553
50091W        W16632  32.579   8.157   2.741
50092W        W16633   8.076  10.446  13.001
50093W        W16634  23.662  26.584   1.085
50094W        W16635   6.094  43.717   1.674
50095W        W16636  38.660  35.720  14.292
50096W        W16637  11.318  44.984  12.039
50097W        W16638  12.682   7.848  12.170
50098W        W16639  28.351  22.133   2.339
50099W        W16640  15.641  30.237   2.104
50100W        W16641  35.171   4.309   1.367
50101W        W16642  31.541  42.470   0.171
50102W        W16643   5.351  36.960  10.567
50103W        W16644  26.011  10.865  13.003
50104W        W16645  39.993  33.556  12.785
50105W        W16646  24.573  20.183  14.501
50106W        W16647  21.269  33.323   4.101
50107W        W16648   4.948  42.569  13.306
50108W        W16649   9.716   6.131  11.955
50109W        W16650   3.114  35.508   9.443
50110W        W16651  35.029  31.572   1.394
50111W        W16652  13.369  30.436   4.548
50112W        W16653  31.314  33.961  11.964
50113W        W16654  20.505  12.608   2.886
50114W        W16655  24.981   1.747   3.777
50115W        W16656  26.613  14.090  10.325
50116W        W16657   9.243  43.073   3.356
50117W        W16658  26.855  20.632  13.901
50118W        W16659  11.253  39.945  11.727
50119W        W16660  11.323  26.195   3.042
50120W        W16661  12.228  11.119  11.180
50121W        W16662   8.593  20.449   5.325
50122W        W16663   6.865  27.762  10.957
50123W        W16664  23.280  40.485   2.338
50124W        W16665  13.157  19.104   1.928
50125W        W16666  18.096  34.357   4.738
50126W        W16667  19.090  24.782   4.647
50127W        W16668  28.826  27.530  14.846
50128W        W16669  27.443  24.386   2.968
50129W        W16670  27.573  29.059  11.634
50130W        W16671  37.821  28.211   2.384
50131W        W16672  27.468  44.460   3.310
50132W        W16673  41.109  38.920   3.162
50133W        W16674   0.462   8.377  12.916
50134W        W16675  31.046  22.276   3.689
50135W        W16676  29.494  32.510  11.115
50136W        W16677  33.650  13.213  12.631
50137W        W16678  30.484  40.282   2.324
50138W        W16679  42.308   9.792   1.761
50139W        W16680   4.272   4.788   2.734
50140W        W16681  21.450  39.496  11.683
50141W        W16682  13.502   6.940  13.360
50142W        W16683  37.857  37.456   3.840
50143W        W16684  43.776  21.599   3.876
50144W        W16685  39.542  17.382   5.385
50145W        W16686  18.055  33.900   2.745
50146W        W16687  38.614  29.138   2.408
50147W        W16688  39.986  36.078   2.821
50148W        W16689  32.065   9.132   0.092
50149W        W16690  34.818   6.288   3.852
50150W        W16691  22.646  37.987   1.125
50151W        W16692  26.408  37.899   2.339
50152W        W16693   7.745  40.091   2.195
50153W        W16694  10.381  24.990   9.897
50154W        W16695  20.055  40.023   3.285
50155W        W16696   9.312  27.925  11.892
50156W        W16697  17.541  44.353  13.131
50157W        W16698  42.886  34.415  11.200
50158W        W16699  22.537  29.128  14.039
50159W        W16700   2.664   3.835  11.715
50160W        W16701  11.643  22.136   4.660
50161W        W16702  33.945  17.702   4.085
50162W        W16703  33.676  37.039  12.104
50163W        W16704  32.493   4.275   0.600
50164W        W16705  26.894  29.670   2.855
50165W        W16706  15.448  26.500   1.317
50166W        W16707  21.973  36.755  12.269
50167W        W16708  19.266   5.137   2.214
50168W        W16709  22.584   7.226   4.612
50169W        W16710  43.450   4.422  13.434
50170W        W16711  23.539  20.026   0.405
50171W        W16712  14.848  28.932   4.925
50172W        W16713  34.613  13.064   2.846
50173W        W16714  21.268  22.103  13.878
50174W        W16715  26.900   1.784  11.604
50175W        W16716  30.891  17.657   0.180
50176W        W16717   2.824   9.439   4.507
50177W        W16718  17.718   1.511   4.107
50178W        W16719  21.030  12.674  13.935
50179W        W16720   7.426  35.167   2.364
50180W        W16721  28.526  17.275  12.103
50181W        W16722  34.557   4.029   4.849
50182W        W16723  24.107   2.027   4.184
50183W        W16724  12.160   8.387  13.375
50184W        W16725  41.060  34.823   3.642
50185W        W16726  22.418   5.351   2.755
50186W        W16727  37.251   7.351  11.105
50187W        W16728  17.345  27.987   2.328
50188W        W16729  18.828  12.484   5.052
50189W        W16730   7.889   2.956   2.234
50190W        W16731  17.241  26.083  12.136
50191W        W16732  15.595  30.951   3.323
50192W        W16733   1.913  36.691   1.926
50193W        W16734   7.481  36.634  11.708
50194W        W16735   4.924   3.216   3.602
50195W        W16736   7.777   7.548   4.848
50196W        W16737  42.215  19.245  10.588
50197W        W16738   3.718  14.081  10.112
50198W        W16739   8.308  25.121   3.833
50199W        W16740   8.237   9.739  12.805
50200W        W16741  25.566  19.639   3.600
50201W        W16742  39.915   9.222   4.379
50202W        W16743  18.532   6.306   2.745
50203W        W16744  22.808  17.023   0.386
50204W        W16745   1.469  36.391   4.092
50205W        W16746  17.629  31.972  12.650
50206W        W16747   1.000  37.995   2.671
50207W        W16748   3.596  38.748   3.280
50208W        W16749  34.989   6.188   2.829
50209W        W16750  20.076  43.814  13.530
50210W        W16751  28.285   6.213   5.087
50211W        W16752  31.392  30.951   2.633
50212W        W16753   8.966  18.189   4.751
50213W        W16754  13.216  43.612  11.395
50214W        W16755  33.016  26.601   3.409
50215W        W16756  32.653  33.557   4.582
50216W        W16757   6.190   9.996   3.865
50217W        W16758  32.281  34.683   1.019
50218W        W16759  22.141  18.433   1.448
50219W        W16760  15.841  36.687   1.192
50220W        W16761   6.279  26.444   2.398
50221W        W16762  44.532  21.229   1.250
50222W        W16763  20.202  41.683  13.431
50223W        W16764  15.604  17.942   1.198
50224W        W16765   5.479  43.975  10.384
50225W        W16766   7.296  42.739  11.207
50226W        W16767  44.296   9.641   1.664
50227W        W16768  36.798   7.771   4.095
50228W        W16769  16.929   9.934  13.702
50229W        W16770   3.208   4.335   2.407
50230W        W16771  32.372   5.757  13.831
50231W        W16772  33.907   4.493  14.536
50232W        W16773   7.625  20.014   0.147
50233W        W16774  13.521  15.568  11.546
50234W        W16775   7.137  30.359  10.696
50235W        W16776  42.464   5.759   1.662
50236W        W16777  43.084  26.177  12.999
50237W        W16778  39.239  10.030   4.017
50238W        W16779   0.544  24.670   0.323
50239W        W16780  11.270   4.812   2.114
50240W        W16781  23.763  12.805   3.570
50241W        W16782   9.752  42.602  11.049
50242W        W16783  30.616   4.499   3.156
50243W        W16784   8.288   0.755  11.466
50244W        W16785  27.611  15.219  13.400
50245W        W16786   0.485  29.957   0.921
50246W        W16787  37.337  24.625   1.132
50247W        W16788  19.733   0.470  11.316
50248W        W16789  44.017   1.721  10.637
50249W        W16790  30.682  27.006   3.005
50250W        W16791  41.508   1.239  11.498
50251W        W16792  19.130  31.721  13.007
50252W        W16793  22.752  10.064  10.846
50253W        W16794  17.682   4.390  11.665
50254W        W16795  32.091  19.121  13.086
50255W        W16796  24.457  23.506   3.649
50256W        W16797  21.987  35.037   2.111
50257W        W16798   3.717  42.530  12.905
50258W        W16799   8.216  13.157   3.812
50259W        W16800  11.171  10.598   1.139
50260W        W16801  22.759  34.549  13.328
50261W        W16802   0.784  14.134  10.612
50262W        W16803  44.907  43.596  12.576
50263W        W16804   6.988  26.344   2.854
50264W        W16805  21.536  35.446   4.806
50265W        W16806  15.673  43.849   3.180
50266W        W16807  10.825  11.663  12.481
50267W        W16808  12.844  26.999   3.337
50268W        W16809  44.301   1.757   4.004
50269W        W16810  19.046  36.034  12.479
50270W        W16811   6.650   2.425   3.183
50271W        W16812  35.859  20.240  10.698
50272W        W16813  33.470   8.446   1.800
50273W        W16814  17.377  44.969  10.670
50274W        W16815  16.996  15.359   3.206
50275W        W16816  22.662   1.798  14.443
50276W        W16817  16.852  41.360   0.986
50277W        W16818  37.830  21.689   3.871
50278W        W16819  14.300  11.704   1.326
50279W        W16820  15.653  28.357  10.804
50280W        W16821  28.029  10.675  10.618
50281W        W16822  20.058   5.378  13.443
50282W        W16823   5.995  38.549   3.751
50283W        W16824  24.494  36.466   3.150
50284W        W16825   6.314  30.481   3.689
50285W        W16826  23.500  30.112  13.422
50286W        W16827   6.901  38.584   3.275
50287W        W16828  22.535   5.304  14.949
50288W        W16829  27.553  33.271   0.389
50289W        W16830  22.306  43.059  13.923
50290W        W16831   4.163  21.230   2.760
50291W        W16832   7.810  13.249   4.651
50292W        W16833  11.798  17.216  13.219
50293W        W16834  14.079  37.103   1.298
50294W        W16835  27.223   0.342   3.719
50295W        W16836  16.683  38.953  13.906
50296W        W16837  11.123  21.216   0.535
50297W        W16838  27.591  37.409  12.085
50298W        W16839   6.271   7.899   2.313
50299W        W16840  29.277  18.363  12.365
50300W        W16841   4.675  13.065   1.210
50301W        W16842  39.862  23.177   0.439
50302W        W16843  24.522  41.130  13.495
50303W        W16844  42.188  23.640  14.517
50304W        W16845  37.185  16.816  14.297
50305W        W16846  14.673  41.912   3.616
50306W        W16847  31.409  44.350   3.817
50307W        W16848  31.506   3.008  11.559
50308W        W16849  14.894  26.141   0.969
50309W        W16850  12.852  12.488  12.546
50310W        W16851  42.341  21.716   3.879
50311W        W16852  27.980  27.122  13.098
50312W        W16853  22.586   9.346   1.373
50313W        W16854   5.973  44.774  10.250
50314W        W16855  42.094   6.912   5.111
50315W        W16856  17.747  19.624   2.421
50316W        W16857  30.583  34.080   1.249
50317W        W16858  13.678  33.464  11.320
50318W        W16859   8.168  14.051   2.134
50319W        W16860  13.559   5.690  11.172
50320W        W16861  22.025  13.225   1.221
50321W        W16862  36.482  35.866  13.498
50322W        W16863  27.789   2.415  11.467
50323W        W16864  43.290  17.826   3.258
50324W        W16865   8.288  12.692   4.627
50325W        W16866   1.043  21.441  12.592
50326W        W16867  18.516   2.944  14.211
50327W        W16868  26.665  17.185   0.186
50328W        W16869  24.548  11.443   0.390
50329W        W16870  33.981  41.533   4.016
50330W        W16871  30.480  18.348   0.810
50331W        W16872   6.730  23.768   3.606
50332W        W16873  26.444  39.265  11.623
50333W        W16874  38.501  13.339  14.757
50334W        W16875  38.367   3.208  13.678
50335W        W16876  29.737   6.234   3.011
50336W        W16877  12.111  20.673   1.541
50337W        W16878  30.530  19.927   2.493
50338W        W16879  27.723  43.066  10.096
50339W        W16880  11.704   9.894   4.252
50340W        W16881  41.833  34.377  13.437
50341W        W16882   8.186  32.128  11.653
50342W        W16883  35.326  25.876  12.128
50343W        W16884   0.211  12.613   4.627
50344W        W16885  39.934  26.753  12.110
50345W        W16886  38.773   5.853   1.236
50346W        W16887  12.618  11.641  10.774
50347W        W16888   2.786  20.603  14.951
50348W        W16889  26.231  40.472  12.000
50349W        W16890   5.931   9.526   1.057
50350W        W16891  44.358  43.241  11.647
50351W        W16892  40.732  18.053  14.582
50352W        W16893  18.132  34.575   2.154
50353W        W16894   5.133  19.681  14.400
50354W        W16895   1.423  18.378   3.357
50355W        W16896   3.727  23.487   3.179
50356W        W16897   6.250   0.469  12.085
50357W        W16898  43.450  36.542   1.372
50358W        W16899  27.609   0.201   2.737
50359W        W16900  13.281  34.003   0.528
50360W        W16901  20.791  11.574   4.344
50361W        W16902   6.232   6.817   3.751
50362W        W16903  15.693  13.198  14.738
50363W        W16904  42.476   6.635   1.656
50364W        W16905  35.400  24.442  12.401
50365W        W16906  43.322   1.227  13.444
50366W        W16907  14.202  11.724   2.348
50367W        W16908  24.100  30.568  10.523
50368W        W16909   8.322  12.434  11.509
50369W        W16910  26.711  14.155   3.107
50370W        W16911  40.510  44.855   1.683
50371W        W16912  34.997  19.265  14.434
50372W        W16913   4.393  14.383  13.818
50373W        W16914   2.145   8.936   2.793
50374W        W16915  39.477   9.755   1.049
50375W        W16916  40.460  27.932   2.794
50376W        W16917  21.273  19.350  14.566
50377W        W16918  17.951   4.875  11.585
50378W        W16919  20.100  21.253   1.261
50379W        W16920  25.755  39.486   1.656
50380W        W16921  24.991  20.592  11.856
50381W        W16922  43.491  32.701  14.508
50382W        W16923  22.207  14.331  12.994
50383W        W16924  44.254   5.336   0.093
50384W        W16925  28.891   4.239  14.789
50385W        W16926  14.049  28.197   1.428
50386W        W16927  19.093   6.698   4.675
50387W        W16928   4.687   2.451  14.490
50388W        W16929   7.753   8.627  12.320
50389W        W16930  17.789  21.459   2.735
50390W        W16931  24.775  34.529  11.396
50391W        W16932  36.190  35.329  10.862
50392W        W16933  29.536   8.383   2.753
50393W        W16934  28.615   4.407   4.601
50394W        W16935   2.392   8.789   3.719
50395W        W16936  23.409  19.055   4.254
50396W        W16937  30.873   9.202  14.342
50397W        W16938  20.807  21.511  12.053
50398W        W16939  42.419  17.578  10.851
50399W        W16940   4.769   4.765  13.538
50400W        W16941  16.961  17.338  10.974
50401W        W16942  42.268  24.319   2.907
50402W        W16943  12.320  11.261  13.658
50403W        W16944  12.897   4.278   1.407
50404W        W16945  16.343  13.026  12.068
50405W        W16946  11.957  39.456  10.015
50406W        W16947   2.245  28.341   5.674
50407W        W16948  26.937  33.218   1.371
50408W        W16949  43.943  25.031   2.883
50409W        W16950  44.660  39.045  13.207
50410W        W16951  19.398  32.442  13.834
50411W        W16952  44.592  14.212  14.728
50412W        W16953  21.549  44.106   3.789
50413W        W16954  25.236  28.277  14.548
50414W        W16955  28.341  38.696   3.708
50415W        W16956  41.602  17.034   4.661
50416W        W16957  38.978  32.889  10.593
50417W        W16958  43.491  24.584  12.994
50418W        W16959   7.873  30.103   3.627
50419W        W16960  14.225  37.513   0.319
50420W        W16961  21.731  29.586   3.504
50421W        W16962   5.308  15.386  12.126
50422W        W16963  41.061  12.948   1.799
50423W        W16964  40.313  29.617   3.863
50424W        W16965  13.963  26.434  11.588
50425W        W16966  13.830  36.765  14.306
50426W        W16967   1.625  20.290  12.032
50427W        W16968   2.396  11.444   0.927
50428W        W16969  39.847  26.402  10.757
50429W        W16970  18.425  14.209  14.807
50430W        W16971   0.465   3.950   0.852
50431W        W16972  23.209  40.577  11.096
50432W        W16973  18.001  34.807   2.598
50433W        W16974  33.524  15.845   3.359
50434W        W16975  40.389  26.497   0.069
50435W        W16976  23.523  35.601   4.621
50436W        W16977  12.773  32.502   4.639
50437W        W16978  15.567  24.637   1.320
50438W        W16979  38.953  11.293   0.137
50439W        W16980  27.490  20.543  11.693
50440W        W16981  22.756  25.793  10.415
50441W        W16982  27.612  18.250   3.776
50442W        W16983   8.397  29.165   1.392
50443W        W16984   6.282  43.323  11.117
50444W        W16985  14.598  30.172   2.744
50445W        W16986  19.782   4.003  11.644
50446W        W16987  26.918  32.211  11.653
50447W        W16988  31.456   0.439  11.050
50448W        W16989   3.666  24.348  14.211
50449W        W16990  37.396  14.483  13.422
50450W        W16991  17.494  39.907  11.617
50451W        W16992  41.017  40.865  12.170
50452W        W16993  21.498  36.375   2.782
50453W        W16994  37.166  37.774   0.161
50454W        W16995  11.847  17.583  14.000
50455W        W16996  31.577  22.189  11.571
50456W        W16997  39.134  13.602   3.343
50457W        W16998   5.026   3.834  12.086
50458W        W16999  30.814  20.708  13.866
50459W        W17000  14.384  19.190   2.314
50460W        W17001  36.302   0.899  14.988
50461W        W17002   9.275   7.307   2.806
50462W        W17003  26.287   5.524   2.795
50463W        W17004  15.009  26.530  10.702
50464W        W17005  40.725  18.558   2.071
50465W        W17006  30.027  39.834  13.108
50466W        W17007  23.558  24.397   0.449
50467W        W17008   0.340  12.038  11.912
50468W        W17009  24.364  16.284  14.007
50469W        W17010  39.606  42.523   3.703
50470W        W17011  13.643  40.296   4.003
50471W        W17012  32.863  39.943   4.671
50472W        W17013   8.004   9.758  13.266
50473W        W17014   3.728   0.628  11.129
50474W        W17015  39.468  23.190  12.822
50475W        W17016  33.645  29.011   4.216
50476W        W17017  14.150  37.320   4.537
50477W        W17018  21.249  24.429  10.754
50478W        W17019  44.908   4.915  12.006
50479W        W17020  24.649  34.414  10.929
50480W        W17021   8.168  23.997  13.754
50481W        W17022  14.374   6.782  13.040
50482W        W17023   1.684  30.292   3.580
50483W        W17024  18.510  26.844   3.798
50484W        W17025  42.066  24.426  11.138
50485W        W17026   0.937  22.510  12.425
50486W        W17027  43.019  20.768  14.251
50487W        W17028  33.247  31.672   3.752
50488W        W17029   2.363  27.287   4.850
50489W        W17030  17.873   9.920  14.975
50490W        W17031  42.297   4.917   1.879
50491W        W17032  35.025  14.200  13.828
50492W        W17033   9.878  31.582  11.202
50493W        W17034  40.984   3.935   0.005
50494W        W17035   9.841  29.797  12.621
50495W        W17036  43.831  22.510   3.655
50496W        W17037  18.074   6.159   1.526
50497W        W17038  30.156   8.708   4.265
50498W        W17039  37.027   5.084   4.630
50499W        W17040  21.040  35.608  14.770
50500W        W17041  32.341  12.122   4.490
50501W        W17042  29.204  16.720  14.761
50502W        W17043  35.341   4.712  13.350
50503W        W17044  41.657   4.757   4.073
50504W        W17045  10.258  23.105  10.563
50505W        W17046  14.186   3.293   3.380
50506W        W17047  17.375   3.330   0.902
50507W        W17048  28.470  42.929  12.599
50508W        W17049  11.320  13.362   4.536
50509W        W17050  35.425   3.867   1.458
50510W        W17051  13.250  36.942   1.773
50511W        W17052   2.973  13.726  12.198
50512W        W17053  10.682   3.429  10.804
50513W        W17054  44.438  42.227  12.373
50514W        W17055  38.183  31.510  14.004
50515W        W17056  34.656   4.295   2.007
50516W        W17057  11.109  38.082  11.460
50517W        W17058  16.762  28.918   3.248
50518W        W17059   9.112   5.531   0.301
50519W        W17060  44.228  21.476   0.305
50520W        W17061   1.570  19.280   3.625
50521W        W17062  13.754  40.710   0.681
50522W        W17063   9.410  18.932   2.469
50523W        W17064  21.294  23.164  12.012
50524W        W17065  19.316  22.260   3.667
50525W        W17066  37.588  34.082   2.768
50526W        W17067  39.759  39.745  10.747
50527W        W17068   7.474  25.214  12.642
50528W        W17069  27.185  25.421  11.211
50529W        W17070  12.680  41.256   4.076
50530W        W17071  28.578  40.781   0.387
50531W        W17072  22.063   6.319  13.101
50532W        W17073  40.060  28.753  14.897
50533W        W17074  28.728  27.951   2.534
50534W        W17075  37.355  10.827   0.246
50535W        W17076  21.765  43.532   2.140
50536W        W17077  29.963  43.328   4.380
50537W        W17078   2.388   7.202   4.615
50538W        W17079   9.401  28.953   4.320
50539W        W17080  44.700  33.618  14.994
50540W        W17081   8.530  13.071   2.404
50541W        W17082   3.014  24.726  11.093
50542W        W17083  24.982  40.063  14.047
50543W        W17084  12.615   8.837   2.151
50544W        W17085  40.507  34.082   2.099
50545W        W17086  16.297  21.864   2.316
50546W        W17087  29.906  20.693  11.984
50547W        W17088  36.204  22.824  13.122
50548W        W17089   0.232  30.390   0.979
50549W        W17090   3.158  28.667   3.763
50550W        W17091  31.959  31.005   3.894
50551W        W17092   0.686  28.589   2.011
50552W        W17093  38.823  29.530  12.647
50553W        W17094  24.327  27.144   3.007
50554W        W17095  14.196   4.817   4.065
50555W        W17096  24.040  33.392  12.458
50556W        W17097   3.376  20.505   2.351
50557W        W17098   4.780  22.195  14.893
50558W        W17099  26.654  18.463   0.150
50559W        W17100  24.200  28.173   4.063
50560W        W17101  34.484  19.751   0.036
50561W        W17102  22.585   8.796  11.485
50562W        W17103  34.511   7.669   3.656
50563W        W17104  11.155  12.486   3.266
50564W        W17105  17.667  36.561   4.313
50565W        W17106  20.078  28.602  11.958
50566W        W17107  19.105  31.223  12.954
50567W        W17108  26.545  43.570   1.779
50568W        W17109  29.208  32.559   0.273
50569W        W17110  14.921  30.060   1.441
50570W        W17111  36.683  34.407  14.664
50571W        W17112  38.995  36.667   1.210
50572W        W17113  12.062  33.451   2.726
50573W        W17114  19.221   6.689  11.582
50574W        W17115  31.716  38.941  12.115
50575W        W17116  17.001  26.636  13.271
50576W        W17117  18.540  16.685  11.001
50577W        W17118  36.973  11.994  11.576
50578W        W17119  13.256  39.393   0.973
50579W        W17120  36.120   9.397  14.829
50580W        W17121  30.259  15.189  12.591
50581W        W17122  35.326   3.729  14.013
50582W        W17123  25.882  20.464   1.854
50583W        W17124  14.828  10.786   0.480
50584W        W17125  35.905  10.256   0.753
50585W        W17126   5.680  42.285  13.892
50586W        W17127  19.112  35.375  14.848
50587W        W17128   1.018  19.770   3.449
50588W        W17129   0.916  15.751   2.745
50589W        W17130  35.400   5.791   1.460
50590W        W17131   5.753  37.880   1.860
50591W        W17132   8.225  16.811   2.210
50592W        W17133  42.717   3.212  14.077
50593W        W17134  41.278  34.229  12.151
50594W        W17135  43.693  13.149  10.659
50595W        W17136  26.676  27.108   4.107
50596W        W17137  17.498  21.522   3.661
50597W        W17138  23.132  11.212   3.714
50598W        W17139  15.052  31.642   3.656
50599W        W17140  44.193  26.645  11.053
50600W        W17141   6.740  13.380  14.257
50601W        W17142  11.782  39.496   3.283
50602W        W17143  33.387  13.384  13.963
50603W        W17144   5.738  39.734   4.564
50604W        W17145  44.065  28.612  12.316
50605W        W17146  30.781  40.429  11.583
50606W        W17147  17.070  21.458   0.599
50607W        W17148  21.930  14.133  11.223
50608W        W17149  34.031  27.462   1.279
50609W        W17150  21.610   3.844  13.851
50610W        W17151  10.157  13.314  11.404
50611W        W17152  31.348  37.678   2.584
50612W        W17153  15.335  20.646  13.783
50613W        W17154  14.189  13.488   2.128
50614W        W17155  16.769   3.295  11.916
50615W        W17156  41.476  13.453   1.259
50616W        W17157   4.888  34.546   3.333
50617W        W17158   0.017  44.881  11.795
50618W        W17159  37.454   3.926  13.320
50619W        W17160  36.005   8.853  14.856
50620W        W17161  12.908  35.028  14.709
50621W        W17162  32.550  33.151  13.398
50622W        W17163  13.143  12.359  10.925
50623W        W17164  21.600  11.005   1.209
50624W        W17165  40.478  19.317  12.948
50625W        W17166  19.202  26.675   3.736
50626W        W17167  32.969  10.147   0.834
50627W        W17168  28.148  36.591  11.110
50628W        W17169   3.422   9.155   1.720
50629W        W17170  23.457  11.243  14.120
50630W        W17171   7.848  39.321   0.855
50631W        W17172  35.412  23.703   3.740
50632W        W17173  34.920   0.741   4.093
50633W        W17174  31.005   9.379  11.457
50634W        W17175   7.800   3.436  11.592
50635W        W17176  21.258  27.141   0.445
50636W        W17177  35.517   7.600   3.765
50637W        W17178  44.006   6.852  12.017
50638W        W17179  38.670  33.061   2.625
50639W        W17180  37.844   1.305  12.847
50640W        W17181  24.965  21.765  13.335
50641W        W17182  12.672  17.198   3.068
50642W        W17183  30.504  34.550  10.782
50643W        W17184  38.943  19.483  12.311
50644W        W17185  37.590   0.916  13.835
50645W        W17186   6.817  22.147  14.614
50646W        W17187   5.814  18.744  10.691
50647W        W17188  36.615   6.753   2.657
50648W        W17189  41.690  31.269   1.210
50649W        W17190  19.358  14.666  10.220
50650W        W17191  29.216  36.150   4.634
50651W        W17192  21.036  39.487   0.846
50652W        W17193  14.255  42.436   2.222
50653W        W17194  24.111   4.202  14.500
50654W        W17195  18.391  44.999  11.562
50655W        W17196  39.514   1.806   0.363
50656W        W17197   1.562  26.233   0.338
50657W        W17198  32.030  43.463   2.704
50658W        W17199  43.409  23.489  10.337
50659W        W17200   1.011  25.251  14.662
50660W        W17201  19.758  33.736  14.463
50661W        W17202  21.964  39.968  10.804
50662W        W17203  18.227  24.762   0.869
50663W        W17204  15.022   7.167   2.354
50664W        W17205  24.220  23.096  14.604
50665W        W17206  18.061  30.559  14.557
50666W        W17207   4.257  39.753  11.581
50667W        W17208  15.882   7.502  12.003
50668W        W17209  16.292  29.176   2.624
50669W        W17210  11.370  26.885  14.951
50670W        W17211  38.286  16.998   2.270
50671W        W17212  41.017  33.847  13.940
50672W        W17213  42.850  16.778  12.600
50673W        W17214  28.082   7.955   4.045
50674W        W17215  22.558  19.749  11.994
50675W        W17216  25.921   3.241  11.995
50676W        W17217  32.862  38.392   4.633
50677W        W17218  31.446  44.709   1.255
50678W        W17219  14.981  29.609   5.015
50679W        W17220  21.307  21.486  11.039
50680W        W17221  23.870  29.654  11.836
50681W        W17222  26.312  24.613  13.316
50682W        W17223   8.108  35.756  14.976
50683W        W17224  14.602  29.082  13.391
50684W        W17225  38.372  22.269   2.748
50685W        W17226  39.400  26.200   3.333
50686W        W17227  27.008  21.603   4.374
50687W        W17228  41.499  12.271   1.402
50688W        W17229   2.555  33.362  11.515
50689W        W17230  34.583  24.261   0.789
50690W        W17231  42.789  38.086   3.206
50691W        W17232   8.727  21.500   1.450
50692W        W17233  18.946  17.230  10.043
50693W        W17234  33.611  34.365   2.880
50694W        W17235   3.705  34.988  14.113
50695W        W17236  25.504   2.329  14.378
50696W        W17237   1.835  32.201   3.973
50697W        W17238  27.426  29.645   0.033
50698W        W17239  21.188   6.901  14.945
50699W        W17240  16.846   1.961  12.173
50700W        W17241   6.653  35.438  13.500
50701W        W17242  38.465  30.879  12.493
50702W        W17243  27.134  38.987   2.428
50703W        W17244  13.161  21.420   2.575
50704W        W17245   9.670  20.512   1.776
50705W        W17246   9.945  16.701   2.846
50706W        W17247  19.909  35.086  12.089
50707W        W17248  35.984  36.804   2.720
50708W        W17249  38.953  19.587   2.690
50709W        W17250  13.197   0.735   2.733
50710W        W17251  44.456  41.163  10.571
50711W        W17252  20.247  13.845  13.471
50712W        W17253  10.626  12.397   1.190
50713W        W17254  31.753  21.779   4.223
50714W        W17255   6.875  29.306   1.820
50715W        W17256  35.499  36.155   2.177
50716W        W17257   5.802   6.013  13.891
50717W        W17258  10.864  28.604   2.216
50718W        W17259  12.244   2.914  10.687
50719W        W17260  26.208  44.403  11.484
50720W        W17261  39.536  33.463  13.034
50721W        W17262  25.465   7.799  12.135
50722W        W17263  14.894   5.693   4.123
50723W        W17264  13.170   5.864  14.417
50724W        W17265  13.520  28.950   3.265
50725W        W17266  27.604  10.964  10.724
50726W        W17267  40.356  22.508  11.480
50727W        W17268   6.751   4.693  14.586
50728W        W17269  13.308  13.195  11.582
50729W        W17270  17.506   0.021  12.484
50730W        W17271   7.700  33.263  11.111
50731W        W17272  23.103  40.826  10.669
50732W        W17273  10.299  44.585  13.803
50733W        W17274  38.857  14.650  13.477
50734W        W17275  41.340  39.902  11.875
50735W        W17276  18.623  42.399   2.751
50736W        W17277  30.443   8.840   3.452
50737W        W17278  19.171  18.105   0.399
50738W        W17279  34.174  13.863  13.897
50739W        W17280  38.084  40.860   1.462
50740W        W17281   8.486  12.940   0.806
50741W        W17282  33.519   4.017   3.764
50742W        W17283  18.476  34.927   2.752
50743W        W17284  36.373  34.039   4.325
50744W        W17285  44.312  22.162  11.132
50745W        W17286  16.069  10.458  10.830
50746W        W17287   6.408  11.843   3.959
50747W        W17288  21.312   7.326   0.904
50748W        W17289  28.174  37.329   2.096
50749W        W17290  10.443   3.352  14.074
50750W        W17291  32.874   5.697   2.306
50751W        W17292  23.626  39.224  13.339
50752W        W17293  24.128   9.426   1.892
50753W        W17294   8.706  37.920   1.672
50754W        W17295  23.788  18.623   3.228
50755W        W17296  43.980  25.098  12.587
50756W        W17297  21.681  43.309   0.313
50757W        W17298   9.724  41.908   1.894
50758W        W17299  13.178   3.054   3.625
50759W        W17300  18.544  27.929  11.658
50760W        W17301  17.634   2.721  13.841
50761W        W17302   5.289  32.528  10.474
50762W        W17303  44.964  37.095   1.759
50763W        W17304  25.403  31.679   2.634
50764W        W17305  37.752  21.063  10.047
50765W        W17306   7.335  20.699   3.834
50766W        W17307  14.482  40.144   3.152
50767W        W17308  29.712  24.983   4.475
50768W        W17309  19.430  22.140  13.687
50769W        W17310  36.049  22.929  12.267
50770W        W17311   4.653   9.829  11.636
50771W        W17312  31.070  21.556  14.908
50772W        W17313  41.305  20.787  14.880
50773W        W17314   6.791   0.338   1.953
50774W        W17315   2.442  31.693  13.754
50775W        W17316  35.675  42.790   3.384
50776W        W17317  32.231  19.631  14.305
50777W        W17318  40.895  33.503  11.162
50778W        W17319   9.456  13.325   3.647
50779W        W17320  30.027  25.206  10.515
50780W        W17321  32.165  10.702  11.613
50781W        W17322  42.986  12.001   3.781
50782W        W17323  21.491  28.867   1.418
50783W        W17324   6.160  14.240   1.766
50784W        W17325  22.000  42.919  11.694
50785W        W17326  27.258  22.907  14.804
50786W        W17327  20.591   8.394   3.085
50787W        W17328  36.532  26.149  13.924
50788W        W17329  33.976  27.534  10.546
50789W        W17330  42.375  10.127  10.573
50790W        W17331   8.723  23.786   0.379
50791W        W17332   7.671   5.301   2.320
50792W        W17333  18.246  29.058   4.289
50793W        W17334   3.688  15.112  11.585
50794W        W17335  36.977  23.765  11.909
50795W        W17336   3.125   4.930  11.594
50796W        W17337  34.010  31.338  10.934
50797W        W17338  44.451  12.029  11.117
50798W        W17339  24.117   9.603   2.792
50799W        W17340  13.213   3.916   3.660
50800W        W17341  34.441  18.114  13.840
50801W        W17342  23.412  37.157  12.024
50802W        W17343  34.958   9.059  11.513
50803W        W17344  40.850   8.118  11.482
50804W        W17345  29.112  12.163   2.681
50805W        W17346  19.655  32.902   0.264
50806W        W17347  30.071  15.342   0.401
50807W        W17348  27.476   8.640   2.641
50808W        W17349  43.530   8.596   1.557
50809W        W17350  25.736  23.030  12.787
50810W        W17351   6.907  34.612  14.698
50811W        W17352   4.981  16.044   2.179
50812W        W17353  17.843   6.773  11.529
50813W        W17354  43.885   7.725   1.378
50814W        W17355  31.960  19.758  10.879
50815W        W17356  33.477  18.019   2.545
50816W        W17357   1.372  14.390  12.525
50817W        W17358  21.006  22.808   0.301
50818W        W17359   3.781   9.697   2.203
50819W        W17360  16.142  34.687   3.555
50820W        W17361  17.757  25.488   3.509
50821W        W17362   9.849   4.435   2.225
50822W        W17363  12.846  25.456   2.745
50823W        W17364   0.963  19.987  13.458
50824W        W17365  17.137  40.780   4.121
50825W        W17366  32.444  15.523   0.812
50826W        W17367  33.157  10.621  11.519
50827W        W17368  27.153  44.479   3.733
50828W        W17369   9.855   5.417   2.346
50829W        W17370  28.036   3.443   1.712
50830W        W17371  41.222  32.641  11.540
50831W        W17372   7.818  31.324   0.315
50832W        W17373  34.410   9.356   0.013
50833W        W17374  12.693  41.352   2.183
50834W        W17375   2.167  33.466  14.536
50835W        W17376   6.194  21.850  12.643
50836W        W17377   3.417  38.967   1.974
50837W        W17378  38.319  34.851   4.581
50838W        W17379  21.549  23.128   4.477
50839W        W17380  13.115   9.672  12.848
50840W        W17381   4.017  14.246  14.707
50841W        W17382  11.731  29.492   3.423
50842W        W17383  18.249  40.252   3.790
50843W        W17384  35.818  31.572   1.836
50844W        W17385  34.551  26.434  11.453
50845W        W17386  31.706  26.495   0.539
50846W        W17387  14.847  43.864  14.773
50847W        W17388  17.189  43.354  11.206
50848W        W17389  12.155  14.607  12.569
50849W        W17390  30.663  42.813   4.622
50850W        W17391   1.327  10.218   4.331
50851W        W17392  12.680  36.334  14.065
50852W        W17393  32.745  42.832  13.344
50853W        W17394  37.981  41.368   3.892
50854W        W17395  20.258   4.902  13.421
50855W        W17396   7.430  26.060  11.430
50856W        W17397  42.576  28.238   1.841
50857W        W17398  11.578  31.623   4.320
50858W        W17399  32.886  17.132   3.230
50859W        W17400  34.760  40.292  14.059
50860W        W17401  43.909  13.179  12.494
50861W        W17402  42.052  33.721   0.750
50862W        W17403  23.576  13.623   3.233
50863W        W17404  21.876   2.255   0.070
50864W        W17405   9.894   3.407  10.544
50865W        W17406  19.786  27.655  12.573
50866W        W17407  21.530  43.608  13.384
50867W        W17408  18.871  15.738  12.798
50868W        W17409  15.503  41.819  14.853
50869W        W17410   4.341  20.039   0.868
50870W        W17411   8.318  35.092   2.088
50871W        W17412  20.283  18.238   3.255
50872W        W17413  20.053  12.964  13.981
50873W        W17414  32.810   0.824   4.134
50874W        W17415  14.806  29.255   5.335
50875W        W17416  28.777  20.077   2.241
50876W        W17417  16.012   5.645  11.195
50877W        W17418  15.382  10.168   4.900
50878W        W17419  29.705  17.720   4.227
50879W        W17420  27.231   8.661  11.571
50880W        W17421  25.221  42.847  11.657
50881W        W17422  19.727  18.153  11.076
50882W        W17423  11.387   4.882  10.578
50883W        W17424  40.225  40.213   1.753
50884W        W17425   0.267   9.410  12.936
50885W        W17426  24.558  10.349  11.831
50886W        W17427  24.300  41.533   1.346
50887W        W17428   5.154  11.682  12.101
50888W        W17429  44.489  30.615  10.663
50889W        W17430   6.938  25.568  10.345
50890W        W17431   2.611  29.500   0.429
50891W        W17432  14.111  39.295  13.883
50892W        W17433  22.825   0.095   0.274
50893W        W17434  28.547  14.376  14.166
50894W        W17435  34.704  27.642   2.846
50895W        W17436   8.961   8.818   2.308
50896W        W17437   2.232  35.002   1.454
50897W        W17438  31.902  22.786   1.824
50898W        W17439  39.406  23.058   3.356
50899W        W17440  35.111  41.577   1.237
50900W        W17441   6.263  43.233  10.601
50901W        W17442  23.764   8.164   1.463
50902W        W17443  29.966   9.878   5.089
50903W        W17444  32.362  14.725   4.350
50904W        W17445  23.186  16.977  11.069
50905W        W17446  19.267   5.222   4.643
50906W        W17447  29.559  25.505   1.706
50907W        W17448   6.456  20.474   1.364
50908W        W17449  20.100  23.456   2.654
50909W        W17450  41.504  14.181  13.889
50910W        W17451   4.731  35.448   1.884
50911W        W17452   2.191   0.402   0.268
50912W        W17453  24.417  15.841  13.749
50913W        W17454   3.379  39.895  10.749
50914W        W17455  16.106  12.289   3.727
50915W        W17456  28.168  27.552   1.738
50916W        W17457  21.954  22.972   4.730
50917W        W17458  16.733   6.787   0.231
50918W        W17459  19.158  30.983  10.544
50919W        W17460  15.298  22.314   2.312
50920W        W17461  19.553  28.702   2.976
50921W        W17462  25.695  44.259   3.464
50922W        W17463  13.564  42.798  12.277
50923W        W17464  25.195  15.522   4.634
50924W        W17465  32.585  43.925   3.679
50925W        W17466  42.861  14.163   1.406
50926W        W17467  30.863  32.054  10.665
50927W        W17468   2.856  14.172   0.271
50928W        W17469  10.368  41.732   0.966
50929W        W17470  22.112  18.811  13.491
50930W        W17471  31.967  22.808  10.465
50931W        W17472  32.319   4.979  11.937
50932W        W17473  22.890  12.388  14.098
50933W        W17474   5.007  20.138   2.858
50934W        W17475   7.924  24.125   0.503
50935W        W17476  25.529  24.518   3.711
50936W        W17477  15.765  40.887   4.889
50937W        W17478  31.328  37.459   3.035
50938W        W17479  10.743   2.206  12.232
50939W        W17480  34.135  25.044  12.864
50940W        W17481  16.988   5.888  11.462
50941W        W17482  14.654   2.187  10.899
50942W        W17483  24.860  32.634   2.847
50943W        W17484  40.585  10.727   3.149
50944W        W17485  44.855  30.560   4.764
50945W        W17486  10.562   4.589  13.868
50946W        W17487  15.634  35.091   3.001
50947W        W17488  41.289  20.031   4.530
50948W        W17489  14.318  10.318   1.592
50949W        W17490  15.761  33.699   4.116
50950W        W17491  43.383  20.290   1.677
50951W        W17492  30.477  43.753   0.939
50952W        W17493   6.191  21.050  11.118
50953W        W17494  22.774  44.040   0.498
50954W        W17495  21.250  40.300  13.802
50955W        W17496  24.107   3.876  13.653
50956W        W17497  21.677  17.759  10.345
50957W        W17498  43.295  17.321   3.239
50958W        W17499  20.535  19.780   1.001
50959W        W17500  34.263  29.618  12.454
50960W        W17501   9.655  30.133  12.987
50961W        W17502  16.975  34.796  12.062
50962W        W17503  27.689  22.911   3.713
50963W        W17504  20.014  28.312  10.316
50964W        W17505  10.729  32.388   3.740
50965W        W17506  20.753  16.501   4.163
50966W        W17507  24.231  12.301   2.823
50967W        W17508   6.616  20.706   3.296
50968W        W17509   8.256   7.956   0.760
50969W        W17510  17.380  28.133  12.186
50970W        W17511  11.778  13.918  14.787
50971W        W17512  11.093   7.483  10.970
50972W        W17513   9.715  14.975   0.878
50973W        W17514  39.048  11.674  11.227
50974W        W17515  15.723   5.757   0.981
50975W        W17516  36.389  37.955   2.292
50976W        W17517  38.298  35.140  12.841
50977W        W17518  38.560   0.199   3.177
50978W        W17519  28.398  14.661  12.885
50979W        W17520  18.051  29.731   3.007
50980W        W17521   4.525   0.361   4.974
50981W        W17522  26.011   7.441  13.855
50982W        W17523  14.654  42.178   4.441
50983W        W17524  27.133  28.399   3.564
50984W        W17525  30.679  36.017   3.299
50985W        W17526  15.775  11.036  14.944
50986W        W17527   1.380  12.260  13.639
50987W        W17528   9.393   4.083  10.723
50988W        W17529  25.358  19.932  13.527
50989W        W17530  30.947   2.395   1.789
50990W        W17531  13.116  12.870   1.899
50991W        W17532  44.988  27.202   3.348
50992W        W17533  29.057  34.705  14.605
50993W        W17534  26.396   1.956   0.717
50994W        W17535  15.128  41.512  12.516
50995W        W17536  27.918  19.143   2.618
50996W        W17537  34.530  39.918   1.338
50997W        W17538  27.559  19.048  14.481
50998W        W17539  31.987  43.972  13.845
50999W        W17540  30.197  42.430  14.410
51000W        W17541   9.785  44.587  11.902
51001W        W17542   0.877   7.121   2.295
51002W        W17543  10.396  24.521   3.220
51003W        W17544  10.450   6.607  14.798
51004W        W17545  15.103  36.313   3.623
51005W        W17546   6.757  14.389  14.430
51006W        W17547  17.336  13.599   3.580
51007W        W17548  22.189  35.339   4.225
51008W        W17549   6.113  42.765  12.098
51009W        W17550  19.187  28.383   4.233
51010W        W17551   4.746  19.091   0.935
51011W        W17552  30.004  28.165  13.144
51012W        W17553  41.958  20.711   0.046
51013W        W17554  43.476  12.052   2.261
51014W        W17555  32.864  11.708   3.289
51015W        W17556   8.302  42.719   3.199
51016W        W17557  17.785  14.679  12.695
51017W        W17558  26.575  41.047   2.730
51018W        W17559  11.578  35.527  13.331
51019W        W17560  28.564  32.712  14.071
51020W        W17561  14.233  41.247   0.523
51021W        W17562  26.094  40.590  13.409
51022W        W17563  18.228  37.725   5.103
51023W        W17564  34.964   3.730  14.921
51024W        W17565   3.920   9.345   3.242
51025W        W17566  22.467  10.671   1.740
51026W        W17567   5.630  44.747   4.758
51027W        W17568  22.041  20.683  11.813
51028W        W17569  12.044   0.907   2.253
51029W        W17570   2.387  35.140   0.520
51030W        W17571  25.907  13.708  10.776
51031W        W17572  36.805  40.744   3.699
51032W        W17573  11.277  23.677  12.984
51033W        W17574  21.576  34.361   2.682
51034W        W17575  19.328   5.124   1.185
51035W        W17576  10.296  12.101  12.609
51036W        W17577  15.140  22.643   1.200
51037W        W17578  18.764  19.274   3.603
51038W        W17579   1.863  10.580   1.499
51039W        W17580   1.144  17.025  14.658
51040W        W17581   3.117  38.580   3.376
51041W        W17582  42.385   3.578   1.466
51042W        W17583  12.451  39.957   3.619
51043W        W17584  42.278   8.225   0.375
51044W        W17585   1.722  41.686  11.237
51045W        W17586  17.109  11.112   1.919
51046W        W17587   2.430  17.515   1.706
51047W        W17588  24.611  20.765  13.484
51048W        W17589  25.433  19.097   0.748
51049W        W17590  14.668  43.515   3.227
51050W        W17591  29.629   1.953  13.459
51051W        W17592  37.048  35.621   0.261
51052W        W17593  39.371  17.572   1.241
51053W        W17594  18.466  41.398   3.109
51054W        W17595  18.716  14.323   0.265
51055W        W17596  40.946  44.004  12.395
51056W        W17597  24.026  34.118  11.663
51057W        W17598   8.756  15.211   1.835
51058W        W17599  25.405  38.756   4.745
51059W        W17600  35.889   1.207   1.971
51060W        W17601  38.475  21.539  12.069
51061W        W17602  23.297  36.838   2.747
51062W        W17603  44.797  43.876   1.877
51063W        W17604  41.045  33.120  10.696
51064W        W17605  36.022  29.166  14.437
51065W        W17606  44.050  31.119  14.956
51066W        W17607  40.326  28.559   0.690
51067W        W17608  40.085   1.772  13.024
51068W        W17609  32.821  33.058  11.589
51069W        W17610  27.155  37.046   1.444
51070W        W17611  39.139  17.229   3.291
51071W        W17612  35.067   8.109  11.420
51072W        W17613   5.414   4.493  12.670
51073W        W17614  32.396  30.371   3.813
51074W        W17615  43.786  42.528   3.250
51075W        W17616  40.602   8.877  13.399
51076W        W17617  28.407   0.786   1.318
51077W        W17618  33.416  11.799   0.302
51078W        W17619  32.410   8.252   0.725
51079W        W17620  33.100  19.255  10.953
51080W        W17621  31.931  19.914   1.566
51081W        W17622   5.811  13.697   2.452
51082W        W17623   8.246  39.408   4.522
51083W        W17624  41.611  19.603  14.854
51084W        W17625   0.523   0.305   1.745
51085W        W17626  12.078   7.301   0.784
51086W        W17627  21.354  36.395   4.994
51087W        W17628  20.779   7.636  14.655
51088W        W17629  35.126  44.720  11.411
51089W        W17630  23.726  26.443   3.814
51090W        W17631  25.645  17.001   5.041
51091W        W17632   7.388  41.990  11.637
51092W        W17633  11.144  21.259   4.178
51093W        W17634  34.555  42.991   0.322
51094W        W17635   9.772  43.284  12.946
51095W        W17636  39.978  12.914   4.919
51096W        W17637  16.000  25.802   2.674
51097W        W17638   0.741   7.509   5.004
51098W        W17639  23.398   2.876   2.750
51099W        W17640  10.256  42.723  11.017
51100W        W17641   1.539  12.851   1.342
51101W        W17642  35.613  33.162   1.868
51102W        W17643  24.260   3.011   3.763
51103W        W17644   9.955  28.319  12.388
51104W        W17645  42.634   6.234   0.871
51105W        W17646  14.252   7.176   1.685
51106W        W17647  25.089  25.719  11.619
51107W        W17648  11.773   4.698  12.805
51108W        W17649  10.819  31.893   0.916
51109W        W17650  25.924   1.727  12.547
51110W        W17651  33.671  23.201   1.512
51111W        W17652  35.894  23.578   3.605
51112W        W17653  27.687  10.602   5.282
51113W        W17654  35.440  19.238  11.958
51114W        W17655  26.265  10.826  10.912
51115W        W17656   1.519   6.340   2.155
51116W        W17657  22.527  36.638  13.391
51117W        W17658  41.191  11.200  12.322
51118W        W17659  23.611   9.620   2.668
51119W        W17660  21.261  29.555   3.709
51120W        W17661  28.400  25.092  13.834
51121W        W17662  22.699  27.648  11.991
51122W        W17663  41.289  20.523   0.923
51123W        W17664  29.021  21.652  11.809
51124W        W17665  20.695  13.121   4.586
51125W        W17666  24.630   8.598   0.887
51126W        W17667  22.222  30.588   1.514
51127W        W17668  39.834  21.118   4.637
51128W        W17669  30.392  35.078  10.846
51129W        W17670  19.886  13.146   2.297
51130W        W17671   2.772  30.417  14.463
51131W        W17672  38.387  39.697   2.382
51132W        W17673  19.246  23.569   3.226
51133W        W17674   9.420   4.945   1.798
51134W        W17675  10.668  34.314  11.758
51135W        W17676  17.033  26.972  12.556
51136W        W17677  30.669  16.676  14.613
51137W        W17678  37.901  39.578  11.171
51138W        W17679   0.096  39.545   0.986
51139W        W17680  26.934  12.204   3.700
51140W        W17681  21.629  35.687   0.475
51141W        W17682  20.646  27.435  14.870
51142W        W17683  44.888  27.173   0.599
51143W        W17684   9.125  33.251  10.768
51144W        W17685  43.820   8.250   2.742
51145W        W17686  37.550  18.986   3.096
51146W        W17687  20.701  12.833   2.487
51147W        W17688  22.214  44.454   5.021
51148W        W17689  37.424   9.656  11.122
51149W        W17690  26.632  20.117  13.876
51150W        W17691  14.811   4.404  11.570
51151W        W17692   5.246  30.062  10.686
51152W        W17693  20.509   6.654   2.299
51153W        W17694  33.586  18.289   0.368
51154W        W17695  13.255  39.364  11.068
51155W        W17696  35.660  13.206   2.833
51156W        W17697   7.807  12.549   1.858
51157W        W17698   9.776  33.122   2.395
51158W        W17699  16.842  28.871  12.006
51159W        W17700   9.605   0.572  14.249
51160W        W17701  41.510  35.985  10.666
51161W        W17702  38.384  39.078   4.271
51162W        W17703   1.463  21.076  11.920
51163W        W17704   1.439  19.708   1.442
51164W        W17705   7.420   3.447   2.785
51165W        W17706  21.581  18.770  12.189
51166W        W17707  27.436  34.566   4.554
51167W        W17708  35.888  24.901   0.986
51168W        W17709  40.235  11.093  12.432
51169W        W17710  17.629  31.510  13.287
51170W        W17711  41.438  29.267  13.343
51171W        W17712  41.510  39.848   4.737
51172W        W17713  39.370  15.840   0.766
51173W        W17714  23.684  18.143  10.441
51174W        W17715  24.447  16.193  11.527
51175W        W17716  32.570  20.653   3.097
51176W        W17717  41.183  27.429  12.080
51177W        W17718   2.058   6.583  13.847
51178W        W17719  18.537   6.497  14.133
51179W        W17720  43.765  31.048  14.477
51180W        W17721  40.339  19.803   2.090
51181W        W17722  20.135  19.304   0.034
51182W        W17723  44.563  31.608   4.125
51183W        W17724  42.519  23.678  14.113
51184W        W17725  30.178   0.761   3.203
51185W        W17726  41.037  27.980  14.291
51186W        W17727  30.175  18.088  14.191
51187W        W17728  34.622  11.910  11.650
51188W        W17729  20.799   1.783   4.490
51189W        W17730   8.636  25.054   4.261
51190W        W17731   9.901  13.985  14.302
51191W        W17732  18.276  25.083   0.453
51192W        W17733   4.872  33.502   0.360
51193W        W17734  32.891  18.990   3.269
51194W        W17735  36.402  29.920   0.606
51195W        W17736   8.320  10.293  12.581
51196W        W17737  33.423   3.239  12.444
51197W        W17738  33.632  13.135  13.555
51198W        W17739  32.082  24.740  12.054
51199W        W17740  25.477  36.562   4.840
51200W        W17741  38.452   9.298  10.610
51201W        W17742  18.986  42.213   1.192
51202W        W17743  11.347  18.746  14.596
51203W        W17744   9.424  29.037  13.326
51204W        W17745   8.653  12.787   3.798
51205W        W17746  28.849  19.753   1.077
51206W        W17747  38.688   0.825  12.881
51207W        W17748  43.381  15.760  14.828
51208W        W17749  34.605  33.948  13.560
51209W        W17750  26.612  20.845   2.255
51210W        W17751  10.416  12.152  10.605
51211W        W17752   2.282  42.890   0.773
51212W        W17753  18.729   3.458  12.650
51213W        W17754   8.784  10.859   1.307
51214W        W17755   8.076   1.811   4.486
51215W        W17756   8.935  39.276  13.068
51216W        W17757  24.530  21.254   2.180
51217W        W17758  41.258  37.454   3.586
51218W        W17759  24.342  37.851  12.448
51219W        W17760  17.351  33.144  13.292
51220W        W17761  21.043  40.497   2.838
51221W        W17762  20.467  11.253  14.308
51222W        W17763  29.371  19.144  12.573
51223W        W17764   7.752  21.603   3.723
51224W        W17765  27.034  32.471   1.124
51225W        W17766  27.786  29.392  11.976
51226W        W17767   3.040   0.013   3.117
51227W        W17768  29.083  39.021   3.097
51228W        W17769  14.150   7.242   2.185
51229W        W17770   0.825  42.851  14.485
51230W        W17771  33.176  41.327   3.128
51231W        W17772  32.103  44.691  14.555
51232W        W17773  40.529   2.968  13.468
51233W        W17774   2.926   8.893  10.979
51234W        W17775  18.559  28.009  14.410
51235W        W17776  38.870  33.677   0.788
51236W        W17777  17.575   2.096  13.113
51237W        W17778   8.720  11.459   4.568
51238W        W17779  30.433  20.879  12.964
51239W        W17780  25.531  34.203  10.691
51240W        W17781  34.272  32.039  13.767
51241W        W17782  28.517  36.597  13.408
51242W        W17783  40.765   4.338   2.183
51243W        W17784  16.119  24.272   0.452
51244W        W17785  33.704  32.909   3.668
51245W        W17786  34.441  42.467   4.934
51246W        W17787  12.847  12.035   4.454
51247W        W17788  27.362   6.627   2.253
51248W        W17789  30.171  35.847  13.386
51249W        W17790   2.004  38.405   3.290
51250W        W17791   4.626  23.365  10.965
51251W        W17792  41.822   2.288   0.330
51252W        W17793  42.471  21.643   1.893
51253W        W17794  36.664  41.532   3.334
51254W        W17795   1.868   2.848   0.433
51255W        W17796  24.690   9.169  12.012
51256W        W17797  40.145   0.720   0.489
51257W        W17798  35.177  17.720   2.232
51258W        W17799  23.521  12.940  10.434
51259W        W17800  30.049  44.821  13.105
51260W        W17801  27.566  11.550  13.413
51261W        W17802   2.356  31.100   1.242
51262W        W17803   0.838   5.993  11.700
51263W        W17804  40.902  13.116   2.636
51264W        W17805  17.323  10.843  14.453
51265W        W17806  36.600  22.187  13.952
51266W        W17807  41.905   1.742   2.171
51267W        W17808  20.646  10.262   2.964
51268W        W17809  34.448   2.818   4.508
51269W        W17810  29.997   7.583   3.667
51270W        W17811  37.014  21.564  13.474
51271W        W17812  40.953  31.687  13.916
51272W        W17813  25.201   3.762   1.357
51273W        W17814  11.309  31.879  14.892
51274W        W17815  20.423  28.492   3.259
51275W        W17816  38.376  18.570  14.805
51276W        W17817  11.545  17.960   2.282
51277W        W17818  16.846  27.464  11.773
51278W        W17819   7.454  18.237   0.063
51279W        W17820  38.992  15.976   2.713
51280W        W17821  30.717  13.866   4.657
51281W        W17822  17.498  19.088  14.406
51282W        W17823  44.238  33.402  12.855
51283W        W17824  44.048  12.825   4.220
51284W        W17825  18.637   5.797   2.810
51285W        W17826  10.521  33.412  13.407
51286W        W17827   9.404  17.121   0.615
51287W        W17828  18.097  10.944   1.697
51288W        W17829  13.799  37.157   1.804
51289W        W17830  31.921  22.389  10.826
51290W        W17831   1.796  19.694  13.841
51291W        W17832  38.035  35.361   4.461
51292W        W17833  43.807  35.551  11.544
51293W        W17834  40.803  29.607   3.629
51294W        W17835  32.984  15.497  11.751
51295W        W17836  16.132  15.319   4.523
51296W        W17837  16.750  34.085   3.655
51297W        W17838  12.709  29.699  14.104
51298W        W17839  23.393   0.317  13.355
51299W        W17840  19.382  15.409  12.819
51300W        W17841  35.876   5.755   4.302
51301W        W17842  37.504  20.216  13.959
51302W        W17843   0.805  38.856   4.786
51303W        W17844  38.599  17.073   3.293
51304W        W17845  29.433  37.311   4.166
51305W        W17846  12.905  35.226   1.797
51306W        W17847  30.854   1.175  13.332
51307W        W17848  19.995  14.125  12.427
51308W        W17849  36.909  18.653   0.962
51309W        W17850   6.350  32.926  12.462
51310W        W17851   6.933  14.628  13.352
51311W        W17852  37.072  19.248  13.860
51312W        W17853  12.213  26.636  14.706
51313W        W17854  17.563  30.555  13.829
51314W        W17855   7.240  24.232   1.884
51315W        W17856  13.857  29.718   4.320
51316W        W17857  25.296  33.002  11.591
51317W        W17858  37.851  39.964   1.174
51318W        W17859   8.371   9.140  11.508
51319W        W17860  38.342  28.634  12.380
51320W        W17861  17.798  20.392  14.523
51321W        W17862  44.373  41.856   3.538
51322W        W17863  18.691  17.799   4.816
51323W        W17864  44.936  18.142   1.182
51324W        W17865  24.060   3.037  13.569
51325W        W17866   3.911  25.183   2.060
51326W        W17867  28.373   3.351  13.856
51327W        W17868  43.610   4.403  11.162
51328W        W17869  42.860  14.122  12.002
51329W        W17870  28.470  32.791  12.058
51330W        W17871  28.220  16.582   4.484
51331W        W17872  11.227  12.874   0.979
51332W        W17873   9.343   2.807   1.156
51333W        W17874  15.313  41.809   1.710
51334W        W17875  39.052   1.866  12.141
51335W        W17876  24.280   0.203   3.261
51336W        W17877  20.237  39.722  11.176
51337W        W17878  30.542   2.967  12.381
51338W        W17879  43.570  20.182  10.749
51339W        W17880  43.516  21.273  12.877
51340W        W17881  41.573  41.369  14.899
51341W        W17882  21.188  20.646  12.371
51342W        W17883  19.596  12.893   4.736
51343W        W17884  33.016  34.633   3.629
51344W        W17885  10.103  35.340   1.256
51345W        W17886  23.399   3.164  13.637
51346W        W17887  31.142   0.108   1.060
51347W        W17888   8.749  12.415   4.754
51348W        W17889   5.727   8.425  12.862
51349W        W17890  35.553  25.202   0.509
51350W        W17891  43.918   4.465   3.679
51351W        W17892  18.798   7.034  14.877
51352W        W17893  12.688  15.380  14.768
51353W        W17894  23.308  34.583  11.166
51354W        W17895   9.923  37.850   3.634
51355W        W17896  27.533  22.296  14.811
51356W        W17897  23.139  19.315   1.951
51357W        W17898  20.704  29.859  13.978
51358W        W17899  41.853  33.418  14.396
51359W        W17900  18.762   1.912   1.649
51360W        W17901  30.998  17.762   2.064
51361W        W17902  42.190   7.607  10.732
51362W        W17903  37.188  11.477   0.781
51363W        W17904  32.498  31.568   3.249
51364W        W17905  13.767  41.534   2.447
51365W        W17906  40.556  27.750  13.749
51366W        W17907  38.878   8.321   2.648
51367W        W17908  12.374  27.180  10.672
51368W        W17909   7.803   6.494  13.796
51369W        W17910  21.745  38.908  11.572
51370W        W17911  36.344  10.600  11.595
51371W        W17912   4.342  12.116   4.166
51372W        W17913  19.573  28.464  14.298
51373W        W17914  24.698  42.634  11.600
51374W        W17915  21.211  31.407  14.194
51375W        W17916  10.131  35.360   5.104
51376W        W17917  20.802  30.473   1.931
51377W        W17918  27.487  38.861   0.248
51378W        W17919  24.510  30.954  11.031
51379W        W17920  29.963  11.445   4.176
51380W        W17921  38.623  23.546   3.780
51381W        W17922  10.408   8.011  10.757
51382W        W17923  36.088  33.016  12.583
51383W        W17924  25.107  38.521  14.320
51384W        W17925  36.780   9.332   3.304
51385W        W17926   6.708  20.708  12.473
51386W        W17927  16.685  37.026  11.453
51387W        W17928  31.683  35.007  13.847
51388W        W17929  15.736  42.272  14.834
51389W        W17930  40.769   3.256   1.394
51390W        W17931  18.530   1.751   5.069
51391W        W17932  41.991  15.941  11.882
51392W        W17933  19.407   7.062   4.453
51393W        W17934  40.372   4.501  14.396
51394W        W17935  33.419  42.008  14.262
51395W        W17936   7.791  42.855  13.434
51396W        W17937  38.558  36.889   1.401
51397W        W17938  28.004  29.764  11.403
51398W        W17939  36.459  34.544  13.069
51399W        W17940  13.732  14.846  11.994
51400W        W17941   3.283  14.699  11.223
51401W        W17942  29.388  22.461   4.770
51402W        W17943  27.031  28.560   0.214
51403W        W17944   8.656   3.663   0.859
51404W        W17945  22.984  34.891  14.310
51405W        W17946   2.959  41.193  12.494
51406W        W17947   2.473   5.509   4.160
51407W        W17948  38.141   1.070   2.288
51408W        W17949  32.608  10.362  13.440
51409W        W17950  29.753  37.525  11.347
51410W        W17951  42.365  16.948  12.729
51411W        W17952   2.346  22.958   2.117
51412W        W17953  20.224  24.232   4.636
51413W        W17954  40.848  36.883  10.642
51414W        W17955  34.003  39.256   0.519
51415W        W17956  10.133   9.361   0.827
51416W        W17957  14.253  36.582  11.841
51417W        W17958  14.879  42.348  11.491
51418W        W17959  21.749  24.236   3.236
51419W        W17960  13.453   8.760  13.075
51420W        W17961  16.157  15.611   3.121
51421W        W17962  30.327  42.558   1.187
51422W        W17963  42.833  34.465   4.441
51423W        W17964  41.045  33.994   3.153
51424W        W17965   5.345   3.437   1.743
51425W        W17966  14.875  30.489   5.113
51426W        W17967  31.685  21.769   1.996
51427W        W17968  36.742   8.632   4.579
51428W        W17969  29.663  12.354   0.058
51429W        W17970   3.419  30.574   4.185
51430W        W17971   3.211  36.603  13.355
51431W        W17972   3.628  15.016  11.011
51432W        W17973   3.789  40.936  10.405
51433W        W17974   8.736  21.227  10.796
51434W        W17975  32.478  42.768   1.275
51435W        W17976  18.253  19.123   2.872
51436W        W17977  18.093  40.854   4.608
51437W        W17978  37.033  23.624   1.584
51438W        W17979  18.316  37.048   0.301
51439W        W17980   6.248   1.462  11.813
51440W        W17981  20.630  14.891  12.136
51441W        W17982   0.211   0.306   3.614
51442W        W17983  19.799  42.329  13.548
51443W        W17984   1.701   9.264  13.307
51444W        W17985  31.425  33.057  14.874
51445W        W17986  21.066  27.014   2.255
51446W        W17987  17.459  38.127  14.727
51447W        W17988  33.846  33.751  10.945
51448W        W17989  27.279  32.102   0.847
51449W        W17990  39.452  34.592  11.266
51450W        W17991  36.308  42.475  11.678
51451W        W17992  44.230  19.655   4.331
51452W        W17993  25.246  27.763  14.551
51453W        W17994  41.854  20.234   0.260
51454W        W17995  23.663  37.965  11.679
51455W        W17996  34.411  34.496   3.114
51456W        W17997  10.702  44.331   3.413
51457W        W17998  41.360   7.454  10.790
51458W        W17999  10.986   3.399   1.598
51459W        W18000  38.523  40.833  13.812
51460W        W18001  20.587  27.586   4.868
51461W        W18002  13.095  36.811   1.295
51462W        W18003  19.782  17.773  12.328
51463W        W18004  36.043   3.938   4.578
51464W        W18005  38.858  19.074   3.926
51465W        W18006  29.724   9.474   2.319
51466W        W18007  16.115  32.888  13.848
51467W        W18008  42.766   6.629  14.907
51468W        W18009  44.198  19.799   4.945
51469W        W18010   8.283  27.614   3.195
51470W        W18011  21.103  22.646  11.457
51471W        W18012  41.208  24.204  11.586
51472W        W18013  16.368   9.083  11.101
51473W        W18014  35.892   0.237  12.894
51474W        W18015  38.552   7.569  14.314
51475W        W18016  23.145  24.652  12.501
51476W        W18017  23.189  33.389  14.109
51477W        W18018   3.732  26.096  14.180
51478W        W18019  19.452  17.282  14.978
51479W        W18020  29.017   0.779  12.334
51480W        W18021  35.173  14.372  12.941
51481W        W18022  29.464  15.807  12.653
51482W        W18023  12.614  23.030  13.572
51483W        W18024  13.173  18.517  11.051
51484W        W18025  21.685  27.433   0.425
51485W        W18026  35.892  43.275  11.823
51486W        W18027   9.774  12.737  12.868
51487W        W18028  10.756  18.798   2.808
51488W        W18029   4.682  19.129  11.482
51489W        W18030   5.971  44.512   3.662
51490W        W18031  33.489   6.440  12.629
51491W        W18032  35.381   2.375   2.856
51492W        W18033  15.371   3.409  11.544
51493W        W18034  35.900  26.185   4.517
51494W        W18035  12.642  19.171  14.951
51495W        W18036  20.941   6.831   4.631
51496W        W18037  10.247   3.153   0.393
51497W        W18038   8.277  23.924  12.795
51498W        W18039   6.462  25.505  13.743
51499W        W18040  22.615  12.907  13.392
51500W        W18041  17.200  29.833   0.923
51501W        W18042  27.764  14.630   4.213
51502W        W18043  28.622  34.170   0.964
51503W        W18044  20.324  21.158  11.945
51504W        W18045  26.950  20.018   3.971
51505W        W18046  38.889  35.916   0.898
51506W        W18047  30.924  27.752   1.426
51507W        W18048  27.925  19.288   1.372
51508W        W18049  42.546   6.637  13.323
51509W        W18050  24.562  24.123  10.648
51510W        W18051  38.059  16.329  12.520
51511W        W18052   5.014  36.160  12.092
51512W        W18053   8.206  21.748   2.395
51513W        W18054  44.223   5.347  14.550
51514W        W18055   4.827  21.751  12.291
51515W        W18056  27.974   9.149  10.560
51516W        W18057  28.532  23.620  12.371
51517W        W18058  13.028  18.716   3.258
51518W        W18059  17.664  41.969  11.714
51519W        W18060  23.067  35.562  11.278
51520W        W18061  22.695  25.610   3.022
51521W        W18062  17.628   4.905  13.491
51522W        W18063  40.660   7.407   9.913
51523W        W18064   3.782  18.377  11.678
51524W        W18065   8.016  23.621   0.794
51525W        W18066  40.415  44.774  11.064
51526W        W18067  43.438  35.194  15.000
51527W        W18068   6.441   2.907   9.815
51528W        W18069  44.712  29.009   1.136
51529W        W18070   6.841  10.485   3.248
51530W        W18071  35.998   3.526   4.109
51531W        W18072  20.341  36.614  13.897
51532W        W18073  34.358  36.151   3.709
51533W        W18074  19.258  30.090  13.720
51534W        W18075  23.363  22.659   1.781
51535W        W18076  44.848  12.492   3.503
51536W        W18077  26.569   7.369   3.112
51537W        W18078  34.857  30.701  11.452
51538W        W18079   9.934   7.820  12.610
51539W        W18080   2.527  42.334   1.936
51540W        W18081  44.835  42.810  14.281
51541W        W18082  40.602  27.253   1.353
51542W        W18083  37.434   3.525   9.767
51543W        W18084  12.172  41.031  12.373
51544W        W18085  17.201  42.030  11.546
51545W        W18086  34.558   9.698  14.202
51546W        W18087  12.832   8.402  11.131
51547W        W18088  37.588  36.129   4.689
51548W        W18089  37.085  13.885   4.087
51549W        W18090  21.027   2.419  12.906
51550W        W18091  30.952  44.798  10.246
51551W        W18092  16.823   2.347   3.123
51552W        W18093  28.948  18.425   0.896
51553W        W18094  31.650  33.374  13.925
51554W        W18095  14.831  32.118   1.819
51555W        W18096  18.126   8.189  10.823
51556W        W18097  15.717  22.387   1.172
51557W        W18098  15.690   4.418  13.387
51558W        W18099  42.936  30.957  10.544
51559W        W18100  36.529  41.902   2.650
51560W        W18101  38.006   7.666  12.494
51561W        W18102  40.564   5.263   2.227
51562W        W18103  20.698  15.587   4.054
51563W        W18104  29.171   2.442  14.874
51564W        W18105  43.888   2.484   3.616
51565W        W18106   4.833  10.609   1.865
51566W        W18107  19.195  36.123   2.228
51567W        W18108  17.853  27.017   2.270
51568W        W18109  27.697  33.676  12.412
51569W        W18110  10.876   6.117  12.954
51570W        W18111   2.078  27.072   1.268
51571W        W18112  25.496  27.628  12.397
51572W        W18113  31.218  13.237   0.954
51573W        W18114  20.827  20.971  11.615
51574W        W18115  22.254  23.684   3.812
51575W        W18116   5.939   3.209  10.584
51576W        W18117   7.304  34.673  10.852
51577W        W18118  18.230  19.682  14.860
51578W        W18119  17.065  20.929  14.245
51579W        W18120  29.068  12.214  11.256
51580W        W18121  43.611  21.274  10.040
51581W        W18122   0.957   0.410   4.093
51582W        W18123  15.726   4.180  14.862
51583W        W18124   2.475  40.889   2.920
51584W        W18125  10.710  22.699  13.582
51585W        W18126  21.717  40.364  11.505
51586W        W18127   3.894  38.362  13.492
51587W        W18128  40.267  36.512   3.687
51588W        W18129  39.436  35.049   0.905
51589W        W18130   2.761  15.609   4.845
51590W        W18131   5.920  26.951   3.259
51591W        W18132  36.809   5.393   2.742
51592W        W18133   3.322   2.937   1.849
51593W        W18134  22.520   6.087   0.667
51594W        W18135  15.714  14.714   4.931
51595W        W18136  19.695  35.192   2.212
51596W        W18137  41.648  12.677   4.852
51597W        W18138  18.602  31.149  10.613
51598W        W18139  18.470  14.581   3.900
51599W        W18140   6.895  16.216   2.389
51600W        W18141  38.377  29.705  11.477
51601W        W18142  33.369  41.753   1.636
51602W        W18143  31.759   7.233   2.478
51603W        W18144  24.992  20.441   0.468
51604W        W18145  36.914  44.550  12.659
51605W        W18146  28.665   0.723  14.537
51606W        W18147   4.184  31.962   1.781
51607W        W18148  44.307  21.750   2.114
51608W        W18149   5.490  16.493   3.333
51609W        W18150  10.666  28.173   3.263
51610W        W18151   4.169  42.368  13.997
51611W        W18152  18.990  17.229   1.844
51612W        W18153  34.141  34.573  10.846
51613W        W18154  32.845  20.455   0.583
51614W        W18155  26.555   4.677  14.755
51615W        W18156  39.087  15.779  14.394
51616W        W18157  20.204  10.979   4.941
51617W        W18158  34.560   0.514  13.564
51618W        W18159  16.487  21.613   3.661
51619W        W18160   7.311   9.900   0.514
51620W        W18161  42.987  18.213   0.852
51621W        W18162  38.918  23.148   3.602
51622W        W18163  30.632   5.409  11.756
51623W        W18164  44.768  44.276   4.607
51624W        W18165  22.120  37.814   4.551
51625W        W18166  15.796  41.334  11.592
51626W        W18167   5.203  37.392   4.093
51627W        W18168  40.895  13.592   2.839
51628W        W18169  39.157  25.574  11.844
51629W        W18170  36.587   1.704  11.996
51630W        W18171  28.021  10.504   2.876
51631W        W18172  42.290  44.725  10.711
51632W        W18173  12.102  41.206  13.415
51633W        W18174  28.385  28.686  10.804
51634W        W18175  32.197   7.848  13.626
51635W        W18176   9.164   6.063   1.340
51636W        W18177   0.298  17.049   4.067
51637W        W18178  28.309  14.075  10.268
51638W        W18179   2.650  17.207   0.001
51639W        W18180   5.255  16.719   2.678
51640W        W18181   7.440  34.357  12.275
51641W        W18182   6.803  44.864   2.763
51642W        W18183   9.896   3.216   4.312
51643W        W18184   1.754  42.679   0.729
51644W        W18185  14.690  40.026  11.189
51645W        W18186   2.786  15.532   3.449
51646W        W18187  12.293  31.087   3.291
51647W        W18188  31.094   8.274  12.037
51648W        W18189  34.973  19.031  11.949
51649W        W18190  35.475  34.307  14.270
51650W        W18191  43.066  34.444  12.573
51651W        W18192  15.870  29.148  14.448
51652W        W18193   3.761   1.112   2.691
51653W        W18194  18.176  17.763   4.786
51654W        W18195  21.082  36.358   0.260
51655W        W18196  28.582  11.237  10.902
51656W        W18197  25.370  19.143   3.698
51657W        W18198   2.990  11.857   3.550
51658W        W18199   2.614  22.046   3.585
51659W        W18200  29.416  38.545  13.558
51660W        W18201  23.511  29.497   0.249
51661W        W18202  32.193  37.582  11.105
51662W        W18203  29.021  31.503   3.311
51663W        W18204  17.247  33.506   4.232
51664W        W18205   7.217  29.873  14.307
51665W        W18206  40.972  24.841  11.733
51666W        W18207   2.451   5.724   0.997
51667W        W18208  40.788  39.378  10.753
51668W        W18209   3.327  31.701  14.389
51669W        W18210  17.411  15.851   4.767
51670W        W18211  18.414  23.979   4.124
51671W        W18212  31.637  12.613   2.783
51672W        W18213   1.721  23.908   3.501
51673W        W18214   1.644  12.542  11.183
51674W        W18215  22.251  20.574   1.628
51675W        W18216   6.776  18.207   0.773
51676W        W18217  38.374   3.058   0.702
51677W        W18218  22.225   4.023   2.799
51678W        W18219  29.234  13.256  12.149
51679W        W18220   5.163   0.283  11.120
51680W        W18221   5.101  24.126  14.907
51681W        W18222  12.092  34.585   3.998
51682W        W18223   0.315  16.881  13.406
51683W        W18224   2.698   0.264   3.915
51684W        W18225  26.148  18.070   2.920
51685W        W18226  33.836  32.992  14.462
51686W        W18227  15.547  44.967   2.871
51687W        W18228   0.833  25.584   3.159
51688W        W18229   7.292  44.270  12.622
51689W        W18230  27.186   5.680   3.093
51690W        W18231  15.351  27.025   4.088
51691W        W18232  33.408  27.722  10.554
51692W        W18233   9.292   6.106  11.663
51693W        W18234  31.516  13.857  12.841
51694W        W18235  22.089  33.453  14.047
51695W        W18236  26.006  42.534  12.879
51696W        W18237  29.654  27.659   2.225
51697W        W18238  44.247  34.966   2.826
51698W        W18239  36.104  27.086  11.645
51699W        W18240  10.684  29.471  10.544
51700W        W18241   8.600  18.206   0.834
51701W        W18242   0.440   2.088   9.781
51702W        W18243  23.633  32.022  10.011
51703W        W18244  11.409  28.434   3.799
51704W        W18245   9.082  35.691   4.935
51705W        W18246  19.283  26.494   2.223
51706W        W18247  20.461  14.077  11.655
51707W        W18248  22.599   0.574   0.810
51708W        W18249  36.007  19.091  14.353
51709W        W18250  11.493  18.159   1.219
51710W        W18251  34.379  30.257   2.584
51711W        W18252  31.535  39.982  10.972
51712W        W18253  37.106  27.881  11.994
51713W        W18254   0.343  10.396   2.314
51714W        W18255  17.315  24.180  12.946
51715W        W18256  10.450  33.945   4.059
51716W        W18257   8.671   5.829   0.387
51717W        W18258  29.101  22.158  11.625
51718W        W18259  42.460  17.461  12.728
51719W        W18260  18.577   1.223   3.030
51720W        W18261  29.088  39.006  14.354
51721W        W18262  29.956  22.941   4.076
51722W        W18263  24.939   3.647   0.882
51723W        W18264  25.779   7.263  10.012
51724W        W18265  31.664  11.502   4.993
51725W        W18266  32.360  14.533  12.996
51726W        W18267  25.492  44.231  13.904
51727W        W18268  27.147  21.664  10.726
51728W        W18269  43.848  28.522  12.773
51729W        W18270  38.951  23.625  13.011
51730W        W18271  43.173  15.582   1.514
51731W        W18272  42.063  12.594  11.637
51732W        W18273  26.987  41.460  11.012
51733W        W18274   0.684   7.171  10.115
51734W        W18275  39.589  10.785   1.696
51735W        W18276  44.950  32.754   0.427
51736W        W18277   4.742   3.854   0.843
51737W        W18278  43.421  39.987   0.419
51738W        W18279  40.083  44.366  12.768
51739W        W18280  19.453   8.456  11.141
51740W        W18281  37.623  30.654  13.921
51741W        W18282  38.643  36.994   4.400
51742W        W18283  29.192  26.139   4.459
51743W        W18284  25.626  44.712   3.220
51744W        W18285  24.023   8.704   2.708
51745W        W18286  10.544  41.383   4.109
51746W        W18287   9.196   7.191  10.536
51747W        W18288  26.004  18.821  13.863
51748W        W18289  27.795  32.538  13.731
51749W        W18290  26.085   1.029   3.409
51750W        W18291  40.329   4.877  12.083
51751W        W18292  25.218  17.127   0.459
51752W        W18293  31.381  10.602   3.050
51753W        W18294  29.594  16.063   2.376
51754W        W18295  14.131  32.697   4.604
51755W        W18296   1.833   5.304   0.615
51756W        W18297  35.574   0.118   1.179
51757W        W18298  20.076   6.642   9.937
51758W        W18299   5.646  24.948   1.283
51759W        W18300  32.034  43.369   3.223
51760W        W18301  23.188  28.705   3.516
51761W        W18302  33.882  41.594   3.525
51762W        W18303  21.569   4.470   1.331
51763W        W18304  20.578  36.053   2.782
51764W        W18305  27.588  10.450  10.855
51765W        W18306  25.178  40.496  13.326
51766W        W18307  35.015   6.302  12.421
51767W        W18308  17.273  42.772  12.064
51768W        W18309  38.367  13.400  11.203
51769W        W18310   6.314  14.796  10.640
51770W        W18311  21.261   2.029   1.747
51771W        W18312  32.993   4.742  11.122
51772W        W18313  10.397  41.433  13.833
51773W        W18314  37.528   8.365  13.300
51774W        W18315   0.343  30.803   4.774
51775W        W18316  33.818  38.338   0.240
51776W        W18317  15.768  35.109   1.974
51777W        W18318  37.282   7.596  12.084
51778W        W18319  21.302  24.651  14.732
51779W        W18320   4.201   0.522  13.878
51780W        W18321  21.975  43.984   2.372
51781W        W18322  35.809  21.565   2.777
51782W        W18323  44.809  40.443  12.654
51783W        W18324  30.330  16.305   2.796
51784W        W18325  15.721  31.841   3.611
51785W        W18326  42.538  42.854   4.285
51786W        W18327  31.840  43.437  14.062
51787W        W18328   6.770  12.528  11.142
51788W        W18329   5.714   2.107  11.622
51789W        W18330  41.479  11.250  10.988
51790W        W18331  11.131  14.331   3.854
51791W        W18332  26.730  30.025  14.418
51792W        W18333  41.437  24.022   4.144
51793W        W18334   4.683   9.291   0.138
51794W        W18335  22.506  35.119   0.937
51795W        W18336  10.191  28.435  11.163
51796W        W18337   2.601  33.634  10.287
51797W        W18338  18.631  40.549  13.138
51798W        W18339  16.195  44.818  14.595
51799W        W18340   4.712  26.695  10.059
51800W        W18341  31.044  37.391   2.263
51801W        W18342  40.794  38.424  10.741
51802W        W18343  28.009   7.217   2.811
51803W        W18344  27.526  12.519   5.446
51804W        W18345  34.944  23.563  11.214
51805W        W18346  29.217  44.332  11.642
51806W        W18347  12.625  40.881  13.842
51807W        W18348  39.349  12.604   0.800
51808W        W18349   7.111  35.568   1.223
51809W        W18350  40.990  15.332   4.271
51810W        W18351  36.517  41.713  10.720
51811W        W18352   3.189  30.165   2.625
51812W        W18353  31.090  26.689  13.306
51813W        W18354  25.816  17.705   2.674
51814W        W18355  44.638  30.266  14.379
51815W        W18356   8.009   7.231  11.600
51816W        W18357  44.795  31.467  11.604
51817W        W18358  27.123   0.328   2.832
51818W        W18359  16.627  40.080   0.357
51819W        W18360  20.562  41.088  11.161
51820W        W18361  41.951  22.352  11.635
51821W        W18362  31.435   1.462  11.463
51822W        W18363  43.705  24.081   0.789
51823W        W18364  12.144   3.289  14.345
51824W        W18365   2.115  37.984   1.421
51825W        W18366  38.580  31.255  12.176
51826W        W18367  12.573  14.383  11.529
51827W        W18368  13.228  26.681   1.714
51828W        W18369   1.505   9.186   0.226
51829W        W18370  17.334   6.366  13.045
51830W        W18371  22.121  20.218   2.943
51831W        W18372  24.616  42.981  12.974
51832W        W18373  36.649  33.109   1.686
51833W        W18374  36.100  13.963   1.363
51834W        W18375  24.005   5.849  11.586
51835W        W18376  42.034  25.028   4.413
51836W        W18377  44.397  33.063   4.144
51837W        W18378  15.698   3.886  12.132
51838W        W18379   0.856  37.011  12.381
51839W        W18380  35.657  40.473  10.696
51840W        W18381   5.889  38.017  11.709
51841W        W18382   9.258   1.316   4.998
51842W        W18383   0.001  27.313  10.808
51843W        W18384  10.366  27.063  11.982
51844W        W18385  20.677   1.399  13.354
51845W        W18386   0.334  35.330   4.626
51846W        W18387   2.467  11.927   4.174
51847W        W18388  38.933  33.196   4.128
51848W        W18389  19.407   2.696   4.095
51849W        W18390   3.983  37.429   0.452
51850W        W18391   5.331   8.879  12.046
51851W        W18392  19.549  19.612   0.785
51852W        W18393   0.225   0.844   0.448
51853W        W18394   5.877  42.458  14.554
51854W        W18395  25.661  34.104   0.444
51855W        W18396  43.716   3.494  13.885
51856W        W18397   7.768  15.245   2.634
51857W        W18398  24.534   4.262  10.720
51858W        W18399   1.614  33.442  10.212
51859W        W18400  35.718   7.194  11.118
51860W        W18401  31.122  20.319  14.037
51861W        W18402  19.023  13.183   4.534
51862W        W18403  39.826  13.285  14.540
51863W        W18404  12.340  32.600   1.376
51864W        W18405  24.687  20.794   1.214
51865W        W18406  38.955  40.212  11.737
51866W        W18407  13.421   6.642   0.964
51867W        W18408  37.266  25.225  13.411
51868W        W18409  28.720  16.139   0.741
51869W        W18410  38.853   6.713  14.423
51870W        W18411  26.115  20.486   4.208
51871W        W18412  41.949  17.282  13.518
51872W        W18413  44.037  34.478   1.853
51873W        W18414   0.951  44.923   2.291
51874W        W18415  13.810  23.502  12.914
51875W        W18416  39.456  19.243   4.595
51876W        W18417  21.613   0.497  11.866
51877W        W18418   9.377  29.916  13.364
51878W        W18419   0.542  34.385   1.705
51879W        W18420  30.907  37.891   2.393
51880W        W18421   0.931  37.617   0.836
51881W        W18422  10.821   2.923   1.753
51882W        W18423  18.517  30.398   2.408
51883W        W18424  26.760  14.712   2.014
51884W        W18425  10.390   0.612   3.224
51885W        W18426  28.030  19.866   4.063
51886W        W18427   2.873   1.515  13.036
51887W        W18428   7.625   5.224  14.360
51888W        W18429  42.598  11.166   3.769
51889W        W18430  10.381  42.974   2.378
51890W        W18431  26.528  17.708  13.947
51891W        W18432  31.918  34.739   4.627
51892W        W18433  36.009  20.173   3.223
51893W        W18434  29.584  16.816  13.482
51894W        W18435  14.783   5.051  12.685
51895W        W18436  11.615  19.142   4.158
51896W        W18437   0.708  12.164   0.034
51897W        W18438  39.484  10.459  14.358
51898W        W18439  24.043  13.106  11.240
51899W        W18440   0.681  24.011  11.160
51900W        W18441  36.005  31.861  13.898
51901W        W18442  37.041  37.449  11.173
51902W        W18443  11.347  14.700  13.582
51903W        W18444  24.581  21.964  13.058
51904W        W18445  43.184  24.465   3.776
51905W        W18446  33.159   4.815   2.740
51906W        W18447   9.702  12.682   1.750
51907W        W18448  12.056  25.423  12.468
51908W        W18449  18.658  27.450   4.648
51909W        W18450  34.860  43.360   0.063
51910W        W18451  39.918  44.570  11.801
51911W        W18452  34.640  20.050   3.777
51912W        W18453  21.776  23.599   1.839
51913W        W18454  39.717   1.972   0.835
51914W        W18455   3.721   0.340  13.969
51915W        W18456   4.467  35.315   1.329
51916W        W18457  40.271  31.137  14.310
51917W        W18458  32.931  18.687   0.890
51918W        W18459  38.129  22.634  10.242
51919W        W18460  28.217  40.956  13.878
51920W        W18461  32.378   1.284   2.683
51921W        W18462  31.122  30.578   0.327
51922W        W18463  27.801  26.939  10.347
51923W        W18464  22.125  21.790  11.443
51924W        W18465   7.811  33.869   3.205
51925W        W18466  11.268  28.641   2.676
51926W        W18467  39.497  43.795  13.023
51927W        W18468  23.183  11.755   3.645
51928W        W18469  18.733  23.207   3.804
51929W        W18470   9.959   9.425  14.414
51930W        W18471   5.715  38.529   2.888
51931W        W18472  35.194  43.579   4.125
51932W        W18473  24.476  39.530   2.800
51933W        W18474  14.356  17.115   0.289
51934W        W18475  11.686  22.544  10.690
51935W        W18476   1.460  21.197  13.338
51936W        W18477  22.492  27.500   0.038
51937W        W18478   3.716  43.388   3.917
51938W        W18479  39.980   0.936   3.176
51939W        W18480  44.843  20.094  13.191
51940W        W18481  23.242  39.415  11.401
51941W        W18482  41.021   4.551   3.687
51942W        W18483  31.376  20.286   2.367
51943W        W18484  38.850   4.439  12.411
51944W        W18485  36.467  28.869   1.409
51945W        W18486  12.009  18.073  10.169
51946W        W18487  25.677  21.228  12.962
51947W        W18488  34.994  35.734  11.109
51948W        W18489  40.109  30.333   2.152
51949W        W18490  21.827   0.078   3.924
51950W        W18491  22.842   0.913   3.208
51951W        W18492   1.823  34.045   4.228
51952W        W18493   6.466  24.238   2.301
51953W        W18494  17.938   0.870   1.613
51954W        W18495  34.705  39.927   0.408
51955W        W18496  44.574  18.754   2.503
51956W        W18497  33.538  14.241  13.334
51957W        W18498  27.215  37.174  13.730
51958W        W18499  18.020  26.212   3.909
51959W        W18500  18.185  38.994  13.594
51960W        W18501  12.493   2.033   1.222
51961W        W18502   5.675  27.017  12.447
51962W        W18503   6.649  34.053   4.046
51963W        W18504   3.159  21.968   2.804
51964W        W18505  10.615  28.721  14.889
51965W        W18506  34.192   1.502  13.908
51966W        W18507   6.885  43.460   4.123
51967W        W18508  26.463  24.147   2.245
51968W        W18509  32.107  31.139   2.904
51969W        W18510  20.161  31.034   2.169
51970W        W18511  15.296   5.779   0.020
51971W        W18512  21.547   5.236  13.464
51972W        W18513   6.385  19.325  12.423
51973W        W18514   8.822  15.038   1.329
51974W        W18515   4.009  35.075   4.092
51975W        W18516  39.046  34.954   1.937
51976W        W18517  27.189  24.925  12.610
51977W        W18518   6.321   9.356   4.690
51978W        W18519  26.066   7.669  10.738
51979W        W18520   9.123  24.100   1.438
51980W        W18521  11.693   3.186  13.507
51981W        W18522  22.213  38.290   1.917
51982W        W18523  24.426  30.054  13.370
51983W        W18524  38.960   9.641   4.296
51984W        W18525  22.785  11.319  10.217
51985W        W18526  30.675  18.611   1.236
51986W        W18527   2.719  30.358   2.750
51987W        W18528  19.004  19.579  13.566
51988W        W18529  41.818  34.964   2.114
51989W        W18530  36.512  39.047   2.657
51990W        W18531  42.984  17.509   0.570
51991W        W18532  33.388   9.883  14.974
51992W        W18533   1.574  37.353  13.800
51993W        W18534  39.078  34.559   2.666
51994W        W18535  36.570  11.913   4.702
51995W        W18536   2.858  44.521  11.042
51996W        W18537  14.253  13.039  12.309
51997W        W18538  42.027   4.547   1.556
51998W        W18539  42.868  39.385  13.930
51999W        W18540  37.963   6.351   4.271
52000W        W18541   7.715  17.677  11.005
52001W        W18542  23.374  10.971  14.901
52002W        W18543  13.619  32.722  13.328
52003W        W18544  33.383   6.106   4.819
52004W        W18545   5.987  35.964  12.029
52005W        W18546  29.009  26.047   2.163
52006W        W18547  31.444  32.360  10.970
52007W        W18548  23.048   6.209   2.748
52008W        W18549  35.529  22.808  11.617
52009W        W18550  36.517  34.809  12.593
52010W        W18551  32.633  27.873  11.610
52011W        W18552  10.259  39.993   5.019
52012W        W18553  43.678  15.622  14.277
52013W        W18554  22.938  11.851   3.203
52014W        W18555  39.871  19.261  10.776
52015W        W18556  28.387  23.277  14.415
52016W        W18557   5.604  37.421  12.433
52017W        W18558  15.594   7.873   1.950
52018W        W18559  14.801   7.832   4.809
52019W        W18560  29.834  23.020   4.567
52020W        W18561   8.921   5.360  10.258
52021W        W18562  42.823  10.242  14.418
52022W        W18563  43.010  26.701   3.378
52023W        W18564   8.061  30.525   3.397
52024W        W18565  22.634  31.604   3.593
52025W        W18566  41.175   6.866   4.092
52026W        W18567  32.548  37.814  12.016
52027W        W18568  24.533  15.735  14.774
52028W        W18569  33.070  21.123  11.067
52029W        W18570   6.835  43.491  14.801
52030W        W18571  42.438  44.839   1.817
52031W        W18572   8.866  18.083   3.867
52032W        W18573   3.561  29.016  14.403
52033W        W18574   1.336  42.858  14.481
52034W        W18575   4.152  33.957   4.312
52035W        W18576  22.516   5.247   2.246
52036W        W18577  40.239   7.734  13.972
52037W        W18578   2.954  14.344   1.081
52038W        W18579  27.358  34.481  12.527
52039W        W18580   7.724  12.366  13.814
52040W        W18581  26.926  28.400  13.736
52041W        W18582   7.105  41.425  12.477
52042W        W18583  33.486  11.263  12.046
52043W        W18584  35.382  24.416   3.269
52044W        W18585  44.421  22.057  12.977
52045W        W18586  25.332  22.119  14.986
52046W        W18587  28.711  43.979  13.400
52047W        W18588  23.064  12.335   1.807
52048W        W18589   0.993  17.617   3.194
52049W        W18590  38.254  23.824  12.946
52050W        W18591  25.620  35.849  10.564
52051W        W18592  43.283   5.230   3.140
52052W        W18593  31.544  26.452  12.006
52053W        W18594  36.681  12.504   9.741
52054W        W18595   7.614  39.020  12.075
52055W        W18596  35.813   7.652   2.369
52056W        W18597   6.820  39.080   2.358
52057W        W18598  23.564  15.109   4.495
52058W        W18599  16.011   7.459   4.059
52059W        W18600  33.669  22.545   5.047
52060W        W18601  13.405  18.878   5.059
52061W        W18602  15.257  30.833   1.824
52062W        W18603  12.888  26.674   1.296
52063W        W18604  22.160   2.454   2.270
52064W        W18605  14.911   4.431   3.626
52065W        W18606  37.390   9.411  11.697
52066W        W18607   5.916  11.517   0.901
52067W        W18608  42.335  11.227   2.379
52068W        W18609  20.551  44.412  10.984
52069W        W18610  15.660  37.802  13.669
52070W        W18611  12.075  29.002  11.684
52071W        W18612  33.195  40.242  10.531
52072W        W18613  42.327  36.147  13.656
52073W        W18614  36.004   4.062   1.508
52074W        W18615   5.361  12.275  13.909
52075W        W18616  25.623   9.850   2.751
52076W        W18617  31.489  42.820  11.538
52077W        W18618  15.689  24.953   2.677
52078W        W18619  20.248  23.972  12.071
52079W        W18620  19.973  19.274  11.554
52080W        W18621  30.582  10.196   1.794
52081W        W18622  36.337  37.523  14.266
52082W        W18623  39.307  10.379  11.448
52083W        W18624  32.965  35.981  14.432
52084W        W18625   3.354  29.435   4.154
52085W        W18626  40.374  17.795   2.081
52086W        W18627  24.402  28.387   1.693
52087W        W18628  39.421   4.995   2.381
52088W        W18629  19.192   9.315   3.713
52089W        W18630  43.053  10.879   2.281
52090W        W18631  44.391   4.209  12.442
52091W        W18632  22.384  25.435   4.703
52092W        W18633  15.393  38.831  10.861
52093W        W18634  13.254   7.989  14.322
52094W        W18635  23.071   2.417   4.082
52095W        W18636   4.241   9.766   4.105
52096W        W18637  29.717   8.101  11.433
52097W        W18638  22.594  44.936  10.979
52098W        W18639  39.443  26.783  12.401
52099W        W18640  13.829  23.967   4.587
52100W        W18641  32.644   1.287   3.983
52101W        W18642   1.879   9.354   4.233
52102W        W18643  11.268  12.645   0.490
52103W        W18644  12.404  16.563   4.031
52104W        W18645  26.973  35.783   2.199
52105W        W18646  28.081  40.287   0.813
52106W        W18647  22.178  27.627   2.706
52107W        W18648  44.482  29.610  12.611
52108W        W18649  10.367  40.507   1.299
52109W        W18650  18.303  42.456   0.963
52110W        W18651   7.755  26.714   3.202
52111W        W18652  11.253  19.160  10.956
52112W        W18653  31.955  17.296   0.141
52113W        W18654   6.013  26.296   3.627
52114W        W18655  23.012  44.467  14.824
52115W        W18656  42.012  12.139  12.874
52116W        W18657   6.177  38.134   4.578
52117W        W18658  33.673   0.423   3.741
52118W        W18659  22.187  16.222  13.921
52119W        W18660  33.081  35.412   4.671
52120W        W18661  29.954   4.448  12.886
52121W        W18662  18.217  25.553  13.567
52122W        W18663  26.278  31.226  12.780
52123W        W18664  28.831  36.539   3.314
52124W        W18665  19.038  15.090  11.621
52125W        W18666  29.082  21.077   4.667
52126W        W18667   2.718  15.261   4.468
52127W        W18668  32.130  27.006  11.567
52128W        W18669   3.875  25.501   3.706
52129W        W18670  12.865   8.694  12.427
52130W        W18671  34.938  33.150   0.286
52131W        W18672   1.115  29.988   2.317
52132W        W18673   3.413  14.208   4.923
52133W        W18674  20.222  25.641   0.657
52134W        W18675  25.715   6.600   2.826
52135W        W18676  20.218  31.334  14.254
52136W        W18677  27.784  21.360  11.405
52137W        W18678  14.648  26.693   0.255
52138W        W18679   8.883   6.973   2.658
52139W        W18680  42.454   0.838   0.405
52140W        W18681   2.764  12.139  11.458
52141W        W18682  35.709  13.712   1.642
52142W        W18683  15.008   5.866  14.589
52143W        W18684  43.363   5.157  11.746
52144W        W18685   7.991  19.119   4.633
52145W        W18686   0.224   3.395   4.977
52146W        W18687  35.474  22.266   1.700
52147W        W18688   9.217  38.599  11.416
52148W        W18689   2.123  20.043   1.207
52149W        W18690  14.658   6.176  13.911
52150W        W18691  10.368   3.264  10.419
52151W        W18692  44.954   4.316   4.599
52152W        W18693  22.988  28.635  10.686
52153W        W18694   6.233   4.076   4.093
52154W        W18695  38.925  41.817  13.969
52155W        W18696  15.522  31.544  14.721
52156W        W18697   2.786  39.414  14.344
52157W        W18698  32.528   2.706  13.477
52158W        W18699  13.334  37.927  12.391
52159W        W18700   9.723  15.830  14.563
52160W        W18701   7.252   5.339   4.630
52161W        W18702  30.017  41.440  12.352
52162W        W18703  21.742  16.682  14.758
52163W        W18704  31.095  15.083   1.465
52164W        W18705  23.084   0.373   0.646
52165W        W18706  41.764  28.630  14.405
52166W        W18707   8.137  41.227  14.372
52167W        W18708  30.718  40.214  10.804
52168W        W18709  40.155   0.514  13.753
52169W        W18710  20.660  28.021   4.586
52170W        W18711  23.904  33.955  14.359
52171W        W18712  39.513  26.412  13.324
52172W        W18713  29.978  40.610   0.247
52173W        W18714  27.139  27.534  13.831
52174W        W18715  18.230  11.738  11.607
52175W        W18716  19.984   6.532   2.332
52176W        W18717   2.359  36.633  12.051
52177W        W18718  23.278  16.278   0.289
52178W        W18719   0.241  43.679  11.617
52179W        W18720   4.785  41.845  14.413
52180W        W18721  38.646  12.859  13.281
52181W        W18722  25.212  39.075  14.468
52182W        W18723  43.081  13.766   4.724
52183W        W18724  33.841  33.359   0.989
52184W        W18725   8.693   2.260   3.148
52185W        W18726  27.180  21.921   3.742
52186W        W18727   7.615  41.447  12.451
52187W        W18728  19.719  32.676  12.474
52188W        W18729   6.853   9.148  14.973
52189W        W18730  21.135  38.571   3.343
52190W        W18731  20.163  42.791   1.100
52191W        W18732   1.385   9.168   4.106
52192W        W18733   7.835  32.588   4.802
52193W        W18734  35.124  31.356  12.534
52194W        W18735   9.214   6.137  10.677
52195W        W18736  29.176  16.397   4.425
52196W        W18737  37.123  13.404   4.241
52197W        W18738  35.987   4.457   3.586
52198W        W18739  17.110   9.196   3.392
52199W        W18740  28.586  31.355  11.906
52200W        W18741   3.193  39.646  12.302
52201W        W18742  41.546  39.969   1.297
52202W        W18743  21.659  12.460  10.703
52203W        W18744  29.203  10.007   3.418
52204W        W18745   8.251  15.708   1.864
52205W        W18746  16.903  19.836  14.778
52206W        W18747  35.956  14.553   4.585
52207W        W18748   3.302  19.431  12.156
52208W        W18749  22.457  10.348   0.322
52209W        W18750  31.669  10.191  13.966
52210W        W18751  26.054   2.501   4.137
52211W        W18752  24.849  34.409   4.940
52212W        W18753  40.710   9.278  13.104
52213W        W18754  27.185   7.789   0.864
52214W        W18755   9.833  15.585   4.199
52215W        W18756  23.585   4.253  14.478
52216W        W18757  10.227  38.117   0.961
52217W        W18758  29.479   5.445  14.801
52218W        W18759  42.807   1.604  11.084
52219W        W18760  19.786   2.174   3.248
52220W        W18761  19.007  33.946  13.565
52221W        W18762  16.584  41.539  11.125
52222W        W18763   0.179   1.455  13.814
52223W        W18764  25.216  38.001   1.422
52224W        W18765  20.332   2.869  14.689
52225W        W18766   2.331   6.727   1.984
52226W        W18767  31.579  33.243  10.413
52227W        W18768  32.410   1.294  11.138
52228W        W18769  23.926  18.574  11.146
52229W        W18770  16.017  12.798  14.768
52230W        W18771  40.434  10.317   4.006
52231W        W18772  14.617  43.655   4.542
52232W        W18773  34.635  23.213   3.327
52233W        W18774  42.169  42.989  11.141
52234W        W18775   6.290   3.968  14.025
52235W        W18776  31.317   4.911  12.858
52236W        W18777  12.698   6.933  12.650
52237W        W18778  27.322  10.590   3.645
52238W        W18779   4.282  23.770  14.729
52239W        W18780  34.668   5.442   0.871
52240W        W18781  12.857   2.426  12.402
52241W        W18782  20.545  20.270   1.208
52242W        W18783  37.474  31.148   0.462
52243W        W18784   5.721   0.324  13.995
52244W        W18785  44.617  22.608   2.608
52245W        W18786  16.532  25.675   4.520
52246W        W18787  16.009  36.466  10.626
52247W        W18788   8.366  33.080   1.406
52248W        W18789  41.064  42.479  13.318
52249W        W18790  27.368  32.061  11.476
52250W        W18791   5.245  33.039   3.566
52251W        W18792  20.335  18.023   4.182
52252W        W18793   5.785   1.814   0.752
52253W        W18794  21.836  33.580   3.812
52254W        W18795  15.022  26.423  13.443
52255W        W18796  12.871  10.384   0.453
52256W        W18797   0.172  19.521   0.793
52257W        W18798  43.461  35.927   0.705
52258W        W18799   2.701  25.935  12.646
52259W        W18800   1.364  38.118  12.013
52260W        W18801   9.051  26.449  13.506
52261W        W18802  12.291  32.424  12.140
52262W        W18803  23.180  39.425  10.892
52263W        W18804  40.341   4.302   2.929
52264W        W18805  29.889   1.573  11.843
52265W        W18806  11.243   0.707  13.742
52266W        W18807  13.029  31.994   2.926
52267W        W18808  13.363  44.978  13.882
52268W        W18809  38.639  41.583  10.487
52269W        W18810  21.444  41.966  12.465
52270W        W18811  22.092  30.837  14.981
52271W        W18812  12.233  44.777   1.709
52272W        W18813   0.370   9.646   3.657
52273W        W18814  27.903   7.772  10.727
52274W        W18815  40.549  41.196  11.468
52275W        W18816  10.344  43.839   4.109
52276W        W18817  19.257   2.045  12.015
52277W        W18818  16.411  27.483  14.093
52278W        W18819  28.744  36.595   4.055
52279W        W18820   1.537  24.351   9.749
52280W        W18821  37.472  17.570   2.504
52281W        W18822   1.875  30.615  10.231
52282W        W18823   3.457  16.850  14.075
52283W        W18824  18.424  11.376  13.378
52284W        W18825  17.798  44.928   3.087
52285W        W18826  40.504  40.083  13.861
52286W        W18827  18.990   4.689   2.259
52287W        W18828  30.382  17.233  12.997
52288W        W18829  21.166  35.846   0.249
52289W        W18830   8.496   4.402   4.716
52290W        W18831  38.087   9.953   0.058
52291W        W18832  29.722  32.789  12.880
52292W        W18833  10.423  42.918   1.421
52293W        W18834   1.371  27.944  15.000
52294W        W18835   8.847  21.327   1.928
52295W        W18836   8.759  11.917  12.104
52296W        W18837   9.241   8.437   2.660
52297W        W18838  41.498   0.367  11.405
52298W        W18839  26.584  22.211   4.532
52299W        W18840   5.703  22.092  12.473
52300W        W18841  39.306  19.734   0.401
52301W        W18842  26.787  44.456  13.679
52302W        W18843  27.497  11.957   2.396
52303W        W18844  19.255  31.797   4.513
52304W        W18845  18.756  13.433   3.995
52305W        W18846  37.144  11.156  11.463
52306W        W18847  42.254  22.645   0.900
52307W        W18848  42.591  16.994   3.721
52308W        W18849  18.039  13.041  12.595
52309W        W18850   8.939  22.553   3.175
52310W        W18851   9.299  26.685  11.295
52311W        W18852  35.964  19.323  12.708
52312W        W18853  31.513  17.143  11.664
52313W        W18854   5.695  44.544  11.655
52314W        W18855  21.458  44.106  12.009
52315W        W18856  42.449  36.994  10.592
52316W        W18857   6.437  15.358  11.499
52317W        W18858   1.349  23.931   1.277
52318W        W18859  21.403  36.131   3.225
52319W        W18860   5.418  30.837   2.643
52320W        W18861  30.425  23.136  13.806
52321W        W18862  37.975  32.782   2.918
52322W        W18863  19.601  23.716   0.480
52323W        W18864  19.078  43.453  13.805
52324W        W18865   2.472   7.582   2.739
52325W        W18866   8.095  15.751   3.730
52326W        W18867   8.152   9.962   0.804
52327W        W18868  24.188   9.675   4.514
52328W        W18869  36.603  18.290   0.758
52329W        W18870  17.639  37.337   1.772
52330W        W18871   2.216  26.685  11.666
52331W        W18872  26.065  35.787   0.797
52332W        W18873   6.029  35.959   5.228
52333W        W18874  39.159  11.820  13.394
52334W        W18875  12.367  41.219  12.979
52335W        W18876  16.344  24.945  14.934
52336W        W18877  14.717  44.206  13.980
52337W        W18878  10.740  23.383  14.375
52338W        W18879  38.997   6.348   5.310
52339W        W18880  34.318  18.536  12.462
52340W        W18881  20.899  27.747  11.828
52341W        W18882  26.982   5.004   1.555
52342W        W18883   6.129  38.925   1.716
52343W        W18884   6.204  12.310   0.758
52344W        W18885   9.163  28.680   1.439
52345W        W18886  33.939   6.285  14.442
52346W        W18887  41.301  23.564   3.336
52347W        W18888  37.251  21.289   0.539
52348W        W18889  18.427  36.765   1.944
52349W        W18890   8.288  24.970   2.507
52350W        W18891  19.577  25.262  12.903
52351W        W18892  30.361  33.934   0.371
52352W        W18893  16.279  41.020  10.670
52353W        W18894  35.847  30.099   4.161
52354W        W18895  43.009  28.903  11.532
52355W        W18896   6.622   4.938  13.118
52356W        W18897  33.976  14.975  11.038
52357W        W18898   9.903   9.861   1.815
52358W        W18899  26.034  16.030  11.914
52359W        W18900  39.970  34.176   2.852
52360W        W18901  43.210  14.296   4.569
52361W        W18902  26.060  21.448   0.341
52362W        W18903   1.884   5.136  11.620
52363W        W18904   2.231  21.113  14.782
52364W        W18905  15.461  42.611  14.515
52365W        W18906  22.521   7.387  11.210
52366W        W18907   7.913  13.897   4.091
52367W        W18908  22.491  24.586   1.193
52368W        W18909  13.085  10.271   0.917
52369W        W18910  20.700  17.157   3.713
52370W        W18911  39.458  21.726   1.422
52371W        W18912  41.665  21.699  10.897
52372W        W18913  27.289   8.825  14.448
52373W        W18914  15.331  31.947  10.185
52374W        W18915  33.714  13.919   4.262
52375W        W18916  30.294  12.913  11.578
52376W        W18917  24.015  13.854   4.040
52377W        W18918   2.774   8.190   3.349
52378W        W18919  38.108  12.613   0.501
52379W        W18920  23.669  24.663  10.763
52380W        W18921  34.662  26.559   2.826
52381W        W18922  38.465  34.328  13.817
52382W        W18923  19.673  16.398   4.566
52383W        W18924   4.212  23.790   3.279
52384W        W18925  27.009   9.849  14.917
52385W        W18926  42.568  41.979   4.392
52386W        W18927  14.832   5.754   2.304
52387W        W18928  32.971  21.208   2.819
52388W        W18929  17.130   8.285   0.361
52389W        W18930   0.677  20.967   3.131
52390W        W18931  19.203  10.895   4.360
52391W        W18932  31.111  39.804   1.505
52392W        W18933   2.371  26.475  10.943
52393W        W18934  37.967  32.782  11.993
52394W        W18935  41.851  32.095   4.854
52395W        W18936  41.108  37.114   1.472
52396W        W18937  35.356  17.239   4.547
52397W        W18938  37.816   8.879   2.292
52398W        W18939  40.955  44.428  13.686
52399W        W18940   2.770  24.638   0.887
52400W        W18941  17.996  39.959  11.543
52401W        W18942  35.550  39.772  13.049
52402W        W18943  41.893  12.589   3.077
52403W        W18944  11.904   1.395   0.287
52404W        W18945   8.853  42.906  12.367
52405W        W18946  12.601  42.771  10.984
52406W        W18947  22.935  43.835  12.080
52407W        W18948  19.226  11.580  13.493
52408W        W18949  14.808  36.574   2.675
52409W        W18950  20.510  26.586   4.673
52410W        W18951  44.834  11.807  14.904
52411W        W18952  19.250  41.800   1.359
52412W        W18953  44.854   2.512   3.733
52413W        W18954  44.804   2.909   2.143
52414W        W18955  31.515  29.834   3.778
52415W        W18956  42.463  33.445   2.222
52416W        W18957   5.230  33.322  12.554
52417W        W18958  28.012  12.602   4.285
52418W        W18959  17.481  17.644  13.032
52419W        W18960   3.266   3.427  12.233
52420W        W18961   0.016  39.404  13.103
52421W        W18962   5.144  23.190  13.440
52422W        W18963  14.979  24.409  14.913
52423W        W18964  27.842   9.643  10.716
52424W        W18965  41.551  44.914  11.674
52425W        W18966  11.879   2.421   3.719
52426W        W18967  44.687  33.577   3.679
52427W        W18968  34.404  39.317  14.879
52428W        W18969  28.222   3.193   3.142
52429W        W18970  26.335  29.883  11.603
52430W        W18971  25.975  18.596   2.203
52431W        W18972  32.913  20.056  11.589
52432W        W18973  39.677   1.348  11.034
52433W        W18974   1.027  24.520   3.309
52434W        W18975  13.325  15.004   3.986
52435W        W18976  31.513  41.966   2.825
52436W        W18977  27.174  20.189   0.818
52437W        W18978   5.253  39.933   4.658
52438W        W18979   0.367  23.732   0.384
52439W        W18980  24.234  32.063   3.416
52440W        W18981  21.462   9.636  13.040
52441W        W18982   2.210  30.564  12.144
52442W        W18983   5.421  20.482   2.753
52443W        W18984  20.156  26.583   2.653
52444W        W18985  34.771   4.129  11.067
52445W        W18986  28.361  20.104  13.383
52446W        W18987  24.725  39.484   1.858
52447W        W18988  29.947   5.526  11.678
52448W        W18989  34.216   0.534  13.948
52449W        W18990  21.169  15.324  13.523
52450W        W18991  34.524   8.980   3.207
52451W        W18992  42.921  36.697  13.515
52452W        W18993  28.616   8.201  12.610
52453W        W18994  27.513  17.048   4.075
52454W        W18995  31.093  16.668  10.645
52455W        W18996   7.701   4.439   0.716
52456W        W18997  41.073  29.760  11.150
52457W        W18998  25.237  29.299  14.359
52458W        W18999  12.296  36.526  12.518
52459W        W19000  22.049  25.384   0.819
52460W        W19001  19.673  35.888  13.002
52461W        W19002  34.897  41.866  12.519
52462W        W19003  35.162  39.452   4.551
52463W        W19004  38.553   5.710   0.770
52464W        W19005   8.767   6.733  11.455
52465W        W19006  37.957   4.151   2.148
52466W        W19007  17.643  30.038  13.911
52467W        W19008  12.692  23.023   3.753
52468W        W19009   4.385  26.058   1.663
52469W        W19010  26.604  21.135   3.577
52470W        W19011  30.235  15.734  10.271
52471W        W19012  20.563  21.162   3.159
52472W        W19013  24.900  33.306  11.866
52473W        W19014  14.375  27.498  13.760
52474W        W19015  13.004   7.424   0.385
52475W        W19016   4.881  36.155   4.121
52476W        W19017  14.022   6.033  14.396
52477W        W19018  36.486  17.417   2.291
52478W        W19019  35.140   7.258  12.286
52479W        W19020   8.974  18.406   1.156
52480W        W19021  21.259  32.109  10.617
52481W        W19022  15.720  32.677  13.416
52482W        W19023  31.513  38.820   1.802
52483W        W19024  24.085  37.706  11.961
52484W        W19025  25.467  16.723   3.120
52485W        W19026  33.702  17.892   2.110
52486W        W19027  35.885  18.508  11.985
52487W        W19028   6.179  36.980   2.769
52488W        W19029  27.648  41.962   4.485
52489W        W19030   8.773  16.791  12.467
52490W        W19031  34.460  23.069   2.375
52491W        W19032  36.866  42.956  13.084
52492W        W19033   0.234  43.909  13.373
52493W        W19034   7.325   8.321   0.806
52494W        W19035  28.124  37.361  10.681
52495W        W19036  12.647  32.924   2.328
52496W        W19037  25.117  25.620  14.020
52497W        W19038  43.956  33.263  11.033
52498W        W19039  15.773  20.287  11.169
52499W        W19040  26.786   6.699  14.851
52500W        W19041  18.572  31.634  10.399
52501W        W19042   8.772  28.484  14.450
52502W        W19043  16.072  27.409  13.346
52503W        W19044  39.835  38.577   4.400
52504W        W19045  44.329   1.457  13.930
52505W        W19046  18.650  24.948  11.842
52506W        W19047  39.059   5.654  11.541
52507W        W19048  42.543  10.770   2.239
52508W        W19049  33.946  25.392  13.694
52509W        W19050  41.858  25.739   0.242
52510W        W19051   3.016   5.341   2.496
52511W        W19052  12.370   5.018  13.578
52512W        W19053  22.685  13.076  11.551
52513W        W19054  40.871  22.762   4.702
52514W        W19055  13.180  24.126  14.360
52515W        W19056  21.675  41.905   1.903
52516W        W19057  24.300  28.917   4.589
52517W        W19058   8.629  33.512   4.535
52518W        W19059  26.630   9.031   2.603
52519W        W19060  36.093  18.287  11.533
52520W        W19061  19.799  43.262   2.338
52521W        W19062  33.470  12.500   3.082
52522W        W19063  22.113  39.470   2.915
52523W        W19064  43.265  33.976   1.778
52524W        W19065   5.708  14.237   3.201
52525W        W19066  26.205  16.684  12.051
52526W        W19067  13.841  29.949  14.463
52527W        W19068  29.698   1.217   2.221
52528W        W19069  27.578  17.321   3.616
52529W        W19070  22.870  32.887   2.956
52530W        W19071  34.505  13.540   3.354
52531W        W19072  30.465  24.935  13.398
52532W        W19073  38.476  19.673   4.885
52533W        W19074   7.795  25.317  10.530
52534W        W19075   4.381  22.443  10.169
52535W        W19076  20.676  10.620   9.964
52536W        W19077  31.910   2.704   3.558
52537W        W19078  32.679  35.540  14.426
52538W        W19079  39.378  38.301  14.854
52539W        W19080  41.145   4.718   4.163
52540W        W19081  35.091  43.250   1.778
52541W        W19082  25.035  16.026   3.735
52542W        W19083   0.729   2.766   3.553
52543W        W19084  14.246  14.823  12.160
52544W        W19085  10.271  43.412   1.479
52545W        W19086  10.265  36.919  13.875
52546W        W19087   2.461  41.160   3.832
52547W        W19088   6.221  33.971   0.020
52548W        W19089   0.275   6.120   1.839
52549W        W19090  28.964  24.640   3.736
52550W        W19091  36.109  19.194  11.487
52551W        W19092  17.590  44.553   3.418
52552W        W19093  13.216  13.893  11.959
52553W        W19094  42.903  25.208   3.394
52554W        W19095  19.694  41.052  12.903
52555W        W19096  27.052  42.474   4.891
52556W        W19097  36.658   5.269  12.571
52557W        W19098  36.490  26.594  14.203
52558W        W19099  36.289  19.663  12.401
52559W        W19100   3.961   2.830  14.038
52560W        W19101  34.113  16.213  13.980
52561W        W19102   3.498  43.115   3.146
52562W        W19103   3.726  32.931  13.405
52563W        W19104   3.319  14.828  10.654
52564W        W19105   0.028  17.714  13.945
52565W        W19106  17.134  29.172  14.891
52566W        W19107  26.387  41.740   4.108
52567W        W19108  42.868   0.741   4.723
52568W        W19109   6.240   1.564   0.913
52569W        W19110  39.762  33.091  14.933
52570W        W19111   8.475  36.786  13.401
52571W        W19112  20.250   6.465   2.761
52572W        W19113  42.263   5.341  11.947
52573W        W19114   6.202  24.955   3.654
52574W        W19115  27.069   9.664   1.433
52575W        W19116  15.286  33.226  11.170
52576W        W19117  30.240   0.374   3.930
52577W        W19118  34.224  16.804   2.738
52578W        W19119  43.908   7.165  14.226
52579W        W19120  38.748  41.091  13.394
52580W        W19121  33.028  26.120   1.915
52581W        W19122   9.727  21.944  10.997
52582W        W19123  27.264  27.129   0.516
52583W        W19124  11.544   5.939   3.610
52584W        W19125  36.233  19.379   2.837
52585W        W19126  39.128  40.797   3.747
52586W        W19127  41.477  37.901   3.401
52587W        W19128  13.381  40.566  12.153
52588W        W19129   5.285  40.132   3.125
52589W        W19130  31.874   2.475  10.325
52590W        W19131  24.715  38.316  13.383
52591W        W19132  32.677   1.287  13.992
52592W        W19133  29.899   7.198   2.246
52593W        W19134  23.437   6.892   1.262
52594W        W19135   7.004   9.551  14.091
52595W        W19136  44.841  14.606  14.478
52596W        W19137  44.526   6.875  12.013
52597W        W19138   0.729  29.596   2.887
52598W        W19139   8.009   5.250   3.687
52599W        W19140  22.201  32.592  12.304
52600W        W19141  10.654  15.194   4.482
52601W        W19142  25.707  12.450  14.009
52602W        W19143  13.790   6.318  13.810
52603W        W19144  30.606  41.444  14.904
52604W        W19145   4.977  41.344   3.634
52605W        W19146  14.353   5.207   1.085
52606W        W19147  37.409  44.434   4.080
52607W        W19148   0.281   7.326   4.840
52608W        W19149  22.004  41.886  13.317
52609W        W19150  21.678  19.274  10.486
52610W        W19151  39.698   8.726   4.258
52611W        W19152  23.593   7.729  11.621
52612W        W19153   2.929   4.799  13.416
52613W        W19154  12.574  24.998   2.855
52614W        W19155  23.075  12.184  11.374
52615W        W19156  34.811  11.467   0.199
52616W        W19157  17.781  31.521   4.165
52617W        W19158   2.698   5.067  12.387
52618W        W19159  15.193  13.407   2.085
52619W        W19160  36.959  42.542  12.280
52620W        W19161  11.971  15.097   2.308
52621W        W19162  34.998  39.619   2.379
52622W        W19163  23.981  29.420   4.919
52623W        W19164   2.414  16.974   0.785
52624W        W19165  36.674  37.984  13.045
52625W        W19166  41.978   6.990   3.191
52626W        W19167   6.689  22.202   2.436
52627W        W19168  32.419  24.640  14.986
52628W        W19169  40.191   5.399  13.889
52629W        W19170   1.434  34.470  11.176
52630W        W19171  26.171  26.042   2.136
52631W        W19172  17.262   6.107   0.783
52632W        W19173  18.732   6.224   0.430
52633W        W19174  31.227  28.673   2.263
52634W        W19175   4.354  23.778   4.113
52635W        W19176   2.172  29.219   0.471
52636W        W19177  43.295  44.530   0.416
52637W        W19178  22.149  41.020   0.733
52638W        W19179  33.747   0.319  13.951
52639W        W19180  40.875   6.499   4.365
52640W        W19181  12.867  32.373   3.297
52641W        W19182  17.293  23.434  14.771
52642W        W19183  27.449  34.236   1.403
52643W        W19184  25.066  24.698   0.672
52644W        W19185   5.422  40.707  11.901
52645W        W19186  43.521  15.148  13.131
52646W        W19187  25.224  11.579  12.132
52647W        W19188  31.443  31.649   3.240
52648W        W19189  43.491   9.812   2.796
52649W        W19190  11.362  24.978  13.438
52650W        W19191  16.520  16.517   4.054
52651W        W19192  11.699  34.863   1.338
52652W        W19193  39.405  27.225  11.521
52653W        W19194   9.194   8.129   2.236
52654W        W19195  14.244  19.680   4.675
52655W        W19196   0.555  28.453  14.817
52656W        W19197  42.065  38.361   4.197
52657W        W19198  25.982   1.797  14.702
52658W        W19199   0.911  38.097  12.276
52659W        W19200   6.431  27.996  13.401
52660W        W19201  30.555   3.025  14.448
52661W        W19202  20.519  44.587   2.720
52662W        W19203   2.182  24.770   0.054
52663W        W19204  10.704   9.441   1.464
52664W        W19205  15.363  41.059  14.032
52665W        W19206  33.954  40.040  14.923
52666W        W19207  16.044  21.828  12.443
52667W        W19208  25.546  10.068   3.213
52668W        W19209  21.197  44.397  12.347
52669W        W19210  11.838  26.186  10.992
52670W        W19211  44.985  43.386  13.455
52671W        W19212  25.444  21.660  11.270
52672W        W19213  43.903   1.522   3.162
52673W        W19214  23.124  42.768   0.607
52674W        W19215  16.349  30.997  14.113
52675W        W19216  38.742   4.964  12.479
52676W        W19217  41.965   7.371  14.233
52677W        W19218  25.203   1.879  11.139
52678W        W19219  24.553  38.480   0.933
52679W        W19220  11.280  38.991  11.529
52680W        W19221  25.141  41.545  11.178
52681W        W19222  27.290  14.137   2.162
52682W        W19223  18.263  36.755   2.747
52683W        W19224  20.126  25.385   4.032
52684W        W19225   7.034  13.603  13.900
52685W        W19226  12.656  22.068   1.334
52686W        W19227  26.017  38.447  11.559
52687W        W19228  26.679   2.875   4.629
52688W        W19229  13.343   5.911   2.189
52689W        W19230   0.732  27.499   2.431
52690W        W19231  13.295  38.853  11.218
52691W        W19232  32.991  22.200   4.585
52692W        W19233  28.310  19.842   2.187
52693W        W19234  11.882  40.030   4.493
52694W        W19235  39.497  24.709  12.957
52695W        W19236  35.144  21.535  14.001
52696W        W19237  15.710  41.504   0.307
52697W        W19238  19.017  18.307  11.629
52698W        W19239  12.357   6.497   4.159
52699W        W19240  35.183  18.135  11.155
52700W        W19241  38.050  43.171  13.471
52701W        W19242  37.905   6.146   2.127
52702W        W19243   2.306  18.322  14.756
52703W        W19244  19.626   9.428  12.041
52704W        W19245   1.735  42.530   3.864
52705W        W19246  38.986   4.351   9.931
52706W        W19247  22.145  38.092  11.445
52707W        W19248  42.812  22.595  10.926
52708W        W19249   9.888   4.161  12.056
52709W        W19250   0.268   8.412   0.796
52710W        W19251  41.307  43.174   4.889
52711W        W19252   3.071  34.036   5.172
52712W        W19253  29.993  29.880   1.185
52713W        W19254  39.484  23.420   2.863
52714W        W19255  26.204  28.006   0.440
52715W        W19256  15.354   0.292   3.216
52716W        W19257  20.340  20.672   4.539
52717W        W19258  31.543  29.597   2.923
52718W        W19259  29.066  34.151   1.934
52719W        W19260  19.485  40.361   4.523
52720W        W19261  10.983  43.087   3.734
52721W        W19262   3.481  27.593   0.272
52722W        W19263  19.835   1.046  14.060
52723W        W19264  42.915  10.627   1.841
52724W        W19265  41.891  14.811   4.583
52725W        W19266  41.547   9.935  13.499
52726W        W19267   8.836  26.490  12.863
52727W        W19268  20.425  28.642   4.606
52728W        W19269  10.140  44.726   1.919
52729W        W19270   9.772  31.234  13.883
52730W        W19271   1.765   2.152  11.387
52731W        W19272  30.001  18.213   2.263
52732W        W19273  42.888  44.041  13.825
52733W        W19274  27.076  11.907  11.875
52734W        W19275  22.073  25.153  12.335
52735W        W19276  36.391  23.085  11.905
52736W        W19277  27.710  20.209   0.895
52737W        W19278   0.991  32.857   2.220
52738W        W19279  40.467  12.086  14.417
52739W        W19280   1.186  21.832   0.474
52740W        W19281  32.451  32.510   2.840
52741W        W19282   2.046   8.317   1.652
52742W        W19283  14.209  20.227  13.106
52743W        W19284   8.193   5.948   0.233
52744W        W19285  31.079  11.126   5.439
52745W        W19286  16.213  35.353  12.157
52746W        W19287  18.678  25.427  14.909
52747W        W19288  14.511  42.460  14.299
52748W        W19289  24.670  17.012   3.714
52749W        W19290  33.221  18.682   2.326
52750W        W19291  29.007   9.104   3.720
52751W        W19292  39.101   5.230  12.156
52752W        W19293   7.361  16.275   2.646
52753W        W19294  29.567  43.823   2.217
52754W        W19295  21.907  35.549  14.043
52755W        W19296   8.955  14.210   1.829
52756W        W19297  44.327  39.035   0.877
52757W        W19298   4.337   8.262  13.282
52758W        W19299  44.701  28.743  11.684
52759W        W19300  32.227  11.863   0.936
52760W        W19301   9.257  28.471   4.113
52761W        W19302  25.620  29.461  14.003
52762W        W19303   1.888  42.006   0.557
52763W        W19304   4.101  26.246  13.850
52764W        W19305  17.707  28.196  11.801
52765W        W19306  11.234  20.054  14.234
52766W        W19307  14.581  43.831   3.634
52767W        W19308  42.973   8.690   3.375
52768W        W19309   9.215  14.314   5.104
52769W        W19310  38.977  39.752  12.995
52770W        W19311  28.819  15.299   2.420
52771W        W19312  15.605  11.732   0.950
52772W        W19313  34.152   0.197   3.620
52773W        W19314   2.538  21.654   2.146
52774W        W19315  22.530  24.127  13.474
52775W        W19316  30.969  30.214   3.202
52776W        W19317  44.109  17.315   2.741
52777W        W19318  38.905  19.118  13.510
52778W        W19319  20.710  26.965  12.969
52779W        W19320  27.939  42.791   4.639
52780W        W19321  25.221  44.458   0.705
52781W        W19322   3.748   5.513   1.256
52782W        W19323   2.974  38.980   0.583
52783W        W19324   7.095   9.312   2.306
52784W        W19325  19.071  37.103   3.262
52785W        W19326  26.107  12.224   0.978
52786W        W19327  32.443   5.892  12.878
52787W        W19328  27.444  16.625  12.640
52788W        W19329   3.096   8.518  11.512
52789W        W19330  19.741   1.747   0.802
52790W        W19331  10.425  44.368  10.254
52791W        W19332  19.937  27.674   2.327
52792W        W19333  10.999  28.704  11.534
52793W        W19334  42.949  23.985  11.103
52794W        W19335   6.384  35.322  10.664
52795W        W19336  15.409  35.942   3.074
52796W        W19337  26.432  31.046  10.483
52797W        W19338  11.720  44.782   3.603
52798W        W19339  32.675  19.318  11.203
52799W        W19340  10.771  19.723  12.297
52800W        W19341  39.000   1.371  11.575
52801W        W19342  13.332  39.766   2.745
52802W        W19343  13.603  20.423   1.263
52803W        W19344  17.533  20.598   3.674
52804W        W19345  11.330  27.082   3.362
52805W        W19346  24.638  17.052  10.689
52806W        W19347  24.590   3.238   2.526
52807W        W19348  12.362  21.296  11.712
52808W        W19349  26.430  40.986  14.192
52809W        W19350  26.683  44.746   2.360
52810W        W19351   4.288  43.093  14.527
52811W        W19352  30.940  29.577   4.085
52812W        W19353  16.712   9.442   2.380
52813W        W19354  44.215  22.761   2.902
52814W        W19355  43.396  30.612  14.675
52815W        W19356  44.719   7.207  12.362
52816W        W19357   2.644   1.847  12.209
52817W        W19358  39.479  12.869  13.306
52818W        W19359  43.230  15.222  14.073
52819W        W19360  25.755  14.860  11.076
52820W        W19361  34.016  10.455  13.554
52821W        W19362  26.667  10.660  11.188
52822W        W19363  40.009   6.309  14.725
52823W        W19364  39.414  41.967   0.381
52824W        W19365  32.113  15.516  12.514
52825W        W19366  23.743  26.233  10.450
52826W        W19367  27.675  38.984   4.780
52827W        W19368  36.083  21.248   2.265
52828W        W19369  12.152  13.214   3.953
52829W        W19370  26.972  42.749  14.426
52830W        W19371  18.099  30.068   2.239
52831W        W19372  36.338  11.455   9.930
52832W        W19373  31.165  26.930   3.706
52833W        W19374  36.638  20.735   1.266
52834W        W19375  39.170  16.209   4.103
52835W        W19376  17.153  35.373   1.804
52836W        W19377  16.831   7.194   0.596
52837W        W19378  38.293  24.337   3.958
52838W        W19379   3.185  15.186   1.367
52839W        W19380  17.776  32.725   2.985
52840W        W19381  32.239  30.646   2.976
52841W        W19382  21.061   6.746  13.433
52842W        W19383   9.633  40.952   0.747
52843W        W19384  33.049  11.460   0.739
52844W        W19385   8.270  39.920  10.734
52845W        W19386  37.014  39.837  10.730
52846W        W19387  36.707  19.967  12.550
52847W        W19388  31.632  27.589  11.174
52848W        W19389  32.012  26.455   3.591
52849W        W19390  34.183  41.851  11.126
52850W        W19391  41.698  19.105   1.542
52851W        W19392  16.959  19.693   2.766
52852W        W19393  40.936  31.151  12.580
52853W        W19394   5.718  10.521   0.808
52854W        W19395  27.977  22.091  14.914
52855W        W19396  38.615  26.612   0.812
52856W        W19397  16.200  25.140   1.725
52857W        W19398  11.379  40.364   1.295
52858W        W19399  18.292   0.726   2.242
52859W        W19400  18.085   5.404  10.900
52860W        W19401  34.148  11.197   3.377
52861W        W19402   4.184   7.396  10.999
52862W        W19403  15.831  17.650   4.800
52863W        W19404  10.580  23.106   0.814
52864W        W19405   6.923  34.958  11.934
52865W        W19406  17.239  11.843  15.000
52866W        W19407  29.552  38.019   1.355
52867W        W19408  17.607  16.706  10.896
52868W        W19409  16.357  34.054  11.075
52869W        W19410  10.143   5.445  13.299
52870W        W19411  33.033  12.838  11.677
52871W        W19412  25.628  13.933  14.851
52872W        W19413  14.661  29.424  11.525
52873W        W19414  20.260  26.110   0.253
52874W        W19415  13.770  18.520   3.438
52875W        W19416  43.183  24.188   0.757
52876W        W19417  34.414  24.914  10.746
52877W        W19418  31.107  19.836  11.302
52878W        W19419   1.270  39.359  11.637
52879W        W19420  40.242   8.580   4.385
52880W        W19421  41.398   7.300   4.464
52881W        W19422  17.337  33.412  10.589
52882W        W19423  11.538  15.239  14.381
52883W        W19424  39.970  40.761   3.595
52884W        W19425   2.251  14.179  10.301
52885W        W19426  30.671  33.635   3.868
52886W        W19427  26.106  43.315   1.706
52887W        W19428   5.184  39.474  10.273
52888W        W19429  36.590  39.956   2.731
52889W        W19430  39.152   0.414  14.012
52890W        W19431   1.747  42.941  11.601
52891W        W19432  28.716  30.507  14.747
52892W        W19433  13.257  10.159   4.040
52893W        W19434   5.689   8.690  12.402
52894W        W19435   7.687  31.937   4.030
52895W        W19436  36.935  12.394  14.455
52896W        W19437   5.634  40.895   4.126
52897W        W19438  23.666   6.446  13.011
52898W        W19439  29.507  13.404   3.384
52899W        W19440  43.235  18.663  12.651
52900W        W19441  33.853  37.071   4.242
52901W        W19442   1.791  44.067  11.540
52902W        W19443  30.570   5.998  11.062
52903W        W19444  18.116   3.232   4.384
52904W        W19445  14.052  26.704  13.701
52905W        W19446   5.403  21.564  12.724
52906W        W19447  21.282  36.842   1.132
52907W        W19448  18.662  32.020  13.013
52908W        W19449   7.996  13.149  14.874
52909W        W19450  14.795  20.992   1.449
52910W        W19451   8.893  29.424   3.213
52911W        W19452  22.913   5.130   3.997
52912W        W19453  14.331  17.294   3.212
52913W        W19454  10.123  20.916   4.963
52914W        W19455  42.891  36.879  14.019
52915W        W19456  16.600  22.665  13.839
52916W        W19457  17.639  18.357   0.345
52917W        W19458  34.871  40.453  12.898
52918W        W19459  19.629  15.704   1.803
52919W        W19460  16.944  23.668   4.215
52920W        W19461  38.839   7.961  14.049
52921W        W19462  27.507  14.142   3.887
52922W        W19463  31.117  27.636  12.270
52923W        W19464  24.031  28.466   3.667
52924W        W19465  28.628  43.247   2.094
52925W        W19466  18.558  16.222  14.047
52926W        W19467  17.196  30.616   1.128
52927W        W19468   5.451  27.163   1.903
52928W        W19469  37.045   0.925  14.735
52929W        W19470  13.713  26.875  11.637
52930W        W19471  15.205  33.409   4.928
52931W        W19472  36.183   1.407   5.016
52932W        W19473  31.285  16.097   4.229
52933W        W19474  13.932  19.238  13.501
52934W        W19475  39.765   0.379   1.814
52935W        W19476  16.732  18.679   4.582
52936W        W19477  13.829  33.449   1.509
52937W        W19478  38.905  13.603  12.536
52938W        W19479  34.575   9.198   3.684
52939W        W19480  37.367   2.223  14.347
52940W        W19481  21.976  38.034  12.427
52941W        W19482  16.855  21.177  11.069
52942W        W19483   5.260  44.500   3.406
52943W        W19484   0.819  34.019  11.562
52944W        W19485  14.331  28.884  12.973
52945W        W19486   9.475  15.225  13.340
52946W        W19487  16.396   3.427   3.439
52947W        W19488   7.970  29.249  10.709
52948W        W19489  13.724  25.936  14.395
52949W        W19490  37.085  39.828   2.669
52950W        W19491  42.192  32.115  12.058
52951W        W19492  34.430  23.746   4.985
52952W        W19493   7.077  11.888  14.398
52953W        W19494  23.311  37.913  13.459
52954W        W19495  25.898  41.018  14.220
52955W        W19496  31.156  30.988   4.516
52956W        W19497  15.808  36.066   3.907
52957W        W19498  20.728  44.426   3.160
52958W        W19499  22.812  41.820  10.556
52959W        W19500   4.030  17.094  13.373
52960W        W19501  30.122  40.878   4.663
52961W        W19502  37.405  39.107   1.764
52962W        W19503  23.494  11.923  12.518
52963W        W19504  22.507  34.476   4.560
52964W        W19505  43.974  16.122  14.558
52965W        W19506  32.683  16.586  11.130
52966W        W19507  15.799  17.351  13.326
52967W        W19508  26.058  20.450  11.069
52968W        W19509  24.662   4.463   1.356
52969W        W19510   9.770  32.401   1.245
52970W        W19511  31.497  21.804  12.553
52971W        W19512   6.749  25.003  11.239
52972W        W19513   8.226   8.716   4.564
52973W        W19514   1.033  41.916   0.255
52974W        W19515  15.439  32.216  13.412
52975W        W19516  44.455  24.147   2.360
52976W        W19517  41.884  44.348   4.610
52977W        W19518  13.542  42.489  10.433
52978W        W19519  10.657  23.025  13.994
52979W        W19520  33.664  23.065   0.308
52980W        W19521  25.203  17.505  13.832
52981W        W19522  32.130  28.174   3.084
52982W        W19523  14.021  33.000  11.998
52983W        W19524  13.321   7.490  14.402
52984W        W19525  17.203  25.541  10.806
52985W        W19526  22.450  33.852   2.808
52986W        W19527  20.479  31.474   3.742
52987W        W19528   1.915  38.570  12.608
52988W        W19529  20.261  38.215  10.404
52989W        W19530  23.042  30.533  12.418
52990W        W19531   7.646  18.767   2.264
52991W        W19532   9.206  36.366  10.605
52992W        W19533   0.650   3.013   5.210
52993W        W19534  13.385  20.628   3.155
52994W        W19535  10.706  24.498  12.961
52995W        W19536  43.557  12.610  12.726
52996W        W19537  16.706  27.133   1.206
52997W        W19538  27.950   7.309  12.593
52998W        W19539  16.856  33.982  12.654
52999W        W19540  20.101  10.158  11.150
53000W        W19541  40.884  23.295   1.812
53001W        W19542  11.343  28.534  10.638
53002W        W19543  43.357  37.791   2.904
53003W        W19544  28.652  26.975  11.543
53004W        W19545  23.304  40.477  12.524
53005W        W19546  29.037  39.726  14.939
53006W        W19547   5.962  39.393   1.931
53007W        W19548  14.150  30.845   0.467
53008W        W19549   9.830  37.786  13.032
53009W        W19550  14.741   4.924  13.505
53010W        W19551  34.993   7.362   4.618
53011W        W19552  18.745   4.339   4.190
53012W        W19553  25.726  36.995  11.915
53013W        W19554  44.011   9.433   3.205
53014W        W19555  28.912  14.307   4.074
53015W        W19556  29.606  23.598  12.003
53016W        W19557  41.979   0.654   0.250
53017W        W19558  21.262  34.893  14.036
53018W        W19559   3.915  44.892   2.948
53019W        W19560  36.985  14.800   0.416
53020W        W19561   1.282  38.361   2.161
53021W        W19562  17.776  15.290  13.516
53022W        W19563   4.969  23.189   0.342
53023W        W19564  30.878   3.021  13.820
53024W        W19565  27.956   2.878   4.311
53025W        W19566  11.135  14.576  14.893
53026W        W19567  37.691  34.165  11.932
53027W        W19568  36.977  26.807   0.765
53028W        W19569   7.701  37.287   0.791
53029W        W19570  14.183  15.062  14.411
53030W        W19571  23.024  32.927   2.454
53031W        W19572  27.137   7.010  12.069
53032W        W19573  15.844  23.256  12.956
53033W        W19574  43.402   0.009   0.244
53034W        W19575  12.372  22.993  12.195
53035W        W19576  21.662  32.666  11.059
53036W        W19577  39.619  30.612   4.011
53037W        W19578  10.119   7.722   4.557
53038W        W19579  33.941  30.497  13.979
53039W        W19580   8.636  13.515  12.315
53040W        W19581   3.344  43.753  14.021
53041W        W19582  19.797   1.299   3.657
53042W        W19583  23.998  32.467   2.725
53043W        W19584   4.762  19.178  13.784
53044W        W19585  19.700  36.479  13.769
53045W        W19586  28.236   7.414  13.009
53046W        W19587  26.504  25.018   0.095
53047W        W19588  41.406   7.540   0.465
53048W        W19589  43.160  23.575  12.651
53049W        W19590  13.366  17.806  10.629
53050W        W19591   6.200  37.885  11.303
53051W        W19592  34.271  42.408   2.702
53052W        W19593  42.555   0.390   2.978
53053W        W19594  18.369  16.581  11.926
53054W        W19595  33.967  12.174   2.394
53055W        W19596   5.585  15.290  11.222
53056W        W19597  27.538  18.670  13.973
53057W        W19598  10.722  37.858   4.007
53058W        W19599  25.223  26.004  10.695
53059W        W19600  41.358   7.951  11.665
53060W        W19601  30.754  36.886  11.997
53061W        W19602   5.159   1.826   1.148
53062W        W19603  42.442   7.129  13.447
53063W        W19604  41.194   7.233   1.398
53064W        W19605  40.071  12.785   2.680
53065W        W19606  22.112  43.303  10.925
53066W        W19607  21.957  43.780   3.779
53067W        W19608  36.897  10.019  13.806
53068W        W19609  31.585  14.612  11.903
53069W        W19610   4.305  36.557  14.972
53070W        W19611  28.706   3.909   2.281
53071W        W19612  12.135  32.171   0.402
53072W        W19613   2.280  29.274  10.264
53073W        W19614  17.698  13.340   1.699
53074W        W19615   0.843  28.177  10.771
53075W        W19616  10.161  16.674   0.923
53076W        W19617  15.578  33.543  13.097
53077W        W19618  23.121  15.971   1.716
53078W        W19619  17.258  17.386  14.379
53079W        W19620   0.764   4.347  13.865
53080W        W19621  41.109  13.863  13.816
53081W        W19622   9.984   0.869  14.441
53082W        W19623  26.754   1.047  12.518
53083W        W19624  19.774  40.597   2.835
53084W        W19625  26.877  26.190  12.834
53085W        W19626  40.212  39.033   0.285
53086W        W19627  12.993  27.856   3.856
53087W        W19628   4.362  24.303   4.125
53088W        W19629  38.353  37.093  11.876
53089W        W19630  27.001  22.777   2.417
53090W        W19631   1.908  34.509   3.008
53091W        W19632  11.344   9.354   3.542
53092W        W19633  44.947   6.821   3.213
53093W        W19634   0.921  10.677  12.412
53094W        W19635  28.842  18.657  10.676
53095W        W19636  38.721  27.335   3.144
53096W        W19637  21.640   8.696   4.840
53097W        W19638  38.505   0.476   1.452
53098W        W19639  24.061  19.055   3.186
53099W        W19640  22.381   3.271  11.972
53100W        W19641  16.333  16.192   0.485
53101W        W19642  18.751  29.044  14.401
53102W        W19643  30.919  37.036   1.749
53103W        W19644  11.492  36.768   1.125
53104W        W19645  39.820  17.310   0.916
53105W        W19646  36.179  12.268  13.073
53106W        W19647  17.838   1.028   0.303
53107W        W19648  31.173  41.025   3.825
53108W        W19649  11.140  10.309   0.700
53109W        W19650  14.890  17.624   3.292
53110W        W19651  33.327  32.066  11.094
53111W        W19652  33.151  33.232   2.983
53112W        W19653  36.368   1.440   1.164
53113W        W19654  12.109  26.007   2.913
53114W        W19655  39.959  39.360  12.353
53115W        W19656   5.275   2.993   0.756
53116W        W19657  34.484  38.853  10.739
53117W        W19658  20.128   2.224   4.403
53118W        W19659  34.525  39.556   0.902
53119W        W19660  34.099   6.665   4.672
53120W        W19661   2.278  16.084  11.784
53121W        W19662   6.044   8.508  10.427
53122W        W19663  24.952   0.244   4.604
53123W        W19664  34.909  27.595   1.498
53124W        W19665   4.631  43.406  13.371
53125W        W19666  29.078  31.963  11.155
53126W        W19667  18.028  38.033  13.986
53127W        W19668   0.478  19.633  11.955
53128W        W19669  37.033  19.072  11.174
53129W        W19670  32.446   1.219  10.640
53130W        W19671  20.682  20.128  12.030
53131W        W19672  33.870   7.802  11.337
53132W        W19673   2.432  21.020   2.677
53133W        W19674  11.660  31.169  12.461
53134W        W19675  10.429  12.321   2.276
53135W        W19676  36.302   1.754  11.130
53136W        W19677  36.491  16.370   2.224
53137W        W19678   2.294  21.412   3.850
53138W        W19679  38.566  16.856   1.209
53139W        W19680  22.120  10.758  14.047
53140W        W19681  17.938  40.886   1.672
53141W        W19682  10.866  15.338   0.068
53142W        W19683  40.563  29.032   0.800
53143W        W19684  15.829   6.417   1.758
53144W        W19685  44.906  10.877   4.807
53145W        W19686  31.098   4.008  11.978
53146W        W19687  27.819  26.273  11.497
53147W        W19688   5.808   9.634  13.563
53148W        W19689  19.679  25.225   2.802
53149W        W19690  13.452  35.793  13.614
53150W        W19691  14.719  21.395   2.373
53151W        W19692  19.634  23.579   2.879
53152W        W19693  10.229  16.901  13.949
53153W        W19694  27.327  29.154   2.259
53154W        W19695   0.850  30.673  12.018
53155W        W19696  34.347   7.487   1.762
53156W        W19697   9.293  44.413  11.999
53157W        W19698  26.208  42.001   1.378
53158W        W19699  18.254  44.698   0.365
53159W        W19700  27.933  15.807  10.171
53160W        W19701   0.270   2.365  12.518
53161W        W19702  40.049  17.337  10.785
53162W        W19703  38.255   0.809  11.952
53163W        W19704  37.518  17.464   1.865
53164W        W19705  30.489  25.695   4.232
53165W        W19706  20.265  26.437   4.150
53166W        W19707  33.453  30.658  12.088
53167W        W19708  36.498  39.900   3.239
53168W        W19709   4.840   3.023  11.463
53169W        W19710  24.309   4.452   0.964
53170W        W19711  40.556  23.097   3.736
53171W        W19712  23.968   8.633  11.225
53172W        W19713   2.562   6.786  10.813
53173W        W19714   2.995   4.130  12.031
53174W        W19715   5.702  32.574   4.039
53175W        W19716  38.214  12.206   4.768
53176W        W19717   6.881  14.753  13.930
53177W        W19718   7.884   4.963   0.142
53178W        W19719  27.436   6.121  13.067
53179W        W19720  35.878  29.490   1.706
53180W        W19721  18.770  10.706   2.678
53181W        W19722   5.909  24.098  13.376
53182W        W19723  26.388  23.991   0.371
53183W        W19724  15.031  23.633   4.098
53184W        W19725  30.548  23.242   3.100
53185W        W19726  35.969  33.481   3.235
53186W        W19727  32.903   7.801   0.241
53187W        W19728  40.880   6.802   2.233
53188W        W19729  10.005  10.776  12.436
53189W        W19730  10.637   7.419  13.987
53190W        W19731  18.015  15.533   1.424
53191W        W19732  11.223  32.192   0.309
53192W        W19733  42.404  19.765  14.049
53193W        W19734  36.829  27.453   3.276
53194W        W19735  17.865  22.344  11.112
53195W        W19736  33.833   8.119   1.605
53196W        W19737  42.986  12.652  10.877
53197W        W19738  14.518  17.075  10.128
53198W        W19739  11.500   6.359   4.490
53199W        W19740   3.902  33.427  11.155
53200W        W19741  38.510  36.318  14.876
53201W        W19742  34.094   9.133   1.710
53202W        W19743   6.845   2.943   4.601
53203W        W19744   0.419  41.584  11.526
53204W        W19745  12.257   2.952  12.862
53205W        W19746  18.508  10.364   0.765
53206W        W19747  40.446  22.144  13.581
53207W        W19748  18.908  34.364  10.751
53208W        W19749  34.964  28.501  14.546
53209W        W19750  37.139  27.133  13.407
53210W        W19751  30.521  42.015   2.721
53211W        W19752  39.028   6.493  12.569
53212W        W19753  25.532  12.794   1.687
53213W        W19754  17.806   1.347  14.859
53214W        W19755  29.851  19.585  13.005
53215W        W19756  14.768   1.383  11.238
53216W        W19757  29.452  31.326  12.404
53217W        W19758  25.850  37.637  11.163
53218W        W19759  19.721  41.854  14.885
53219W        W19760   2.458   6.680   2.899
53220W        W19761  22.468   3.639   0.414
53221W        W19762  20.948  19.716   1.986
53222W        W19763  17.623  11.324   3.192
53223W        W19764  36.523  27.136   1.819
53224W        W19765   6.537  13.319  13.341
53225W        W19766  36.899  15.254  11.296
53226W        W19767  31.592  27.095   4.391
53227W        W19768  31.605  39.260   3.636
53228W        W19769   8.970  12.379  12.091
53229W        W19770  14.807  10.708  10.922
53230W        W19771  31.179  26.284   1.725
53231W        W19772  31.251  38.020   2.031
53232W        W19773  17.599  10.154   0.337
53233W        W19774  33.885  17.558   3.580
53234W        W19775  41.757  12.755   2.151
53235W        W19776  24.294   6.661  11.115
53236W        W19777  26.104  35.508   3.258
53237W        W19778  18.579   3.513  13.527
53238W        W19779   4.005  25.133  13.850
53239W        W19780  13.431   1.835  11.249
53240W        W19781   3.942  19.675  10.848
53241W        W19782  19.553  27.112   2.173
53242W        W19783  12.726  13.218   0.083
53243W        W19784   2.242  20.303  14.452
53244W        W19785  16.407  17.663  11.650
53245W        W19786   2.865  15.761  13.402
53246W        W19787   5.702   6.166   2.528
53247W        W19788   7.238   7.841   2.771
53248W        W19789  36.306  40.344  14.812
53249W        W19790  25.192  39.289   2.310
53250W        W19791   6.509  13.959  10.351
53251W        W19792  42.193  17.241  12.354
53252W        W19793   1.682   4.415  13.000
53253W        W19794   5.267  27.617   1.181
53254W        W19795   5.213  29.363   2.661
53255W        W19796   2.945  35.504  12.393
53256W        W19797  29.489  28.828  14.010
53257W        W19798  29.488   8.329  10.461
53258W        W19799  32.351  15.630   3.799
53259W        W19800  18.757  20.517   2.771
53260W        W19801   6.992   3.714  11.219
53261W        W19802  18.553  19.869   3.633
53262W        W19803   8.692  40.379   2.591
53263W        W19804  40.832  41.780   1.231
53264W        W19805   2.491  40.051  14.790
53265W        W19806  32.587  12.052  10.649
53266W        W19807  28.170   0.211  14.848
53267W        W19808   7.925  13.300  11.987
53268W        W19809   7.965  27.671   2.305
53269W        W19810  22.902  44.445  13.972
53270W        W19811  10.604  12.626  10.562
53271W        W19812  16.367   0.911   3.338
53272W        W19813  22.089  40.834   1.296
53273W        W19814   5.323  26.868  11.118
53274W        W19815  38.371   0.239   4.613
53275W        W19816  39.581  41.422  11.507
53276W        W19817   7.379   8.751  10.655
53277W        W19818  30.121  26.157   3.638
53278W        W19819   9.771  37.516  11.145
53279W        W19820   6.784  12.359  13.290
53280W        W19821   7.518   2.844  10.361
53281W        W19822   8.451   4.698   0.859
53282W        W19823  41.648   5.425   1.641
53283W        W19824  16.998  34.271  11.531
53284W        W19825   7.165  25.788  12.563
53285W        W19826  16.725  13.579  10.998
53286W        W19827  33.782  20.000   2.867
53287W        W19828  28.422  10.586  14.027
53288W        W19829   9.170   8.829   1.827
53289W        W19830  34.066  15.155  11.534
53290W        W19831   5.020  24.711   2.776
53291W        W19832   5.179  11.750   0.448
53292W        W19833  11.842  20.542   2.343
53293W        W19834  33.324   8.640  10.967
53294W        W19835  27.999  20.550  11.075
53295W        W19836  32.230  36.484  11.194
53296W        W19837  11.702  29.937   3.674
53297W        W19838  33.841  41.696   1.415
53298W        W19839  43.004   1.725   0.482
53299W        W19840  37.569  16.527  14.977
53300W        W19841   8.492  37.574  12.505
53301W        W19842   3.103  35.395   4.191
53302W        W19843  40.115  18.662  12.263
53303W        W19844  36.835  25.495   1.026
53304W        W19845  41.249   9.828   1.817
53305W        W19846  37.052  38.050   3.338
53306W        W19847  30.074  42.786  11.492
53307W        W19848  16.238  11.623   3.758
53308W        W19849   1.968  32.154   9.841
53309W        W19850  30.440   7.830   3.698
53310W        W19851  11.315  13.605   2.189
53311W        W19852  19.945  20.668  13.132
53312W        W19853   9.596  25.789  14.277
53313W        W19854  40.857  22.687  14.427
53314W        W19855  34.355  35.647   3.628
53315W        W19856  14.733  20.454   0.410
53316W        W19857  14.879  20.127  11.933
53317W        W19858  18.194  43.961   1.724
53318W        W19859  34.407  43.457   1.946
53319W        W19860  13.560  39.518  14.450
53320W        W19861  12.768  39.415   2.703
53321W        W19862  20.885  39.993   3.560
53322W        W19863  42.961  32.285   4.261
53323W        W19864  22.736   6.813   4.868
53324W        W19865  32.079  32.876  12.487
53325W        W19866  10.818  13.557  12.534
53326W        W19867   8.812  41.817   1.690
53327W        W19868  32.408   9.267  11.824
53328W        W19869   2.860  35.981   0.707
53329W        W19870   4.977  29.785  10.347
53330W        W19871  15.486  16.518   4.337
53331W        W19872   9.705  22.677  11.526
53332W        W19873  12.084  13.053   0.734
53333W        W19874   6.403   5.898   0.953
53334W        W19875   6.232   0.308  14.105
53335W        W19876   5.632  34.744   2.702
53336W        W19877  38.398  19.826  11.895
53337W        W19878  12.107  40.980  11.846
53338W        W19879  40.280  27.624  10.737
53339W        W19880  33.606  12.600  14.904
53340W        W19881  40.257  29.602   4.394
53341W        W19882  17.195  19.294  11.205
53342W        W19883   1.787  40.971  12.069
53343W        W19884  31.234   8.970  11.229
53344W        W19885  18.558  10.733   1.745
53345W        W19886  14.559  41.378  12.402
53346W        W19887  43.731  11.401  10.703
53347W        W19888   0.747  19.556   2.585
53348W        W19889  42.813  36.651   2.295
53349W        W19890  17.604  15.194   1.474
53350W        W19891  23.872  37.692   2.683
53351W        W19892  11.802  10.971   2.842
53352W        W19893  43.142  12.057  14.020
53353W        W19894  22.524  39.470   1.138
53354W        W19895  43.997  34.633  10.695
53355W        W19896  27.738   4.819  12.559
53356W        W19897  18.130  43.573  11.601
53357W        W19898   6.400  30.498   5.093
53358W        W19899  39.077  39.517  14.680
53359W        W19900  24.598  42.753  10.838
53360W        W19901   2.234  20.776  11.094
53361W        W19902  23.000   3.143  10.170
53362W        W19903  11.370  35.376   2.742
53363W        W19904  13.518  18.701  14.286
53364W        W19905  22.379  18.831   2.198
53365W        W19906  18.168   3.327  14.980
53366W        W19907  23.637  32.793  14.857
53367W        W19908  40.815  17.232  12.133
53368W        W19909  33.916  43.768  11.121
53369W        W19910  37.836  41.836   0.800
53370W        W19911  43.243  19.201  10.630
53371W        W19912  34.620   2.792   0.260
53372W        W19913   0.357   5.843  14.036
53373W        W19914  43.620  31.444   2.967
53374W        W19915  42.302  19.268  14.237
53375W        W19916   2.811   6.837   1.229
53376W        W19917  31.556  38.304   0.800
53377W        W19918   0.228  40.785   4.857
53378W        W19919  42.568  17.562   3.786
53379W        W19920   4.684  24.687   4.235
53380W        W19921  33.172  24.228   3.841
53381W        W19922  13.590  39.476   4.469
53382W        W19923  42.342  29.078  12.941
53383W        W19924  28.823  24.672  14.606
53384W        W19925   7.801  24.684   1.273
53385W        W19926  13.621   9.837  12.041
53386W        W19927  36.847  38.944  12.906
53387W        W19928  43.776  18.159  12.472
53388W        W19929  44.103  35.133  11.591
53389W        W19930  10.943  39.842  10.283
53390W        W19931  33.991  25.441   4.141
53391W        W19932  25.713   0.726   1.292
53392W        W19933  23.409  27.416  10.939
53393W        W19934   7.289  12.615  13.978
53394W        W19935   7.700  31.364   3.281
53395W        W19936  40.954  35.443   3.496
53396W        W19937  20.934   6.908  10.696
53397W        W19938  24.049  12.256  11.696
53398W        W19939   7.140  10.205  11.197
53399W        W19940   3.710  34.281   4.705
53400W        W19941  44.868  39.785  14.366
53401W        W19942  31.130  31.086  11.009
53402W        W19943  18.360  10.711   0.351
53403W        W19944  13.661  37.437   2.318
53404W        W19945  40.442  40.089  12.096
53405W        W19946  26.052  28.533   0.814
53406W        W19947  31.557   7.464  11.220
53407W        W19948   4.057  32.669  12.520
53408W        W19949  10.931  21.115   3.042
53409W        W19950  10.787  20.058  13.451
53410W        W19951  12.263  32.362   1.875
53411W        W19952   7.056   4.592  11.156
53412W        W19953  37.809  40.228  13.778
53413W        W19954  38.808   0.572   0.459
53414W        W19955  36.893  41.865   3.022
53415W        W19956  42.448  19.769  12.168
53416W        W19957  39.437  14.035   0.788
53417W        W19958   2.851  38.050  12.955
53418W        W19959  36.109   4.970   1.707
53419W        W19960  25.510   6.219   0.715
53420W        W19961  28.194  31.047  11.970
53421W        W19962  24.242  15.666   4.827
53422W        W19963  39.064   4.513  11.578
53423W        W19964   7.408  23.215   1.478
53424W        W19965  32.131  17.672   1.323
53425W        W19966  16.180  31.089   2.821
53426W        W19967   3.932  39.594  12.905
53427W        W19968  20.536  40.514  14.260
53428W        W19969   4.970  21.001   3.882
53429W        W19970  27.536  38.402   3.594
53430W        W19971  16.132  41.339   1.794
53431W        W19972   7.907  40.957  10.350
53432W        W19973  19.487  39.750  11.624
53433W        W19974  11.761  30.958   2.749
53434W        W19975  14.764   1.207  11.717
53435W        W19976  11.861  40.870   2.643
53436W        W19977  21.280   8.167   2.659
53437W        W19978  33.046  33.334  13.335
53438W        W19979  18.099  30.875  12.080
53439W        W19980  13.127  28.615  14.047
53440W        W19981  16.708  14.767  11.084
53441W        W19982  35.428  34.449  11.111
53442W        W19983  24.984  37.607   4.191
53443W        W19984   2.538  36.487  14.043
53444W        W19985  21.971  35.460   1.791
53445W        W19986  40.917  42.072   0.773
53446W        W19987   0.763  40.289  10.653
53447W        W19988  38.017  16.261   2.774
53448W        W19989  28.933  10.497  10.998
53449W        W19990  40.658  18.304  12.879
53450W        W19991   1.320  40.983  10.782
53451W        W19992   0.378  18.516   3.542
53452W        W19993   2.950   5.902  11.677
53453W        W19994  29.518  29.530   3.680
53454W        W19995  42.862  14.299   2.714
53455W        W19996   1.457   6.614   3.037
53456W        W19997   6.330  35.052  11.178
53457W        W19998  29.089  38.852  13.303
53458W        W19999  41.394   9.880   2.720
53459W        W20000  28.194  35.095  14.504
53460W        W20001  10.594  17.531  10.576
53461W        W20002  44.967  35.698   4.571
53462W        W20003  37.531  32.978   1.621
53463W        W20004  23.524   5.921  10.704
53464W        W20005  38.459  10.436  12.024
53465W        W20006   1.285  25.835   2.261
53466W        W20007  19.815  27.790   3.224
53467W        W20008  22.136  38.492  14.818
53468W        W20009   9.275  16.401   4.133
53469W        W20010  20.037  21.541   3.798
53470W        W20011  14.503  21.284  14.576
53471W        W20012  34.819   6.369   0.327
53472W        W20013  15.144  11.682   3.358
53473W        W20014  11.741  20.700  12.535
53474W        W20015  43.466  23.062  11.152
53475W        W20016   3.451  11.879  12.352
53476W        W20017  20.674  28.314   0.956
53477W        W20018   7.735  32.421   4.258
53478W        W20019   7.924   7.099  14.548
53479W        W20020  44.895  43.142  11.863
53480W        W20021  23.697  30.946  13.880
53481W        W20022  16.044  37.435  13.826
53482W        W20023  29.850  21.195  10.670
53483W        W20024  14.345   9.350  12.060
53484W        W20025  40.774  14.222  14.475
53485W        W20026  31.950  16.820  10.783
53486W        W20027   1.517  33.952  10.449
53487W        W20028  35.893   0.569   0.925
53488W        W20029  29.171  10.645   1.215
53489W        W20030  42.205  10.907  11.512
53490W        W20031  17.909   9.297  12.925
53491W        W20032  34.864  16.047   2.674
53492W        W20033  28.673   2.948  14.018
53493W        W20034   3.649  33.690   3.177
53494W        W20035  31.975  33.594   0.887
53495W        W20036  18.331   9.102   1.320
53496W        W20037  37.418  10.617   0.728
53497W        W20038  15.707  19.752   9.891
53498W        W20039  23.700  16.279  10.714
53499W        W20040   6.207   6.224   4.998
53500W        W20041  24.726   5.794   0.224
53501W        W20042  21.498  16.497   3.312
53502W        W20043  38.989  23.033   3.077
53503W        W20044  20.284  17.322   1.333
53504W        W20045  22.810  31.260   4.112
53505W        W20046  23.095   1.923  14.751
53506W        W20047  17.393   1.806   3.758
53507W        W20048  11.655  42.820  12.499
53508W        W20049  22.128  42.520   0.265
53509W        W20050  38.012  39.449   3.544
53510W        W20051  10.875   7.433  14.896
53511W        W20052  12.179  19.208  14.743
53512W        W20053  37.071   9.035  10.735
53513W        W20054  30.102  28.053   3.230
53514W        W20055  23.500  13.310   0.368
53515W        W20056  30.971  41.806   0.455
53516W        W20057  42.966   7.250   2.696
53517W        W20058   5.994  10.323  14.676
53518W        W20059  44.068   9.038   0.857
53519W        W20060  33.835  20.900   1.987
53520W        W20061   0.721   2.739   4.065
53521W        W20062   8.039  42.727  14.859
53522W        W20063  32.032  38.391  11.549
53523W        W20064  14.808  37.275   1.879
53524W        W20065   9.411   5.665  11.904
53525W        W20066  26.399  19.963  13.447
53526W        W20067   4.634  36.463   2.135
53527W        W20068   4.684  35.617  11.205
53528W        W20069   4.486   9.361  12.604
53529W        W20070  11.898  33.069  13.739
53530W        W20071  12.411  27.929   4.122
53531W        W20072  34.335  21.047  10.689
53532W        W20073  17.193  38.869  13.404
53533W        W20074   4.689   9.342   0.993
53534W        W20075  41.426  31.041   0.541
53535W        W20076  41.086  39.955   0.390
53536W        W20077  41.774  13.455  13.055
53537W        W20078   6.401  22.221   2.918
53538W        W20079  23.978  41.907   0.311
53539W        W20080  24.303  13.684  14.309
53540W        W20081   5.700  38.471  11.495
53541W        W20082  30.159  18.594   1.332
53542W        W20083  29.733  11.015   3.881
53543W        W20084   6.840  38.847  11.766
53544W        W20085  35.062  25.784  11.705
53545W        W20086  12.705  25.613  13.897
53546W        W20087  38.403  14.619  10.716
53547W        W20088  38.608  10.517  13.343
53548W        W20089   9.830  42.677  10.123
53549W        W20090  24.525  11.788   3.210
53550W        W20091  41.935  36.961   1.855
53551W        W20092   2.948   8.390   1.815
53552W        W20093  40.345  36.843  14.909
53553W        W20094  33.432  41.651   1.083
53554W        W20095  27.589  43.488   0.989
53555W        W20096  30.581   9.612   4.080
53556W        W20097   2.235  25.993  11.849
53557W        W20098  20.235  15.613  12.582
53558W        W20099  13.836  16.446  14.005
53559W        W20100  11.111   7.297  10.485
53560W        W20101  14.206   1.949   4.679
53561W        W20102  44.697  40.987  14.067
53562W        W20103  37.050  19.999  12.157
53563W        W20104  25.087  31.939  10.733
53564W        W20105  25.910  40.029   1.996
53565W        W20106  41.516   1.190   0.869
53566W        W20107  12.248  25.667  13.589
53567W        W20108   3.957  16.657  14.015
53568W        W20109   3.471  15.369   4.799
53569W        W20110  26.048  16.095   1.402
53570W        W20111   0.949  36.824  13.397
53571W        W20112  42.073  14.863   4.084
53572W        W20113   7.963  16.705   4.772
53573W        W20114  36.957  18.279  10.745
53574W        W20115  41.289   3.955  11.049
53575W        W20116  31.469  23.303  11.581
53576W        W20117  22.527  23.706  13.152
53577W        W20118  33.121   6.771   0.177
53578W        W20119  34.725   6.614  14.103
53579W        W20120  31.953   8.401  14.227
53580W        W20121  12.629   2.222  14.878
53581W        W20122  13.339  27.893   4.236
53582W        W20123  22.621   6.756   0.232
53583W        W20124   0.532  27.225  14.333
53584W        W20125   0.887  39.122  13.847
53585W        W20126   0.792   9.350   1.668
53586W        W20127  44.798  26.103  14.812
53587W        W20128  28.346  20.606  11.564
53588W        W20129   6.536  27.668   5.296
53589W        W20130  13.903  39.030  13.051
53590W        W20131  28.694  28.077  11.536
53591W        W20132  23.252  22.460   3.243
53592W        W20133  28.741   6.988  13.457
53593W        W20134  18.586   0.022   1.812
53594W        W20135  40.875  14.130   2.763
53595W        W20136  39.373  31.425   4.062
53596W        W20137   0.792  38.454  11.918
53597W        W20138  20.350  27.716   0.213
53598W        W20139  39.905  13.603  12.351
53599W        W20140  19.746  13.345  14.880
53600W        W20141  10.186   1.986   2.711
53601W        W20142  15.303  31.223   2.363
53602W        W20143  19.275   2.546  13.371
53603W        W20144  18.563  36.452   0.735
53604W        W20145  16.649  40.668   1.960
53605W        W20146  17.564  18.203  12.204
53606W        W20147   2.008  16.427   3.796
53607W        W20148  28.997  37.011   2.196
53608W        W20149  21.574  37.896   3.073
53609W        W20150  21.200   5.882  14.459
53610W        W20151  31.066  42.496   9.966
53611W        W20152  11.628  27.964   3.686
53612W        W20153  34.942   6.388   1.966
53613W        W20154  18.651  14.591  14.276
53614W        W20155  43.228  20.864  12.993
53615W        W20156  18.077  19.677   3.794
53616W        W20157  39.894   3.314   0.772
53617W        W20158  32.926  24.144   4.646
53618W        W20159   9.347  20.589  12.582
53619W        W20160  13.334  11.880  13.421
53620W        W20161   6.333  21.342  10.699
53621W        W20162  32.082  22.871   2.325
53622W        W20163  12.110  37.928  12.815
53623W        W20164  22.976  37.361  14.833
53624W        W20165  17.732  20.952   2.728
53625W        W20166   4.220  20.547   0.729
53626W        W20167  29.667  14.929   2.969
53627W        W20168  25.754  41.745   1.438
53628W        W20169  28.139  13.099   2.381
53629W        W20170  16.424  28.972   0.378
53630W        W20171   6.111  13.260   2.415
53631W        W20172  18.493   4.919   3.679
53632W        W20173  24.959  21.500   2.330
53633W        W20174   0.837  11.803   4.690
53634W        W20175  18.592  14.186  12.997
53635W        W20176  35.315  12.186   3.150
53636W        W20177  18.291  28.576  12.253
53637W        W20178  17.671   1.348  11.099
53638W        W20179  33.365   2.367  14.580
53639W        W20180  17.961  35.507  11.676
53640W        W20181  44.605  29.600   1.398
53641W        W20182  26.365   7.589  13.501
53642W        W20183  10.684  22.215   3.672
53643W        W20184   9.407  16.583   2.126
53644W        W20185  35.994  19.671  13.624
53645W        W20186  15.158  21.686   1.510
53646W        W20187  31.409  16.266  14.476
53647W        W20188  22.957  23.979   1.205
53648W        W20189  26.208   5.296   5.485
53649W        W20190  35.301  10.918   0.007
53650W        W20191  28.387  34.050   2.653
53651W        W20192  37.894  27.009   3.127
53652W        W20193   5.276  34.912  13.437
53653W        W20194  23.159  40.776   2.761
53654W        W20195   4.375   5.972   4.681
53655W        W20196   1.637   7.367   0.501
53656W        W20197  25.910  15.860   3.238
53657W        W20198  34.977   1.521   4.497
53658W        W20199  12.209   0.763  12.211
53659W        W20200   0.820   9.647   4.102
53660W        W20201  22.595   3.194  10.508
53661W        W20202  13.131  19.305   0.012
53662W        W20203  17.838  39.885  12.940
53663W        W20204  39.857   3.740   4.858
53664W        W20205   5.420   8.081   4.594
53665W        W20206  42.990  14.361   4.123
53666W        W20207   8.413  13.239  11.891
53667W        W20208   2.836  22.568  13.565
53668W        W20209  34.167   0.776  10.610
53669W        W20210  20.290   3.659   3.174
53670W        W20211  10.214   0.526   2.236
53671W        W20212   5.840  12.397  13.356
53672W        W20213  31.857   8.352  14.730
53673W        W20214   0.405  21.713   3.638
53674W        W20215  11.156  35.175   0.282
53675W        W20216  19.285  40.877  12.519
53676W        W20217  29.479   6.684  10.377
53677W        W20218  21.522  26.945  12.614
53678W        W20219  31.966  40.771   2.926
53679W        W20220  43.897  17.674   1.747
53680W        W20221  41.014  26.522   3.994
53681W        W20222   7.133  41.565  14.771
53682W        W20223  38.591  19.980  12.573
53683W        W20224  42.776  27.558   2.724
53684W        W20225  37.295  37.867   4.635
53685W        W20226  16.678  43.096  11.114
53686W        W20227  35.337   7.143  11.477
53687W        W20228  34.790   5.891  11.655
53688W        W20229  13.157  17.656  14.291
53689W        W20230  37.493   6.045  13.026
53690W        W20231  17.160  12.734  11.569
53691W        W20232  17.577  10.145   4.409
53692W        W20233  11.712  18.642   1.285
53693W        W20234  21.438  22.552   0.493
53694W        W20235   9.598  22.791   1.696
53695W        W20236  43.368  11.206  11.611
53696W        W20237   5.184  41.607   2.942
53697W        W20238  17.560  27.701  14.438
53698W        W20239  13.075  36.006   3.744
53699W        W20240  22.556   4.135   0.310
53700W        W20241   2.128   0.895  11.534
53701W        W20242  33.195  29.550   2.392
53702W        W20243   9.228  11.774   3.318
53703W        W20244  13.155  38.713   5.332
53704W        W20245  23.153  43.996   4.594
53705W        W20246  26.865   4.758  13.370
53706W        W20247  41.037  18.704  13.965
53707W        W20248   6.235  14.752   1.831
53708W        W20249  13.394   5.919  12.035
53709W        W20250  19.758  24.404   3.457
53710W        W20251  25.328  44.501   2.648
53711W        W20252  15.315  11.240  14.926
53712W        W20253   4.076  19.327  11.194
53713W        W20254  15.142  21.603   0.087
53714W        W20255  17.642   9.838  10.888
53715W        W20256  44.375  27.944  10.979
53716W        W20257  10.123  31.443  11.625
53717W        W20258  41.805  27.229  11.947
53718W        W20259  36.483   9.214  14.391
53719W        W20260  31.719  23.772  12.625
53720W        W20261  16.820  27.002   3.143
53721W        W20262  10.832   7.356   2.398
53722W        W20263  35.053   8.354   4.523
53723W        W20264  26.681  34.888  10.620
53724W        W20265  28.470   9.673  13.554
53725W        W20266  42.248  34.892   0.229
53726W        W20267  36.736  18.372  10.293
53727W        W20268   5.769  32.362  10.502
53728W        W20269  17.780  39.832  11.042
53729W        W20270  38.725  13.200   1.528
53730W        W20271  18.092  37.046   3.226
53731W        W20272  40.976  14.212   3.668
53732W        W20273  19.539  22.859  10.775
53733W        W20274  18.653  31.991   0.362
53734W        W20275  22.157  38.517  14.182
53735W        W20276  33.384   7.615   2.253
53736W        W20277  17.263  28.171   3.266
53737W        W20278   8.912  29.190   3.660
53738W        W20279   8.955   7.644  10.709
53739W        W20280  39.941  22.881  12.994
53740W        W20281   3.307  19.263  11.633
53741W        W20282   9.298  40.981   4.598
53742W        W20283   8.615  26.734   4.470
53743W        W20284  29.104  40.882   2.766
53744W        W20285  24.960   6.730  14.371
53745W        W20286   3.919  25.553  14.445
53746W        W20287  29.059  33.928  14.961
53747W        W20288  17.314  42.047   2.860
53748W        W20289  44.530  34.357  12.521
53749W        W20290  42.496  31.116  10.795
53750W        W20291   4.348  14.786   1.930
53751W        W20292   4.722  16.288  12.481
53752W        W20293   1.606  40.496  12.005
53753W        W20294  25.073  25.223  11.710
53754W        W20295   9.525  14.089   1.149
53755W        W20296   3.220   2.186  14.191
53756W        W20297  27.440  39.072  13.843
53757W        W20298  13.998  21.495  12.072
53758W        W20299   5.933  25.077  13.998
53759W        W20300  43.838  22.647   4.167
53760W        W20301  24.568  24.274  13.135
53761W        W20302  42.240  38.545   3.707
53762W        W20303  16.398   7.272  13.367
53763W        W20304  22.931   9.183  10.719
53764W        W20305  25.312  12.894  10.667
53765W        W20306  34.375  42.887   2.170
53766W        W20307  28.435  31.918  12.829
53767W        W20308  21.954  38.554   4.138
53768W        W20309  41.288  29.648   4.230
53769W        W20310  36.041  35.487  14.865
53770W        W20311   3.784  27.292   4.175
53771W        W20312  44.519  25.595  10.552
53772W        W20313  42.929  43.547  12.057
53773W        W20314  12.086   3.547  13.443
53774W        W20315   0.749  28.536   3.809
53775W        W20316   5.985  27.342  12.071
53776W        W20317  24.153   6.278  12.807
53777W        W20318  27.632  33.447   3.605
53778W        W20319  21.315  29.394  12.539
53779W        W20320   2.397   5.007   4.178
53780W        W20321  27.566  34.092   4.824
53781W        W20322   9.906  41.713   0.249
53782W        W20323   9.330  16.122   0.225
53783W        W20324  11.509  17.699   1.450
53784W        W20325  16.045   8.749   4.608
53785W        W20326  40.859   4.723   4.580
53786W        W20327  30.362  23.452  12.496
53787W        W20328  23.955  13.092   2.511
53788W        W20329  33.106  38.447  12.969
53789W        W20330  20.509  11.680  10.494
53790W        W20331   2.692   3.850  14.471
53791W        W20332  10.108  37.419   2.386
53792W        W20333  37.363  44.097  13.780
53793W        W20334  27.557  26.322  14.959
53794W        W20335   8.192  12.810   2.105
53795W        W20336   6.477   6.770   0.477
53796W        W20337  26.588  34.875   4.132
53797W        W20338  14.397  40.761  11.975
53798W        W20339  34.202  37.388   3.998
53799W        W20340  44.086  16.433  10.063
53800W        W20341  42.684  16.635  14.340
53801W        W20342  44.801  25.187   0.645
53802W        W20343   9.201  38.601   1.845
53803W        W20344  14.426  12.925  13.962
53804W        W20345  26.087  28.569  13.495
53805W        W20346  11.870  12.959   1.260
53806W        W20347  29.926   1.396   1.779
53807W        W20348  35.628  29.181   0.890
53808W        W20349  29.153  29.971  13.075
53809W        W20350  10.057   7.336   4.925
53810W        W20351  25.710  37.753  13.564
53811W        W20352  37.150  27.374  12.076
53812W        W20353  36.646  31.579   0.753
53813W        W20354  37.532  23.361  14.726
53814W        W20355  39.753   4.270   4.157
53815W        W20356  32.874  12.095   4.190
53816W        W20357  41.026   3.060  12.838
53817W        W20358   0.516   4.304   1.233
53818W        W20359  29.890  33.109   0.004
53819W        W20360  18.154  34.122   0.277
53820W        W20361   4.411  42.794   3.351
53821W        W20362  37.370  31.632  13.307
53822W        W20363  16.117   6.845  13.487
53823W        W20364  16.175  21.584   1.379
53824W        W20365  34.657  41.445   1.457
53825W        W20366  32.215   9.174   2.874
53826W        W20367   6.198  43.495  12.053
53827W        W20368  31.057   5.665  12.492
53828W        W20369  20.166   5.656   5.072
53829W        W20370  24.887  36.717  10.910
53830W        W20371   4.391   5.364  14.156
53831W        W20372  33.646  36.717  12.961
53832W        W20373  29.568   4.531  11.467
53833W        W20374  31.509  21.061   3.521
53834W        W20375   7.940  14.854  12.876
53835W        W20376  10.152  44.694  10.568
53836W        W20377  22.314  42.097  11.099
53837W        W20378  20.645  17.288   1.883
53838W        W20379  19.535  10.583  14.547
53839W        W20380   0.365  18.987  14.500
53840W        W20381  29.790   5.757  12.084
53841W        W20382  11.830  24.706  11.273
53842W        W20383  24.948  34.082   0.020
53843W        W20384   3.847  19.248   1.280
53844W        W20385  38.682  28.733   3.132
53845W        W20386  30.158   0.202   1.327
53846W        W20387  25.749   9.686   0.249
53847W        W20388  14.301  12.677  13.088
53848W        W20389  38.262  21.144   3.981
53849W        W20390  31.110  23.533  13.013
53850W        W20391  34.010  35.510  14.883
53851W        W20392  19.688  28.399  13.694
53852W        W20393  23.786  20.322   3.369
53853W        W20394   2.999  34.505  11.003
53854W        W20395  10.322  44.081  12.471
53855W        W20396  19.654   6.844  10.193
53856W        W20397  35.057  12.621   3.652
53857W        W20398  30.690   3.411   3.243
53858W        W20399  19.059  16.031   2.317
53859W        W20400   4.167  42.742   1.039
53860W        W20401  37.383  38.473   3.457
53861W        W20402   2.594  22.956  13.843
53862W        W20403   5.725  38.408  12.396
53863W        W20404  34.661  13.674   4.350
53864W        W20405  43.706   4.965  12.588
53865W        W20406  33.037  25.425  13.956
53866W        W20407  39.496  27.765   1.812
53867W        W20408  32.065  37.079   3.884
53868W        W20409   1.853  28.318   3.317
53869W        W20410  18.053  32.026  12.330
53870W        W20411  23.188  18.226  10.644
53871W        W20412  31.409   7.713  12.591
53872W        W20413   3.307  39.353   4.074
53873W        W20414  13.129  16.820   4.905
53874W        W20415  44.053   3.851   1.214
53875W        W20416   2.740  18.747   1.789
53876W        W20417  33.660  24.259  11.962
53877W        W20418  13.730  22.505   4.304
53878W        W20419  39.416  25.327   4.862
53879W        W20420  30.149  23.204  14.860
53880W        W20421  19.322   5.039   0.461
53881W        W20422   6.888  42.443  11.045
53882W        W20423  27.947  10.892  12.023
53883W        W20424   7.350   9.982  12.497
53884W        W20425  42.266  29.905   0.237
53885W        W20426  39.965  27.797   2.810
53886W        W20427  30.341  40.996   0.257
53887W        W20428   4.655  23.541   0.648
53888W        W20429   5.768  34.874  12.931
53889W        W20430  32.545   6.373  13.067
53890W        W20431   8.289   5.556   4.036
53891W        W20432  39.469   4.012  14.519
53892W        W20433   1.442   6.555  12.671
53893W        W20434  37.889  34.869   1.804
53894W        W20435   7.144   7.954   0.456
53895W        W20436  31.158  22.152   0.905
53896W        W20437  11.392  22.588  13.553
53897W        W20438  20.241  31.468  11.657
53898W        W20439   6.823  22.462   0.057
53899W        W20440  44.448  42.103  13.265
53900W        W20441   0.925  15.587  11.913
53901W        W20442   6.716  12.188   0.723
53902W        W20443   2.879  32.359  12.079
53903W        W20444  28.268  27.037   1.842
53904W        W20445   2.006  18.072   1.384
53905W        W20446   5.723  12.465   4.142
53906W        W20447  19.592  38.759  11.776
53907W        W20448  44.808  18.224   4.733
53908W        W20449   1.758  35.093   2.880
53909W        W20450   0.519  22.204  13.404
53910W        W20451  17.470  35.367   4.622
53911W        W20452   2.981  44.030   3.884
53912W        W20453   8.838  18.233  10.669
53913W        W20454  36.685  10.574   1.322
53914W        W20455  25.558  39.542  14.049
53915W        W20456   1.983  42.924   0.345
53916W        W20457   6.185  11.061   1.183
53917W        W20458  28.732   1.368   0.283
53918W        W20459  18.547  32.586   5.345
53919W        W20460  41.821  30.985   2.321
53920W        W20461  16.025  40.917   0.244
53921W        W20462  40.818   1.912  11.674
53922W        W20463  35.405  28.425  11.204
53923W        W20464   6.228  32.949   2.802
53924W        W20465  24.724  41.898   4.688
53925W        W20466  15.334   9.921   1.212
53926W        W20467  15.680  18.510  10.775
53927W        W20468  36.649  32.511  12.861
53928W        W20469  29.089  41.795  12.430
53929W        W20470  13.475  31.511  12.872
53930W        W20471  18.680  41.232   0.918
53931W        W20472  34.957  33.577  11.350
53932W        W20473  27.827  21.155   2.706
53933W        W20474   7.706  28.523   1.251
53934W        W20475  23.103  30.557  11.904
53935W        W20476  29.221  22.117  13.005
53936W        W20477   5.243  28.378  13.911
53937W        W20478  40.425  24.643  13.370
53938W        W20479   4.571  21.267   3.658
53939W        W20480   4.305  42.555   4.148
53940W        W20481  21.513  28.594  13.355
53941W        W20482  40.354   0.414  11.812
53942W        W20483   0.362   5.161   2.171
53943W        W20484  11.869  40.214  10.645
53944W        W20485   8.582   0.788  13.544
53945W        W20486  30.097  40.454   3.261
53946W        W20487  16.890  15.385   4.756
53947W        W20488  36.766  29.535   1.854
53948W        W20489  32.957  36.412   0.952
53949W        W20490  43.573  37.903   1.385
53950W        W20491  29.062  16.584  12.247
53951W        W20492   5.982  15.377   4.477
53952W        W20493  13.038  18.534   1.286
53953W        W20494  43.370  15.183  10.213
53954W        W20495   8.123  35.598  11.453
53955W        W20496  19.672  18.419  13.883
53956W        W20497  40.479  24.907  12.515
53957W        W20498  18.566  34.582  14.512
53958W        W20499  43.456  14.755  12.379
53959W        W20500  38.534  19.748  13.037
53960W        W20501  24.709  38.823  13.377
53961W        W20502  14.195  35.249   0.897
53962W        W20503  10.311   2.376   2.211
53963W        W20504   5.268  31.518   0.879
53964W        W20505  43.161   8.768   1.235
53965W        W20506  28.038  24.523   2.728
53966W        W20507  36.489  15.276  12.582
53967W        W20508  20.790  26.223   2.366
53968W        W20509   2.314  40.830   2.434
53969W        W20510  34.473  18.857   3.645
53970W        W20511  20.823   3.711  10.499
53971W        W20512   0.385  28.020   0.885
53972W        W20513   8.612  36.493   0.532
53973W        W20514  21.844   2.373  12.512
53974W        W20515   0.374  44.174  11.580
53975W        W20516   3.907  42.968  14.842
53976W        W20517  15.248   0.526   3.659
53977W        W20518  24.506  21.670  12.553
53978W        W20519  18.618  11.306   3.254
53979W        W20520  13.833  36.928   0.858
53980W        W20521  24.947  23.379  10.746
53981W        W20522   2.001  39.496  13.035
53982W        W20523  44.208   5.451   4.543
53983W        W20524  10.666  37.898  10.515
53984W        W20525   0.366   8.646  13.356
53985W        W20526  25.658  12.418   2.835
53986W        W20527  31.045  30.643   3.734
53987W        W20528   4.825   5.755   1.745
53988W        W20529   0.283  13.913  10.665
53989W        W20530  40.050  35.451  12.672
53990W        W20531  18.536  36.966   1.426
53991W        W20532   0.542  14.622   2.323
53992W        W20533   5.217   3.293   0.312
53993W        W20534   9.445   4.471   1.923
53994W        W20535  39.362  19.738   2.368
53995W        W20536  38.212  39.268  13.839
53996W        W20537  25.058  11.934   1.912
53997W        W20538  33.634  14.431   3.026
53998W        W20539  24.241  26.309  12.136
53999W        W20540  31.756  29.557  12.435
54000W        W20541  34.826  30.530   2.647
54001W        W20542  31.610  31.783  13.244
54002W        W20543  25.962  33.077  13.888
54003W        W20544  28.446  29.429  12.624
54004W        W20545  35.862  27.267  14.303
54005W        W20546  30.933  33.506   1.783
54006W        W20547  17.985  12.862  13.251
54007W        W20548  39.352   8.108  12.913
54008W        W20549  29.611  24.795  14.368
54009W        W20550  37.917  18.199   3.234
54010W        W20551  23.726  44.483  11.501
54011W        W20552  37.550  39.321   2.278
54012W        W20553  29.030  25.558   2.852
54013W        W20554  22.699  22.212  12.518
54014W        W20555  16.651   3.668   2.370
54015W        W20556  36.624  23.630   1.264
54016W        W20557  30.357  25.650  12.013
54017W        W20558  39.749  42.378   1.797
54018W        W20559  11.864  13.673   3.893
54019W        W20560  27.522   3.146   2.885
54020W        W20561  37.345  15.366  11.057
54021W        W20562   8.620  19.945  12.585
54022W        W20563  21.271  17.207   1.367
54023W        W20564  25.615  41.120  12.919
54024W        W20565  15.262   1.502   0.846
54025W        W20566  24.017  11.366   9.746
54026W        W20567  39.914   1.282  13.116
54027W        W20568  34.543  18.428   1.622
54028W        W20569  34.568  22.278   4.142
54029W        W20570  37.376  10.233   1.786
54030W        W20571  33.783  42.503   0.180
54031W        W20572   0.691  35.946   2.338
54032W        W20573  15.112  23.707   2.743
54033W        W20574  44.240   3.370  10.590
54034W        W20575  13.856   3.847  13.788
54035W        W20576  18.554  41.415  10.437
54036W        W20577  39.959  34.589   4.153
54037W        W20578  15.406  41.410  12.939
54038W        W20579  30.437  43.579   1.425
54039W        W20580  11.409  20.784   4.010
54040W        W20581  12.658  28.531   1.341
54041W        W20582   8.143  33.613  12.453
54042W        W20583   3.761  38.760   4.156
54043W        W20584  38.787  12.767  10.172
54044W        W20585  26.668   3.278  14.464
54045W        W20586   1.479  23.032  11.916
54046W        W20587  14.138  28.693  11.623
54047W        W20588  21.446  27.978  12.937
54048W        W20589  25.700  10.955   1.344
54049W        W20590  22.858  36.189  12.497
54050W        W20591  11.244  21.929  14.385
54051W        W20592  32.586  26.710   0.369
54052W        W20593  15.051  23.776  12.628
54053W        W20594  19.781  42.781  13.832
54054W        W20595  30.662  35.519   2.246
54055W        W20596  19.523  40.001   4.030
54056W        W20597  39.511  20.581   3.234
54057W        W20598  27.419  19.255   2.589
54058W        W20599  19.626   8.123  10.017
54059W        W20600  18.053  40.331  13.641
54060W        W20601  41.316   9.626  14.419
54061W        W20602  32.523  17.740   3.370
54062W        W20603   3.204  29.077   1.055
54063W        W20604  20.083  16.846   5.357
54064W        W20605  28.403  24.122   3.359
54065W        W20606  28.082   7.512  14.710
54066W        W20607  10.732   3.571   4.256
54067W        W20608  18.958  41.540   3.054
54068W        W20609  28.385  33.159  13.475
54069W        W20610   6.029  43.763  11.137
54070W        W20611   3.262  32.072  14.836
54071W        W20612   4.410  16.676   4.746
54072W        W20613  34.033  31.625   3.273
54073W        W20614  27.531   9.320   3.805
54074W        W20615  35.491  19.825  12.040
54075W        W20616  10.241  37.709  12.435
54076W        W20617  23.125  37.423   3.439
54077W        W20618  18.414  21.537  11.728
54078W        W20619   7.354  42.103   0.817
54079W        W20620   6.480  44.975  13.793
54080W        W20621   5.263  22.465  11.640
54081W        W20622  31.007  16.731  12.908
54082W        W20623  23.081   7.789  12.959
54083W        W20624  21.110  31.619   1.318
54084W        W20625   4.242  39.467   4.700
54085W        W20626  17.284   9.224   1.208
54086W        W20627  16.439  22.267   4.091
54087W        W20628   0.202  18.500   0.928
54088W        W20629  23.109   1.971  12.896
54089W        W20630  44.747   5.000   3.721
54090W        W20631  14.184   3.535  11.126
54091W        W20632  36.997  12.661   3.639
54092W        W20633  32.002  29.253  11.191
54093W        W20634  15.382  17.238   1.749
54094W        W20635  40.840  11.586  10.275
54095W        W20636  35.944   4.015  13.302
54096W        W20637  29.060  44.256   4.135
54097W        W20638   0.242  21.727   0.386
54098W        W20639   1.802  20.495   2.883
54099W        W20640  16.589  25.937  12.927
54100W        W20641  27.524  19.157   1.697
54101W        W20642  11.351  18.098  14.321
54102W        W20643  27.127  43.471  13.876
54103W        W20644   0.079  24.696  10.698
54104W        W20645  43.449  29.888   3.674
54105W        W20646  34.651  22.180   3.279
54106W        W20647  10.027  20.248   3.171
54107W        W20648   6.718   6.069  12.029
54108W        W20649  40.202  26.093   4.116
54109W        W20650  12.172  18.373  14.496
54110W        W20651  15.179  38.540   4.552
54111W        W20652  25.674  17.286   2.268
54112W        W20653   0.133  18.279  13.896
54113W        W20654  31.358   1.901  14.312
54114W        W20655  12.614  41.927  12.461
54115W        W20656  10.273   5.432   0.352
54116W        W20657  19.507  36.526   4.032
54117W        W20658  37.611  17.687  13.517
54118W        W20659  28.717  43.093   4.600
54119W        W20660   2.900  24.745  11.929
54120W        W20661  26.351  10.944   1.768
54121W        W20662  12.268   3.589  11.130
54122W        W20663   2.391  30.890   3.842
54123W        W20664   7.039  15.443   4.452
54124W        W20665  30.813  35.463  11.078
54125W        W20666  18.833  28.670   0.358
54126W        W20667   2.235  43.184  14.988
54127W        W20668  17.031  14.894  13.302
54128W        W20669  33.689  34.550  11.111
54129W        W20670  30.471  36.955  11.388
54130W        W20671   9.779  39.274  11.519
54131W        W20672  21.212  23.046  14.849
54132W        W20673  41.831  24.256   2.002
54133W        W20674  33.931  43.885   1.196
54134W        W20675  35.868   9.043   2.221
54135W        W20676   6.007  27.039  11.535
54136W        W20677  17.584  30.614  14.340
54137W        W20678   4.938  13.618  12.000
54138W        W20679  29.155  10.327  12.966
54139W        W20680  10.809  25.959  14.315
54140W        W20681  15.896  36.232  12.883
54141W        W20682  25.525  24.988   1.208
54142W        W20683  34.673  23.456  10.738
54143W        W20684   9.260  34.140  12.720
54144W        W20685   2.472  27.157  11.700
54145W        W20686  29.872   2.826  11.642
54146W        W20687  24.227  26.110   0.541
54147W        W20688  27.184  28.842   3.164
54148W        W20689   2.252  33.637   5.269
54149W        W20690   4.641   8.479   0.630
54150W        W20691  30.865  26.647  13.774
54151W        W20692  34.859  17.348   4.409
54152W        W20693  40.987  21.589  11.488
54153W        W20694  42.376  23.038   3.657
54154W        W20695  35.921  31.580  13.475
54155W        W20696  40.934  31.429  13.006
54156W        W20697  39.012  27.379   2.255
54157W        W20698  17.993  31.881  14.744
54158W        W20699  24.965  34.673  11.840
54159W        W20700  33.997  23.032   3.681
54160W        W20701   1.520  30.042  13.784
54161W        W20702   7.919  12.389  11.130
54162W        W20703  30.045   1.993   0.927
54163W        W20704  34.997   4.843   4.154
54164W        W20705  37.363  36.418  11.586
54165W        W20706  15.565  27.352  12.382
54166W        W20707  39.419  12.379  11.128
54167W        W20708  29.510  18.583   4.093
54168W        W20709  41.283  23.522  12.915
54169W        W20710  35.454  27.092  13.544
54170W        W20711  17.028   5.628   0.667
54171W        W20712  18.091  40.615   1.258
54172W        W20713   7.867  29.673  10.404
54173W        W20714  18.120   3.212   3.868
54174W        W20715  31.039   2.121   0.481
54175W        W20716   7.366  25.578  10.623
54176W        W20717  35.016   6.323   4.686
54177W        W20718  38.350   4.282  11.575
54178W        W20719  18.026   4.970   3.896
54179W        W20720  38.160   2.405  13.544
54180W        W20721   0.765  40.588   2.433
54181W        W20722  39.474  26.415   2.112
54182W        W20723  27.577  39.968   4.728
54183W        W20724  12.274  25.354  14.532
54184W        W20725  17.563  27.235   4.655
54185W        W20726  13.336  26.155  11.232
54186W        W20727  30.494  27.533   0.598
54187W        W20728  19.289  18.522   1.449
54188W        W20729  34.890  32.182   5.093
54189W        W20730  22.152  22.239   4.100
54190W        W20731   8.183   6.944  12.435
54191W        W20732  25.347  38.997  10.706
54192W        W20733   7.171  22.717  10.864
54193W        W20734   5.867  21.964  14.406
54194W        W20735  39.002  30.943  11.578
54195W        W20736  13.573  18.563   1.344
54196W        W20737   3.314  28.304  11.649
54197W        W20738   4.496  15.909  12.156
54198W        W20739   2.976  13.637  10.791
54199W        W20740  32.049   8.826   3.922
54200W        W20741  16.833  21.149   2.374
54201W        W20742  33.373  39.420   4.502
54202W        W20743  15.337   6.158  12.251
54203W        W20744  24.536  26.114  13.375
54204W        W20745  39.221  34.636  14.906
54205W        W20746  34.967  19.255   1.745
54206W        W20747  37.989  25.214   2.676
54207W        W20748   9.227  36.573  14.768
54208W        W20749   8.394  15.665  14.420
54209W        W20750   5.912  26.086  11.500
54210W        W20751  10.563  19.274   2.798
54211W        W20752  42.744  44.267  13.356
54212W        W20753   0.002  32.357   3.149
54213W        W20754  27.480  39.938  12.086
54214W        W20755  23.987  27.164   1.749
54215W        W20756  18.022  39.260   3.706
54216W        W20757  26.555   8.912   2.092
54217W        W20758  13.424   0.499  11.645
54218W        W20759  11.146  31.854   4.151
54219W        W20760   3.493  25.032  14.778
54220W        W20761  29.950  34.862  10.685
54221W        W20762  44.179  25.317  11.164
54222W        W20763   6.900  13.247  12.057
54223W        W20764  11.413  36.217  12.970
54224W        W20765  42.930  41.371   1.276
54225W        W20766  24.801  12.681   3.596
54226W        W20767   5.314  34.475  10.660
54227W        W20768   5.943  25.124   4.071
54228W        W20769  42.646   4.808  11.140
54229W        W20770  11.880  19.662   2.821
54230W        W20771   6.383  11.300   0.752
54231W        W20772  33.317   5.947  12.569
54232W        W20773   1.215   1.671  11.901
54233W        W20774  34.126  22.523   4.303
54234W        W20775   6.064  17.249   1.561
54235W        W20776  37.895  34.304  10.994
54236W        W20777  23.423  35.427  12.941
54237W        W20778  40.961  16.657  12.778
54238W        W20779  10.834  15.259   3.481
54239W        W20780  44.105  39.499   0.726
54240W        W20781  40.895  17.214  14.491
54241W        W20782  18.054  11.764   0.842
54242W        W20783   9.451   5.193  11.123
54243W        W20784  38.279  29.084  12.147
54244W        W20785   4.100  20.566  13.909
54245W        W20786  33.525  22.771  12.050
54246W        W20787  39.586  17.312   3.664
54247W        W20788   5.493  29.591  10.745
54248W        W20789  28.245  40.051   3.366
54249W        W20790  19.046  18.777  13.055
54250W        W20791  30.158  11.958  11.488
54251W        W20792  37.830  25.934   4.180
54252W        W20793  20.801  34.355  10.684
54253W        W20794  21.693  36.973  13.850
54254W        W20795  39.916  36.427  10.636
54255W        W20796  23.548  30.557  11.654
54256W        W20797  24.001   6.129   1.326
54257W        W20798  15.686  27.604   4.813
54258W        W20799  30.151  15.658   2.968
54259W        W20800  12.280  39.316  11.071
54260W        W20801  38.488  36.933   0.428
54261W        W20802   7.214  43.424  10.730
54262W        W20803  25.600  11.358   3.790
54263W        W20804  23.767  26.192  13.866
54264W        W20805  36.411  15.224   0.989
54265W        W20806  34.158  39.542  12.992
54266W        W20807  19.981  28.371   2.882
54267W        W20808  36.068  18.746  13.958
54268W        W20809  23.465  42.485   2.764
54269W        W20810  40.281   6.440  11.027
54270W        W20811  41.568  10.204   1.959
54271W        W20812  23.004  40.614   1.909
54272W        W20813  24.331  28.857   0.902
54273W        W20814   0.825   6.615   2.331
54274W        W20815  16.650  15.546   2.861
54275W        W20816  22.644  12.357  13.424
54276W        W20817  28.101  31.522  12.144
54277W        W20818  37.147  36.875   0.212
54278W        W20819   4.889  23.150   2.742
54279W        W20820  24.110   5.712  13.531
54280W        W20821  19.021  40.830   2.492
54281W        W20822  43.002  40.480  13.145
54282W        W20823  25.185   4.946  10.599
54283W        W20824  36.368  40.088   2.299
54284W        W20825  29.092  22.755  10.442
54285W        W20826  23.777  44.762   3.842
54286W        W20827  35.340  20.424   2.343
54287W        W20828   2.674  23.753   1.311
54288W        W20829  12.665   8.815  13.393
54289W        W20830  28.784  14.643  13.794
54290W        W20831  36.858  25.828  11.153
54291W        W20832  20.553  30.124   4.676
54292W        W20833  25.847  19.913   4.067
54293W        W20834  12.407   5.513  13.853
54294W        W20835   6.683  44.033   0.425
54295W        W20836  11.304  35.965  12.123
54296W        W20837  14.800  30.963  14.519
54297W        W20838  12.526  10.562   4.565
54298W        W20839  39.858  25.622   3.516
54299W        W20840  11.313  27.117  13.549
54300W        W20841  41.828  11.876   0.835
54301W        W20842  42.220  19.178  11.395
54302W        W20843  36.647  20.456  12.716
54303W        W20844  23.154  40.343  12.032
54304W        W20845  39.316  26.155  11.694
54305W        W20846  41.959   8.082  10.759
54306W        W20847  17.072  22.971   1.720
54307W        W20848  10.916  29.627  11.918
54308W        W20849  22.756  28.951   4.176
54309W        W20850  19.831  25.504  12.510
54310W        W20851  44.488   3.650  14.458
54311W        W20852   5.767  39.821  12.318
54312W        W20853  41.546  23.684   1.256
54313W        W20854  36.427  20.768   0.178
54314W        W20855   9.743  27.407  13.934
54315W        W20856  18.707  25.232  13.227
54316W        W20857  20.360  16.879  10.240
54317W        W20858  27.926  22.044  12.079
54318W        W20859   0.256   9.807  13.830
54319W        W20860   8.089  28.481  11.195
54320W        W20861  27.507  42.860   2.750
54321W        W20862  30.499  19.296  11.050
54322W        W20863  26.539  43.844   1.345
54323W        W20864  33.095  22.719   4.650
54324W        W20865  16.845  25.027  11.989
54325W        W20866  23.471   1.345   3.304
54326W        W20867  26.995  44.486  11.457
54327W        W20868  18.504  24.637   0.325
54328W        W20869  18.559  41.953  11.273
54329W        W20870  43.710  19.029   1.784
54330W        W20871  20.883  25.478  11.067
54331W        W20872  27.509  34.588  10.745
54332W        W20873   5.325  39.920  12.575
54333W        W20874  27.118  18.204   3.881
54334W        W20875  24.577  10.137  10.700
54335W        W20876  14.668  29.482   2.398
54336W        W20877   2.496  35.862   5.335
54337W        W20878  44.358  32.509  11.565
54338W        W20879   9.988  40.041  10.470
54339W        W20880  15.775  26.967  10.882
54340W        W20881  40.009  41.939   0.885
54341W        W20882  22.577  18.184  14.857
54342W        W20883   0.316  35.288   0.055
54343W        W20884  10.745  11.500  12.005
54344W        W20885  44.753  22.718   0.735
54345W        W20886  18.716  40.926  11.149
54346W        W20887  16.087   5.120   0.595
54347W        W20888  10.111  23.587   4.607
54348W        W20889  29.785  11.848  14.071
54349W        W20890  16.557  18.542  14.334
54350W        W20891  13.613  36.291  13.039
54351W        W20892  41.400  17.727   0.310
54352W        W20893  17.057   7.662  13.033
54353W        W20894  33.884   4.472   2.362
54354W        W20895  44.797  28.061   1.303
54355W        W20896  30.909  18.694  12.325
54356W        W20897  33.344  23.795   2.305
54357W        W20898  36.828  17.177   1.972
54358W        W20899  12.265  29.612  14.349
54359W        W20900  38.334  37.334   4.624
54360W        W20901  35.545   3.972   4.773
54361W        W20902  27.694   1.879  13.538
54362W        W20903  26.931  15.614   4.065
54363W        W20904  32.642  13.832   4.035
54364W        W20905   8.888   6.560   1.719
54365W        W20906   0.965  24.878  10.094
54366W        W20907  12.267  15.184  12.473
54367W        W20908   3.525  27.699  14.376
54368W        W20909   0.932  33.131   2.666
54369W        W20910  33.121   3.018   3.191
54370W        W20911  34.351  37.896  11.520
54371W        W20912   7.676  15.949  10.828
54372W        W20913   4.295  27.111  11.701
54373W        W20914  28.656  20.939   3.828
54374W        W20915  12.818   5.927   1.264
54375W        W20916  34.126   7.038  11.864
54376W        W20917  38.471  28.112  14.440
54377W        W20918   1.745   0.887  14.761
54378W        W20919  38.904  42.325   1.168
54379W        W20920  36.661  12.662  11.172
54380W        W20921  31.896  21.047   4.960
54381W        W20922  10.605   8.924   1.464
54382W        W20923  36.479  29.135  10.791
54383W        W20924  39.362   4.461   2.398
54384W        W20925  27.034  35.559   0.230
54385W        W20926  34.629  20.329  14.458
54386W        W20927   1.928  24.628  12.371
54387W        W20928  35.299  12.312   1.303
54388W        W20929   6.252  25.059  14.440
54389W        W20930   7.611  19.782   3.104
54390W        W20931   9.685  41.978   4.913
54391W        W20932  19.075  42.311  12.895
54392W        W20933  25.023  17.819   3.612
54393W        W20934   7.779  31.221  13.608
54394W        W20935   2.788  35.187   2.664
54395W        W20936  36.783  37.350  14.496
54396W        W20937  32.571  28.070   0.768
54397W        W20938  38.935  19.100   2.882
54398W        W20939  23.985  26.118  14.341
54399W        W20940  44.242  29.253   1.178
54400W        W20941  42.960  23.381  14.019
54401W        W20942  18.059  12.635   1.215
54402W        W20943  29.050  27.391   4.162
54403W        W20944  23.633   3.382  11.287
54404W        W20945   4.257  10.204  13.047
54405W        W20946  21.092   2.730   2.211
54406W        W20947   5.303  28.458   5.409
54407W        W20948  10.870  28.340  10.887
54408W        W20949  24.003  19.046   0.468
54409W        W20950  26.364   1.823  13.802
54410W        W20951   2.724   8.836  10.517
54411W        W20952  40.348  14.132  10.184
54412W        W20953  43.777  20.828  13.830
54413W        W20954  24.654  27.940   1.770
54414W        W20955   5.493  18.821   3.840
54415W        W20956  33.846   9.411  13.496
54416W        W20957   4.960  30.258  10.128
54417W        W20958   7.248   6.297  11.495
54418W        W20959   8.102  36.629   4.693
54419W        W20960  11.067  44.237  14.877
54420W        W20961  27.066   4.009   0.170
54421W        W20962  29.249  38.104  14.386
54422W        W20963  42.294  29.233   4.064
54423W        W20964  36.485  41.034   3.411
54424W        W20965  10.330  25.358   2.320
54425W        W20966  36.106  42.938   0.481
54426W        W20967  22.712  12.466   2.778
54427W        W20968  26.372  37.896   3.607
54428W        W20969  12.384   0.402  10.778
54429W        W20970   5.251  22.886   3.975
54430W        W20971  11.887  37.519  10.708
54431W        W20972   4.854  35.011   0.665
54432W        W20973  35.809  40.217  11.150
54433W        W20974   3.007  22.701  14.566
54434W        W20975  28.708  21.531  10.520
54435W        W20976   7.194  15.397  13.894
54436W        W20977  31.423  43.056   3.616
54437W        W20978  16.043  37.646  13.350
54438W        W20979  36.556  36.627   1.944
54439W        W20980  30.095   1.703  13.367
54440W        W20981  37.450  24.396  12.059
54441W        W20982   5.250  29.367  13.929
54442W        W20983   5.828  30.632   1.859
54443W        W20984   9.445  39.319  13.083
54444W        W20985  38.780  18.050  14.069
54445W        W20986  27.100   7.209   4.033
54446W        W20987  39.711  23.078  14.667
54447W        W20988   7.697  35.998   0.155
54448W        W20989  12.232   8.511   2.246
54449W        W20990  27.268  39.205  12.554
54450W        W20991   5.784  24.263   3.773
54451W        W20992  11.760  18.180   3.995
54452W        W20993  24.420   8.717  11.984
54453W        W20994  18.525  36.892  13.424
54454W        W20995  27.122  12.828  13.022
54455W        W20996   1.687  36.541   4.741
54456W        W20997   0.481   4.288   2.203
54457W        W20998  18.270   6.317  11.126
54458W        W20999  37.351  17.093  12.558
54459W        W21000  30.990   6.449   4.975
54460W        W21001   2.067  26.950   2.334
54461W        W21002  18.986   9.998  10.770
54462W        W21003  23.490   8.850  14.008
54463W        W21004  34.043  38.855  13.604
54464W        W21005  12.056   4.639   3.884
54465W        W21006  27.226  24.308  11.615
54466W        W21007  28.194  23.685   0.644
54467W        W21008   4.503  22.739   0.883
54468W        W21009  30.412  37.709   0.940
54469W        W21010  24.859  23.148  11.679
54470W        W21011   5.481  40.838  11.086
54471W        W21012  26.539  10.879  13.530
54472W        W21013   7.931  25.128   0.294
54473W        W21014   4.480  34.825   4.150
54474W        W21015  12.327  21.099   1.751
54475W        W21016  17.031  13.808  11.929
54476W        W21017  13.833  17.826  13.325
54477W        W21018   4.396  18.292   4.096
54478W        W21019   7.609  36.835  10.905
54479W        W21020  29.756  41.058   3.800
54480W        W21021  41.081  10.140   3.717
54481W        W21022  32.659  13.076  11.923
54482W        W21023  22.840  30.774   3.216
54483W        W21024  30.360  27.855  12.021
54484W        W21025   9.090  22.801   1.637
54485W        W21026   0.537  36.601  12.578
54486W        W21027  10.487  20.025  11.532
54487W        W21028  21.753   3.283   0.911
54488W        W21029  34.577  42.256  14.893
54489W        W21030  24.524  14.075   2.675
54490W        W21031  44.761   2.525  14.795
54491W        W21032  27.863  12.301  12.021
54492W        W21033  30.373  17.933  13.483
54493W        W21034  36.995  18.683  13.929
54494W        W21035  21.748   0.846  10.603
54495W        W21036  22.756  14.264  12.105
54496W        W21037  44.854  18.338  12.274
54497W        W21038   9.843  37.285   2.850
54498W        W21039  36.296  27.457   1.435
54499W        W21040  14.357  29.368  13.867
54500W        W21041  29.026  31.087  13.901
54501W        W21042  40.598  39.584  11.196
54502W        W21043  15.081  16.799   1.716
54503W        W21044  28.450   8.608   2.796
54504W        W21045  33.109  37.063  12.121
54505W        W21046  11.207  37.024   2.055
54506W        W21047  31.684  24.022  13.425
54507W        W21048   1.221  18.820   1.944
54508W        W21049  20.364  19.260  12.981
54509W        W21050  42.939  29.078  12.513
54510W        W21051  40.323  32.530  13.984
54511W        W21052  26.322  34.416  11.552
54512W        W21053  33.728  15.199   1.856
54513W        W21054  25.886  21.947   2.233
54514W        W21055  16.537  33.614   3.758
54515W        W21056  34.173   5.484  10.856
54516W        W21057  18.615  38.419   0.511
54517W        W21058  25.393  37.940  13.945
54518W        W21059   7.242   2.748   4.331
54519W        W21060  20.040  24.437  13.325
54520W        W21061  17.359  30.999   5.479
54521W        W21062  41.992  44.750   0.424
54522W        W21063  20.832  28.021  10.709
54523W        W21064  44.303  25.172  12.985
54524W        W21065  40.852  15.247  11.982
54525W        W21066  18.586  23.786  14.309
54526W        W21067  16.889   3.954  12.479
54527W        W21068  19.650  10.846   4.623
54528W        W21069  40.699   7.272  11.044
54529W        W21070  15.603  44.814   2.052
54530W        W21071  32.049   5.914   4.365
54531W        W21072  28.226  44.929   2.230
54532W        W21073  36.942  25.118   4.060
54533W        W21074  39.814  30.663   2.610
54534W        W21075  37.210  22.243  11.152
54535W        W21076  28.367   4.608  11.727
54536W        W21077  32.783  14.081   2.271
54537W        W21078  40.442   3.213  11.583
54538W        W21079   7.144   5.850   2.814
54539W        W21080  16.156   7.928   0.404
54540W        W21081  27.049  39.265   4.604
54541W        W21082  32.103  31.161   4.363
54542W        W21083  15.696  42.754   0.931
54543W        W21084  13.419  23.276   2.192
54544W        W21085  29.430  29.704  12.459
54545W        W21086   6.924  42.391  12.856
54546W        W21087  17.217  17.252  12.163
54547W        W21088  11.879  34.416  14.813
54548W        W21089  15.897  42.259   3.317
54549W        W21090  23.264   6.772  12.863
54550W        W21091  11.143  42.423   0.299
54551W        W21092  43.799  32.979   2.170
54552W        W21093  28.689  42.294  11.548
54553W        W21094  18.669   4.725   0.643
54554W        W21095  18.122  18.992  12.999
54555W        W21096   7.465  24.051   3.245
54556W        W21097   1.947   2.778  13.922
54557W        W21098  13.000  25.544   1.609
54558W        W21099   7.870  15.036  10.392
54559W        W21100  26.108  21.953  14.134
54560W        W21101  11.283  42.214  12.302
54561W        W21102   8.456  43.004  14.813
54562W        W21103  42.874  15.085  12.341
54563W        W21104   3.192  41.344  13.436
54564W        W21105   3.287   5.699  13.161
54565W        W21106  11.229  31.116  12.181
54566W        W21107   6.274  19.975   1.323
54567W        W21108  17.120   9.764  13.121
54568W        W21109  22.818  41.937  11.955
54569W        W21110  19.716  12.567  11.263
54570W        W21111  25.833  33.847   0.013
54571W        W21112  28.220  20.733  10.662
54572W        W21113  40.633  11.209   2.027
54573W        W21114   1.935   0.239   1.134
54574W        W21115  19.476  35.277  12.393
54575W        W21116  44.476   8.391  13.259
54576W        W21117  25.946  31.615   1.225
54577W        W21118  17.310   7.303   0.397
54578W        W21119  31.068  28.728   0.420
54579W        W21120   2.175  28.162   4.616
54580W        W21121  14.625  19.238   1.858
54581W        W21122  40.319  31.904  14.432
54582W        W21123  36.483   3.354  13.922
54583W        W21124  33.201  40.900   2.813
54584W        W21125   5.650  42.869   1.286
54585W        W21126  23.202  42.334   1.385
54586W        W21127  44.491  26.427  12.777
54587W        W21128  10.041  12.316  13.870
54588W        W21129   9.217  22.096  11.775
54589W        W21130  33.240   3.680  11.137
54590W        W21131  35.764  28.864  14.996
54591W        W21132  26.100  11.837   4.736
54592W        W21133  33.904  33.159   5.141
54593W        W21134  33.070  44.795   4.203
54594W        W21135  18.121  40.814  11.939
54595W        W21136  31.953  29.609   3.961
54596W        W21137  29.721  13.330  12.420
54597W        W21138  30.037  34.450   4.380
54598W        W21139  25.071  38.329  11.050
54599W        W21140   2.826  21.511   1.710
54600W        W21141  22.694  31.133  12.979
54601W        W21142  31.537  18.557   3.340
54602W        W21143  25.006  19.924   0.773
54603W        W21144  38.545  11.610   3.762
54604W        W21145  23.767  25.648  11.169
54605W        W21146  20.001  10.916  12.841
54606W        W21147   8.233   9.342  12.467
54607W        W21148  30.582  44.708   2.170
54608W        W21149  26.925  32.030   1.801
54609W        W21150  38.138  23.151   1.676
54610W        W21151   7.294  10.671  11.938
54611W        W21152  28.899  14.720  13.037
54612W        W21153   4.438   1.995  14.340
54613W        W21154  37.590  29.968   1.405
54614W        W21155  41.006   1.711   2.221
54615W        W21156  15.354  43.043  12.399
54616W        W21157  27.213  30.868  12.472
54617W        W21158  12.765  17.701   1.484
54618W        W21159   7.842  34.650   3.857
54619W        W21160  24.906  40.240   0.804
54620W        W21161  19.119  18.919   0.231
54621W        W21162  14.380  35.520  14.301
54622W        W21163  26.918  23.591  13.309
54623W        W21164   6.582  15.362   3.190
54624W        W21165   7.437   3.991   1.355
54625W        W21166  21.652  27.875  10.597
54626W        W21167  24.479  15.549   0.641
54627W        W21168  33.871   2.833   2.717
54628W        W21169  28.116  25.725   0.827
54629W        W21170   8.442  35.808   2.800
54630W        W21171  16.001  32.034   0.106
54631W        W21172  30.413  12.689  14.903
54632W        W21173  25.341  29.893  13.816
54633W        W21174   7.468  32.652  10.681
54634W        W21175   5.840  19.752  10.915
54635W        W21176  34.551  12.797   4.846
54636W        W21177  24.462   1.737  12.658
54637W        W21178  10.322   7.337  11.304
54638W        W21179  40.018  18.782  13.502
54639W        W21180  21.062  43.325   2.833
54640W        W21181  10.393  38.443   2.815
54641W        W21182  20.572  25.462   1.956
54642W        W21183  28.955   8.364  14.865
54643W        W21184  36.776  17.311  10.600
54644W        W21185  28.266  32.417   1.493
54645W        W21186  25.520   4.564  10.645
54646W        W21187  27.875   3.601   9.981
54647W        W21188  44.379  43.317   0.873
54648W        W21189  18.715  28.241  12.054
54649W        W21190  28.939  20.804   2.445
54650W        W21191  23.982   0.892  14.877
54651W        W21192  17.918  41.007  13.895
54652W        W21193   3.025  40.997   4.238
54653W        W21194  27.046  17.760  13.964
54654W        W21195  21.088  29.058   2.958
54655W        W21196  32.140  38.384   2.283
54656W        W21197  14.143  40.937   1.942
54657W        W21198  11.828  36.584  10.607
54658W        W21199  12.541  15.730   0.395
54659W        W21200   5.201  31.014  12.446
54660W        W21201  32.530  42.042  14.281
54661W        W21202  27.210  32.956  12.101
54662W        W21203  15.641  44.732  13.835
54663W        W21204  31.153  17.552   4.572
54664W        W21205  30.995  20.644   1.930
54665W        W21206  33.177  11.045  11.093
54666W        W21207  33.672  28.992   1.650
54667W        W21208  20.536  23.264   4.642
54668W        W21209  23.186  28.291  11.046
54669W        W21210  13.347  29.155   3.707
54670W        W21211  12.888  13.062  10.716
54671W        W21212  17.820  15.763   9.906
54672W        W21213  15.463  11.668   4.221
54673W        W21214  20.697  32.628   3.170
54674W        W21215  38.380  18.637  12.846
54675W        W21216  34.496  36.336   0.803
54676W        W21217  27.480  22.107   2.868
54677W        W21218   5.479  44.664   0.314
54678W        W21219   2.420  36.546   3.167
54679W        W21220  41.189  31.929   0.329
54680W        W21221  27.528  38.338  12.183
54681W        W21222  41.872  23.093  13.733
54682W        W21223  14.016  31.593   2.651
54683W        W21224   1.812  16.147   1.180
54684W        W21225  23.243  26.106   0.747
54685W        W21226  41.521  17.642   3.424
54686W        W21227  24.108   3.448   2.610
54687W        W21228  11.797   2.902  13.079
54688W        W21229   0.833  33.995   4.177
54689W        W21230   0.311   2.975  11.953
54690W        W21231   5.183  19.506  14.980
54691W        W21232  33.584  41.009   4.539
54692W        W21233  14.788  36.997  13.835
54693W        W21234  39.612  28.164  13.735
54694W        W21235   1.330   1.812  13.357
54695W        W21236   6.609   6.739  12.519
54696W        W21237   0.329  33.914  14.396
54697W        W21238   2.396  33.481   4.267
54698W        W21239  10.285  29.268   4.893
54699W        W21240  13.250  20.309  11.519
54700W        W21241   1.717  10.149  11.583
54701W        W21242  18.092  32.592  13.588
54702W        W21243  44.344  44.475   2.328
54703W        W21244   3.591  31.349   5.498
54704W        W21245  32.882  26.005   4.676
54705W        W21246   5.769  16.608   0.729
54706W        W21247  44.070   7.390   3.641
54707W        W21248   1.207   8.387   3.640
54708W        W21249  28.903   0.334  13.702
54709W        W21250  34.211  33.596  13.469
54710W        W21251   6.267  19.835  14.580
54711W        W21252   6.812  16.272  12.900
54712W        W21253  12.123   4.768   2.495
54713W        W21254  36.843  12.899  14.400
54714W        W21255  39.554  20.220   2.315
54715W        W21256  15.872  33.199  13.490
54716W        W21257  11.247  14.429  12.383
54717W        W21258  36.805  14.778  14.305
54718W        W21259  12.041  29.851   1.885
54719W        W21260  35.513  19.359   3.346
54720W        W21261  40.457  16.082   1.904
54721W        W21262  34.698  21.911   3.801
54722W        W21263  13.322   6.779   4.822
54723W        W21264  37.687  12.208   3.837
54724W        W21265  12.120   6.705  14.329
54725W        W21266  29.096   6.864  11.035
54726W        W21267  11.605  29.622   0.027
54727W        W21268  11.285  25.271  12.994
54728W        W21269   0.353  35.186   1.397
54729W        W21270  17.835  25.732   4.587
54730W        W21271   4.097  23.383  10.287
54731W        W21272  28.143  36.107  12.638
54732W        W21273   8.363  19.188   3.867
54733W        W21274  30.401  10.899   4.703
54734W        W21275  10.414  16.513   1.811
54735W        W21276  27.235  37.334  10.354
54736W        W21277  21.208   7.130  12.047
54737W        W21278  29.169  25.201   0.020
54738W        W21279   2.376  36.280   3.673
54739W        W21280  23.354  44.513   3.303
54740W        W21281   4.250  24.794  12.522
54741W        W21282   3.343  17.302  13.859
54742W        W21283   5.967   7.439  13.020
54743W        W21284  11.132  10.949  12.077
54744W        W21285  39.400  30.963   0.992
54745W        W21286  38.298  21.769  14.888
54746W        W21287  44.887  41.394  13.817
54747W        W21288  41.764  17.548   0.680
54748W        W21289  42.320  30.888   2.160
54749W        W21290  18.630  25.195  10.943
54750W        W21291  31.085  34.176  12.601
54751W        W21292  35.450  43.533  11.551
54752W        W21293  22.613   1.232  10.419
54753W        W21294  37.047  44.226   1.807
54754W        W21295  25.086  17.061  10.454
54755W        W21296  42.621  12.376   4.057
54756W        W21297   4.712  15.031   4.411
54757W        W21298  39.594  40.315   0.672
54758W        W21299   5.972  37.994  10.753
54759W        W21300  10.149   7.181  13.332
54760W        W21301  39.426  14.915   3.329
54761W        W21302   8.182  10.975  12.877
54762W        W21303  33.220  37.652  11.085
54763W        W21304   5.067  26.495  13.563
54764W        W21305  22.715  28.596  12.920
54765W        W21306  33.964  43.204  13.514
54766W        W21307  35.038  16.598  13.810
54767W        W21308  24.221  19.076   2.687
54768W        W21309  25.493   4.506  10.138
54769W        W21310  25.373  22.850   2.356
54770W        W21311  22.989  40.354   4.517
54771W        W21312  40.788  27.124  11.206
54772W        W21313  14.139   4.423  14.194
54773W        W21314  38.260  36.603  11.058
54774W        W21315   4.680   1.390   0.290
54775W        W21316  20.820  32.920  10.956
54776W        W21317  36.126  35.842   4.143
54777W        W21318  26.839  16.233   1.834
54778W        W21319   4.897  27.511  14.303
54779W        W21320  31.384  36.787   1.798
54780W        W21321  38.600   3.673  11.616
54781W        W21322  32.650  27.594  13.059
54782W        W21323  24.575  18.142  11.594
54783W        W21324  34.080   6.903   2.332
54784W        W21325   1.914  38.949   0.196
54785W        W21326  35.102  44.239  11.189
54786W        W21327   7.985  12.748  10.735
54787W        W21328  42.937  22.421  13.604
54788W        W21329  19.660  14.074   0.962
54789W        W21330   3.349  40.061   0.724
54790W        W21331   7.366   8.370   2.151
54791W        W21332   8.247  24.060  10.529
54792W        W21333   0.835  15.802   1.348
54793W        W21334  34.878   8.851  10.288
54794W        W21335  14.285   2.793  13.431
54795W        W21336  42.341  14.325  11.923
54796W        W21337  30.955  40.028   2.373
54797W        W21338  15.489   9.260   4.661
54798W        W21339  12.254  13.346   4.733
54799W        W21340   6.973   5.912   2.334
54800W        W21341  35.518  31.145   3.345
54801W        W21342   9.825  44.457   3.906
54802W        W21343  11.817   7.766   0.759
54803W        W21344  27.579   4.683   3.752
54804W        W21345  38.250  22.019  12.094
54805W        W21346  40.227  33.701   2.787
54806W        W21347  37.863  42.459  12.369
54807W        W21348  41.754  10.657   2.806
54808W        W21349  40.896   8.096   4.483
54809W        W21350  18.255  11.067   2.188
54810W        W21351  38.578   9.794   0.840
54811W        W21352  16.209   6.124  11.149
54812W        W21353  35.826   6.710  13.427
54813W        W21354   7.743  38.580   2.299
54814W        W21355   4.723  26.862   1.374
54815W        W21356  42.897  29.157   1.795
54816W        W21357  38.817  37.725  11.140
54817W        W21358  31.953  29.854  13.406
54818W        W21359   3.868  26.547   0.431
54819W        W21360   5.245  40.363  10.491
54820W        W21361  22.914   3.394  13.283
54821W        W21362  42.839  44.807  13.349
54822W        W21363  44.464  40.093  14.477
54823W        W21364   2.906   7.419  10.693
54824W        W21365  21.926   1.196  14.053
54825W        W21366  19.742  39.887  11.188
54826W        W21367  11.904  25.921   0.194
54827W        W21368  34.546  27.096  13.617
54828W        W21369   4.024  13.603   2.843
54829W        W21370  38.874   6.930  13.937
54830W        W21371  39.083  24.174  13.758
54831W        W21372  35.778  26.309  13.256
54832W        W21373   8.464  41.313   1.219
54833W        W21374  23.482  11.845   2.382
54834W        W21375  15.920  18.246  10.162
54835W        W21376  20.650  39.915  13.266
54836W        W21377  17.164  26.351   4.937
54837W        W21378  34.619   2.256  10.746
54838W        W21379  16.538   8.937   0.932
54839W        W21380   3.982   2.862  14.576
54840W        W21381  19.691  33.988  13.024
54841W        W21382  19.983   9.549   4.178
54842W        W21383   8.964  44.239  11.155
54843W        W21384  12.167  15.626  11.522
54844W        W21385  27.197  16.120   3.205
54845W        W21386   1.277  30.954  11.935
54846W        W21387   0.818   1.778  14.879
54847W        W21388   0.726  27.998  14.583
54848W        W21389  21.972   9.079   0.259
54849W        W21390   2.899  13.184   0.366
54850W        W21391  24.111  19.134  14.459
54851W        W21392  34.821  33.533  10.862
54852W        W21393  20.498  43.950  12.511
54853W        W21394  30.672  28.213   4.561
54854W        W21395  31.304  17.412  12.517
54855W        W21396   5.319  35.563   4.550
54856W        W21397  25.480   4.815  12.849
54857W        W21398  42.528  42.460  14.251
54858W        W21399  17.829  24.441   0.786
54859W        W21400  42.398  14.702  11.546
54860W        W21401  31.872  19.079   1.266
54861W        W21402  30.183  42.415  10.227
54862W        W21403  16.101  21.319   1.883
54863W        W21404   3.921  11.875   2.506
54864W        W21405  19.246  24.275   4.596
54865W        W21406   6.063   5.309  12.013
54866W        W21407  31.277  42.547   2.319
54867W        W21408   7.883  21.729  10.602
54868W        W21409  40.578  25.729   1.874
54869W        W21410  25.432  24.160   2.271
54870W        W21411  29.996  35.565  12.057
54871W        W21412  24.499  34.029  13.984
54872W        W21413  30.680  34.050  14.379
54873W        W21414  40.012  13.313   0.037
54874W        W21415   0.777  14.298   0.894
54875W        W21416  25.199  23.963  11.118
54876W        W21417   4.977  17.753   2.265
54877W        W21418   8.189  23.723   3.719
54878W        W21419   7.733  16.718   1.269
54879W        W21420   6.211  22.639  13.938
54880W        W21421  12.994  42.698   2.266
54881W        W21422   7.733   0.986  13.284
54882W        W21423  25.697  43.501  11.416
54883W        W21424   8.378   9.047   3.179
54884W        W21425   8.968  17.034   1.790
54885W        W21426  32.592   3.807  14.381
54886W        W21427  43.126  24.552   4.674
54887W        W21428  35.453  37.260  12.945
54888W        W21429  25.534  28.358  13.186
54889W        W21430  21.528   4.856   3.447
54890W        W21431  12.270  42.966   1.516
54891W        W21432  29.440  36.393  10.721
54892W        W21433  10.142   9.140   0.326
54893W        W21434  27.176   1.303   4.828
54894W        W21435  25.675  44.349   1.472
54895W        W21436  10.384  38.661   4.689
54896W        W21437  35.988  22.561   2.805
54897W        W21438  16.527  17.060  10.956
54898W        W21439   1.813  23.506  10.669
54899W        W21440  39.828  38.215  11.528
54900W        W21441  24.208  10.601  10.745
54901W        W21442  14.594   7.048  14.391
54902W        W21443  24.614  36.813   2.752
54903W        W21444  43.492  34.842   2.404
54904W        W21445   4.262  14.011   3.117
54905W        W21446  11.275   2.533  11.147
54906W        W21447  32.535   3.176  11.322
54907W        W21448  32.674  34.012   3.274
54908W        W21449  20.675  24.067  13.878
54909W        W21450  10.183  22.938  11.424
54910W        W21451   3.256  43.276   3.613
54911W        W21452  32.974  36.157   4.284
54912W        W21453  36.619  19.331  14.972
54913W        W21454  11.365  21.140   2.752
54914W        W21455  36.476  10.322   4.418
54915W        W21456  17.389   1.511   0.767
54916W        W21457  28.933  31.118  10.700
54917W        W21458  27.336  13.774   1.827
54918W        W21459   3.729  25.619  13.973
54919W        W21460  10.206  44.245   4.653
54920W        W21461   0.901   4.630   0.306
54921W        W21462   1.910  27.947  14.469
54922W        W21463  11.415  21.820  13.002
54923W        W21464  30.358  35.676  11.688
54924W        W21465  36.078  40.533   2.274
54925W        W21466  13.216  37.603  10.563
54926W        W21467  31.710   2.665  11.957
54927W        W21468  21.858  23.040  13.078
54928W        W21469  29.003  34.234   3.187
54929W        W21470  26.472  16.544   3.638
54930W        W21471  18.253   6.973  14.957
54931W        W21472  10.202  25.548  14.698
54932W        W21473  37.584   4.456  13.112
54933W        W21474   5.669  44.333  14.867
54934W        W21475  19.592   3.907  11.165
54935W        W21476  20.012   2.827  14.285
54936W        W21477   2.942  35.436  10.136
54937W        W21478  44.554  25.491  11.523
54938W        W21479   7.792   4.982   5.007
54939W        W21480  33.181   5.387   1.123
54940W        W21481  36.019  32.636   1.629
54941W        W21482  27.802  39.648   2.593
54942W        W21483  28.532  21.444  11.975
54943W        W21484  32.907  13.205  13.927
54944W        W21485  38.083   3.520  11.712
54945W        W21486  11.657  24.796   4.792
54946W        W21487   0.251  38.895   3.085
54947W        W21488  24.200  44.515  11.752
54948W        W21489  41.943  15.278   4.346
54949W        W21490  22.644  23.045  11.868
54950W        W21491  28.042   4.948  12.971
54951W        W21492   1.230  43.688  12.093
54952W        W21493  43.112  37.424  14.107
54953W        W21494  24.062  43.786   1.681
54954W        W21495  30.943  10.241  13.554
54955W        W21496   0.858  14.081   1.803
54956W        W21497  22.920  19.075  11.538
54957W        W21498  32.455  16.851   4.853
54958W        W21499   3.773  17.284   1.928
54959W        W21500  15.610  16.317   0.862
54960W        W21501  39.081  41.250  10.504
54961W        W21502  38.492   4.957  12.934
54962W        W21503  38.365  26.680   4.286
54963W        W21504  17.634  11.022   0.494
54964W        W21505  11.822  15.958  14.880
54965W        W21506  13.472   7.788   1.220
54966W        W21507  25.575  13.074   0.420
54967W        W21508  22.979   3.137   3.705
54968W        W21509  33.566  28.564   1.910
54969W        W21510  12.072  17.804   0.397
54970W        W21511  17.810  35.446   3.191
54971W        W21512  24.623  28.394   2.946
54972W        W21513   8.928   9.734  11.489
54973W        W21514   5.563  28.257   9.770
54974W        W21515  32.538   1.619   3.080
54975W        W21516  33.182  22.820  14.350
54976W        W21517  24.856  29.880  13.129
54977W        W21518  21.555  44.748  13.048
54978W        W21519   3.612   6.667   4.715
54979W        W21520   1.897  34.668   1.721
54980W        W21521  27.428  10.383   4.103
54981W        W21522  20.796  12.352   0.391
54982W        W21523  30.983   7.236  13.450
54983W        W21524   2.137  25.046  14.345
54984W        W21525  17.573  33.033  12.104
54985W        W21526  31.955   3.216   3.618
54986W        W21527  32.130  18.759  10.633
54987W        W21528  29.097  10.656   1.750
54988W        W21529  41.009  10.613  11.075
54989W        W21530  35.984  13.788  11.190
54990W        W21531  44.917  27.037  12.261
54991W        W21532  39.260  41.514  11.920
54992W        W21533  37.943   4.442   0.787
54993W        W21534  29.940   0.001  13.971
54994W        W21535   1.441   0.941  13.898
54995W        W21536  27.053  29.423  10.536
54996W        W21537  43.429  15.363  13.609
54997W        W21538  10.119   2.509  13.908
54998W        W21539   6.188  20.663   4.784
54999W        W21540  28.135  23.721  10.300
55000W        W21541   2.199   7.639   4.405
55001W        W21542  33.992  41.987   2.912
55002W        W21543  22.523  16.898   2.762
55003W        W21544  38.261   0.214   1.883
55004W        W21545  38.599  10.719   4.216
55005W        W21546   3.337   7.592   2.685
55006W        W21547  27.545   8.524   1.266
55007W        W21548   4.178  40.585   1.793
55008W        W21549  20.455  15.158  12.761
55009W        W21550  41.575   6.051   1.206
55010W        W21551  29.509  41.430  12.440
55011W        W21552  14.570  16.998  11.625
55012W        W21553  25.970  22.782   0.887
55013W        W21554  12.349  24.627  14.780
55014W        W21555  39.346  18.209   4.097
55015W        W21556  27.724   2.680  11.027
55016W        W21557  15.824  19.257   0.442
55017W        W21558  18.949  24.194  10.733
55018W        W21559  44.062  31.970  14.993
55019W        W21560  10.653  29.112   2.896
55020W        W21561   2.203  14.637   1.925
55021W        W21562   1.404  36.912   1.939
55022W        W21563   8.820  24.302   5.241
55023W        W21564   2.320  30.740  14.426
55024W        W21565  16.796  36.335   3.207
55025W        W21566  25.188  24.097  12.436
55026W        W21567  30.975  44.690  10.742
55027W        W21568   3.646  25.580   1.851
55028W        W21569  21.257   6.763  13.911
55029W        W21570  29.881  36.436   3.047
55030W        W21571  33.316  14.356  13.790
55031W        W21572   2.504  37.371   0.065
55032W        W21573  42.285  30.115  14.761
55033W        W21574  42.798  18.050   2.683
55034W        W21575  16.768  35.579  11.127
55035W        W21576  10.368  43.743   1.867
55036W        W21577  37.405  39.320  14.832
55037W        W21578  19.240  37.930  11.517
55038W        W21579   7.201  20.697   0.574
55039W        W21580  14.785  13.701   0.484
55040W        W21581  23.234   7.223   4.966
55041W        W21582  38.553  31.156  11.678
55042W        W21583   7.805   5.575   1.877
55043W        W21584  18.678  23.219  10.532
55044W        W21585   6.873  11.891   2.744
55045W        W21586  37.934  38.557  11.142
55046W        W21587  35.325  28.746  14.225
55047W        W21588  31.907  34.840   0.218
55048W        W21589   9.599  43.582  14.810
55049W        W21590   9.335  43.524   1.366
55050W        W21591  22.774  10.714   1.265
55051W        W21592   7.923   8.416  10.929
55052W        W21593  35.632  38.420  11.526
55053W        W21594  34.420  33.917   0.859
55054W        W21595  14.271  25.445   4.508
55055W        W21596  32.869  43.679  11.108
55056W        W21597  37.619   2.114  10.303
55057W        W21598  16.788  33.637  13.914
55058W        W21599  17.765  22.029  12.375
55059W        W21600  16.213  25.145  10.707
55060W        W21601   1.349  22.216  12.297
55061W        W21602  36.930   2.832  10.722
55062W        W21603   5.180   6.635  12.355
55063W        W21604  39.980  30.921   3.405
55064W        W21605   3.799   9.852   3.118
55065W        W21606   5.792   7.700   0.193
55066W        W21607   6.133  22.828   2.325
55067W        W21608  24.555  10.221   3.227
55068W        W21609  17.576   1.897   2.315
55069W        W21610  15.211   4.261  10.605
55070W        W21611  23.268  41.444   2.352
55071W        W21612  36.952  10.416   4.195
55072W        W21613  43.918   0.934   3.930
55073W        W21614   7.377  23.031  10.509
55074W        W21615  42.694  36.224  12.830
55075W        W21616  35.457   8.397   3.296
55076W        W21617  41.579  13.210  13.488
55077W        W21618  27.423  40.530  14.927
55078W        W21619  39.745  10.659  11.422
55079W        W21620  35.119  20.977  13.063
55080W        W21621  12.717  18.610  11.668
55081W        W21622  42.491  32.736  11.921
55082W        W21623  19.054  40.877   4.172
55083W        W21624  13.335  16.708  11.615
55084W        W21625  40.497  38.433   0.791
55085W        W21626  16.617   3.534  12.357
55086W        W21627  41.911  30.088  12.516
55087W        W21628  26.550  29.640  10.377
55088W        W21629  25.445  32.357   0.079
55089W        W21630  33.960  42.034   0.435
55090W        W21631   0.336  15.328  10.531
55091W        W21632  19.480  37.440  13.364
55092W        W21633  26.086  34.904   1.438
55093W        W21634  44.491  10.927  14.007
55094W        W21635  11.166  41.563  14.828
55095W        W21636  38.822   2.318  11.267
55096W        W21637   6.661  10.185  11.365
55097W        W21638   4.170  36.092  13.411
55098W        W21639  35.074  44.987   0.998
55099W        W21640  27.736  44.771   1.807
55100W        W21641  31.340  37.352   3.529
55101W        W21642  15.739  31.328   3.671
55102W        W21643  17.242  11.465   4.594
55103W        W21644  43.464   3.369  14.692
55104W        W21645  21.028   8.665   3.214
55105W        W21646  36.587  28.087  12.860
55106W        W21647  25.110  26.328  12.498
55107W        W21648  11.626  31.065   0.896
55108W        W21649  27.018  17.472   4.819
55109W        W21650  29.638   3.839   2.875
55110W        W21651  40.950  11.908   1.721
55111W        W21652   2.333  27.928  11.229
55112W        W21653  19.481  24.632   2.692
55113W        W21654  40.474   1.207   4.320
55114W        W21655   1.862  38.291  13.916
55115W        W21656   7.664  20.093   2.478
55116W        W21657  35.789  30.998  12.003
55117W        W21658  35.504  42.006   2.424
55118W        W21659   1.197   6.615  12.237
55119W        W21660  32.687  42.561   4.349
55120W        W21661   5.873  30.678   0.872
55121W        W21662   0.511  31.564   3.144
55122W        W21663   3.618  25.601  11.769
55123W        W21664  40.588  21.493   4.265
55124W        W21665  40.982  34.014   2.627
55125W        W21666  21.827   1.265  11.179
55126W        W21667  31.107  14.205  14.846
55127W        W21668  42.977  31.982   3.847
55128W        W21669  39.588  21.735  12.942
55129W        W21670  11.750  32.885   2.159
55130W        W21671  11.035  39.236  10.279
55131W        W21672  16.213   8.350   1.710
55132W        W21673  31.927   0.385  10.280
55133W        W21674  41.513  43.052  13.474
55134W        W21675  30.902  33.774  14.774
55135W        W21676  21.147  37.834  12.039
55136W        W21677  11.312  40.771  12.563
55137W        W21678  32.885  25.047  11.363
55138W        W21679  22.029  29.015  13.080
55139W        W21680  43.901   9.110  10.794
55140W        W21681   9.485  22.236  12.626
55141W        W21682   0.783  28.239   4.610
55142W        W21683  32.131  14.155   2.889
55143W        W21684  25.565  21.581   3.675
55144W        W21685   8.601  19.870  13.466
55145W        W21686  23.939  40.379   4.040
55146W        W21687   5.016   0.948  10.692
55147W        W21688  33.464   5.745   3.902
55148W        W21689  31.013  44.399   2.170
55149W        W21690   0.607  13.158  13.981
55150W        W21691  38.802  17.051  10.678
55151W        W21692  26.587  28.168   0.803
55152W        W21693  36.126  33.446   2.698
55153W        W21694  19.704  21.732   2.871
55154W        W21695  26.367  23.494  13.531
55155W        W21696  37.493  44.983   4.022
55156W        W21697  18.778  28.468   2.307
55157W        W21698  29.400  22.118   2.282
55158W        W21699  22.454  11.534   2.279
55159W        W21700   2.894   5.135   4.209
55160W        W21701  14.323  36.877  14.069
55161W        W21702  33.521  10.339   0.173
55162W        W21703  20.760  37.461   4.383
55163W        W21704  25.143  13.283  13.644
55164W        W21705  11.226   9.753  14.786
55165W        W21706  29.001   2.444   0.889
55166W        W21707  31.938  36.327  11.627
55167W        W21708  32.958   3.596   5.206
55168W        W21709  12.453  20.569  11.043
55169W        W21710  39.742  14.166   0.372
55170W        W21711  36.282  15.252   2.840
55171W        W21712  14.587  38.049   4.049
55172W        W21713  23.013  15.834   4.183
55173W        W21714  15.540  23.117  11.073
55174W        W21715  15.306  32.444  11.890
55175W        W21716   9.907  37.295  13.846
55176W        W21717  11.401  14.062  12.056
55177W        W21718   3.212  27.682  14.816
55178W        W21719   6.644  19.390  12.861
55179W        W21720  42.665  26.133  11.360
55180W        W21721   2.307  37.924   4.350
55181W        W21722  14.188  41.480   4.218
55182W        W21723  34.904  25.976  12.408
55183W        W21724  24.788  12.784  12.678
55184W        W21725   9.775  21.121  13.544
55185W        W21726  18.637   6.826   4.837
55186W        W21727  41.920  26.784  12.183
55187W        W21728   2.028  44.030  13.984
55188W        W21729  41.997  20.358  11.622
55189W        W21730  12.852  11.676  14.966
55190W        W21731   8.883  30.143   0.490
55191W        W21732  12.052  44.425   1.324
55192W        W21733  27.411  36.902   1.011
55193W        W21734  32.031  30.991  10.742
55194W        W21735   1.997  29.450  12.401
55195W        W21736   2.055  23.193   4.105
55196W        W21737   3.655  31.096  13.102
55197W        W21738   6.329  37.692  14.456
55198W        W21739  17.309  12.243  13.020
55199W        W21740  23.942  37.334   3.084
55200W        W21741   5.646  19.092  12.040
55201W        W21742  20.567  25.558   0.022
55202W        W21743   0.863  31.422  14.769
55203W        W21744  31.836  15.294  12.095
55204W        W21745  36.591   2.861   0.990
55205W        W21746  11.699  21.010   3.661
55206W        W21747   1.443  32.801  11.914
55207W        W21748  23.590  20.095   0.918
55208W        W21749  11.071  34.123  14.992
55209W        W21750  23.519  36.830   1.331
55210W        W21751  21.156  15.625  12.415
55211W        W21752  38.592  32.029  14.320
55212W        W21753   4.692  29.574   3.778
55213W        W21754  36.324  35.548  14.435
55214W        W21755  30.533  28.886   3.545
55215W        W21756  15.088  18.103  13.518
55216W        W21757  29.539  40.473  13.372
55217W        W21758   9.496  42.742   1.814
55218W        W21759  37.486  16.329   4.778
55219W        W21760   0.937  14.276   2.294
55220W        W21761  43.216  42.979   1.833
55221W        W21762   8.462   3.930   1.283
55222W        W21763  19.512  30.239   2.211
55223W        W21764   1.279  30.020  12.465
55224W        W21765  24.003   2.563   0.950
55225W        W21766  37.917  17.792   2.400
55226W        W21767  44.900  27.761   3.313
55227W        W21768   5.403  15.780  10.564
55228W        W21769  27.122  36.871   4.847
55229W        W21770  33.088  34.953   4.244
55230W        W21771  30.976  14.698   4.593
55231W        W21772   6.533  35.980  11.981
55232W        W21773  40.105  20.709   0.899
55233W        W21774  19.013  21.249   0.456
55234W        W21775  15.886  34.554   0.319
55235W        W21776  40.419  31.977  14.953
55236W        W21777   3.141  30.519  10.602
55237W        W21778  33.418   8.211   4.513
55238W        W21779   3.545  18.006  13.443
55239W        W21780  12.142  14.775   1.270
55240W        W21781  13.951  30.300   5.346
55241W        W21782   1.556  24.952   1.142
55242W        W21783  25.159  35.893   1.721
55243W        W21784  12.111  31.379   3.704
55244W        W21785  42.906   6.982  12.058
55245W        W21786  36.061  25.697  14.898
55246W        W21787  44.910  22.976  11.164
55247W        W21788  18.597   1.584  14.336
55248W        W21789  42.402   9.455   4.884
55249W        W21790  11.149   4.232   3.319
55250W        W21791  27.529  23.534  13.937
55251W        W21792  44.616   0.488  12.467
55252W        W21793  43.520   6.452  11.091
55253W        W21794  43.680  11.461   4.103
55254W        W21795  15.237  23.119   0.903
55255W        W21796  42.943  20.266   1.378
55256W        W21797  32.100  21.496   2.310
55257W        W21798  29.108  33.294   4.871
55258W        W21799  30.577   0.194  11.008
55259W        W21800   3.491  34.634   0.522
55260W        W21801  17.193  32.038   5.202
55261W        W21802  43.562  37.285  11.536
55262W        W21803  13.911  26.588   1.159
55263W        W21804  32.611   6.251  12.122
55264W        W21805  43.671  37.871  12.342
55265W        W21806   0.915  12.729  10.770
55266W        W21807  11.288  34.064  11.200
55267W        W21808  21.635  16.997  11.422
55268W        W21809   0.448  30.143   3.102
55269W        W21810  17.033  23.636  13.945
55270W        W21811  27.516   1.761  14.937
55271W        W21812  14.660  43.905   0.844
55272W        W21813  39.853   5.865  11.801
55273W        W21814  31.660  29.871  14.942
55274W        W21815  23.457  34.970   2.376
55275W        W21816   4.930   7.703   3.672
55276W        W21817  30.372  33.143  12.898
55277W        W21818  20.547  31.891   2.646
55278W        W21819  28.713  32.662   3.697
55279W        W21820  38.864  39.893  10.429
55280W        W21821  16.122  26.230   1.449
55281W        W21822   6.899  19.264  13.327
55282W        W21823  30.269  14.725   3.728
55283W        W21824  16.571  38.291   1.847
55284W        W21825  37.481  15.310   4.616
55285W        W21826  20.978  28.769   1.310
55286W        W21827  40.367  13.527   3.597
55287W        W21828  11.282   6.868   3.452
55288W        W21829  42.267  12.271  13.931
55289W        W21830  13.985  40.057   3.688
55290W        W21831  40.201  21.965   1.274
55291W        W21832  24.236  10.707  12.533
55292W        W21833  30.262  13.719   0.312
55293W        W21834  20.530  21.134   2.212
55294W        W21835  22.926   3.860   0.534
55295W        W21836   5.166  37.049   0.953
55296W        W21837  10.383  12.673   2.887
55297W        W21838  40.916   7.709   1.432
55298W        W21839  28.131  43.259   4.104
55299W        W21840  31.180  13.695   1.705
55300W        W21841  29.000  43.487  12.114
55301W        W21842  29.067  12.699  14.666
55302W        W21843  44.049  44.887   4.656
55303W        W21844  14.274   9.808   2.273
55304W        W21845  10.243  10.318   2.466
55305W        W21846  25.754  23.031   3.785
55306W        W21847   9.746   8.773   0.386
55307W        W21848  19.039  41.515   2.296
55308W        W21849  29.824  15.154  12.271
55309W        W21850  17.438   2.685   2.786
55310W        W21851   2.909  19.172  10.661
55311W        W21852  36.188  17.562   3.102
55312W        W21853  14.644  29.736   5.509
55313W        W21854  26.188   8.997   2.859
55314W        W21855  41.335  27.703  12.482
55315W        W21856  44.086   2.235  14.298
55316W        W21857  27.452   2.774  14.776
55317W        W21858  13.824   2.695  12.096
55318W        W21859  19.586  41.180   0.559
55319W        W21860  17.565  17.811  14.499
55320W        W21861  35.055   9.901  11.187
55321W        W21862  33.681  33.989   0.226
55322W        W21863  15.318  15.767  10.579
55323W        W21864  13.292  41.878   4.845
55324W        W21865  28.755  11.342  11.653
55325W        W21866  36.376  32.565   3.428
55326W        W21867  13.674  21.562   3.814
55327W        W21868   4.435  35.188   3.774
55328W        W21869  20.224   3.893   2.200
55329W        W21870  13.737  33.929  11.603
55330W        W21871   6.690  40.015  14.472
55331W        W21872  42.381  33.705   0.240
55332W        W21873  17.229  34.315   2.192
55333W        W21874   6.374   8.075  14.440
55334W        W21875  18.608   3.222   4.098
55335W        W21876  42.766  31.602  12.831
55336W        W21877  14.082  25.627  10.643
55337W        W21878  35.016  27.569   0.508
55338W        W21879   8.271  37.805   4.078
55339W        W21880  42.943   9.784   4.237
55340W        W21881  24.171  16.777  12.479
55341W        W21882  14.114  26.632  12.648
55342W        W21883  12.157  30.644  14.313
55343W        W21884  28.809  18.202  12.471
55344W        W21885   5.940   1.034  14.433
55345W        W21886  39.193  17.871   4.456
55346W        W21887  32.397  44.941   2.306
55347W        W21888  29.611  18.742   3.106
55348W        W21889  29.235  41.510  12.022
55349W        W21890  31.468  32.371  14.192
55350W        W21891  34.869  38.920  14.053
55351W        W21892   3.846  43.948  14.875
55352W        W21893  38.492   6.810  13.592
55353W        W21894   6.896  25.714  10.829
55354W        W21895  17.296  12.355   1.023
55355W        W21896  41.775  39.508   1.446
55356W        W21897  19.079  42.460  10.552
55357W        W21898   0.265  19.047   0.436
55358W        W21899  42.997  23.713  10.624
55359W        W21900  10.882  12.755   1.906
55360W        W21901  28.717  33.026   4.077
55361W        W21902  19.564  30.637  13.474
55362W        W21903  22.564  28.697  14.830
55363W        W21904  31.739  43.853  11.986
55364W        W21905  38.688  10.288   3.097
55365W        W21906  11.842  31.370  10.650
55366W        W21907   5.372   7.974   0.332
55367W        W21908  16.478  16.787  13.460
55368W        W21909   2.424   0.829   3.243
55369W        W21910   0.383  21.771   1.236
55370W        W21911   4.337   0.555   2.316
55371W        W21912  29.937   8.894   3.271
55372W        W21913  18.832  41.042  11.634
55373W        W21914  36.832  35.622  14.390
55374W        W21915  39.931  12.176   1.285
55375W        W21916  36.069  36.162  13.428
55376W        W21917   9.862  40.943   3.683
55377W        W21918  33.820  31.643   4.236
55378W        W21919   8.729  39.810   0.800
55379W        W21920  17.514   8.411   4.755
55380W        W21921  14.324  19.820  14.724
55381W        W21922   2.493  16.800  14.735
55382W        W21923  29.124  36.630  14.309
55383W        W21924  24.059  38.454   2.251
55384W        W21925  28.753   4.737  13.538
55385W        W21926  22.646   9.850   1.191
55386W        W21927  15.438  32.188   4.941
55387W        W21928   7.505  31.563  12.460
55388W        W21929  44.485  43.006   2.094
55389W        W21930  18.484  13.154  12.376
55390W        W21931  10.573  35.025  13.026
55391W        W21932  34.131  33.457   1.791
55392W        W21933  34.354   3.352   1.668
55393W        W21934  29.662  13.006  12.009
55394W        W21935  14.175  23.244  10.649
55395W        W21936  29.409  24.224  12.055
55396W        W21937   4.723  27.882  11.969
55397W        W21938  37.103  14.911   3.811
55398W        W21939  24.975  16.064   1.156
55399W        W21940   7.686  36.266   1.074
55400W        W21941  27.634  28.236   1.883
55401W        W21942  18.384  35.336  13.827
55402W        W21943  24.435   0.385   4.529
55403W        W21944  39.860  26.804   0.066
55404W        W21945  39.871  30.141   1.334
55405W        W21946  37.575  44.834  11.124
55406W        W21947  38.102  37.143   1.333
55407W        W21948  27.082  34.894  13.876
55408W        W21949  29.429   4.672   3.151
55409W        W21950  32.408  18.120   1.483
55410W        W21951  16.372  34.398   0.457
55411W        W21952  37.320  29.597  14.275
55412W        W21953  39.729  40.409   3.268
55413W        W21954  35.084   9.432   2.779
55414W        W21955   9.840  32.031   5.185
55415W        W21956  41.835  21.335  14.400
55416W        W21957  21.547  34.187   4.325
55417W        W21958  36.781   3.766  12.947
55418W        W21959  41.219  17.380  10.985
55419W        W21960  40.903  15.808  12.145
55420W        W21961   1.133  19.065  13.772
55421W        W21962  16.131  41.295  11.107
55422W        W21963  38.949  25.497   5.050
55423W        W21964  21.161  29.257   1.554
55424W        W21965   3.496   7.727   3.594
55425W        W21966  23.157  11.109  11.006
55426W        W21967  36.998  11.284   0.242
55427W        W21968  22.646  37.339   3.245
55428W        W21969  26.044   4.331   0.757
55429W        W21970   5.725  19.862  12.740
55430W        W21971   7.136  27.423  14.414
55431W        W21972   5.690  21.296   1.463
55432W        W21973   2.884  12.661   2.198
55433W        W21974  43.278   8.596  11.241
55434W        W21975   5.136  42.883   0.933
55435W        W21976  30.507  15.789  13.746
55436W        W21977   0.792  40.627  13.894
55437W        W21978  44.248  13.834  14.820
55438W        W21979   1.779  13.195  10.754
55439W        W21980   5.337  41.787  11.155
55440W        W21981  27.232   1.650  12.500
55441W        W21982  27.598   5.884   1.792
55442W        W21983  31.597  34.888  12.776
55443W        W21984  11.758  37.817   0.014
55444W        W21985  11.627  14.549  12.031
55445W        W21986   2.572  24.691   2.668
55446W        W21987   2.193   7.184   2.204
55447W        W21988  30.645  17.875  14.358
55448W        W21989  20.111  29.033   0.020
55449W        W21990  19.612  34.317   1.461
55450W        W21991  12.758  42.926   0.717
55451W        W21992  39.963   0.478   0.913
55452W        W21993   9.985  17.022   2.326
55453W        W21994  42.298  42.863   0.028
55454W        W21995  25.770  40.306  12.202
55455W        W21996  13.532   1.327  12.671
55456W        W21997  44.805  35.827  10.464
55457W        W21998  18.304   3.187  11.149
55458W        W21999  29.237   1.261  12.359
55459W        W22000  35.843   9.792  13.819
55460W        W22001  44.283  13.168   3.072
55461W        W22002  37.546  11.215   0.512
55462W        W22003  19.011  28.231  11.645
55463W        W22004  35.965  32.328   3.661
55464W        W22005  16.529  29.925  11.184
55465W        W22006  39.348   5.321  12.718
55466W        W22007  15.670   9.191  14.809
55467W        W22008  23.509   0.019   2.087
55468W        W22009   8.524   7.830  14.440
55469W        W22010  43.163   6.929   4.205
55470W        W22011  30.557   0.719  10.953
55471W        W22012  10.381  43.267  14.503
55472W        W22013   0.211  44.747  11.049
55473W        W22014  43.062  40.051  12.842
55474W        W22015  11.605  37.830   0.512
55475W        W22016   0.240  33.891  13.528
55476W        W22017  18.337   9.703  12.576
55477W        W22018  20.105  18.260   2.382
55478W        W22019  18.011  37.899  13.331
55479W        W22020   8.916   5.082   3.716
55480W        W22021  31.486  29.579  13.524
55481W        W22022   0.218  28.641  11.601
55482W        W22023  30.060  23.474   2.221
55483W        W22024  28.748  13.255   4.883
55484W        W22025  28.491   2.030   4.834
55485W        W22026  25.715  17.135  11.027
55486W        W22027  16.567   7.414  14.113
55487W        W22028  20.234  44.496  12.835
55488W        W22029  42.597   8.367   3.916
55489W        W22030  33.368  19.235  13.355
55490W        W22031   4.938  41.512  11.354
55491W        W22032  28.656  16.142   0.203
55492W        W22033  14.656  44.470  13.526
55493W        W22034  30.907  13.183   0.027
55494W        W22035  14.570  10.943  13.417
55495W        W22036  26.950   3.308  10.737
55496W        W22037  35.188  28.245   3.179
55497W        W22038  32.668  38.412   2.282
55498W        W22039  42.554  23.505   1.421
55499W        W22040   4.841  20.118  10.657
55500W        W22041   9.846  21.412  13.126
55501W        W22042  42.088  27.020   0.448
55502W        W22043  19.383  31.955  14.010
55503W        W22044  13.803  44.772  14.094
55504W        W22045  28.467  41.687  10.833
55505W        W22046  44.561  15.301  11.636
55506W        W22047  42.810  44.862  10.673
55507W        W22048  28.620  43.313   3.598
55508W        W22049  12.697  39.001   4.543
55509W        W22050  13.047  25.595  10.641
55510W        W22051  27.107  31.258   4.535
55511W        W22052  27.598   5.942   0.889
55512W        W22053  40.486  23.584   5.065
55513W        W22054  27.697  33.436  11.478
55514W        W22055  41.219  23.085  14.521
55515W        W22056  23.225  15.244   1.339
55516W        W22057  21.429   5.004  13.016
55517W        W22058  35.978  13.306  13.426
55518W        W22059  16.251  38.846   0.333
55519W        W22060  37.430  20.534   2.427
55520W        W22061  22.314  36.750   2.720
55521W        W22062  38.299  18.343  13.963
55522W        W22063  37.567  33.098  12.033
55523W        W22064   1.458   3.609   2.787
55524W        W22065  10.133  16.380   4.061
55525W        W22066   2.327   0.411  11.957
55526W        W22067  38.065   0.639   3.993
55527W        W22068  31.906   6.343   4.635
55528W        W22069  31.329  36.576  12.410
55529W        W22070  44.772  34.207   0.803
55530W        W22071  25.774  10.364  14.399
55531W        W22072  15.690  41.539  11.114
55532W        W22073  43.383  12.829   3.660
55533W        W22074  40.442   6.883  11.250
55534W        W22075  17.212  26.447  11.448
55535W        W22076   6.010  20.109   2.915
55536W        W22077  23.671   6.005   2.879
55537W        W22078  10.308  44.901  14.808
55538W        W22079  44.278  33.582   4.157
55539W        W22080   7.845  11.343   2.593
55540W        W22081   2.304   7.706   1.718
55541W        W22082  37.365  10.966  13.482
55542W        W22083  16.064  30.479  12.385
55543W        W22084   8.971   0.065  10.796
55544W        W22085  42.935  15.546  12.875
55545W        W22086  23.906  37.198  11.915
55546W        W22087  34.305  38.189   0.302
55547W        W22088  15.840  29.949  14.956
55548W        W22089   6.836   3.254   1.395
55549W        W22090  13.659  35.848  10.808
55550W        W22091  30.072   7.244   0.346
55551W        W22092  14.756  13.657  14.894
55552W        W22093  11.704  30.043  11.737
55553W        W22094  37.491  13.687   1.220
55554W        W22095  37.912  29.506   2.831
55555W        W22096  11.001  38.575  11.531
55556W        W22097  17.051  10.812   1.235
55557W        W22098  30.367  18.841   0.892
55558W        W22099   3.628  13.824   3.776
55559W        W22100  27.200  14.854  11.711
55560W        W22101  40.249  21.856   4.044
55561W        W22102  42.275  37.872  10.780
55562W        W22103  25.998  24.582  12.904
55563W        W22104   6.163  37.138   0.776
55564W        W22105  39.561   9.741   4.986
55565W        W22106  27.044   7.619  14.283
55566W        W22107  27.442  15.768  10.968
55567W        W22108   1.898   5.286   1.637
55568W        W22109  31.409  11.856  13.467
55569W        W22110  25.513  22.295  14.416
55570W        W22111  32.470  19.962  13.345
55571W        W22112  14.824  42.192  13.979
55572W        W22113  28.349  29.074  11.164
55573W        W22114  44.037  22.577  12.011
55574W        W22115  22.372  22.790  11.180
55575W        W22116  40.872  22.042  13.863
55576W        W22117   3.591  26.776   3.329
55577W        W22118  30.142  41.254  11.904
55578W        W22119  33.272  18.938  10.183
55579W        W22120  20.273  19.306  10.258
55580W        W22121  42.449   7.969   2.516
55581W        W22122  23.580  11.093  11.282
55582W        W22123  35.732  30.045  12.507
55583W        W22124  37.009  19.554   0.439
55584W        W22125  24.164  12.608   0.438
55585W        W22126  12.005  14.650   3.495
55586W        W22127  11.130  17.831   3.603
55587W        W22128  34.416  43.441  13.640
55588W        W22129   1.005  29.135   3.550
55589W        W22130  24.300  11.097   4.734
55590W        W22131   7.851  20.740  11.533
55591W        W22132   6.725   1.685  14.802
55592W        W22133  14.918  38.365   0.402
55593W        W22134   9.601  37.479   2.460
55594W        W22135  32.840  18.047  13.278
55595W        W22136  28.723   7.280   3.425
55596W        W22137  33.846  15.417   0.807
55597W        W22138   4.518  13.644   2.794
55598W        W22139  25.036   0.393  12.163
55599W        W22140   9.411   9.737   0.452
55600W        W22141   8.009  26.350   2.773
55601W        W22142  33.985   8.619   1.698
55602W        W22143   9.853   0.411  10.372
55603W        W22144  27.258   0.391  12.917
55604W        W22145  22.582  44.471  10.792
55605W        W22146   1.903  21.405   1.823
55606W        W22147  24.515  12.178  12.497
55607W        W22148  18.436  11.692   2.636
55608W        W22149  38.235  37.531  11.663
55609W        W22150  17.865  31.885   0.906
55610W        W22151  44.298  33.391  10.665
55611W        W22152  36.006   2.974  13.788
55612W        W22153  26.013   3.500   3.663
55613W        W22154  28.848  38.502  11.171
55614W        W22155  31.961  29.472  10.721
55615W        W22156  17.204  36.409   4.112
55616W        W22157   3.919   2.995   3.202
55617W        W22158  17.795  44.987   0.346
55618W        W22159  14.713  30.207  11.088
55619W        W22160   3.378  32.468  11.939
55620W        W22161  32.429  36.181  11.574
55621W        W22162  38.281  27.186  14.009
55622W        W22163   5.377  11.611  14.971
55623W        W22164  29.228  24.269  10.679
55624W        W22165  31.019  35.363  13.234
55625W        W22166  14.079  41.556  12.248
55626W        W22167   6.822   7.776   3.093
55627W        W22168  32.502  10.454  12.550
55628W        W22169  18.622  20.690  12.476
55629W        W22170  22.229  23.774   1.313
55630W        W22171  28.035  37.904   2.425
55631W        W22172   8.167  23.198   2.473
55632W        W22173  27.907  35.495   1.863
55633W        W22174   4.371  27.156  11.204
55634W        W22175  15.028  35.456  12.409
55635W        W22176  44.742  43.972   2.399
55636W        W22177  43.090  29.446   0.627
55637W        W22178  12.584  12.636  14.226
55638W        W22179   0.704  25.737  11.202
55639W        W22180  32.491  22.311   3.830
55640W        W22181  19.235  37.392  11.598
55641W        W22182  27.413  35.189  12.113
55642W        W22183  25.113  13.225  14.170
55643W        W22184  20.486  12.590  11.597
55644W        W22185   6.836  36.976   0.274
55645W        W22186  36.896  41.326  14.504
55646W        W22187  31.931  12.678  12.527
55647W        W22188  18.137   6.512   3.627
55648W        W22189  42.504  22.509  12.471
55649W        W22190  10.655  41.919   2.762
55650W        W22191  26.943   0.477   0.513
55651W        W22192  10.395  27.068   0.896
55652W        W22193   6.526  10.090   3.162
55653W        W22194  29.527   9.190   3.188
55654W        W22195   9.363  23.280   1.810
55655W        W22196  28.367  21.647   0.401
55656W        W22197  37.865  14.189   9.998
55657W        W22198  31.410  10.385  14.843
55658W        W22199  18.219  32.467  10.109
55659W        W22200  23.254  23.046  11.135
55660W        W22201  29.218  37.430  13.787
55661W        W22202   8.344  42.073   3.683
55662W        W22203   6.778  37.535  13.657
55663W        W22204  24.146  10.597   1.201
55664W        W22205  28.182  32.904   3.226
55665W        W22206  42.348   8.899  11.710
55666W        W22207  17.279  36.145  13.832
55667W        W22208  17.520  15.899   4.220
55668W        W22209  19.810  16.034   4.207
55669W        W22210   7.871  35.369  12.942
55670W        W22211  18.255  28.211   0.756
55671W        W22212  28.442  43.810   0.133
55672W        W22213  42.017  38.550   1.780
55673W        W22214  33.467  34.076  11.157
55674W        W22215  34.591  27.587  13.380
55675W        W22216   2.327   3.820   0.803
55676W        W22217  26.701  34.432  13.935
55677W        W22218  44.568  28.141   3.550
55678W        W22219  12.304   6.711   4.645
55679W        W22220  34.305   7.968   4.645
55680W        W22221  28.040   8.929  14.898
55681W        W22222  24.500  20.652  14.257
55682W        W22223  44.925  37.613  14.938
55683W        W22224  21.327   3.203   2.269
55684W        W22225  24.512  32.143   4.267
55685W        W22226  17.007   2.217  10.723
55686W        W22227  25.027   6.419   0.774
55687W        W22228   9.171  26.989   1.229
55688W        W22229  32.073  31.189  12.061
55689W        W22230  27.024  31.414  13.439
55690W        W22231  38.085  37.119   0.121
55691W        W22232  41.852  24.320   4.948
55692W        W22233  34.638   9.580  11.067
55693W        W22234  29.063  43.984  13.777
55694W        W22235  27.104  25.031   2.986
55695W        W22236   5.988   5.727   5.035
55696W        W22237  19.566  40.131  10.771
55697W        W22238   2.193  12.720   2.784
55698W        W22239   9.057   3.887  14.378
55699W        W22240  18.023  35.046   1.716
55700W        W22241   7.236   4.186   0.857
55701W        W22242   2.518   6.327  11.049
55702W        W22243  30.017  43.367   2.934
55703W        W22244  27.404  20.280  10.773
55704W        W22245   4.255  36.909   1.370
55705W        W22246  12.498  33.869  13.873
55706W        W22247  15.079  28.216  11.634
55707W        W22248  36.880  34.935   3.917
55708W        W22249   0.265  43.856   2.411
55709W        W22250  31.891  21.586  11.090
55710W        W22251  17.460   0.670   1.605
55711W        W22252   0.280  27.448  13.910
55712W        W22253  40.383  13.163   2.548
55713W        W22254  18.323  12.520  11.853
55714W        W22255  14.877  24.097   2.484
55715W        W22256  35.346  41.572  10.486
55716W        W22257  33.877  28.931   2.128
55717W        W22258   3.427   9.806  12.980
55718W        W22259  10.833  42.389  12.956
55719W        W22260  27.055  43.830   0.841
55720W        W22261  11.692  14.432   0.489
55721W        W22262  21.200  33.420  11.575
55722W        W22263  44.836  23.393   4.090
55723W        W22264   2.269  11.153  10.229
55724W        W22265  20.097  36.806  10.969
55725W        W22266  35.880  20.326   0.980
55726W        W22267   8.663  40.841   5.589
55727W        W22268   8.771  30.677  14.648
55728W        W22269  34.036  38.997  11.218
55729W        W22270   5.773  12.719  14.959
55730W        W22271  18.665   0.707  12.411
55731W        W22272   7.228  11.083  11.093
55732W        W22273  33.995  25.100   2.340
55733W        W22274  35.514  34.615  10.641
55734W        W22275  44.656  35.094   0.954
55735W        W22276   2.539  33.065   3.663
55736W        W22277   7.761  37.494   4.983
55737W        W22278  16.601  29.566   3.730
55738W        W22279   8.087  33.512  10.772
55739W        W22280  37.296  28.011   4.575
55740W        W22281  15.305  19.750   1.459
55741W        W22282  21.732  35.465  12.065
55742W        W22283  27.490  28.281   4.234
55743W        W22284  16.948  29.976   4.627
55744W        W22285  25.614  12.021   0.237
55745W        W22286  21.575  16.435   1.221
55746W        W22287  17.584   5.233  10.695
55747W        W22288  25.267  34.452  11.448
55748W        W22289  35.825   3.295  14.812
55749W        W22290   7.208  20.581   4.845
55750W        W22291  23.035  11.399   4.763
55751W        W22292  17.095  32.440   0.544
55752W        W22293   0.445   7.912  10.945
55753W        W22294  11.126   1.913  12.390
55754W        W22295   4.464   8.926  14.839
55755W        W22296  29.095  20.585   3.750
55756W        W22297  37.350  33.593  14.869
55757W        W22298  32.395  22.272  14.500
55758W        W22299   4.954   3.321  12.187
55759W        W22300  17.827  10.317  12.423
55760W        W22301  26.431   9.460   2.858
55761W        W22302  43.912  14.903   4.106
55762W        W22303  19.736  23.280  14.024
55763W        W22304   3.437  13.344  13.452
55764W        W22305  19.668   5.367   3.445
55765W        W22306  20.083  42.541  10.830
55766W        W22307   7.119  27.887   1.309
55767W        W22308  30.423  11.892   2.282
55768W        W22309  26.559  22.407  10.667
55769W        W22310  28.694   2.419   4.474
55770W        W22311   4.430  26.709  10.930
55771W        W22312  44.057  27.905   2.743
55772W        W22313   3.611   0.166   3.981
55773W        W22314   0.331  26.722  13.394
55774W        W22315  35.536  20.737  13.332
55775W        W22316  41.907  30.352   4.504
55776W        W22317  37.519  16.715   3.547
55777W        W22318   4.274  18.965   1.384
55778W        W22319  17.294   0.319   1.237
55779W        W22320  11.864  26.424   2.725
55780W        W22321  35.990  37.980   1.681
55781W        W22322  27.078  29.482  11.114
55782W        W22323  22.025  20.649  12.311
55783W        W22324  30.097  44.244  10.116
55784W        W22325  32.398   9.963  14.896
55785W        W22326  24.721  34.584   1.296
55786W        W22327  33.623  14.634  11.198
55787W        W22328  43.502  29.114  11.614
55788W        W22329  33.368  18.784  14.413
55789W        W22330  30.928  23.235   0.256
55790W        W22331   8.200  15.536   2.730
55791W        W22332  19.293  25.652  11.856
55792W        W22333  44.313  18.034  10.616
55793W        W22334  12.089  12.244  12.980
55794W        W22335  42.138  31.337   1.435
55795W        W22336   8.351  43.932  14.309
55796W        W22337  10.685  12.274   2.723
55797W        W22338  16.170  43.543  12.341
55798W        W22339  43.763   6.287  13.132
55799W        W22340   7.606  21.165   4.326
55800W        W22341  41.863  15.721   4.577
55801W        W22342   5.765  35.077  13.410
55802W        W22343  21.026  15.048   3.413
55803W        W22344  24.108  18.240   4.977
55804W        W22345   2.473  37.184   2.092
55805W        W22346   6.730  10.224   0.743
55806W        W22347  24.236  42.369  13.191
55807W        W22348  33.567  16.674  12.093
55808W        W22349  17.598  28.578  12.827
55809W        W22350   3.795  33.342   3.727
55810W        W22351  14.283  37.603   1.258
55811W        W22352   2.810  30.377  13.004
55812W        W22353  36.038  21.245   0.971
55813W        W22354  12.134   3.822  14.365
55814W        W22355   3.320  22.436   2.212
55815W        W22356  22.108   2.272  12.058
55816W        W22357  26.046  28.121  10.733
55817W        W22358  35.625  25.364   1.879
55818W        W22359  13.700  44.881  10.728
55819W        W22360   2.972  12.887   3.407
55820W        W22361   6.122  21.036   1.317
55821W        W22362   3.734   7.122   4.949
55822W        W22363   4.523  27.967  13.227
55823W        W22364  21.760   9.196   4.767
55824W        W22365   0.246  21.651  10.204
55825W        W22366  42.547   0.393  12.689
55826W        W22367   8.945  33.077   3.187
55827W        W22368   7.874  41.451   4.700
55828W        W22369  16.019  29.975  12.442
55829W        W22370  17.584  36.598  13.508
55830W        W22371  28.078   7.452  13.970
55831W        W22372   3.046  42.390  11.522
55832W        W22373  26.441  34.071   1.803
55833W        W22374  30.137  17.020  10.868
55834W        W22375  22.214  32.368   4.295
55835W        W22376  18.631  35.237  11.024
55836W        W22377  31.853   2.776  11.255
55837W        W22378  12.267  23.892  14.194
55838W        W22379  20.709  15.197  13.241
55839W        W22380  21.217  37.408   4.155
55840W        W22381  30.444   6.727  14.865
55841W        W22382  35.460  34.074   3.775
55842W        W22383   7.168   4.691  12.113
55843W        W22384   7.289  13.584   2.915
55844W        W22385  20.060   3.331  14.965
55845W        W22386  18.765  13.650  13.629
55846W        W22387  10.339   7.269   4.486
55847W        W22388  26.095  12.731   0.303
55848W        W22389  40.867  34.565  13.107
55849W        W22390  31.008  23.261  12.065
55850W        W22391  32.333  16.790  13.008
55851W        W22392   9.901  10.187  13.062
55852W        W22393  26.379  39.651   0.260
55853W        W22394   7.478  23.519  14.195
55854W        W22395   7.222  13.866   0.446
55855W        W22396  22.081   5.760  12.308
55856W        W22397  15.755  31.349  10.761
55857W        W22398  31.321   6.322  13.279
55858W        W22399  11.247  43.466  14.289
55859W        W22400  20.115   2.276   1.276
55860W        W22401  22.134  14.823  12.493
55861W        W22402  32.376   0.388  10.561
55862W        W22403  13.809  23.221  11.084
55863W        W22404  22.942   5.432   2.671
55864W        W22405  28.093  14.848   2.710
55865W        W22406   3.047  32.955   3.665
55866W        W22407   1.830   6.490  12.995
55867W        W22408  34.549  41.226  12.589
55868W        W22409  43.877  42.492   4.609
55869W        W22410   1.784   3.482  13.413
55870W        W22411   9.156  40.427   2.837
55871W        W22412  43.807  38.543  11.611
55872W        W22413   1.079   7.371   0.448
55873W        W22414  26.603  10.134   1.010
55874W        W22415  31.374   1.319   1.699
55875W        W22416  44.612  32.601   4.061
55876W        W22417  22.780  11.882  11.076
55877W        W22418   3.278  43.032   0.930
55878W        W22419  17.637   4.141  12.180
55879W        W22420  23.366  18.097   0.895
55880W        W22421   7.419  24.544  11.480
55881W        W22422  24.461  37.588  13.925
55882W        W22423  14.221  29.621   2.172
55883W        W22424   3.740  19.110   3.220
55884W        W22425   4.304  22.001   4.732
55885W        W22426  13.318  17.844   2.642
55886W        W22427   6.739  26.263   0.727
55887W        W22428   7.748   6.374   1.182
55888W        W22429  24.287  26.942   2.424
55889W        W22430  30.526  42.410   4.957
55890W        W22431  36.503  29.952  11.176
55891W        W22432  25.372  28.646   4.193
55892W        W22433  28.360  32.920  14.945
55893W        W22434  16.621  29.564   4.613
55894W        W22435   3.968  13.578  13.928
55895W        W22436  12.658  30.154  10.925
55896W        W22437  26.726  34.992  11.746
55897W        W22438   1.385   5.602   2.778
55898W        W22439  30.562  17.024   2.300
55899W        W22440  19.750  43.024   2.821
55900W        W22441   4.344   6.741  11.794
55901W        W22442  22.688  22.586   2.121
55902W        W22443  12.007  28.577  11.419
55903W        W22444  38.035  27.718   1.323
55904W        W22445  26.617   0.365  12.549
55905W        W22446   7.680  22.413   1.920
55906W        W22447  21.212  26.884  14.540
55907W        W22448  13.720   2.380   2.586
55908W        W22449  44.226  11.869  13.247
55909W        W22450  26.742  36.116  14.850
55910W        W22451  38.729  23.732  13.936
55911W        W22452  40.918  44.465  12.664
55912W        W22453  14.167  17.613   0.861
55913W        W22454  11.467  40.498   2.370
55914W        W22455  34.981  40.283   3.021
55915W        W22456   1.495   8.399   2.360
55916W        W22457   4.738   9.629  14.351
55917W        W22458  10.554  34.869   2.670
55918W        W22459   4.049  31.883   2.605
55919W        W22460  12.154  39.745   1.378
55920W        W22461  44.177  21.251   2.228
55921W        W22462  35.752  38.054  12.502
55922W        W22463  20.507  40.253   3.316
55923W        W22464  34.938  39.878  14.914
55924W        W22465  26.164  10.718  11.933
55925W        W22466   0.385  10.695   4.590
55926W        W22467  37.905  40.817   0.958
55927W        W22468  26.598  14.030   4.971
55928W        W22469  14.624   0.255   0.530
55929W        W22470  32.921  37.187   1.973
55930W        W22471  22.839  37.766  12.471
55931W        W22472   6.960   7.272  14.856
55932W        W22473  33.223   1.395   5.119
55933W        W22474   8.350  36.363   5.074
55934W        W22475  28.009  42.019   1.144
55935W        W22476  31.698   2.845   0.336
55936W        W22477  39.079  20.761  13.960
55937W        W22478  29.969  20.618  12.917
55938W        W22479   8.080  34.453  11.245
55939W        W22480  22.831   5.400  10.403
55940W        W22481  13.821   2.047   0.249
55941W        W22482  19.978   6.024   2.654
55942W        W22483  20.207   8.886  10.691
55943W        W22484  19.502  42.735  13.399
55944W        W22485  26.431  34.136  14.943
55945W        W22486  15.400  37.818   0.843
55946W        W22487   7.810  40.601   2.174
55947W        W22488  11.941  23.427  10.573
55948W        W22489  24.595  18.088  14.897
55949W        W22490   5.969   6.202   1.032
55950W        W22491  39.398   3.236  14.964
55951W        W22492  37.778  12.489   4.590
55952W        W22493   8.252  20.778   2.019
55953W        W22494  40.704   1.837   0.789
55954W        W22495  19.637  23.220  11.206
55955W        W22496  15.742  19.533  10.700
55956W        W22497  14.796  18.801   4.916
55957W        W22498  42.017  15.545  14.205
55958W        W22499  34.391  22.601  14.066
55959W        W22500  36.824  26.523   1.164
55960W        W22501  31.181   3.234   3.281
55961W        W22502  24.077  14.360   4.243
55962W        W22503  11.965  28.191  13.990
55963W        W22504   7.821  13.570   0.256
55964W        W22505   7.688  25.624   0.260
55965W        W22506  36.885   7.669  13.059
55966W        W22507  30.177  19.757  14.358
55967W        W22508  26.127  35.807  14.384
55968W        W22509  40.347  19.629  13.403
55969W        W22510  39.430  41.694  11.090
55970W        W22511  29.617  39.975   2.981
55971W        W22512  20.023  28.092  12.792
55972W        W22513  12.290  20.959  13.567
55973W        W22514   4.314  14.448   3.378
55974W        W22515  26.244  43.186  11.143
55975W        W22516  38.847  31.022   4.611
55976W        W22517   9.170  26.081  10.673
55977W        W22518  34.462   1.030  14.287
55978W        W22519  21.660  43.871   3.354
55979W        W22520  21.644  29.447   1.958
55980W        W22521  34.625   5.220  10.526
55981W        W22522  11.279   4.363  11.207
55982W        W22523  12.361   9.731   0.168
55983W        W22524  10.112  14.713   3.665
55984W        W22525  22.584  33.467  10.543
55985W        W22526  29.225  32.599   2.722
55986W        W22527  38.534  23.538   0.989
55987W        W22528  28.722  22.712  13.579
55988W        W22529  18.441  21.162   1.157
55989W        W22530  34.026   3.794  13.590
55990W        W22531   5.862   0.838  12.536
55991W        W22532  20.008  17.966   3.675
55992W        W22533  10.403  27.321   0.270
55993W        W22534  35.866   2.225  13.081
55994W        W22535  33.238   1.734   2.516
55995W        W22536  39.350   9.195  10.412
55996W        W22537   9.406   9.699  13.486
55997W        W22538  39.579  22.623   1.435
55998W        W22539   8.394  10.051   4.490
55999W        W22540  32.484  43.779  13.843
56000W        W22541  11.080  10.857  14.806
56001W        W22542  39.282  23.937  13.305
56002W        W22543  34.878   5.960  13.038
56003W        W22544   1.984  37.848  13.064
56004W        W22545  40.865   7.726   2.339
56005W        W22546  44.166  15.916  12.673
56006W        W22547   6.414   0.003  11.258
56007W        W22548  31.281  29.640  11.482
56008W        W22549  32.148  17.581   4.691
56009W        W22550  37.676  42.897   2.135
56010W        W22551  24.546   1.200   0.175
56011W        W22552  38.945  30.920  13.988
56012W        W22553  29.962  29.855  13.539
56013W        W22554   4.853  22.757  12.470
56014W        W22555  18.287  20.036  13.884
56015W        W22556  42.430  12.362   0.321
56016W        W22557   9.847   2.509  11.839
56017W        W22558   6.685  42.405  10.554
56018W        W22559  44.725  28.126  12.924
56019W        W22560  27.570   0.244  11.635
56020W        W22561  34.172   2.326   2.068
56021W        W22562  15.141  33.395   3.184
56022W        W22563  25.322  12.380   4.145
56023W        W22564   6.209  20.874   3.022
56024W        W22565  33.498   7.705  12.808
56025W        W22566  10.930  36.902   0.397
56026W        W22567  36.184   7.722   1.967
56027W        W22568  25.225  15.292   4.160
56028W        W22569  41.584  25.028   4.111
56029W        W22570  38.997  43.291   4.134
56030W        W22571  42.009  26.038  13.567
56031W        W22572  21.800   9.330  11.393
56032W        W22573  19.196  23.297   2.307
56033W        W22574  18.121   4.471  10.643
56034W        W22575  19.987  38.252   2.809
56035W        W22576   3.293  10.298   2.670
56036W        W22577  40.307  31.484  11.087
56037W        W22578  22.685   4.080   5.381
56038W        W22579  36.884  39.076  11.171
56039W        W22580   4.371  41.806  13.796
56040W        W22581  34.414  40.146  11.215
56041W        W22582  35.994  34.797  12.017
56042W        W22583  26.060  25.475  14.078
56043W        W22584  30.459  10.029   4.985
56044W        W22585  28.231  12.542   2.676
56045W        W22586  30.559  42.066   4.585
56046W        W22587  11.583   8.419   2.761
56047W        W22588  30.852  34.825  14.645
56048W        W22589  11.932  18.552  12.981
56049W        W22590  13.146  13.174  14.761
56050W        W22591  23.825  30.621   4.903
56051W        W22592  24.179   2.038  13.904
56052W        W22593   5.307  23.563   2.378
56053W        W22594  11.213  35.100   3.185
56054W        W22595  10.353   2.456  13.453
56055W        W22596  12.236  12.138  14.972
56056W        W22597   9.933  37.425  14.826
56057W        W22598   2.572  37.917  11.869
56058W        W22599  43.773   9.901   3.232
56059W        W22600  17.417  21.584   4.577
56060W        W22601  16.198  35.400  14.065
56061W        W22602  10.886  44.437   1.900
56062W        W22603  35.704  43.404  12.958
56063W        W22604  18.643  38.400  12.532
56064W        W22605   1.846  42.715   2.629
56065W        W22606  38.374  21.570  12.572
56066W        W22607   8.598  15.284   3.742
56067W        W22608  34.947   6.160  14.331
56068W        W22609  16.618  33.835  11.605
56069W        W22610  28.992  28.717   2.791
56070W        W22611   2.491   9.318  11.626
56071W        W22612   3.098  42.258  10.812
56072W        W22613  12.649  34.271  14.381
56073W        W22614  18.663  24.080   3.415
56074W        W22615   0.008  42.306  12.543
56075W        W22616  18.255   9.764   3.649
56076W        W22617  14.843   5.460  12.399
56077W        W22618  29.993  27.154   4.193
56078W        W22619  30.147  12.591  12.870
56079W        W22620  17.495  13.708   0.981
56080W        W22621  35.146   8.415   0.293
56081W        W22622  12.732  37.087  12.206
56082W        W22623  11.295  18.797  12.387
56083W        W22624  20.744   2.370  13.373
56084W        W22625   9.063   0.246   2.831
56085W        W22626  31.057  29.090  10.569
56086W        W22627  38.477  44.985  10.912
56087W        W22628  18.503  19.075  11.468
56088W        W22629   6.315   5.366  10.154
56089W        W22630  16.667   4.834  12.468
56090W        W22631  44.867  39.326  13.611
56091W        W22632  33.260  31.566  11.035
56092W        W22633  25.192  11.373  12.605
56093W        W22634  32.447  29.708  11.999
56094W        W22635  31.831  15.158   4.688
56095W        W22636  34.880   3.641  13.208
56096W        W22637  25.487   9.500  14.457
56097W        W22638  28.575   9.827   4.586
56098W        W22639   6.294  43.323  12.538
56099W        W22640  43.987  25.594   1.163
56100W        W22641  40.404  32.912  14.354
56101W        W22642  44.915  17.777   2.741
56102W        W22643   2.235  31.489  12.779
56103W        W22644  19.957   4.776  13.840
56104W        W22645  14.588  20.643   4.162
56105W        W22646  18.255  34.255   3.880
56106W        W22647  20.278  19.018  11.197
56107W        W22648  32.060  24.128   2.258
56108W        W22649  31.581   9.316  14.951
56109W        W22650  40.777  21.628  13.559
56110W        W22651  23.212  36.417  14.428
56111W        W22652  10.374  36.044  14.422
56112W        W22653   8.703  13.426   3.119
56113W        W22654   9.320   2.339  11.632
56114W        W22655  37.004   5.832   2.913
56115W        W22656  15.720   0.749   3.678
56116W        W22657  12.254  23.651   0.502
56117W        W22658  25.051  42.568   0.750
56118W        W22659  35.643  14.009  10.725
56119W        W22660  11.467  44.658   2.229
56120W        W22661  36.216   1.851   4.426
56121W        W22662  44.123   7.623   0.925
56122W        W22663  37.454   7.837   2.866
56123W        W22664   3.618  43.181  13.500
56124W        W22665  25.197  23.968   4.510
56125W        W22666   0.317   4.153  14.201
56126W        W22667  32.218  22.030  13.051
56127W        W22668  39.635   6.672  14.750
56128W        W22669  21.122  31.435   1.974
56129W        W22670  23.079  18.272   4.490
56130W        W22671  19.652  33.318   1.237
56131W        W22672  42.257   7.233  11.089
56132W        W22673   5.390  19.777   4.259
56133W        W22674  10.815  39.538   3.394
56134W        W22675   5.086  12.288  10.595
56135W        W22676  11.161  36.171   0.503
56136W        W22677  36.161  20.061   4.640
56137W        W22678  37.355  33.534   3.285
56138W        W22679  41.707  38.544   2.622
56139W        W22680  35.026  21.613  11.402
56140W        W22681  14.256   6.613   4.532
56141W        W22682  27.003  15.077  13.638
56142W        W22683  24.532   5.898   3.646
56143W        W22684  23.577  24.159  13.590
56144W        W22685  10.571   4.872   3.713
56145W        W22686   7.977  24.842  14.846
56146W        W22687  19.817  39.724  12.688
56147W        W22688  42.710   7.670  10.754
56148W        W22689  34.215  40.887  12.408
56149W        W22690  31.104  30.870  12.031
56150W        W22691  40.039  27.285   2.852
56151W        W22692   8.471   1.552   2.385
56152W        W22693   5.668   2.375   2.370
56153W        W22694  40.545  27.292   4.339
56154W        W22695  11.816  39.873  11.674
56155W        W22696  40.859   7.516  12.519
56156W        W22697   6.705  43.471  13.262
56157W        W22698  37.081  19.242  14.689
56158W        W22699  38.794  12.255  14.820
56159W        W22700  24.778   9.209   4.464
56160W        W22701  19.997  33.924   1.018
56161W        W22702  35.074  12.105  12.516
56162W        W22703  11.323  23.758  13.827
56163W        W22704  38.933  20.794   4.404
56164W        W22705  29.198   6.842  12.396
56165W        W22706   9.236  11.691  10.812
56166W        W22707  43.440   9.652   4.144
56167W        W22708  31.935  42.490  11.117
56168W        W22709  10.889  10.552  12.951
56169W        W22710  22.196  24.977  10.922
56170W        W22711   8.890   5.402   2.748
56171W        W22712   4.563  43.771  14.887
56172W        W22713  40.553   9.247  13.769
56173W        W22714  26.788  38.428  13.968
56174W        W22715  22.510  31.087   4.519
56175W        W22716  34.048  44.219  13.381
56176W        W22717  13.273  27.207  13.810
56177W        W22718  36.595  31.856  14.437
56178W        W22719   0.478   5.944   0.934
56179W        W22720  10.408  28.427   3.619
56180W        W22721  10.174  19.605  14.046
56181W        W22722  11.461  34.434  10.470
56182W        W22723  21.681  14.758   1.825
56183W        W22724  33.860  41.160   3.242
56184W        W22725  35.131  36.427  14.394
56185W        W22726  19.621  30.098   0.921
56186W        W22727  44.519  18.599  10.686
56187W        W22728  18.072  42.736   2.207
56188W        W22729  36.566  42.425   0.851
56189W        W22730  14.111  25.916  13.903
56190W        W22731  28.282   2.938  12.944
56191W        W22732  40.646  17.480   2.872
56192W        W22733  36.306   3.740  11.593
56193W        W22734  25.203  21.740  11.903
56194W        W22735  10.618   3.847   1.878
56195W        W22736  37.632  24.052   0.750
56196W        W22737  42.802   0.961   1.864
56197W        W22738  25.675  20.540  13.015
56198W        W22739  39.405   1.741  10.626
56199W        W22740  11.757  35.192   4.393
56200W        W22741   2.630  34.994  10.208
56201W        W22742  18.739  42.918   4.954
56202W        W22743  17.949  42.887  12.803
56203W        W22744  29.914  12.855  12.476
56204W        W22745  30.108  25.007   2.318
56205W        W22746  33.493  31.790   4.597
56206W        W22747   2.071  19.205   3.706
56207W        W22748  20.668  44.953   4.025
56208W        W22749  37.883  18.598  13.223
56209W        W22750   4.202  18.745   1.860
56210W        W22751  37.562  36.623   1.388
56211W        W22752  14.161   9.334  12.978
56212W        W22753  20.976  33.852   1.469
56213W        W22754  25.848  31.901  13.302
56214W        W22755  26.434  44.553  14.014
56215W        W22756  27.591  26.009   1.884
56216W        W22757  10.118  25.613   0.199
56217W        W22758  15.635   3.033   2.947
56218W        W22759   4.316   4.459  14.092
56219W        W22760  38.456  25.159   1.490
56220W        W22761  36.412  33.223   3.101
56221W        W22762  32.821   5.541  10.839
56222W        W22763  37.915  21.780  12.524
56223W        W22764  15.302  19.222   0.362
56224W        W22765   8.302  41.590   5.023
56225W        W22766  39.742  33.737   2.656
56226W        W22767   5.003  15.563   2.337
56227W        W22768  34.523   2.712  12.954
56228W        W22769  17.617  38.435   4.024
56229W        W22770  35.803   5.529  13.322
56230W        W22771  18.250   7.182  10.711
56231W        W22772  32.690  37.754  14.228
56232W        W22773  20.783  39.934   4.067
56233W        W22774   5.172  36.403  13.561
56234W        W22775   0.949  13.101  11.593
56235W        W22776  44.814  36.874  14.400
56236W        W22777  40.986  44.031   2.860
56237W        W22778  11.660   0.191   2.203
56238W        W22779  31.657  15.587   5.036
56239W        W22780   7.374  31.773  13.967
56240W        W22781   3.000  27.937  14.092
56241W        W22782  41.439  38.013   0.361
56242W        W22783   7.952  29.588   3.782
56243W        W22784  26.093  42.797   4.121
56244W        W22785  15.586  16.841   0.002
56245W        W22786   1.823  32.254  11.049
56246W        W22787  12.124   7.610  14.422
56247W        W22788  16.255  44.550   0.042
56248W        W22789   2.637  11.058  14.927
56249W        W22790  23.518  43.405   2.996
56250W        W22791  41.830  11.246  11.615
56251W        W22792   4.328  18.245   3.579
56252W        W22793   6.868   9.812   2.296
56253W        W22794  27.183  15.285   1.982
56254W        W22795  28.566   1.816  11.916
56255W        W22796   6.397  36.972  12.386
56256W        W22797  34.089  41.749  11.877
56257W        W22798  35.525   1.978   2.017
56258W        W22799  41.279   0.562   3.416
56259W        W22800  13.728  25.140  11.039
56260W        W22801   6.263  42.906  13.555
56261W        W22802  13.784  33.419  14.940
56262W        W22803  37.771  27.376   4.943
56263W        W22804  25.632   6.910  12.030
56264W        W22805   4.001  27.181  10.388
56265W        W22806  14.903  10.834   2.778
56266W        W22807  29.560  24.726   0.283
56267W        W22808  25.270   3.935  12.132
56268W        W22809  22.623  39.987   1.182
56269W        W22810  35.644   5.292   4.158
56270W        W22811   4.803   7.435   1.049
56271W        W22812  23.924  22.297  10.945
56272W        W22813   0.191  22.677  10.873
56273W        W22814   2.413  12.817  10.532
56274W        W22815   8.774   7.248  12.114
56275W        W22816   4.812  39.002  11.995
56276W        W22817   3.375  23.761   2.855
56277W        W22818  26.407  19.127  13.737
56278W        W22819   7.937  12.692  12.449
56279W        W22820  20.647  35.119  10.684
56280W        W22821  17.847  22.254   2.390
56281W        W22822  44.524   6.326   0.896
56282W        W22823  26.133   2.232   4.567
56283W        W22824  10.653  29.970   3.859
56284W        W22825  27.460  14.255   2.625
56285W        W22826   7.848  35.758  10.074
56286W        W22827  36.484   9.155   3.710
56287W        W22828   5.707  27.945   1.319
56288W        W22829  33.936  32.888  13.942
56289W        W22830  25.591  34.447  12.863
56290W        W22831  24.771  29.010   4.800
56291W        W22832  26.186  38.394   4.363
56292W        W22833  10.235  28.177   4.780
56293W        W22834  42.126   7.826  14.455
56294W        W22835  14.571  11.832   1.777
56295W        W22836  25.590  13.850  13.689
56296W        W22837  11.866   0.514   0.414
56297W        W22838  23.144  42.521   4.581
56298W        W22839  36.461  28.500   2.891
56299W        W22840   0.207  12.336  14.864
56300W        W22841  34.477  13.839   1.021
56301W        W22842  32.470  31.679   0.385
56302W        W22843  33.432  27.934   5.174
56303W        W22844  31.600  31.815  11.112
56304W        W22845   9.316  20.767  13.574
56305W        W22846  34.028  44.553   1.731
56306W        W22847  18.946  30.389   5.235
56307W        W22848  34.385  10.646  14.981
56308W        W22849   8.401  22.139   2.685
56309W        W22850  10.222   4.167   1.971
56310W        W22851  34.785   5.780   5.052
56311W        W22852   0.784  44.066   3.329
56312W        W22853  20.038   3.409   9.926
56313W        W22854  29.781  20.584  13.924
56314W        W22855  27.081   8.400  14.753
56315W        W22856  31.996  42.513  14.543
56316W        W22857   3.082   2.308   3.282
56317W        W22858  19.804  10.016   3.349
56318W        W22859   0.590   2.407  14.373
56319W        W22860  11.642  25.814  12.489
56320W        W22861   6.593  10.773   0.970
56321W        W22862   2.319  35.888   2.724
56322W        W22863  38.225  34.292   3.660
56323W        W22864  25.279  18.614  13.125
56324W        W22865  25.205  31.460   1.786
56325W        W22866  30.284   5.684  13.365
56326W        W22867  28.380  12.285  11.971
56327W        W22868  30.427  37.599   1.799
56328W        W22869   3.915   5.232  14.009
56329W        W22870  35.322  29.161   0.028
56330W        W22871  25.447  36.362   1.801
56331W        W22872  15.379  33.025   2.765
56332W        W22873  35.602  16.168  12.600
56333W        W22874  44.801   8.146   4.382
56334W        W22875   8.298  30.618   1.199
56335W        W22876  35.161  44.192   0.342
56336W        W22877  16.903  36.866  10.561
56337W        W22878  26.413  20.538   1.839
56338W        W22879   2.240  38.245   3.726
56339W        W22880  29.864  40.937  12.448
56340W        W22881  12.287  10.107  14.742
56341W        W22882  40.447   1.306  11.884
56342W        W22883  33.976  19.322   1.324
56343W        W22884  31.378   2.318  10.075
56344W        W22885   3.338  13.345  14.432
56345W        W22886  36.235   3.036  10.223
56346W        W22887  30.599  32.586   4.670
56347W        W22888  41.964  44.877  13.075
56348W        W22889  37.049  39.897  11.638
56349W        W22890  10.562  20.020   0.573
56350W        W22891  28.580  26.508  10.858
56351W        W22892   3.533  30.365   2.281
56352W        W22893   1.756  16.209  14.710
56353W        W22894  43.286   6.678   2.183
56354W        W22895  39.909  17.336  12.168
56355W        W22896  21.762  15.804   2.690
56356W        W22897   1.194   4.684   1.807
56357W        W22898   5.719  16.764   2.920
56358W        W22899  17.749  40.596  12.218
56359W        W22900  19.847  42.671   2.430
56360W        W22901  20.541  19.544   2.360
56361W        W22902  38.477  15.255  11.651
56362W        W22903   3.359   4.839   0.034
56363W        W22904  25.915   9.430   2.740
56364W        W22905  16.272   5.696   4.270
56365W        W22906  36.875  32.460   2.684
56366W        W22907  28.118  12.547  12.857
56367W        W22908  36.120  14.104  13.035
56368W        W22909   6.892  14.334   3.726
56369W        W22910  21.022  13.348  11.091
56370W        W22911  41.472  38.541   1.312
56371W        W22912  39.624   0.036  11.917
56372W        W22913  12.865  44.446  11.593
56373W        W22914  24.007  43.074  14.438
56374W        W22915  15.500   5.874  14.350
56375W        W22916  28.949  41.278  12.408
56376W        W22917  31.472   0.935   3.792
56377W        W22918  18.659  13.818  12.621
56378W        W22919  41.669   4.879   1.699
56379W        W22920  11.441  10.712  11.708
56380W        W22921  16.629  37.311  13.006
56381W        W22922   1.864   3.753  12.204
56382W        W22923  33.517  10.787   2.833
56383W        W22924   5.770  31.748   3.531
56384W        W22925  28.224  17.051   0.385
56385W        W22926   8.222  34.602   1.897
56386W        W22927  29.665   9.692   5.479
56387W        W22928  20.698  38.145   4.922
56388W        W22929   8.179  33.409   4.779
56389W        W22930  44.403  34.900  12.579
56390W        W22931  14.981  35.878  13.214
56391W        W22932  34.490  42.877   2.706
56392W        W22933  27.087  19.219   0.370
56393W        W22934  33.591  14.684  12.111
56394W        W22935  32.189  24.688   2.651
56395W        W22936  24.814   9.736   2.215
56396W        W22937  36.824  41.289  10.681
56397W        W22938   4.759   3.765   3.609
56398W        W22939  14.256  39.034  12.392
56399W        W22940  23.149   9.186  13.147
56400W        W22941  22.059  34.082   0.344
56401W        W22942  44.815  15.067  12.035
56402W        W22943  39.346  26.033   4.799
56403W        W22944  16.076  18.806  14.261
56404W        W22945  13.151  22.270  10.665
56405W        W22946  10.814  37.056   3.306
56406W        W22947  15.251  15.302   0.461
56407W        W22948   8.756  26.418   0.883
56408W        W22949  14.813   9.875  11.526
56409W        W22950  19.621   8.285  14.225
56410W        W22951  41.913   5.827   0.380
56411W        W22952  19.649  31.463   4.294
56412W        W22953  42.285   0.329  13.144
56413W        W22954  10.247  42.425   1.481
56414W        W22955  26.623  12.268   5.015
56415W        W22956  19.612   6.951   5.026
56416W        W22957  19.567  21.123   1.364
56417W        W22958  21.288   0.738   3.314
56418W        W22959  28.697  30.622  10.706
56419W        W22960  36.328  16.038   1.851
56420W        W22961  11.276  16.189  14.406
56421W        W22962  39.206   7.175   0.320
56422W        W22963   6.680  33.339  13.981
56423W        W22964  39.383   8.861   3.242
56424W        W22965  12.793  34.209   5.456
56425W        W22966   5.001   4.016   3.060
56426W        W22967  28.207  21.678   4.468
56427W        W22968  39.388  30.106   4.201
56428W        W22969  11.808  24.242   2.442
56429W        W22970   0.787  22.602   5.014
56430W        W22971   0.340  30.629  12.617
56431W        W22972  18.248  39.979  12.400
56432W        W22973   2.096   3.055  13.441
56433W        W22974  15.168  27.261  11.413
56434W        W22975   2.733  18.046  14.833
56435W        W22976  40.899  16.617  14.884
56436W        W22977  44.278   2.526   3.266
56437W        W22978  37.115  24.260  11.147
56438W        W22979   1.386   7.868   2.300
56439W        W22980   9.995  32.660   0.842
56440W        W22981  12.333  29.306  11.366
56441W        W22982  10.748  16.896  11.904
56442W        W22983  22.495  38.573  12.099
56443W        W22984   5.021  32.099   0.914
56444W        W22985  14.186  29.208  11.594
56445W        W22986   3.994  30.849  11.578
56446W        W22987   3.879   1.343  13.399
56447W        W22988  36.922  34.488   3.624
56448W        W22989  13.648   4.692   3.232
56449W        W22990  18.036  23.805   4.443
56450W        W22991  11.754  44.954  11.062
56451W        W22992  25.918   1.797   0.836
56452W        W22993   5.625  16.677   3.792
56453W        W22994  18.402  26.665   4.587
56454W        W22995  44.240   3.870  13.118
56455W        W22996  38.702  34.917   4.977
56456W        W22997  16.231   3.445  14.532
56457W        W22998  32.896  21.240  13.537
56458W        W22999   0.469  33.709  11.123
56459W        W23000  37.549  31.679   1.341
56460W        W23001  30.096  17.250   0.286
56461W        W23002  39.729  15.951  14.891
56462W        W23003   5.100  22.298   0.304
56463W        W23004   9.853   8.993  14.914
56464W        W23005  33.078  41.387   3.640
56465W        W23006   1.158  40.070  11.164
56466W        W23007  19.713  22.495   0.781
56467W        W23008  16.467  21.157   1.425
56468W        W23009  25.284  17.452   1.254
56469W        W23010  35.992   0.010  11.533
56470W        W23011   7.161   4.922  13.150
56471W        W23012  15.909  24.016   0.034
56472W        W23013  39.021  33.799  14.895
56473W        W23014  11.214  43.219   2.699
56474W        W23015  10.211   2.345   0.919
56475W        W23016  43.950  43.922   0.264
56476W        W23017  18.027  26.707   4.064
56477W        W23018  44.405   5.643   1.613
56478W        W23019  10.608  40.023   2.188
56479W        W23020  21.166  17.805   4.159
56480W        W23021  39.773  21.604  10.994
56481W        W23022  26.620  40.969  12.825
56482W        W23023  37.752  15.392  12.360
56483W        W23024  22.430  17.403   2.789
56484W        W23025  10.798  13.291  13.619
56485W        W23026  33.377  42.608   1.137
56486W        W23027  11.381  36.550  13.403
56487W        W23028  14.361   3.877   1.126
56488W        W23029  21.689  12.703   9.822
56489W        W23030  36.352  25.198   2.352
56490W        W23031  13.568  41.054  13.451
56491W        W23032  17.301  20.492  13.404
56492W        W23033   5.835  23.344  10.651
56493W        W23034  36.501  13.883   0.371
56494W        W23035  26.544  25.707  14.032
56495W        W23036  44.337  41.708  12.360
56496W        W23037  36.890  42.030   4.033
56497W        W23038  26.975   1.967   4.149
56498W        W23039  38.574  33.040   3.785
56499W        W23040   6.985  14.159   2.160
56500W        W23041  37.994   6.685   2.203
56501W        W23042  36.040  10.357  12.427
56502W        W23043  24.843   8.391   3.740
56503W        W23044  32.028  38.556  13.916
56504W        W23045  44.857  16.334  13.845
56505W        W23046   9.692   8.815   1.711
56506W        W23047  15.791   4.193   4.492
56507W        W23048  31.534  35.443   1.640
56508W        W23049  31.365   0.317  13.638
56509W        W23050  30.455   4.405   3.655
56510W        W23051  41.879  42.339  12.831
56511W        W23052  14.015  10.745   3.630
56512W        W23053  20.532  39.055   0.260
56513W        W23054  11.780  15.019  14.820
56514W        W23055  38.566  20.828   3.632
56515W        W23056  10.649  26.948   1.759
56516W        W23057  22.258  24.173  12.051
56517W        W23058  25.468  18.070   3.703
56518W        W23059  38.055  23.928   4.158
56519W        W23060  25.241  24.573   0.194
56520W        W23061  36.629  13.619   4.120
56521W        W23062  33.901  20.595  11.997
56522W        W23063  25.528  34.585   2.699
56523W        W23064  43.801   8.063  12.280
56524W        W23065  31.902  20.043  13.031
56525W        W23066  11.774  15.852   4.150
56526W        W23067  16.090   9.775  12.081
56527W        W23068  12.737  41.082   2.646
56528W        W23069  18.836   8.807  11.562
56529W        W23070  14.236  27.063   1.558
56530W        W23071  36.614   0.174  14.523
56531W        W23072  28.023  43.425  10.578
56532W        W23073  20.556  13.165  12.622
56533W        W23074  21.933   2.167   0.952
56534W        W23075  10.759   8.409  12.555
56535W        W23076   0.419  22.491   0.754
56536W        W23077   0.203   3.934  12.122
56537W        W23078   6.361  19.221   0.887
56538W        W23079  34.649  23.766  11.595
56539W        W23080  36.483  38.949   1.414
56540W        W23081  14.226  41.330   1.518
56541W        W23082  21.098  10.210   1.668
56542W        W23083  36.373  29.223   5.016
56543W        W23084   5.293  15.829   2.771
56544W        W23085  10.432  37.744   3.581
56545W        W23086  41.665  40.345   0.943
56546W        W23087  42.463  32.017   3.541
56547W        W23088  44.488  34.942  13.168
56548W        W23089  24.576  13.224   4.696
56549W        W23090  34.878  25.202  10.741
56550W        W23091  17.399   3.258  12.728
56551W        W23092  11.152  22.992   4.726
56552W        W23093   9.288  15.965   2.654
56553W        W23094  27.065  40.693  11.506
56554W        W23095  29.353  22.902  14.395
56555W        W23096   1.481   0.692   2.329
56556W        W23097   8.324  14.214   4.761
56557W        W23098  30.639  37.561   4.195
56558W        W23099  26.093  30.039  14.240
56559W        W23100  43.031   3.360   3.289
56560W        W23101  20.305  13.392  13.034
56561W        W23102  25.204  40.038   4.896
56562W        W23103  30.711   9.635   0.306
56563W        W23104  33.930   5.453  12.906
56564W        W23105  41.017  12.171   0.378
56565W        W23106  41.247  12.021   2.414
56566W        W23107  26.103  21.036  12.419
56567W        W23108  37.710  22.050  11.125
56568W        W23109  32.590  37.241  13.995
56569W        W23110  32.338  13.728   2.681
56570W        W23111   9.825  20.608  13.541
56571W        W23112  35.126  20.194   4.765
56572W        W23113  21.209  30.042  14.325
56573W        W23114  10.172  13.465   1.718
56574W        W23115  13.352  27.014  11.068
56575W        W23116  30.525  26.620   2.691
56576W        W23117  36.386  38.659   3.341
56577W        W23118  22.329  37.522  14.304
56578W        W23119  31.491  17.555   3.291
56579W        W23120  40.351   5.000   3.103
56580W        W23121   0.651   9.102  14.870
56581W        W23122  21.072  16.472   3.737
56582W        W23123  44.423  38.959   1.898
56583W        W23124  12.135   2.319  12.826
56584W        W23125  10.773   5.341   4.671
56585W        W23126   2.680  32.927  13.788
56586W        W23127   8.895  21.296  12.040
56587W        W23128  19.669  20.183   4.145
56588W        W23129  19.829  27.086  14.909
56589W        W23130   7.140  12.312  10.678
56590W        W23131  22.780  26.133   1.698
56591W        W23132  44.626  25.649   0.463
56592W        W23133  19.744   9.958   2.016
56593W        W23134  37.164  13.558   2.031
56594W        W23135  34.859   3.345  12.554
56595W        W23136  18.834   7.336   3.600
56596W        W23137  24.104  24.757  14.288
56597W        W23138   0.880  35.067  13.893
56598W        W23139  22.229   6.712  12.790
56599W        W23140  20.467  20.597  11.967
56600W        W23141   2.563   0.539  14.896
56601W        W23142   4.583  23.462  10.103
56602W        W23143  27.196  20.053   2.198
56603W        W23144  43.274   1.829  14.455
56604W        W23145  15.208   3.814  10.852
56605W        W23146   3.254   6.611  13.609
56606W        W23147  28.704  32.898   3.229
56607W        W23148  33.971  41.421  10.936
56608W        W23149  42.188  13.044  10.283
56609W        W23150  13.084  30.964   0.926
56610W        W23151  35.331  11.938  11.107
56611W        W23152  23.073   0.795   1.705
56612W        W23153  32.099  27.015  14.074
56613W        W23154  41.093  41.600  10.615
56614W        W23155   3.361  12.913   0.462
56615W        W23156  35.078   5.285   2.885
56616W        W23157  28.967  15.598  12.644
56617W        W23158  37.724  30.992  11.142
56618W        W23159  25.988  20.329  10.565
56619W        W23160  19.063   2.684  11.455
56620W        W23161   2.126  38.927   3.319
56621W        W23162  34.008  33.896  13.852
56622W        W23163  34.016  31.945   4.629
56623W        W23164  21.249   3.068   1.732
56624W        W23165  12.596  34.322   3.067
56625W        W23166   3.559  42.227   2.170
56626W        W23167  32.629   4.675   1.878
56627W        W23168  32.981  14.845   0.948
56628W        W23169  22.569  39.427   3.182
56629W        W23170  26.146  16.162  11.079
56630W        W23171  15.786  37.799  12.398
56631W        W23172   8.212  38.360   4.762
56632W        W23173  31.976  15.779  10.723
56633W        W23174  13.355  12.380  10.448
56634W        W23175  14.100  16.830   1.733
56635W        W23176  27.186  24.953  11.019
56636W        W23177  16.552  23.517  14.140
56637W        W23178  10.332  19.210  14.384
56638W        W23179  28.194  28.966   1.524
56639W        W23180  18.774  33.703  11.504
56640W        W23181  38.125  41.875   2.937
56641W        W23182  33.455  17.067   2.608
56642W        W23183  19.047  23.030   1.411
56643W        W23184  23.769  42.900   2.859
56644W        W23185   0.835  22.183  13.858
56645W        W23186  19.190   0.708   0.362
56646W        W23187  15.641  41.464  12.449
56647W        W23188   4.207  44.463  11.604
56648W        W23189  38.950  14.019   1.882
56649W        W23190   8.877  40.232  13.436
56650W        W23191   3.021   9.302  10.627
56651W        W23192  12.167  22.626   4.903
56652W        W23193  41.918  18.680   3.852
56653W        W23194  43.580  16.423  11.998
56654W        W23195  27.076  12.850   3.314
56655W        W23196  21.194  10.371   4.636
56656W        W23197   6.835  38.027  11.182
56657W        W23198  35.588  37.798  14.235
56658W        W23199  13.898  15.776  11.284
56659W        W23200  35.986  41.833   3.522
56660W        W23201  23.530  38.546   4.576
56661W        W23202  30.284  22.740   4.610
56662W        W23203   0.946   5.454   1.463
56663W        W23204  19.194   9.145   1.281
56664W        W23205  30.481  13.624  11.926
56665W        W23206   5.129  19.511   1.781
56666W        W23207   2.482  42.179   3.703
56667W        W23208  32.669  19.942  14.377
56668W        W23209  35.178  20.445   2.842
56669W        W23210  40.062  16.146  11.942
56670W        W23211   2.276  27.946   2.208
56671W        W23212  42.908   8.890  13.912
56672W        W23213  35.255  21.013   1.143
56673W        W23214   9.137  29.022   1.878
56674W        W23215  14.524  16.083  10.802
56675W        W23216  32.038  28.706   3.383
56676W        W23217  18.529  38.890  12.709
56677W        W23218  32.103  17.092   4.517
56678W        W23219  27.256  37.982  13.164
56679W        W23220  23.977  34.930   2.401
56680W        W23221  10.571  26.710   3.190
56681W        W23222  36.741  41.899  13.465
56682W        W23223  28.538  17.805  11.804
56683W        W23224  39.510  22.673  10.328
56684W        W23225   0.298  20.995  14.950
56685W        W23226  33.966  11.038  12.077
56686W        W23227  28.948  41.060   0.976
56687W        W23228   1.406  25.785  10.485
56688W        W23229  26.558  17.078  11.579
56689W        W23230  24.531   1.949   3.913
56690W        W23231  38.905  19.604   3.647
56691W        W23232  20.510   8.700  12.420
56692W        W23233  23.293  43.541  11.600
56693W        W23234  41.450  12.439   4.134
56694W        W23235   4.153  44.903  10.122
56695W        W23236   1.782  11.821  14.320
56696W        W23237   9.838  18.648   2.479
56697W        W23238  37.996  24.086  10.743
56698W        W23239  18.972   5.183  10.840
56699W        W23240   0.734   0.776  10.899
56700W        W23241  37.364  27.094   4.576
56701W        W23242  15.250  13.368   2.615
56702W        W23243  34.178   2.394  13.867
56703W        W23244   9.105  38.784   2.348
56704W        W23245   9.229  41.907  10.255
56705W        W23246  24.221  23.187  11.268
56706W        W23247  18.198   4.892   0.781
56707W        W23248  11.378  37.843   3.593
56708W        W23249  28.152  30.217   3.119
56709W        W23250  37.561   0.355   3.162
56710W        W23251  20.782  38.407  11.983
56711W        W23252  35.773  37.453   0.507
56712W        W23253  31.186  19.735  14.456
56713W        W23254  25.079   1.324   0.233
56714W        W23255  32.164  21.999  11.107
56715W        W23256  16.747  26.170  13.357
56716W        W23257   3.237  36.985   0.748
56717W        W23258  25.859  39.896  10.766
56718W        W23259  11.833  16.159   3.188
56719W        W23260  16.703  34.912   0.669
56720W        W23261  38.721  35.874  12.487
56721W        W23262   7.957   8.932   1.347
56722W        W23263  33.942  23.546   3.500
56723W        W23264  13.909  18.956   1.254
56724W        W23265  35.960  12.579  14.707
56725W        W23266  33.045  30.376   3.224
56726W        W23267  17.279  14.004  12.350
56727W        W23268  28.894   5.188  11.694
56728W        W23269  23.763   5.449   0.842
56729W        W23270  17.056  25.234   5.082
56730W        W23271  15.602  25.105  12.886
56731W        W23272  24.394   6.812   1.320
56732W        W23273   4.339  31.745   3.615
56733W        W23274   9.577  18.658  13.313
56734W        W23275  16.082  23.609   3.642
56735W        W23276  32.242   2.355   2.294
56736W        W23277  19.770   6.286   3.368
56737W        W23278   3.921  26.685  10.786
56738W        W23279  26.968   7.030   3.087
56739W        W23280  12.514  10.162  13.996
56740W        W23281  10.651  29.047   0.683
56741W        W23282  32.377   8.733  13.589
56742W        W23283  41.717   8.394   0.244
56743W        W23284  40.489  27.790   4.163
56744W        W23285  18.336   7.445   3.690
56745W        W23286  31.553  31.403  12.865
56746W        W23287  19.183   9.858  14.766
56747W        W23288  36.681   0.705  10.652
56748W        W23289  24.095  32.567   2.215
56749W        W23290   1.305  13.536   2.439
56750W        W23291  11.007  26.496   0.399
56751W        W23292  17.117   7.860   1.877
56752W        W23293   1.246  20.983   0.866
56753W        W23294  34.315   1.254  10.690
56754W        W23295  13.989  15.835   4.062
56755W        W23296   3.455  17.439   4.443
56756W        W23297   1.769  20.066   2.120
56757W        W23298   9.241  23.746   4.108
56758W        W23299   4.804  42.676   4.144
56759W        W23300   9.204  16.026  11.604
56760W        W23301  17.035  17.196   2.678
56761W        W23302   4.807  19.042  12.874
56762W        W23303  26.961  13.253   4.647
56763W        W23304  38.994   3.903   3.050
56764W        W23305  10.044  27.472   3.668
56765W        W23306   8.461  37.318   4.142
56766W        W23307  15.316  12.394   1.270
56767W        W23308  42.049  44.330   0.708
56768W        W23309  10.137  26.161  13.892
56769W        W23310  22.327  44.792  12.384
56770W        W23311   9.385  24.444  14.287
56771W        W23312  21.879   8.742   3.505
56772W        W23313   8.300  13.130   2.895
56773W        W23314  31.185  12.278  14.161
56774W        W23315  21.655  11.792  12.012
56775W        W23316   7.049  36.042   4.206
56776W        W23317   3.879  10.678  12.416
56777W        W23318  40.609  22.808  14.879
56778W        W23319   2.181   1.157  14.927
56779W        W23320  21.597  26.707   4.767
56780W        W23321   7.238  28.452  12.508
56781W        W23322  13.789   8.260   0.191
56782W        W23323  15.586  25.042  13.467
56783W        W23324  10.768  14.939  14.716
56784W        W23325  22.158  30.140   4.018
56785W        W23326  24.173  33.907   2.271
56786W        W23327  40.542   7.346  13.799
56787W        W23328  30.133   2.605   4.070
56788W        W23329  20.753   2.825   2.897
56789W        W23330  12.731  29.479  12.604
56790W        W23331   6.174   0.754  14.825
56791W        W23332   2.325  33.959   4.062
56792W        W23333  27.143  34.943  10.823
56793W        W23334  19.792  21.650   1.439
56794W        W23335  18.786   7.816  14.265
56795W        W23336  21.725  35.090  13.861
56796W        W23337   5.466  15.775   2.292
56797W        W23338  42.791   2.918  12.576
56798W        W23339  32.636  26.614  12.969
56799W        W23340  43.454  16.065   3.812
56800W        W23341  16.626  12.011   3.022
56801W        W23342  23.608  20.233  12.649
56802W        W23343  27.102   3.215  12.630
56803W        W23344  37.467   1.427   4.455
56804W        W23345   3.782  24.633   0.972
56805W        W23346   8.337  29.467   0.163
56806W        W23347  16.485  31.857   2.486
56807W        W23348  29.355  32.620  14.782
56808W        W23349  25.267  34.545  13.909
56809W        W23350  24.980   6.812  10.730
56810W        W23351  16.593  24.027   4.123
56811W        W23352  40.442  35.459   4.217
56812W        W23353   8.363   4.868   0.331
56813W        W23354  12.939  22.157   3.325
56814W        W23355   0.264  24.402  11.094
56815W        W23356  34.981  21.214  11.048
56816W        W23357  28.981   9.668   2.704
56817W        W23358  17.484  24.211  13.986
56818W        W23359   1.818   1.582   1.822
56819W        W23360  29.899  35.385   3.873
56820W        W23361  44.394  19.191  14.087
56821W        W23362   8.733  29.420  13.577
56822W        W23363  33.988   0.703  12.577
56823W        W23364   8.712  40.563  11.340
56824W        W23365   5.283  29.663   2.156
56825W        W23366  13.604  28.616   0.427
56826W        W23367  22.577  40.396   4.187
56827W        W23368  44.010   6.553   4.866
56828W        W23369  37.221   2.260  12.093
56829W        W23370  41.287  34.828  13.997
56830W        W23371  23.361  19.733  12.992
56831W        W23372   0.492  43.794   4.757
56832W        W23373  24.713  44.452   3.710
56833W        W23374  25.799  22.779  13.981
56834W        W23375  38.399   0.243  12.417
56835W        W23376  34.556  34.557   1.374
56836W        W23377   0.453  34.290  14.754
56837W        W23378  41.454  33.426   0.546
56838W        W23379   5.696  41.141  14.707
56839W        W23380   4.126  26.444   1.879
56840W        W23381  19.125   0.239   2.557
56841W        W23382  42.877  32.847   4.167
56842W        W23383  14.423  38.262  11.667
56843W        W23384  21.284  42.017   3.328
56844W        W23385   6.189  35.012   4.595
56845W        W23386  22.807   4.415  13.898
56846W        W23387  36.256  23.197  13.476
56847W        W23388  17.717   2.538   0.529
56848W        W23389  44.220  38.967  12.943
56849W        W23390  43.991  26.504   4.083
56850W        W23391  12.345  41.730  13.072
56851W        W23392  36.367  37.516  10.769
56852W        W23393  16.042   5.199  13.092
56853W        W23394  35.330  44.468  11.798
56854W        W23395  18.527   5.336  10.593
56855W        W23396  25.931   7.191   4.665
56856W        W23397  22.924  18.725  13.897
56857W        W23398   5.594   3.997   3.593
56858W        W23399  33.577  18.990  11.062
56859W        W23400  28.638  23.358   1.922
56860W        W23401  26.958  24.222   4.474
56861W        W23402  13.943  12.644  12.027
56862W        W23403  32.392  40.822   3.250
56863W        W23404   9.805  25.040  10.697
56864W        W23405   0.735  44.401   2.939
56865W        W23406  29.413   3.364  13.714
56866W        W23407  20.093  44.182   1.420
56867W        W23408  35.393   6.792  11.092
56868W        W23409  38.506  27.627  12.554
56869W        W23410  14.195  33.542  13.792
56870W        W23411  21.620  22.104  10.778
56871W        W23412  25.646  40.576   4.212
56872W        W23413  44.720  43.845   3.309
56873W        W23414   6.280   3.806   0.977
56874W        W23415  32.120  20.481  11.580
56875W        W23416   7.698  32.986  12.662
56876W        W23417  30.133  23.046  11.579
56877W        W23418  27.665   4.679   2.829
56878W        W23419   2.265  24.631  10.191
56879W        W23420  25.547   2.152   0.957
56880W        W23421  38.566  26.606   2.844
56881W        W23422   4.780  37.119   4.229
56882W        W23423  16.554  13.648   4.205
56883W        W23424   9.317  42.227   1.694
56884W        W23425  44.863  30.996  10.681
56885W        W23426   4.745   8.066   1.737
56886W        W23427   0.765  43.369   3.677
56887W        W23428  17.064   5.488  14.566
56888W        W23429  34.457  10.658  13.262
56889W        W23430  39.995   8.121  10.492
56890W        W23431   0.941   6.448  12.662
56891W        W23432  15.453  30.718   2.282
56892W        W23433  17.461   8.897  11.695
56893W        W23434   2.380  29.582   5.034
56894W        W23435  39.609   3.470   0.380
56895W        W23436  18.155  27.604   3.977
56896W        W23437   0.825  26.680  12.640
56897W        W23438  33.456   5.099  14.732
56898W        W23439  40.820  33.027   0.846
56899W        W23440   5.078   4.743   1.519
56900W        W23441  31.372  36.587  14.593
56901W        W23442  24.233  36.805  12.536
56902W        W23443  11.091  41.017  10.742
56903W        W23444  30.085  23.742  14.886
56904W        W23445   2.895  33.502   0.707
56905W        W23446   5.817  35.202  11.164
56906W        W23447  17.733  10.369  10.331
56907W        W23448  13.646  28.921  12.392
56908W        W23449   2.660   6.495   0.890
56909W        W23450  21.838   1.912  12.752
56910W        W23451  44.973  29.925   1.187
56911W        W23452  14.609  36.098   4.602
56912W        W23453   2.407  14.009   2.184
56913W        W23454  11.284   5.488   4.642
56914W        W23455  40.423  21.009   3.690
56915W        W23456  39.544  27.065   3.321
56916W        W23457  23.633  22.676   1.340
56917W        W23458  41.892  24.210  12.901
56918W        W23459  35.359  41.551   0.286
56919W        W23460   5.687  11.439   2.773
56920W        W23461   6.211   4.498  13.939
56921W        W23462   9.878  11.320  14.448
56922W        W23463  28.418  42.044  14.849
56923W        W23464  19.804  19.064  11.008
56924W        W23465  30.718  16.629   0.124
56925W        W23466  35.809  44.535  13.494
56926W        W23467   1.369  15.662   1.416
56927W        W23468  18.125  44.431   2.643
56928W        W23469  11.338  21.543  11.590
56929W        W23470   0.417  13.107   0.983
56930W        W23471  30.457  44.805  12.270
56931W        W23472  44.998  23.160   4.616
56932W        W23473  35.920  21.462   0.503
56933W        W23474  42.978   8.268   4.232
56934W        W23475   3.430  36.276  13.841
56935W        W23476  38.836  22.948  10.712
56936W        W23477   9.333  12.350   2.366
56937W        W23478  39.838   0.927  10.770
56938W        W23479  24.135   9.759   0.718
56939W        W23480  40.525  30.553  11.208
56940W        W23481  29.628  19.668   3.625
56941W        W23482  11.714  12.274   1.765
56942W        W23483  33.025  21.961   2.364
56943W        W23484  44.511   5.120   1.359
56944W        W23485  16.728   4.375   4.235
56945W        W23486  17.594  38.033   4.797
56946W        W23487  42.083  29.175  10.347
56947W        W23488  23.691  13.403  13.314
56948W        W23489  32.412  25.131  10.677
56949W        W23490  21.745  16.557   4.237
56950W        W23491   9.098  29.166  14.483
56951W        W23492   3.415  21.006  13.023
56952W        W23493   9.139  11.368  13.850
56953W        W23494  27.244  19.778  12.450
56954W        W23495  13.883  39.115   2.190
56955W        W23496  33.449  35.416   3.196
56956W        W23497   1.813  20.097  10.598
56957W        W23498  29.109  31.855   4.202
56958W        W23499  14.803  34.560   3.061
56959W        W23500  22.425  28.554   3.325
56960W        W23501  37.840  23.103  14.360
56961W        W23502  21.635  13.537   1.388
56962W        W23503   5.210  39.841   0.849
56963W        W23504  22.329  28.558  13.336
56964W        W23505  16.706  22.694   4.177
56965W        W23506   3.466  29.919  12.435
56966W        W23507   4.842  33.044  14.494
56967W        W23508  40.597  19.715   1.623
56968W        W23509   8.136  31.598   1.286
56969W        W23510   5.225  33.565   1.689
56970W        W23511  16.178   4.796  11.137
56971W        W23512  35.456  13.596   2.526
56972W        W23513  19.684  32.580  11.150
56973W        W23514  35.450   4.266   3.753
56974W        W23515   6.880  31.371  11.569
56975W        W23516  12.064  35.265  11.975
56976W        W23517   5.820  10.813  10.475
56977W        W23518  17.797  25.082  13.554
56978W        W23519   0.797  32.839  11.228
56979W        W23520  16.696  30.852   3.766
56980W        W23521   7.282  18.336  13.411
56981W        W23522  18.532  27.367   3.709
56982W        W23523   6.902   7.363   4.897
56983W        W23524  22.800  18.689   1.329
56984W        W23525  23.208  37.431  12.414
56985W        W23526   2.727   1.624  11.245
56986W        W23527  22.519   2.774  13.840
56987W        W23528  35.601  39.092   1.513
56988W        W23529  31.664  10.596  11.068
56989W        W23530  25.746   4.195   1.879
56990W        W23531  42.251   9.741  12.065
56991W        W23532  30.232  34.820   5.078
56992W        W23533  18.494  31.188  12.530
56993W        W23534  22.175   4.971   1.292
56994W        W23535   5.416   5.781  14.985
56995W        W23536   5.474  19.738  10.537
56996W        W23537  16.868  36.814   4.033
56997W        W23538  10.667  23.177  11.134
56998W        W23539  44.278  41.431  14.534
56999W        W23540  18.784   9.387  13.520
57000W        W23541  39.460  10.819  13.307
57001W        W23542   9.801  35.615  11.543
57002W        W23543  29.163  29.212  12.058
57003W        W23544  13.332  42.846  14.529
57004W        W23545   6.251  32.411  10.645
57005W        W23546  42.947  44.516   2.684
57006W        W23547  24.917  44.315   4.168
57007W        W23548   2.404   8.187   4.812
57008W        W23549  35.687  44.889  14.381
57009W        W23550  30.914  42.360  11.428
57010W        W23551  17.233   7.206  10.781
57011W        W23552  12.736  42.122   2.651
57012W        W23553  21.590  38.598   3.755
57013W        W23554  21.286  24.329   2.694
57014W        W23555   0.613  43.051  13.935
57015W        W23556  29.104  30.506   1.931
57016W        W23557  23.490   8.279   9.801
57017W        W23558  20.843  40.631  13.872
57018W        W23559  28.933  25.482   1.373
57019W        W23560  19.590  33.422   1.737
57020W        W23561  29.399  23.550  11.452
57021W        W23562  28.159  18.370  10.155
57022W        W23563  21.809  34.192   3.140
57023W        W23564  37.463  13.543  11.489
57024W        W23565  12.825  29.155   3.756
57025W        W23566  20.181  35.113  12.976
57026W        W23567  37.547   1.377   3.316
57027W        W23568  40.851  15.694   1.051
57028W        W23569  15.565   1.654  14.469
57029W        W23570  16.598   8.150   3.428
57030W        W23571  36.470  30.333   3.139
57031W        W23572  35.993   9.918  14.790
57032W        W23573   0.850  17.332  12.589
57033W        W23574  15.821   9.308   0.304
57034W        W23575  19.473  18.647   2.825
57035W        W23576  24.499  43.453   1.838
57036W        W23577  27.729  11.068  13.387
57037W        W23578  14.368   8.167   1.326
57038W        W23579  16.726  11.213   4.742
57039W        W23580   8.622  16.616   0.883
57040W        W23581  12.602  12.341   1.315
57041W        W23582  28.228  21.806   0.885
57042W        W23583  30.616   6.210  14.994
57043W        W23584  16.579  21.095   1.923
57044W        W23585  44.788  23.461   1.280
57045W        W23586  38.613  44.831  10.441
57046W        W23587  37.840  38.465   0.955
57047W        W23588  36.883   8.594   0.330
57048W        W23589  33.187  34.867   0.095
57049W        W23590  39.669  36.000   2.041
57050W        W23591   5.963   9.892  13.129
57051W        W23592  23.354   8.132   4.193
57052W        W23593  15.375  22.133  13.617
57053W        W23594  13.115  18.290  11.490
57054W        W23595  44.234  17.215  13.767
57055W        W23596  32.937  31.227   2.816
57056W        W23597   3.407   2.817   1.349
57057W        W23598  16.220   8.242   2.700
57058W        W23599   8.535  13.695   4.661
57059W        W23600  21.298  22.418  13.355
57060W        W23601  15.851   4.439  14.339
57061W        W23602   8.288  14.119   2.675
57062W        W23603  22.194  24.662   0.290
57063W        W23604  43.959  42.897   2.608
57064W        W23605  18.777  15.112  12.093
57065W        W23606  26.857  32.791  14.795
57066W        W23607   5.284   8.608  14.954
57067W        W23608  17.807  25.533  14.302
57068W        W23609   9.094  44.861   0.007
57069W        W23610  37.693  20.668  10.739
57070W        W23611  18.711  20.728   1.316
57071W        W23612   7.637  39.598   2.201
57072W        W23613  35.853  40.781   2.677
57073W        W23614  37.072  44.748   3.821
57074W        W23615  42.026  29.601   3.776
57075W        W23616   8.641  24.647  13.118
57076W        W23617  27.511  44.070  14.816
57077W        W23618  29.935  15.062   0.837
57078W        W23619   2.289  34.017   1.229
57079W        W23620  37.305   9.219  12.988
57080W        W23621  10.364  27.126   3.430
57081W        W23622   1.689  29.552   0.015
57082W        W23623  44.663  28.450  13.333
57083W        W23624  22.639  30.437   0.782
57084W        W23625  18.545  18.205  12.530
57085W        W23626  26.994   2.645  14.987
57086W        W23627  28.178  27.551   0.187
57087W        W23628  21.430  35.552  13.140
57088W        W23629  15.232  15.511   4.559
57089W        W23630  38.261  14.793   0.760
57090W        W23631  35.895  11.297  12.036
57091W        W23632  23.714  38.545   3.178
57092W        W23633  40.710  25.969  12.411
57093W        W23634  35.775  26.761   4.591
57094W        W23635  11.567  42.739   3.155
57095W        W23636  38.833  24.093   1.410
57096W        W23637  39.665   5.754   1.039
57097W        W23638  23.003  13.517   0.444
57098W        W23639   6.204  27.207   3.624
57099W        W23640  41.362  40.827  13.393
57100W        W23641  12.038  23.724   3.686
57101W        W23642  35.277  20.610   0.668
57102W        W23643  11.694  24.819  10.800
57103W        W23644   3.378  37.409   3.980
57104W        W23645  32.422  12.249  12.029
57105W        W23646  30.090  44.416   2.925
57106W        W23647   8.801  35.300  14.398
57107W        W23648  23.133  13.840   4.337
57108W        W23649  20.157  24.661  11.646
57109W        W23650  37.052  32.843  12.054
57110W        W23651  38.876  29.802  14.879
57111W        W23652  33.476   6.725   1.021
57112W        W23653  19.971  36.297  10.456
57113W        W23654  25.609  42.127   0.010
57114W        W23655  14.351  41.445   4.731
57115W        W23656  11.092  38.424   2.251
57116W        W23657  16.244  22.088   3.645
57117W        W23658  33.811  31.791   3.742
57118W        W23659  41.003  39.771   2.556
57119W        W23660  18.675  19.566  11.490
57120W        W23661  19.781  24.253   1.346
57121W        W23662   9.740   2.611  12.999
57122W        W23663  40.627  34.927  13.408
57123W        W23664  43.395  15.309  14.577
57124W        W23665  31.471  36.082  12.468
57125W        W23666  10.870  31.504   2.793
57126W        W23667  34.048  23.669  14.885
57127W        W23668  32.957  31.584   1.421
57128W        W23669  10.050  11.238  12.954
57129W        W23670  17.263   4.636   0.903
57130W        W23671  27.156  26.250   0.740
57131W        W23672  39.585  30.463   4.495
57132W        W23673  43.764  29.416   4.261
57133W        W23674  35.046  31.877   3.316
57134W        W23675   9.537  21.961   3.616
57135W        W23676  24.564   7.213   2.897
57136W        W23677  39.536  18.200  14.422
57137W        W23678  16.063  27.925  13.434
57138W        W23679  26.816  14.837  12.904
57139W        W23680  21.165  21.588   2.764
57140W        W23681   5.571  11.644  14.482
57141W        W23682  22.109  23.303  14.518
57142W        W23683   2.969  32.728   0.027
57143W        W23684   7.533  31.303  14.846
57144W        W23685  29.129  19.613  12.612
57145W        W23686   8.220  14.700  13.295
57146W        W23687  43.012  25.555  11.572
57147W        W23688  32.441  31.969   4.399
57148W        W23689  25.127   4.662   1.428
57149W        W23690  36.628   2.350   9.798
57150W        W23691  41.772  17.766   1.164
57151W        W23692   5.176  13.857   4.633
57152W        W23693  11.632  18.132  12.923
57153W        W23694  33.055   6.397   0.927
57154W        W23695  17.202  32.595  12.671
57155W        W23696  34.327  27.517   4.131
57156W        W23697  23.264   4.975   2.673
57157W        W23698   5.836  37.834  14.438
57158W        W23699   8.395  35.405  14.720
57159W        W23700  15.908  11.377  12.781
57160W        W23701  40.375  34.347  12.564
57161W        W23702  34.944  25.110  12.395
57162W        W23703  32.004   6.260  10.453
57163W        W23704   2.217  39.433  10.543
57164W        W23705  26.904  12.245   0.555
57165W        W23706   1.970  31.677  10.180
57166W        W23707   4.180   3.158   4.654
57167W        W23708  31.031  12.731   2.663
57168W        W23709  22.740  34.101   2.463
57169W        W23710  12.380  10.143   4.291
57170W        W23711  30.777  13.814   3.745
57171W        W23712  33.553   1.295   3.994
57172W        W23713  22.559  20.517   4.338
57173W        W23714   8.249  20.997  12.581
57174W        W23715  24.527  12.687   4.030
57175W        W23716   0.372  34.570   3.142
57176W        W23717   9.238  35.682   1.906
57177W        W23718  11.806  23.426   0.381
57178W        W23719  35.524  15.209   4.726
57179W        W23720  36.894   3.017   0.346
57180W        W23721  15.643  12.745   0.956
57181W        W23722   1.402  29.507  13.889
57182W        W23723  14.422  37.400  12.320
57183W        W23724   2.813  16.808   2.116
57184W        W23725  10.581  35.019  13.950
57185W        W23726  27.458  20.176   1.771
57186W        W23727  25.934  11.088   0.110
57187W        W23728  14.811  38.538  13.850
57188W        W23729  32.977   9.243  14.933
57189W        W23730  27.462  23.661  11.080
57190W        W23731  22.663  33.570  13.199
57191W        W23732  11.839   1.872  12.920
57192W        W23733  27.056  28.589  14.688
57193W        W23734  40.466  11.554  14.437
57194W        W23735  27.738   1.915   1.273
57195W        W23736  16.958  25.238   2.253
57196W        W23737  22.295  11.671  11.697
57197W        W23738  30.329  20.751  11.197
57198W        W23739   8.919  18.572  11.041
57199W        W23740  17.259  44.245   0.310
57200W        W23741  37.547  37.809  14.633
57201W        W23742  33.584  44.491  13.448
57202W        W23743  25.148  34.221   0.496
57203W        W23744  42.389   7.737   1.653
57204W        W23745   9.154  36.076  13.131
57205W        W23746  23.678  14.419   2.225
57206W        W23747  30.454  31.386   0.318
57207W        W23748   7.148  12.262   3.826
57208W        W23749  38.959  13.219   5.569
57209W        W23750  30.384  34.068   4.311
57210W        W23751   7.027  16.116  14.487
57211W        W23752  22.566  29.673  10.225
57212W        W23753  35.637  39.259  13.051
57213W        W23754   6.230  39.963  12.547
57214W        W23755  31.046   9.533   4.406
57215W        W23756   6.332  11.965  14.821
57216W        W23757   5.250  26.142   0.477
57217W        W23758  42.198  40.388   1.777
57218W        W23759   5.193   2.022   0.664
57219W        W23760  32.631  36.311   2.459
57220W        W23761  32.394  19.973   5.096
57221W        W23762  44.996   4.224   1.268
57222W        W23763   7.262  34.116   2.273
57223W        W23764   5.321  13.558   1.766
57224W        W23765  25.290  41.951   1.522
57225W        W23766  19.733  17.743   2.415
57226W        W23767  31.891  33.486   1.833
57227W        W23768  43.247  27.964   3.344
57228W        W23769  11.121  33.366  12.109
57229W        W23770  10.233  10.724  14.718
57230W        W23771  26.489  24.973  11.560
57231W        W23772   8.159  19.103  13.846
57232W        W23773  22.576  28.220   0.979
57233W        W23774  39.568  28.188   2.835
57234W        W23775  17.292  37.023   3.658
57235W        W23776  13.194  20.171  14.451
57236W        W23777  44.407  41.845   4.444
57237W        W23778  21.022  22.270   0.427
57238W        W23779   6.120  26.065   3.172
57239W        W23780   6.241  30.524  11.731
57240W        W23781   5.072   0.692   2.551
57241W        W23782   4.863  37.357  12.053
57242W        W23783  27.395  22.172   0.348
57243W        W23784   0.041  31.204  14.338
57244W        W23785  43.359  23.006  13.914
57245W        W23786  20.851  38.682   3.759
57246W        W23787  18.143  23.309   3.669
57247W        W23788  28.733  24.487  10.659
57248W        W23789   4.524  37.340   1.240
57249W        W23790  39.233  43.992  12.614
57250W        W23791  11.281  26.974   4.894
57251W        W23792  32.477  19.600   0.086
57252W        W23793   2.625   2.945   5.653
57253W        W23794  35.887  39.428  14.902
57254W        W23795  13.390  20.792   4.238
57255W        W23796  13.075  33.226   2.332
57256W        W23797   2.601  29.495  12.976
57257W        W23798  24.898  33.151   1.189
57258W        W23799  20.855  22.647   4.684
57259W        W23800  43.427  24.664  14.869
57260W        W23801   0.320  19.626  12.898
57261W        W23802   9.232   1.945  12.646
57262W        W23803  38.610  14.884   5.053
57263W        W23804  39.837   7.650  13.080
57264W        W23805  16.906  33.947   1.628
57265W        W23806  14.096  30.006   1.843
57266W        W23807  39.744  29.413  11.068
57267W        W23808  10.702  34.366   0.534
57268W        W23809  20.925  10.418   1.214
57269W        W23810  27.492   1.031  12.989
57270W        W23811  12.824  25.781  12.117
57271W        W23812  19.532  28.129   1.200
57272W        W23813  39.807   9.980  12.967
57273W        W23814  13.524  13.962  14.112
57274W        W23815  15.533   0.876   2.154
57275W        W23816   6.738   1.693   1.447
57276W        W23817  35.161   7.740   2.033
57277W        W23818  33.015  13.626   2.106
57278W        W23819  21.697  19.517   2.766
57279W        W23820  39.983   3.628  12.748
57280W        W23821  37.819  16.233  13.407
57281W        W23822  10.326  25.755  12.129
57282W        W23823   1.901  13.274   2.184
57283W        W23824  43.308  14.701   1.718
57284W        W23825  14.609  35.413   4.518
57285W        W23826  10.574  11.281  10.285
57286W        W23827  20.741  11.195   1.873
57287W        W23828   2.361  40.543  12.138
57288W        W23829  17.510  10.177  11.249
57289W        W23830  15.645  27.020   0.380
57290W        W23831  40.315  32.839  13.509
57291W        W23832  12.330  16.276   2.199
57292W        W23833  11.310  22.443   1.501
57293W        W23834  25.176  24.121   0.903
57294W        W23835   8.898  16.992  13.053
57295W        W23836  15.583  43.768   2.298
57296W        W23837   7.860  23.184  13.925
57297W        W23838  21.775  20.045  14.823
57298W        W23839  29.565  24.266   2.282
57299W        W23840  13.841  18.422  13.040
57300W        W23841  36.439  18.648   1.153
57301W        W23842  13.693   3.033   0.432
57302W        W23843   1.415  30.828   5.221
57303W        W23844  37.471  28.985   0.859
57304W        W23845  31.037  12.781   1.156
57305W        W23846  44.145   4.312   0.925
57306W        W23847   5.793  27.396  13.395
57307W        W23848  33.412   9.089   3.545
57308W        W23849  29.509  35.643  14.835
57309W        W23850   2.525  43.479  12.158
57310W        W23851   3.848  36.378  14.713
57311W        W23852  28.787  11.337  12.926
57312W        W23853  12.693  37.744  14.027
57313W        W23854  28.556  21.638  11.019
57314W        W23855   1.722  30.943  11.581
57315W        W23856   3.058  35.598  11.073
57316W        W23857  17.628   3.767   1.090
57317W        W23858  44.386  41.426  14.011
57318W        W23859  27.534  37.455   3.193
57319W        W23860  12.603  36.203   1.760
57320W        W23861   8.693   5.443   4.510
57321W        W23862  24.624  14.598   3.226
57322W        W23863  44.846   6.959   1.916
57323W        W23864   4.486   9.772  13.858
57324W        W23865  27.653   7.649  14.986
57325W        W23866   8.477  24.708   3.538
57326W        W23867   6.624  44.381   4.111
57327W        W23868  18.661  20.489  13.579
57328W        W23869  17.908  17.997  10.987
57329W        W23870  38.965   3.097   1.363
57330W        W23871   1.712  29.170  12.073
57331W        W23872  44.869  29.235   2.283
57332W        W23873  36.883  28.896   3.359
57333W        W23874  31.663   1.196   3.376
57334W        W23875   8.815   3.354   0.474
57335W        W23876  43.064  39.025   1.208
57336W        W23877  16.233  22.118  11.703
57337W        W23878   1.694  28.466   0.417
57338W        W23879   4.837   2.010  11.642
57339W        W23880  10.673  17.054  14.261
57340W        W23881  22.154  23.418  12.870
57341W        W23882  35.491   4.038  14.445
57342W        W23883  24.639  41.639  14.823
57343W        W23884  18.612   7.483   0.736
57344W        W23885  29.999  26.363  11.565
57345W        W23886  39.990  29.233  12.054
57346W        W23887  30.518  21.522   0.488
57347W        W23888   1.284   9.680   3.845
57348W        W23889  22.135   8.835   4.993
57349W        W23890  14.969  26.507  11.590
57350W        W23891   8.716  10.433  13.400
57351W        W23892   5.495   8.218  13.496
57352W        W23893  30.274   5.231  13.602
57353W        W23894  41.624  39.494  12.015
57354W        W23895   9.816  20.479   0.852
57355W        W23896  28.390  11.150  14.902
57356W        W23897   6.438   4.917  14.921
57357W        W23898  37.586  38.472  10.739
57358W        W23899  36.037  33.538  10.466
57359W        W23900  35.448   0.197  14.801
57360W        W23901  30.993  40.477  12.917
57361W        W23902  15.529  32.850  14.710
57362W        W23903  11.834  24.140  11.976
57363W        W23904  33.113  35.621  12.234
57364W        W23905  30.575   2.847   3.921
57365W        W23906  36.515  16.022  14.544
57366W        W23907  11.014  31.896  10.697
57367W        W23908  40.302   9.859   2.799
57368W        W23909  40.366  15.027  14.180
57369W        W23910  39.217  23.256  11.480
57370W        W23911   8.778   2.824   0.416
57371W        W23912   7.795  17.573   2.919
57372W        W23913   7.567  23.548  14.742
57373W        W23914   0.733  14.744   3.624
57374W        W23915  19.099  35.066   0.284
57375W        W23916  39.113  10.360  12.590
57376W        W23917  35.444  14.624   0.516
57377W        W23918  17.591  10.116  14.303
57378W        W23919   1.251  13.670  12.157
57379W        W23920  31.892  26.389   2.765
57380W        W23921  19.234  44.491   4.437
57381W        W23922  33.952  16.732  13.956
57382W        W23923   5.336  13.259  12.063
57383W        W23924  13.353  35.012  13.502
57384W        W23925  29.191  23.472  13.266
57385W        W23926  31.044  21.750   3.644
57386W        W23927   1.406  41.876   4.601
57387W        W23928  11.261  38.605   5.145
57388W        W23929  23.766  33.344   3.266
57389W        W23930   0.911   3.724   0.742
57390W        W23931  43.450   6.091  11.480
57391W        W23932   4.747  33.331  10.521
57392W        W23933  22.005  31.616  13.521
57393W        W23934  17.612  18.038  13.337
57394W        W23935  25.826  15.806   5.065
57395W        W23936  10.507  22.943   4.216
57396W        W23937  21.471  39.011  13.894
57397W        W23938  42.232  32.423  14.833
57398W        W23939  12.391  20.073  13.306
57399W        W23940   6.120  43.085   2.768
57400W        W23941   4.180   5.199   1.373
57401W        W23942  25.007  39.662  11.083
57402W        W23943  32.504   7.674  11.881
57403W        W23944  24.696  44.934  12.511
57404W        W23945   3.967  43.193  10.642
57405W        W23946  38.349  28.306  13.112
57406W        W23947  41.094  12.953  11.623
57407W        W23948  15.413  27.945   0.481
57408W        W23949  27.454  24.684  11.907
57409W        W23950  34.282  22.105  14.205
57410W        W23951  30.217  38.063   1.951
57411W        W23952  37.755   9.129   4.490
57412W        W23953  20.643  18.709   4.710
57413W        W23954  21.559  10.156  13.101
57414W        W23955  20.491  15.881  11.651
57415W        W23956  22.566   5.889   1.944
57416W        W23957  25.752  27.334   2.192
57417W        W23958  17.295   1.553   2.049
57418W        W23959  28.697  23.862   1.915
57419W        W23960   7.130   4.470   2.705
57420W        W23961  33.518   0.526  14.371
57421W        W23962  14.376   6.005   2.294
57422W        W23963  31.649  29.459   4.869
57423W        W23964  11.871  26.210   0.599
57424W        W23965  39.928  16.405   2.265
57425W        W23966   8.491  27.596   2.360
57426W        W23967  23.130  30.470   1.440
57427W        W23968   3.275  14.267   2.819
57428W        W23969   9.826   3.328  14.059
57429W        W23970  22.211   9.258   4.161
57430W        W23971  12.337  44.281   1.737
57431W        W23972  30.515   2.481  12.570
57432W        W23973  15.318   3.957   4.293
57433W        W23974  32.047   0.297   3.317
57434W        W23975  42.781  27.650  13.423
57435W        W23976  32.024   6.223   2.361
57436W        W23977  25.004  16.572   4.371
57437W        W23978  10.187  24.750   0.455
57438W        W23979  24.536  27.044   4.402
57439W        W23980  40.811  42.733   2.817
57440W        W23981  34.867  26.052   1.907
57441W        W23982   9.712  31.624  10.723
57442W        W23983  10.724  31.422   4.382
57443W        W23984  43.271  15.089   1.370
57444W        W23985  24.799  13.721   0.594
57445W        W23986  30.014  42.532   2.398
57446W        W23987  37.780   4.765   1.221
57447W        W23988  25.651  23.011   4.671
57448W        W23989   2.679   0.772   1.614
57449W        W23990  23.623  27.059   0.441
57450W        W23991  23.011  29.671  10.515
57451W        W23992  11.631  11.814   0.460
57452W        W23993  41.404  42.320   0.769
57453W        W23994  44.262  34.193   4.010
57454W        W23995  38.963  10.900  13.471
57455W        W23996  44.309  44.522   2.866
57456W        W23997  11.350  35.727  10.391
57457W        W23998  36.606  24.182   3.119
57458W        W23999   0.752  19.503   3.101
57459W        W24000   6.961  25.028   3.255
57460W        W24001   2.186   1.304  11.828
57461W        W24002   6.086   1.021  10.765
57462W        W24003  31.121  39.267  10.705
57463W        W24004  44.010   8.196  13.984
57464W        W24005   2.342  22.514   4.573
57465W        W24006  28.464  38.403  13.325
57466W        W24007  19.708  30.158  13.462
57467W        W24008   8.259  26.625  14.407
57468W        W24009  13.779  10.252   4.841
57469W        W24010  39.004  26.508  10.033
57470W        W24011  20.174   8.750   2.134
57471W        W24012  25.199  11.711   0.356
57472W        W24013  21.997  13.190  10.255
57473W        W24014   2.069  25.032  12.034
57474W        W24015  32.192  17.618  14.798
57475W        W24016   5.210  32.917   5.411
57476W        W24017  14.319  29.939  13.934
57477W        W24018  26.001  40.122  14.324
57478W        W24019  33.040   9.716   3.160
57479W        W24020  18.184  23.661   4.900
57480W        W24021  18.208  20.948  10.621
57481W        W24022   1.254  28.590  13.568
57482W        W24023  11.714   5.854   4.506
57483W        W24024   8.791   9.680   2.364
57484W        W24025  33.780   4.499  12.048
57485W        W24026  37.607  34.158   1.347
57486W        W24027  10.933  44.038  11.649
57487W        W24028  14.787  30.677  12.018
57488W        W24029   5.614  27.534   3.114
57489W        W24030  19.223  34.952  13.326
57490W        W24031   0.163  35.181   0.878
57491W        W24032   3.961   2.676  11.245
57492W        W24033  25.696  28.546  12.164
57493W        W24034   5.427  12.539  12.614
57494W        W24035  33.226  18.045  11.090
57495W        W24036  21.530  35.349   0.884
57496W        W24037   4.384  18.154  10.645
57497W        W24038  34.029  26.157   2.466
57498W        W24039  15.195  19.293   4.595
57499W        W24040  22.534  34.252  10.867
57500W        W24041  16.361  17.459  12.495
57501W        W24042  10.882   0.209   1.754
57502W        W24043  43.875   0.520  13.869
57503W        W24044  15.231  36.200  14.844
57504W        W24045  14.974   3.524   3.637
57505W        W24046  35.996  16.120   4.498
57506W        W24047  38.976   7.594   4.629
57507W        W24048  34.523   4.802   4.346
57508W        W24049   9.461  11.788   0.490
57509W        W24050   0.979  36.079  13.969
57510W        W24051  27.607  39.994  12.604
57511W        W24052   0.055   3.836   5.390
57512W        W24053   2.008  39.996  11.385
57513W        W24054   5.567  36.667   3.455
57514W        W24055  29.214  10.141  10.657
57515W        W24056   9.628   1.212   0.093
57516W        W24057  40.423  29.732  14.247
57517W        W24058  38.746  33.397   2.218
57518W        W24059  39.616  34.595  10.774
57519W        W24060  16.263  42.203   2.552
57520W        W24061   6.436  35.079  11.905
57521W        W24062   7.165  40.869   0.466
57522W        W24063  24.445  36.988   4.181
57523W        W24064  15.810   2.048  12.616
57524W        W24065   2.908  38.085   3.201
57525W        W24066  25.189  24.008   3.600
57526W        W24067  33.235  35.016  12.938
57527W        W24068   5.766  37.457   0.732
57528W        W24069  13.862  23.487   1.402
57529W        W24070   9.121  16.674  14.886
57530W        W24071   2.713  44.204   9.716
57531W        W24072  20.705   7.894  10.957
57532W        W24073  26.248   8.222   3.521
57533W        W24074  15.158  25.986  14.964
57534W        W24075  39.195  11.858   3.024
57535W        W24076  25.088  41.229  12.933
57536W        W24077  25.235  30.772   0.711
57537W        W24078  18.147  41.315  13.538
57538W        W24079  31.166  32.607  12.802
57539W        W24080  23.964   4.338   2.677
57540W        W24081  13.043  37.511  12.278
57541W        W24082  13.229   3.063   0.834
57542W        W24083   1.023   3.389   1.338
57543W        W24084  20.791  42.366  13.333
57544W        W24085  31.362  15.979  14.918
57545W        W24086  33.709  11.614   2.727
57546W        W24087   9.850  41.177   0.249
57547W        W24088  25.129  18.618   2.883
57548W        W24089   3.209   4.338   3.297
57549W        W24090  27.090  12.846  11.150
57550W        W24091  25.819   9.438   3.699
57551W        W24092  38.057  13.134   0.488
57552W        W24093   6.503  23.576  13.852
57553W        W24094  39.371  18.084   2.252
57554W        W24095  29.636  17.170   0.765
57555W        W24096  30.173  32.910  14.522
57556W        W24097  40.677  10.527   0.797
57557W        W24098  25.934   6.241   3.196
57558W        W24099   8.425   9.265   2.666
57559W        W24100  22.217  32.627  14.739
57560W        W24101  21.722  43.750  12.911
57561W        W24102  44.455   0.451   2.821
57562W        W24103   0.750  33.928   1.455
57563W        W24104   3.789  13.548  12.529
57564W        W24105   1.960  20.610   0.383
57565W        W24106  38.234  13.056   1.395
57566W        W24107  17.548  38.808   3.275
57567W        W24108  14.854   6.486   3.701
57568W        W24109   0.368  36.134   4.049
57569W        W24110   4.370  29.485   1.416
57570W        W24111  15.553  22.463   0.275
57571W        W24112  13.922  38.500  13.026
57572W        W24113  38.092   6.278  12.228
57573W        W24114  12.775  14.829  14.064
57574W        W24115  41.973  26.061   2.008
57575W        W24116  21.420   0.394  13.323
57576W        W24117  29.544   7.376   3.609
57577W        W24118  11.817   5.689   3.253
57578W        W24119  43.047   4.718   4.603
57579W        W24120  36.517  27.622   3.703
57580W        W24121  23.303  26.018   1.707
57581W        W24122  23.301   9.735  10.384
57582W        W24123  30.199  16.076   1.697
57583W        W24124   2.935  27.907   0.854
57584W        W24125  17.017  37.590  13.972
57585W        W24126  41.133  26.585   1.936
57586W        W24127   8.675   9.107  13.478
57587W        W24128  15.810  28.869  13.919
57588W        W24129  42.997  27.190   0.343
57589W        W24130  24.432   3.540  12.926
57590W        W24131  13.693  15.798   2.682
57591W        W24132  28.526   4.300  10.586
57592W        W24133  23.524  43.930  13.326
57593W        W24134  23.668   1.602  11.309
57594W        W24135  10.564  41.921  12.438
57595W        W24136  35.671   6.744   2.423
57596W        W24137  27.568  41.552  13.532
57597W        W24138  12.152  15.936  14.469
57598W        W24139  39.604  11.691   4.538
57599W        W24140  14.763  28.286   0.989
57600W        W24141  35.661  24.019   3.421
57601W        W24142  42.390  14.308   2.954
57602W        W24143  21.288  38.342  14.301
57603W        W24144  36.081  41.275   0.323
57604W        W24145  42.765  10.360  10.795
57605W        W24146  35.024  41.962  13.529
57606W        W24147  35.078  30.994   0.593
57607W        W24148  25.527  20.443   4.866
57608W        W24149  20.764  24.082  12.928
57609W        W24150  32.615  15.117  13.011
57610W        W24151   3.337  10.696  12.499
57611W        W24152   9.793  39.556  14.336
57612W        W24153  12.062  40.165   0.957
57613W        W24154  31.070   5.160  11.599
57614W        W24155   1.549  25.040  12.065
57615W        W24156  10.410   8.217   1.954
57616W        W24157   5.015  31.989   3.430
57617W        W24158  14.447  32.701   1.314
57618W        W24159  26.073  41.873   3.603
57619W        W24160  26.225   8.395  14.057
57620W        W24161   8.151  23.147   0.988
57621W        W24162  13.108   3.886  12.012
57622W        W24163  19.502  33.042  11.663
57623W        W24164  16.336  16.486  10.274
57624W        W24165  34.174   6.263   2.895
57625W        W24166   1.275  12.077   0.396
57626W        W24167  12.085   9.137  11.568
57627W        W24168  27.803  33.464  10.017
57628W        W24169   7.340   5.343  12.018
57629W        W24170  24.206  12.162  13.058
57630W        W24171  43.715  11.586   2.372
57631W        W24172  24.279  31.970  11.609
57632W        W24173  16.334  32.199   4.909
57633W        W24174   0.965   8.871  14.538
57634W        W24175  16.661  21.702  10.796
57635W        W24176  10.108  28.601  14.960
57636W        W24177   1.663  18.108  11.101
57637W        W24178  33.620  27.499   2.864
57638W        W24179  15.350   5.208  11.887
57639W        W24180  12.751  29.209  13.388
57640W        W24181  31.233  26.133  14.962
57641W        W24182  18.980  15.168   0.850
57642W        W24183  44.116  30.299  14.489
57643W        W24184   7.593  37.644   4.544
57644W        W24185  23.100  24.751  14.275
57645W        W24186  44.413   5.888   0.092
57646W        W24187  20.656  19.327   3.720
57647W        W24188  24.495  19.142  13.328
57648W        W24189  33.151  27.880  11.726
57649W        W24190  26.706  34.461  13.411
57650W        W24191  13.139  22.668  14.974
57651W        W24192  39.854  15.446   2.427
57652W        W24193   5.443  27.735   3.707
57653W        W24194  22.901   1.904   0.767
57654W        W24195   9.238  18.306  13.451
57655W        W24196  22.494  13.357  11.156
57656W        W24197  28.861   9.639  10.709
57657W        W24198  27.171  13.306   4.144
57658W        W24199  28.508  23.023  10.638
57659W        W24200  41.095   2.942   3.234
57660W        W24201  10.420  31.022   4.257
57661W        W24202  31.807   2.824  14.827
57662W        W24203  19.107  44.184   2.771
57663W        W24204  14.518  43.725  14.408
57664W        W24205   8.182  37.036  13.748
57665W        W24206  36.371  32.714  11.024
57666W        W24207  44.533  22.302  10.705
57667W        W24208  33.042  29.109  12.279
57668W        W24209  15.246   2.163   2.591
57669W        W24210  41.269  19.689   1.469
57670W        W24211  38.551  21.235   0.685
57671W        W24212  15.243   6.369  14.243
57672W        W24213  19.205  33.227  13.075
57673W        W24214  24.483  33.661  12.620
57674W        W24215  11.732  19.675   5.250
57675W        W24216  24.256  23.020   0.481
57676W        W24217   5.053  34.042   1.768
57677W        W24218   8.929  22.691  13.121
57678W        W24219  30.246   9.148  11.131
57679W        W24220  15.218  40.081   3.815
57680W        W24221   7.793   2.184   4.710
57681W        W24222  14.740  34.082   2.277
57682W        W24223  10.920  24.551  11.143
57683W        W24224  26.754  26.538   0.952
57684W        W24225   3.781   7.420   2.950
57685W        W24226  23.433  31.481  11.609
57686W        W24227  34.406  27.224   0.553
57687W        W24228  29.163   3.317  14.836
57688W        W24229  32.167  21.655  12.055
57689W        W24230  17.811  19.495  11.943
57690W        W24231  12.137  36.713  13.890
57691W        W24232  44.692  44.221  13.253
57692W        W24233  37.940  14.078   3.389
57693W        W24234  31.315  26.727  12.405
57694W        W24235  12.893   5.483  14.988
57695W        W24236  19.335  37.386  12.482
57696W        W24237  29.421  15.067  11.926
57697W        W24238  42.080  34.911   1.115
57698W        W24239  26.004  38.778  12.980
57699W        W24240  33.927  22.980   2.371
57700W        W24241  38.335  37.851  10.862
57701W        W24242  44.359  18.361  10.173
57702W        W24243   0.168  11.349  13.996
57703W        W24244  16.786  35.491   2.161
57704W        W24245  31.857   2.173   1.840
57705W        W24246  16.518  25.084   3.779
57706W        W24247  26.119  27.357  14.230
57707W        W24248  25.409   0.362  12.523
57708W        W24249  22.895  25.709  11.408
57709W        W24250  12.316  41.266  13.996
57710W        W24251  29.798  24.173  11.207
57711W        W24252  27.259   9.625  11.480
57712W        W24253  15.060   8.850   2.681
57713W        W24254  12.198  34.734  11.924
57714W        W24255  22.719  30.203   2.222
57715W        W24256   1.992  26.423  12.038
57716W        W24257  20.020  13.130  14.471
57717W        W24258  17.338   3.685  12.444
57718W        W24259  20.296   7.101  14.080
57719W        W24260  21.083  28.669  13.064
57720W        W24261   8.389  28.928  10.731
57721W        W24262  24.304   6.412  14.158
57722W        W24263   1.194  15.009  13.068
57723W        W24264   5.693  41.465  13.029
57724W        W24265   4.101  42.415   4.630
57725W        W24266   7.490  33.561  14.212
57726W        W24267  18.545  39.852   1.245
57727W        W24268  19.042   6.295  12.883
57728W        W24269   3.845  13.389   4.159
57729W        W24270   5.688  40.949   3.204
57730W        W24271  40.501  37.537  13.848
57731W        W24272   8.968  30.423  13.372
57732W        W24273  13.559   4.463  13.500
57733W        W24274  31.634   9.683   9.843
57734W        W24275   5.036  27.600  14.772
57735W        W24276  37.253  26.377   0.864
57736W        W24277  36.589  17.875   4.592
57737W        W24278   6.182  13.285  10.489
57738W        W24279  30.487  44.094   1.442
57739W        W24280  38.405  14.305   3.634
57740W        W24281  15.634  34.277  14.966
57741W        W24282  14.186   3.501  12.555
57742W        W24283  14.323  17.310   1.732
57743W        W24284  10.362  22.807   0.443
57744W        W24285  13.756   9.263   4.879
57745W        W24286  40.332  23.513   4.582
57746W        W24287  33.077  31.512  10.517
57747W        W24288  36.393  42.469  11.171
57748W        W24289  44.392  26.115  10.562
57749W        W24290  10.948  29.706  10.936
57750W        W24291  19.669  16.335   0.699
57751W        W24292  26.874  11.195   2.946
57752W        W24293  44.893  23.492   0.395
57753W        W24294  28.749  21.729   0.792
57754W        W24295  14.502  21.470   3.740
57755W        W24296  39.134  28.172  13.496
57756W        W24297  30.789  31.742   1.676
57757W        W24298  10.057  30.620  10.679
57758W        W24299  39.035  42.448  13.358
57759W        W24300   5.949   8.670   0.845
57760W        W24301  44.102  13.323   3.965
57761W        W24302  39.385  42.146  14.844
57762W        W24303   2.488  24.115  11.085
57763W        W24304  17.256  29.667  12.050
57764W        W24305  16.675   4.637  11.063
57765W        W24306  34.928  18.123   0.254
57766W        W24307  42.902   7.242   4.703
57767W        W24308  42.746  36.157   5.000
57768W        W24309  23.986  17.214  13.868
57769W        W24310  40.921  33.261  12.442
57770W        W24311  11.861  23.545  14.465
57771W        W24312   8.175  28.544   2.444
57772W        W24313  17.535  39.137   3.659
57773W        W24314  14.639  33.985   3.784
57774W        W24315   3.341  18.210  14.261
57775W        W24316  25.384   8.201  11.380
57776W        W24317  10.322  18.743  11.069
57777W        W24318   6.609  37.295   3.754
57778W        W24319   7.418  12.869  14.417
57779W        W24320  42.346  19.461  13.644
57780W        W24321   4.902  13.087  11.137
57781W        W24322  21.061  35.517   2.851
57782W        W24323  22.044  18.768   4.513
57783W        W24324  44.278  24.605   2.709
57784W        W24325  34.081  41.050  11.272
57785W        W24326   4.743   7.085   1.442
57786W        W24327  32.465  16.711   1.478
57787W        W24328   1.229   6.161  14.078
57788W        W24329  41.308  34.487  12.836
57789W        W24330  10.682  26.768   4.168
57790W        W24331  30.580   4.883   4.161
57791W        W24332  32.015  15.825  14.023
57792W        W24333  43.768  39.341  10.534
57793W        W24334  31.198  33.817  13.300
57794W        W24335  14.583   0.430  13.918
57795W        W24336  41.862   5.181   2.059
57796W        W24337   0.938   5.814  13.438
57797W        W24338   2.977  44.435   1.896
57798W        W24339   4.912  43.426  13.826
57799W        W24340  17.829  38.000   2.885
57800W        W24341  17.540  11.676  13.118
57801W        W24342  16.808  33.354  11.564
57802W        W24343  28.347   9.736  10.625
57803W        W24344  30.452  34.979  12.504
57804W        W24345  21.003  22.123   3.174
57805W        W24346  39.222   9.300  14.422
57806W        W24347  22.463  23.578  11.484
57807W        W24348  39.767  40.258  12.548
57808W        W24349  19.740  18.803   5.228
57809W        W24350  34.170  22.525  14.522
57810W        W24351  26.959  13.230   3.004
57811W        W24352  30.208  29.691  13.962
57812W        W24353  40.826  32.571   0.487
57813W        W24354  36.333  12.766   2.433
57814W        W24355  20.599  32.540   2.139
57815W        W24356   2.533  43.767  12.950
57816W        W24357  28.082  17.183  14.896
57817W        W24358  20.562   5.138  14.338
57818W        W24359  10.224  22.738  13.998
57819W        W24360  21.194  17.822  13.064
57820W        W24361  30.923  44.335  14.466
57821W        W24362  23.515  28.119  12.207
57822W        W24363  29.708   1.727   2.142
57823W        W24364  35.550  34.979   1.395
57824W        W24365   6.685   1.243   1.752
57825W        W24366  20.173  43.311   2.704
57826W        W24367   3.329   5.151  10.187
57827W        W24368  34.893  36.621   2.994
57828W        W24369  34.001  34.770  14.447
57829W        W24370  23.977   6.889   2.258
57830W        W24371  19.152   6.541   0.298
57831W        W24372  20.688  19.268  14.996
57832W        W24373   2.543  13.160   3.614
57833W        W24374   7.362   4.801  10.698
57834W        W24375  42.717   6.380   0.365
57835W        W24376  22.772  20.590   0.823
57836W        W24377   1.659   6.905  11.175
57837W        W24378  40.238  40.731  12.794
57838W        W24379  17.087  41.744   3.287
57839W        W24380  32.866  22.542  10.496
57840W        W24381  41.805   4.298   2.353
57841W        W24382  38.629  18.336   2.737
57842W        W24383  17.023  11.314  14.367
57843W        W24384  28.921  42.438   1.218
57844W        W24385  16.620   2.207   1.834
57845W        W24386  25.976   6.348   0.539
57846W        W24387  26.278  26.539   0.749
57847W        W24388   6.943  44.741  13.742
57848W        W24389  12.420  37.834  11.124
57849W        W24390  24.221  38.982   5.476
57850W        W24391  36.719   1.137   0.200
57851W        W24392  37.560  21.477  12.769
57852W        W24393  36.173  32.364  12.983
57853W        W24394  12.808   7.413   3.234
57854W        W24395  37.374  25.309  10.845
57855W        W24396  28.475  42.839   2.355
57856W        W24397  12.780  13.390   1.291
57857W        W24398  37.515  17.561   3.020
57858W        W24399  15.583  28.901  12.480
57859W        W24400  32.959  32.047  13.816
57860W        W24401  19.084   1.406   4.347
57861W        W24402  19.581  14.811  11.133
57862W        W24403  36.921   6.365   1.223
57863W        W24404  10.199   7.398   2.288
57864W        W24405  20.683  18.862  10.905
57865W        W24406   5.371   7.442   0.447
57866W        W24407   3.042  19.567   3.657
57867W        W24408  37.078  18.070   4.579
57868W        W24409   4.482   4.012  12.852
57869W        W24410  31.223  40.958   1.438
57870W        W24411  38.556  13.186  12.165
57871W        W24412  42.002  27.947   3.644
57872W        W24413  12.256  34.863  12.837
57873W        W24414  31.189  26.052  13.924
57874W        W24415   6.769  43.117  10.410
57875W        W24416  15.857  16.462   1.355
57876W        W24417   0.449  35.046  13.138
57877W        W24418  31.938  43.968   1.404
57878W        W24419  31.116  14.772  14.659
57879W        W24420   5.324  36.088   4.622
57880W        W24421  34.978  13.151   3.667
57881W        W24422  41.805  37.827  13.004
57882W        W24423  19.062   5.296  14.561
57883W        W24424   2.192   0.778   1.846
57884W        W24425  32.618  15.809   1.892
57885W        W24426  40.898  15.199   2.860
57886W        W24427  24.133  34.538  10.816
57887W        W24428  40.502  39.707  12.944
57888W        W24429  19.678  20.633   2.882
57889W        W24430  43.724  33.728  11.801
57890W        W24431  39.339  42.211  11.147
57891W        W24432  39.491   7.639   1.837
57892W        W24433  33.071  12.389   3.772
57893W        W24434   0.425  19.763  14.249
57894W        W24435  24.272  22.522  11.845
57895W        W24436  30.714  16.265  13.792
57896W        W24437  40.528   5.368   0.865
57897W        W24438  12.024   3.404  10.716
57898W        W24439  10.696  42.015   3.689
57899W        W24440  32.901   5.106   1.462
57900W        W24441  31.208  15.769   5.191
57901W        W24442   5.288  44.924   1.732
57902W        W24443  39.494  41.071  12.087
57903W        W24444   7.868  34.901   2.337
57904W        W24445  32.051  24.209   1.216
57905W        W24446  15.809  16.660  10.371
57906W        W24447  31.513  22.461  13.288
57907W        W24448   7.586  33.530  10.651
57908W        W24449   9.075  26.269  11.128
57909W        W24450  38.626  32.025  12.819
57910W        W24451  18.613  43.233  11.638
57911W        W24452  18.810  40.904   0.537
57912W        W24453   4.901  28.483   2.837
57913W        W24454  19.026   7.067   1.451
57914W        W24455  22.310  17.788   0.059
57915W        W24456  40.830  25.999  13.858
57916W        W24457   4.884   8.392  12.495
57917W        W24458  20.676   1.868  13.584
57918W        W24459  34.661  36.840   0.772
57919W        W24460  19.773  26.524   0.852
57920W        W24461   8.363  14.665  13.791
57921W        W24462  38.394  21.149   4.589
57922W        W24463  14.384  14.245  13.107
57923W        W24464  26.454  12.826   4.047
57924W        W24465  13.720   5.323   2.579
57925W        W24466  29.786  28.558  14.884
57926W        W24467   6.189  38.206  14.459
57927W        W24468  33.066  42.013  11.354
57928W        W24469   3.013  41.379   4.642
57929W        W24470  25.066  29.867   0.872
57930W        W24471  34.632   3.940  11.887
57931W        W24472  27.560  38.444   3.064
57932W        W24473  38.890  39.629   2.211
57933W        W24474  39.480  10.827  12.772
57934W        W24475   0.935  35.916  12.875
57935W        W24476  12.565  44.971  11.531
57936W        W24477  15.698  17.667   0.757
57937W        W24478  15.250   6.842  13.985
57938W        W24479   6.834  30.525   0.962
57939W        W24480   9.108  24.509  12.886
57940W        W24481   4.773  12.827   4.573
57941W        W24482  10.309  43.828  14.468
57942W        W24483   1.120  41.187   2.708
57943W        W24484  39.353   5.650  12.326
57944W        W24485  36.785  42.066  11.005
57945W        W24486   5.478  36.417   1.657
57946W        W24487  23.285   5.440  13.997
57947W        W24488  34.649  32.304   1.986
57948W        W24489   0.144  44.232  11.102
57949W        W24490  14.231   5.471  14.023
57950W        W24491   9.803   7.501   1.129
57951W        W24492  22.646  38.392   0.780
57952W        W24493  30.480  30.002  14.332
57953W        W24494  23.922  11.861  14.398
57954W        W24495   7.162  31.839  13.012
57955W        W24496   7.938   0.240  14.689
57956W        W24497  25.133  44.027  12.390
57957W        W24498  28.479  13.317  12.620
57958W        W24499  28.686  12.370  12.914
57959W        W24500   4.012  34.370  11.065
57960W        W24501  44.362  33.486   3.268
57961W        W24502  21.117  22.688   5.155
57962W        W24503   5.217   6.864   4.549
57963W        W24504  38.108  39.533   0.543
57964W        W24505  13.762  32.335   4.524
57965W        W24506  35.115   2.853  11.238
57966W        W24507  24.314   1.901   2.309
57967W        W24508   2.905  14.746   2.293
57968W        W24509  21.000  20.209  12.609
57969W        W24510  31.927  18.563   4.612
57970W        W24511  18.027   6.152   2.816
57971W        W24512  42.387  39.864  11.703
57972W        W24513  43.339  43.577   0.477
57973W        W24514  38.158  10.714  10.690
57974W        W24515  36.473   2.849   9.795
57975W        W24516  15.681  16.177   2.886
57976W        W24517  20.635  25.272   1.473
57977W        W24518  31.723  32.968   1.769
57978W        W24519  29.426   2.135   1.896
57979W        W24520  16.025   3.847   3.256
57980W        W24521   4.142  39.811   1.252
57981W        W24522  42.353  22.386  11.978
57982W        W24523  28.008  23.420  13.284
57983W        W24524  35.620  12.919  13.468
57984W        W24525  22.330  32.976   4.957
57985W        W24526   1.406  19.223   0.280
57986W        W24527  30.890   1.693  14.389
57987W        W24528  27.293  23.692   1.196
57988W        W24529  25.179   0.186   1.477
57989W        W24530  28.444   7.579   0.433
57990W        W24531   0.418  25.923  14.300
57991W        W24532  16.340  33.933   3.258
57992W        W24533  43.786   6.542  12.443
57993W        W24534  27.336   4.928  13.545
57994W        W24535  35.641   6.863   2.940
57995W        W24536  15.539  17.662  12.347
57996W        W24537  28.210  42.400   2.413
57997W        W24538  22.201  28.263   4.439
57998W        W24539  24.980   0.552  11.254
57999W        W24540  17.842   0.750   3.671
58000W        W24541   5.653  43.465   2.457
58001W        W24542   0.739  35.204  14.780
58002W        W24543  20.689  26.218  13.464
58003W        W24544  32.872  41.985   2.006
58004W        W24545  19.185  41.699  13.508
58005W        W24546  33.781   3.141  14.822
58006W        W24547  42.644  17.814   0.917
58007W        W24548   7.726  12.896  13.906
58008W        W24549   8.270  32.810   0.864
58009W        W24550   0.002  14.375   4.615
58010W        W24551  38.492  13.706  13.834
58011W        W24552   0.477  20.751   1.287
58012W        W24553   1.865  10.711  13.438
58013W        W24554  30.979  44.679   3.347
58014W        W24555  11.083  12.800  14.509
58015W        W24556  40.812  16.759  10.650
58016W        W24557  20.531  21.604  10.906
58017W        W24558  28.322  30.528  12.965
58018W        W24559  31.222  18.155   2.837
58019W        W24560  29.865  24.788  12.054
58020W        W24561  21.008  28.160   2.877
58021W        W24562  14.224  34.134  14.713
58022W        W24563  42.033  17.608   3.683
58023W        W24564  21.489  26.938  11.592
58024W        W24565  21.735  33.666   3.281
58025W        W24566  36.709  10.062   1.374
58026W        W24567  25.975   2.075  14.253
58027W        W24568  25.197   3.119  12.387
58028W        W24569  36.073  28.806   2.740
58029W        W24570  30.376   6.341  14.536
58030W        W24571  37.956   0.271  10.676
58031W        W24572   6.127   6.958  11.187
58032W        W24573   4.762  19.392  11.947
58033W        W24574  26.956   6.162   0.428
58034W        W24575  40.394  13.348   1.227
58035W        W24576  44.257  33.213   2.171
58036W        W24577  17.545  28.571   0.950
58037W        W24578   8.253  22.454  11.998
58038W        W24579  43.299  29.924  12.457
58039W        W24580   0.229  20.023   0.421
58040W        W24581   4.409   0.065   2.185
58041W        W24582   9.901  43.341   0.731
58042W        W24583   2.709  30.436  12.043
58043W        W24584  12.707  44.976   1.914
58044W        W24585  43.277  40.490   0.493
58045W        W24586   7.681  10.451   2.820
58046W        W24587  38.214  23.893   3.653
58047W        W24588  40.873  25.583   5.024
58048W        W24589  18.811   0.749   2.153
58049W        W24590  12.293  26.109   0.904
58050W        W24591   3.498  21.665  13.791
58051W        W24592  25.906  30.570  11.095
58052W        W24593  20.835  35.094   3.851
58053W        W24594  44.866  41.765  13.471
58054W        W24595  31.156  22.438  12.366
58055W        W24596  24.795  18.373  12.410
58056W        W24597  17.632   9.353  12.499
58057W        W24598  34.928  24.078   4.304
58058W        W24599   5.278  34.241   5.133
58059W        W24600  12.194  21.639   0.844
58060W        W24601  31.494  42.651  13.822
58061W        W24602   5.425  30.909   1.676
58062W        W24603  17.719  18.988  13.352
58063W        W24604  20.759   3.343   4.111
58064W        W24605   6.332  31.396  11.492
58065W        W24606  12.881  28.857  12.030
58066W        W24607   5.448  35.418  11.508
58067W        W24608   2.129  29.133   1.973
58068W        W24609  16.132  19.671   0.838
58069W        W24610  39.324   9.269   0.830
58070W        W24611  28.195  14.557  14.832
58071W        W24612  39.893   9.710   4.582
58072W        W24613  25.530  33.330  11.159
58073W        W24614  18.069   9.722  11.674
58074W        W24615  31.470  21.309  12.664
58075W        W24616  42.430   4.476  10.610
58076W        W24617  15.231  18.517   3.609
58077W        W24618  34.016  26.203  12.128
58078W        W24619  36.888  42.304  14.276
58079W        W24620   1.197  40.057  13.973
58080W        W24621  17.478  25.965  13.924
58081W        W24622  23.248   4.309  12.979
58082W        W24623   9.205   6.739  12.349
58083W        W24624  39.923  33.160  13.445
58084W        W24625   6.099  33.319  10.551
58085W        W24626  37.570  43.679   2.415
58086W        W24627   2.751   2.667   9.424
58087W        W24628  31.678   5.252  13.028
58088W        W24629  28.698  24.015  14.055
58089W        W24630  27.550  28.620   2.831
58090W        W24631   9.296  43.758   2.720
58091W        W24632  11.762  37.335   0.433
58092W        W24633  15.420  15.772  11.947
58093W        W24634   5.403  35.520   1.212
58094W        W24635   7.313  11.358   3.368
58095W        W24636   2.357  30.098   4.957
58096W        W24637   8.717   7.131  14.886
58097W        W24638   1.224  27.698   3.721
58098W        W24639  20.044   8.325   0.351
58099W        W24640  17.497  22.198   4.149
58100W        W24641   1.308   4.044  12.966
58101W        W24642   8.246  13.732   1.124
58102W        W24643  31.391  24.461   2.282
58103W        W24644  25.952  34.196   0.902
58104W        W24645   4.914  24.989  13.913
58105W        W24646   5.392  12.705  10.731
58106W        W24647  42.956  15.809  11.089
58107W        W24648  41.434  17.984  10.458
58108W        W24649  33.890  39.254   3.853
58109W        W24650  15.291  41.995   4.282
58110W        W24651  17.612  42.077  12.210
58111W        W24652  38.827  37.493   4.514
58112W        W24653  35.414  10.334   2.737
58113W        W24654  24.756  40.577   4.447
58114W        W24655  42.714  33.137  14.372
58115W        W24656  43.087  30.238   2.408
58116W        W24657  19.945  30.299  12.682
58117W        W24658  38.366  29.645  14.344
58118W        W24659  23.619  15.679  14.305
58119W        W24660  28.659  30.779   0.734
58120W        W24661  21.851  42.891   3.326
58121W        W24662   5.985  19.110  14.528
58122W        W24663  31.678  27.460  13.438
58123W        W24664  38.863  40.970   4.208
58124W        W24665  20.180   2.894  11.920
58125W        W24666  18.601   0.478  10.698
58126W        W24667  14.227  12.175  11.904
58127W        W24668  38.887  27.879   3.124
58128W        W24669  15.060  14.322   4.448
58129W        W24670  33.869  25.362  12.552
58130W        W24671  44.232   7.750   3.297
58131W        W24672   1.751  36.570  11.181
58132W        W24673   2.931  18.126   0.314
58133W        W24674  40.073  36.403  14.930
58134W        W24675  29.942  27.947  11.102
58135W        W24676  15.113  39.420   2.673
58136W        W24677  26.449  34.516  10.883
58137W        W24678  43.243  22.711  12.968
58138W        W24679   1.908   8.360  10.752
58139W        W24680  27.820   4.507   3.302
58140W        W24681  17.212  25.909   0.374
58141W        W24682  19.678  21.533   4.206
58142W        W24683  41.735  29.185   3.392
58143W        W24684  15.523  34.828   4.870
58144W        W24685   8.020  13.204   2.454
58145W        W24686   0.185  28.912   2.590
58146W        W24687   7.181  41.939   1.286
58147W        W24688  30.364  10.230  11.593
58148W        W24689   6.184  30.495   4.215
58149W        W24690  35.410  17.537  10.555
58150W        W24691  35.572   7.397   3.028
58151W        W24692  30.557  36.038   4.887
58152W        W24693  14.232  25.053  12.097
58153W        W24694  11.558   1.307   3.203
58154W        W24695  43.196   4.207  10.929
58155W        W24696   9.943  22.229   3.368
58156W        W24697  29.549  29.853  13.848
58157W        W24698  18.822  12.374  11.148
58158W        W24699   6.951   7.413   2.263
58159W        W24700   6.293  31.633   3.331
58160W        W24701   7.987  18.268   0.015
58161W        W24702   0.015  40.472   1.887
58162W        W24703  13.856  15.196  14.766
58163W        W24704  19.169   2.294   2.892
58164W        W24705   4.206   5.723   1.402
58165W        W24706   6.074  31.662   0.136
58166W        W24707  39.044  33.004   0.433
58167W        W24708  11.698  27.665  11.092
58168W        W24709  35.875   0.582  13.290
58169W        W24710  11.790  19.983  11.189
58170W        W24711  41.084   7.862   1.902
58171W        W24712  39.380  22.547   3.323
58172W        W24713  34.344  31.531   4.194
58173W        W24714   7.348  24.108  11.969
58174W        W24715  26.409   4.296  10.791
58175W        W24716   3.780  29.721   2.094
58176W        W24717  30.496  41.800  14.033
58177W        W24718  42.923  27.894  10.935
58178W        W24719  17.824  12.092  13.038
58179W        W24720   2.965  20.172   4.345
58180W        W24721  26.966  36.240   1.927
58181W        W24722  15.282  22.664  11.119
58182W        W24723  37.418  24.229   4.433
58183W        W24724   3.191   4.997  12.119
58184W        W24725  40.280  39.247   2.792
58185W        W24726  24.991  30.974   4.598
58186W        W24727  33.438  37.292  10.789
58187W        W24728  39.262  30.946   4.259
58188W        W24729  33.899  43.910  12.457
58189W        W24730  37.271  20.165  13.481
58190W        W24731  19.739  30.993   4.056
58191W        W24732  16.114   4.105   0.692
58192W        W24733  37.898  11.802   2.881
58193W        W24734  13.009  35.726   2.453
58194W        W24735  18.927  10.580  11.021
58195W        W24736  24.227  28.777   0.379
58196W        W24737  18.849   3.937   1.658
58197W        W24738  18.625  16.082  10.279
58198W        W24739  38.059  37.023  14.186
58199W        W24740  18.240  26.937  13.200
58200W        W24741  23.483  26.711   0.081
58201W        W24742  23.906  25.143  12.693
58202W        W24743   6.834  27.702  14.724
58203W        W24744  20.859  39.346  11.142
58204W        W24745  12.277  24.744   4.165
58205W        W24746  19.184  18.626  10.663
58206W        W24747   4.185  18.534  12.472
58207W        W24748  37.364  38.446   2.422
58208W        W24749   5.770  43.716   4.178
58209W        W24750   9.846   5.981   3.803
58210W        W24751  23.253  36.927  12.482
58211W        W24752  18.631  41.077  13.167
58212W        W24753  39.199   8.920  11.704
58213W        W24754  33.388   2.800  14.850
58214W        W24755  19.800  16.031  14.408
58215W        W24756  44.599  29.391  14.375
58216W        W24757  10.689   9.463  10.801
58217W        W24758  26.886   8.437   4.994
58218W        W24759  33.614  27.924   3.646
58219W        W24760  44.367   7.677   1.897
58220W        W24761  30.070  11.045   0.671
58221W        W24762  43.770  22.685   3.155
58222W        W24763  15.613  43.909   4.590
58223W        W24764  27.008  30.876  11.298
58224W        W24765   8.308  43.826  10.916
58225W        W24766  34.152  14.083  12.881
58226W        W24767   1.414  10.690  13.176
58227W        W24768   3.723   4.258   2.389
58228W        W24769  13.064  21.165   0.152
58229W        W24770   9.113  19.244   1.694
58230W        W24771  34.091  34.082   1.294
58231W        W24772  38.270  42.950  11.049
58232W        W24773  25.112  28.750  10.971
58233W        W24774   2.376   2.916   0.286
58234W        W24775  34.069  15.904  11.815
58235W        W24776  22.128   0.780   2.165
58236W        W24777  14.068  11.162   0.633
58237W        W24778   2.518  36.150  11.585
58238W        W24779  17.082  17.727   3.452
58239W        W24780  12.205  34.894   1.394
58240W        W24781  22.478  40.521   1.905
58241W        W24782  11.116  30.241   0.493
58242W        W24783   7.883   8.440   1.430
58243W        W24784  13.697  42.531  10.913
58244W        W24785   9.907   0.793  14.976
58245W        W24786  16.352   1.860   3.948
58246W        W24787  43.968  29.186  11.114
58247W        W24788  44.711  15.372   4.109
58248W        W24789  42.563  38.264  14.808
58249W        W24790  38.059  32.912  11.507
58250W        W24791   3.352  26.792  10.754
58251W        W24792  42.818  41.035   3.125
58252W        W24793  11.758  11.687  12.597
58253W        W24794   1.490  28.655   2.149
58254W        W24795  18.765  41.904   2.759
58255W        W24796  30.334  28.656   0.951
58256W        W24797  10.416  21.962   3.317
58257W        W24798  42.091   5.413  10.968
58258W        W24799  17.600   0.404  10.890
58259W        W24800  29.103  29.957   1.212
58260W        W24801  33.597  36.668   3.222
58261W        W24802  31.952  11.987  10.194
58262W        W24803  12.122  11.264  14.503
58263W        W24804  39.506  32.065   2.299
58264W        W24805  23.579  32.542   3.032
58265W        W24806  34.276  21.162  13.540
58266W        W24807  19.069   0.438  14.921
58267W        W24808  42.090   9.292  14.886
58268W        W24809  43.276  39.466   0.028
58269W        W24810   5.734  28.110  10.679
58270W        W24811   1.755  27.773   2.432
58271W        W24812  41.533   3.826   1.852
58272W        W24813   4.595  25.135   3.996
58273W        W24814   4.628  30.507   0.399
58274W        W24815  29.101  29.890  14.520
58275W        W24816  14.393  29.963   1.406
58276W        W24817  33.002  17.286   2.718
58277W        W24818   4.895  36.425   0.789
58278W        W24819  13.690  36.373  12.518
58279W        W24820  41.834  37.704   1.395
58280W        W24821  15.377   2.838  13.562
58281W        W24822  13.146   2.716   1.222
58282W        W24823  16.508   5.739  11.355
58283W        W24824  34.709  19.277   0.762
58284W        W24825  20.223  28.458  13.096
58285W        W24826  34.330  22.570   2.417
58286W        W24827  32.024  41.577  10.298
58287W        W24828  15.730  28.112   1.680
58288W        W24829  36.997  38.502   4.672
58289W        W24830  12.540   9.756  11.114
58290W        W24831  40.468  39.232  13.111
58291W        W24832   2.162  40.258  13.536
58292W        W24833  31.424  21.711   1.049
58293W        W24834  28.732  17.942  11.346
58294W        W24835  18.178  23.731   2.832
58295W        W24836  41.549  31.563   0.435
58296W        W24837   4.117  30.011   0.758
58297W        W24838  27.148  23.010   3.692
58298W        W24839  17.731  43.303   4.509
58299W        W24840  33.560   0.948   5.373
58300W        W24841  14.031  31.308  14.455
58301W        W24842  34.976  22.945  13.355
58302W        W24843  16.558  14.345  13.912
58303W        W24844  40.778  30.076  14.910
58304W        W24845  18.016   7.738  13.835
58305W        W24846  37.484   0.334  11.871
58306W        W24847  14.315  39.988  14.759
58307W        W24848  16.727  19.220   0.541
58308W        W24849   4.058  13.391   0.829
58309W        W24850   4.804  10.689  12.166
58310W        W24851  27.664  30.043  14.764
58311W        W24852  33.029  12.050   1.482
58312W        W24853  30.598  16.346   5.052
58313W        W24854   0.435  28.077   2.454
58314W        W24855   9.196  25.782  12.481
58315W        W24856  21.740  14.234   4.175
58316W        W24857  42.874  34.467  14.870
58317W        W24858  25.979  33.778   4.025
58318W        W24859  15.130  20.748   3.553
58319W        W24860  42.318  34.586  11.485
58320W        W24861  21.743  30.867  14.502
58321W        W24862  26.036   7.680   2.299
58322W        W24863  14.262  35.421   0.395
58323W        W24864  13.577  30.896  11.568
58324W        W24865  20.257  37.409  11.530
58325W        W24866  36.381  34.538  10.815
58326W        W24867  19.851   3.366  13.677
58327W        W24868  36.065  38.883  10.693
58328W        W24869  32.893   6.456  10.294
58329W        W24870  14.027   3.894   0.285
58330W        W24871  34.819  35.748  12.994
58331W        W24872  33.905  11.147  13.994
58332W        W24873  25.585  29.431  13.085
58333W        W24874  44.457  42.795   4.053
58334W        W24875   6.204  21.671   4.570
58335W        W24876   5.345  13.352  11.141
58336W        W24877  40.064  12.696   3.595
58337W        W24878  28.911  18.580  12.072
58338W        W24879  16.102  11.108   0.486
58339W        W24880  22.326   5.420  11.142
58340W        W24881  44.137  34.551   0.351
58341W        W24882  34.138   6.596  10.504
58342W        W24883  24.447  13.376  11.058
58343W        W24884  34.141  40.712   3.233
58344W        W24885   9.324  13.080   1.911
58345W        W24886  42.455   9.406   3.076
58346W        W24887  25.092   6.924   0.721
58347W        W24888   9.186  40.833   4.062
58348W        W24889  28.334  18.747   0.826
58349W        W24890   0.229  31.688   3.552
58350W        W24891  35.832  17.058  12.046
58351W        W24892  39.626  24.958  12.131
58352W        W24893  29.112  35.335   2.102
58353W        W24894  21.616  43.770   4.185
58354W        W24895  29.721  33.486   0.824
58355W        W24896  11.354  30.968  11.708
58356W        W24897  12.180   1.321  14.863
58357W        W24898  34.583   3.288   3.193
58358W        W24899  33.005  24.627   3.143
58359W        W24900   9.911  15.677  12.541
58360W        W24901  16.861  10.717   2.751
58361W        W24902  15.079  23.980   1.338
58362W        W24903  26.724  16.049   3.656
58363W        W24904  10.452  24.519  14.448
58364W        W24905  17.185  16.102  13.822
58365W        W24906  15.359  23.073  11.949
58366W        W24907   6.197  27.101   0.594
58367W        W24908  38.680  43.308   3.257
58368W        W24909  15.774  34.138   2.345
58369W        W24910  17.551  34.547   2.524
58370W        W24911  41.432  31.361  10.682
58371W        W24912  39.100  22.228  13.842
58372W        W24913  23.586   6.940   3.933
58373W        W24914  14.068   2.003  14.741
58374W        W24915  19.294   9.650   1.250
58375W        W24916  17.132  34.897  13.520
58376W        W24917   6.936   6.731  13.560
58377W        W24918  30.370  39.392   3.304
58378W        W24919  16.525  35.651   0.075
58379W        W24920  37.892  24.407   4.325
58380W        W24921  40.946   7.238   3.676
58381W        W24922   8.923  17.768  12.845
58382W        W24923  27.627  41.751   0.390
58383W        W24924  19.367  28.605   0.376
58384W        W24925  30.299  38.857   4.435
58385W        W24926  41.831  15.369   2.373
58386W        W24927  40.115  17.896   3.618
58387W        W24928  37.052   1.424   2.018
58388W        W24929  26.266  33.492   0.157
58389W        W24930  12.727   4.381   4.615
58390W        W24931   3.362  17.088   0.412
58391W        W24932  14.167  38.006  12.038
58392W        W24933  32.666   6.671   1.734
58393W        W24934  37.004  35.729   3.392
58394W        W24935  25.523  14.676   1.286
58395W        W24936  14.429  34.323  10.690
58396W        W24937  22.093   0.100  14.491
58397W        W24938  42.335   1.316   1.232
58398W        W24939  43.436  18.627   3.143
58399W        W24940  32.470  23.681   2.839
58400W        W24941  23.151  17.989  11.107
58401W        W24942  38.402  44.856  13.855
58402W        W24943   3.868  35.895  14.442
58403W        W24944  41.267  21.619  14.532
58404W        W24945  33.927  43.676   0.704
58405W        W24946  21.721  39.562  11.025
58406W        W24947  37.705  38.413   0.020
58407W        W24948  18.769   5.092  13.707
58408W        W24949   1.799  30.422  10.719
58409W        W24950  26.578  39.008  10.346
58410W        W24951  41.482  38.514   0.444
58411W        W24952  29.987  26.687  10.581
58412W        W24953   2.331  21.427  12.434
58413W        W24954  16.599   9.248  11.656
58414W        W24955  42.899  40.823   3.593
58415W        W24956  36.118  25.111   1.881
58416W        W24957  24.562  20.308  11.586
58417W        W24958  28.387  14.817   3.138
58418W        W24959  39.407  38.107  12.309
58419W        W24960  10.317  31.934   4.634
58420W        W24961  14.164  40.983   0.964
58421W        W24962  20.452  19.825   1.913
58422W        W24963  35.329   7.153   1.742
58423W        W24964  10.394  38.099  11.313
58424W        W24965   7.777  36.093  14.296
58425W        W24966  12.346   4.913  14.448
58426W        W24967  10.739   7.632   4.551
58427W        W24968   8.877  43.686  13.885
58428W        W24969  32.637  19.664   0.637
58429W        W24970  41.507   5.939   1.723
58430W        W24971  24.064  30.083   2.756
58431W        W24972  18.622  17.366   2.202
58432W        W24973  27.636  18.491   0.362
58433W        W24974  39.794  23.392  10.630
58434W        W24975  42.129  14.406   4.307
58435W        W24976  39.421  13.101   0.969
58436W        W24977  13.161  33.453   1.885
58437W        W24978  35.908   8.639   3.209
58438W        W24979   2.527  33.159   5.049
58439W        W24980  28.838   4.403   2.360
58440W        W24981  27.211  29.879   3.203
58441W        W24982  42.977  26.018  14.485
58442W        W24983  25.121   8.821   0.815
58443W        W24984  25.503  18.667  14.493
58444W        W24985  40.549  11.328   4.671
58445W        W24986  11.545  17.312  11.358
58446W        W24987  39.281  10.220   1.082
58447W        W24988  39.502  31.968   0.515
58448W        W24989  27.612  11.093  14.413
58449W        W24990  31.715   4.319  13.602
58450W        W24991  40.007  34.635  11.120
58451W        W24992  37.350   5.972   4.319
58452W        W24993  26.090  23.469  14.022
58453W        W24994   4.863  31.601   3.108
58454W        W24995  17.755   8.278   1.560
58455W        W24996   9.621  21.538  14.431
58456W        W24997  15.399  29.262   0.231
58457W        W24998  44.777  22.959   1.333
58458W        W24999  41.130  32.851   1.234
58459W        W25000  17.299  41.529   4.578
58460W        W25001  26.741   9.261  13.819
58461W        W25002   3.992  15.905  12.105
58462W        W25003  27.662  12.536  14.908
58463W        W25004   1.427  15.752  11.224
58464W        W25005  37.708  16.206   4.112
58465W        W25006  14.994   2.771  12.655
58466W        W25007   6.711  22.512  12.976
58467W        W25008  29.092  15.668   4.613
58468W        W25009  40.087   9.359   3.400
58469W        W25010  14.352   5.303  11.500
58470W        W25011  20.972  23.279   2.784
58471W        W25012   5.688  38.699   1.541
58472W        W25013  28.445   9.133  13.943
58473W        W25014  20.645  43.053   2.719
58474W        W25015   3.781  24.564  11.697
58475W        W25016  32.611  31.966  12.351
58476W        W25017  30.032   2.899  11.091
58477W        W25018  31.802  16.004  13.532
58478W        W25019   3.442  37.611  13.339
58479W        W25020  13.313  26.968   0.393
58480W        W25021  13.672  21.960  14.554
58481W        W25022  27.001  23.314  14.592
58482W        W25023  29.149  19.752  13.537
58483W        W25024  28.202  35.456   4.129
58484W        W25025   7.669  40.495  10.632
58485W        W25026   1.926   3.886   4.788
58486W        W25027  31.463  13.418   2.235
58487W        W25028  33.326  23.505   2.831
58488W        W25029  11.621   9.090   0.270
58489W        W25030  24.612  14.339   0.412
58490W        W25031  32.830  14.710  11.657
58491W        W25032  27.885  43.840  12.971
58492W        W25033   3.676   1.215   4.910
58493W        W25034  32.107  26.947   0.427
58494W        W25035   8.268  32.123   2.299
58495W        W25036   6.862  19.119  12.463
58496W        W25037  37.644   3.704  12.441
58497W        W25038   9.069  11.901   2.301
58498W        W25039  15.022  16.160  10.741
58499W        W25040  13.311  38.980   4.221
58500W        W25041  24.784  36.330   0.775
58501W        W25042  24.983   2.892  13.697
58502W        W25043  36.415  31.477   4.903
58503W        W25044  44.463   8.706   3.696
58504W        W25045   1.789  30.821   3.564
58505W        W25046  15.703  19.779  11.141
58506W        W25047  33.662   0.926  13.309
58507W        W25048  38.949  35.551   4.673
58508W        W25049   0.907  16.394  11.481
58509W        W25050  35.793   4.967  11.224
58510W        W25051  35.993  25.943   0.656
58511W        W25052   3.641  10.489  11.060
58512W        W25053  30.248  30.303   4.248
58513W        W25054  38.980   1.246  13.379
58514W        W25055  32.830  37.682   1.856
58515W        W25056  40.499  43.876  11.131
58516W        W25057   1.958  33.885   2.180
58517W        W25058  10.879  39.814  13.817
58518W        W25059  37.441  21.624  13.767
58519W        W25060  17.041  28.967   4.579
58520W        W25061  36.109  12.133  11.505
58521W        W25062  29.251  11.049  13.476
58522W        W25063  41.778  33.877  12.597
58523W        W25064   6.686  13.026  11.158
58524W        W25065   0.816  13.392   2.644
58525W        W25066  33.033   7.698  13.615
58526W        W25067   7.736  31.479   4.306
58527W        W25068  10.658  41.538  14.702
58528W        W25069  36.058  10.450  14.733
58529W        W25070   8.261  15.199   1.726
58530W        W25071  19.551  37.112   1.108
58531W        W25072  29.935   3.997  13.853
58532W        W25073  33.589   4.007  10.243
58533W        W25074  22.495  15.171   0.472
58534W        W25075   9.683   0.887  13.425
58535W        W25076  16.383  26.030   2.982
58536W        W25077  20.198  36.321  12.462
58537W        W25078  40.942  39.374  12.942
58538W        W25079  17.081  35.416  13.090
58539W        W25080   8.744  24.785  11.984
58540W        W25081  41.526  31.978  12.510
58541W        W25082  27.544   7.454   4.607
58542W        W25083  18.075  44.964   1.746
58543W        W25084  15.070  40.953   0.720
58544W        W25085  24.248   1.567  14.863
58545W        W25086  41.465  40.251   5.047
58546W        W25087  37.333  37.768   1.332
58547W        W25088  35.209  36.536   4.810
58548W        W25089  39.839  32.663  13.325
58549W        W25090  34.882   5.742  11.187
58550W        W25091  18.070   5.183   2.914
58551W        W25092  32.848  19.538  11.645
58552W        W25093  28.625   6.145  13.715
58553W        W25094  10.959  12.005  13.950
58554W        W25095   9.267  15.824   4.088
58555W        W25096  25.402   8.549   3.715
58556W        W25097  40.577  21.091  14.710
58557W        W25098  37.721  39.524   0.901
58558W        W25099  22.167  16.661  10.705
58559W        W25100  24.649  27.824  12.990
58560W        W25101  29.445  21.229   4.256
58561W        W25102  31.263   0.476   0.308
58562W        W25103  32.098  33.089  14.034
58563W        W25104  36.476  35.857  12.604
58564W        W25105   1.205   5.271  13.387
58565W        W25106  33.476  21.221   3.205
58566W        W25107  10.956  34.524   4.797
58567W        W25108  12.439  34.430   1.364
58568W        W25109  34.174   2.885   0.033
58569W        W25110  37.367  39.477  13.887
58570W        W25111   6.429   1.635   5.163
58571W        W25112  39.582  10.645  10.359
58572W        W25113   6.516  26.774  13.925
58573W        W25114  26.592  16.059  11.600
58574W        W25115  27.134  23.829   4.168
58575W        W25116  15.634  12.214  10.670
58576W        W25117  21.079  26.611   2.588
58577W        W25118  32.258  42.863   3.192
58578W        W25119  18.974  35.802   2.840
58579W        W25120  10.385  25.875   2.282
58580W        W25121  11.375  37.068  13.542
58581W        W25122  18.126  12.245  14.886
58582W        W25123  31.785  41.517  14.155
58583W        W25124  22.980  12.388  14.938
58584W        W25125  33.714  11.251  10.416
58585W        W25126  24.284  10.314   2.801
58586W        W25127  20.606  35.432  13.036
58587W        W25128  18.290  27.457  14.322
58588W        W25129  20.359  34.049   2.324
58589W        W25130  35.066  38.381   1.458
58590W        W25131  39.933   7.474   4.747
58591W        W25132  44.767   1.466  13.025
58592W        W25133  26.477  24.395  12.859
58593W        W25134  19.647  18.320   5.063
58594W        W25135  30.674   2.975   0.567
58595W        W25136   6.649   4.704  12.127
58596W        W25137  22.823   1.656   4.459
58597W        W25138  26.687  27.568   3.321
58598W        W25139   2.116  20.146  12.041
58599W        W25140   0.312  13.816  12.069
58600W        W25141  28.180   0.682  13.328
58601W        W25142  17.187  34.067   4.618
58602W        W25143   6.524  15.168   1.759
58603W        W25144  42.045  19.284   4.502
58604W        W25145   8.944  36.910   1.798
58605W        W25146  18.064  15.615   0.427
58606W        W25147  33.463  19.750  11.975
58607W        W25148  44.046  27.463  11.568
58608W        W25149   9.329  20.104   1.884
58609W        W25150  28.151  31.436   4.975
58610W        W25151  18.057  39.042  12.518
58611W        W25152  43.907  22.273   0.703
58612W        W25153   7.118  28.169   0.468
58613W        W25154   4.556  14.350  11.707
58614W        W25155  28.113   7.483   5.360
58615W        W25156  11.696  43.219  14.367
58616W        W25157  32.572  33.070  14.314
58617W        W25158  29.463   8.463  14.968
58618W        W25159  20.406  41.847   2.147
58619W        W25160  17.689  10.425  10.843
58620W        W25161  26.394  43.957  12.974
58621W        W25162  37.949  24.667   2.508
58622W        W25163   7.305  14.845  11.547
58623W        W25164  35.446  11.266  12.351
58624W        W25165  25.906  15.534   1.770
58625W        W25166  36.356  13.266   3.765
58626W        W25167  41.636  41.238   5.089
58627W        W25168  32.099  36.965   3.392
58628W        W25169  38.825  34.287  14.973
58629W        W25170  17.124  36.292   2.761
58630W        W25171  10.430  41.440   3.253
58631W        W25172  24.372  30.191  14.460
58632W        W25173  23.762  37.783  11.184
58633W        W25174   4.533  31.409   4.551
58634W        W25175  29.103  19.365   3.268
58635W        W25176  42.988  21.012  10.388
58636W        W25177  25.248  37.222  11.969
58637W        W25178   2.257  41.888   3.290
58638W        W25179  11.674  31.992   5.057
58639W        W25180  16.668  26.636   3.471
58640W        W25181  15.452   4.262  12.394
58641W        W25182   3.168   6.649   3.786
58642W        W25183  22.194  10.162  10.922
58643W        W25184  40.477  37.555  10.893
58644W        W25185  16.865  17.043  11.366
58645W        W25186  38.344  34.331   4.541
58646W        W25187  11.296  16.885  13.885
58647W        W25188   4.217  26.606   9.940
58648W        W25189   7.057  35.657  12.290
58649W        W25190   5.628  17.253   4.239
58650W        W25191   7.685  22.634  14.876
58651W        W25192  34.170  26.579   3.657
58652W        W25193  34.871  14.861   4.627
58653W        W25194  11.576  15.672   1.203
58654W        W25195  12.779  27.444   4.837
58655W        W25196  31.420  27.049   2.888
58656W        W25197  37.790  42.634  12.853
58657W        W25198  20.292   8.186  13.537
58658W        W25199  42.950  13.556  13.443
58659W        W25200  15.718  15.885  14.932
58660W        W25201   5.131  21.684  10.749
58661W        W25202  18.745  12.432   2.256
58662W        W25203  12.196   5.302  11.814
58663W        W25204  22.694  16.054  11.973
58664W        W25205  43.956  14.649  12.527
58665W        W25206   2.485   9.811   3.801
58666W        W25207  16.633  36.376  12.041
58667W        W25208  38.977  14.680   1.164
58668W        W25209   2.280  29.044   3.749
58669W        W25210  25.237  28.784  14.476
58670W        W25211  29.988  33.461  10.469
58671W        W25212  38.030  19.061   2.851
58672W        W25213  41.544  14.522  13.030
58673W        W25214   3.991  23.114   5.494
58674W        W25215   0.360  35.721  11.545
58675W        W25216  11.347  17.290   4.186
58676W        W25217  13.586  24.460  14.933
58677W        W25218  28.566   1.470  12.969
58678W        W25219  37.351  12.946   1.959
58679W        W25220  19.153  19.529   2.204
58680W        W25221  14.470  25.745   0.929
58681W        W25222  36.423  19.180   0.987
58682W        W25223  39.357  10.339  10.017
58683W        W25224   4.642  29.424  14.616
58684W        W25225  38.841   7.900  14.967
58685W        W25226  38.478   8.279   0.171
58686W        W25227  11.745   9.253  11.936
58687W        W25228  22.523   0.823   4.586
58688W        W25229  32.133  34.342   0.196
58689W        W25230  14.324   9.279  14.901
58690W        W25231  36.016  11.399   3.114
58691W        W25232  23.525  41.924  12.543
58692W        W25233  18.072  33.461   4.604
58693W        W25234  20.627  10.716  10.482
58694W        W25235  21.505  25.224  13.542
58695W        W25236  27.800  26.237  13.964
58696W        W25237  13.294   0.948  11.474
58697W        W25238  41.505   6.178   0.712
58698W        W25239  15.231   8.946   1.474
58699W        W25240  31.502  44.356  14.415
58700W        W25241  15.584  29.118   1.056
58701W        W25242   7.456   3.955   0.003
58702W        W25243  38.925  33.303  12.445
58703W        W25244  27.349   7.937   4.772
58704W        W25245   3.459  44.624   3.101
58705W        W25246  23.003  18.718   2.705
58706W        W25247  17.147  26.706  13.753
58707W        W25248  31.492   6.957  11.357
58708W        W25249  33.061   7.844   3.783
58709W        W25250  21.510  32.702  10.532
58710W        W25251   3.036  42.925   0.475
58711W        W25252   0.019  20.859  13.781
58712W        W25253  20.326  40.926  14.012
58713W        W25254  28.770   6.797   2.734
58714W        W25255  41.878  34.185  14.828
58715W        W25256  23.467   1.346   2.343
58716W        W25257  16.271  38.799   1.811
58717W        W25258  13.564  34.394  10.903
58718W        W25259  32.094   1.370   4.799
58719W        W25260  33.087  42.317   4.598
58720W        W25261  36.826  11.218  11.043
58721W        W25262   2.975   7.716   0.430
58722W        W25263  39.345  16.314  14.854
58723W        W25264  37.971   4.472  14.897
58724W        W25265  38.951  22.721   5.117
58725W        W25266  12.889  10.169  12.550
58726W        W25267  35.519  38.380  12.832
58727W        W25268   3.944  32.792   2.772
58728W        W25269   3.435   3.732   1.333
58729W        W25270  29.428   9.447   3.652
58730W        W25271  37.018  25.948   0.252
58731W        W25272  37.048  27.579   3.718
58732W        W25273   3.178  40.425   4.600
58733W        W25274  19.806  33.901  11.528
58734W        W25275  33.896   8.108  13.865
58735W        W25276  35.352  36.493   3.855
58736W        W25277  15.148  35.920  14.412
58737W        W25278  10.078  34.925  14.035
58738W        W25279  12.725  37.826  10.713
58739W        W25280   6.197   0.165  10.816
58740W        W25281  40.868  19.300  10.828
58741W        W25282  43.475  19.099  13.502
58742W        W25283  35.667  40.595  13.988
58743W        W25284  40.549  17.851   3.207
58744W        W25285   0.198   4.320  10.794
58745W        W25286   3.828  35.612  13.040
58746W        W25287  29.179  20.605   1.505
58747W        W25288   0.386   2.932   2.872
58748W        W25289  17.471   6.805   3.090
58749W        W25290   3.788  40.408  13.855
58750W        W25291  35.668  33.156  10.519
58751W        W25292   4.138  30.048   2.358
58752W        W25293   3.213  17.207   5.006
58753W        W25294  25.490  33.984  12.608
58754W        W25295  35.535   6.082  10.679
58755W        W25296   5.492  38.545  14.379
58756W        W25297  12.734  26.281  11.980
58757W        W25298  12.819   9.832   3.111
58758W        W25299  34.279  25.723  13.925
58759W        W25300  27.418  44.330  10.703
58760W        W25301  10.014  14.151  11.541
58761W        W25302  29.875  43.771   1.256
58762W        W25303   4.791  30.074  12.340
58763W        W25304  32.110  17.584  14.254
58764W        W25305  41.826  13.549  11.736
58765W        W25306  42.346   5.242   3.210
58766W        W25307  20.919  37.820  13.616
58767W        W25308  19.821  26.827   3.392
58768W        W25309  31.443  12.868  12.510
58769W        W25310  13.801  30.202  12.909
58770W        W25311  25.714   8.331  12.305
58771W        W25312  31.072  18.650  14.530
58772W        W25313  28.433  16.805   1.885
58773W        W25314  35.393  41.739  12.650
58774W        W25315  34.914  39.362   1.908
58775W        W25316  33.248  39.364  10.868
58776W        W25317  32.847  10.231  10.305
58777W        W25318  10.716   5.652   4.272
58778W        W25319  11.701   0.367   3.389
58779W        W25320   4.092  42.333   3.218
58780W        W25321  15.345  37.489   1.242
58781W        W25322  43.792  22.600  14.652
58782W        W25323  44.327   3.006  12.837
58783W        W25324   7.540  43.643   1.936
58784W        W25325  34.514  40.748   4.521
58785W        W25326  40.985  19.324   2.361
58786W        W25327  31.555   0.897  10.750
58787W        W25328  40.588  37.636  14.760
58788W        W25329   0.864  18.827  14.356
58789W        W25330  24.275  24.802   4.157
58790W        W25331  41.434   7.244   3.844
58791W        W25332   7.046  12.168   2.300
58792W        W25333  11.713  11.159  12.469
58793W        W25334  18.316   1.921   4.094
58794W        W25335  42.242  28.469  14.353
58795W        W25336   5.124  43.869  14.030
58796W        W25337  38.460  40.547  10.477
58797W        W25338  22.590  35.028   2.794
58798W        W25339  29.650  15.582   3.896
58799W        W25340  24.894  43.283   2.153
58800W        W25341   6.817   5.598   0.239
58801W        W25342  29.464  31.381  13.834
58802W        W25343  15.224  38.447  10.529
58803W        W25344  42.923  30.089  13.603
58804W        W25345  22.965  23.409  13.096
58805W        W25346  30.239  22.614   2.133
58806W        W25347  41.791  18.284   0.405
58807W        W25348  43.309  38.659  11.919
58808W        W25349  29.682  26.667  13.392
58809W        W25350  31.434  35.009  11.491
58810W        W25351  24.594  11.502   2.784
58811W        W25352  24.704   3.606  14.129
58812W        W25353  10.163  10.834   2.223
58813W        W25354  30.943  30.061   2.687
58814W        W25355  12.393  37.597   3.641
58815W        W25356  28.554   8.448  11.577
58816W        W25357  27.762  26.757  14.768
58817W        W25358  44.325  15.833   3.175
58818W        W25359   7.337  43.378  14.928
58819W        W25360  27.540   5.254   3.836
58820W        W25361  11.573   6.645   1.353
58821W        W25362  30.638  22.754  13.557
58822W        W25363  27.206  33.788  14.783
58823W        W25364  41.426  32.728  12.012
58824W        W25365  27.604  15.045   2.879
58825W        W25366  39.366  29.209   3.586
58826W        W25367  14.379  29.074   1.431
58827W        W25368   6.387  42.854   1.768
58828W        W25369  15.588  40.805  14.927
58829W        W25370  36.582  17.463  11.747
58830W        W25371  36.716  42.331   2.892
58831W        W25372  20.428  18.423   2.777
58832W        W25373   3.695  16.637   0.419
58833W        W25374  40.367  37.074  14.429
58834W        W25375   5.437   4.360  14.358
58835W        W25376  25.558   7.694   2.019
58836W        W25377  20.457   9.499   1.703
58837W        W25378  34.544  34.386  11.111
58838W        W25379  35.136  20.252   1.491
58839W        W25380  22.668  32.017  12.406
58840W        W25381  37.405   9.881   4.820
58841W        W25382   6.754  17.318  13.035
58842W        W25383   8.581  44.949  13.491
58843W        W25384  36.479  35.809   2.235
58844W        W25385  20.119   8.353  12.467
58845W        W25386  43.216  36.984   4.705
58846W        W25387  40.499  26.614   2.153
58847W        W25388  21.094  42.417  11.113
58848W        W25389  20.768   3.270   1.776
58849W        W25390  13.645  43.484   4.375
58850W        W25391  38.385  32.664  12.622
58851W        W25392   0.449   2.031   2.826
58852W        W25393   7.854  32.904   2.220
58853W        W25394  16.733  40.999  11.976
58854W        W25395  36.444  23.745  13.451
58855W        W25396  36.983   5.278  10.686
58856W        W25397  12.365  16.105  13.974
58857W        W25398  28.436  35.828  12.961
58858W        W25399   2.648  16.385  14.975
58859W        W25400  19.633  28.460  14.912
58860W        W25401  42.829  34.566   3.063
58861W        W25402  16.633   4.516   0.312
58862W        W25403  28.040  29.538  12.938
58863W        W25404  12.238  12.753  11.197
58864W        W25405   1.460  13.053   2.353
58865W        W25406   6.243  19.073  14.076
58866W        W25407  23.909   0.727   2.233
58867W        W25408  15.131  19.137  14.450
58868W        W25409  26.589  24.568  14.710
58869W        W25410   7.113  44.523   1.861
58870W        W25411   2.488  26.148   3.590
58871W        W25412  15.373  24.222   2.346
58872W        W25413  13.960  17.061   4.558
58873W        W25414  16.577  30.446  13.017
58874W        W25415  14.684  12.873  13.519
58875W        W25416  11.873  23.522   4.943
58876W        W25417  15.182   2.513  14.370
58877W        W25418  30.469  43.178  13.878
58878W        W25419  20.717  31.437   1.590
58879W        W25420   1.888   4.009   3.020
58880W        W25421  17.834  38.479   1.150
58881W        W25422   4.293  34.840   1.426
58882W        W25423  22.079   9.783   0.596
58883W        W25424  34.643   6.124   4.364
58884W        W25425  33.902  10.013   3.951
58885W        W25426  32.342  44.371  13.071
58886W        W25427  23.605   8.511  12.092
58887W        W25428  25.973  37.357   0.816
58888W        W25429  29.981  20.051   2.781
58889W        W25430   0.232  17.055   0.984
58890W        W25431  23.043  26.690   0.423
58891W        W25432  42.858  41.663  14.417
58892W        W25433  38.004  14.260  14.868
58893W        W25434  23.259   0.146   1.337
58894W        W25435   3.411  18.981   1.101
58895W        W25436  11.683  22.108  14.737
58896W        W25437  14.980  13.701  11.272
58897W        W25438  19.117  23.995  13.497
58898W        W25439  33.208   7.657   0.619
58899W        W25440  10.327   9.104  11.551
58900W        W25441  40.975  32.611   3.383
58901W        W25442  15.871  21.108   2.492
58902W        W25443   8.715  19.509  12.279
58903W        W25444   0.966  38.606   0.829
58904W        W25445   8.354  44.440  12.029
58905W        W25446  27.735  17.177  11.251
58906W        W25447  11.530   8.250  10.724
58907W        W25448  37.544  25.645  13.515
58908W        W25449  42.424  18.640   2.611
58909W        W25450  19.641   4.334  12.983
58910W        W25451  17.137  19.067   4.758
58911W        W25452  29.031  37.584   4.015
58912W        W25453  35.615  34.032  12.904
58913W        W25454  35.559  39.996  11.528
58914W        W25455  23.490  21.550  14.389
58915W        W25456   4.743  21.722  11.789
58916W        W25457  38.653   2.187  13.568
58917W        W25458  43.023  25.507  12.150
58918W        W25459  36.140   4.143   1.016
58919W        W25460   0.287   0.273  14.033
58920W        W25461  34.527  14.905   0.932
58921W        W25462   1.891  41.592   3.771
58922W        W25463   0.820  35.482   1.435
58923W        W25464   0.539  12.622   3.801
58924W        W25465  14.746  44.286   3.767
58925W        W25466   8.222  21.689  14.449
58926W        W25467  16.320  19.618  12.986
58927W        W25468  31.707  25.539   0.515
58928W        W25469   1.739  14.499  13.852
58929W        W25470  43.785   0.953   1.762
58930W        W25471  15.074  22.577   3.632
58931W        W25472   5.277  43.870  12.105
58932W        W25473  17.424  44.364  11.293
58933W        W25474   1.309  17.415  10.609
58934W        W25475  27.665  40.955  13.784
58935W        W25476  27.493   3.016  14.273
58936W        W25477  26.705  26.283  11.249
58937W        W25478  20.201   2.374   3.926
58938W        W25479  22.197   7.201  10.092
58939W        W25480   6.128  44.321   4.142
58940W        W25481   6.323  16.689   1.426
58941W        W25482   0.278   5.786   3.480
58942W        W25483   6.946  29.934  11.978
58943W        W25484  20.646   5.215   3.865
58944W        W25485  17.220  44.429  13.926
58945W        W25486  43.691   2.501  13.378
58946W        W25487   8.586  13.322  13.445
58947W        W25488  21.063   7.141   1.759
58948W        W25489  20.000  30.614  10.639
58949W        W25490  37.601   6.649  10.657
58950W        W25491  27.247  27.916   4.559
58951W        W25492  27.456  16.642  11.224
58952W        W25493  37.624  10.079  14.808
58953W        W25494  23.041  18.975  11.061
58954W        W25495   7.622  29.882   2.717
58955W        W25496  37.346  39.868   1.349
58956W        W25497  39.611   9.412   2.376
58957W        W25498  20.295   0.451   0.917
58958W        W25499  44.340  34.926  14.499
58959W        W25500  14.859  26.414  14.843
58960W        W25501  15.019  25.670   4.096
58961W        W25502  34.837  39.329  13.423
58962W        W25503  22.142  27.683   4.585
58963W        W25504  11.357   7.948   1.804
58964W        W25505   0.799  39.430  10.398
58965W        W25506  13.767  14.033  12.027
58966W        W25507  43.697  34.129   0.738
58967W        W25508   3.919  33.535  14.016
58968W        W25509  36.789   4.918   5.060
58969W        W25510  43.840  44.707  11.105
58970W        W25511  10.460  27.640   2.099
58971W        W25512  30.703   1.984  10.317
58972W        W25513  31.211  44.769  14.500
58973W        W25514  23.438  44.990  12.950
58974W        W25515   5.070  34.146   4.115
58975W        W25516  14.214  16.430  12.595
58976W        W25517   2.289   4.430  12.558
58977W        W25518   1.111  17.122   1.960
58978W        W25519  12.755  38.477   0.725
58979W        W25520  41.602  32.977   0.336
58980W        W25521   8.438  44.452  14.127
58981W        W25522  25.210  15.084   1.207
58982W        W25523  15.278   8.455   1.318
58983W        W25524   3.835  42.453   1.351
58984W        W25525  19.280  14.561   2.423
58985W        W25526  36.029  24.097   1.729
58986W        W25527   3.269   8.850  14.783
58987W        W25528  26.433  14.771  13.284
58988W        W25529   7.587  37.351  11.087
58989W        W25530  23.447  32.394  11.287
58990W        W25531   9.549   5.970  13.971
58991W        W25532  11.792  17.997   3.521
58992W        W25533  17.155   9.584  13.996
58993W        W25534  19.659  29.464   5.180
58994W        W25535   1.153  11.575   5.047
58995W        W25536  11.617  33.428   3.632
58996W        W25537  44.196   7.507  13.480
58997W        W25538   6.743  35.150  11.496
58998W        W25539  30.462  38.460  14.439
58999W        W25540  16.059  42.462   1.766
59000W        W25541  15.826  28.681  11.243
59001W        W25542  43.733  37.650   2.489
59002W        W25543  32.476  28.654  11.097
59003W        W25544  39.046   2.015   0.361
59004W        W25545  34.085  40.425  13.537
59005W        W25546  23.505   2.426   4.569
59006W        W25547  15.360   0.143  14.470
59007W        W25548  21.666  39.092   3.959
59008W        W25549  22.813   2.585  12.132
59009W        W25550  42.936  35.939   3.835
59010W        W25551  44.418  10.595   0.837
59011W        W25552  27.668  17.816   4.095
59012W        W25553  40.088   4.168  13.254
59013W        W25554   6.975  28.820   1.689
59014W        W25555   3.391  29.810  14.080
59015W        W25556  22.670  16.242  14.099
59016W        W25557  13.676  16.190  11.047
59017W        W25558   1.206   0.704  11.699
59018W        W25559  44.496  41.989  11.014
59019W        W25560  40.748   2.490  10.657
59020W        W25561  29.025  26.697  12.607
59021W        W25562  38.785   9.310   0.828
59022W        W25563   3.713   8.715   3.618
59023W        W25564  37.289   6.079  14.679
59024W        W25565  23.375  32.966   2.833
59025W        W25566  13.339  30.046  13.605
59026W        W25567  14.729  40.245  14.993
59027W        W25568   0.415   9.190  12.478
59028W        W25569   3.665  41.379  12.064
59029W        W25570   1.505  33.416   4.193
59030W        W25571  28.948  38.373  13.467
59031W        W25572  34.956  39.885   1.936
59032W        W25573  35.150  26.613  13.944
59033W        W25574   4.660  24.935  13.457
59034W        W25575  29.933  17.205  10.426
59035W        W25576  38.845  35.933  14.736
59036W        W25577  21.192  29.327  11.373
59037W        W25578   3.237  38.882   2.931
59038W        W25579   7.431   7.148   0.281
59039W        W25580  40.981  18.745  13.452
59040W        W25581  17.324   6.459   4.740
59041W        W25582   7.889  34.806   1.300
59042W        W25583   9.317  29.090  14.942
59043W        W25584   9.780  30.572   3.279
59044W        W25585  11.516   8.715  10.091
59045W        W25586  39.083  28.948   9.913
59046W        W25587   3.962  39.211   4.348
59047W        W25588  33.380  21.110  13.844
59048W        W25589  12.094  11.847   3.213
59049W        W25590  29.195  38.552  14.902
59050W        W25591  40.941  26.941  14.089
59051W        W25592  32.332  11.131  14.122
59052W        W25593   4.426  29.078   2.225
59053W        W25594   9.383  19.449  14.675
59054W        W25595  19.285   6.309  14.823
59055W        W25596  20.478   5.823  13.311
59056W        W25597  44.411  19.266  13.045
59057W        W25598  16.069  40.616  14.820
59058W        W25599  27.192   6.718  12.586
59059W        W25600  28.630  21.696   4.186
59060W        W25601  15.334  38.445  12.788
59061W        W25602   6.438   2.385   4.109
59062W        W25603   4.562  19.561   0.857
59063W        W25604  38.412  35.966  13.889
59064W        W25605  13.273  25.691   2.537
59065W        W25606  33.386  33.148  14.699
59066W        W25607  39.494  21.793   0.386
59067W        W25608  15.751  38.998   3.215
59068W        W25609   2.779  36.826  13.600
59069W        W25610   2.862  17.654  11.526
59070W        W25611  21.199  40.008   0.872
59071W        W25612  42.583  33.117  10.934
59072W        W25613  20.664  44.774  12.946
59073W        W25614  27.632  33.524  14.936
59074W        W25615  33.261   2.105   2.128
59075W        W25616  17.008  18.841   3.333
59076W        W25617  44.776  27.649  11.122
59077W        W25618   9.806  33.866   0.450
59078W        W25619  25.713  33.555   4.710
59079W        W25620   4.264   1.785   2.462
59080W        W25621   7.067  15.236   1.103
59081W        W25622  23.961  33.413  13.461
59082W        W25623   3.996  15.376  13.419
59083W        W25624   9.875  38.139   0.450
59084W        W25625  16.318  16.174  13.915
59085W        W25626   8.717  35.637   0.773
59086W        W25627   6.931  21.178   2.265
59087W        W25628  42.377  16.587   4.577
59088W        W25629  44.388   9.918  14.025
59089W        W25630  22.109   3.475   9.820
59090W        W25631  37.066  38.797  10.779
59091W        W25632  42.974  15.759  12.421
59092W        W25633  20.950   1.741   0.361
59093W        W25634  41.680  24.770  11.136
59094W        W25635  26.567  27.628   1.931
59095W        W25636  39.318  42.466  14.336
59096W        W25637  39.865  43.765   4.525
59097W        W25638  42.685  44.254   3.150
59098W        W25639   3.261   4.533   4.204
59099W        W25640  16.281  28.539   4.784
59100W        W25641  37.680  39.764  10.176
59101W        W25642   6.400   4.456  12.906
59102W        W25643  14.253  23.947   1.789
59103W        W25644  20.257   9.680   0.295
59104W        W25645  20.642   6.215  11.470
59105W        W25646  38.995  33.874  11.570
59106W        W25647  28.145  34.160  12.452
59107W        W25648  30.173  42.826  10.974
59108W        W25649  28.133  42.098  12.537
59109W        W25650  41.837  33.520  10.740
59110W        W25651  26.954  13.328   0.438
59111W        W25652  25.536  43.748   4.559
59112W        W25653  16.746   6.000  13.489
59113W        W25654  18.032  34.653  14.371
59114W        W25655  42.035   9.257  10.713
59115W        W25656   9.910  10.457  14.370
59116W        W25657  39.971  21.977   2.245
59117W        W25658   9.767  30.637   2.257
59118W        W25659  20.018  43.461  14.001
59119W        W25660  32.657  16.141  12.894
59120W        W25661  23.431  26.515  11.255
59121W        W25662  24.529  28.518  13.534
59122W        W25663  30.987  24.277   0.273
59123W        W25664  24.721   8.144   2.440
59124W        W25665  26.554  22.400   4.010
59125W        W25666  40.315  42.440   1.790
59126W        W25667   3.544   6.176  14.898
59127W        W25668  27.019  10.782   1.215
59128W        W25669  16.214   3.494   1.367
59129W        W25670  10.671   4.725   1.227
59130W        W25671  36.420  36.381  12.609
59131W        W25672  11.391  28.125  13.486
59132W        W25673   0.791  15.335  13.812
59133W        W25674  31.831  20.619  11.124
59134W        W25675  32.572  44.523   2.006
59135W        W25676  29.084  12.463  12.463
59136W        W25677  42.768  38.526   2.830
59137W        W25678  40.082   1.189   3.622
59138W        W25679  31.880   9.253   3.287
59139W        W25680  38.894  15.754  11.766
59140W        W25681   6.383   4.508   3.179
59141W        W25682  35.160  39.740  11.690
59142W        W25683  27.182  41.849  13.922
59143W        W25684   6.486  39.923  13.037
59144W        W25685  10.629   6.346  11.688
59145W        W25686  19.787  42.317  11.656
59146W        W25687  27.442  17.790  14.916
59147W        W25688  36.041  28.305   2.618
59148W        W25689   8.089   4.734   4.643
59149W        W25690  11.915   3.392  12.932
59150W        W25691   2.755  41.109   2.448
59151W        W25692  20.185   8.373  10.675
59152W        W25693  24.780  13.029   2.742
59153W        W25694  42.376  31.188   0.765
59154W        W25695  35.543  23.185   0.369
59155W        W25696  36.003  38.865   1.265
59156W        W25697  21.674  27.524   3.877
59157W        W25698  33.971  17.548  11.959
59158W        W25699  18.151  43.135  14.118
59159W        W25700   4.801  38.347   1.083
59160W        W25701   0.015   9.816   4.505
59161W        W25702  11.673  42.421   4.035
59162W        W25703   8.743  24.127   4.037
59163W        W25704  18.170  24.553  13.985
59164W        W25705  36.015  25.517   3.179
59165W        W25706  41.073  23.810  13.718
59166W        W25707  28.969  25.638  11.709
59167W        W25708  30.705  30.012   4.259
59168W        W25709   5.854  28.999   1.189
59169W        W25710   0.519   6.750   4.075
59170W        W25711  31.593   9.616  14.506
59171W        W25712  23.440   0.642   1.384
59172W        W25713  37.625  20.838  11.548
59173W        W25714  42.976  30.900  14.876
59174W        W25715  37.782  15.392   2.545
59175W        W25716  24.257  39.460  13.823
59176W        W25717   3.807  16.642   4.062
59177W        W25718  33.583  43.509   2.201
59178W        W25719  13.236  29.128  13.309
59179W        W25720   6.113  19.861   5.084
59180W        W25721  16.539  27.869   4.211
59181W        W25722  40.760   2.535   3.175
59182W        W25723  36.631  24.170   5.058
59183W        W25724  38.666  20.326  14.807
59184W        W25725  24.234  42.410   1.253
59185W        W25726  39.777  13.747  14.874
59186W        W25727   4.280   2.704  11.667
59187W        W25728   9.642  21.001  10.414
59188W        W25729  14.296  23.758   2.364
59189W        W25730   8.956  30.934  13.467
59190W        W25731   4.315  33.555   0.478
59191W        W25732  41.971  21.347   3.547
59192W        W25733  17.544  22.647  13.399
59193W        W25734  27.805  21.087  12.489
59194W        W25735  24.571  38.529   1.443
59195W        W25736  29.509  31.563   0.495
59196W        W25737  16.128  31.204   0.079
59197W        W25738  17.233  21.243  12.150
59198W        W25739  35.669   7.566  11.451
59199W        W25740   0.367  35.314  10.014
59200W        W25741  36.335  35.035   1.849
59201W        W25742  31.790  16.824   0.206
59202W        W25743  28.893  42.874   3.617
59203W        W25744  34.880   5.395  11.867
59204W        W25745  43.932  37.026   3.123
59205W        W25746  24.066   2.494  13.607
59206W        W25747   9.189   2.746  12.071
59207W        W25748   9.885   2.721   2.876
59208W        W25749   4.361  37.844  11.617
59209W        W25750  24.284  26.546  14.375
59210W        W25751   0.533  26.989   4.598
59211W        W25752  13.540  29.931  12.563
59212W        W25753  22.060  40.594  11.187
59213W        W25754  39.517  10.117  11.066
59214W        W25755  34.434   5.045  10.079
59215W        W25756  15.775  16.271  11.153
59216W        W25757   9.048  39.372   3.115
59217W        W25758  42.542  40.076   2.350
59218W        W25759   4.225  17.823   3.263
59219W        W25760  33.198  35.143  12.062
59220W        W25761   6.416  27.582   3.907
59221W        W25762  13.048  22.995   3.389
59222W        W25763  15.147  26.502   1.751
59223W        W25764  44.991   7.713   3.676
59224W        W25765  44.679  25.093  11.203
59225W        W25766  19.045  21.632  10.882
59226W        W25767  16.252   2.030  11.397
59227W        W25768  27.050  23.387  11.820
59228W        W25769   2.217  30.107   2.779
59229W        W25770  10.374   1.220   0.296
59230W        W25771   7.258   6.354   3.989
59231W        W25772  37.946  30.586   2.394
59232W        W25773  26.928  15.768  10.935
59233W        W25774  18.669  36.746   3.300
59234W        W25775  25.338  41.549   1.202
59235W        W25776   0.362  14.383  10.435
59236W        W25777  25.620  25.043   0.695
59237W        W25778  38.058  26.282  12.656
59238W        W25779   4.883  15.805  12.487
59239W        W25780  31.410  28.510  14.703
59240W        W25781  18.755   2.029  12.076
59241W        W25782   2.551  17.665  12.487
59242W        W25783   5.557  34.632  12.008
59243W        W25784  19.073  29.401   1.170
59244W        W25785  15.485  22.147   3.310
59245W        W25786  40.121  40.150  14.219
59246W        W25787  11.245  38.340  10.114
59247W        W25788  32.551  23.558   1.785
59248W        W25789  18.649  25.733  13.336
59249W        W25790  41.067  34.068  13.074
59250W        W25791  21.677   7.712   3.686
59251W        W25792   6.945   7.160  12.432
59252W        W25793  42.925  20.874  12.600
59253W        W25794  29.464  15.997  11.697
59254W        W25795  25.819  41.565  13.080
59255W        W25796  25.030  21.671  14.837
59256W        W25797   9.136  21.073   0.990
59257W        W25798  40.742   9.392  10.606
59258W        W25799  33.683   6.796   2.889
59259W        W25800  28.109  21.350  14.394
59260W        W25801  44.720  13.126   2.743
59261W        W25802  29.960   5.850   4.939
59262W        W25803  22.172  37.255   2.741
59263W        W25804   4.234   2.067  14.809
59264W        W25805  16.583   6.489  12.680
59265W        W25806  13.800  10.299  13.438
59266W        W25807  17.831  16.109  13.525
59267W        W25808   4.643   4.649   0.292
59268W        W25809  10.401  28.545  10.705
59269W        W25810  20.684  20.054  10.670
59270W        W25811  14.384  43.456   0.842
59271W        W25812  41.544  35.431   2.208
59272W        W25813  11.276  42.286   1.799
59273W        W25814   6.416   6.747  14.037
59274W        W25815  33.616   0.806  11.432
59275W        W25816   2.848  32.342   2.136
59276W        W25817  22.326  39.288  13.869
59277W        W25818  34.352   1.866  12.599
59278W        W25819  10.081  43.740  11.869
59279W        W25820   6.773  41.267   1.914
59280W        W25821  19.477  41.414  13.188
59281W        W25822  40.808   5.242   0.448
59282W        W25823  40.648  26.414   4.675
59283W        W25824   7.960  29.269  11.680
59284W        W25825  20.826  18.144  13.339
59285W        W25826  44.445  33.485  12.388
59286W        W25827  17.166  22.920  14.687
59287W        W25828  34.075   1.561  14.852
59288W        W25829   9.256  43.261   3.831
59289W        W25830  27.970  13.693  10.117
59290W        W25831  40.762  27.123  14.936
59291W        W25832  20.330  43.416   4.554
59292W        W25833  24.499  28.233  10.711
59293W        W25834   1.313  16.094   1.686
59294W        W25835   2.723  40.873  11.642
59295W        W25836  43.719   5.285  13.012
59296W        W25837  19.176  24.591  13.903
59297W        W25838  39.060  38.403  11.969
59298W        W25839   7.539   1.063  13.788
59299W        W25840  29.840  28.828   0.946
59300W        W25841  38.985   1.021   3.771
59301W        W25842  25.146   3.831  11.301
59302W        W25843   5.773  42.385   4.628
59303W        W25844   1.889  40.218  12.342
59304W        W25845  33.366  41.374  11.623
59305W        W25846   0.292  10.945  14.931
59306W        W25847  18.165   6.148  14.190
59307W        W25848   2.349  34.620  14.619
59308W        W25849   3.324  35.501  11.518
59309W        W25850  33.885  26.619   2.641
59310W        W25851  14.122  42.012  13.668
59311W        W25852  29.375   7.767  11.644
59312W        W25853  33.955  28.698   0.463
59313W        W25854  26.680   1.804   2.241
59314W        W25855  12.752  33.859   3.152
59315W        W25856  32.112   8.524   1.481
59316W        W25857  39.894  25.028   0.022
59317W        W25858  17.700  16.670  14.263
59318W        W25859  32.426  24.782   3.625
59319W        W25860  38.512  26.229   3.251
59320W        W25861  42.355  38.467   4.621
59321W        W25862  11.076  19.617  14.015
59322W        W25863  24.922   2.784  12.659
59323W        W25864  22.677  28.150  11.111
59324W        W25865   5.157  28.083  11.774
59325W        W25866  44.780  27.078  14.892
59326W        W25867  27.405  23.895   3.198
59327W        W25868   9.092  40.440  13.906
59328W        W25869  16.567  13.045  14.304
59329W        W25870  19.240  43.918   0.851
59330W        W25871  16.789  14.025  14.239
59331W        W25872   4.397  25.682   2.874
59332W        W25873  23.575  33.273  11.472
59333W        W25874  13.924  25.684   0.955
59334W        W25875  39.987  29.078   2.676
59335W        W25876  37.261  26.828  14.589
59336W        W25877  25.547  31.891   1.465
59337W        W25878  41.071   7.235   0.180
59338W        W25879  16.840  32.685   2.955
59339W        W25880  43.714  42.769  11.139
59340W        W25881  40.894  16.323   1.716
59341W        W25882  27.174  17.058  12.520
59342W        W25883   1.902  19.251  12.651
59343W        W25884  32.821   8.578   0.751
59344W        W25885  38.791  29.020   4.676
59345W        W25886  10.868  23.112   2.120
59346W        W25887  35.509   9.946   1.224
59347W        W25888  39.541   6.900  10.642
59348W        W25889  17.038  42.777   2.414
59349W        W25890  26.333   3.118   1.184
59350W        W25891   0.883   1.994  13.536
59351W        W25892  41.962  28.467   4.388
59352W        W25893  42.217   5.921   3.784
59353W        W25894  42.515   2.835   3.611
59354W        W25895  44.834   7.252  11.848
59355W        W25896  37.668  28.450  12.384
59356W        W25897  32.992   8.485   4.626
59357W        W25898  14.694  40.514   0.420
59358W        W25899   7.281   0.913   3.248
59359W        W25900   8.111  28.490   0.939
59360W        W25901   1.431  23.207  10.499
59361W        W25902  32.681  11.312   4.650
59362W        W25903  34.176  17.741   1.249
59363W        W25904   2.653  24.225  11.871
59364W        W25905  11.991  11.982  14.508
59365W        W25906  42.415   3.829   1.925
59366W        W25907  22.927  35.445  13.063
59367W        W25908  12.646   5.425  13.108
59368W        W25909   2.812  40.394  11.883
59369W        W25910  40.332  10.604  12.205
59370W        W25911  39.593   2.390   2.427
59371W        W25912   9.250  27.929   3.957
59372W        W25913  38.722  12.241  14.059
59373W        W25914  21.159  33.632  12.972
59374W        W25915   8.164  21.125  11.397
59375W        W25916   1.781  11.991   0.310
59376W        W25917  20.116  43.381   4.076
59377W        W25918   5.225  34.879   1.514
59378W        W25919  10.722  18.642   1.384
59379W        W25920  18.053  25.990   0.406
59380W        W25921  38.511  32.536   3.689
59381W        W25922  43.468  41.243  13.463
59382W        W25923  23.284  44.449   0.824
59383W        W25924   9.624  25.089   2.791
59384W        W25925  20.046  35.862   2.626
59385W        W25926  12.148  30.015  13.987
59386W        W25927   2.260  30.631   2.730
59387W        W25928  22.212  13.214  10.730
59388W        W25929  37.319   0.354  12.840
59389W        W25930  38.544  34.606   4.136
59390W        W25931  15.625  37.313  13.483
59391W        W25932  35.088  39.795   2.851
59392W        W25933  37.953   0.507  10.211
59393W        W25934  38.166  25.586  13.456
59394W        W25935  33.940  27.581  12.071
59395W        W25936  40.487  32.462   3.471
59396W        W25937  26.509  32.456   4.337
59397W        W25938  20.084  15.927   5.157
59398W        W25939  10.205  32.163  13.978
59399W        W25940   3.645   1.142  10.607
59400W        W25941  27.488  16.616   1.864
59401W        W25942  33.184  36.422  11.151
59402W        W25943  11.751  32.360   2.055
59403W        W25944  33.017  20.940   2.380
59404W        W25945  39.379  16.232  10.530
59405W        W25946  16.990  15.688  12.029
59406W        W25947  36.399  33.721   3.018
59407W        W25948  15.662  17.044  12.913
59408W        W25949  12.612  35.862  10.717
59409W        W25950  34.630   5.349  11.010
59410W        W25951  43.275  21.953  14.862
59411W        W25952  43.232  29.038  10.336
59412W        W25953  28.348   4.267   2.399
59413W        W25954  31.971  39.605   1.822
59414W        W25955   3.731  28.095  11.909
59415W        W25956  20.791  25.999  14.897
59416W        W25957  41.960   3.788  11.926
59417W        W25958  32.945  19.735   2.892
59418W        W25959  10.835  42.004  14.840
59419W        W25960  14.630   7.858   1.657
59420W        W25961  27.029  12.227  14.489
59421W        W25962  29.471  11.215  13.918
59422W        W25963  21.024  16.804   3.292
59423W        W25964   1.349   1.472  12.579
59424W        W25965  38.161  24.919   3.413
59425W        W25966  17.658  24.650   2.231
59426W        W25967  28.685  28.579  13.581
59427W        W25968  22.810  39.952  12.020
59428W        W25969   2.247   3.953  10.961
59429W        W25970  42.849  27.940  14.832
59430W        W25971   1.447  14.986   2.086
59431W        W25972  29.189  41.375  12.849
59432W        W25973   8.287  16.166   4.943
59433W        W25974  14.921  12.769   1.897
59434W        W25975  34.964  38.939  10.594
59435W        W25976  35.538  11.299  13.345
59436W        W25977   7.296  24.584  12.894
59437W        W25978  35.662   2.441   1.881
59438W        W25979  36.858  25.037   3.155
59439W        W25980  18.242  30.875  13.745
59440W        W25981  38.940   4.132  10.723
59441W        W25982  39.474  13.617   2.637
59442W        W25983   2.161  19.851   4.540
59443W        W25984  34.843  22.115   4.980
59444W        W25985  34.248  13.769  11.556
59445W        W25986  36.638  22.693   1.312
59446W        W25987   3.274  39.204  14.364
59447W        W25988  43.803  44.655   0.260
59448W        W25989  30.294  27.272   2.828
59449W        W25990   5.215  15.016   3.152
59450W        W25991   3.207  36.110   4.688
59451W        W25992  13.375  38.781  14.909
59452W        W25993  17.745   0.760  14.877
59453W        W25994  36.869   0.401  13.101
59454W        W25995  37.534  14.221   1.116
59455W        W25996  27.536  18.995   0.403
59456W        W25997  20.215  12.699   2.262
59457W        W25998  13.038  31.417  14.275
59458W        W25999   1.218  44.125  14.761
59459W        W26000  34.045  42.393   0.785
59460W        W26001  15.775   3.337   4.868
59461W        W26002  16.802  22.518   2.887
59462W        W26003  37.127  10.207  11.754
59463W        W26004  22.965  32.595  13.565
59464W        W26005  39.055   6.311   0.389
59465W        W26006  29.876   6.262  14.522
59466W        W26007  37.891  36.338   1.739
59467W        W26008  17.400  36.831  10.677
59468W        W26009  23.492  26.459  11.759
59469W        W26010  21.147  41.055   5.236
59470W        W26011  34.969   1.102  11.236
59471W        W26012  10.376  37.566  14.602
59472W        W26013  20.528  30.006   2.138
59473W        W26014  28.191  34.709  13.160
59474W        W26015  30.110   5.292  12.127
59475W        W26016   1.443  21.424   2.709
59476W        W26017   6.210  39.090  14.390
59477W        W26018  30.999   7.715   2.931
59478W        W26019  39.962  14.702   0.374
59479W        W26020  34.622   5.312   1.753
59480W        W26021   8.590  41.591  13.622
59481W        W26022  43.021  27.417   1.847
59482W        W26023  18.852  39.026   1.760
59483W        W26024  42.469   6.230   2.425
59484W        W26025  18.447  25.196  12.779
59485W        W26026  18.198  41.907   4.493
59486W        W26027   0.821  16.278  12.375
59487W        W26028  39.763   2.385   1.925
59488W        W26029  41.357  27.768  13.297
59489W        W26030   8.835   9.963   1.326
59490W        W26031  10.666  13.601   2.699
59491W        W26032  28.655  23.025  14.988
59492W        W26033  38.320  27.752   4.154
59493W        W26034  25.526   4.945  10.992
59494W        W26035  23.624  13.776  12.454
59495W        W26036  11.743  18.485  11.512
59496W        W26037  39.948  21.139   2.952
59497W        W26038  29.452  14.823   0.025
59498W        W26039  27.177  36.081  11.193
59499W        W26040  30.956  12.789  11.130
59500W        W26041  32.035  20.198   1.149
59501W        W26042  19.283  34.524   2.840
59502W        W26043   1.468  44.312  11.169
59503W        W26044  34.298  37.546  13.322
59504W        W26045  43.460   8.676   3.569
59505W        W26046  10.911  37.607  14.601
59506W        W26047   2.516  22.644   2.773
59507W        W26048  35.131  35.513   1.478
59508W        W26049  12.032  38.883   1.980
59509W        W26050  42.004  28.651   2.736
59510W        W26051  36.558   7.849   3.214
59511W        W26052  15.561  37.014   4.746
59512W        W26053  30.125   7.163   2.716
59513W        W26054  17.603  42.909   0.284
59514W        W26055  23.804  32.416   3.523
59515W        W26056  37.952   7.144  12.513
59516W        W26057   9.850  23.053   1.299
59517W        W26058  10.584  14.806   1.510
59518W        W26059   2.433  32.500  13.553
59519W        W26060  19.251  17.939   2.339
59520W        W26061  28.011   3.926   1.929
59521W        W26062  20.222  18.098  11.185
59522W        W26063  36.682  24.911   2.648
59523W        W26064  30.770  13.164  10.729
59524W        W26065  30.340  16.526   1.902
59525W        W26066  18.513  27.594  14.790
59526W        W26067  39.859  39.292   3.583
59527W        W26068   5.259  39.343   2.681
59528W        W26069  37.058  22.726   3.763
59529W        W26070  15.659  10.493  12.441
59530W        W26071  42.893   9.811  11.562
59531W        W26072  34.953  13.329  11.992
59532W        W26073  28.180   5.083  11.643
59533W        W26074  39.575  38.029   3.242
59534W        W26075  25.143  19.089   4.189
59535W        W26076  28.554  25.440   1.016
59536W        W26077  40.521  22.641   0.843
59537W        W26078   2.490   7.573  14.920
59538W        W26079  39.993   2.275  11.681
59539W        W26080  19.600   0.038   2.685
59540W        W26081   2.407  27.177   4.351
59541W        W26082  32.191  35.124   2.161
59542W        W26083  41.108   9.322   1.811
59543W        W26084  32.785  31.033  14.463
59544W        W26085  22.078  41.805  11.492
59545W        W26086   6.657  17.642  11.411
59546W        W26087  39.458  42.833   0.619
59547W        W26088  40.459  26.606   3.304
59548W        W26089  44.742  19.154   1.839
59549W        W26090  21.375  41.348   2.977
59550W        W26091  34.929  30.974   1.945
59551W        W26092   4.316  23.124  14.447
59552W        W26093   3.724  11.866   1.653
59553W        W26094  36.797  38.602   1.168
59554W        W26095  11.275  21.420  14.533
59555W        W26096   3.744  12.913   3.902
59556W        W26097  23.358  19.169  13.042
59557W        W26098  22.135   6.668  11.448
59558W        W26099  26.150   9.790  12.895
59559W        W26100  25.578   0.472   2.894
59560W        W26101  27.613  17.154  13.367
59561W        W26102  29.068  11.525  13.381
59562W        W26103  41.763   4.294  13.960
59563W        W26104  40.941  20.275  13.366
59564W        W26105  24.816  22.765   2.291
59565W        W26106   5.595  24.533  12.318
59566W        W26107   8.082  26.126  13.579
59567W        W26108  28.230  36.080   3.730
59568W        W26109  20.935  41.419  13.030
59569W        W26110  18.879  31.473   4.719
59570W        W26111  18.758  39.356  13.492
59571W        W26112   9.734  23.971   0.975
59572W        W26113  36.367  34.499  11.324
59573W        W26114  31.163  14.861  10.574
59574W        W26115  26.770  19.016  12.433
59575W        W26116  25.344  35.174   5.156
59576W        W26117  16.527  13.666   0.716
59577W        W26118  18.189   9.685   2.596
59578W        W26119  42.400  36.486   2.639
59579W        W26120  16.198  37.464   2.320
59580W        W26121   4.137   1.838   4.368
59581W        W26122  34.286  39.043   4.374
59582W        W26123  22.146  32.441   3.386
59583W        W26124  43.279  26.694  12.326
59584W        W26125   5.740  38.836   4.232
59585W        W26126  25.597   3.831   3.205
59586W        W26127  37.051  30.596  14.683
59587W        W26128  24.109  23.919   4.679
59588W        W26129  15.925  43.400   3.745
59589W        W26130  28.741  40.604  13.103
59590W        W26131   9.665  20.844  13.986
59591W        W26132  29.058  13.445   2.211
59592W        W26133   1.526  12.300   3.212
59593W        W26134  13.574  39.372  10.648
59594W        W26135   6.142  26.507   4.095
59595W        W26136  24.002  14.402  11.329
59596W        W26137  15.339  10.130   2.927
59597W        W26138  20.556  37.477   0.781
59598W        W26139  41.342  41.703  14.525
59599W        W26140  39.285  18.848   0.090
59600W        W26141  17.293   8.952   0.754
59601W        W26142  10.456  19.046  14.860
59602W        W26143  24.993  10.466   3.179
59603W        W26144  41.169  21.596  13.195
59604W        W26145  35.692   1.709   5.323
59605W        W26146  37.670  21.091  12.003
59606W        W26147  33.857  40.943   1.987
59607W        W26148   2.867  23.196   2.327
59608W        W26149  10.289  36.568   1.827
59609W        W26150  18.523  35.464  12.365
59610W        W26151  31.997  30.598  11.696
59611W        W26152   8.788   5.703  12.157
59612W        W26153  13.829  19.132  14.331
59613W        W26154  30.610  11.599   1.916
59614W        W26155  40.366  34.979   2.394
59615W        W26156  13.105  43.759  13.500
59616W        W26157  30.383  30.251   1.968
59617W        W26158  32.516  19.699   3.198
59618W        W26159  30.984  19.430  11.022
59619W        W26160  24.582  15.556  12.461
59620W        W26161  27.050  30.368   3.194
59621W        W26162  33.036  18.506  13.392
59622W        W26163   9.676   5.400   3.134
59623W        W26164  22.375  34.698  11.036
59624W        W26165  18.043  23.530  13.955
59625W        W26166  37.726  14.695  14.888
59626W        W26167   2.041  30.375   2.342
59627W        W26168  20.474  37.100  11.184
59628W        W26169  31.949  43.069   3.648
59629W        W26170  15.827  26.166   2.300
59630W        W26171  42.286   1.828  14.272
59631W        W26172  34.554  13.356  11.608
59632W        W26173  27.613   2.226   0.445
59633W        W26174  32.866   5.747  10.090
59634W        W26175   8.380  14.176  13.998
59635W        W26176  16.147  37.453  10.382
59636W        W26177  37.566   8.400   2.711
59637W        W26178  15.172  36.049   1.299
59638W        W26179  12.227   5.235  10.803
59639W        W26180  44.472   4.695  12.195
59640W        W26181  12.910  39.470   0.224
59641W        W26182   4.022  37.890   2.377
59642W        W26183  18.602   0.991   4.188
59643W        W26184   2.172  13.653   0.913
59644W        W26185  38.727  12.997  11.089
59645W        W26186   6.664  43.922   4.353
59646W        W26187  42.619  25.989  13.137
59647W        W26188  31.926  15.310   2.408
59648W        W26189  44.053  25.907   2.564
59649W        W26190   3.504  32.612  10.193
59650W        W26191  43.980  22.435   1.642
59651W        W26192  36.179   4.422   0.325
59652W        W26193   2.635  27.043  13.259
59653W        W26194  41.762  41.553   1.810
59654W        W26195  43.450  37.769  13.093
59655W        W26196  15.227  39.553   3.861
59656W        W26197  23.720  26.969   3.167
59657W        W26198   9.639   3.176  14.506
59658W        W26199  26.117  10.112   3.731
59659W        W26200  14.242  24.582   2.920
59660W        W26201  19.545  30.911  12.987
59661W        W26202  37.829  29.533  12.832
59662W        W26203  29.225  43.074  11.837
59663W        W26204   5.681  10.213  12.305
59664W        W26205   4.435  24.771   0.665
59665W        W26206  33.508   6.801  13.912
59666W        W26207  34.883  33.591  12.742
59667W        W26208  38.324  40.293  13.866
59668W        W26209  21.212   8.797  14.221
59669W        W26210   9.180  32.204  14.740
59670W        W26211  24.915  36.781   1.687
59671W        W26212  38.739  42.786  13.955
59672W        W26213  44.873  16.021   2.332
59673W        W26214  23.548  28.348   3.391
59674W        W26215  12.339  30.396  12.400
59675W        W26216  20.801   3.701  14.248
59676W        W26217  42.285  39.627   1.415
59677W        W26218   4.845  29.282  10.457
59678W        W26219  37.426   7.157  14.835
59679W        W26220  19.156  21.689   0.739
59680W        W26221  16.103   7.200   4.519
59681W        W26222  13.210  27.930   2.989
59682W        W26223  28.644   0.803  13.508
59683W        W26224  13.532   0.923   1.120
59684W        W26225  34.406  39.843  12.618
59685W        W26226  26.545  29.497   4.306
59686W        W26227  13.190  14.434   2.676
59687W        W26228   6.179  13.893   0.152
59688W        W26229  38.354  31.963   3.219
59689W        W26230   1.918  33.359   2.196
59690W        W26231  17.749   5.856   0.845
59691W        W26232  42.955  28.818   1.357
59692W        W26233   0.723  37.117  14.819
59693W        W26234  36.841   4.395  12.614
59694W        W26235  41.933   7.925  13.439
59695W        W26236   9.222   2.356   3.662
59696W        W26237  35.026  29.975  14.686
59697W        W26238  25.045  14.659   0.921
59698W        W26239  34.774  43.482   3.260
59699W        W26240  25.596  18.192  11.626
59700W        W26241   0.773   2.887  11.649
59701W        W26242  12.341  23.580   3.286
59702W        W26243  32.237  31.714   0.857
59703W        W26244  26.572  18.592   4.372
59704W        W26245  28.463  24.033   1.231
59705W        W26246   0.896   5.762  13.953
59706W        W26247   4.419  10.893  14.283
59707W        W26248  14.932  11.246   4.160
59708W        W26249   7.790  21.433   2.374
59709W        W26250  11.878  27.526   4.872
59710W        W26251  37.557  24.782  13.428
59711W        W26252  38.822   5.392   0.397
59712W        W26253  13.342  18.361   2.630
59713W        W26254  11.102  36.138  10.591
59714W        W26255  35.331  21.649   3.899
59715W        W26256  26.703  22.409   3.165
59716W        W26257  26.010  42.680   2.896
59717W        W26258  11.968  32.653   1.025
59718W        W26259  15.180  32.815   0.719
59719W        W26260  36.432  18.936  14.642
59720W        W26261  44.470   4.017  13.554
59721W        W26262  22.563   0.557   0.303
59722W        W26263  10.656   4.432   2.682
59723W        W26264   6.709  14.868   2.430
59724W        W26265  38.749   2.181  14.368
59725W        W26266  44.056   2.385   2.641
59726W        W26267   4.519  44.699   1.392
59727W        W26268  20.740  14.321  11.303
59728W        W26269  12.165  41.887  11.645
59729W        W26270  33.120  28.006  14.410
59730W        W26271  19.784  44.267   4.537
59731W        W26272  36.300  14.281   0.696
59732W        W26273  13.725  19.729   4.791
59733W        W26274   9.631  15.118  12.824
59734W        W26275  25.646  36.056   0.885
59735W        W26276  29.663  27.043  14.746
59736W        W26277  19.469   1.949  14.450
59737W        W26278   1.555  38.559  14.942
59738W        W26279   0.372   3.388   3.130
59739W        W26280  21.620  34.475  13.108
59740W        W26281  12.844   4.728   3.173
59741W        W26282  22.727  15.832  12.494
59742W        W26283  23.725  38.071   3.388
59743W        W26284  20.748   3.625  12.057
59744W        W26285  41.766   0.696   3.330
59745W        W26286   1.283  11.368   2.814
59746W        W26287  40.023  14.314   2.170
59747W        W26288  38.475  38.020   2.870
59748W        W26289   4.463  16.231   0.394
59749W        W26290  19.660  22.747  13.854
59750W        W26291  40.087  42.835   1.501
59751W        W26292   7.814  11.815  11.785
59752W        W26293  15.362  32.627   2.354
59753W        W26294   0.517  41.330  12.438
59754W        W26295  14.388  37.500   2.803
59755W        W26296  42.731  27.179  12.338
59756W        W26297  33.459  35.359   0.764
59757W        W26298   4.565  32.669  14.840
59758W        W26299  25.584  33.201  14.433
59759W        W26300   2.307  30.860   1.796
59760W        W26301   8.889  24.889   3.303
59761W        W26302  10.298  26.536   2.769
59762W        W26303   7.670  36.751   0.868
59763W        W26304  40.119  32.367   1.871
59764W        W26305  44.868  42.679   4.344
59765W        W26306  24.958  14.827   0.000
59766W        W26307  26.636  32.453   0.751
59767W        W26308  20.099  44.443  14.726
59768W        W26309  29.139  26.485  11.077
59769W        W26310   9.103   4.898  13.755
59770W        W26311  24.094  35.887   3.779
59771W        W26312  10.881  42.903  13.111
59772W        W26313  16.242   0.923  13.099
59773W        W26314   7.357  25.058  10.534
59774W        W26315  18.101  29.236  11.686
59775W        W26316   3.835  29.867  11.513
59776W        W26317  39.833   4.962   1.512
59777W        W26318  31.868  23.450   3.498
59778W        W26319  37.791   4.487   1.738
59779W        W26320  25.438  31.979   0.463
59780W        W26321  14.154   5.472  14.525
59781W        W26322  11.847   0.938   0.034
59782W        W26323  41.900  34.237   0.831
59783W        W26324  32.472  44.560  12.123
59784W        W26325  19.678  32.748   3.336
59785W        W26326  42.812  42.952   0.008
59786W        W26327  33.233  29.799  11.217
59787W        W26328  33.421  33.219  13.684
59788W        W26329  36.116  24.116  11.607
59789W        W26330  39.486   5.535   3.246
59790W        W26331  32.907  10.591   2.840
59791W        W26332  25.967  44.988   1.213
59792W        W26333  31.592  16.100   0.715
59793W        W26334  19.708  18.120   4.081
59794W        W26335   3.782   9.619  14.960
59795W        W26336  43.825  30.714   1.319
59796W        W26337   3.006  37.327   2.272
59797W        W26338  10.143  30.567  12.465
59798W        W26339  33.846  44.072  14.724
59799W        W26340  40.799   3.006   2.654
59800W        W26341   8.735   3.984  11.300
59801W        W26342  29.015   4.727   0.927
59802W        W26343  35.618  23.165   3.147
59803W        W26344  34.042  29.667   4.189
59804W        W26345  29.421  42.297   1.196
59805W        W26346  28.094  10.352  10.180
59806W        W26347  34.489   1.306   3.719
59807W        W26348  40.395  19.423   0.347
59808W        W26349   6.902  19.283   4.604
59809W        W26350   2.029   3.356   0.326
59810W        W26351  44.730  35.077   1.865
59811W        W26352  23.685  38.870   1.313
59812W        W26353   8.856  10.169   4.703
59813W        W26354  17.836  11.200   1.318
59814W        W26355   5.260   5.632   4.065
59815W        W26356  14.313   1.056  11.509
59816W        W26357   7.215  17.289  10.770
59817W        W26358  20.030  30.723  14.123
59818W        W26359  37.289  26.109   2.931
59819W        W26360   8.210  39.783  13.135
59820W        W26361  43.998  20.348  13.910
59821W        W26362  39.359  24.604   1.730
59822W        W26363  33.027  28.351   1.720
59823W        W26364  38.301  37.278   3.584
59824W        W26365  14.825  32.411  12.490
59825W        W26366  37.150  10.296   1.320
59826W        W26367  20.321  13.844  12.101
59827W        W26368  23.912  16.887  11.106
59828W        W26369  33.193  19.301   2.940
59829W        W26370  23.301  22.369   4.405
59830W        W26371  40.016  14.642  14.067
59831W        W26372  33.078  15.277  12.829
59832W        W26373  13.915  31.758  13.033
59833W        W26374   5.623  24.126   4.433
59834W        W26375   0.325  24.763   1.260
59835W        W26376  21.728  35.172   0.437
59836W        W26377  22.181  44.729  13.475
59837W        W26378  40.370  19.462  10.782
59838W        W26379  14.168  13.033  13.451
59839W        W26380  39.313  12.269   3.763
59840W        W26381  25.970  18.202   1.864
59841W        W26382  18.782  14.667  12.987
59842W        W26383  19.196  36.103  11.992
59843W        W26384  16.367  22.782  11.913
59844W        W26385   2.838  25.051   0.591
59845W        W26386   6.285  31.654  12.933
59846W        W26387  11.818   2.291  11.531
59847W        W26388   0.946  16.579  14.819
59848W        W26389  11.789  12.341   4.213
59849W        W26390  19.783  42.458   4.407
59850W        W26391  25.257  25.212  12.944
59851W        W26392  32.129  16.696   2.830
59852W        W26393  36.415  42.228   4.161
59853W        W26394  33.677  34.666   2.440
59854W        W26395  25.369  21.177   2.349
59855W        W26396  22.199   0.804   3.626
59856W        W26397  36.890  31.455  13.417
59857W        W26398  29.057  28.985  14.729
59858W        W26399  11.813  23.715  13.979
59859W        W26400  32.438  37.997  10.892
59860W        W26401  13.843  14.819   0.743
59861W        W26402  15.577  36.489   3.753
59862W        W26403  14.550  14.070   0.177
59863W        W26404  31.538  38.843   0.758
59864W        W26405  36.051  40.569  14.353
59865W        W26406  10.172   1.889   0.667
59866W        W26407   1.938  36.298   4.270
59867W        W26408  41.791  12.093  13.902
59868W        W26409   0.460  17.061   0.491
59869W        W26410  20.727  29.628   4.610
59870W        W26411  27.274  16.370  14.487
59871W        W26412  43.429   1.223   1.289
59872W        W26413  33.668  36.821  14.273
59873W        W26414  10.620  22.115  10.527
59874W        W26415  17.966  24.704   4.429
59875W        W26416  33.530  10.190  12.211
59876W        W26417   4.379  10.812   0.292
59877W        W26418  15.524  13.563  11.191
59878W        W26419  38.065   7.132  14.291
59879W        W26420  13.703  21.614   3.273
59880W        W26421  19.208   7.344   0.068
59881W        W26422  13.624   5.226   3.100
59882W        W26423   5.211  20.347  10.909
59883W        W26424  30.340  13.762   2.623
59884W        W26425  42.994  24.738  13.153
59885W        W26426  17.226  32.184   1.273
59886W        W26427  25.899   4.785  14.104
59887W        W26428   5.471  29.606  14.928
59888W        W26429  23.746  44.787   2.475
59889W        W26430  42.858  41.302  10.590
59890W        W26431  17.018  19.614   3.632
59891W        W26432  24.882  43.092   3.600
59892W        W26433   7.436  42.251  11.130
59893W        W26434  11.336  32.466  13.443
59894W        W26435  43.999  29.707   3.892
59895W        W26436  13.299  17.617   1.448
59896W        W26437  26.619   8.725   3.024
59897W        W26438  24.696  41.790  11.164
59898W        W26439   7.195  28.580   4.536
59899W        W26440  13.046  10.881   0.435
59900W        W26441  18.636   3.418   3.079
59901W        W26442  43.037   6.720  13.234
59902W        W26443  36.099   5.447   3.289
59903W        W26444   5.221  40.112   0.395
59904W        W26445  10.133   0.313   4.944
59905W        W26446  35.578  43.483  14.254
59906W        W26447  27.199  36.520  10.773
59907W        W26448   4.099  41.491   2.408
59908W        W26449  44.926  39.252   2.904
59909W        W26450  25.204  43.326   3.283
59910W        W26451  33.652  44.148   4.227
59911W        W26452  31.586  41.171   2.892
59912W        W26453   8.775  35.430   4.108
59913W        W26454  32.656  37.114  12.438
59914W        W26455   7.480  29.506  12.971
59915W        W26456  41.693  11.267  12.469
59916W        W26457  18.702  17.611   0.468
59917W        W26458   1.395  31.088   3.399
59918W        W26459   8.051  10.768   1.798
59919W        W26460  44.821   7.361  13.963
59920W        W26461   3.942   4.636   2.151
59921W        W26462  32.677   6.777  11.487
59922W        W26463  39.686  20.908   5.089
59923W        W26464  25.605  31.636  10.692
59924W        W26465   5.963  20.561   2.646
59925W        W26466  27.648  21.544  10.722
59926W        W26467  14.653  41.887  11.582
59927W        W26468   2.272  28.643   4.737
59928W        W26469  35.049   8.283   0.807
59929W        W26470  23.230   2.568  12.449
59930W        W26471  32.474  31.449   2.668
59931W        W26472  18.387  22.312  11.079
59932W        W26473  18.459  28.550  10.664
59933W        W26474  23.496  33.819  14.951
59934W        W26475  20.062  34.499  14.223
59935W        W26476   4.660  23.506   3.157
59936W        W26477  43.036  22.134  14.425
59937W        W26478   6.388  13.481   3.166
59938W        W26479   6.294   9.174  11.896
59939W        W26480   9.708  19.618   4.663
59940W        W26481   3.267  25.970  14.010
59941W        W26482  41.887  12.369   1.797
59942W        W26483  38.371   2.232  14.004
59943W        W26484  15.599  31.726  13.404
59944W        W26485   1.315  23.995   0.726
59945W        W26486  41.124  23.681   2.213
59946W        W26487  16.901   6.370   0.499
59947W        W26488   2.220  24.307  10.607
59948W        W26489  13.276   5.427   4.175
59949W        W26490  27.839  39.740  11.539
59950W        W26491  37.219  35.806   1.434
59951W        W26492   4.410  18.034  14.469
59952W        W26493  26.679  25.468   0.956
59953W        W26494   2.733  33.882   1.478
59954W        W26495  29.075  10.184   0.930
59955W        W26496  12.675  20.254  11.984
59956W        W26497  13.584   8.781   4.741
59957W        W26498   6.864  10.995  11.982
59958W        W26499  42.263  19.152   0.683
59959W        W26500   1.881  13.742   1.904
59960W        W26501  40.289  40.324  11.659
59961W        W26502   8.985   6.967  10.963
59962W        W26503  41.439  41.307   0.855
59963W        W26504   2.323   4.522   1.902
59964W        W26505  31.661  24.626   2.710
59965W        W26506  17.187   2.965   1.870
59966W        W26507  34.393  31.572  10.357
59967W        W26508  39.855  14.755  13.442
59968W        W26509  26.562  38.222   3.252
59969W        W26510  26.154  29.644   3.970
59970W        W26511  14.911   7.317   5.295
59971W        W26512  44.883  17.466   2.291
59972W        W26513  35.685  10.966  10.737
59973W        W26514  13.321   3.740  13.811
59974W        W26515   2.514  18.300  11.659
59975W        W26516  19.701  32.955  10.773
59976W        W26517   9.331  32.125   1.421
59977W        W26518   9.925  22.462  14.315
59978W        W26519   6.002  16.604  10.656
59979W        W26520   0.889  30.902  14.867
59980W        W26521  37.905  28.162  12.019
59981W        W26522   7.393  23.178   3.596
59982W        W26523  43.039  14.876   4.185
59983W        W26524  44.450   0.239   9.873
59984W        W26525  28.091   0.375   1.261
59985W        W26526  24.775  29.046  14.997
59986W        W26527  20.038  19.528  11.099
59987W        W26528   0.396  28.489   4.375
59988W        W26529   4.256  40.005  13.047
59989W        W26530   4.515  22.085   2.622
59990W        W26531  22.507  36.516  14.760
59991W        W26532   8.179  16.842  11.547
59992W        W26533  31.683  25.709   4.155
59993W        W26534  29.208  42.561   3.867
59994W        W26535  40.068   5.108  10.132
59995W        W26536  36.419  16.895   2.180
59996W        W26537   5.659  34.313   4.785
59997W        W26538  31.374  43.232  10.741
59998W        W26539  22.197  31.964   3.607
59999W        W26540   2.416  14.848  14.513
60000W        W26541   5.717  30.289   4.381
60001W        W26542  43.258  19.102   2.000
60002W        W26543  40.513   5.974  11.259
60003W        W26544  12.148  31.515   4.555
60004W        W26545  43.375  44.218   2.835
60005W        W26546  34.610  22.152   0.162
60006W        W26547  20.528  23.529   0.398
60007W        W26548  28.919  13.569   0.731
60008W        W26549   9.330  15.712   3.101
60009W        W26550  30.035  20.714  14.365
60010W        W26551  38.490  35.044  11.535
60011W        W26552  14.885  18.792   3.927
60012W        W26553   1.706  28.653  13.821
60013W        W26554  40.749  14.665   0.827
60014W        W26555  35.029  27.127  13.847
60015W        W26556  29.635  24.777   2.267
60016W        W26557   4.386  28.003   0.258
60017W        W26558  13.131  16.695   1.669
60018W        W26559  27.995   0.156   0.338
60019W        W26560  12.314  16.430  14.373
60020W        W26561  42.325  12.791  13.815
60021W        W26562   2.893  44.934   3.592
60022W        W26563   7.353  10.508  14.853
60023W        W26564  25.371   2.009   3.534
60024W        W26565  20.122  19.028   1.718
60025W        W26566  21.026  11.540   1.012
60026W        W26567  26.961  24.137   2.444
60027W        W26568  42.791   0.466  14.573
60028W        W26569  25.576   4.222   0.932
60029W        W26570  35.630  42.676  13.908
60030W        W26571  26.064  37.298  10.361
60031W        W26572  22.262  14.886  11.594
60032W        W26573  10.261   5.822   3.041
60033W        W26574  38.293  38.976  11.970
60034W        W26575   3.896   0.862  12.616
60035W        W26576  34.938   8.600  12.639
60036W        W26577  32.109  33.964  14.258
60037W        W26578  12.318  36.448   0.383
60038W        W26579  33.945  42.360  13.200
60039W        W26580   0.465  32.038   0.448
60040W        W26581   5.391  22.742  11.201
60041W        W26582  24.389   3.385  14.904
60042W        W26583  11.323  33.546  11.556
60043W        W26584  36.108  42.906   4.331
60044W        W26585  13.585   1.878   2.608
60045W        W26586  33.514  42.012   0.185
60046W        W26587  17.577  37.424   4.172
60047W        W26588   3.008   2.829  14.852
60048W        W26589  37.403  13.971  13.300
60049W        W26590  32.087   5.263  11.562
60050W        W26591  32.452  20.534   4.101
60051W        W26592   5.285  38.364   0.859
60052W        W26593   7.345   7.611   3.235
60053W        W26594  21.446   9.882  13.876
60054W        W26595  27.438  33.198  12.557
60055W        W26596   9.384  42.230   0.673
60056W        W26597  38.004  11.220  13.776
60057W        W26598   2.482  20.502   2.588
60058W        W26599  28.924  28.219  11.962
60059W        W26600  26.512  22.902  10.789
60060W        W26601  41.511   3.438   0.564
60061W        W26602  13.712  35.506  14.834
60062W        W26603   2.083  41.985  13.356
60063W        W26604   5.123  44.876  14.942
60064W        W26605  12.799   6.833  13.991
60065W        W26606  34.712   3.416  14.590
60066W        W26607   8.376  28.769  13.526
60067W        W26608  28.069  38.908   0.423
60068W        W26609  13.271  14.199   3.439
60069W        W26610  37.312   0.457  13.939
60070W        W26611   5.441  22.541  14.965
60071W        W26612  19.988  13.020   0.210
60072W        W26613  32.453  22.014  13.552
60073W        W26614  32.113  17.978   3.703
60074W        W26615   4.888  15.849  13.367
60075W        W26616  43.250   7.761  10.799
60076W        W26617  21.665  38.544  14.006
60077W        W26618  44.464  28.248   0.510
60078W        W26619  44.107  34.830   3.766
60079W        W26620  21.228   8.170  14.067
60080W        W26621   7.257  11.847  13.563
60081W        W26622  18.481  44.687   5.024
60082W        W26623  14.613  34.466  13.388
60083W        W26624  25.732  33.030  12.143
60084W        W26625  16.700  22.946   0.398
60085W        W26626  17.188  38.084   0.174
60086W        W26627   3.786  23.523   2.657
60087W        W26628   1.603   3.469   4.612
60088W        W26629  30.919  29.876  11.058
60089W        W26630  44.544  12.124  12.940
60090W        W26631  15.152  42.328   2.780
60091W        W26632  44.987  43.739   0.117
60092W        W26633  12.070  39.034   3.708
60093W        W26634  36.447  16.635  12.701
60094W        W26635  18.778  10.857   1.269
60095W        W26636  33.912  26.874  14.352
60096W        W26637  25.226  36.468   0.478
60097W        W26638  13.151   6.324  13.289
60098W        W26639   4.334  44.804   2.604
60099W        W26640  19.668  28.401   0.783
60100W        W26641  22.304  25.913  14.933
60101W        W26642   4.481  38.560   3.634
60102W        W26643   5.628  19.794   4.747
60103W        W26644  25.608  27.522  14.850
60104W        W26645   9.144   4.217   2.854
60105W        W26646  25.196  22.990  10.929
60106W        W26647  40.318   2.480  13.391
60107W        W26648  42.609  44.259   2.387
60108W        W26649  11.544   4.810  11.097
60109W        W26650   8.614  37.281  13.583
60110W        W26651  30.235   7.835  12.009
60111W        W26652  10.915   1.282   3.806
60112W        W26653  41.500  31.933   0.843
60113W        W26654   6.751  16.809  12.945
60114W        W26655  34.447  12.357   4.138
60115W        W26656   1.705  15.128  13.005
60116W        W26657  36.463  36.342   0.950
60117W        W26658   9.783  21.577  12.114
60118W        W26659  12.437  19.167  13.248
60119W        W26660  25.440  37.095  12.853
60120W        W26661  43.412  22.441  14.928
60121W        W26662   1.495   2.292  14.170
60122W        W26663  16.026  16.191   4.937
60123W        W26664   9.673  29.872  14.369
60124W        W26665  20.104   7.414   2.334
60125W        W26666  29.134   1.675  10.707
60126W        W26667   4.031  21.259   3.610
60127W        W26668  38.869  41.570  12.309
60128W        W26669  43.297  14.690  10.557
60129W        W26670  26.465  39.410  11.127
60130W        W26671  39.152  38.953   0.424
60131W        W26672  30.894  17.774   0.748
60132W        W26673   7.724  19.042   2.725
60133W        W26674  23.021  23.993   1.746
60134W        W26675  27.289  36.131  13.674
60135W        W26676  41.497  39.822  11.388
60136W        W26677  20.788  31.464  10.789
60137W        W26678   9.652  41.213  10.596
60138W        W26679  20.039  11.619  14.341
60139W        W26680  18.015  19.187  11.520
60140W        W26681  44.920   6.479   0.121
60141W        W26682  10.644  39.130   4.824
60142W        W26683  14.590  18.101   4.191
60143W        W26684   3.738  26.327   4.999
60144W        W26685  15.720  21.350   1.226
60145W        W26686  30.439  44.192  11.120
60146W        W26687  19.870  44.350   1.846
60147W        W26688  23.166  39.569   0.506
60148W        W26689  26.494  27.283  13.406
60149W        W26690  11.227  27.038   4.378
60150W        W26691   7.480  36.136  11.626
60151W        W26692  24.522  16.029   3.683
60152W        W26693   8.952  38.929  12.433
60153W        W26694  15.583  29.602   2.774
60154W        W26695  30.474   8.888   2.438
60155W        W26696  19.759  44.927  11.192
60156W        W26697   0.723   4.977   3.810
60157W        W26698  34.922  19.614   3.686
60158W        W26699  33.370   6.700  12.047
60159W        W26700  34.939  11.103  10.164
60160W        W26701  37.848  29.658   0.135
60161W        W26702  42.961   6.839   0.374
60162W        W26703   3.827  34.668   2.367
60163W        W26704  38.946  38.244  11.141
60164W        W26705  14.745  17.160   4.126
60165W        W26706   2.480  44.661   9.851
60166W        W26707  24.412  35.078   4.725
60167W        W26708  34.188  17.818  11.575
60168W        W26709  15.398   9.601  13.205
60169W        W26710   4.073   2.255   3.153
60170W        W26711  31.186   7.818   4.192
60171W        W26712   9.179  15.559  10.634
60172W        W26713  25.988  17.317   3.691
60173W        W26714   5.300   1.351   1.887
60174W        W26715  11.369  30.179   0.951
60175W        W26716  22.032  24.790  12.700
60176W        W26717  43.099  25.736   3.699
60177W        W26718   1.886  24.238  13.982
60178W        W26719  23.226  42.018   3.648
60179W        W26720   4.783   2.134   0.981
60180W        W26721  14.325  20.466  11.333
60181W        W26722  39.385  43.820   1.899
60182W        W26723  11.715   5.289  11.601
60183W        W26724  24.999   9.607  14.261
60184W        W26725  29.637  13.059   2.438
60185W        W26726  44.891  38.983  11.010
60186W        W26727   0.395  13.585   2.409
60187W        W26728   0.959  28.175   4.126
60188W        W26729  26.185  41.495   1.373
60189W        W26730   2.033  43.704  11.271
60190W        W26731  34.808  17.353   2.319
60191W        W26732   6.448  23.050   4.452
60192W        W26733   8.372  12.777   1.625
60193W        W26734  20.017  27.089   1.885
60194W        W26735   7.615   8.977  11.971
60195W        W26736  16.781  13.403  12.909
60196W        W26737  14.853  28.033   3.249
60197W        W26738  29.650  18.718  12.477
60198W        W26739  43.000  40.895  11.826
60199W        W26740  17.629  15.892  12.039
60200W        W26741   2.780  19.999  13.597
60201W        W26742  31.940   2.158  12.070
60202W        W26743  23.571  21.214  11.642
60203W        W26744  31.048  34.865   3.930
60204W        W26745  29.818  40.510  14.694
60205W        W26746   9.770  21.624   1.566
60206W        W26747  32.194  18.297  11.940
60207W        W26748  38.327  41.052   4.168
60208W        W26749  25.459  16.640   3.675
60209W        W26750  39.182  32.289   4.019
60210W        W26751  10.759  24.893   3.134
60211W        W26752  36.449  44.292   0.531
60212W        W26753  30.561  14.150  11.023
60213W        W26754  39.496  16.799   1.762
60214W        W26755   4.626   8.883   3.271
60215W        W26756  31.465  24.770  14.994
60216W        W26757  25.897  28.524  13.966
60217W        W26758   8.136  37.550   4.523
60218W        W26759   9.446  27.667   1.258
60219W        W26760  16.534   8.712   0.369
60220W        W26761  37.113  24.709  11.425
60221W        W26762  26.948  33.549  11.027
60222W        W26763  31.419  35.810   3.049
60223W        W26764  41.921  23.430   2.632
60224W        W26765  17.513   3.956  14.351
60225W        W26766  10.173  11.015  13.403
60226W        W26767  29.038  33.574  11.128
60227W        W26768  23.976  11.780   3.188
60228W        W26769  25.941   8.829  12.806
60229W        W26770  20.000  38.784   4.579
60230W        W26771  26.097  13.702  14.919
60231W        W26772  32.826  30.813  11.532
60232W        W26773  15.310  40.293  11.194
60233W        W26774  22.154  30.317  14.999
60234W        W26775  16.743  12.918  13.065
60235W        W26776  33.918  33.426  12.367
60236W        W26777   7.185  12.397  14.422
60237W        W26778  44.438  20.634  12.477
60238W        W26779  29.603  12.443  12.582
60239W        W26780   5.008   5.147  13.052
60240W        W26781   4.759   7.456  13.686
60241W        W26782  17.759  17.360   3.356
60242W        W26783  22.294  40.057   3.598
60243W        W26784  23.287  32.389  13.109
60244W        W26785  38.006  27.499  12.474
60245W        W26786  24.659  29.010  13.284
60246W        W26787   9.046  23.012   2.118
60247W        W26788  11.232  16.279  12.178
60248W        W26789  16.288  30.986  14.640
60249W        W26790  34.698  28.649   2.009
60250W        W26791  21.618  27.097   0.041
60251W        W26792  27.968   5.815  11.941
60252W        W26793  37.014  24.292  13.990
60253W        W26794  20.324  36.652   1.248
60254W        W26795  19.325  10.819   0.380
60255W        W26796   2.863  41.085  14.541
60256W        W26797  43.109  26.106   1.640
60257W        W26798  19.217  30.119   4.621
60258W        W26799   4.521  36.435   0.425
60259W        W26800   1.325  18.826   2.448
60260W        W26801  30.424  15.714  13.239
60261W        W26802  40.336  20.620  14.755
60262W        W26803  26.993  23.624  10.838
60263W        W26804  17.860  27.716  11.586
60264W        W26805   9.127  27.712  14.534
60265W        W26806  14.168  22.081   1.785
60266W        W26807  41.204  43.377   1.809
60267W        W26808  10.231  28.844   2.788
60268W        W26809  27.764  42.411   2.677
60269W        W26810  16.981   0.540   0.512
60270W        W26811  27.452  22.767  12.921
60271W        W26812  20.328  40.875  11.643
60272W        W26813   3.286  36.790  11.116
60273W        W26814  13.696  16.617   2.343
60274W        W26815   8.406  12.480  14.325
60275W        W26816   5.913  39.909  13.834
60276W        W26817  32.096  35.500  11.144
60277W        W26818  17.789  42.974  11.934
60278W        W26819  31.046   4.579  13.192
60279W        W26820  36.128  23.121  14.000
60280W        W26821  39.329  21.652   3.219
60281W        W26822   1.507  26.477   0.813
60282W        W26823  29.353  20.170  14.456
60283W        W26824  20.670   5.625   5.400
60284W        W26825  37.679  15.298   1.272
60285W        W26826  24.754  43.466  13.593
60286W        W26827   6.777  34.617  11.552
60287W        W26828  28.906  32.501  12.889
60288W        W26829  41.230  28.416  13.072
60289W        W26830  29.984  13.761   3.352
60290W        W26831  15.682  41.064  14.454
60291W        W26832  42.937  11.557  14.020
60292W        W26833  30.577  17.661  13.890
60293W        W26834  15.532  14.138  13.868
60294W        W26835  36.479  12.263   1.214
60295W        W26836  41.884  35.856   4.564
60296W        W26837   6.753  34.389  13.849
60297W        W26838  40.049  13.593  11.872
60298W        W26839  17.480  11.349   0.092
60299W        W26840   3.562   1.800   1.343
60300W        W26841  14.753  33.312   1.978
60301W        W26842  18.373  42.426  11.496
60302W        W26843   5.896   3.945   2.279
60303W        W26844   2.052  28.452  14.129
60304W        W26845  12.258  33.928  14.344
60305W        W26846   7.101  40.330   0.396
60306W        W26847  33.100  28.601  10.654
60307W        W26848  30.194  29.658   0.735
60308W        W26849  39.548  25.222  11.521
60309W        W26850  23.431   7.355  13.946
60310W        W26851  31.423   7.287  14.503
60311W        W26852  28.626  36.210  12.464
60312W        W26853  26.752  13.425  10.832
60313W        W26854   5.162  40.436   4.721
60314W        W26855   3.330   8.628   0.273
60315W        W26856  20.606  35.549   3.169
60316W        W26857  25.990   4.696   1.939
60317W        W26858   6.197  14.157  12.658
60318W        W26859  29.287   0.897   2.195
60319W        W26860  26.185  26.383   1.238
60320W        W26861  24.723  36.762  14.359
60321W        W26862  42.970   3.821  11.199
60322W        W26863  14.948   3.498  10.041
60323W        W26864  40.682  36.917   2.460
60324W        W26865  18.062   7.308   1.352
60325W        W26866   8.842   5.160   3.220
60326W        W26867  34.983   5.283   2.385
60327W        W26868  23.465   6.459   0.957
60328W        W26869  33.586  32.937   1.178
60329W        W26870   9.074  16.681  13.416
60330W        W26871  36.421  39.802   0.978
60331W        W26872  42.069  14.166   0.912
60332W        W26873   8.307  40.284  11.111
60333W        W26874  24.601  24.028  12.184
60334W        W26875   3.569   0.532   0.515
60335W        W26876  41.971  27.120   0.974
60336W        W26877  39.514   2.714  10.451
60337W        W26878  42.199   0.201   2.129
60338W        W26879  26.485  42.949  14.397
60339W        W26880  24.156   0.699   3.581
60340W        W26881  31.436  43.496   0.764
60341W        W26882  35.474  30.673   0.712
60342W        W26883  18.968   6.382   1.757
60343W        W26884  44.481  29.136   1.604
60344W        W26885  44.870   6.132  10.656
60345W        W26886  12.921  10.706  12.174
60346W        W26887  34.750  13.179   4.238
60347W        W26888  10.363  31.595   2.672
60348W        W26889  13.203  28.137  11.527
60349W        W26890  36.271  30.079   2.719
60350W        W26891  10.036   8.891  14.439
60351W        W26892   4.999   7.964   3.233
60352W        W26893  27.089  41.670   2.612
60353W        W26894  39.384  39.482   3.425
60354W        W26895  38.044  16.747   3.401
60355W        W26896  38.081   4.727  11.511
60356W        W26897  33.135  29.216   0.939
60357W        W26898  35.561  41.045   3.031
60358W        W26899  42.485   7.719   3.185
60359W        W26900  36.831  17.338   0.902
60360W        W26901   5.234  14.506   3.277
60361W        W26902  10.032  24.172   0.225
60362W        W26903  28.132  20.488   0.197
60363W        W26904  33.117   6.406   1.815
60364W        W26905  33.434  34.479  12.050
60365W        W26906  41.433  24.550   3.390
60366W        W26907  23.311  33.401   3.567
60367W        W26908  10.833  16.130   3.643
60368W        W26909  32.580  29.965  12.462
60369W        W26910   8.639  31.582  12.204
60370W        W26911  29.395  33.646   1.844
60371W        W26912  30.654  18.261  12.552
60372W        W26913  27.238  42.914   4.656
60373W        W26914  27.980  31.455  14.395
60374W        W26915   9.332  27.668   0.415
60375W        W26916   4.167  21.775   2.893
60376W        W26917  37.779  17.759   0.520
60377W        W26918  24.034  22.599  14.539
60378W        W26919  18.282  20.544  12.866
60379W        W26920  16.703  27.380  14.884
60380W        W26921  21.751  36.536   4.104
60381W        W26922   0.243   7.026  13.933
60382W        W26923   8.059  39.457   3.256
60383W        W26924  39.909  38.737   3.571
60384W        W26925  32.368   6.485   1.315
60385W        W26926  31.781  18.201   3.049
60386W        W26927  32.300  17.283   3.247
60387W        W26928  34.335  40.442  12.713
60388W        W26929  31.837  41.372  12.421
60389W        W26930   3.962  36.760   3.777
60390W        W26931  37.512  40.437  11.880
60391W        W26932  28.420  33.569  14.568
60392W        W26933  16.723  30.754   0.919
60393W        W26934  27.134  38.961   0.700
60394W        W26935  40.876  18.156  11.668
60395W        W26936   8.967  20.254  13.443
60396W        W26937  23.139  20.236   3.660
60397W        W26938  43.398   6.668  10.358
60398W        W26939  15.858  10.517  14.857
60399W        W26940  35.108   2.845  14.960
60400W        W26941  19.834  15.055  10.747
60401W        W26942  37.222  14.422   4.486
60402W        W26943  34.393  28.957  10.641
60403W        W26944  17.830  33.701   1.096
60404W        W26945  35.381  19.887   2.366
60405W        W26946  43.186  17.087   2.797
60406W        W26947  31.482   2.809   3.268
60407W        W26948  36.693   7.647  14.509
60408W        W26949  25.098  28.788   3.762
60409W        W26950  34.076  11.342  12.492
60410W        W26951  11.163  38.544  14.951
60411W        W26952  22.997  43.111  11.738
60412W        W26953   7.658  43.095   0.402
60413W        W26954  14.753  18.564  11.093
60414W        W26955  37.930   2.757   4.837
60415W        W26956  15.654   6.899   3.144
60416W        W26957  17.768  23.629  13.361
60417W        W26958  28.748  42.984   2.797
60418W        W26959  23.749   1.406   4.252
60419W        W26960  28.524  21.537   1.228
60420W        W26961  26.675  41.343   0.059
60421W        W26962  26.630  10.813  11.690
60422W        W26963   9.139  39.899   2.271
60423W        W26964  12.948  39.318  12.188
60424W        W26965   2.736  33.072  12.397
60425W        W26966  14.219  26.603   3.083
60426W        W26967  29.299   5.464  13.300
60427W        W26968   8.242  23.547   1.656
60428W        W26969  31.633  44.801   0.288
60429W        W26970   6.312  33.460   2.848
60430W        W26971  32.224  44.234   1.737
60431W        W26972  37.771  15.068  14.534
60432W        W26973  18.978   9.877   4.137
60433W        W26974  39.221  44.324   5.223
60434W        W26975  24.664  26.712   1.280
60435W        W26976  18.568  35.991  13.409
60436W        W26977  23.221  22.081  12.499
60437W        W26978  12.230   6.323   1.901
60438W        W26979  44.836  23.369  12.431
60439W        W26980   5.138  20.827   0.075
60440W        W26981  16.842  44.520  13.518
60441W        W26982  42.068  15.692  12.714
60442W        W26983   4.990  42.977   9.849
60443W        W26984  11.339  11.977   4.532
60444W        W26985  42.786  19.718  13.693
60445W        W26986  43.678  22.262  11.796
60446W        W26987   1.950  42.480   1.575
60447W        W26988  38.065  14.726  11.366
60448W        W26989  26.171  24.192   1.792
60449W        W26990  26.389  26.464   1.923
60450W        W26991   3.917   4.146  13.677
60451W        W26992  28.445  25.762  11.025
60452W        W26993  30.205   9.111   0.380
60453W        W26994  31.622  28.367  10.625
60454W        W26995  11.180   0.881  13.254
60455W        W26996  27.874  23.599   4.648
60456W        W26997   0.538  14.365   4.127
60457W        W26998  34.640  12.792   3.887
60458W        W26999  23.640   0.471  14.320
60459W        W27000  10.421  17.826   2.302
60460W        W27001  44.683  26.605   4.654
60461W        W27002  29.205  17.976   0.142
60462W        W27003  33.598  34.836  14.764
60463W        W27004  17.143   6.878   5.060
60464W        W27005  20.188  27.606   1.880
60465W        W27006  42.467  29.431   4.516
60466W        W27007  32.350  11.859   3.201
60467W        W27008   2.486   3.895  13.820
60468W        W27009  20.015  31.511  12.108
60469W        W27010  43.511  17.635  12.566
60470W        W27011  34.464  39.457   0.371
60471W        W27012   5.836  33.056  13.530
60472W        W27013   1.658   3.735   3.810
60473W        W27014   6.763  21.460  11.008
60474W        W27015   3.485  26.194  11.751
60475W        W27016   0.771  44.809  10.674
60476W        W27017  25.138  37.280   3.263
60477W        W27018  40.962  35.340   4.270
60478W        W27019  23.414   1.779   0.855
60479W        W27020  40.617  34.222   4.612
60480W        W27021  16.828  19.323  13.881
60481W        W27022   8.139  34.464   3.324
60482W        W27023  21.340  37.363  12.505
60483W        W27024  23.025  20.653  12.638
60484W        W27025  10.745  21.813   1.705
60485W        W27026  30.599  41.097  12.873
60486W        W27027  43.053  42.365  13.066
60487W        W27028  30.464  17.132  13.892
60488W        W27029   9.786  39.527  11.952
60489W        W27030  30.426  44.369   3.664
60490W        W27031  17.315  39.598   0.255
60491W        W27032  34.663  10.438   3.871
60492W        W27033  33.129  34.746  10.403
60493W        W27034  44.748   7.621  10.628
60494W        W27035  10.136   0.398  14.723
60495W        W27036   5.921  17.991   4.048
60496W        W27037  24.450   6.241  13.673
60497W        W27038  23.947  27.539   1.354
60498W        W27039  36.623  40.474   9.879
60499W        W27040  19.261  28.013   0.754
60500W        W27041  16.070   1.870   2.443
60501W        W27042  13.830  44.359  12.481
60502W        W27043  27.023  24.286   3.959
60503W        W27044  20.851   4.482   2.284
60504W        W27045  17.569  27.608  11.129
60505W        W27046  10.775  30.562   0.267
60506W        W27047  13.208  32.751  11.827
60507W        W27048  44.179  43.410  13.945
60508W        W27049  43.740  38.836   0.314
60509W        W27050  34.503  40.065  13.088
60510W        W27051  35.495  13.294   4.875
60511W        W27052  33.943  17.137   1.183
60512W        W27053  35.876   1.711   1.254
60513W        W27054  43.376   0.338  12.073
60514W        W27055  43.962  41.234   3.743
60515W        W27056   4.951   9.403  11.596
60516W        W27057  21.509   4.660   3.951
60517W        W27058  28.909  12.919   9.848
60518W        W27059   2.771  44.405  13.542
60519W        W27060   8.892  31.970   1.110
60520W        W27061  28.031  15.338  11.825
60521W        W27062  25.984   8.924  11.052
60522W        W27063   8.223  26.243  11.560
60523W        W27064  17.655  29.424  12.794
60524W        W27065  35.547  23.686   1.262
60525W        W27066  18.264  25.038   4.184
60526W        W27067  15.470  27.999  14.963
60527W        W27068   2.753  29.897  14.499
60528W        W27069   1.820  25.011  11.584
60529W        W27070  16.147  13.397  14.272
60530W        W27071  33.556  42.400   4.387
60531W        W27072  17.637  26.188   4.762
60532W        W27073  24.807   6.258  14.967
60533W        W27074  43.609  19.710   3.719
60534W        W27075  11.953   6.354  13.799
60535W        W27076  15.662   9.279   4.174
60536W        W27077  16.047  41.811   2.264
60537W        W27078   7.882  41.923   4.976
60538W        W27079  25.558  26.845  13.623
60539W        W27080  25.938  24.206   0.208
60540W        W27081  31.022  23.255  11.156
60541W        W27082  15.626  19.579   0.855
60542W        W27083   2.848   7.683  13.019
60543W        W27084  13.943   1.963   9.903
60544W        W27085   2.149   5.728  12.063
60545W        W27086   4.956  15.327  12.586
60546W        W27087   0.404  13.707  14.225
60547W        W27088  31.086  32.422  13.268
60548W        W27089  37.096  15.728  13.001
60549W        W27090  41.315   3.022  11.985
60550W        W27091  28.773  14.799   4.547
60551W        W27092  40.282  34.341   0.998
60552W        W27093  29.897  10.220   5.475
60553W        W27094  12.609   6.320   0.986
60554W        W27095   8.576   1.903   2.752
60555W        W27096  27.119  36.385  13.099
60556W        W27097   9.796  19.869  13.798
60557W        W27098  28.651  15.032   0.416
60558W        W27099  35.155  39.407   3.200
60559W        W27100   7.925  29.453   2.718
60560W        W27101  28.539   7.738   4.170
60561W        W27102   2.927   7.437  11.545
60562W        W27103  39.261  33.266  14.087
60563W        W27104   1.803  24.551   1.417
60564W        W27105   7.469   9.138   1.317
60565W        W27106   7.334  40.811   2.039
60566W        W27107  41.116  20.235  10.713
60567W        W27108   0.767  38.900   3.088
60568W        W27109  15.177  43.433   2.398
60569W        W27110  23.476  34.164  14.568
60570W        W27111  11.095  18.774  10.649
60571W        W27112  18.584  12.950   3.978
60572W        W27113  44.923  25.444   4.144
60573W        W27114   6.492  17.835  14.780
60574W        W27115  19.509  11.138  11.962
60575W        W27116  26.456  30.412  11.127
60576W        W27117  34.849  36.470   0.425
60577W        W27118  37.174   7.942   1.918
60578W        W27119  34.874  21.518   4.111
60579W        W27120  42.051  27.408   1.434
60580W        W27121   1.416  21.927   0.034
60581W        W27122  19.416  43.508  11.147
60582W        W27123  17.279   9.805   4.722
60583W        W27124  26.438  20.253  12.069
60584W        W27125  29.624  36.870   3.145
60585W        W27126   1.382  17.750   0.536
60586W        W27127  43.572  42.090   0.394
60587W        W27128  38.385  21.731   0.812
60588W        W27129  19.147  40.055   1.009
60589W        W27130   1.633  44.834   2.982
60590W        W27131  32.982   1.226   1.789
60591W        W27132  29.292  24.023  13.418
60592W        W27133   3.245  30.702   4.967
60593W        W27134  30.451  30.890   3.147
60594W        W27135  39.126  22.818  11.132
60595W        W27136  44.776  17.733  10.551
60596W        W27137  29.522  39.811   2.126
60597W        W27138  19.638   6.370  14.320
60598W        W27139  36.899  13.011  11.442
60599W        W27140  17.134  22.732  10.961
60600W        W27141  33.177  19.171  11.463
60601W        W27142  29.088  23.105  11.227
60602W        W27143  24.700  13.701  12.296
60603W        W27144  28.060   7.442   2.303
60604W        W27145  38.320  17.837  14.046
60605W        W27146  25.266  18.310  14.845
60606W        W27147   8.430  41.334  10.295
60607W        W27148  13.944  11.580  11.089
60608W        W27149  27.895  30.655  11.965
60609W        W27150  27.492  16.796  14.716
60610W        W27151  41.897  37.934   3.693
60611W        W27152   3.427  11.168   0.231
60612W        W27153  20.761  43.354   4.293
60613W        W27154  13.838   4.511   1.966
60614W        W27155  32.011  19.218  13.591
60615W        W27156  24.020  33.748  12.058
60616W        W27157  31.456  28.009   3.614
60617W        W27158  40.533   1.336   0.781
60618W        W27159  36.803  31.993   3.478
60619W        W27160  20.565  25.061  11.015
60620W        W27161  40.517   9.835   4.639
60621W        W27162  17.299   8.345  13.430
60622W        W27163  32.608  30.566  14.335
60623W        W27164  29.505   1.037   2.660
60624W        W27165  35.601  20.368   3.794
60625W        W27166  23.846  27.197  11.916
60626W        W27167  14.740  42.328   0.909
60627W        W27168  24.125  20.717  12.598
60628W        W27169  22.722  12.022   1.093
60629W        W27170  24.885  13.742   3.659
60630W        W27171  29.627   9.061  12.650
60631W        W27172  28.718  33.553   3.711
60632W        W27173   5.675  24.958  13.496
60633W        W27174   3.276   9.862  13.880
60634W        W27175  36.421  30.081  14.559
60635W        W27176  44.931  39.936   1.801
60636W        W27177  21.514  12.516   4.322
60637W        W27178  43.551  44.274   1.965
60638W        W27179  23.513  31.434  13.862
60639W        W27180  10.864  14.170   3.427
60640W        W27181  20.031  28.553  10.771
60641W        W27182  38.834  36.482   1.695
60642W        W27183   3.901  41.128   0.023
60643W        W27184  27.493  23.335  13.013
60644W        W27185  39.825   5.292   0.687
60645W        W27186   1.278   2.399   0.523
60646W        W27187  19.812  36.072   0.063
60647W        W27188   7.940   1.985   0.882
60648W        W27189  15.866   6.288   3.735
60649W        W27190  40.804  38.625  14.726
60650W        W27191  44.012  15.694   4.605
60651W        W27192  16.492   8.312  14.543
60652W        W27193  34.200  40.436   4.213
60653W        W27194   7.914  10.510  11.445
60654W        W27195  18.154  26.589  12.400
60655W        W27196   4.071   3.132  13.471
60656W        W27197  20.254  35.850  12.145
60657W        W27198  28.182  27.660   2.707
60658W        W27199  35.013  38.022   4.827
60659W        W27200  23.755  26.179  12.098
60660W        W27201  31.746   5.596   3.655
60661W        W27202  33.393  17.733   0.859
60662W        W27203   9.246  14.029   3.731
60663W        W27204  27.471   0.402   3.242
60664W        W27205   7.778   5.732   3.379
60665W        W27206  35.825  44.566  11.707
60666W        W27207  35.407  36.867   3.512
60667W        W27208  21.088   4.352   4.025
60668W        W27209  34.156  41.293  14.865
60669W        W27210  40.145   5.717   0.821
60670W        W27211  43.379  44.778   1.979
60671W        W27212  38.190  32.452   3.281
60672W        W27213  44.772  39.312   0.132
60673W        W27214   1.299  16.674  12.469
60674W        W27215  35.941  30.662   2.370
60675W        W27216   4.949  38.887  12.475
60676W        W27217   3.205  11.900  14.313
60677W        W27218  43.083   6.753   4.686
60678W        W27219  24.571  13.891   0.136
60679W        W27220  27.878  28.872  11.114
60680W        W27221   0.840  11.766  14.703
60681W        W27222   2.799  35.340   0.234
60682W        W27223  27.139  19.553   3.788
60683W        W27224  18.703  23.480  11.406
60684W        W27225  32.590   3.261   2.402
60685W        W27226   7.867  14.853  11.974
60686W        W27227  30.647  39.898   1.261
60687W        W27228   0.865  20.697   4.253
60688W        W27229  37.545  41.310   3.120
60689W        W27230  12.614  44.274  13.025
60690W        W27231  42.779  27.555  12.001
60691W        W27232  27.449  41.873  11.385
60692W        W27233  40.391  19.234   1.646
60693W        W27234   7.936  25.352  14.826
60694W        W27235   7.895   0.067  12.549
60695W        W27236  41.935  27.494   4.068
60696W        W27237  38.023  38.249  12.927
60697W        W27238  33.886  15.185   4.555
60698W        W27239  35.610   2.912  13.007
60699W        W27240  20.131  32.332  11.158
60700W        W27241  32.186  13.551   0.251
60701W        W27242  39.302  43.070  14.855
60702W        W27243  36.954  29.003  13.378
60703W        W27244  37.364  34.215  12.344
60704W        W27245  44.555  11.669   5.163
60705W        W27246  21.862  17.749  11.264
60706W        W27247  29.420  40.299   4.638
60707W        W27248  42.132  33.288  11.179
60708W        W27249  38.927  14.699  14.358
60709W        W27250  13.059  42.966  11.255
60710W        W27251  30.713  31.315   3.038
60711W        W27252  32.876   2.816  13.865
60712W        W27253  22.664  43.496  13.911
60713W        W27254  14.364   5.647  12.184
60714W        W27255  28.395  25.418   0.526
60715W        W27256   1.697  34.359  10.743
60716W        W27257   5.293  35.673  12.957
60717W        W27258   2.949  20.123   4.891
60718W        W27259  11.837  33.139  14.703
60719W        W27260  29.712  36.640   0.078
60720W        W27261  32.890  36.429  11.579
60721W        W27262  34.198  26.358   2.946
60722W        W27263  27.492   1.758   4.126
60723W        W27264  42.236  21.030  11.415
60724W        W27265  42.447   6.151   3.393
60725W        W27266   7.390  15.137   2.963
60726W        W27267  26.793  18.841  11.661
60727W        W27268  22.159  18.959  11.155
60728W        W27269  16.335   9.703   0.896
60729W        W27270  37.948  42.737   2.532
60730W        W27271  38.852   1.076   0.346
60731W        W27272  16.608  29.874   5.034
60732W        W27273   4.842  39.771  10.939
60733W        W27274  12.193  10.586  13.750
60734W        W27275  26.197  13.945   4.621
60735W        W27276   7.404  16.541  12.338
60736W        W27277  36.937  31.414  11.131
60737W        W27278   9.091  26.076  11.606
60738W        W27279  39.026  25.206  12.365
60739W        W27280  20.641  36.155  12.003
60740W        W27281  24.661  31.144  11.501
60741W        W27282   9.110   3.344  14.459
60742W        W27283  10.247  21.028   3.634
60743W        W27284  40.247   0.248  10.910
60744W        W27285  22.290  13.664   5.132
60745W        W27286  10.819  33.919  12.056
60746W        W27287   5.991  43.254   4.184
60747W        W27288  13.659  39.564  13.934
60748W        W27289  10.182   1.614  10.366
60749W        W27290  44.028  24.795  14.397
60750W        W27291  10.842  16.312  10.982
60751W        W27292  12.030  13.125  13.793
60752W        W27293  38.215  12.871   0.044
60753W        W27294  26.927   6.115  14.487
60754W        W27295  13.771  34.997  14.800
60755W        W27296  36.732  19.177  11.732
60756W        W27297  24.141  17.129   5.117
60757W        W27298  23.984  41.507  11.668
60758W        W27299  27.937   5.668  14.270
60759W        W27300  42.374  14.959  10.801
60760W        W27301   7.828  41.377  13.395
60761W        W27302  10.703   4.554  10.587
60762W        W27303  13.949  17.676  12.151
60763W        W27304  44.363  41.842  13.693
60764W        W27305  22.984  24.692   1.009
60765W        W27306   9.717   7.802  12.147
60766W        W27307  22.842  37.489  14.361
60767W        W27308   7.373  44.856  11.368
60768W        W27309  15.896  29.197  11.173
60769W        W27310   0.482  16.812  14.675
60770W        W27311  28.962   7.751   3.340
60771W        W27312  35.140  20.295   0.251
60772W        W27313  11.639   8.929   3.636
60773W        W27314  30.202   5.288   2.722
60774W        W27315   8.262  25.759  11.381
60775W        W27316   1.150  24.564   4.603
60776W        W27317   2.773  28.407   1.757
60777W        W27318  44.959  18.154  13.306
60778W        W27319  12.359  27.672   1.957
60779W        W27320   1.985   7.143  11.522
60780W        W27321  24.519  21.652  11.209
60781W        W27322   1.279  10.717   2.084
60782W        W27323  14.955  39.656  11.673
60783W        W27324  20.946  36.056   4.216
60784W        W27325  37.368  44.781   3.097
60785W        W27326  11.402  24.669   0.586
60786W        W27327  38.043  31.924   0.425
60787W        W27328  23.134  34.085  11.511
60788W        W27329  39.922  28.053   3.265
60789W        W27330   8.452  29.477   2.362
60790W        W27331  35.130   6.077   9.840
60791W        W27332  26.511  43.361   4.220
60792W        W27333   2.538  41.583   0.798
60793W        W27334   5.745  13.836  13.437
60794W        W27335  44.874  26.454  14.001
60795W        W27336  40.251  32.337  13.500
60796W        W27337   6.885  14.297   0.710
60797W        W27338  31.214   2.195   5.474
60798W        W27339  11.298  32.243   1.792
60799W        W27340  44.497  15.026   0.341
60800W        W27341  23.236   4.029   2.849
60801W        W27342  39.296   5.270   4.139
60802W        W27343   5.044  32.081  10.620
60803W        W27344   0.525  31.140  12.658
60804W        W27345  18.998  11.249  14.497
60805W        W27346  36.387  41.279  14.346
60806W        W27347  26.414   8.743  12.008
60807W        W27348  11.186   9.610   2.203
60808W        W27349   9.041  10.689   1.835
60809W        W27350  21.595  13.835  10.362
60810W        W27351  36.347   9.369  10.576
60811W        W27352   4.836  44.952  12.398
60812W        W27353   8.895  20.092   2.510
60813W        W27354  41.949  10.647   4.310
60814W        W27355  32.530  25.840   1.338
60815W        W27356  25.413  13.674  14.455
60816W        W27357  20.060  42.104  10.532
60817W        W27358  43.018  44.278   3.577
60818W        W27359  13.870  29.981   1.379
60819W        W27360  20.083  25.980  12.452
60820W        W27361  37.752  43.151  10.412
60821W        W27362  19.309  14.287   0.655
60822W        W27363  24.229  33.571   1.864
60823W        W27364  14.417  40.370   5.078
60824W        W27365  37.931  33.300   1.710
60825W        W27366  32.833  11.568   2.456
60826W        W27367  11.269  16.533   2.917
60827W        W27368  12.104  32.998  10.102
60828W        W27369   0.426  29.481   0.765
60829W        W27370  14.212  27.121  12.451
60830W        W27371  24.262   0.844  12.689
60831W        W27372  30.628  28.407  14.242
60832W        W27373  38.962   0.045  11.086
60833W        W27374  32.406  24.524   2.191
60834W        W27375  38.968   8.630   4.688
60835W        W27376  32.223  32.888   3.166
60836W        W27377   5.359  40.954   0.778
60837W        W27378  12.781  33.753  10.927
60838W        W27379  34.291  31.361   1.683
60839W        W27380  39.595  13.197  12.530
60840W        W27381  39.742  39.258  13.385
60841W        W27382  35.648  31.400   3.772
60842W        W27383  26.025   6.409   1.819
60843W        W27384  24.448  30.019  12.843
60844W        W27385  41.238  32.522   4.837
60845W        W27386  11.143  35.797  13.118
60846W        W27387   3.960   8.712  11.215
60847W        W27388  22.041  39.560   1.844
60848W        W27389  34.819  12.126   3.256
60849W        W27390  23.030  19.560  12.181
60850W        W27391  34.940   5.332  13.903
60851W        W27392   4.759  18.228   2.279
60852W        W27393  37.332   6.740  13.077
60853W        W27394  34.382  36.423  14.677
60854W        W27395  14.594  30.902   3.189
60855W        W27396  44.329   2.609  14.009
60856W        W27397  43.523  25.655  11.471
60857W        W27398  24.579  35.875   2.844
60858W        W27399  18.644   1.727   3.145
60859W        W27400   2.970   8.358   2.904
60860W        W27401  11.893  43.983  14.900
60861W        W27402  29.622  39.583  13.380
60862W        W27403  10.341  26.411   2.249
60863W        W27404   3.706  17.613  14.956
60864W        W27405  20.559  27.988   1.896
60865W        W27406  42.954  36.335  13.873
60866W        W27407   3.807  33.535  12.624
60867W        W27408  25.187  44.923  12.430
60868W        W27409   3.645  41.769   0.214
60869W        W27410  27.276  26.534   2.789
60870W        W27411  20.736   1.331  14.363
60871W        W27412  13.352  10.786  10.852
60872W        W27413  35.890  43.297   2.246
60873W        W27414   5.774  27.646   0.874
60874W        W27415  22.762  13.005   2.784
60875W        W27416  37.786  32.404   2.628
60876W        W27417  18.284  25.044  13.773
60877W        W27418  25.034  11.225   0.265
60878W        W27419  12.252  35.266   4.587
60879W        W27420  10.044  16.198   2.015
60880W        W27421  12.468  12.294   3.658
60881W        W27422  44.968  30.850  14.733
60882W        W27423   7.290  19.859  12.113
60883W        W27424  31.085   3.729  12.580
60884W        W27425  27.979  40.034   4.120
60885W        W27426  29.391   4.010   4.130
60886W        W27427  38.785  38.555  11.541
60887W        W27428  17.276   7.764  14.504
60888W        W27429   0.215  36.116  10.711
60889W        W27430  38.231  20.054  13.445
60890W        W27431  32.631  35.020  10.603
60891W        W27432   4.643   5.251  13.404
60892W        W27433  12.795  35.503   0.444
60893W        W27434  37.384  15.226   2.843
60894W        W27435   6.598  34.358  14.343
60895W        W27436  39.659   0.401  13.908
60896W        W27437  43.740  23.746   3.279
60897W        W27438   6.433  32.908  10.648
60898W        W27439   1.018  11.606   0.698
60899W        W27440   4.445  35.353   4.265
60900W        W27441  33.084   4.094  10.343
60901W        W27442  38.485  13.188   0.803
60902W        W27443  38.950  20.264  11.695
60903W        W27444  37.761  24.349   2.895
60904W        W27445   6.874  42.840  12.497
60905W        W27446  17.739  36.128  11.053
60906W        W27447  28.523  32.819  11.047
60907W        W27448  25.470  18.123   1.772
60908W        W27449  37.595  39.400   3.265
60909W        W27450   1.892   1.555   2.862
60910W        W27451  10.387  28.477  14.497
60911W        W27452   9.383  26.846  10.422
60912W        W27453  20.659  42.055   0.214
60913W        W27454  24.069   0.256  14.548
60914W        W27455  13.321   7.257   4.138
60915W        W27456  10.889  13.341   0.027
60916W        W27457  17.011  39.516   2.776
60917W        W27458  26.500  43.732   2.935
60918W        W27459  15.610  27.647  13.425
60919W        W27460  32.615  29.512  12.904
60920W        W27461   1.893   3.351   4.170
60921W        W27462  43.868   6.398   3.248
60922W        W27463   1.345   6.721   3.542
60923W        W27464   5.413   1.280  14.807
60924W        W27465  30.620  13.712  13.492
60925W        W27466  19.368  25.777   0.634
60926W        W27467   9.237   1.348   4.195
60927W        W27468  43.932   7.893  12.773
60928W        W27469  29.162   1.463  12.886
60929W        W27470   1.028  33.537   4.093
60930W        W27471   6.268  26.934   2.239
60931W        W27472  27.702   0.492  13.150
60932W        W27473  42.331   5.298   4.891
60933W        W27474  38.066  41.853  13.048
60934W        W27475  31.345  19.053   2.618
60935W        W27476  36.270  32.450   4.814
60936W        W27477   1.957   9.685  13.504
60937W        W27478  42.692  39.884  12.522
60938W        W27479  34.515   6.461   0.852
60939W        W27480  19.056  34.433   3.283
60940W        W27481  41.313   1.955   4.104
60941W        W27482  19.295  16.295  10.767
60942W        W27483  38.945  36.947  11.966
60943W        W27484   1.853  39.814   3.343
60944W        W27485  22.258   3.445   0.865
60945W        W27486  23.617  30.599   1.240
60946W        W27487  30.168  42.857   0.791
60947W        W27488   9.652  35.297   0.984
60948W        W27489  17.342  42.027  12.921
60949W        W27490  30.577   7.264  11.465
60950W        W27491  38.045   4.751   0.342
60951W        W27492   6.638  44.839   2.168
60952W        W27493  26.935  15.613  13.021
60953W        W27494  44.866  27.682  14.938
60954W        W27495   7.207  33.040  14.399
60955W        W27496   8.539  26.474  14.809
60956W        W27497  27.028  17.238   1.219
60957W        W27498  40.412  24.474   3.558
60958W        W27499  11.629  39.822   4.044
60959W        W27500  35.977  41.775   1.256
60960W        W27501  39.677  12.842   9.865
60961W        W27502  34.521  39.480   4.524
60962W        W27503  18.550  17.342   0.003
60963W        W27504  38.251  29.688  13.089
60964W        W27505  26.237  41.289  11.484
60965W        W27506  15.646  36.179  12.015
60966W        W27507  19.002  44.399   0.862
60967W        W27508   2.846   8.937   4.669
60968W        W27509  41.951  27.509   0.597
60969W        W27510  20.455  25.952  13.040
60970W        W27511  22.092  36.933   1.735
60971W        W27512  30.538  25.276   2.147
60972W        W27513  28.567  25.963   0.966
60973W        W27514  36.924  12.289   4.585
60974W        W27515  30.499  36.559  14.777
60975W        W27516   2.923   0.933   3.114
60976W        W27517   6.805   9.883  13.395
60977W        W27518  37.076  12.741   0.406
60978W        W27519   8.879  40.596  12.526
60979W        W27520  10.481  34.542   5.009
60980W        W27521   5.697   1.490   0.334
60981W        W27522  26.046  14.071  12.097
60982W        W27523  24.741  18.607  11.497
60983W        W27524  14.049  34.887   2.708
60984W        W27525  23.600  41.270  12.877
60985W        W27526  44.475  38.661   2.380
60986W        W27527   2.953  37.081  14.421
60987W        W27528  12.150  13.630   0.043
60988W        W27529  35.827   0.711   1.802
60989W        W27530  43.235  31.107  14.472
60990W        W27531  20.188  44.294   4.190
60991W        W27532  32.188   6.695  10.709
60992W        W27533  10.140  38.476  14.772
60993W        W27534   4.767   2.530  11.633
60994W        W27535  43.867  16.079  14.062
60995W        W27536  14.711  22.699  12.434
60996W        W27537  30.169  20.932   4.933
60997W        W27538  28.016  32.985   0.487
60998W        W27539  12.135  43.950   3.034
60999W        W27540  42.023   1.965  13.847
61000W        W27541  26.254  40.238  10.799
61001W        W27542  19.421  40.420  11.608
61002W        W27543  24.627   3.255   1.805
61003W        W27544   8.991  15.978  12.972
61004W        W27545  21.699  44.904   0.305
61005W        W27546  30.618  25.758  11.560
61006W        W27547  27.127  42.520   1.359
61007W        W27548  28.424  26.163  12.875
61008W        W27549  44.581  42.280   2.835
61009W        W27550  25.528  41.821   2.348
61010W        W27551   9.637  20.192   0.424
61011W        W27552  21.634  27.554   4.422
61012W        W27553  23.774  21.025   3.888
61013W        W27554   2.447  10.908  14.383
61014W        W27555   8.869  19.632  13.863
61015W        W27556  23.531  19.738  10.643
61016W        W27557  28.966  14.802   2.328
61017W        W27558  30.021   1.208  14.328
61018W        W27559  31.664  17.272  13.300
61019W        W27560   7.283  15.156   4.805
61020W        W27561  22.594  27.650  10.226
61021W        W27562   1.270   7.409  13.027
61022W        W27563  29.500  19.180   4.785
61023W        W27564  26.448  21.946  12.436
61024W        W27565  25.119  26.631  11.831
61025W        W27566  34.451   0.831   2.818
61026W        W27567  41.342  36.583   4.585
61027W        W27568  20.231  10.188  12.433
61028W        W27569   5.214  14.012   3.145
61029W        W27570  17.254   0.850   1.159
61030W        W27571  36.903  33.849  13.399
61031W        W27572  31.674  37.881  13.323
61032W        W27573  23.024  17.785   0.678
61033W        W27574  33.320   2.415  12.154
61034W        W27575  40.021  41.084  12.095
61035W        W27576  20.538  30.441  11.902
61036W        W27577   8.922   2.683   2.902
61037W        W27578   2.511  37.940   1.754
61038W        W27579   6.172   1.129   1.784
61039W        W27580  26.618   7.374   1.371
61040W        W27581   5.183  35.760  11.137
61041W        W27582  26.688   2.890  12.570
61042W        W27583  30.582  17.624   3.359
61043W        W27584  19.258   5.562   3.889
61044W        W27585   1.226  12.721   4.497
61045W        W27586   7.739  14.349  14.078
61046W        W27587  27.130  30.393   4.024
61047W        W27588   3.057  25.214   1.044
61048W        W27589  33.075  15.274   3.267
61049W        W27590  38.935   3.206   4.052
61050W        W27591  18.166   4.267   0.491
61051W        W27592  14.016  28.863   3.234
61052W        W27593   7.102  20.522   3.377
61053W        W27594  24.032  28.657   1.886
61054W        W27595  41.849  29.669   0.420
61055W        W27596   0.406  30.097  14.925
61056W        W27597  38.523  36.058  10.638
61057W        W27598   3.299  24.397   3.138
61058W        W27599  20.602   8.862  11.923
61059W        W27600  40.853   3.902   2.606
61060W        W27601   9.305  25.024   3.724
61061W        W27602  42.503  39.997   0.473
61062W        W27603  41.614  43.815   4.697
61063W        W27604   7.440  21.034   2.309
61064W        W27605   0.347   7.299   2.922
61065W        W27606  41.124  18.376   1.433
61066W        W27607  20.681   5.145  10.416
61067W        W27608  25.383  30.034  13.322
61068W        W27609  27.002  34.602  14.323
61069W        W27610   1.284  33.532  10.670
61070W        W27611  24.645  11.601   1.845
61071W        W27612  18.698  23.213   4.339
61072W        W27613  44.687  22.533   4.129
61073W        W27614  26.126  35.865  10.681
61074W        W27615   1.934  42.689   3.142
61075W        W27616  36.172  38.347   1.973
61076W        W27617  40.239  30.974  11.197
61077W        W27618   5.347  20.251   4.773
61078W        W27619   6.012  37.292   0.286
61079W        W27620  19.105  17.157   2.869
61080W        W27621  30.484   1.438  13.586
61081W        W27622  30.454  21.681  14.483
61082W        W27623  35.355  39.558   3.655
61083W        W27624  31.646  38.103   2.808
61084W        W27625   0.842  16.695  14.314
61085W        W27626  35.079  36.227  11.119
61086W        W27627  12.782  12.399  13.800
61087W        W27628  13.615  23.250  12.503
61088W        W27629  28.067  21.549   1.842
61089W        W27630  19.698   5.480  11.973
61090W        W27631  39.193  34.152  11.130
61091W        W27632  22.739  24.970  13.992
61092W        W27633  18.188   1.290  14.444
61093W        W27634  42.810  22.028   1.769
61094W        W27635   0.870   6.833   0.485
61095W        W27636  20.757   3.736   3.757
61096W        W27637  28.926  14.371   1.327
61097W        W27638  17.621  19.022   4.111
61098W        W27639  31.053  21.230   3.320
61099W        W27640   9.139   7.763  13.039
61100W        W27641  22.152  19.800  14.309
61101W        W27642   7.863  44.722  13.908
61102W        W27643  10.853  24.293   3.161
61103W        W27644  42.326   8.226  11.099
61104W        W27645   3.477  28.570   1.295
61105W        W27646   7.851   5.524  13.993
61106W        W27647  14.756  33.799  10.733
61107W        W27648  14.282  18.674   4.836
61108W        W27649  44.422   1.429   0.335
61109W        W27650   2.280  24.496  13.390
61110W        W27651  34.073  30.457   2.027
61111W        W27652  39.667   0.243   3.643
61112W        W27653  28.232  42.925  10.082
61113W        W27654  38.637  30.571   4.271
61114W        W27655  17.634  30.736   0.895
61115W        W27656  25.688   5.498   1.378
61116W        W27657  26.605   0.545   0.947
61117W        W27658  15.158  31.598  12.552
61118W        W27659  39.816  18.390   2.249
61119W        W27660  33.014  12.042  10.161
61120W        W27661  35.953  15.368   1.198
61121W        W27662  24.159  30.495  12.349
61122W        W27663  14.248  39.249   0.581
61123W        W27664  32.481  14.265   1.448
61124W        W27665  31.293   9.496  13.490
61125W        W27666  22.723  11.058  10.704
61126W        W27667  42.808  18.022  13.167
61127W        W27668  16.325  37.436  10.867
61128W        W27669  35.853   3.366  12.351
61129W        W27670  13.597   7.899  12.030
61130W        W27671  17.598  29.675  14.307
61131W        W27672   6.270  11.337   1.625
61132W        W27673  39.431   3.019   4.159
61133W        W27674  31.441   7.146  10.564
61134W        W27675  31.561  19.397  13.405
61135W        W27676  12.362  16.243   3.189
61136W        W27677  23.038  24.209   4.321
61137W        W27678  23.524   2.733   2.274
61138W        W27679   4.922  31.079  11.246
61139W        W27680   2.631   4.696  11.510
61140W        W27681  39.557  11.939  14.165
61141W        W27682  40.494  10.346  11.299
61142W        W27683  14.116  35.390   4.357
61143W        W27684   8.310  35.795  12.113
61144W        W27685  31.418  31.450   4.633
61145W        W27686   0.474   7.227  14.391
61146W        W27687   1.809  25.904   9.667
61147W        W27688  29.881  15.668   1.740
61148W        W27689  22.783  27.323   4.931
61149W        W27690  15.549  22.611  12.130
61150W        W27691  30.966  32.121  13.924
61151W        W27692  22.680   5.705   0.961
61152W        W27693   9.737  12.756  13.814
61153W        W27694  14.719  21.818  13.429
61154W        W27695  11.826   6.060   5.123
61155W        W27696   6.859   8.446  12.894
61156W        W27697   5.446   7.425   3.389
61157W        W27698   8.185  40.348  14.008
61158W        W27699  33.370  33.359   1.396
61159W        W27700  10.071  16.116   4.503
61160W        W27701  21.220  29.061   0.330
61161W        W27702  32.659  43.163  11.942
61162W        W27703   9.082  18.676  10.531
61163W        W27704  16.424  18.171  13.060
61164W        W27705   9.492  16.374  12.054
61165W        W27706  21.805  12.026   0.298
61166W        W27707  33.658  36.539  11.978
61167W        W27708  38.895  42.455   2.643
61168W        W27709  38.347   8.218  12.991
61169W        W27710  16.238  17.799  12.124
61170W        W27711   5.403  38.852   0.688
61171W        W27712  12.136  11.966  10.569
61172W        W27713   0.328  27.467  11.985
61173W        W27714  34.627   6.485   3.054
61174W        W27715  17.488   5.216   4.491
61175W        W27716  20.309  15.359   0.001
61176W        W27717  43.467  19.601   3.233
61177W        W27718   0.398  44.095   0.272
61178W        W27719  29.085   9.451  11.146
61179W        W27720  40.584  29.333  12.572
61180W        W27721  25.557  25.469  11.623
61181W        W27722  12.166  20.022  14.215
61182W        W27723  36.594  37.482   1.287
61183W        W27724  11.544  25.768  10.759
61184W        W27725  24.775  21.928  12.164
61185W        W27726   8.286   8.163   1.266
61186W        W27727   8.570  43.810   3.799
61187W        W27728  43.760  39.504  13.606
61188W        W27729  20.179   0.968   9.993
61189W        W27730  31.485   0.914   0.510
61190W        W27731  28.383  37.906  10.666
61191W        W27732  41.445   3.553  12.919
61192W        W27733  16.144  22.890  12.752
61193W        W27734  32.059  34.022  10.347
61194W        W27735  27.375  23.781   4.732
61195W        W27736   4.112  26.121   0.666
61196W        W27737  25.234  44.394   1.204
61197W        W27738  43.633  21.109   3.618
61198W        W27739  31.006   1.157   3.639
61199W        W27740  26.657   6.753   2.764
61200W        W27741  17.736  22.972   2.784
61201W        W27742   4.479  33.471  13.018
61202W        W27743  16.814  12.289   0.860
61203W        W27744   6.702  13.670  14.687
61204W        W27745  36.595   4.772  12.879
61205W        W27746   4.665  35.181  10.460
61206W        W27747  41.043  17.378   0.422
61207W        W27748   2.261  24.696   3.700
61208W        W27749  28.586  28.899  14.954
61209W        W27750   5.329  33.096  14.250
61210W        W27751  33.898  16.223   3.856
61211W        W27752  12.000  44.410   4.761
61212W        W27753  39.172  25.083   4.498
61213W        W27754  34.456  28.241   1.815
61214W        W27755  10.952  11.770  11.574
61215W        W27756  18.738   9.833   3.330
61216W        W27757  44.857  16.203   4.395
61217W        W27758   3.257   5.217  10.917
61218W        W27759   3.863  16.221   4.802
61219W        W27760  24.369  35.925  14.930
61220W        W27761  33.429   4.237   0.695
61221W        W27762  20.676  38.540  11.508
61222W        W27763  18.610  33.945  10.820
61223W        W27764  39.497   7.947  13.385
61224W        W27765   4.363  12.155   0.828
61225W        W27766  43.382  38.914   3.060
61226W        W27767   8.432  39.393   0.808
61227W        W27768  37.351  43.957  12.020
61228W        W27769  39.176  32.513   0.343
61229W        W27770  38.071  39.080   3.177
61230W        W27771  21.820  13.845   2.747
61231W        W27772  39.812  24.486  14.996
61232W        W27773  44.648  23.293   3.181
61233W        W27774   2.232  13.898  14.331
61234W        W27775  36.027  42.007   4.453
61235W        W27776  28.447   0.787   2.803
61236W        W27777   0.898  13.490  13.046
61237W        W27778  16.234  15.852  13.275
61238W        W27779  26.690  22.468  11.588
61239W        W27780   1.404   4.285   0.552
61240W        W27781  19.615  17.308  12.211
61241W        W27782  20.580   5.859   1.727
61242W        W27783  34.980  26.045  14.806
61243W        W27784   2.888  19.064   2.958
61244W        W27785  40.620  18.211  13.372
61245W        W27786  27.597   8.146  13.988
61246W        W27787   7.754  14.185  11.205
61247W        W27788  37.482  37.718  11.218
61248W        W27789  42.500  21.110  12.480
61249W        W27790  32.100  33.313   3.871
61250W        W27791  15.457  18.754   0.233
61251W        W27792   3.385  20.961  12.102
61252W        W27793   3.244  20.200  13.438
61253W        W27794  25.061  16.844   3.412
61254W        W27795   0.285  10.371  10.876
61255W        W27796   8.718   6.986   4.661
61256W        W27797  18.060   6.983   3.354
61257W        W27798   8.461  41.956   0.045
61258W        W27799  25.539  34.967  13.030
61259W        W27800  15.132  12.279  11.461
61260W        W27801  29.653  28.414   0.371
61261W        W27802  13.658  40.843   4.073
61262W        W27803  39.680   3.251  12.550
61263W        W27804   3.379  38.368   0.003
61264W        W27805  41.038  30.024   0.470
61265W        W27806  24.335  37.596   2.898
61266W        W27807  24.015  23.009  10.731
61267W        W27808  14.075  27.478   4.173
61268W        W27809   9.129  26.963  10.862
61269W        W27810  28.434   8.676   5.409
61270W        W27811  37.075  19.284  12.919
61271W        W27812  29.347  21.619   2.356
61272W        W27813  21.501   2.209  14.658
61273W        W27814  35.209  11.161  10.639
61274W        W27815  34.472   3.270  11.447
61275W        W27816  20.531  24.280  11.692
61276W        W27817  39.558  37.378  10.430
61277W        W27818   0.268   2.722   0.362
61278W        W27819   0.910   3.399  13.506
61279W        W27820   4.310  39.414   2.902
61280W        W27821  37.033  12.188  12.460
61281W        W27822  32.296  27.217   2.690
61282W        W27823  35.352  15.669   4.949
61283W        W27824  10.043  43.945  11.133
61284W        W27825  42.531  25.492  13.377
61285W        W27826  42.047  30.129  11.842
61286W        W27827  28.948  37.904  14.009
61287W        W27828  27.841  44.283  11.008
61288W        W27829  24.355  27.196  11.909
61289W        W27830  28.464  18.748  14.949
61290W        W27831  38.797  36.952   1.896
61291W        W27832  24.551  42.346   4.218
61292W        W27833  41.589  33.635   4.104
61293W        W27834  36.554  31.518   3.418
61294W        W27835  37.778  21.772  11.567
61295W        W27836  41.524   0.569   0.009
61296W        W27837  25.629   0.527   0.045
61297W        W27838  20.259  24.445   1.300
61298W        W27839  29.389  12.165  12.156
61299W        W27840  17.053  30.043  11.091
61300W        W27841  43.005  22.168  11.121
61301W        W27842  40.439  42.126   4.605
61302W        W27843  37.841  37.350   1.794
61303W        W27844  25.135  22.540  10.711
61304W        W27845  37.073  40.933   1.329
61305W        W27846  34.616  13.330   1.190
61306W        W27847  32.527  34.444   3.550
61307W        W27848   5.666  11.210  13.263
61308W        W27849   2.387  29.534   2.146
61309W        W27850  32.782   8.274   3.224
61310W        W27851  41.685   0.174   2.172
61311W        W27852  36.034  33.314   3.752
61312W        W27853  12.365  38.399  14.440
61313W        W27854  40.410  35.585   3.611
61314W        W27855  20.714   8.723  14.967
61315W        W27856   0.690  41.548  11.964
61316W        W27857   6.132   4.205  13.529
61317W        W27858   4.087   7.853   0.694
61318W        W27859   3.998  34.652  10.636
61319W        W27860   2.259  42.974   2.810
61320W        W27861   7.917  16.811  12.021
61321W        W27862  16.672  37.503  11.675
61322W        W27863  25.275   1.297  14.258
61323W        W27864  17.752  43.764  12.499
61324W        W27865  33.319  41.969   4.246
61325W        W27866  44.550  10.624  11.988
61326W        W27867  11.804  25.071  14.622
61327W        W27868  31.451  44.089  11.183
61328W        W27869  31.686  16.751   9.903
61329W        W27870  21.671  34.602  13.594
61330W        W27871  41.965  24.645   1.707
61331W        W27872  43.181  13.161   3.196
61332W        W27873  26.121  30.018  11.116
61333W        W27874  11.326  26.104   0.861
61334W        W27875   1.001  19.087  12.018
61335W        W27876  36.068  39.034  13.185
61336W        W27877  16.328  13.959   1.994
61337W        W27878  19.459   1.764   4.965
61338W        W27879   0.409  37.973   4.219
61339W        W27880  20.940  31.621  12.872
61340W        W27881  23.109   6.812   4.068
61341W        W27882   0.817  34.165  12.045
61342W        W27883   6.399  37.464  14.003
61343W        W27884  43.985  13.593  14.445
61344W        W27885   3.713  30.506   3.757
61345W        W27886  40.309  36.904   3.366
61346W        W27887   7.970  41.542   3.216
61347W        W27888  11.255  30.726   4.855
61348W        W27889   3.429  19.232   1.844
61349W        W27890  12.546   7.393   0.611
61350W        W27891  36.949   4.815  12.044
61351W        W27892   6.232  44.880   0.832
61352W        W27893   5.284  15.029   0.362
61353W        W27894  31.622  34.702   4.201
61354W        W27895  44.263  43.338  12.156
61355W        W27896  31.614  27.111  13.829
61356W        W27897  30.614  38.124   2.843
61357W        W27898  35.453  44.266  13.051
61358W        W27899  44.034  11.105  13.336
61359W        W27900  22.277   3.360   2.171
61360W        W27901  42.931  26.250  13.530
61361W        W27902  38.929  27.936  10.664
61362W        W27903  43.906  14.210  11.609
61363W        W27904   2.672  19.262   3.384
61364W        W27905  14.073  26.334   2.249
61365W        W27906   4.328  39.475  14.549
61366W        W27907  29.131  36.943   3.268
61367W        W27908  29.657  43.747  13.560
61368W        W27909  13.323  25.237   5.156
61369W        W27910  22.998  12.050  14.512
61370W        W27911  35.621  43.871  11.192
61371W        W27912  28.067  38.600   1.659
61372W        W27913  11.203  28.442   1.157
61373W        W27914  31.911  25.600  12.323
61374W        W27915  34.758  12.693   4.389
61375W        W27916  12.573   1.022   2.227
61376W        W27917   0.620  20.251   1.251
61377W        W27918  12.457  34.004  13.049
61378W        W27919  37.548   2.894  10.611
61379W        W27920   4.680  17.792   3.503
61380W        W27921  17.348  39.517   1.760
61381W        W27922  43.399  24.450   3.296
61382W        W27923   1.995   8.273  12.265
61383W        W27924   8.161  30.623   1.907
61384W        W27925   6.398  24.534   2.707
61385W        W27926  37.369  19.177  13.352
61386W        W27927  20.859  22.303  13.058
61387W        W27928  25.558  29.462   2.696
61388W        W27929  22.241  40.643  13.867
61389W        W27930  26.684  37.322   1.359
61390W        W27931  27.481  17.581  11.032
61391W        W27932  26.094  22.453  12.056
61392W        W27933  10.858   7.666  11.534
61393W        W27934  13.926   1.702  11.120
61394W        W27935  40.551  19.754   4.471
61395W        W27936   2.000  16.668  14.775
61396W        W27937   3.765  22.483  14.064
61397W        W27938  17.091  18.298  12.009
61398W        W27939  11.320   6.213   2.211
61399W        W27940  26.068  11.101  12.279
61400W        W27941   5.551   1.176   4.946
61401W        W27942  20.795  43.921   3.188
61402W        W27943  27.793   8.681   0.810
61403W        W27944  37.504  16.239   2.326
61404W        W27945  16.380  24.012   4.853
61405W        W27946  40.699  25.633  12.023
61406W        W27947  36.951   6.202  10.515
61407W        W27948   0.490  29.363   1.792
61408W        W27949  37.983  27.942   2.805
61409W        W27950  23.087  25.234   0.183
61410W        W27951  28.861  11.733  10.638
61411W        W27952  42.521  43.100   0.450
61412W        W27953  17.981  30.611   3.117
61413W        W27954  26.950  16.932   4.660
61414W        W27955  44.895  15.510  10.176
61415W        W27956  39.105  36.248  11.275
61416W        W27957   3.317   9.853  14.829
61417W        W27958  12.712  19.741   4.124
61418W        W27959  24.972  29.599   5.018
61419W        W27960  44.756  16.742   2.763
61420W        W27961   6.750  21.674   2.371
61421W        W27962  36.859  25.081  14.693
61422W        W27963  42.870  41.515   0.767
61423W        W27964   2.970  25.620   2.800
61424W        W27965   5.347  31.214   4.577
61425W        W27966  38.892  42.366   4.115
61426W        W27967  32.845   1.770  10.176
61427W        W27968  33.434  43.779   1.768
61428W        W27969  44.976  17.385  11.485
61429W        W27970  31.427  33.415   1.656
61430W        W27971  38.134  29.994   1.480
61431W        W27972  27.514  20.076   4.015
61432W        W27973   2.305  13.617  13.871
61433W        W27974  19.167  31.648   0.912
61434W        W27975   6.259  35.655  12.921
61435W        W27976   8.011  42.821  13.973
61436W        W27977   2.392  18.315  13.425
61437W        W27978  24.185  43.032  13.950
61438W        W27979  33.131  32.884   1.447
61439W        W27980  19.073  26.172   0.431
61440W        W27981   3.184  20.645  10.500
61441W        W27982  16.236  23.274   2.563
61442W        W27983  27.403  44.520   4.676
61443W        W27984  20.103  30.907   3.155
61444W        W27985   4.929  21.400  13.602
61445W        W27986  17.789  36.927  13.931
61446W        W27987  40.100  10.555   2.325
61447W        W27988   7.353  29.902  10.467
61448W        W27989   3.178  37.267  11.999
61449W        W27990  42.569   4.707   0.780
61450W        W27991  29.995   8.681   2.621
61451W        W27992   4.113  20.577  12.605
61452W        W27993  42.448  40.838   1.868
61453W        W27994  10.345  22.268  11.182
61454W        W27995   4.712   0.692   4.013
61455W        W27996  18.244  38.777   2.781
61456W        W27997  24.366  19.777  12.482
61457W        W27998  34.700   5.624   3.626
61458W        W27999  17.154  12.738   0.009
61459W        W28000  17.571  27.172  14.423
61460W        W28001  31.000   3.773  10.317
61461W        W28002  41.809   6.012  14.116
61462W        W28003  19.452  18.561  11.270
61463W        W28004  44.859  11.280  13.110
61464W        W28005  41.224  22.859  11.467
61465W        W28006  12.878   5.859   0.382
61466W        W28007  33.391   8.203  12.976
61467W        W28008  43.944   6.173  10.938
61468W        W28009  43.373  13.233  12.536
61469W        W28010  33.056   9.367   0.437
61470W        W28011  10.305  18.214  13.380
61471W        W28012  20.287  17.607  14.724
61472W        W28013  43.718  31.190  13.096
61473W        W28014   9.804  21.007   4.538
61474W        W28015  10.279  23.705  13.021
61475W        W28016  34.135  29.585  11.137
61476W        W28017  30.863  26.663   4.057
61477W        W28018  35.143  23.687  10.755
61478W        W28019  33.846  41.846  12.802
61479W        W28020   2.461  13.006  12.560
61480W        W28021  22.725   2.943  11.778
61481W        W28022  27.053  15.980   1.426
61482W        W28023  10.142   6.293   3.198
61483W        W28024  20.483  28.872   4.135
61484W        W28025   6.383  42.323  11.952
61485W        W28026  14.632  42.308  10.545
61486W        W28027  29.247  33.334  13.372
61487W        W28028  15.734  35.931   0.761
61488W        W28029  11.404  35.452  12.794
61489W        W28030  23.622  29.855  13.847
61490W        W28031   9.090  24.388   4.749
61491W        W28032  10.599  17.363  13.867
61492W        W28033   1.009  28.996  13.338
61493W        W28034  38.929   2.577   4.668
61494W        W28035  41.986  42.189  11.508
61495W        W28036   1.815  30.221  12.040
61496W        W28037  15.811  14.161  14.347
61497W        W28038  25.598  31.625   0.836
61498W        W28039   8.882  44.413  10.291
61499W        W28040  30.204   9.878  10.629
61500W        W28041  27.029  26.556   2.321
61501W        W28042   8.672  18.819   4.510
61502W        W28043   0.970  40.351  14.392
61503W        W28044  44.794  44.953  11.287
61504W        W28045  17.663  31.639  10.871
61505W        W28046  38.075  36.534  11.641
61506W        W28047  18.658  43.271   4.578
61507W        W28048  19.113   2.168  11.547
61508W        W28049   9.156  12.269  14.790
61509W        W28050  28.975   1.668   4.837
61510W        W28051   9.672   9.584   4.557
61511W        W28052   9.708   3.345  12.530
61512W        W28053  44.493   7.703  11.560
61513W        W28054  18.632  20.243  13.119
61514W        W28055  23.570  25.736  14.047
61515W        W28056  19.521  43.263  12.456
61516W        W28057  35.498  41.476  11.829
61517W        W28058  20.564  38.432   0.711
61518W        W28059  21.256  15.356   0.224
61519W        W28060   6.614  27.469   2.910
61520W        W28061   2.640   9.615  14.784
61521W        W28062  10.680  20.152  12.030
61522W        W28063   7.751  15.073  11.423
61523W        W28064  37.039  23.607   2.920
61524W        W28065  27.240  35.529   4.283
61525W        W28066  43.862  22.157   3.270
61526W        W28067  22.238  12.217   2.780
61527W        W28068  37.455  23.886  11.976
61528W        W28069  10.340  40.467  11.656
61529W        W28070  25.688  22.305   1.903
61530W        W28071   7.208  29.898  10.956
61531W        W28072  25.536   7.746  10.652
61532W        W28073  23.574   7.760   1.144
61533W        W28074  16.194  14.315   3.721
61534W        W28075  42.162  20.834   3.674
61535W        W28076   7.530  18.109  11.254
61536W        W28077   9.979  19.563  12.992
61537W        W28078  17.985  18.526  12.052
61538W        W28079  32.111   7.606  12.248
61539W        W28080   1.685  24.472   4.730
61540W        W28081  41.135  41.088  12.611
61541W        W28082  26.552  36.054   3.725
61542W        W28083  26.110  16.621   0.228
61543W        W28084  12.841  16.803   4.284
61544W        W28085  28.534  40.405  12.408
61545W        W28086  20.650  32.175  11.440
61546W        W28087  11.266  17.113   0.339
61547W        W28088  23.257  27.184  14.509
61548W        W28089  35.599  12.874  10.515
61549W        W28090   6.879  35.036   3.183
61550W        W28091  38.450  37.850  13.420
61551W        W28092  21.238  25.857  11.089
61552W        W28093  22.431   9.754   3.769
61553W        W28094  30.176  30.391   3.748
61554W        W28095  18.270  19.147   0.549
61555W        W28096  28.038  20.798   2.329
61556W        W28097  26.951  34.126   1.658
61557W        W28098  17.633  13.102  12.904
61558W        W28099  37.179  44.890  12.066
61559W        W28100   9.190  23.291  14.930
61560W        W28101  39.309   2.239  10.563
61561W        W28102   4.840  34.360   4.654
61562W        W28103  11.377  18.806   1.965
61563W        W28104  41.287  35.937  11.141
61564W        W28105  39.571  16.998  13.310
61565W        W28106   5.843  13.635   3.793
61566W        W28107   3.790  36.770   3.257
61567W        W28108  12.673  16.257  11.046
61568W        W28109  35.030   4.892  12.038
61569W        W28110  41.701  20.448  13.841
61570W        W28111  10.605  16.651   3.592
61571W        W28112  38.712  12.756  14.907
61572W        W28113  43.453   1.839   0.757
61573W        W28114  29.412  17.346   1.219
61574W        W28115  28.979  41.997  11.873
61575W        W28116   6.359  36.930  12.898
61576W        W28117  20.470  38.848   2.714
61577W        W28118  43.746  30.581   4.572
61578W        W28119   8.214  35.864   5.024
61579W        W28120  43.397   3.439  13.467
61580W        W28121  43.350   6.191   1.952
61581W        W28122  21.039  26.677  13.293
61582W        W28123  38.542  37.432  13.133
61583W        W28124  32.294  10.640   1.499
61584W        W28125  19.220  25.608   2.177
61585W        W28126  38.046   7.673  14.305
61586W        W28127  43.946  34.316  12.897
61587W        W28128  39.565  38.885   0.758
61588W        W28129  14.957   3.785   0.417
61589W        W28130  20.989   5.765  13.430
61590W        W28131   1.609   5.820  11.184
61591W        W28132  42.138  12.809  10.734
61592W        W28133  20.151   0.409  10.581
61593W        W28134  15.405   5.836   4.136
61594W        W28135  35.929   4.911   2.174
61595W        W28136  29.176  16.475   3.244
61596W        W28137  37.853  31.426   4.858
61597W        W28138  13.823   3.725  10.743
61598W        W28139  33.205  20.013  12.632
61599W        W28140  31.915  30.291  14.807
61600W        W28141  30.480   2.916   3.316
61601W        W28142  32.521  42.841  11.559
61602W        W28143   0.264  14.568  13.286
61603W        W28144  26.467  37.449   0.518
61604W        W28145   7.789  11.464   2.107
61605W        W28146  23.142   7.616   0.256
61606W        W28147   2.817   9.451   4.007
61607W        W28148   7.783   1.539  11.990
61608W        W28149  28.108  24.880   4.499
61609W        W28150  11.027   7.702  14.363
61610W        W28151  16.711   8.283   2.943
61611W        W28152   3.234  32.409   0.359
61612W        W28153  41.421  12.361  14.136
61613W        W28154   0.943   5.753   4.646
61614W        W28155  41.944   5.721   4.806
61615W        W28156  35.947  33.326   4.630
61616W        W28157   1.369   7.319   4.414
61617W        W28158  13.313  18.917   3.652
61618W        W28159   4.397  39.735  10.682
61619W        W28160  37.502  35.306   2.321
61620W        W28161  26.539  41.718   0.441
61621W        W28162  33.979  34.370  12.028
61622W        W28163  40.154  12.694  12.471
61623W        W28164  13.297  27.598   0.857
61624W        W28165  23.796  28.355   1.526
61625W        W28166  34.538  17.532  12.548
61626W        W28167  35.983  11.405   1.350
61627W        W28168  23.217  22.475  11.106
61628W        W28169   5.855  22.254  13.938
61629W        W28170  40.717  37.928  10.595
61630W        W28171  44.385  24.099  10.505
61631W        W28172  39.062  23.878  11.608
61632W        W28173  35.040  19.207  11.429
61633W        W28174  40.775  29.468   1.298
61634W        W28175  21.199  18.052  12.526
61635W        W28176  31.151   3.336  11.274
61636W        W28177  31.502  42.530  13.012
61637W        W28178   8.918  27.046   4.160
61638W        W28179   7.146  20.199   0.336
61639W        W28180  33.460  33.972  10.133
61640W        W28181  28.064  28.604  12.429
61641W        W28182  36.295   0.390  10.642
61642W        W28183  17.186  30.734   3.265
61643W        W28184  39.146  40.156   2.090
61644W        W28185  20.130  42.133   3.116
61645W        W28186  22.015   2.173  11.068
61646W        W28187   2.444  27.320   1.866
61647W        W28188  43.064  22.822   0.704
61648W        W28189  24.020  23.931   4.159
61649W        W28190  43.052   0.501  10.471
61650W        W28191  10.894   5.867   2.332
61651W        W28192  34.335  44.398  11.599
61652W        W28193   5.521   0.801   4.350
61653W        W28194  24.773   0.388  11.694
61654W        W28195  35.508  41.678  13.139
61655W        W28196  40.187  18.160  13.046
61656W        W28197  28.004  26.455   4.596
61657W        W28198  24.904  24.193   0.457
61658W        W28199   3.251  12.824   3.833
61659W        W28200  37.729  40.947   2.801
61660W        W28201  21.787   1.876  14.378
61661W        W28202  37.473   2.523  14.825
61662W        W28203  25.359  27.662   2.288
61663W        W28204  18.779  29.988  13.492
61664W        W28205  35.195  38.477  13.922
61665W        W28206   4.718  33.656   1.715
61666W        W28207   7.729  18.753  13.364
61667W        W28208  42.426   4.017  14.216
61668W        W28209  10.021  26.565   4.717
61669W        W28210   4.408  38.910   3.029
61670W        W28211  33.436  11.322  13.105
61671W        W28212   9.459   3.909  11.217
61672W        W28213  31.495  13.929   2.137
61673W        W28214  33.479  17.773   3.841
61674W        W28215  26.307   3.581  12.080
61675W        W28216  34.477  40.568  13.234
61676W        W28217   1.344  15.308   4.458
61677W        W28218  16.534   3.955   0.416
61678W        W28219  27.653  10.370   1.879
61679W        W28220  40.028  38.442  12.848
61680W        W28221  19.299  16.024   0.309
61681W        W28222   7.482   9.398   0.480
61682W        W28223   1.815   7.828  14.008
61683W        W28224  36.547   2.778  12.101
61684W        W28225  16.086  13.212   3.606
61685W        W28226  29.194   9.325  12.893
61686W        W28227  29.594   2.999  12.529
61687W        W28228  41.877   0.400   1.739
61688W        W28229   5.446  41.576  10.682
61689W        W28230  37.769  24.322  12.532
61690W        W28231  32.415  27.727  14.008
61691W        W28232  29.010  16.230  13.103
61692W        W28233  41.592  19.572   1.862
61693W        W28234  27.636  37.546  14.755
61694W        W28235   8.402  23.585   1.154
61695W        W28236   0.276   6.294   4.365
61696W        W28237  39.571  39.620   3.885
61697W        W28238  30.541  38.994   3.580
61698W        W28239  39.018  33.349  10.116
61699W        W28240  16.059  20.940  14.351
61700W        W28241  30.052  29.167  12.163
61701W        W28242  18.145  28.440   2.958
61702W        W28243  34.660  36.547  11.158
61703W        W28244  26.171  21.742  14.895
61704W        W28245   9.111  40.267  12.906
61705W        W28246  15.877  24.078   3.651
61706W        W28247  28.258  26.697  12.862
61707W        W28248  41.777  23.735   3.291
61708W        W28249  29.222  35.457  10.735
61709W        W28250  16.236  17.810  14.501
61710W        W28251  33.462   3.426  11.958
61711W        W28252   1.858  11.283   0.355
61712W        W28253  41.350   1.785  14.458
61713W        W28254  28.702  37.292  11.327
61714W        W28255  14.373  44.468   1.798
61715W        W28256  29.611  18.273  11.224
61716W        W28257   4.267  21.250   4.590
61717W        W28258  11.609   5.986  13.961
61718W        W28259  10.263  42.239   0.979
61719W        W28260  38.848  29.108   3.815
61720W        W28261  18.177  19.601   4.330
61721W        W28262  15.185  23.888   3.252
61722W        W28263  31.540  15.645   9.929
61723W        W28264  21.816  11.479   0.250
61724W        W28265  27.559  19.293  14.956
61725W        W28266  30.614  33.931  12.478
61726W        W28267   5.267  40.848  14.872
61727W        W28268  17.637  34.511   1.946
61728W        W28269  13.528  35.662   2.421
61729W        W28270  13.584  31.041  12.569
61730W        W28271  29.680   6.093  14.085
61731W        W28272  43.230   7.289   0.413
61732W        W28273   7.087  29.389   4.486
61733W        W28274   7.510  35.829  12.082
61734W        W28275  11.303  38.303   1.236
61735W        W28276  21.115   0.151  14.428
61736W        W28277  32.614  12.277  12.986
61737W        W28278  11.131  24.967   3.718
61738W        W28279  31.903  16.636   2.370
61739W        W28280   4.817  31.537   3.624
61740W        W28281  10.025  43.569   2.252
61741W        W28282   9.067  28.681   3.413
61742W        W28283  14.160  18.287   4.490
61743W        W28284  18.797  26.388   3.768
61744W        W28285  41.034  44.259  10.600
61745W        W28286  27.701  30.542  13.587
61746W        W28287  37.067  36.455  14.734
61747W        W28288  11.225  28.964   1.314
61748W        W28289   0.798  40.940   0.144
61749W        W28290  18.100   0.422  10.789
61750W        W28291  28.756  41.561   0.886
61751W        W28292  15.636  29.516  13.055
61752W        W28293  28.193  43.873  10.866
61753W        W28294  30.370   7.401   4.081
61754W        W28295  32.595  29.658  10.697
61755W        W28296  20.643   3.291  10.745
61756W        W28297  22.495  27.583   3.935
61757W        W28298   9.176  41.554  12.538
61758W        W28299   9.307  40.181   0.903
61759W        W28300   8.638  14.149  11.648
61760W        W28301  31.377   7.946   2.653
61761W        W28302   0.449   7.636  11.370
61762W        W28303   1.974   5.478  14.324
61763W        W28304  20.312  13.314  12.189
61764W        W28305   4.104  37.601  12.502
61765W        W28306   8.658  38.170   3.899
61766W        W28307  42.797  24.560   0.364
61767W        W28308  33.020   4.571   1.307
61768W        W28309  20.496   1.997   0.399
61769W        W28310  28.117  41.263  12.944
61770W        W28311  14.359  13.055   1.880
61771W        W28312  13.778  17.418  11.195
61772W        W28313  26.445   7.710  11.670
61773W        W28314  11.678  38.002  10.553
61774W        W28315   4.702  17.501   3.074
61775W        W28316  16.221   3.240   4.500
61776W        W28317  32.408  34.378   1.859
61777W        W28318  14.113   4.842  11.434
61778W        W28319  25.963  16.782   3.794
61779W        W28320  17.845  29.497  10.618
61780W        W28321   4.683   2.006   2.265
61781W        W28322  43.078  23.550   4.651
61782W        W28323  28.081   1.340  14.126
61783W        W28324  24.449  42.350  14.057
61784W        W28325  32.637  24.105   2.358
61785W        W28326  20.944  25.410  14.183
61786W        W28327  42.961  43.392  14.233
61787W        W28328   5.679  29.955   1.236
61788W        W28329  24.024  40.780  10.705
61789W        W28330  28.205  13.534   2.812
61790W        W28331  20.262   7.828   2.594
61791W        W28332  24.229  39.861  12.889
61792W        W28333   9.016  43.729  12.986
61793W        W28334   6.384  21.018  12.065
61794W        W28335  14.700   2.103  11.979
61795W        W28336  35.357  37.979  11.499
61796W        W28337   9.638  16.526  10.231
61797W        W28338  38.140  17.799  11.088
61798W        W28339  36.352  38.384   0.891
61799W        W28340  42.028  31.943   0.787
61800W        W28341  37.151  41.117  11.045
61801W        W28342  18.749  21.963   4.557
61802W        W28343   8.364   1.408  14.291
61803W        W28344  11.418  33.737   4.441
61804W        W28345   2.453  38.910   0.421
61805W        W28346  17.087  34.272   2.701
61806W        W28347  22.193   3.877   5.356
61807W        W28348   3.932  35.202   1.418
61808W        W28349   5.385  10.200   4.088
61809W        W28350  10.109  36.469   4.493
61810W        W28351  18.747  24.175   0.289
61811W        W28352  15.702  15.306  12.065
61812W        W28353   9.902  39.138   0.241
61813W        W28354  43.431  41.399   1.456
61814W        W28355  36.330  28.059  10.988
61815W        W28356  28.268  13.758   0.569
61816W        W28357  32.879  16.663   0.518
61817W        W28358   6.888  22.049   2.885
61818W        W28359   2.679   1.858   0.746
61819W        W28360  35.358   5.448   0.177
61820W        W28361  34.473  44.325   0.968
61821W        W28362   3.781  41.494   4.123
61822W        W28363  26.164  11.071   4.799
61823W        W28364   4.326  44.182   4.806
61824W        W28365  28.861  40.283  11.707
61825W        W28366   3.561  31.439  12.185
61826W        W28367   6.426  20.279  12.466
61827W        W28368  18.658   9.962   2.836
61828W        W28369   8.945  29.395   2.222
61829W        W28370  32.016  33.936  13.005
61830W        W28371  15.989  12.979   0.641
61831W        W28372  41.377  38.021   1.325
61832W        W28373   2.260  24.982   9.807
61833W        W28374  17.305  28.159  14.088
61834W        W28375  18.101  16.778   4.262
61835W        W28376   8.477  43.319  12.469
61836W        W28377  22.332  11.351   0.154
61837W        W28378  20.386   9.872   4.191
61838W        W28379  16.938  12.586  12.021
61839W        W28380   3.505  11.940  13.890
61840W        W28381  29.444  32.459   2.274
61841W        W28382   7.818  37.789  11.240
61842W        W28383  17.793   5.719   1.357
61843W        W28384  11.784  13.693   3.392
61844W        W28385  38.091  23.068  13.154
61845W        W28386  33.894  40.449  11.078
61846W        W28387  40.968  11.023   2.964
61847W        W28388  16.462  42.510  14.289
61848W        W28389  41.107  40.237   2.773
61849W        W28390  42.316  29.755  13.818
61850W        W28391  12.573   8.841  11.157
61851W        W28392   5.480  39.437   9.866
61852W        W28393  41.569  16.544   2.647
61853W        W28394  13.520  24.693  10.856
61854W        W28395  21.126   7.690  13.895
61855W        W28396  19.294  26.848  12.823
61856W        W28397  29.112  41.030  13.602
61857W        W28398  17.120  10.767  13.978
61858W        W28399  40.912  15.587   3.257
61859W        W28400  13.259   2.853  14.426
61860W        W28401  38.703   7.281   0.403
61861W        W28402  37.790  42.557  11.871
61862W        W28403  24.079  43.504  14.190
61863W        W28404  32.776  28.596   0.719
61864W        W28405   2.092   6.232  12.010
61865W        W28406  34.016  11.682   1.186
61866W        W28407  36.852  13.678   4.603
61867W        W28408  28.097  34.744  13.665
61868W        W28409   4.658  33.001   0.519
61869W        W28410   2.374  39.924  10.813
61870W        W28411  14.058  25.728  11.501
61871W        W28412  26.949  16.687  11.112
61872W        W28413  20.722  17.307  13.593
61873W        W28414  10.672  22.392   0.375
61874W        W28415  21.549   6.381  13.054
61875W        W28416  33.581  31.478   2.317
61876W        W28417  37.533  14.029   5.365
61877W        W28418  19.213  21.616  11.360
61878W        W28419   0.861  13.011  14.545
61879W        W28420  26.246  27.475   2.308
61880W        W28421  20.753  39.702  14.616
61881W        W28422  28.981  34.950  10.705
61882W        W28423  39.420  41.236   0.681
61883W        W28424  13.789  33.896   3.511
61884W        W28425  25.000   3.245  11.037
61885W        W28426  27.543   5.774   3.949
61886W        W28427  20.256  32.197  10.562
61887W        W28428  23.422  15.345  12.490
61888W        W28429  29.461  28.583  10.643
61889W        W28430  15.218  12.516  13.271
61890W        W28431  35.645  32.233  11.159
61891W        W28432  24.810   0.778   3.471
61892W        W28433  15.325  25.613  12.043
61893W        W28434  41.297  12.522   2.305
61894W        W28435  10.752   0.791  13.523
61895W        W28436  37.004  35.363   1.681
61896W        W28437  43.301   4.353  13.942
61897W        W28438  20.470  13.118   1.327
61898W        W28439   9.704  30.855  12.378
61899W        W28440  13.652  39.509   3.111
61900W        W28441  26.017  32.094  12.827
61901W        W28442  43.513  22.978  14.880
61902W        W28443  36.945  40.291   2.921
61903W        W28444  22.894  26.938  12.636
61904W        W28445  40.492  42.575  13.418
61905W        W28446   6.729  31.936  14.229
61906W        W28447  40.595  26.716  11.501
61907W        W28448  34.692   2.412  13.824
61908W        W28449  19.284   6.149   3.294
61909W        W28450  42.662   7.161   1.786
61910W        W28451   3.778  44.170  12.408
61911W        W28452  20.014  23.917   3.609
61912W        W28453   0.796  10.199   4.080
61913W        W28454  36.952  28.110  14.079
61914W        W28455  20.610   9.685  14.915
61915W        W28456   1.463   4.220   1.876
61916W        W28457  31.409  44.679  11.805
61917W        W28458  21.025  30.937  14.934
61918W        W28459   8.331   7.063  11.949
61919W        W28460  23.499  39.728  13.486
61920W        W28461   2.318  20.107   3.526
61921W        W28462  39.810  34.563   1.029
61922W        W28463  27.768  10.738   3.850
61923W        W28464  22.089   4.443  10.626
61924W        W28465  42.162  14.830   5.047
61925W        W28466  19.109   7.643   2.298
61926W        W28467   1.788  10.943   1.903
61927W        W28468  10.766  30.357  14.395
61928W        W28469  10.310   5.551   0.847
61929W        W28470  44.289  36.911  12.949
61930W        W28471   6.976  34.174  12.491
61931W        W28472   7.148  14.616  10.699
61932W        W28473  41.551  37.429   2.225
61933W        W28474  23.716  21.227  10.713
61934W        W28475  38.788  18.250  14.817
61935W        W28476  30.076   0.078  12.454
61936W        W28477  17.094  41.999  13.384
61937W        W28478   5.834  41.267   3.775
61938W        W28479   7.660  30.140   3.161
61939W        W28480   4.750   4.146   0.356
61940W        W28481   8.768  12.276   3.777
61941W        W28482   8.199  37.553   3.284
61942W        W28483  44.474   4.565   0.438
61943W        W28484  20.205  38.273  14.243
61944W        W28485  15.225  29.108  10.684
61945W        W28486   0.989  23.142  11.219
61946W        W28487  15.437  31.031   0.404
61947W        W28488   6.657  29.838  12.460
61948W        W28489  14.912  40.292   4.195
61949W        W28490  44.703   3.743   0.390
61950W        W28491  43.772  18.091   3.328
61951W        W28492  16.783  33.660   3.321
61952W        W28493  42.011  19.154   0.222
61953W        W28494   4.205   4.694  11.537
61954W        W28495   8.870  11.161  11.662
61955W        W28496  23.675   7.322   1.438
61956W        W28497  36.440  15.080  14.092
61957W        W28498  40.144  17.533   3.259
61958W        W28499  14.603  28.015   0.028
61959W        W28500   6.859  37.835  10.200
61960W        W28501   1.576  27.394   0.725
61961W        W28502  26.925  27.616  14.784
61962W        W28503  22.208   4.895  14.888
61963W        W28504   4.055   9.186   0.033
61964W        W28505  14.062  18.250  10.765
61965W        W28506  35.211   7.287  12.805
61966W        W28507   8.205  41.101  12.121
61967W        W28508   3.447  27.566   1.676
61968W        W28509  34.432  30.684  10.674
61969W        W28510  22.604  26.352  11.618
61970W        W28511  37.904  43.019   2.983
61971W        W28512  32.176   8.496   2.314
61972W        W28513   3.180  29.143  12.158
61973W        W28514  44.191  30.184  11.722
61974W        W28515  43.844  17.489  13.992
61975W        W28516  32.878   5.122   3.062
61976W        W28517  36.844  30.070   0.375
61977W        W28518  25.397  35.758  12.349
61978W        W28519  34.148  33.567   4.102
61979W        W28520  26.274  28.056   1.828
61980W        W28521   9.430  23.568  13.596
61981W        W28522  13.501   4.803   0.786
61982W        W28523  39.031  33.704   4.214
61983W        W28524  29.502   0.882  12.078
61984W        W28525   7.678  14.709  12.457
61985W        W28526  34.427  30.471   0.800
61986W        W28527  18.046  11.028   3.100
61987W        W28528   4.662   9.416   2.786
61988W        W28529  35.425  16.895  14.716
61989W        W28530  27.834   0.463  14.496
61990W        W28531  32.588  43.264   3.097
61991W        W28532  21.255  31.425  10.572
61992W        W28533   9.281  26.171   3.064
61993W        W28534   5.255  38.528   1.340
61994W        W28535  35.623  24.609  12.866
61995W        W28536   5.923  12.252   3.358
61996W        W28537  10.059   7.886  14.495
61997W        W28538   2.642  37.508  10.788
61998W        W28539   3.691  15.720  13.597
61999W        W28540  40.331  39.561  13.990
62000W        W28541  35.457   5.542   5.495
62001W        W28542  37.539  13.919  12.803
62002W        W28543  19.770  12.141  10.993
62003W        W28544  37.627   2.876  14.268
62004W        W28545   5.712  27.104   2.819
62005W        W28546  30.845   2.428  10.924
62006W        W28547  30.604  44.392   0.462
62007W        W28548  24.668  36.090   1.512
62008W        W28549  20.237  11.728  11.654
62009W        W28550  17.763  28.715  14.389
62010W        W28551   9.346  24.811  11.144
62011W        W28552  14.212  41.521   0.987
62012W        W28553   6.628  43.967  13.841
62013W        W28554  37.330  33.997  14.534
62014W        W28555  19.764  38.440  13.457
62015W        W28556   4.362  35.277   3.008
62016W        W28557  16.735  20.767   3.203
62017W        W28558   6.733  43.327  10.880
62018W        W28559  30.187  44.798  10.984
62019W        W28560  16.226  44.473  10.675
62020W        W28561  31.487  18.794   3.782
62021W        W28562  23.977  36.535   3.131
62022W        W28563  43.308  27.966   0.556
62023W        W28564  31.111  22.555  13.595
62024W        W28565   3.763  21.712  11.679
62025W        W28566  43.461  24.204  13.869
62026W        W28567  38.066  44.056   3.046
62027W        W28568  22.152  18.542  14.359
62028W        W28569  20.245  22.474   3.444
62029W        W28570  31.549  12.430   2.304
62030W        W28571  36.212  10.157   0.195
62031W        W28572  38.921   4.914  14.938
62032W        W28573  24.321  19.539  12.937
62033W        W28574  43.240   5.391   0.280
62034W        W28575  14.849  34.163  12.114
62035W        W28576  17.950  26.530  14.819
62036W        W28577  20.032  28.578  14.072
62037W        W28578  37.016  42.911   0.075
62038W        W28579  29.066   4.536   2.800
62039W        W28580  35.876  25.159   4.630
62040W        W28581  10.756  22.101   0.830
62041W        W28582  18.808  19.174   2.086
62042W        W28583  15.069   1.839   3.594
62043W        W28584  31.573   5.900   4.085
62044W        W28585  11.592  30.005  13.942
62045W        W28586  44.985   7.240   3.914
62046W        W28587  24.752  34.482  13.785
62047W        W28588  26.100  23.737   0.014
62048W        W28589  24.175  22.084   3.925
62049W        W28590  19.721  17.126   2.175
62050W        W28591   2.019  32.187   0.290
62051W        W28592  15.600   5.136  13.905
62052W        W28593   7.228  21.710   4.787
62053W        W28594   0.684  12.252  10.663
62054W        W28595  28.104  21.182   4.573
62055W        W28596  10.544  15.623  11.486
62056W        W28597  18.159  32.468   3.186
62057W        W28598  18.764  39.219   0.017
62058W        W28599  44.315  17.882  14.482
62059W        W28600  32.428  25.441  12.333
62060W        W28601  43.960   0.220  11.074
62061W        W28602  15.740  25.432  10.726
62062W        W28603  44.110  19.742   3.836
62063W        W28604  15.716  14.235  13.393
62064W        W28605  30.701   9.783  11.591
62065W        W28606  37.323  24.087   3.916
62066W        W28607  29.953  25.649  10.809
62067W        W28608  23.152  42.642   3.187
62068W        W28609  19.778  37.853  14.394
62069W        W28610  34.037  15.733  10.513
62070W        W28611  37.810  23.989   1.212
62071W        W28612  40.324   3.589   5.057
62072W        W28613  13.677   6.686  14.822
62073W        W28614  43.448  27.990   2.155
62074W        W28615   2.895  36.266  14.370
62075W        W28616  28.483   3.689   1.849
62076W        W28617   5.822   5.775   0.328
62077W        W28618  28.658  19.750   1.817
62078W        W28619   5.207   6.800   1.289
62079W        W28620   4.698  39.762   0.960
62080W        W28621  32.213  31.401   3.656
62081W        W28622  24.224  43.214   4.301
62082W        W28623  10.621  32.592  14.072
62083W        W28624  12.767  38.944   1.420
62084W        W28625  12.886  40.951   1.299
62085W        W28626  32.890  37.139   3.517
62086W        W28627  11.826  15.107   3.258
62087W        W28628  35.387  13.803   4.797
62088W        W28629  17.728  26.661  14.367
62089W        W28630  11.322  22.505   2.723
62090W        W28631  11.622  36.740  12.975
62091W        W28632  16.090   8.234  14.178
62092W        W28633  10.449  20.571   3.893
62093W        W28634   6.829  20.233  12.829
62094W        W28635   8.130  34.996   4.111
62095W        W28636  26.249  38.746   2.803
62096W        W28637  32.602  13.512   0.907
62097W        W28638  43.020  35.429   0.209
62098W        W28639   5.323  34.927   3.943
62099W        W28640   5.387  17.007  13.215
62100W        W28641  20.278  38.566   3.113
62101W        W28642  37.661  25.673  11.537
62102W        W28643  40.252  24.494   4.051
62103W        W28644  17.570  16.067  12.549
62104W        W28645   3.942  39.792  14.994
62105W        W28646  36.491  40.009   0.292
62106W        W28647  31.564  33.723  10.208
62107W        W28648  40.700   8.602  11.600
62108W        W28649  14.993  25.613   3.290
62109W        W28650  41.730   0.034   4.568
62110W        W28651  19.193  40.302  14.311
62111W        W28652  30.478   2.498  13.573
62112W        W28653   5.895  12.886   2.139
62113W        W28654  41.652  11.100   2.226
62114W        W28655  18.640   0.853  13.788
62115W        W28656  29.933  14.563  11.157
62116W        W28657  30.877  36.168   1.559
62117W        W28658  23.179  25.516  13.818
62118W        W28659  16.391   5.844  14.448
62119W        W28660  10.405   1.958   3.343
62120W        W28661  15.484   2.588   3.361
62121W        W28662  43.722  44.275   0.621
62122W        W28663  25.756   2.388  10.715
62123W        W28664  28.513  28.307   2.227
62124W        W28665  19.837  13.598  12.957
62125W        W28666   5.653  32.674   1.362
62126W        W28667  44.834  37.037   2.824
62127W        W28668  39.325  18.010  11.370
62128W        W28669  10.078  42.060  12.346
62129W        W28670  40.015   3.468  11.677
62130W        W28671  32.005  11.112   1.645
62131W        W28672   3.093  40.426  13.387
62132W        W28673  13.378   8.697  12.548
62133W        W28674  43.371  26.442   2.146
62134W        W28675  36.447  10.596   0.060
62135W        W28676  18.727   8.673   3.086
62136W        W28677  29.405  31.069  14.853
62137W        W28678  44.877   3.945   1.714
62138W        W28679  44.843  27.828  12.490
62139W        W28680  13.685  33.912   1.346
62140W        W28681  15.830  12.607  12.939
62141W        W28682  18.971  15.609  13.979
62142W        W28683   5.882  26.576  12.298
62143W        W28684   6.798  42.011   3.304
62144W        W28685  18.296   2.646  12.497
62145W        W28686  34.015  36.369  12.955
62146W        W28687  40.433  19.051  14.010
62147W        W28688   5.326  14.821  11.455
62148W        W28689   3.589   3.220   4.098
62149W        W28690  22.753  38.936   1.869
62150W        W28691  11.405  17.997  11.600
62151W        W28692  19.320  39.293  12.586
62152W        W28693  10.187  29.121  14.934
62153W        W28694  27.437  19.202  13.004
62154W        W28695  17.713  23.240  13.000
62155W        W28696  17.774  29.921  12.848
62156W        W28697   8.214  17.249  14.388
62157W        W28698  22.763  43.513   1.208
62158W        W28699   9.470  14.422   2.869
62159W        W28700  10.720   8.137   1.204
62160W        W28701  37.372  25.749  11.110
62161W        W28702  12.096   2.606   2.656
62162W        W28703  24.982  41.711  13.042
62163W        W28704  43.456  21.105   4.573
62164W        W28705   0.912  33.702  13.984
62165W        W28706   1.461  19.998   0.772
62166W        W28707  24.549  35.419  10.796
62167W        W28708  23.925  32.665  14.434
62168W        W28709  40.102  33.463   2.316
62169W        W28710  12.195  32.728  14.566
62170W        W28711  34.217  26.791   4.393
62171W        W28712  39.014  26.527   0.283
62172W        W28713  18.744  30.348  11.205
62173W        W28714  38.304  29.223  11.200
62174W        W28715  36.434  18.329   2.859
62175W        W28716  25.717  12.657  10.331
62176W        W28717  20.447   6.206   4.586
62177W        W28718  27.396  41.850   2.204
62178W        W28719   6.119  43.306   3.267
62179W        W28720   5.313   0.403  12.058
62180W        W28721  31.107  16.081   3.203
62181W        W28722   0.592   4.901   4.291
62182W        W28723   3.899  38.375   1.439
62183W        W28724  10.194   4.644  10.607
62184W        W28725  32.930  43.969  14.719
62185W        W28726   4.396  34.258  14.788
62186W        W28727  28.592  20.565  13.444
62187W        W28728  16.220   5.862  13.567
62188W        W28729  26.283   2.955  12.886
62189W        W28730  40.069  11.364  14.884
62190W        W28731  42.310  41.507  14.297
62191W        W28732   3.567   5.354   3.218
62192W        W28733  23.973   3.358   4.522
62193W        W28734   3.268  30.118  14.480
62194W        W28735  44.940  13.615   2.679
62195W        W28736   6.116  13.275   0.840
62196W        W28737   7.121  26.593   1.940
62197W        W28738  15.664   8.891  10.222
62198W        W28739   7.203   6.401  10.586
62199W        W28740  21.717  25.518  11.223
62200W        W28741  12.658   7.680  13.124
62201W        W28742  34.926  19.290  10.911
62202W        W28743  43.827   3.021   1.826
62203W        W28744   6.176   6.207  10.505
62204W        W28745  36.522  41.535   0.309
62205W        W28746   3.485  38.112   4.713
62206W        W28747  10.858  24.724  12.529
62207W        W28748  42.699   3.376   2.870
62208W        W28749   7.988  26.601   2.280
62209W        W28750  13.691   0.719   4.594
62210W        W28751   8.741  43.866  13.399
62211W        W28752  22.799  32.547  13.089
62212W        W28753   8.241  40.441   3.294
62213W        W28754  24.797   9.651  13.302
62214W        W28755  10.486  23.924   4.426
62215W        W28756  36.147  25.955   3.380
62216W        W28757  20.021   2.307  10.730
62217W        W28758  28.534  25.736   2.413
62218W        W28759  32.965  30.372   0.971
62219W        W28760  33.575   2.903   2.259
62220W        W28761  44.934  10.314  12.174
62221W        W28762  36.386   9.344   1.754
62222W        W28763  24.673  33.985   0.471
62223W        W28764  18.120  23.945   0.813
62224W        W28765  15.824  19.524   3.277
62225W        W28766  22.747  20.585  10.493
62226W        W28767  23.564  13.651   1.254
62227W        W28768   6.289   2.839   2.380
62228W        W28769  15.374  30.436   0.810
62229W        W28770  12.281  31.657  12.895
62230W        W28771   7.463  32.898  12.190
62231W        W28772  19.794  34.898  14.485
62232W        W28773  32.965  41.517   1.321
62233W        W28774  34.471  32.814  11.117
62234W        W28775  15.594  25.947  13.956
62235W        W28776  20.381  34.671  10.766
62236W        W28777  42.374  27.231   4.011
62237W        W28778  35.773   1.370  12.796
62238W        W28779  14.185  24.729   1.326
62239W        W28780   6.137  10.539   1.127
62240W        W28781  18.755  37.954  13.779
62241W        W28782   8.037  23.726  14.837
62242W        W28783  44.326   5.411  10.657
62243W        W28784   8.219  39.472   2.732
62244W        W28785  27.586  35.526  10.975
62245W        W28786  27.170   6.048  14.953
62246W        W28787  16.636  42.703  14.741
62247W        W28788  18.111   9.483   4.243
62248W        W28789  31.596  22.712   4.148
62249W        W28790  15.214  29.276  13.240
62250W        W28791   9.543  17.096  12.318
62251W        W28792  38.946  43.914   0.441
62252W        W28793   4.921  42.360  14.433
62253W        W28794  11.399  38.517  13.242
62254W        W28795  29.072  12.939   2.175
62255W        W28796  13.306  17.350   3.567
62256W        W28797   5.733  33.314  10.908
62257W        W28798  27.662  36.457  13.902
62258W        W28799  12.682  26.533   0.831
62259W        W28800  44.337  35.807  12.752
62260W        W28801   5.997  40.902  11.097
62261W        W28802  37.280  32.347  12.111
62262W        W28803  19.233  10.698   2.464
62263W        W28804   6.770  25.557   1.330
62264W        W28805  25.751  25.273  11.190
62265W        W28806  13.638  40.070  11.192
62266W        W28807  40.952  21.409   1.400
62267W        W28808  33.855  18.712  13.453
62268W        W28809  14.372  31.952  11.906
62269W        W28810  15.713  24.451   2.771
62270W        W28811  11.602   2.519   2.742
62271W        W28812  34.308   2.512  13.387
62272W        W28813  17.039  37.303  11.993
62273W        W28814  11.910  38.505  13.348
62274W        W28815  40.733  10.080   1.575
62275W        W28816   9.289   9.189   4.777
62276W        W28817  27.466   0.936   3.256
62277W        W28818  44.314   6.361   0.393
62278W        W28819  15.928   1.617   3.768
62279W        W28820   4.480   7.312  13.258
62280W        W28821   6.827  26.414   1.567
62281W        W28822  27.190  24.920   1.263
62282W        W28823  16.489  37.768  12.794
62283W        W28824  28.994  14.164  14.362
62284W        W28825  24.170  29.922  11.505
62285W        W28826   8.188  14.785  10.722
62286W        W28827  16.778  24.363  10.300
62287W        W28828  13.057  20.622  12.013
62288W        W28829  14.658   5.284  11.954
62289W        W28830  44.257  34.064  13.484
62290W        W28831  38.844   8.179  12.900
62291W        W28832  12.789  24.907  13.324
62292W        W28833  39.103  23.242  12.432
62293W        W28834  29.872  21.704  10.555
62294W        W28835  13.709  30.300  14.879
62295W        W28836  27.499  31.054   0.398
62296W        W28837   7.793  11.287  13.004
62297W        W28838  31.066  28.774   1.351
62298W        W28839   5.987  44.887  13.914
62299W        W28840  28.394   8.136  13.510
62300W        W28841  11.231   7.612   1.409
62301W        W28842  39.617   7.164  13.099
62302W        W28843   1.960  28.408  10.070
62303W        W28844  36.934  20.538  11.147
62304W        W28845  21.744  29.676  14.964
62305W        W28846  37.468  41.412   3.771
62306W        W28847  10.082  27.063  11.080
62307W        W28848  12.851  34.123  12.132
62308W        W28849  18.022  21.957  13.195
62309W        W28850  30.935  25.246   3.843
62310W        W28851   8.837  19.995  12.111
62311W        W28852   0.480  37.131   2.536
62312W        W28853  21.304   0.906  11.944
62313W        W28854  31.422   8.611   0.694
62314W        W28855  35.346  21.206  14.392
62315W        W28856  33.455  32.884   2.719
62316W        W28857  25.411  16.218   2.158
62317W        W28858  16.364  10.826   2.637
62318W        W28859   0.867  11.859  14.206
62319W        W28860  22.783  16.826  11.547
62320W        W28861  43.200   4.119   1.350
62321W        W28862  33.833  38.333   4.950
62322W        W28863  35.906  11.444  12.529
62323W        W28864  33.361  27.656   4.340
62324W        W28865  11.097  14.638   3.262
62325W        W28866  10.843  14.679  13.748
62326W        W28867  28.484  25.166   1.669
62327W        W28868   4.166  32.969   1.235
62328W        W28869  26.687  39.926  12.408
62329W        W28870  24.635  42.775   3.919
62330W        W28871  18.422  44.999  10.785
62331W        W28872  39.012   7.122   2.114
62332W        W28873   9.986  10.698  12.981
62333W        W28874  18.763  40.589   1.755
62334W        W28875  27.391   2.272   4.137
62335W        W28876  39.040  26.821   5.053
62336W        W28877  21.267  36.308  11.267
62337W        W28878  40.562  16.259   4.745
62338W        W28879  23.756  31.810  14.736
62339W        W28880  26.855  11.775  12.722
62340W        W28881  21.210  11.848   1.425
62341W        W28882   2.300  34.450   0.967
62342W        W28883  43.450   8.392   1.019
62343W        W28884  24.980  11.155  13.014
62344W        W28885  13.772  27.409   0.974
62345W        W28886  35.247  25.898  11.201
62346W        W28887   2.307  12.298  10.668
62347W        W28888  20.360  40.062   2.416
62348W        W28889  43.418   1.485   3.912
62349W        W28890   7.779  19.674   1.100
62350W        W28891  43.057   0.777  11.952
62351W        W28892  30.284  40.169  12.101
62352W        W28893  40.352  20.510   1.306
62353W        W28894   4.408  25.557   3.750
62354W        W28895   0.764  28.623  11.012
62355W        W28896  21.642  20.678  13.154
62356W        W28897  16.769  19.526   4.089
62357W        W28898   2.016  35.419   3.293
62358W        W28899  42.385  39.458   3.661
62359W        W28900  18.532  12.070  14.522
62360W        W28901  23.678  31.559  13.027
62361W        W28902  25.256   9.942  12.448
62362W        W28903  38.809  17.147   1.738
62363W        W28904  35.183   5.944   3.749
62364W        W28905  23.143  20.553   0.452
62365W        W28906  37.351  18.363   1.875
62366W        W28907  26.181   3.054  14.415
62367W        W28908  22.872   8.752  11.927
62368W        W28909  19.840  44.961   3.591
62369W        W28910  36.580  15.300   2.394
62370W        W28911  24.159  11.110   0.256
62371W        W28912  17.409  27.140  13.517
62372W        W28913  24.229   8.878   3.206
62373W        W28914  41.434  35.477  14.357
62374W        W28915  28.150  15.120  12.745
62375W        W28916  13.361   4.801  12.526
62376W        W28917  37.389   1.646   4.932
62377W        W28918  28.993  30.215   0.443
62378W        W28919  17.193   3.048  14.876
62379W        W28920  27.979  20.604  11.956
62380W        W28921  18.305  35.494   3.326
62381W        W28922  14.645  16.656  14.604
62382W        W28923  42.521   8.960   2.256
62383W        W28924   4.708  35.490  14.392
62384W        W28925  33.792   2.346   1.276
62385W        W28926  32.462   3.426   5.086
62386W        W28927  27.523  12.432   4.942
62387W        W28928  11.427  33.006  13.401
62388W        W28929  36.034  40.745  13.596
62389W        W28930  42.705  27.044   2.701
62390W        W28931   1.946   6.273  14.660
62391W        W28932  24.419   3.298   3.343
62392W        W28933  33.564  44.651   4.096
62393W        W28934  33.450  23.814  11.162
62394W        W28935  43.827   2.797   2.328
62395W        W28936  38.535  12.610  13.738
62396W        W28937   3.657  29.958  10.688
62397W        W28938   3.285  11.375  13.071
62398W        W28939  31.040   8.509   0.327
62399W        W28940   1.393   7.750   0.759
62400W        W28941  24.076  18.298  10.743
62401W        W28942  13.247  16.008  14.948
62402W        W28943  41.312  10.293  10.826
62403W        W28944  19.004  31.836  14.971
62404W        W28945  32.451  28.454   3.807
62405W        W28946  11.148  35.907  12.621
62406W        W28947  26.706  10.168  13.350
62407W        W28948  34.574  22.572  14.856
62408W        W28949  26.674  21.962  11.567
62409W        W28950  21.269  41.029  13.079
62410W        W28951   1.530  42.463  11.493
62411W        W28952  13.232  16.062  12.794
62412W        W28953  39.358  39.416   4.732
62413W        W28954  19.866  13.572  12.180
62414W        W28955  35.981  28.031   4.459
62415W        W28956  28.279   2.522  11.603
62416W        W28957  18.096   0.756  12.504
62417W        W28958  44.734   1.544   3.791
62418W        W28959  27.698  43.464  11.927
62419W        W28960  29.481   8.397   4.859
62420W        W28961   2.958  37.463  11.186
62421W        W28962  35.041   9.615  12.031
62422W        W28963  41.250  20.662  13.558
62423W        W28964  41.096  12.298   3.328
62424W        W28965  44.597  32.619  11.996
62425W        W28966  41.314  21.887  10.553
62426W        W28967  43.316  26.849   1.246
62427W        W28968  24.190  43.233   0.222
62428W        W28969  12.303   5.943  13.569
62429W        W28970  34.118  31.447   4.655
62430W        W28971   3.283  11.632   3.161
62431W        W28972  21.685   6.467  11.635
62432W        W28973  13.497  39.000  14.452
62433W        W28974  30.588  16.208  12.868
62434W        W28975  10.409  25.862   1.384
62435W        W28976  24.064  18.701   4.736
62436W        W28977   9.386   4.301   3.679
62437W        W28978  26.254  27.516   0.680
62438W        W28979  12.354  23.168   4.125
62439W        W28980  40.418  28.122   4.563
62440W        W28981  23.303  23.541  10.910
62441W        W28982  31.031  28.874  11.038
62442W        W28983  43.372   3.346   1.860
62443W        W28984  42.463  43.357  14.954
62444W        W28985  19.251  20.467  11.645
62445W        W28986  33.558  44.054  14.280
62446W        W28987  31.063  21.176   1.932
62447W        W28988  21.079   6.682   3.071
62448W        W28989  34.070   5.427   2.830
62449W        W28990  35.610  28.181  12.499
62450W        W28991   1.804  42.189  14.744
62451W        W28992   3.215   9.444   0.652
62452W        W28993   7.106  42.988   3.998
62453W        W28994   5.142   0.313   2.889
62454W        W28995   3.885  15.095   0.802
62455W        W28996  16.036  24.921   3.669
62456W        W28997  23.421   7.762   4.529
62457W        W28998  24.364   3.712  14.494
62458W        W28999  21.191  10.074  11.709
62459W        W29000   6.519   9.738   1.432
62460W        W29001   0.347  17.048  11.443
62461W        W29002  31.449  11.233  12.479
62462W        W29003   3.964   0.457   0.868
62463W        W29004  18.763  20.745  14.015
62464W        W29005   8.472  11.182   1.008
62465W        W29006   9.183  40.608   4.942
62466W        W29007  17.299  38.068  13.047
62467W        W29008  15.061   7.839  13.425
62468W        W29009   1.764   0.287  12.385
62469W        W29010  34.109  20.649  13.831
62470W        W29011  44.873  10.168  10.107
62471W        W29012  18.783   5.644  12.094
62472W        W29013  36.090   0.328   3.300
62473W        W29014  44.477  23.527   0.682
62474W        W29015  38.422  29.352   2.846
62475W        W29016  39.475  26.240   0.421
62476W        W29017   0.750  44.272  14.947
62477W        W29018  38.596  11.823  14.998
62478W        W29019   4.930  12.081  14.172
62479W        W29020  16.621  43.799   4.415
62480W        W29021  23.470   0.903  13.971
62481W        W29022  15.497  41.895  10.352
62482W        W29023  36.984  32.462   3.687
62483W        W29024  25.997   6.159  13.030
62484W        W29025   3.838   1.025  12.124
62485W        W29026  23.650  15.190   1.020
62486W        W29027  42.085  42.408  10.606
62487W        W29028  23.777  18.244   4.214
62488W        W29029  33.606   0.322  12.736
62489W        W29030  43.253  30.426   4.525
62490W        W29031   6.199  14.793   5.008
62491W        W29032  18.172   0.486  14.925
62492W        W29033   5.549  12.839  14.504
62493W        W29034  36.392  18.222  13.523
62494W        W29035  43.091  37.442  12.372
62495W        W29036  29.734  39.597  14.392
62496W        W29037   6.851  18.613  12.507
62497W        W29038  30.186   5.904  12.897
62498W        W29039  44.891  31.914  14.860
62499W        W29040   5.771  44.109  11.977
62500W        W29041  36.859  32.088  14.039
62501W        W29042  37.271   1.961   4.510
62502W        W29043  43.009  17.340   3.668
62503W        W29044   6.429  10.632   0.322
62504W        W29045  22.203  23.722  14.185
62505W        W29046  38.725  11.411   1.519
62506W        W29047  31.276  38.047   0.419
62507W        W29048  13.725  44.025   2.455
62508W        W29049   3.402  18.028  11.529
62509W        W29050   7.736  31.570   2.632
62510W        W29051  17.209  37.188   0.674
62511W        W29052  24.014  34.859   5.029
62512W        W29053   9.757  26.313   1.717
62513W        W29054  44.151   5.284   2.861
62514W        W29055  13.186  24.144  13.382
62515W        W29056  33.989  39.506  14.620
62516W        W29057  26.091  38.443  14.762
62517W        W29058  14.631  29.323  12.419
62518W        W29059   6.150  15.575   3.434
62519W        W29060  15.881   9.225   2.714
62520W        W29061   6.605   0.429  10.996
62521W        W29062  21.630  31.222  10.870
62522W        W29063  10.839  37.628  13.136
62523W        W29064  14.936  27.916   4.133
62524W        W29065   5.610   9.247  11.020
62525W        W29066  39.847  36.097   1.190
62526W        W29067  40.373  42.427   3.188
62527W        W29068   1.950  30.104  11.121
62528W        W29069   3.485   3.630   4.994
62529W        W29070  16.757   2.412   1.390
62530W        W29071  31.804   8.116  13.251
62531W        W29072  13.743  42.255   3.635
62532W        W29073  12.070  14.106   4.135
62533W        W29074  33.690  11.458   4.826
62534W        W29075  33.918  32.153   4.169
62535W        W29076  37.235   3.289  10.669
62536W        W29077  30.153   0.706  13.354
62537W        W29078  22.946  27.719   4.653
62538W        W29079  43.719  13.393  14.033
62539W        W29080   7.396   4.205  12.036
62540W        W29081  16.798  24.566   2.661
62541W        W29082  17.586  28.689  11.845
62542W        W29083  21.572   4.334  10.707
62543W        W29084  35.616  30.673   1.613
62544W        W29085  35.898  42.272  11.133
62545W        W29086  10.876  26.509  12.182
62546W        W29087  19.622  11.147  13.718
62547W        W29088  21.759  23.202   3.110
62548W        W29089  28.859   9.765   2.204
62549W        W29090  22.742  42.403  13.409
62550W        W29091  44.130  21.749   3.013
62551W        W29092   6.070  11.809   3.563
62552W        W29093  27.645  34.188  12.221
62553W        W29094  16.575  37.084  12.542
62554W        W29095  34.445   9.857  11.501
62555W        W29096   3.672   3.434   2.371
62556W        W29097  19.284  31.458  14.199
62557W        W29098  16.731  32.826   3.534
62558W        W29099  36.602  23.228   3.193
62559W        W29100  13.828  22.608   2.863
62560W        W29101  44.287   1.655   3.495
62561W        W29102  40.832  29.575  12.965
62562W        W29103  43.767  34.051  13.390
62563W        W29104  22.508  17.726   3.275
62564W        W29105  23.616  16.756  12.495
62565W        W29106   8.266   5.770  12.907
62566W        W29107   4.996   1.607   2.804
62567W        W29108  27.102  44.427  12.824
62568W        W29109  42.671  10.590   3.667
62569W        W29110  30.383  11.832   0.969
62570W        W29111  41.964  43.871  12.834
62571W        W29112  29.720  27.179  11.923
62572W        W29113  39.834  35.166   0.342
62573W        W29114  34.998  12.910   2.224
62574W        W29115  26.637  28.169  11.511
62575W        W29116  34.646  35.615   1.305
62576W        W29117  26.267   8.660  10.598
62577W        W29118  40.965  17.284  13.973
62578W        W29119   0.790  36.674  13.871
62579W        W29120  34.135  15.423  11.967
62580W        W29121  39.111  18.924   4.369
62581W        W29122  24.768  35.849  10.974
62582W        W29123  10.254  34.989   9.971
62583W        W29124  17.842  16.168   3.604
62584W        W29125  16.145  37.205   9.877
62585W        W29126  32.695   0.832  12.276
62586W        W29127  13.157  31.180  11.858
62587W        W29128   6.359  18.185   3.188
62588W        W29129   1.765  19.927   5.003
62589W        W29130  10.980  24.122   3.615
62590W        W29131  33.595  19.687  13.445
62591W        W29132  29.839   5.730  14.461
62592W        W29133  39.765   1.811  11.452
62593W        W29134   7.645  43.479  12.834
62594W        W29135  11.300   9.580   3.080
62595W        W29136  14.904   5.938   1.385
62596W        W29137  17.497  33.043  11.099
62597W        W29138   5.652   1.249   4.044
62598W        W29139   6.943   9.522   1.844
62599W        W29140  14.793   8.150   2.060
62600W        W29141  23.169  18.708  12.861
62601W        W29142  12.592  30.165   0.858
62602W        W29143  40.660  19.343   4.175
62603W        W29144   3.138  10.955  12.098
62604W        W29145  42.259  17.232   2.401
62605W        W29146  12.618  32.022  12.029
62606W        W29147   0.815   4.384   2.616
62607W        W29148  35.644   6.320  11.167
62608W        W29149  29.815   6.721   4.720
62609W        W29150  43.520  31.040  14.935
62610W        W29151   0.276  10.829  10.621
62611W        W29152  17.068   9.210  14.414
62612W        W29153   2.143  16.288   4.889
62613W        W29154  15.235  24.236  13.924
62614W        W29155  43.932  30.096   2.919
62615W        W29156  27.005   8.390   1.628
62616W        W29157  32.981   5.505   4.013
62617W        W29158  43.022  17.039  11.994
62618W        W29159  41.799  26.193   0.488
62619W        W29160   6.901  10.007  13.887
62620W        W29161  33.428  38.566   4.109
62621W        W29162   9.186  25.675  14.749
62622W        W29163  19.716  17.866  13.943
62623W        W29164  36.824  39.554  13.478
62624W        W29165  43.009  33.134  10.552
62625W        W29166  26.284  15.021   0.150
62626W        W29167  30.110   8.857  12.721
62627W        W29168   1.232  44.970   4.268
62628W        W29169  11.158  43.838  11.230
62629W        W29170  35.598  13.816  12.455
62630W        W29171   9.310  42.407  10.091
62631W        W29172   2.267  18.967   4.156
62632W        W29173   8.919  28.925   2.996
62633W        W29174  20.120  22.094  10.687
62634W        W29175  37.452   4.329  10.404
62635W        W29176   5.576  36.164  11.173
62636W        W29177  24.569  41.022   2.753
62637W        W29178   6.830  28.103   0.899
62638W        W29179  13.706  22.033   3.584
62639W        W29180   9.721  20.426  13.037
62640W        W29181  12.702  16.758  12.919
62641W        W29182  22.000  17.370   2.399
62642W        W29183  30.394   8.185  10.741
62643W        W29184  37.559   4.187   3.593
62644W        W29185  32.303  29.114  12.792
62645W        W29186  23.270  16.276   4.102
62646W        W29187   8.162  39.415  13.503
62647W        W29188   4.301  28.094   1.820
62648W        W29189   5.393  19.756   2.158
62649W        W29190   8.578  36.879  11.162
62650W        W29191  19.206  41.146   3.258
62651W        W29192  36.341   0.370  13.152
62652W        W29193   2.729  44.881   2.723
62653W        W29194  15.400   2.851   0.299
62654W        W29195   1.727   3.125  10.674
62655W        W29196  22.221   4.390   3.188
62656W        W29197  13.379  20.116  11.042
62657W        W29198   6.787  15.745  12.789
62658W        W29199  13.931  11.589   0.960
62659W        W29200  42.166   0.983  10.775
62660W        W29201  24.596  30.122   0.301
62661W        W29202  11.857  25.318  10.680
62662W        W29203  32.569  17.721   4.400
62663W        W29204   9.678  29.004   2.632
62664W        W29205  25.006   5.318   9.808
62665W        W29206  22.616  36.105   0.810
62666W        W29207  13.601  34.190   3.144
62667W        W29208  30.208  34.095   0.884
62668W        W29209   8.143  36.911   4.090
62669W        W29210  20.704  35.972  10.635
62670W        W29211  36.877  13.086   3.283
62671W        W29212   2.066   2.833   2.749
62672W        W29213  11.812   9.863   2.807
62673W        W29214  43.646  41.902   2.512
62674W        W29215  32.183  24.092  13.403
62675W        W29216  22.503  21.978   2.764
62676W        W29217  23.261   7.683   2.812
62677W        W29218  19.547  18.146  11.566
62678W        W29219   0.239  25.036  12.587
62679W        W29220  17.345  24.056   3.392
62680W        W29221  29.433  36.785  12.495
62681W        W29222   1.613  11.826  13.459
62682W        W29223  21.731  16.793   1.693
62683W        W29224  19.160  10.890  10.654
62684W        W29225  30.074  10.279   2.722
62685W        W29226   2.246   5.227  12.005
62686W        W29227  20.523  10.111   0.452
62687W        W29228  24.929  15.327  12.887
62688W        W29229  30.568  33.108  13.555
62689W        W29230   9.925  27.445   2.742
62690W        W29231  16.766  43.616  11.110
62691W        W29232  29.846  24.929  11.441
62692W        W29233  17.801  32.181  13.636
62693W        W29234  14.218  40.499   0.642
62694W        W29235   0.806   1.082  11.886
62695W        W29236   8.070  10.868   4.337
62696W        W29237  19.030  15.158  13.726
62697W        W29238  26.943   8.211   4.540
62698W        W29239  24.990   1.417   2.955
62699W        W29240  42.300  43.300  13.851
62700W        W29241  41.988  29.339   4.737
62701W        W29242  27.998  28.022   4.954
62702W        W29243  40.589  13.139  13.408
62703W        W29244  10.432  29.915  10.457
62704W        W29245  19.198   7.188  10.650
62705W        W29246   5.303  18.605   2.633
62706W        W29247  36.071  41.464   0.843
62707W        W29248   1.321   7.388   1.366
62708W        W29249  15.388  32.452  12.946
62709W        W29250  22.550   0.994   2.381
62710W        W29251   5.808  29.245  13.987
62711W        W29252  29.503  39.083  13.089
62712W        W29253  16.314  10.752  13.010
62713W        W29254  10.797  32.449   4.696
62714W        W29255   8.148  39.454  10.924
62715W        W29256  22.289  38.324   0.296
62716W        W29257  17.678   5.772  12.025
62717W        W29258  15.356  14.119   1.166
62718W        W29259  34.586   9.413   2.887
62719W        W29260   1.242  21.775   1.329
62720W        W29261  10.428  43.860   3.604
62721W        W29262   8.833  12.760  10.808
62722W        W29263  40.523  41.469   2.651
62723W        W29264  14.775  14.490   1.445
62724W        W29265   2.670  32.116  13.931
62725W        W29266  15.216  23.109   1.430
62726W        W29267  43.251  31.370  12.945
62727W        W29268  14.276  44.954  10.788
62728W        W29269   7.803   9.414  12.902
62729W        W29270   1.705   3.770  11.698
62730W        W29271  34.340   9.234  12.286
62731W        W29272   3.438  13.562   1.381
62732W        W29273  37.362  30.823   0.057
62733W        W29274  34.009  33.525   4.616
62734W        W29275   6.768  33.646   3.014
62735W        W29276  28.584  39.615   0.728
62736W        W29277  34.164  34.986   3.178
62737W        W29278  41.217  13.150   3.032
62738W        W29279   4.507  43.972  10.470
62739W        W29280  12.553  10.819  13.480
62740W        W29281  44.344  43.253   2.526
62741W        W29282  36.932  21.838   2.411
62742W        W29283  27.584  18.997  11.130
62743W        W29284  18.684  31.894   2.230
62744W        W29285  42.753   1.775  14.485
62745W        W29286  37.008   2.795  13.366
62746W        W29287   0.927  10.661  12.929
62747W        W29288   2.242  36.370  11.198
62748W        W29289  44.249  40.981  13.778
62749W        W29290  36.330   0.503   1.789
62750W        W29291  19.425  24.555   4.147
62751W        W29292  43.143  35.034  12.980
62752W        W29293  15.666  42.410   2.855
62753W        W29294   7.171   0.316   3.285
62754W        W29295  29.072  12.203  10.695
62755W        W29296  43.460   1.486   0.359
62756W        W29297  23.295  33.632  10.790
62757W        W29298  41.374  11.132   1.806
62758W        W29299  29.513  32.090   1.175
62759W        W29300  39.716  44.546   4.279
62760W        W29301   9.727   4.911   3.291
62761W        W29302  28.212  16.891   4.064
62762W        W29303   1.193  12.712   3.124
62763W        W29304   6.762  32.652  11.941
62764W        W29305   2.382  31.766  14.280
62765W        W29306  40.780  31.676  11.003
62766W        W29307  16.084  12.675  13.440
62767W        W29308  43.829  30.963  13.967
62768W        W29309   3.675  33.337   2.332
62769W        W29310   4.898  19.614   2.257
62770W        W29311  43.343  28.401   3.070
62771W        W29312  23.617  24.504   1.810
62772W        W29313   3.769  44.988  12.088
62773W        W29314   1.467  20.106   2.675
62774W        W29315  38.488   4.813   2.997
62775W        W29316   2.765  30.119  11.606
62776W        W29317   7.842  10.171  12.494
62777W        W29318  11.881  11.413  14.014
62778W        W29319  17.247  18.070   0.078
62779W        W29320  25.144  24.726  14.265
62780W        W29321  40.041  35.327  14.139
62781W        W29322  39.012  16.695   1.931
62782W        W29323  29.000   8.276   4.759
62783W        W29324   3.917  14.425  13.465
62784W        W29325  34.661   2.804   2.276
62785W        W29326   3.921  12.478   1.040
62786W        W29327  12.557   0.631   1.305
62787W        W29328  22.004  34.011  12.349
62788W        W29329  41.906  39.306   0.272
62789W        W29330  42.376  35.198  13.284
62790W        W29331  17.844  11.055  13.846
62791W        W29332  43.551  14.751   5.439
62792W        W29333  33.737   4.511   2.856
62793W        W29334  32.006  11.702  12.685
62794W        W29335  15.491  33.185   9.821
62795W        W29336  22.764  34.252   3.735
62796W        W29337  10.121  39.795  13.717
62797W        W29338   0.417   4.824   0.471
62798W        W29339  41.250  18.862   0.033
62799W        W29340   5.281  17.424  12.929
62800W        W29341  18.788  13.540  12.196
62801W        W29342  16.760  14.525  14.382
62802W        W29343   7.559  39.497   3.299
62803W        W29344  43.927  27.852  11.221
62804W        W29345  21.104  31.860  12.443
62805W        W29346  34.251   1.013   9.834
62806W        W29347  27.980   9.607  12.321
62807W        W29348  39.088  17.571  14.134
62808W        W29349   0.974   7.370  12.580
62809W        W29350  24.094  33.565  12.969
62810W        W29351  15.256  10.182   2.414
62811W        W29352  40.093  14.693  12.073
62812W        W29353   3.812  30.057  13.809
62813W        W29354  27.841  11.420  12.024
62814W        W29355  31.221   1.012   3.170
62815W        W29356   1.460  33.062  10.544
62816W        W29357  11.339   5.275  10.897
62817W        W29358  10.569  43.769   1.245
62818W        W29359  37.846  10.074   2.791
62819W        W29360  27.466  15.606   1.701
62820W        W29361  12.507  23.641  10.757
62821W        W29362  23.155   9.321   1.798
62822W        W29363  24.443  10.619   0.771
62823W        W29364  10.209  35.372  13.115
62824W        W29365   4.488   8.278   1.300
62825W        W29366  39.026  23.924   4.172
62826W        W29367   6.273  22.201   0.882
62827W        W29368   2.870  33.035   1.938
62828W        W29369  11.419  37.765  11.947
62829W        W29370  16.123  33.966  10.623
62830W        W29371  32.508   5.457  12.601
62831W        W29372   0.453  16.678   4.432
62832W        W29373  12.691  16.959  11.531
62833W        W29374  26.496  11.738   5.066
62834W        W29375  26.247  24.526   1.384
62835W        W29376   0.775  31.110  11.799
62836W        W29377  10.285  39.937  11.699
62837W        W29378   5.171  14.835   4.574
62838W        W29379  18.646  32.563  10.381
62839W        W29380  36.359   7.625   2.425
62840W        W29381  12.158  21.291  14.900
62841W        W29382  26.867  26.587  14.023
62842W        W29383  42.051  37.591  12.591
62843W        W29384  28.135  37.047  13.456
62844W        W29385  31.159  26.136   3.888
62845W        W29386   5.802  43.279  10.889
62846W        W29387  30.490  18.635   3.738
62847W        W29388  35.151  35.865   5.079
62848W        W29389  12.857  34.354  13.885
62849W        W29390  10.700  22.662  11.861
62850W        W29391  10.717   4.288  12.491
62851W        W29392  22.583  34.529  13.799
62852W        W29393   4.222  42.541  12.002
62853W        W29394  23.202  21.169   2.154
62854W        W29395  20.031   6.441   3.836
62855W        W29396  42.956  42.988   3.943
62856W        W29397  22.216  34.737  12.044
62857W        W29398  10.717  42.439   2.679
62858W        W29399   1.724  34.627   2.550
62859W        W29400   3.467  18.826  14.882
62860W        W29401  10.400   6.707   3.926
62861W        W29402  41.423  37.464  12.111
62862W        W29403  18.405  38.736   0.895
62863W        W29404  35.932   9.662   0.258
62864W        W29405  24.064  29.181  12.922
62865W        W29406  21.807  36.329  12.053
62866W        W29407  21.406  36.330   1.936
62867W        W29408  21.224   8.166   0.447
62868W        W29409  23.146  14.716   0.428
62869W        W29410  39.328  35.091  10.673
62870W        W29411   3.304  28.792  11.525
62871W        W29412  23.693  18.631   1.676
62872W        W29413  13.102  37.926   2.755
62873W        W29414  44.512  28.591  12.722
62874W        W29415  13.034  12.796   0.110
62875W        W29416  31.543  29.622   0.540
62876W        W29417  30.196  14.852  11.502
62877W        W29418  15.937  39.123   2.755
62878W        W29419  44.239  33.815   3.672
62879W        W29420  14.553   9.190   4.853
62880W        W29421   4.281  38.540   4.769
62881W        W29422  25.472  32.006  12.969
62882W        W29423   6.942   2.686   9.804
62883W        W29424   8.348   8.326  14.517
62884W        W29425  16.326   1.944  14.162
62885W        W29426  22.492   6.814  10.269
62886W        W29427  11.863  32.350  14.431
62887W        W29428  43.746  40.058  13.809
62888W        W29429  23.411   6.096  14.371
62889W        W29430   0.803  31.651   0.557
62890W        W29431  28.085   9.830   4.385
62891W        W29432  33.409  18.674   3.663
62892W        W29433  36.608  25.084  11.166
62893W        W29434   8.274  44.958  12.972
62894W        W29435  19.953  18.507   2.924
62895W        W29436   2.992  10.398  13.143
62896W        W29437  12.059  34.631  13.572
62897W        W29438   9.738  10.772  11.651
62898W        W29439  41.772  15.145  12.078
62899W        W29440  12.331   9.294  11.155
62900W        W29441  19.188  30.945  13.370
62901W        W29442  25.906  15.702  11.058
62902W        W29443  31.271  28.869   0.883
62903W        W29444  18.582  35.904  11.216
62904W        W29445   3.062  14.115  13.970
62905W        W29446   9.933  31.051   1.972
62906W        W29447  26.418  11.092   3.826
62907W        W29448  15.087  39.139  11.609
62908W        W29449   6.140  24.634   0.638
62909W        W29450   7.528   0.281  10.680
62910W        W29451  43.614  35.637   4.855
62911W        W29452  17.838  22.898   3.745
62912W        W29453  22.220   2.064  14.186
62913W        W29454  38.980  28.075   0.436
62914W        W29455  28.424  42.226   0.376
62915W        W29456  24.534  37.999   0.741
62916W        W29457  39.544  20.180   0.249
62917W        W29458  27.577  32.138   1.270
62918W        W29459   5.217  36.987   0.427
62919W        W29460   7.379  12.696  11.584
62920W        W29461  42.799  39.161  14.456
62921W        W29462   5.679  37.034  13.958
62922W        W29463   0.357   0.451   0.723
62923W        W29464  18.668  17.003  14.359
62924W        W29465  43.454   5.847  12.354
62925W        W29466  22.087  17.841  13.034
62926W        W29467  29.151   6.948   2.387
62927W        W29468  24.637  23.720  10.969
62928W        W29469  20.804  23.769   4.613
62929W        W29470  31.461  20.074   3.560
62930W        W29471  31.897  17.455  13.749
62931W        W29472  44.329  38.365   1.408
62932W        W29473  41.236  24.067   0.328
62933W        W29474   8.385  20.071   4.359
62934W        W29475  36.787  23.096  14.439
62935W        W29476  37.315  17.956  11.899
62936W        W29477   8.817  34.557  11.773
62937W        W29478  44.877   6.431  11.075
62938W        W29479  24.671  36.593   1.237
62939W        W29480   9.865   3.171   9.546
62940W        W29481  38.756   4.702   0.832
62941W        W29482   6.427  21.845   4.105
62942W        W29483  39.194  30.137  11.119
62943W        W29484   9.562  11.809   0.997
62944W        W29485   7.802  35.522  14.255
62945W        W29486  32.197   2.866   0.179
62946W        W29487  33.429  40.439  13.833
62947W        W29488   5.280  27.607  11.614
62948W        W29489  10.144  29.669  14.893
62949W        W29490  21.254  21.026  13.285
62950W        W29491   3.436  36.314  12.934
62951W        W29492   1.449  37.571   9.786
62952W        W29493  21.898  36.138   3.324
62953W        W29494  27.716   2.313   1.897
62954W        W29495  24.568  36.969   0.738
62955W        W29496  24.969   6.931   3.404
62956W        W29497  41.696  30.471   2.824
62957W        W29498  32.532  34.677  13.461
62958W        W29499  44.447  11.421  13.372
62959W        W29500  30.058   7.796  12.859
62960W        W29501   2.397  16.618  10.652
62961W        W29502  12.671  42.999  13.352
62962W        W29503  30.048  10.947   1.423
62963W        W29504  22.558   5.408  13.548
62964W        W29505   5.822   3.246  12.533
62965W        W29506  15.749   8.336   5.091
62966W        W29507  19.077  10.166   0.500
62967W        W29508  32.510  20.139   1.412
62968W        W29509  40.856  32.366   2.526
62969W        W29510   3.198  42.507  14.646
62970W        W29511  23.585  34.010  13.515
62971W        W29512  30.584   4.173   1.007
62972W        W29513   4.286   8.737   0.320
62973W        W29514  43.489   1.778  13.976
62974W        W29515  36.743  14.279  12.698
62975W        W29516  44.957  13.260   0.783
62976W        W29517  40.990  25.125  13.373
62977W        W29518  26.458   7.401   4.616
62978W        W29519  20.604   6.818   3.777
62979W        W29520  33.451  33.182  14.190
62980W        W29521   2.316  44.466   1.732
62981W        W29522   4.523  43.937  12.753
62982W        W29523  26.743  30.446   2.778
62983W        W29524  13.242   2.015  12.228
62984W        W29525  16.521  31.856   3.971
62985W        W29526   9.741  14.205   5.039
62986W        W29527  17.491   1.955  11.215
62987W        W29528  44.714  29.850  14.082
62988W        W29529  13.782   5.301  13.863
62989W        W29530  43.897  17.708  10.851
62990W        W29531  29.864  36.540  13.755
62991W        W29532  17.014   6.306  10.692
62992W        W29533  42.528   1.758  12.984
62993W        W29534  15.692  43.057  11.101
62994W        W29535  41.054  43.397  11.587
62995W        W29536  24.427  38.089  11.113
62996W        W29537  12.674  36.951  10.823
62997W        W29538  10.156   3.939  11.650
62998W        W29539   3.506  42.623   0.561
62999W        W29540  18.554  37.890  12.468
63000W        W29541  40.333  39.022  12.158
63001W        W29542  31.474   5.475   2.230
63002W        W29543   5.541   1.283  11.255
63003W        W29544  27.643  22.604   1.799
63004W        W29545  34.931  38.249  14.855
63005W        W29546  43.304  12.077   1.736
63006W        W29547  30.031  44.834  11.854
63007W        W29548  21.691  11.783  12.920
63008W        W29549  13.251   7.859   3.514
63009W        W29550  43.031  42.952   0.474
63010W        W29551  43.041  38.875  10.479
63011W        W29552  31.440  30.551   1.181
63012W        W29553  31.593  21.224  11.249
63013W        W29554  44.336   9.389  14.843
63014W        W29555  42.981  17.028  13.029
63015W        W29556  24.597  18.390  13.724
63016W        W29557  16.529  43.324  12.978
63017W        W29558  11.268  42.523  13.242
63018W        W29559  33.137  31.130   1.604
63019W        W29560  14.320  11.680  11.831
63020W        W29561  22.197   6.856   4.531
63021W        W29562   2.272  17.099   4.487
63022W        W29563   9.603  19.818   2.221
63023W        W29564  24.128  41.290   3.539
63024W        W29565  35.249  31.664  12.090
63025W        W29566  25.039  27.056   3.078
63026W        W29567  22.069   4.792  13.901
63027W        W29568   0.281  24.130   4.165
63028W        W29569  30.119  44.099  12.402
63029W        W29570   6.961  34.609  13.436
63030W        W29571  19.502  28.608  10.835
63031W        W29572   0.082  37.922   2.794
63032W        W29573  11.410  32.105  14.395
63033W        W29574  32.156   4.641  13.034
63034W        W29575   4.951  18.726  11.657
63035W        W29576  19.474  30.523  11.148
63036W        W29577  14.125  35.521  11.518
63037W        W29578  25.370  19.695  14.900
63038W        W29579  38.009  35.567  11.640
63039W        W29580  34.464  33.829   2.665
63040W        W29581  13.557  25.613  10.618
63041W        W29582  42.439  35.025  12.409
63042W        W29583  33.647  27.380  12.915
63043W        W29584  36.498  36.317   4.677
63044W        W29585  41.326  33.046  13.394
63045W        W29586  42.404  34.758  11.971
63046W        W29587  21.302   9.353  12.386
63047W        W29588  14.351  38.269  13.884
63048W        W29589  11.372  15.736   2.586
63049W        W29590  16.678  34.057   0.206
63050W        W29591  44.313  14.910   0.804
63051W        W29592   2.807  19.174  11.584
63052W        W29593  19.055  39.532  14.680
63053W        W29594  10.095  14.485  13.391
63054W        W29595  19.242   4.424   2.705
63055W        W29596   0.880  18.781   3.720
63056W        W29597   8.053   4.720  12.163
63057W        W29598  22.780  29.587  13.968
63058W        W29599  42.157  41.090   1.502
63059W        W29600  44.786  18.782   0.558
63060W        W29601  22.100  13.811  11.597
63061W        W29602  22.861  14.648   3.752
63062W        W29603  41.343  35.580  11.902
63063W        W29604  23.721  12.277   4.219
63064W        W29605   7.786  26.296  13.178
63065W        W29606   7.186  19.839  11.608
63066W        W29607  43.416  28.220   1.677
63067W        W29608  23.162  20.999   3.155
63068W        W29609  29.060  22.055  14.320
63069W        W29610  31.148  36.613   3.601
63070W        W29611   7.686  16.850   2.341
63071W        W29612  44.988  16.857  13.000
63072W        W29613  18.601  39.692  14.882
63073W        W29614  30.344  43.280  10.777
63074W        W29615  13.777  18.274  13.566
63075W        W29616   3.759  11.755  10.013
63076W        W29617  28.117  18.494   4.619
63077W        W29618  40.339  21.828  10.736
63078W        W29619  27.160  27.112  13.538
63079W        W29620  32.866  20.070   1.031
63080W        W29621  11.119  42.436  14.793
63081W        W29622  40.773  32.995  13.305
63082W        W29623  31.561  42.262   1.166
63083W        W29624  27.961  35.502  14.276
63084W        W29625  38.536   6.688  14.837
63085W        W29626  11.341  22.693   2.251
63086W        W29627  40.624   5.363   3.727
63087W        W29628   6.963  29.369  13.361
63088W        W29629  43.224  21.791   0.353
63089W        W29630  39.078  12.815   1.244
63090W        W29631  30.680   3.564  11.153
63091W        W29632  36.045   2.697   1.652
63092W        W29633  23.656   1.771   3.505
63093W        W29634  27.329  22.206  11.031
63094W        W29635  17.028  11.621   2.807
63095W        W29636  23.129  31.161   0.793
63096W        W29637  35.957   9.109  14.418
63097W        W29638   9.215  10.051   4.091
63098W        W29639   3.358  17.896   0.835
63099W        W29640   2.523  43.644   2.071
63100W        W29641  31.877  31.062  13.785
63101W        W29642  17.870  19.235   2.104
63102W        W29643  13.806   5.744   3.791
63103W        W29644   3.882  24.010  13.841
63104W        W29645  13.798  26.640   4.982
63105W        W29646  39.900  42.272  14.947
63106W        W29647  27.759  37.384  10.291
63107W        W29648  17.617  14.994   2.762
63108W        W29649  22.050   3.044  13.243
63109W        W29650  22.124  43.559   3.117
63110W        W29651  34.511  29.366  12.017
63111W        W29652   7.694  44.878  10.986
63112W        W29653  32.447   9.052  12.991
63113W        W29654  34.567  41.240  13.920
63114W        W29655   9.943  17.832  13.459
63115W        W29656   6.316   9.863   4.814
63116W        W29657  39.848  33.393   0.890
63117W        W29658  25.645   3.281   0.034
63118W        W29659  27.679  20.662   2.729
63119W        W29660  27.495  22.638  14.375
63120W        W29661   2.784  10.615   0.842
63121W        W29662   1.793  17.071   1.138
63122W        W29663  18.238   3.743   0.456
63123W        W29664  21.621  27.922   3.538
63124W        W29665   4.540  34.439  11.077
63125W        W29666  21.399  27.374  12.343
63126W        W29667  13.566   6.178  10.326
63127W        W29668  27.767  17.796   3.575
63128W        W29669   9.244  31.365  14.385
63129W        W29670   2.338  42.836  14.294
63130W        W29671   9.618  33.475  10.711
63131W        W29672  22.448  10.132   1.943
63132W        W29673   8.131   8.957  14.013
63133W        W29674  30.864  34.298  14.786
63134W        W29675  43.559  30.099   0.414
63135W        W29676   6.973  28.142  10.067
63136W        W29677  32.422  42.125  13.769
63137W        W29678  34.970   1.226  13.474
63138W        W29679  18.730  11.810   9.982
63139W        W29680  11.805   5.868  13.496
63140W        W29681   8.593  34.160   0.952
63141W        W29682  35.663  13.835  13.781
63142W        W29683   9.381   8.377   1.702
63143W        W29684  20.573  17.244  12.572
63144W        W29685  40.521  39.050  14.880
63145W        W29686  35.279  20.263  11.504
63146W        W29687  24.691  32.845  12.961
63147W        W29688   6.872  34.074  13.440
63148W        W29689  26.547  16.580  12.993
63149W        W29690  43.726  30.670  11.051
63150W        W29691  21.948  14.588  14.807
63151W        W29692  19.807   8.714  13.032
63152W        W29693  10.827   1.775  11.941
63153W        W29694  18.782  19.083   0.690
63154W        W29695  28.706   9.784   3.210
63155W        W29696  32.971  30.198  14.446
63156W        W29697  37.139  25.987   1.825
63157W        W29698  40.781  43.413  13.308
63158W        W29699  37.480  15.576  10.573
63159W        W29700   6.597  30.960  13.991
63160W        W29701  28.039  22.660  12.859
63161W        W29702  38.845  26.460  12.951
63162W        W29703   0.040   5.013  12.835
63163W        W29704   3.803  33.030  10.305
63164W        W29705  16.560  41.842   2.356
63165W        W29706  14.307  24.916   0.777
63166W        W29707  31.599  17.773   2.835
63167W        W29708  26.869  12.750   4.808
63168W        W29709  38.614  29.915  11.898
63169W        W29710  40.528   5.792   2.361
63170W        W29711  36.354  35.079  14.760
63171W        W29712  24.445  29.619  10.451
63172W        W29713  26.681  38.092   1.943
63173W        W29714  30.908  11.545   3.121
63174W        W29715  44.373  18.302   1.749
63175W        W29716  11.054  40.623  14.927
63176W        W29717   9.643  24.104   1.449
63177W        W29718  15.758   4.675  14.794
63178W        W29719  23.456  27.365  14.050
63179W        W29720  26.876   6.769   2.278
63180W        W29721  20.850  20.524   4.432
63181W        W29722  26.395  24.767   4.965
63182W        W29723  24.540  13.396   0.302
63183W        W29724  11.727  39.012  14.175
63184W        W29725   4.911  27.114  14.900
63185W        W29726   2.702  28.268  11.116
63186W        W29727  43.739  31.692  12.379
63187W        W29728  11.825  12.120   4.681
63188W        W29729  40.099  28.518   4.552
63189W        W29730  10.230  18.501  11.512
63190W        W29731  43.850  25.234   3.355
63191W        W29732   6.677  26.221  13.337
63192W        W29733  16.583  35.179  11.453
63193W        W29734  11.525   9.822  11.111
63194W        W29735  20.829  27.889   0.090
63195W        W29736  38.714  37.525  12.634
63196W        W29737  21.318  34.285   0.483
63197W        W29738  28.714  37.860   2.689
63198W        W29739  41.362  11.301   4.174
63199W        W29740  35.832  24.141   2.639
63200W        W29741   4.384  13.738   1.716
63201W        W29742  35.918  26.673   1.395
63202W        W29743   2.899  12.539   1.669
63203W        W29744  37.062  37.344   1.438
63204W        W29745  19.600  14.159   3.780
63205W        W29746   4.011  43.052  11.130
63206W        W29747   2.592  35.083  14.791
63207W        W29748  33.693  26.179   2.858
63208W        W29749  24.480  19.066   1.736
63209W        W29750   7.406  19.276  13.341
63210W        W29751  37.627  19.997  11.211
63211W        W29752  44.454  28.370  14.969
63212W        W29753  21.285  24.039   3.124
63213W        W29754  28.043  19.535  10.999
63214W        W29755  30.169  34.953   4.350
63215W        W29756   9.607  30.139   3.036
63216W        W29757  22.759   8.648  13.172
63217W        W29758  16.058  20.050   4.432
63218W        W29759  11.114   3.862   1.798
63219W        W29760   1.035   2.685  12.874
63220W        W29761  14.714  37.883  13.996
63221W        W29762   6.389  22.772  14.415
63222W        W29763  11.236   3.861  11.386
63223W        W29764  28.026  15.038  14.734
63224W        W29765  30.707   2.910  13.346
63225W        W29766   2.930  28.904  14.486
63226W        W29767  26.976   3.342   4.593
63227W        W29768  41.068  20.042  11.589
63228W        W29769  13.069  31.970  11.265
63229W        W29770  10.892   5.457  13.894
63230W        W29771  43.568  15.929  10.930
63231W        W29772  32.384  25.176  11.548
63232W        W29773  42.458  18.658   4.604
63233W        W29774  39.505  41.837  12.846
63234W        W29775  28.096  17.514  11.970
63235W        W29776  28.700  11.683  14.045
63236W        W29777  12.316  32.742   4.476
63237W        W29778  40.285   7.503  13.372
63238W        W29779  27.498   4.177   3.590
63239W        W29780  21.795  39.969   0.510
63240W        W29781  29.832  37.026   4.355
63241W        W29782  15.071   5.892   4.565
63242W        W29783   8.496  18.607   1.173
63243W        W29784  12.113  33.397  14.309
63244W        W29785  34.569  16.783  11.983
63245W        W29786  21.248  32.635   4.788
63246W        W29787  17.154  25.972  14.800
63247W        W29788   6.368  37.252   3.205
63248W        W29789   6.796  21.223  13.558
63249W        W29790  13.907   3.800   1.386
63250W        W29791  19.725   5.369   1.410
63251W        W29792   6.756  37.284   1.004
63252W        W29793  43.495  29.400  11.163
63253W        W29794  40.540  27.204  11.658
63254W        W29795   2.944  40.238  14.951
63255W        W29796  35.915  38.041  12.991
63256W        W29797  14.401   3.846   4.163
63257W        W29798   6.864  20.535   4.096
63258W        W29799  40.975  33.309  13.678
63259W        W29800  18.592  11.097  12.954
63260W        W29801  32.308  31.536  10.707
63261W        W29802   4.392  27.173   3.278
63262W        W29803  22.102   3.670   1.805
63263W        W29804  27.983   6.509  13.027
63264W        W29805   4.944   3.978   2.180
63265W        W29806  24.604  41.744  12.699
63266W        W29807  24.023  31.111   3.790
63267W        W29808  29.868  13.815   2.090
63268W        W29809   0.789   4.338  11.435
63269W        W29810  16.522  43.265   1.886
63270W        W29811  22.726  38.436   1.742
63271W        W29812  23.021   3.402   9.725
63272W        W29813  27.024  32.830  10.865
63273W        W29814  18.727  12.658  11.572
63274W        W29815  17.300  20.727  12.109
63275W        W29816  23.935   8.391  10.384
63276W        W29817  10.901   9.421   4.207
63277W        W29818  21.394  28.946   1.936
63278W        W29819  31.082  17.169  11.989
63279W        W29820  41.324  33.879  14.372
63280W        W29821  32.864  15.555   1.167
63281W        W29822   9.220  30.939  11.246
63282W        W29823  42.502  39.341   1.785
63283W        W29824  34.581  26.383  12.406
63284W        W29825  36.361  30.271   1.717
63285W        W29826  17.385  35.942   3.694
63286W        W29827  12.887  33.410  14.830
63287W        W29828  12.513  27.837   0.676
63288W        W29829  14.025   8.573   1.462
63289W        W29830  39.364  18.104  11.864
63290W        W29831   6.457  35.529  13.978
63291W        W29832   4.299   1.841   0.776
63292W        W29833   6.602  15.418   1.298
63293W        W29834  24.120  34.891  11.221
63294W        W29835   8.074   3.508  13.670
63295W        W29836  20.301  39.762  12.447
63296W        W29837   7.937  11.094  14.417
63297W        W29838  18.121   4.421  12.083
63298W        W29839  15.806  44.272   0.844
63299W        W29840  17.851   9.074  12.068
63300W        W29841  40.184  43.039   4.194
63301W        W29842  13.117  34.599  11.133
63302W        W29843   8.875  35.892  11.198
63303W        W29844  21.768   5.739   0.280
63304W        W29845  18.510  34.603  12.499
63305W        W29846   7.693  21.146   2.808
63306W        W29847   0.024  27.233  14.356
63307W        W29848  40.131   8.116   3.648
63308W        W29849  11.923  32.689   1.691
63309W        W29850   1.452   5.293  12.940
63310W        W29851   6.113  32.224   4.471
63311W        W29852  38.693  31.904   4.682
63312W        W29853  19.649  37.581   2.820
63313W        W29854  37.546  18.114   0.054
63314W        W29855  34.580   0.113   4.959
63315W        W29856  21.609  26.532  11.315
63316W        W29857  37.374  26.754  13.676
63317W        W29858  32.871   7.810   1.568
63318W        W29859  24.037   6.386  14.961
63319W        W29860  20.149  30.052   2.665
63320W        W29861  10.076  38.964   1.917
63321W        W29862  42.759  23.987   4.393
63322W        W29863   5.010   0.390   1.762
63323W        W29864  23.919  18.635  12.433
63324W        W29865  44.936  32.495  14.799
63325W        W29866   0.364  22.134  11.940
63326W        W29867  24.692  33.240   2.821
63327W        W29868  38.966   9.265  10.748
63328W        W29869   3.012  28.258  10.686
63329W        W29870  31.898   6.020   3.363
63330W        W29871  42.791  37.045  10.972
63331W        W29872   8.361  20.097   3.209
63332W        W29873  26.025   5.972   2.744
63333W        W29874  20.544  35.035   4.273
63334W        W29875  22.671  32.544   2.461
63335W        W29876   5.589  35.286   4.899
63336W        W29877  37.486  40.193   1.717
63337W        W29878  30.076  30.918   2.289
63338W        W29879  42.007  35.857   3.668
63339W        W29880  13.165  16.771  10.680
63340W        W29881  17.162  18.666  14.323
63341W        W29882  25.711  24.075  12.437
63342W        W29883  25.081  10.604  11.230
63343W        W29884  42.270  15.542  11.639
63344W        W29885   9.464  43.977   4.021
63345W        W29886  41.603   2.518   4.682
63346W        W29887   2.063  27.692   1.809
63347W        W29888  29.565  28.129  13.420
63348W        W29889   6.139  22.683   2.856
63349W        W29890  25.332   5.794   5.431
63350W        W29891  27.107  12.595  14.904
63351W        W29892  12.583   1.872  11.608
63352W        W29893  22.066   9.137  10.979
63353W        W29894  11.390  31.974  13.298
63354W        W29895  24.086   1.630   1.785
63355W        W29896   0.896   0.221   2.727
63356W        W29897  18.768  27.934   2.330
63357W        W29898  44.003  34.965  14.071
63358W        W29899  39.227   1.814   0.810
63359W        W29900  29.547  30.155  14.335
63360W        W29901  42.502   7.799  12.893
63361W        W29902  40.031  34.675   0.340
63362W        W29903  42.507  11.170   0.727
63363W        W29904  37.143  31.504   0.641
63364W        W29905  17.938   9.588   1.783
63365W        W29906  30.166  38.781   3.870
63366W        W29907  10.820   0.814  14.051
63367W        W29908  43.474  27.146   1.684
63368W        W29909  25.268   0.970   2.230
63369W        W29910   7.255   2.332   2.180
63370W        W29911  42.770  25.663   2.678
63371W        W29912  12.745   7.618   3.709
63372W        W29913  38.424  40.302  13.363
63373W        W29914  11.075   9.108   1.232
63374W        W29915  33.960  29.345   4.614
63375W        W29916  25.106  18.045   4.088
63376W        W29917  42.599  42.438  13.311
63377W        W29918  39.231  15.809  14.909
63378W        W29919   7.864   5.101   1.696
63379W        W29920  18.552   8.594  11.194
63380W        W29921  23.588  23.943   4.571
63381W        W29922  10.846   9.264   3.702
63382W        W29923  12.931  20.629  13.757
63383W        W29924  27.390   3.874   0.928
63384W        W29925   9.539   7.900   0.363
63385W        W29926   2.996  24.948  14.045
63386W        W29927   3.653  17.201   0.862
63387W        W29928  13.135  37.471   2.321
63388W        W29929  29.636  34.773  11.217
63389W        W29930  23.481  36.848  14.327
63390W        W29931  17.845  29.187   4.610
63391W        W29932   5.290  37.020   3.206
63392W        W29933   9.396   3.746   0.308
63393W        W29934  18.588  37.099  10.674
63394W        W29935   1.425  29.126   9.912
63395W        W29936  23.502  12.389  12.696
63396W        W29937   3.734  19.149  12.064
63397W        W29938  38.494   0.847   3.752
63398W        W29939  23.647  31.382   3.546
63399W        W29940  14.203  36.746   0.487
63400W        W29941  15.701  26.568   3.221
63401W        W29942  43.930   2.349  13.812
63402W        W29943   0.655  12.130   3.743
63403W        W29944  41.747  34.128   4.126
63404W        W29945  30.761  39.187  12.480
63405W        W29946  29.890  12.825  13.346
63406W        W29947  15.537  42.294  12.793
63407W        W29948  29.476  34.897   2.834
63408W        W29949   7.723  40.816   1.701
63409W        W29950   1.312  24.440   1.043
63410W        W29951  29.283  26.136   3.948
63411W        W29952  32.052  34.349   3.775
63412W        W29953   9.661  19.889  11.491
63413W        W29954  42.298  22.183   1.818
63414W        W29955  37.000  38.529  11.225
63415W        W29956  44.038  35.107   0.979
63416W        W29957  42.014  41.561  11.047
63417W        W29958  15.773   6.755  13.925
63418W        W29959  40.041  35.048   3.188
63419W        W29960  38.659   1.662  11.873
63420W        W29961  31.612  37.311   3.977
63421W        W29962  15.379  30.073   3.403
63422W        W29963   2.552  14.344   1.390
63423W        W29964  36.787  21.527   0.482
63424W        W29965  43.571  34.207  12.092
63425W        W29966   0.755  16.022   3.172
63426W        W29967  33.278  34.423  10.794
63427W        W29968  37.461   0.043   0.293
63428W        W29969  26.990  32.606   4.172
63429W        W29970  30.487  27.511   1.626
63430W        W29971   2.694  40.697   3.845
63431W        W29972  23.036   1.295   1.934
63432W        W29973  20.805  13.052   3.747
63433W        W29974  21.064  43.404  13.478
63434W        W29975  36.866  27.804   0.875
63435W        W29976  38.006  30.724  14.934
63436W        W29977  38.363  23.984   1.213
63437W        W29978  43.028   3.924  14.013
63438W        W29979  43.154   3.517   5.049
63439W        W29980  15.762  13.108  12.891
63440W        W29981  17.776  32.349   3.843
63441W        W29982   3.785   5.114  13.508
63442W        W29983   3.957  38.603  11.114
63443W        W29984  41.472   6.473   1.743
63444W        W29985  18.431   5.960  11.859
63445W        W29986  25.352  32.863   3.317
63446W        W29987  36.106  38.289   2.554
63447W        W29988  38.919   8.926  14.043
63448W        W29989  17.525   1.139  13.164
63449W        W29990  10.149   0.814  13.038
63450W        W29991  23.090   2.060  12.385
63451W        W29992  13.799   2.807   3.098
63452W        W29993  26.686  15.562  11.478
63453W        W29994  12.591  28.354   0.725
63454W        W29995  10.773  20.970  11.165
63455W        W29996  31.439   7.782   1.262
63456W        W29997  34.093  27.136  12.851
63457W        W29998   8.087  21.895  14.004
63458W        W29999  38.658  32.939  13.441
63459W        W30000   1.776  42.731  11.114
63460W        W30001  13.094   5.697   0.860
63461W        W30002  15.508  15.732  12.855
63462W        W30003  25.871  25.076  12.464
63463W        W30004  29.145  26.886  11.411
63464W        W30005  24.590  12.148  11.567
63465W        W30006  22.426  26.437   0.516
63466W        W30007  44.104  18.062  12.865
63467W        W30008  44.954  40.296  14.569
63468W        W30009  14.174   3.373   1.892
63469W        W30010  36.591   6.466   3.834
63470W        W30011  36.104  22.452   0.264
63471W        W30012   9.316  32.995   0.919
63472W        W30013  27.477  36.034  10.732
63473W        W30014  21.150  41.920   1.822
63474W        W30015  27.784  18.538  11.706
63475W        W30016  27.774  32.579   1.482
63476W        W30017  18.285  42.850  13.217
63477W        W30018   9.151  11.749   1.373
63478W        W30019  31.815  18.248  11.114
63479W        W30020  11.650  41.461   1.790
63480W        W30021  36.125  21.546   1.855
63481W        W30022  22.212   3.472  10.681
63482W        W30023  28.479  43.768  13.842
63483W        W30024   2.911   0.311  14.503
63484W        W30025   3.280   8.898   2.150
63485W        W30026  33.367  20.671  12.032
63486W        W30027  23.496  21.591  12.434
63487W        W30028  37.962  19.827   4.777
63488W        W30029   3.404  18.245   1.944
63489W        W30030   4.505  19.666   3.258
63490W        W30031  12.763  29.871   4.602
63491W        W30032   1.957  34.548  12.004
63492W        W30033  32.997  33.611  14.904
63493W        W30034  23.687  44.766  13.416
63494W        W30035   8.226  37.005  11.571
63495W        W30036  37.296  31.089   1.331
63496W        W30037  38.528  24.606  11.331
63497W        W30038  37.142   0.962   2.260
63498W        W30039  37.398  13.592  10.991
63499W        W30040   0.395   3.446   4.194
63500W        W30041  31.225  43.805   3.256
63501W        W30042  34.606  11.442  12.939
63502W        W30043  17.834   0.427  13.951
63503W        W30044   8.085  22.009   3.624
63504W        W30045  23.078  28.288   2.173
63505W        W30046  12.480  34.901  14.415
63506W        W30047  15.280  40.470  10.696
63507W        W30048  34.188  15.419  14.344
63508W        W30049  14.344   8.577  14.279
63509W        W30050  22.681  31.172  11.268
63510W        W30051  40.963  35.958  10.748
63511W        W30052  16.586  11.159  10.468
63512W        W30053  31.359   3.963  13.829
63513W        W30054  10.953  31.978  13.584
63514W        W30055  14.706  17.968   1.266
63515W        W30056   6.419  14.584   4.428
63516W        W30057   1.843  44.775  12.548
63517W        W30058  18.305  19.474  12.087
63518W        W30059   6.882  19.777   0.945
63519W        W30060  31.299  44.369  13.136
63520W        W30061  22.586   9.726  14.729
63521W        W30062  30.290  40.484  11.679
63522W        W30063  44.261   8.666  12.875
63523W        W30064  29.339  21.193   0.359
63524W        W30065  23.234   2.541   1.415
63525W        W30066  20.560   5.283   9.940
63526W        W30067  25.413  10.866   3.697
63527W        W30068   9.830  43.438   1.240
63528W        W30069  25.665  14.687  14.395
63529W        W30070  40.448  16.257   0.277
63530W        W30071  18.675  32.704   1.439
63531W        W30072  27.847   4.435  14.754
63532W        W30073   2.391  39.047   2.312
63533W        W30074  30.676  25.024   4.798
63534W        W30075   5.925  16.439   1.192
63535W        W30076  39.738  11.970  11.973
63536W        W30077  38.863  26.479   1.246
63537W        W30078  36.769  14.567   0.887
63538W        W30079   1.685   2.353   0.198
63539W        W30080  25.402  16.991  11.913
63540W        W30081  39.262  13.544   0.743
63541W        W30082  25.129  15.614   5.126
63542W        W30083  19.946   7.369  12.967
63543W        W30084  27.414  23.987  10.686
63544W        W30085  43.697   7.578  12.382
63545W        W30086   3.297  10.753  14.934
63546W        W30087  44.475  40.116   1.072
63547W        W30088  26.560  42.415  14.433
63548W        W30089  17.120  28.939   2.347
63549W        W30090   8.910   5.715  10.684
63550W        W30091  29.784  30.600  10.799
63551W        W30092  10.236   9.270   1.330
63552W        W30093  42.394  15.160  11.262
63553W        W30094   9.585  43.817   4.543
63554W        W30095  13.263   2.339  14.368
63555W        W30096  44.012  44.579  13.394
63556W        W30097   4.432  36.227   2.779
63557W        W30098  11.329   2.380  12.521
63558W        W30099  19.985   1.499   1.703
63559W        W30100  18.321  37.300   3.776
63560W        W30101  13.304  14.477   3.875
63561W        W30102  18.213  11.613   3.093
63562W        W30103  28.602   9.695  11.145
63563W        W30104  33.155  16.030   4.090
63564W        W30105  10.906  14.222  13.175
63565W        W30106  17.195  32.629   1.016
63566W        W30107  29.883   3.909  11.096
63567W        W30108   2.825  34.857   0.407
63568W        W30109  24.574   3.895  14.957
63569W        W30110   1.434  16.849   0.494
63570W        W30111   2.357  14.802   0.544
63571W        W30112   1.782   7.906  11.639
63572W        W30113   3.788  42.585  11.121
63573W        W30114  41.353  17.546   4.646
63574W        W30115  25.953  36.355   1.709
63575W        W30116  30.094  29.756  13.041
63576W        W30117  41.936  32.236   1.731
63577W        W30118  13.785  29.200  11.158
63578W        W30119  14.547   2.616  11.136
63579W        W30120   0.284  37.611  11.643
63580W        W30121  44.320  20.898   0.912
63581W        W30122  44.673  21.287   2.190
63582W        W30123  24.443  40.981   4.613
63583W        W30124  28.610  10.241  12.072
63584W        W30125  36.563  25.401   2.808
63585W        W30126  11.276  42.768   4.040
63586W        W30127  17.480  39.724  10.646
63587W        W30128  44.016  19.730  11.776
63588W        W30129   3.009  18.441  12.184
63589W        W30130  16.478  12.644   4.553
63590W        W30131  43.726  20.170   3.162
63591W        W30132  12.774  25.449  11.227
63592W        W30133  41.864   4.147   4.090
63593W        W30134   0.030  33.466   2.360
63594W        W30135   1.843  37.756  13.963
63595W        W30136   5.000  14.156  14.986
63596W        W30137   7.678  31.350   1.446
63597W        W30138  37.579  19.454  12.905
63598W        W30139   6.771  27.425  11.349
63599W        W30140  44.869   0.028  13.095
63600W        W30141   9.142  40.404   0.298
63601W        W30142   6.874  17.825  12.133
63602W        W30143   9.505  23.927   4.526
63603W        W30144  25.245   1.387   4.079
63604W        W30145  12.100  33.607   3.623
63605W        W30146  19.193  30.414   2.727
63606W        W30147   6.267  18.963   1.320
63607W        W30148  18.235  43.768  12.308
63608W        W30149  23.384  13.124  13.642
63609W        W30150  44.296  40.645  10.662
63610W        W30151  24.285   7.418   0.782
63611W        W30152  19.254  19.167   3.762
63612W        W30153  38.036  10.399  12.370
63613W        W30154   0.952  20.088   0.816
63614W        W30155   9.943   9.655   0.421
63615W        W30156   2.398  29.032  14.788
63616W        W30157  16.696  40.587   0.476
63617W        W30158   3.838  27.553  11.880
63618W        W30159  17.027  44.412  13.016
63619W        W30160   0.774   8.618  10.356
63620W        W30161  32.537  33.492   2.559
63621W        W30162   9.608  25.535   1.955
63622W        W30163   0.787  43.825  13.405
63623W        W30164  12.474  29.085   2.836
63624W        W30165  34.947  16.302  10.243
63625W        W30166  20.771  37.487   1.243
63626W        W30167  33.622  13.719  12.503
63627W        W30168  14.824  42.458   2.373
63628W        W30169   4.945   1.136   0.639
63629W        W30170   9.139  25.678   1.733
63630W        W30171   9.146  10.642  14.441
63631W        W30172  18.146  11.816   4.245
63632W        W30173  21.270  16.288   0.296
63633W        W30174  43.448   8.361  14.012
63634W        W30175   2.017   0.858   3.621
63635W        W30176   7.333  28.032   3.315
63636W        W30177  37.912  35.255  10.330
63637W        W30178   3.412  43.428  11.658
63638W        W30179  27.757  38.015  14.945
63639W        W30180  23.043  17.992   1.259
63640W        W30181  20.981  38.385   1.320
63641W        W30182  26.122   5.225  14.004
63642W        W30183  34.848  27.621   0.020
63643W        W30184  10.362  17.000   2.719
63644W        W30185  22.575  19.653   4.660
63645W        W30186  34.483   4.930   0.842
63646W        W30187  19.197  18.463  14.474
63647W        W30188  41.556  11.134   0.733
63648W        W30189  16.093   3.283   2.406
63649W        W30190  10.091  33.009   4.772
63650W        W30191  37.918  21.798  13.505
63651W        W30192   9.935  14.721  11.244
63652W        W30193  33.424  36.565   0.213
63653W        W30194   5.326  23.668  14.898
63654W        W30195  29.070  30.424   1.433
63655W        W30196  15.617  35.383  13.541
63656W        W30197   3.298   1.200  13.722
63657W        W30198   6.957   0.838   1.981
63658W        W30199  20.252  12.279  12.945
63659W        W30200  21.314  12.754   2.697
63660W        W30201  25.469   0.029  12.012
63661W        W30202  22.091  29.564   1.685
63662W        W30203  35.604  19.594   4.231
63663W        W30204  34.041  13.750   3.413
63664W        W30205  29.529  23.443   0.923
63665W        W30206  25.126  43.479   3.822
63666W        W30207  28.213  17.587  12.801
63667W        W30208   3.403  15.823  12.713
63668W        W30209  21.802  35.511  11.059
63669W        W30210  35.535  16.677  11.859
63670W        W30211  11.313  30.355  12.570
63671W        W30212  32.199  33.471  13.139
63672W        W30213   0.725  44.457   0.462
63673W        W30214  43.199  21.680  12.326
63674W        W30215   1.804  24.585  10.467
63675W        W30216  41.891   7.925  11.965
63676W        W30217  32.071  10.987  12.005
63677W        W30218  29.489  15.816   1.183
63678W        W30219  17.197  20.717  12.964
63679W        W30220  40.502  30.757  14.014
63680W        W30221  21.367   6.851  12.989
63681W        W30222  20.706  15.821  12.619
63682W        W30223  39.841  38.904  12.123
63683W        W30224  14.739   5.031   2.805
63684W        W30225  42.447  33.019   4.633
63685W        W30226  19.733  31.164  14.338
63686W        W30227  18.528  13.377  13.283
63687W        W30228  36.186   4.833  13.206
63688W        W30229  40.747  30.426   1.404
63689W        W30230   4.851   6.457  10.489
63690W        W30231  15.990   3.927  14.477
63691W        W30232  15.067  43.380   2.917
63692W        W30233  38.613  43.181  10.756
63693W        W30234  32.011  10.334   5.103
63694W        W30235   3.478   8.887   1.270
63695W        W30236   4.269  20.754   0.214
63696W        W30237  43.020  28.524   1.780
63697W        W30238   2.382   5.161  11.488
63698W        W30239  27.136  16.173   0.314
63699W        W30240  35.381  34.600  13.834
63700W        W30241  23.853  23.953   0.408
63701W        W30242   6.334  12.746   4.737
63702W        W30243   1.601   6.552   3.940
63703W        W30244   9.818  11.937   0.109
63704W        W30245  35.581  25.532   2.396
63705W        W30246  32.998  16.522   4.065
63706W        W30247   4.797  21.430   3.204
63707W        W30248  35.999  20.046   3.730
63708W        W30249  39.843  33.276  10.840
63709W        W30250  41.370   2.462   1.400
63710W        W30251  28.483  25.623  12.904
63711W        W30252  25.682   8.956  11.567
63712W        W30253  39.930  13.373   2.671
63713W        W30254  44.004  39.377   4.071
63714W        W30255  23.568   4.825   3.103
63715W        W30256   4.376  25.220  12.065
63716W        W30257  11.032  21.191   1.100
63717W        W30258  25.536  28.466   3.704
63718W        W30259   4.475  19.229   2.689
63719W        W30260  20.279  26.184   2.365
63720W        W30261  12.151  36.675  12.992
63721W        W30262   0.893  13.251  12.565
63722W        W30263  14.860  21.692   1.081
63723W        W30264   3.604  35.034  14.918
63724W        W30265  28.962  17.068   1.971
63725W        W30266  26.720  11.253   2.000
63726W        W30267  44.015  38.010   2.715
63727W        W30268  10.255  12.089  13.455
63728W        W30269  10.165  40.812  12.000
63729W        W30270   4.378   4.003  13.864
63730W        W30271  12.894  22.906   0.805
63731W        W30272  36.451  32.608   0.949
63732W        W30273  44.247  40.568   4.213
63733W        W30274  16.308  28.671   3.276
63734W        W30275  15.903  37.316  14.907
63735W        W30276   0.909  19.446  11.660
63736W        W30277   2.994  28.960   3.197
63737W        W30278  33.893  42.483   3.055
63738W        W30279   4.214  41.841  11.216
63739W        W30280  42.343   0.278   1.018
63740W        W30281  40.191  16.073   0.996
63741W        W30282  10.630  14.199   1.865
63742W        W30283  34.640  39.230   2.353
63743W        W30284  20.198  35.108   1.634
63744W        W30285   7.671   4.793   2.169
63745W        W30286  40.328  25.639  12.479
63746W        W30287  35.381  18.590  11.275
63747W        W30288  29.110  12.141   3.395
63748W        W30289   5.778  30.397  11.558
63749W        W30290  11.183   1.918   1.420
63750W        W30291   1.400   2.195   4.964
63751W        W30292   8.514  17.659   3.661
63752W        W30293   0.821  42.877   1.929
63753W        W30294  31.055   8.909  12.883
63754W        W30295  10.809  40.950  12.640
63755W        W30296  28.053   7.014  12.159
63756W        W30297  33.330  31.767   0.298
63757W        W30298  37.287  12.206  10.985
63758W        W30299  43.509  30.628   1.719
63759W        W30300  33.300   3.281  14.677
63760W        W30301  35.850  19.533  14.108
63761W        W30302  42.039   6.342  11.930
63762W        W30303  32.807   2.556   1.897
63763W        W30304  22.743   4.934  12.480
63764W        W30305   4.996  32.331  10.083
63765W        W30306  30.252  25.245   2.795
63766W        W30307  27.943  28.548  13.903
63767W        W30308  32.136  29.494   3.488
63768W        W30309   5.337  12.103  11.865
63769W        W30310  27.911   5.948  13.831
63770W        W30311  27.621   1.493   4.600
63771W        W30312   1.918  13.423   0.242
63772W        W30313  28.725  31.733   2.940
63773W        W30314   2.761   6.339   1.415
63774W        W30315  20.217  42.904  11.177
63775W        W30316  27.926  16.160   4.618
63776W        W30317  35.280  41.198   3.460
63777W        W30318  23.147   4.831   3.616
63778W        W30319  42.421  24.991  13.500
63779W        W30320  31.034   5.076  10.301
63780W        W30321  23.735  23.603   4.945
63781W        W30322  34.253  18.186  11.208
63782W        W30323   5.954  41.509  10.603
63783W        W30324  39.302  15.688   4.414
63784W        W30325   1.485  36.397   3.100
63785W        W30326   4.780   5.716  14.261
63786W        W30327  10.096  35.066   2.399
63787W        W30328  35.485  24.686   3.734
63788W        W30329  34.151  13.521  10.225
63789W        W30330  22.090  17.109   9.920
63790W        W30331   2.285   2.485   1.842
63791W        W30332  19.335   8.861  11.424
63792W        W30333   2.798  25.981   1.825
63793W        W30334   4.849  15.086  12.111
63794W        W30335  26.153  13.421   3.201
63795W        W30336  20.117   5.329  10.233
63796W        W30337  20.020  33.606   1.461
63797W        W30338  26.662  16.847   2.314
63798W        W30339  14.934  19.214  12.183
63799W        W30340  13.751  33.941  14.846
63800W        W30341   7.616   0.527   3.424
63801W        W30342  15.420  28.008   2.744
63802W        W30343  35.256   7.379   4.162
63803W        W30344  33.990  37.541   4.466
63804W        W30345  34.383   3.538  12.413
63805W        W30346  26.115   9.262  11.577
63806W        W30347  39.007  36.602   3.580
63807W        W30348   1.552   5.829   2.316
63808W        W30349   8.840  15.002  11.935
63809W        W30350  37.549   5.902   3.296
63810W        W30351  20.862  29.712   0.393
63811W        W30352  42.301  16.298  14.467
63812W        W30353  39.361  23.255  13.756
63813W        W30354  25.572  18.853   2.390
63814W        W30355  24.766  16.316   0.468
63815W        W30356  36.707  28.395   3.327
63816W        W30357  43.068  23.231  14.807
63817W        W30358  38.000  30.842   1.952
63818W        W30359  19.113   1.028  14.377
63819W        W30360  44.486  36.080  11.342
63820W        W30361   6.247  14.595  12.968
63821W        W30362  33.097   9.148  11.043
63822W        W30363  18.223  17.748   0.697
63823W        W30364  33.628  36.714   4.573
63824W        W30365  25.596   7.179   1.967
63825W        W30366   7.873  43.993  11.169
63826W        W30367  22.567  11.228   3.491
63827W        W30368  30.855  33.206   4.113
63828W        W30369   3.888   8.486  12.503
63829W        W30370  23.136  39.774   3.627
63830W        W30371  44.868  39.062   4.249
63831W        W30372  25.176  44.202  14.329
63832W        W30373   1.509  41.972   2.785
63833W        W30374  12.235  31.845   1.909
63834W        W30375   4.954  32.093   2.938
63835W        W30376  24.944  19.990  11.734
63836W        W30377  38.542  20.452  11.227
63837W        W30378   8.760  36.850  11.977
63838W        W30379   8.346  32.231   4.707
63839W        W30380  35.901  20.670  11.018
63840W        W30381   4.708  33.611   3.129
63841W        W30382   5.788  31.198   0.832
63842W        W30383  16.563  11.568  12.889
63843W        W30384  13.691  13.658  10.345
63844W        W30385  27.896  18.034   4.639
63845W        W30386  16.843  18.382  14.941
63846W        W30387   5.924  32.841  10.721
63847W        W30388  12.425  13.801   2.206
63848W        W30389  34.024  10.020  12.053
63849W        W30390  29.466  34.934   3.344
63850W        W30391  36.569  43.995   4.138
63851W        W30392   5.333  17.694   0.906
63852W        W30393  30.769  33.619   4.921
63853W        W30394  16.842  11.268  13.852
63854W        W30395  32.444  32.005  10.410
63855W        W30396  25.737  17.552   0.961
63856W        W30397  19.340  11.651  12.058
63857W        W30398  20.565  25.523  13.826
63858W        W30399   4.245  39.165  13.605
63859W        W30400  17.833  25.674   2.258
63860W        W30401  35.635  20.723  12.845
63861W        W30402   2.331   1.430   4.474
63862W        W30403  21.499  15.330  13.949
63863W        W30404  25.529   0.368   3.802
63864W        W30405   8.156  37.501  13.447
63865W        W30406  18.238  17.999   3.825
63866W        W30407  31.973  40.650  11.162
63867W        W30408  17.298  35.451   0.026
63868W        W30409  15.708   3.433   1.202
63869W        W30410  11.244  32.653  10.945
63870W        W30411  25.077  43.598  12.033
63871W        W30412   0.829  38.098   1.661
63872W        W30413  42.241   2.208  10.473
63873W        W30414   2.186  15.107  13.194
63874W        W30415  17.660  10.779   3.683
63875W        W30416  23.612  18.184  10.943
63876W        W30417   6.261  28.706   0.411
63877W        W30418  36.027   4.971  11.689
63878W        W30419  20.573  17.825  13.816
63879W        W30420  30.416   4.114   1.972
63880W        W30421  31.318  32.056   0.817
63881W        W30422  21.006  32.118  12.969
63882W        W30423  13.760  27.454   3.575
63883W        W30424   9.722  11.254  12.544
63884W        W30425  28.723  27.181  14.358
63885W        W30426  43.469  41.458   1.995
63886W        W30427  31.003   1.656   3.791
63887W        W30428  18.705   5.698   0.427
63888W        W30429  23.025   3.934   9.738
63889W        W30430  16.095  30.167  11.959
63890W        W30431  16.423  32.024  13.440
63891W        W30432  10.647  24.861   0.704
63892W        W30433   2.343   1.430   3.069
63893W        W30434   7.434   1.447  12.587
63894W        W30435  11.357  21.740  13.795
63895W        W30436  22.759  18.043  13.535
63896W        W30437   0.177  14.988   2.865
63897W        W30438  26.156  24.586  14.419
63898W        W30439   3.904  19.545  13.906
63899W        W30440  27.939  15.241   0.611
63900W        W30441   5.401  24.255  14.472
63901W        W30442  14.247  31.216   3.452
63902W        W30443   9.718  35.989   2.281
63903W        W30444  42.217  22.359  10.359
63904W        W30445   4.696  36.222   3.633
63905W        W30446  17.607  30.215   2.232
63906W        W30447  38.629   2.109   4.781
63907W        W30448   2.368  41.751   4.561
63908W        W30449  25.955  33.544  11.982
63909W        W30450  15.832   6.745   4.518
63910W        W30451  31.898  40.508   1.403
63911W        W30452  35.294  22.342   0.941
63912W        W30453   8.488  42.723  10.644
63913W        W30454   0.982  32.092  12.428
63914W        W30455   4.887  43.867  13.114
63915W        W30456  33.356  34.462   2.103
63916W        W30457   6.129  18.463   1.321
63917W        W30458  40.234   1.171  14.369
63918W        W30459  29.232   5.785  11.140
63919W        W30460  38.893  24.172  12.004
63920W        W30461  22.702  18.009   0.330
63921W        W30462   9.653  24.528  12.965
63922W        W30463  24.009  33.517   0.771
63923W        W30464  15.359   3.518   3.982
63924W        W30465  28.576  39.566   2.216
63925W        W30466   0.218  44.369  13.089
63926W        W30467  13.026   4.786   1.001
63927W        W30468  20.317   2.937   1.769
63928W        W30469  26.991  16.745   1.791
63929W        W30470  14.845  15.824  11.135
63930W        W30471  41.467  35.376   4.420
63931W        W30472   1.423   0.367  10.788
63932W        W30473  27.694  17.167  13.957
63933W        W30474  34.535  30.968  14.540
63934W        W30475  35.186  40.561  14.319
63935W        W30476   4.855   5.765   0.316
63936W        W30477  20.668  42.707   5.127
63937W        W30478  39.317  22.165  13.076
63938W        W30479  30.042  25.271   1.842
63939W        W30480  21.949   9.402  14.503
63940W        W30481  40.702  30.639   2.741
63941W        W30482  28.141  19.026   1.759
63942W        W30483   1.720  21.260   1.037
63943W        W30484  17.669  32.539  11.346
63944W        W30485  34.602  16.455  12.384
63945W        W30486  35.598  11.587  14.253
63946W        W30487  27.413  36.058   4.264
63947W        W30488  19.684  28.223   4.341
63948W        W30489  38.891   2.003   1.855
63949W        W30490   7.972  23.375  11.938
63950W        W30491  13.794  18.971  12.956
63951W        W30492  36.213   8.269   1.378
63952W        W30493   3.682   3.733   1.791
63953W        W30494  19.110  14.284  12.873
63954W        W30495   4.380  12.556   3.345
63955W        W30496   4.344   5.893   2.844
63956W        W30497  32.672  12.146   0.240
63957W        W30498  21.260  23.564  14.793
63958W        W30499   6.975  24.368   2.305
63959W        W30500  14.294  37.353   1.732
63960W        W30501  17.605  40.141  13.874
63961W        W30502  44.474  17.925   0.926
63962W        W30503  29.722  36.482   1.377
63963W        W30504  17.919  38.486   3.123
63964W        W30505   1.982  43.884   1.240
63965W        W30506  41.794   8.373   2.225
63966W        W30507  28.420   8.616  13.911
63967W        W30508  11.412  40.814  10.249
63968W        W30509  36.779   0.770  14.284
63969W        W30510  41.930  24.051  14.727
63970W        W30511  40.440  13.076   2.061
63971W        W30512  13.644   3.781   2.717
63972W        W30513  21.834   1.908   4.529
63973W        W30514  38.104  14.650   2.626
63974W        W30515  41.603  30.843  11.957
63975W        W30516  35.922   1.453   4.570
63976W        W30517  31.437  35.170   4.038
63977W        W30518  41.596   3.828  11.446
63978W        W30519  21.531  40.291  11.993
63979W        W30520  28.662  16.917  10.692
63980W        W30521  18.733  37.317  11.985
63981W        W30522   3.007  17.730   4.168
63982W        W30523  26.655  25.000   4.212
63983W        W30524  20.040   2.421  13.905
63984W        W30525   8.656  30.194  10.833
63985W        W30526   2.947  37.461  14.803
63986W        W30527  44.686  28.963   4.792
63987W        W30528  25.361  35.218  13.442
63988W        W30529  16.140  24.086  11.585
63989W        W30530  44.982  40.359  13.623
63990W        W30531  23.331   7.788   9.774
63991W        W30532   0.481  28.926   3.583
63992W        W30533  26.211  36.861   2.862
63993W        W30534  27.964   4.321   3.768
63994W        W30535  23.978  21.967   1.370
63995W        W30536  22.008  10.868  12.973
63996W        W30537  10.367  30.513   4.416
63997W        W30538  11.943   9.684  12.468
63998W        W30539   4.895  22.212  12.042
63999W        W30540  22.149  35.142  11.167
64000W        W30541  15.450  41.821   5.250
64001W        W30542  15.699  14.137  12.878
64002W        W30543  15.600   0.263   1.783
64003W        W30544  35.791  34.548   1.534
64004W        W30545  35.560  31.520   2.347
64005W        W30546  29.135   1.302   2.897
64006W        W30547  17.836   8.327  12.578
64007W        W30548  19.010  22.007  13.385
64008W        W30549  21.566  43.419   2.752
64009W        W30550  16.611  26.561   2.941
64010W        W30551  41.444  32.494  12.474
64011W        W30552  18.913  25.748  11.458
64012W        W30553   5.149  28.526  13.436
64013W        W30554  10.929  29.892   0.867
64014W        W30555   7.311  36.539   2.196
64015W        W30556   9.581  40.323  13.996
64016W        W30557   9.287  21.887  10.686
64017W        W30558  12.626   4.246  13.522
64018W        W30559   3.205  33.019   4.555
64019W        W30560  31.149   2.308   3.182
64020W        W30561  35.332  33.615  14.933
64021W        W30562  13.938   0.946   0.270
64022W        W30563  22.541  25.444  14.961
64023W        W30564  24.164  43.817  11.599
64024W        W30565  33.019  35.137   3.766
64025W        W30566   9.129  44.908  11.264
64026W        W30567  18.246   0.227  10.339
64027W        W30568  30.650  36.394  12.151
64028W        W30569  34.942  10.759   3.577
64029W        W30570  28.300  26.175  14.041
64030W        W30571  24.525  25.183   2.267
64031W        W30572  27.569  24.224  13.375
64032W        W30573  38.998   4.208  14.734
64033W        W30574  17.061  26.658   0.444
64034W        W30575  20.209  13.653  12.572
64035W        W30576  35.388  41.012  11.366
64036W        W30577  44.756  27.689  14.434
64037W        W30578  36.118   8.020  13.827
64038W        W30579  42.762   0.378   3.918
64039W        W30580  24.478   7.679   1.179
64040W        W30581   7.157  12.473   0.769
64041W        W30582  42.311  15.229  12.099
64042W        W30583   0.089  37.403   4.745
64043W        W30584   5.836   2.344  12.575
64044W        W30585   3.406  11.882   3.864
64045W        W30586  20.446  38.498   4.455
64046W        W30587  28.940  29.738   3.608
64047W        W30588  41.666  21.824   0.944
64048W        W30589  22.757  15.113  14.990
64049W        W30590   1.728   2.428   2.773
64050W        W30591  43.302  23.757   0.967
64051W        W30592   0.294  36.184   1.111
64052W        W30593  37.650  44.914   2.688
64053W        W30594   1.037  12.050  11.462
64054W        W30595   3.361  13.194  12.114
64055W        W30596  23.657   1.942   1.672
64056W        W30597  13.091  34.426   3.783
64057W        W30598  39.599  29.454   1.945
64058W        W30599  33.046  17.747   4.150
64059W        W30600  36.300  25.990   4.236
64060W        W30601   1.375  16.916  10.690
64061W        W30602  16.874   8.537   5.048
64062W        W30603  25.716  11.226   2.263
64063W        W30604  31.528  43.899  14.790
64064W        W30605  43.893   8.094  10.675
64065W        W30606   4.851  43.848   3.663
64066W        W30607  32.976  37.489  11.522
64067W        W30608  27.282  26.502  12.838
64068W        W30609   2.416  29.863  11.048
64069W        W30610   0.310  43.931   4.217
64070W        W30611  40.386  21.903   4.545
64071W        W30612  39.007  43.546   3.650
64072W        W30613  36.030  24.553   3.983
64073W        W30614   4.502  25.952  12.965
64074W        W30615  14.337  28.449   3.192
64075W        W30616   0.702   0.405   3.659
64076W        W30617  28.072  38.710   4.579
64077W        W30618   7.381  13.840  14.475
64078W        W30619  13.336  36.991   0.689
64079W        W30620  16.721  26.883  14.670
64080W        W30621  16.503  14.878  13.071
64081W        W30622   5.486  30.951   1.165
64082W        W30623  30.482  31.176  10.721
64083W        W30624  22.066  18.110  10.617
64084W        W30625   4.628   8.833  12.603
64085W        W30626   8.733  21.141  12.488
64086W        W30627  42.910  27.099   1.440
64087W        W30628   4.700  12.345   3.902
64088W        W30629   8.941  37.611  11.533
64089W        W30630  11.196   4.660   0.538
64090W        W30631  18.610  42.358  12.052
64091W        W30632   8.083  19.218   1.790
64092W        W30633  39.945  35.377   4.925
64093W        W30634  43.513  31.127   1.295
64094W        W30635  39.433  39.607   1.441
64095W        W30636   0.383  37.546   0.605
64096W        W30637  20.001  34.138   4.289
64097W        W30638  18.763  27.128  14.798
64098W        W30639  44.197  42.415   1.245
64099W        W30640  29.561  17.323   3.196
64100W        W30641  35.463  19.034   1.282
64101W        W30642  31.865   8.858  13.755
64102W        W30643  31.186  20.947   2.898
64103W        W30644  40.326  27.182   0.820
64104W        W30645  35.450  27.438  12.005
64105W        W30646  18.378  40.740  14.860
64106W        W30647   8.636  21.968  13.574
64107W        W30648  42.348  13.428  12.194
64108W        W30649  24.792   3.837   4.588
64109W        W30650  18.083  37.075   1.683
64110W        W30651   7.480  30.932   0.266
64111W        W30652  20.755  21.825   1.305
64112W        W30653  14.074  42.250  11.096
64113W        W30654  33.798  10.226  13.105
64114W        W30655  44.766  15.297   0.740
64115W        W30656  40.072  32.708   0.312
64116W        W30657  15.367  35.161  12.625
64117W        W30658  42.878  20.753   4.093
64118W        W30659  27.590  13.885  12.624
64119W        W30660  38.462   4.269   0.910
64120W        W30661  25.993  37.346   1.744
64121W        W30662   2.678  29.874  12.039
64122W        W30663   1.391  15.776   4.725
64123W        W30664  38.392  11.423  11.092
64124W        W30665   0.007  16.647   4.181
64125W        W30666   4.339   6.102  12.530
64126W        W30667  14.129  13.848  14.930
64127W        W30668  12.834  10.241   1.373
64128W        W30669   4.192  38.346  13.926
64129W        W30670  33.989  12.216  10.013
64130W        W30671  28.730  24.469  11.467
64131W        W30672  25.572  43.293  14.039
64132W        W30673  31.376   3.445   1.974
64133W        W30674  43.931  15.018   5.102
64134W        W30675   4.468  33.550  14.003
64135W        W30676  33.720  37.811   2.735
64136W        W30677  25.142  39.298  12.971
64137W        W30678   2.478  18.882   3.705
64138W        W30679   3.681  34.814  13.631
64139W        W30680  17.081  10.250   1.416
64140W        W30681  27.992   3.345   0.653
64141W        W30682  34.037  14.149   4.677
64142W        W30683   7.517  21.779   1.888
64143W        W30684  40.953  36.671   0.755
64144W        W30685   3.200  10.329  11.389
64145W        W30686  21.165  39.556   3.360
64146W        W30687  25.102  20.564   4.610
64147W        W30688   7.633   9.193   3.197
64148W        W30689  33.796  30.398   3.696
64149W        W30690  18.511   5.238  11.108
64150W        W30691  13.866  13.599  14.299
64151W        W30692  12.410  33.005  14.208
64152W        W30693  28.635  23.550   0.898
64153W        W30694  26.436  19.644   3.271
64154W        W30695  29.051  11.646  14.684
64155W        W30696   4.374  39.047   3.537
64156W        W30697  23.709  11.846  11.183
64157W        W30698  13.231  17.501   0.952
64158W        W30699  24.913   3.921   1.764
64159W        W30700   2.259  16.318  13.472
64160W        W30701   5.442  21.559  11.741
64161W        W30702   4.516  29.927   1.831
64162W        W30703  19.487  32.615  12.014
64163W        W30704  40.328  21.269  11.139
64164W        W30705  12.565   9.141  10.720
64165W        W30706  11.153  10.868  12.586
64166W        W30707  41.078  22.754   4.213
64167W        W30708  19.493   9.764   3.024
64168W        W30709   8.245  18.839   4.237
64169W        W30710  17.266   1.789   9.930
64170W        W30711  32.909   5.491   1.836
64171W        W30712   5.843  31.305   4.852
64172W        W30713  34.502  29.554   3.954
64173W        W30714  23.137   9.332   4.262
64174W        W30715  16.837  23.252  13.426
64175W        W30716  44.225  32.387  10.808
64176W        W30717  27.242  20.362   4.886
64177W        W30718  30.483  36.843   3.713
64178W        W30719   5.376  30.964  10.496
64179W        W30720  20.060  18.069  14.738
64180W        W30721  31.468  21.387   2.929
64181W        W30722  27.618  42.525   0.808
64182W        W30723  39.429  19.355   2.756
64183W        W30724  20.727   2.856   3.407
64184W        W30725  37.385  42.441  13.143
64185W        W30726   3.960   6.652  10.528
64186W        W30727  22.537   8.081   4.067
64187W        W30728  38.651  34.419  12.165
64188W        W30729   8.816  28.520   2.270
64189W        W30730  23.819   4.303  14.020
64190W        W30731  11.899  36.850  12.545
64191W        W30732  21.711   5.062  12.572
64192W        W30733  17.050  22.558   3.721
64193W        W30734   0.832  41.920  12.662
64194W        W30735  32.388  32.337  13.737
64195W        W30736  43.004  38.039  13.078
64196W        W30737   8.179  36.603   2.281
64197W        W30738   9.306  16.571   4.650
64198W        W30739  11.713  19.759  11.850
64199W        W30740   6.679  10.780  10.761
64200W        W30741  14.854  34.626  10.739
64201W        W30742  11.337  33.448  14.814
64202W        W30743  13.793  12.305   2.255
64203W        W30744   5.219  18.570   0.397
64204W        W30745  43.635  11.125  12.439
64205W        W30746  25.994   0.030  12.054
64206W        W30747  42.763  22.161  14.858
64207W        W30748  13.041   6.766  13.517
64208W        W30749  13.463  35.164   5.129
64209W        W30750  31.408  28.032  10.976
64210W        W30751  29.077   7.734   2.409
64211W        W30752  10.680  43.602  11.615
64212W        W30753  41.873  26.665  11.696
64213W        W30754  31.366   5.379   4.074
64214W        W30755   0.621  34.155  10.897
64215W        W30756  15.717   6.146  11.318
64216W        W30757  36.563   3.943   4.511
64217W        W30758  33.424  26.994  11.035
64218W        W30759  31.092  41.143   2.689
64219W        W30760  32.472  36.934   2.198
64220W        W30761  12.203  11.205   0.517
64221W        W30762  10.092   2.907  10.699
64222W        W30763   8.337   2.218   1.887
64223W        W30764  32.627  41.920  11.092
64224W        W30765  13.381  31.508  12.349
64225W        W30766  44.951   2.307   0.283
64226W        W30767  24.514  26.682   3.189
64227W        W30768  29.946   3.783  12.847
64228W        W30769  13.227  21.359  11.620
64229W        W30770   3.247  26.749  14.750
64230W        W30771   5.494  37.417   1.169
64231W        W30772  18.347  25.253  12.143
64232W        W30773  26.670  10.550  10.681
64233W        W30774   7.720  35.857   2.125
64234W        W30775  37.009  22.028   2.888
64235W        W30776  34.485  41.143  14.441
64236W        W30777  44.900  42.736  12.843
64237W        W30778  16.515  15.168  10.512
64238W        W30779   7.132  44.423   4.100
64239W        W30780   2.749  38.467  11.583
64240W        W30781  24.512   2.434  13.848
64241W        W30782   4.863  20.961   3.373
64242W        W30783  29.363  39.884   4.946
64243W        W30784   3.131  17.333  14.327
64244W        W30785  11.029  13.319  11.417
64245W        W30786  36.100   2.188   3.622
64246W        W30787   2.845   8.701   0.562
64247W        W30788  27.956  42.168  12.045
64248W        W30789   8.232  37.331   1.797
64249W        W30790  40.314  32.414  14.504
64250W        W30791  31.066   8.915  12.362
64251W        W30792  14.311  14.085   2.669
64252W        W30793  36.872  25.682  12.033
64253W        W30794   6.910  15.675  14.720
64254W        W30795  40.773  15.357   5.059
64255W        W30796  14.473   8.687   1.209
64256W        W30797   8.669  17.624   0.861
64257W        W30798  32.588  27.792   1.229
64258W        W30799  11.971  23.697  12.389
64259W        W30800  37.499   5.314  10.494
64260W        W30801  27.101  25.694   0.744
64261W        W30802  30.635  21.695  12.724
64262W        W30803  27.781  10.643  12.796
64263W        W30804  31.590  36.534   3.281
64264W        W30805  39.908   2.149  13.394
64265W        W30806   5.208  16.750  14.292
64266W        W30807  37.952  24.221  14.940
64267W        W30808  38.599  23.119   0.693
64268W        W30809  26.498  27.672  12.360
64269W        W30810  37.340  33.454  11.709
64270W        W30811  27.574   7.139  13.965
64271W        W30812  16.777  36.677   2.824
64272W        W30813   1.433  36.127  11.086
64273W        W30814  42.906  15.992  11.964
64274W        W30815  43.264  23.239   0.294
64275W        W30816  28.813   1.885  14.845
64276W        W30817  41.826  14.661  14.964
64277W        W30818  34.183  41.044  11.762
64278W        W30819   5.380  26.837   2.339
64279W        W30820  38.945  28.389   2.229
64280W        W30821  34.384  32.315   4.554
64281W        W30822  16.735   7.966  10.857
64282W        W30823  12.127  11.450  10.766
64283W        W30824  26.032  32.541  13.095
64284W        W30825   6.201  14.554  11.088
64285W        W30826  13.817  12.872   3.659
64286W        W30827  10.355   5.182   1.818
64287W        W30828  44.970   7.877   0.574
64288W        W30829  22.269  33.499  10.111
64289W        W30830  26.573   1.822   3.189
64290W        W30831   2.351  22.101  12.990
64291W        W30832  27.235  33.652  11.441
64292W        W30833  25.757  27.035  11.585
64293W        W30834  10.327  25.363   1.463
64294W        W30835  15.126  37.181   0.240
64295W        W30836   6.739  12.327  14.203
64296W        W30837   9.761  22.499   0.798
64297W        W30838  43.277  14.154  12.971
64298W        W30839  13.738  23.523  10.642
64299W        W30840  28.436   5.799  12.227
64300W        W30841  39.588  23.423   3.644
64301W        W30842  42.971  17.030  14.146
64302W        W30843   0.473  14.893  13.622
64303W        W30844  17.604  26.162  13.095
64304W        W30845  37.412  17.059  11.159
64305W        W30846  11.272  41.764   2.027
64306W        W30847   4.027   4.289   5.699
64307W        W30848  31.649  44.793  14.765
64308W        W30849  30.432   6.775  12.101
64309W        W30850  33.108  12.747   5.656
64310W        W30851  27.453  13.305   1.212
64311W        W30852   8.783   7.521  12.550
64312W        W30853  19.894  22.246  11.114
64313W        W30854  40.388  18.144  10.950
64314W        W30855  16.217  38.992  12.231
64315W        W30856  16.670  41.693   1.835
64316W        W30857  18.360  21.128   5.062
64317W        W30858   7.336   6.326   1.785
64318W        W30859   1.449  18.764   4.385
64319W        W30860  24.519   1.980  11.665
64320W        W30861  30.014  37.699  14.019
64321W        W30862  15.623  34.008   4.502
64322W        W30863  12.086   1.297  12.293
64323W        W30864   0.316   8.239   4.226
64324W        W30865  14.090  32.399   2.182
64325W        W30866   8.203   2.337  10.626
64326W        W30867  43.499  10.768   3.341
64327W        W30868  18.444   2.827  11.908
64328W        W30869  28.499  43.429  10.787
64329W        W30870  44.774  31.099   4.076
64330W        W30871  13.672   8.280   1.211
64331W        W30872  32.757  34.512  10.682
64332W        W30873   7.359  24.663   4.450
64333W        W30874   9.242  36.608  11.053
64334W        W30875   3.991  43.349   1.968
64335W        W30876   2.992  15.647   1.247
64336W        W30877  41.851  29.221  13.056
64337W        W30878  18.077  44.018   3.380
64338W        W30879  28.045   2.156  12.557
64339W        W30880  42.003  39.875  10.500
64340W        W30881  41.090  22.224  14.307
64341W        W30882  13.173  14.855  10.752
64342W        W30883  40.273  27.965  12.479
64343W        W30884  34.058  42.929  12.125
64344W        W30885  22.598   3.568   5.438
64345W        W30886  27.512  40.944  12.543
64346W        W30887  22.616   1.998   4.118
64347W        W30888  25.490  43.644  12.354
64348W        W30889   2.138  27.456   2.275
64349W        W30890  13.582  11.441  14.876
64350W        W30891  35.193  19.175   2.214
64351W        W30892  33.563  21.826   4.044
64352W        W30893   8.767   1.754   0.900
64353W        W30894  40.831  20.021   2.834
64354W        W30895  15.065  19.776   3.186
64355W        W30896  35.812  30.839  12.940
64356W        W30897   3.209  29.416  13.807
64357W        W30898  22.973  21.053  12.963
64358W        W30899   2.379   3.269   4.013
64359W        W30900  14.340  27.951   3.332
64360W        W30901  37.626  33.551  12.980
64361W        W30902   7.921  24.914   0.772
64362W        W30903  40.953   2.016   0.322
64363W        W30904  37.437  28.211   5.038
64364W        W30905  36.749  31.366   3.877
64365W        W30906  44.284   2.869   0.019
64366W        W30907   1.465  28.811   5.360
64367W        W30908  42.300  18.102  12.055
64368W        W30909   7.477  26.099  10.916
64369W        W30910  15.772  18.660  14.815
64370W        W30911  10.119   3.220  12.232
64371W        W30912  35.445  31.484  10.739
64372W        W30913  39.068  21.364   2.855
64373W        W30914  22.985  34.342   2.862
64374W        W30915  24.798  26.607  14.421
64375W        W30916  38.958  33.205  13.051
64376W        W30917  19.757  17.776  10.709
64377W        W30918  29.147  41.189   1.845
64378W        W30919  13.114  39.582  13.033
64379W        W30920   2.845  30.857  13.517
64380W        W30921  10.837   8.807   3.936
64381W        W30922   2.533   1.534   1.867
64382W        W30923  24.813  31.648   0.893
64383W        W30924  35.182  16.655  11.054
64384W        W30925  25.899  11.457   3.073
64385W        W30926  24.046  29.090   2.731
64386W        W30927  30.267  28.147  12.432
64387W        W30928  41.168  19.103  10.442
64388W        W30929  13.058  24.040  12.897
64389W        W30930  26.575  38.457   0.668
64390W        W30931   5.459  39.361   1.846
64391W        W30932  14.609  41.017   1.315
64392W        W30933  38.941  13.167   0.560
64393W        W30934  37.364  18.157  12.363
64394W        W30935  40.473   7.338  10.572
64395W        W30936  14.721   9.599  14.498
64396W        W30937  37.002  21.200   3.663
64397W        W30938  24.191  29.698   0.448
64398W        W30939  34.510   2.305   2.939
64399W        W30940  36.918   3.701  11.014
64400W        W30941  37.626   9.836  13.942
64401W        W30942   5.153  13.121  11.573
64402W        W30943  34.043  43.280  12.671
64403W        W30944  30.049  28.461   2.250
64404W        W30945   0.518  11.639  11.129
64405W        W30946  13.894  12.731  14.536
64406W        W30947  25.397  10.291  12.008
64407W        W30948  39.535  44.409   3.818
64408W        W30949  35.811   5.282  12.885
64409W        W30950  14.859  41.270   4.556
64410W        W30951  25.965  27.892   1.432
64411W        W30952  22.417  32.712   0.213
64412W        W30953  10.919  39.908   1.761
64413W        W30954  43.502  22.557  12.535
64414W        W30955  19.926  44.779  12.488
64415W        W30956  31.483  15.209  10.348
64416W        W30957  19.173  24.228  14.877
64417W        W30958   8.810  41.478   5.071
64418W        W30959  19.415  12.232   4.449
64419W        W30960  27.990   6.769   3.175
64420W        W30961  10.457   8.060   4.752
64421W        W30962  41.341  31.675   4.238
64422W        W30963  17.818  38.902   4.197
64423W        W30964  26.991  34.079   4.294
64424W        W30965  22.495  30.574   4.620
64425W        W30966   3.336   2.937   0.262
64426W        W30967  25.267  34.998   1.868
64427W        W30968  17.274  37.498   1.419
64428W        W30969   7.986  20.619   0.718
64429W        W30970  31.968  25.583  14.733
64430W        W30971  26.479  24.063   1.288
64431W        W30972  39.321  20.357   1.345
64432W        W30973  17.055  25.013  10.728
64433W        W30974   6.778  28.706  10.771
64434W        W30975   8.857  20.673  10.907
64435W        W30976  37.169   4.235   2.405
64436W        W30977  17.753  23.691  14.828
64437W        W30978  42.822   9.562   1.043
64438W        W30979  21.086  29.543  13.455
64439W        W30980  23.033  29.085   2.764
64440W        W30981   6.422   1.409  10.846
64441W        W30982  10.197  38.976  11.506
64442W        W30983   1.350   4.180   3.793
64443W        W30984  36.936  35.523  10.798
64444W        W30985   3.472  33.207  13.058
64445W        W30986  44.984  25.126   2.701
64446W        W30987   4.262  31.039   3.073
64447W        W30988  33.910  40.043   0.959
64448W        W30989   8.644  11.832   4.190
64449W        W30990  24.443   2.797   1.669
64450W        W30991  26.892  20.183  10.682
64451W        W30992  24.498  16.569   0.852
64452W        W30993  34.337   5.580   4.176
64453W        W30994  29.569  24.484   0.953
64454W        W30995  37.519  30.497  13.425
64455W        W30996  38.443  40.592  14.265
64456W        W30997   7.631  28.476   3.794
64457W        W30998   9.150  40.933   2.088
64458W        W30999  44.870   1.244   2.921
64459W        W31000   2.792  20.755  12.129
64460W        W31001  33.206  40.352  14.292
64461W        W31002  17.491  19.751  11.090
64462W        W31003  18.798  14.763   2.543
64463W        W31004  33.051  10.612  13.611
64464W        W31005   2.871  35.639  12.887
64465W        W31006   2.496   1.513  13.464
64466W        W31007  13.023  13.902  14.160
64467W        W31008  31.319  19.629   5.058
64468W        W31009  16.133  16.820   2.849
64469W        W31010  20.020  26.951  11.530
64470W        W31011  36.049   1.916   3.191
64471W        W31012  15.286   8.902  14.595
64472W        W31013   4.227  12.918   0.329
64473W        W31014   2.215  37.576  11.967
64474W        W31015   1.863  34.453   1.268
64475W        W31016  17.306   6.886   1.483
64476W        W31017  26.657  20.752   0.462
64477W        W31018  39.223  40.922   4.641
64478W        W31019  15.095   6.652   2.455
64479W        W31020   5.096  35.127   4.952
64480W        W31021  28.743  36.499   1.126
64481W        W31022  33.412  28.563   3.963
64482W        W31023  15.167   0.417  12.817
64483W        W31024  17.901  36.781  11.881
64484W        W31025  22.017  32.222  13.303
64485W        W31026  28.885  38.792   2.130
64486W        W31027  15.024  20.176   1.391
64487W        W31028  14.757  17.083  13.896
64488W        W31029  16.291  30.046  10.737
64489W        W31030  37.499  35.464   0.735
64490W        W31031  10.403  28.168  14.916
64491W        W31032  14.723  30.953  13.353
64492W        W31033  35.609  41.357  13.931
64493W        W31034  31.865  36.832  12.834
64494W        W31035   3.451  14.955  14.334
64495W        W31036  22.983  41.868   2.259
64496W        W31037  25.157  40.582  12.418
64497W        W31038  23.487  16.754   2.310
64498W        W31039  39.728   5.776   0.516
64499W        W31040  19.397  41.458  10.286
64500W        W31041  14.098   2.850  12.933
64501W        W31042  20.713  15.873   0.871
64502W        W31043   3.255  22.709   5.077
64503W        W31044  44.280  38.069   3.207
64504W        W31045  37.643   6.206  13.487
64505W        W31046  26.419  44.364  10.939
64506W        W31047   9.710  39.105  13.460
64507W        W31048  30.494  31.146  13.551
64508W        W31049  17.803   9.758   3.257
64509W        W31050  10.269   3.878  12.965
64510W        W31051  24.502  17.754   2.192
64511W        W31052  20.667   8.981  13.382
64512W        W31053  31.121   4.202   4.731
64513W        W31054  43.769  24.618  12.535
64514W        W31055  27.585  44.045  10.231
64515W        W31056  27.262   0.107  12.483
64516W        W31057  24.651  43.553   3.624
64517W        W31058   7.820  24.093   3.753
64518W        W31059  40.254  43.904   4.054
64519W        W31060   0.319   5.649  14.879
64520W        W31061  35.106   7.710  10.677
64521W        W31062  33.893  15.045   1.325
64522W        W31063  25.413  35.940  13.968
64523W        W31064  26.067  11.217  11.792
64524W        W31065   7.140  33.120   4.147
64525W        W31066   7.357  40.870  10.457
64526W        W31067  28.939   8.642   0.487
64527W        W31068  34.501  26.084   2.637
64528W        W31069   9.550  26.177  11.261
64529W        W31070  21.261   9.690  10.753
64530W        W31071  35.682   7.314  12.214
64531W        W31072  15.612  15.165   2.728
64532W        W31073  43.363  38.823  10.013
64533W        W31074   4.907  27.449  12.204
64534W        W31075  44.206  16.256   1.985
64535W        W31076  35.647  41.268   0.599
64536W        W31077  43.964  30.514   3.220
64537W        W31078   9.199   0.408  11.109
64538W        W31079  28.962  15.816   9.999
64539W        W31080   1.228  41.715  11.975
64540W        W31081  22.500   1.407   4.145
64541W        W31082  21.684  44.548  13.520
64542W        W31083   1.205  28.768  11.231
64543W        W31084  14.133  37.036  12.093
64544W        W31085  43.627   4.864   3.199
64545W        W31086  10.799  21.602   3.206
64546W        W31087  17.347  36.502  11.075
64547W        W31088   2.567  15.285  14.299
64548W        W31089  16.530   4.691   2.338
64549W        W31090  37.584  20.879   4.050
64550W        W31091   7.279   0.937   4.154
64551W        W31092  26.750  21.001  13.522
64552W        W31093  31.165  27.167   2.250
64553W        W31094   6.831  23.640   2.680
64554W        W31095  22.122  36.069   4.837
64555W        W31096  36.081  37.527   1.417
64556W        W31097  32.219  42.921  14.289
64557W        W31098   5.347  33.484   1.194
64558W        W31099  23.420  28.694  14.950
64559W        W31100  13.022   5.205  12.774
64560W        W31101   4.811   8.455  14.713
64561W        W31102  44.803  32.754  14.342
64562W        W31103  14.313  43.906  13.087
64563W        W31104   3.971  41.832   2.820
64564W        W31105  20.218  25.132  13.825
64565W        W31106  30.247  38.745   4.955
64566W        W31107   7.949  10.468   5.092
64567W        W31108  10.866  19.119  11.695
64568W        W31109  19.439  34.151  14.952
64569W        W31110   6.169   1.293   2.894
64570W        W31111  42.928  20.666   3.579
64571W        W31112  29.125  21.162   2.136
64572W        W31113  42.761  14.178  11.317
64573W        W31114   1.417  42.801   4.172
64574W        W31115  10.617  41.971   4.574
64575W        W31116  44.280  27.649  13.731
64576W        W31117   6.803  18.534  11.577
64577W        W31118  42.282  31.591  12.111
64578W        W31119   5.711  38.605   1.038
64579W        W31120  20.008   3.229   3.342
64580W        W31121   4.381  11.813  10.980
64581W        W31122  20.610  11.070  12.419
64582W        W31123  39.007  39.030  12.459
64583W        W31124  10.750  41.481   3.652
64584W        W31125  21.975  17.212   0.017
64585W        W31126  33.458   4.915  11.210
64586W        W31127  16.517  22.244   3.235
64587W        W31128  12.395   2.276   0.381
64588W        W31129  28.534  36.108   4.158
64589W        W31130  38.116  26.568  13.606
64590W        W31131   8.612  33.397  12.592
64591W        W31132  13.933   7.051  13.080
64592W        W31133  14.277  35.684  12.897
64593W        W31134  33.178  28.643  12.385
64594W        W31135  39.529  33.275   1.312
64595W        W31136   7.795  28.618  14.800
64596W        W31137   1.851  29.212   2.387
64597W        W31138  13.317  17.255   1.812
64598W        W31139  42.375  17.341   3.386
64599W        W31140   5.863  14.572   1.472
64600W        W31141  33.664   7.572   0.828
64601W        W31142  43.957  29.242  13.392
64602W        W31143  44.322  18.129   0.466
64603W        W31144  30.008  30.376  13.556
64604W        W31145  31.507   4.025   2.773
64605W        W31146  16.186  44.923  12.407
64606W        W31147  22.663  29.831  12.417
64607W        W31148  40.796  34.440   0.863
64608W        W31149  28.542   7.188   2.453
64609W        W31150  37.192  35.883  10.472
64610W        W31151  10.511  35.625   3.174
64611W        W31152  18.897   9.943   1.444
64612W        W31153   0.418   8.197  14.888
64613W        W31154   1.852  22.975  10.756
64614W        W31155  28.163  44.669   0.314
64615W        W31156  25.524   1.801  14.432
64616W        W31157  42.112  37.455   3.479
64617W        W31158   5.629  44.340   1.169
64618W        W31159  18.539  29.077  13.933
64619W        W31160  42.081  20.146  10.556
64620W        W31161  30.895   7.462   0.413
64621W        W31162   6.576  41.792  14.005
64622W        W31163   4.410   7.892  14.019
64623W        W31164  10.294  22.758  10.961
64624W        W31165  19.459  28.478  11.586
64625W        W31166  26.105  25.374   0.009
64626W        W31167  43.841  31.254   1.671
64627W        W31168   8.280  43.781  11.429
64628W        W31169  20.027  14.598  14.602
64629W        W31170  23.997  24.786   3.622
64630W        W31171  40.343  38.512   4.515
64631W        W31172  31.685  39.082   1.369
64632W        W31173  27.155  14.379  11.544
64633W        W31174   5.396  43.878   0.996
64634W        W31175   0.030  23.923   1.369
64635W        W31176   3.447  22.163   0.224
64636W        W31177  25.221   0.929  10.460
64637W        W31178  26.127  24.254   4.103
64638W        W31179  44.944  38.282   1.251
64639W        W31180  37.942  36.457   4.173
64640W        W31181  12.780  34.081   4.063
64641W        W31182  28.682  44.306  11.534
64642W        W31183  33.554   0.044   0.986
64643W        W31184  15.737  12.294   4.732
64644W        W31185  23.569  43.865   4.279
64645W        W31186  34.562  19.304   2.679
64646W        W31187  31.340  13.684   1.210
64647W        W31188  30.135   4.705  12.463
64648W        W31189  30.562  36.375  11.216
64649W        W31190  42.532  18.190   1.714
64650W        W31191  11.683  27.220  14.719
64651W        W31192   0.682  11.856   2.353
64652W        W31193  11.933  32.347   9.819
64653W        W31194  41.419  11.800  14.117
64654W        W31195  26.435   1.728  10.510
64655W        W31196  22.688  26.094   3.163
64656W        W31197  44.296  30.662  12.478
64657W        W31198  26.507  12.243   3.422
64658W        W31199  32.178  12.909  11.709
64659W        W31200  41.723  24.235  11.636
64660W        W31201  21.714  13.146  12.613
64661W        W31202   5.485  39.606   1.385
64662W        W31203   7.567   3.053  11.343
64663W        W31204  22.712  20.154  11.736
64664W        W31205  33.663  29.900  10.665
64665W        W31206  22.707  10.738   4.913
64666W        W31207   7.891  18.635  13.843
64667W        W31208   2.945  12.195   4.478
64668W        W31209  37.558  15.067  10.693
64669W        W31210  19.483  14.639   4.047
64670W        W31211   3.927  33.101  14.345
64671W        W31212  23.436   0.564  11.824
64672W        W31213  44.780   1.536   0.870
64673W        W31214   7.838  16.514   4.315
64674W        W31215  11.739  18.299   4.485
64675W        W31216  11.859  42.756   0.318
64676W        W31217  31.188  10.452  13.973
64677W        W31218  12.757  19.567   0.299
64678W        W31219  16.119  25.270   2.682
64679W        W31220   2.914   5.546   0.812
64680W        W31221  11.788   3.045   1.847
64681W        W31222  11.481  42.560   4.739
64682W        W31223  13.352  37.054   0.175
64683W        W31224   5.699  18.709   3.375
64684W        W31225  20.579  11.337   2.346
64685W        W31226  17.824  17.046  13.588
64686W        W31227  33.523  15.591  10.524
64687W        W31228   9.259  18.799   3.761
64688W        W31229   6.698  38.563  12.730
64689W        W31230  29.816  19.685   0.674
64690W        W31231  25.714  41.854  12.486
64691W        W31232  18.774  32.524  11.419
64692W        W31233  25.789  39.579  10.341
64693W        W31234   0.508  10.785  11.598
64694W        W31235  33.539   1.363  10.261
64695W        W31236   7.440  29.983  13.839
64696W        W31237   1.202  13.234   1.408
64697W        W31238  31.506  28.018   4.191
64698W        W31239   5.469  36.107   3.358
64699W        W31240   7.668   1.249   0.395
64700W        W31241  32.349  11.909  14.404
64701W        W31242   3.281  26.657   0.271
64702W        W31243  40.941  41.590   1.889
64703W        W31244  33.471  20.057  14.840
64704W        W31245  13.235   3.070  14.892
64705W        W31246  39.346  26.227   3.841
64706W        W31247  40.390  39.944  13.381
64707W        W31248  34.410  14.206  13.604
64708W        W31249  24.657  18.701   0.586
64709W        W31250  24.495  30.632   0.431
64710W        W31251   4.323  30.020   1.347
64711W        W31252  39.370  37.994  11.806
64712W        W31253  25.532  19.461   4.083
64713W        W31254   6.750  14.258   3.147
64714W        W31255   8.601  19.942   2.110
64715W        W31256   2.483  24.537   0.457
64716W        W31257  32.861  18.800  12.010
64717W        W31258  16.541  31.425  14.810
64718W        W31259  27.661   8.227  11.643
64719W        W31260   4.283  27.416   4.029
64720W        W31261  22.624  21.260   4.764
64721W        W31262   6.832  23.234  10.792
64722W        W31263  22.098   4.177  14.172
64723W        W31264  41.602   5.308  11.103
64724W        W31265   3.387  33.499  11.242
64725W        W31266  17.301  18.477  12.552
64726W        W31267  20.873  43.423   3.317
64727W        W31268   6.728  22.964   0.033
64728W        W31269  22.600  37.791  11.737
64729W        W31270  31.536  38.643  13.599
64730W        W31271  25.406   2.848  11.970
64731W        W31272  37.501   2.792  12.471
64732W        W31273  27.275   3.139   3.353
64733W        W31274  11.727  28.617   3.434
64734W        W31275  11.542  15.317   2.852
64735W        W31276  10.384  15.283   3.157
64736W        W31277  15.732  26.617   4.587
64737W        W31278  30.496   3.783   2.353
64738W        W31279  36.496  43.039   1.430
64739W        W31280  13.602  21.974   0.912
64740W        W31281  14.253   9.781   0.008
64741W        W31282   1.736   8.423  13.250
64742W        W31283   9.821  32.494   0.376
64743W        W31284  33.634   7.238   1.288
64744W        W31285   2.269  17.075  10.413
64745W        W31286  28.598  30.664   1.229
64746W        W31287   8.685  14.184  11.119
64747W        W31288  43.792  31.455   2.413
64748W        W31289  22.974  31.610   1.376
64749W        W31290  41.730  26.030   2.455
64750W        W31291  30.583  28.725   0.257
64751W        W31292  39.444  31.611  12.900
64752W        W31293   6.364   8.671  12.926
64753W        W31294   2.348   9.809   2.324
64754W        W31295  39.085  32.548   1.876
64755W        W31296  40.411   3.657   1.445
64756W        W31297  25.098   4.227   1.132
64757W        W31298  41.379  14.722  12.570
64758W        W31299  36.323  31.000  12.928
64759W        W31300  20.711  44.214  13.539
64760W        W31301  44.332  29.418  12.122
64761W        W31302  27.255  21.321   1.197
64762W        W31303  12.657   3.841   3.652
64763W        W31304  32.026  20.381  12.603
64764W        W31305  37.982  31.980  13.995
64765W        W31306  44.446  16.467  11.612
64766W        W31307   0.317  35.530  14.307
64767W        W31308  40.721   4.750  13.358
64768W        W31309  38.494  41.272   0.497
64769W        W31310  34.994  19.354  13.416
64770W        W31311   7.657   2.054  11.445
64771W        W31312  11.144  32.995   1.136
64772W        W31313  34.896   6.864   1.763
64773W        W31314  21.658  41.878   3.696
64774W        W31315  39.167  22.623  12.070
64775W        W31316  29.769  43.039  10.653
64776W        W31317  37.380  40.793  13.309
64777W        W31318   6.569  33.490   0.975
64778W        W31319  34.584   0.369  12.468
64779W        W31320   5.763  23.198  12.347
64780W        W31321  27.519  22.011  10.589
64781W        W31322  21.444   1.226  12.929
64782W        W31323   6.353   5.558   3.185
64783W        W31324   0.120   4.925  13.869
64784W        W31325  15.185   3.445   2.158
64785W        W31326  17.599  32.762  14.884
64786W        W31327  32.658  16.118   3.194
64787W        W31328  39.366  44.853   4.037
64788W        W31329  13.130   8.284   1.912
64789W        W31330   1.730  43.545   3.415
64790W        W31331  10.119  13.554   2.737
64791W        W31332  39.879  23.371   1.760
64792W        W31333  12.212  28.561   1.628
64793W        W31334  34.979  11.048  12.561
64794W        W31335  25.240  40.033   1.191
64795W        W31336   4.411  37.583  12.079
64796W        W31337  13.614  37.792  12.913
64797W        W31338  17.823  17.985  13.790
64798W        W31339  37.416  18.836   4.829
64799W        W31340  37.880   9.225  11.809
64800W        W31341   1.733  25.945  12.026
64801W        W31342  14.814  36.426   1.354
64802W        W31343  16.111   9.191  11.535
64803W        W31344   6.040  14.104   1.288
64804W        W31345  34.099  29.038   0.825
64805W        W31346   5.415  37.963   4.187
64806W        W31347  19.164  23.197  13.028
64807W        W31348   2.738   3.283   3.228
64808W        W31349  16.221  34.293  14.964
64809W        W31350  37.403   3.405   1.214
64810W        W31351  31.546  15.716  10.455
64811W        W31352  21.602  31.853   2.712
64812W        W31353  32.549  18.181  14.051
64813W        W31354  43.949  11.328   0.715
64814W        W31355   9.181  34.175  14.940
64815W        W31356  15.187   4.377  14.899
64816W        W31357  27.927  12.655  11.058
64817W        W31358  38.936  31.184   2.915
64818W        W31359  43.984  28.640  14.791
64819W        W31360  34.602  32.308   1.459
64820W        W31361  20.741  42.863   4.601
64821W        W31362   5.539  19.054   0.404
64822W        W31363  40.938  38.323   2.141
64823W        W31364   1.754  18.203   3.715
64824W        W31365  15.560   7.940  11.078
64825W        W31366  11.093  17.485   1.637
64826W        W31367  21.562   8.659  11.500
64827W        W31368  37.063  40.726  12.043
64828W        W31369  32.484  41.944  11.613
64829W        W31370  17.623  41.183   0.250
64830W        W31371  37.557  10.595   1.273
64831W        W31372  15.999  10.365  11.962
64832W        W31373   8.299  11.201   2.388
64833W        W31374  39.755  27.542   3.205
64834W        W31375  15.575  38.798  12.492
64835W        W31376  29.139  24.449   0.503
64836W        W31377  15.854  42.288   2.253
64837W        W31378  33.976  13.873  11.990
64838W        W31379  17.517  27.574   4.258
64839W        W31380  39.416   8.666   3.805
64840W        W31381  11.230   4.679   0.018
64841W        W31382   4.409  31.563   0.974
64842W        W31383  24.170  13.915   4.535
64843W        W31384  35.382  30.671  14.890
64844W        W31385  18.128  41.562  14.376
64845W        W31386  20.266   6.349   3.280
64846W        W31387   2.019   2.049   1.725
64847W        W31388  14.869  43.238  12.485
64848W        W31389  24.948  34.956   3.342
64849W        W31390  18.456  15.092  14.264
64850W        W31391  19.001  17.316   0.791
64851W        W31392   8.610  37.827   3.121
64852W        W31393   2.157   7.164  12.022
64853W        W31394  21.708  12.159   3.118
64854W        W31395  11.342  26.998  11.631
64855W        W31396  16.820  36.854   0.815
64856W        W31397  43.385  41.441  14.491
64857W        W31398  26.028   5.760   4.633
64858W        W31399  11.339  40.267   4.696
64859W        W31400   1.768  44.979  14.682
64860W        W31401  23.483  38.543  12.692
64861W        W31402  26.487  29.535   1.803
64862W        W31403  40.986   6.686   3.151
64863W        W31404  21.680   3.001   3.338
64864W        W31405  33.895  14.148  12.424
64865W        W31406  27.183  25.446   1.207
64866W        W31407  32.678  25.051   2.704
64867W        W31408  15.675   1.081  12.864
64868W        W31409  28.894  38.295   1.436
64869W        W31410  14.341  20.979   2.814
64870W        W31411  43.380  37.525   1.689
64871W        W31412  21.822  40.861  11.577
64872W        W31413   5.731  38.445  13.430
64873W        W31414   0.260   4.422  13.737
64874W        W31415  17.713   3.342   3.223
64875W        W31416  43.533   9.115  12.529
64876W        W31417  25.635  25.641  12.975
64877W        W31418  16.943  11.448   0.118
64878W        W31419  13.753  38.400  12.181
64879W        W31420   0.269  15.133  12.626
64880W        W31421   2.223  12.548  14.692
64881W        W31422  21.547   8.799   4.341
64882W        W31423  24.447   0.029  12.942
64883W        W31424  15.036   2.456  13.085
64884W        W31425  28.161  29.244   3.264
64885W        W31426  42.536   9.087  10.741
64886W        W31427  26.768  21.629   0.755
64887W        W31428  20.787  28.630   2.655
64888W        W31429  12.269  37.052   4.123
64889W        W31430  42.495   7.490   2.708
64890W        W31431  19.737  32.146  13.509
64891W        W31432  31.431  44.481  10.826
64892W        W31433  24.267  27.556  14.568
64893W        W31434   4.428  32.634   0.808
64894W        W31435  26.533  25.497  10.737
64895W        W31436  11.809  23.945   0.455
64896W        W31437  41.892  35.416   1.838
64897W        W31438  21.748  37.325   1.901
64898W        W31439  39.931  31.827  11.085
64899W        W31440   3.233  44.876  11.105
64900W        W31441  28.534   6.386   1.730
64901W        W31442  10.633  12.818   2.362
64902W        W31443  17.151  18.184   3.125
64903W        W31444  38.984  27.523  11.455
64904W        W31445  10.213  38.238  12.497
64905W        W31446  16.010   2.854   2.123
64906W        W31447  28.947  24.951  13.315
64907W        W31448   8.231  40.257   2.334
64908W        W31449  30.737  28.787  12.836
64909W        W31450  40.758  14.175  13.581
64910W        W31451  36.968  15.612   2.207
64911W        W31452  17.640  34.375  10.355
64912W        W31453  43.382  40.693  10.873
64913W        W31454   1.729  27.483  13.908
64914W        W31455   7.278  25.145  11.993
64915W        W31456  10.409  26.233  12.010
64916W        W31457  13.420   4.935  10.743
64917W        W31458  24.514  30.437  10.885
64918W        W31459   8.498   4.020  14.414
64919W        W31460  16.573  26.066  14.288
64920W        W31461  12.664  38.509   2.262
64921W        W31462   2.472  35.456  10.387
64922W        W31463   5.880  34.350  11.523
64923W        W31464  18.430  43.622   3.415
64924W        W31465   5.885  24.099  12.325
64925W        W31466  21.483   9.177   0.368
64926W        W31467   7.812  40.323   0.811
64927W        W31468   4.860  30.863   5.646
64928W        W31469  26.806  44.245   2.760
64929W        W31470  39.139  43.655   0.867
64930W        W31471   1.977  32.510  13.278
64931W        W31472   4.924  34.501   0.908
64932W        W31473  11.235  41.177  11.211
64933W        W31474  32.470  21.028  13.252
64934W        W31475   8.415   2.451  11.081
64935W        W31476  22.343   5.162  14.469
64936W        W31477   0.541   6.738  14.263
64937W        W31478  26.490  37.242   3.164
64938W        W31479   7.404   9.320  11.629
64939W        W31480  31.970   6.241  11.463
64940W        W31481  18.675  26.807  10.664
64941W        W31482  15.671  11.254  13.686
64942W        W31483   0.517   3.882  13.812
64943W        W31484  22.450  41.534   3.723
64944W        W31485  23.855  25.697   1.362
64945W        W31486  32.045  32.627   0.825
64946W        W31487  15.728  25.976   0.598
64947W        W31488   3.218  30.632   0.859
64948W        W31489  44.814  19.091   3.232
64949W        W31490  16.318  36.899  12.930
64950W        W31491  13.403  37.492   2.784
64951W        W31492  19.669  29.216  13.329
64952W        W31493  10.693  24.475   4.478
64953W        W31494  10.172   7.259  13.839
64954W        W31495  31.761  42.982  11.941
64955W        W31496  13.560  31.397   3.536
64956W        W31497  12.308  36.317   1.327
64957W        W31498  11.405  11.615   4.183
64958W        W31499  26.222   8.820   0.747
64959W        W31500  16.813  29.942  14.548
64960W        W31501  40.134  16.506   9.734
64961W        W31502  30.928  13.317   3.736
64962W        W31503  12.614  42.269   0.447
64963W        W31504   0.013   7.787  14.818
64964W        W31505   3.550  13.787   2.811
64965W        W31506   2.325  33.610   3.243
64966W        W31507  34.421  29.791  11.697
64967W        W31508   5.473  16.034   4.216
64968W        W31509  30.604  15.712  10.916
64969W        W31510   6.906   9.363   1.350
64970W        W31511  40.035  43.932  11.348
64971W        W31512  26.415  15.551  14.309
64972W        W31513  35.963  12.165  14.376
64973W        W31514   9.542  21.141  11.435
64974W        W31515  37.822  40.954   4.345
64975W        W31516  31.643   0.800  12.505
64976W        W31517  41.063  27.748  11.095
64977W        W31518  42.125  11.166  13.703
64978W        W31519  13.000  44.938   1.308
64979W        W31520  22.619  13.871  12.404
64980W        W31521  10.698  11.659  14.293
64981W        W31522   8.874  42.595   1.027
64982W        W31523  38.146  24.088   2.650
64983W        W31524  32.518  41.665  14.663
64984W        W31525   8.409  27.230  12.111
64985W        W31526  44.450  36.163   1.423
64986W        W31527  32.091  26.157  14.038
64987W        W31528  37.809  36.611   4.656
64988W        W31529  21.398  21.684   4.303
64989W        W31530  43.807  29.743  13.319
64990W        W31531   5.268  41.410   1.231
64991W        W31532  26.497   4.448   0.950
64992W        W31533  17.982  32.971  11.292
64993W        W31534  20.073  10.704  11.119
64994W        W31535  11.395   8.213   3.244
64995W        W31536   6.378  17.794   4.121
64996W        W31537   6.280  26.475  14.908
64997W        W31538  19.587  17.747   4.393
64998W        W31539  22.942  43.843   3.611
64999W        W31540  28.966  37.367   2.999
65000W        W31541   2.464   2.272   2.273
65001W        W31542  20.392  37.959  13.857
65002W        W31543  31.110  11.692   4.556
65003W        W31544  17.312   3.291   2.301
65004W        W31545   4.143  34.921  12.714
65005W        W31546  21.936  20.095   3.394
65006W        W31547  31.137   3.850   2.446
65007W        W31548  15.627   5.393  14.834
65008W        W31549  32.542   7.897  12.345
65009W        W31550  40.290  24.064   3.261
65010W        W31551  25.907  21.586  14.469
65011W        W31552  13.169   8.261   1.371
65012W        W31553  10.034  13.029   2.000
65013W        W31554  37.425   2.646   2.636
65014W        W31555  14.146  32.919   0.351
65015W        W31556  20.599  26.705   2.411
65016W        W31557   1.588  40.037   0.526
65017W        W31558   1.007   7.419  10.463
65018W        W31559   8.379  19.574  11.036
65019W        W31560  24.279  17.021  14.303
65020W        W31561  22.662  28.247  14.569
65021W        W31562  33.669  11.708  12.497
65022W        W31563  27.102  20.012  12.883
65023W        W31564  39.128  23.616   3.755
65024W        W31565  40.963  40.083  14.551
65025W        W31566   2.214  40.937   0.819
65026W        W31567  23.940  12.257  10.862
65027W        W31568  20.518   3.768  14.909
65028W        W31569  27.633  24.755  13.354
65029W        W31570  39.185  37.415   0.366
65030W        W31571  20.016  14.665  12.413
65031W        W31572  25.866  37.991   3.672
65032W        W31573  20.603  21.092  12.599
65033W        W31574  40.986  27.677   2.767
65034W        W31575  18.702  43.654  13.499
65035W        W31576  38.777  15.246   0.389
65036W        W31577  31.557   2.866  12.427
65037W        W31578   0.145  17.656   1.850
65038W        W31579  14.130  38.374  10.753
65039W        W31580  13.999  43.512   1.696
65040W        W31581  15.832  16.190   0.372
65041W        W31582  44.475  13.612   4.851
65042W        W31583  31.447  10.334  13.515
65043W        W31584  28.273  14.742  13.875
65044W        W31585  24.974   3.178  11.898
65045W        W31586   4.243  28.608   2.014
65046W        W31587  31.468  30.445   3.911
65047W        W31588  23.248  24.174   0.820
65048W        W31589  25.481   1.026  11.969
65049W        W31590  28.616  31.649  11.482
65050W        W31591  13.506  22.057   0.022
65051W        W31592  30.650  42.484   2.936
65052W        W31593  40.503  22.114  13.066
65053W        W31594   3.058  39.699  11.198
65054W        W31595  10.462  38.535   0.740
65055W        W31596  44.374  31.196  12.405
65056W        W31597  12.595   6.492  12.411
65057W        W31598  17.419  41.032   3.778
65058W        W31599  26.763  30.418   3.611
65059W        W31600  37.105  25.216   2.742
65060W        W31601  32.388  33.006  12.931
65061W        W31602  10.381  10.821  13.841
65062W        W31603  14.546  44.243  14.500
65063W        W31604  44.531   8.708  11.551
65064W        W31605  28.527  23.822  11.061
65065W        W31606  18.970  42.658  13.407
65066W        W31607  44.254  31.564   1.448
65067W        W31608  23.212  24.738  13.396
65068W        W31609  13.210  17.855   3.599
65069W        W31610  30.656  44.668  11.130
65070W        W31611  16.224  40.071   3.093
65071W        W31612  42.377   4.481  14.427
65072W        W31613  44.004  35.834  14.296
65073W        W31614  43.910  12.046   1.481
65074W        W31615   1.245   7.985  10.770
65075W        W31616  32.918  27.630   2.370
65076W        W31617   5.870  44.384  13.886
65077W        W31618   0.591  27.668  11.532
65078W        W31619  27.227  10.783   0.199
65079W        W31620  38.025  40.494   4.132
65080W        W31621  30.439  40.830   3.214
65081W        W31622  32.982  32.408   1.580
65082W        W31623  13.156  40.801   2.784
65083W        W31624  21.735  23.317  12.318
65084W        W31625  18.214  25.351  14.600
65085W        W31626  10.192  21.194  14.855
65086W        W31627  27.928  33.290  12.732
65087W        W31628   6.400  20.320   4.226
65088W        W31629  18.118  28.707  11.767
65089W        W31630  16.829  19.736  12.899
65090W        W31631  39.827  34.932  13.857
65091W        W31632  13.466   7.138   2.691
65092W        W31633  23.548  28.540  13.428
65093W        W31634  11.145  27.748  12.821
65094W        W31635  15.779   4.991   2.765
65095W        W31636  19.605  39.217   1.405
65096W        W31637  30.902   2.040  13.140
65097W        W31638   4.689  42.462   1.811
65098W        W31639  28.610  21.028  13.644
65099W        W31640   9.191   7.973   3.266
65100W        W31641  17.206  27.881   3.690
65101W        W31642   0.037  19.341  11.791
65102W        W31643   3.734  16.088   3.308
65103W        W31644  11.324   2.978   1.609
65104W        W31645  32.903  30.142  13.431
65105W        W31646  16.059  40.933  13.543
65106W        W31647  17.430   2.364   0.934
65107W        W31648  28.458  18.269   4.244
65108W        W31649  19.067  23.766   4.573
65109W        W31650  10.918  25.727  13.859
65110W        W31651   4.877  36.081  13.959
65111W        W31652  21.974  42.709   2.109
65112W        W31653  24.674  19.330   5.004
65113W        W31654   7.627   0.000   1.979
65114W        W31655  35.997  26.468   3.342
65115W        W31656  10.303  16.567  14.363
65116W        W31657  36.888  36.352  11.224
65117W        W31658  30.125  28.142   4.585
65118W        W31659  18.310  32.429   1.691
65119W        W31660   5.920  42.721  14.112
65120W        W31661  14.175  11.813  14.249
65121W        W31662  17.181  16.201  11.976
65122W        W31663  18.953  41.985  12.180
65123W        W31664  18.991  42.985   2.394
65124W        W31665  14.505  40.420  11.544
65125W        W31666  28.713  15.870   2.360
65126W        W31667   8.538  34.078   4.475
65127W        W31668  42.967  27.448  14.764
65128W        W31669  41.954   1.975  14.867
65129W        W31670  41.350  24.660  13.947
65130W        W31671  17.162   2.302   3.692
65131W        W31672   3.732  34.388   3.729
65132W        W31673  12.675  40.096  13.848
65133W        W31674  31.479  42.891   4.939
65134W        W31675  35.376  18.694  12.739
65135W        W31676  27.106  20.583   2.244
65136W        W31677  36.465   6.686  11.008
65137W        W31678  30.853  15.139   4.828
65138W        W31679  31.177   0.919  10.274
65139W        W31680  10.380  35.630  12.685
65140W        W31681   9.478  29.242   1.525
65141W        W31682  41.393  22.370  11.453
65142W        W31683  21.701  28.873   2.792
65143W        W31684   1.581  32.790  12.842
65144W        W31685  21.212  13.259   4.768
65145W        W31686  15.355  34.490   0.343
65146W        W31687  30.937  27.681   4.707
65147W        W31688   9.119  31.997  11.569
65148W        W31689  27.212  44.270   4.263
65149W        W31690  28.187  22.556   1.793
65150W        W31691  37.998  40.601  10.212
65151W        W31692  10.600  13.317  11.689
65152W        W31693   4.377  26.969   5.503
65153W        W31694  39.403  34.501  13.392
65154W        W31695  24.442  12.314  12.019
65155W        W31696  33.393  33.831   3.668
65156W        W31697  17.547  41.985  11.160
65157W        W31698  15.310  21.682  10.389
65158W        W31699  10.948  11.859   4.158
65159W        W31700  23.102  35.011   3.628
65160W        W31701   4.459  31.215  11.993
65161W        W31702   1.792   8.351  12.746
65162W        W31703  11.954   7.690  10.391
65163W        W31704  42.537  35.097   0.926
65164W        W31705  43.942  22.777   0.643
65165W        W31706  18.048  27.903  14.423
65166W        W31707  23.998  20.023  10.496
65167W        W31708  11.249  42.862  11.730
65168W        W31709  34.775  36.072  14.563
65169W        W31710  11.072  23.021   2.593
65170W        W31711   0.733   9.781  13.985
65171W        W31712  13.139   5.852   3.545
65172W        W31713  41.226  29.830  13.164
65173W        W31714  31.205  20.325  11.228
65174W        W31715  11.273  19.558   4.009
65175W        W31716  19.608  29.679   2.280
65176W        W31717  31.857   1.649   4.023
65177W        W31718   9.187  25.908   1.244
65178W        W31719  20.742  40.916   4.956
65179W        W31720  34.383   4.199  11.489
65180W        W31721  21.573  22.097   1.767
65181W        W31722  39.651  18.524  12.422
65182W        W31723  22.728  23.878   4.636
65183W        W31724   7.658  19.681   4.458
65184W        W31725  14.155  24.213  14.370
65185W        W31726  36.609  21.697  12.488
65186W        W31727  29.604  15.590   0.354
65187W        W31728   7.290   7.749  14.097
65188W        W31729  17.202  15.061  14.729
65189W        W31730  44.457  34.459  11.988
65190W        W31731  12.199  34.070   0.689
65191W        W31732  34.798  36.739  14.706
65192W        W31733  34.161  16.595   3.244
65193W        W31734  25.500  40.774   0.519
65194W        W31735  28.412  40.822  14.345
65195W        W31736  26.726  29.541  11.476
65196W        W31737  15.191   0.047  11.322
65197W        W31738   7.127  29.539  13.867
65198W        W31739   3.804  34.682   1.367
65199W        W31740  36.649  13.716  14.023
65200W        W31741  43.236  37.891  12.617
65201W        W31742  16.023  20.040  14.496
65202W        W31743  15.490   4.875   1.499
65203W        W31744  20.456  20.694  12.933
65204W        W31745  40.037  22.917   0.862
65205W        W31746  16.877  33.209   3.869
65206W        W31747  36.493   3.981   2.783
65207W        W31748  38.719   1.905   0.893
65208W        W31749  35.329  42.477   0.293
65209W        W31750   6.346  22.039   1.395
65210W        W31751  25.152  21.655   4.629
65211W        W31752   3.758  12.776   0.162
65212W        W31753   4.653   5.361   0.060
65213W        W31754  11.395  17.314  14.840
65214W        W31755  15.132  32.680  13.915
65215W        W31756   7.366  23.237  13.783
65216W        W31757  12.047  31.182  14.317
65217W        W31758  28.427  19.578   4.235
65218W        W31759  15.800  30.611  11.926
65219W        W31760  11.205  41.128  14.028
65220W        W31761  34.856  40.479  12.057
65221W        W31762  20.382  39.597   4.159
65222W        W31763  23.927   1.059  13.807
65223W        W31764   3.905  32.970   4.035
65224W        W31765   4.931  27.458   2.818
65225W        W31766   5.428  37.541   3.148
65226W        W31767   0.994  25.590   0.602
65227W        W31768  34.127  12.279  12.829
65228W        W31769   7.796  23.091  11.164
65229W        W31770  18.235   2.645   2.276
65230W        W31771  32.301  41.719  12.958
65231W        W31772  44.865  35.801  11.596
65232W        W31773  24.557  40.313  11.317
65233W        W31774   7.206  26.223   2.377
65234W        W31775  29.945  35.395   1.795
65235W        W31776  14.665  30.018   5.074
65236W        W31777   4.353  30.681  11.924
65237W        W31778  24.140  18.235   3.688
65238W        W31779  42.260  32.036   3.032
65239W        W31780   0.928  37.385   1.334
65240W        W31781  16.104  13.745  13.554
65241W        W31782  30.241   2.518   2.242
65242W        W31783  28.701  13.070   0.940
65243W        W31784  38.598  22.789  14.937
65244W        W31785  30.400  22.969  10.847
65245W        W31786  31.468  44.208  12.659
65246W        W31787  28.916  25.178  11.430
65247W        W31788  30.493  43.807  13.225
65248W        W31789  24.090  42.823  10.993
65249W        W31790  29.994  11.416   1.668
65250W        W31791  12.816   1.279   3.740
65251W        W31792  44.038   3.771   2.963
65252W        W31793  27.652  12.422  10.713
65253W        W31794  29.325   6.548   4.518
65254W        W31795  19.738   7.671  10.611
65255W        W31796   3.849  35.953  11.003
65256W        W31797   7.590  28.058   1.425
65257W        W31798  20.268  25.105  14.987
65258W        W31799  10.172  23.254   5.022
65259W        W31800  33.309  24.653  12.831
65260W        W31801  44.409   1.526   2.991
65261W        W31802  44.455  29.041  12.445
65262W        W31803  32.136   1.295   4.280
65263W        W31804   1.955  25.994   3.697
65264W        W31805  27.580  38.413   1.658
65265W        W31806  20.389   8.432  11.626
65266W        W31807   8.290  24.450  10.946
65267W        W31808  26.579  16.576   0.968
65268W        W31809   1.741  21.645   1.381
65269W        W31810  34.977   7.822   0.601
65270W        W31811  22.873  42.087   3.190
65271W        W31812  30.926  41.568  11.072
65272W        W31813   4.305  23.243   4.116
65273W        W31814  24.811   2.041  13.982
65274W        W31815  43.009  13.624   0.946
65275W        W31816  19.352  16.534   0.293
65276W        W31817  31.109   5.336  13.754
65277W        W31818  33.908  26.680  11.970
65278W        W31819  17.280  42.042  10.716
65279W        W31820  31.630  39.014   2.693
65280W        W31821  12.982  31.858   3.431
65281W        W31822  13.358   8.380  12.000
65282W        W31823  41.373  15.109  13.692
65283W        W31824  29.168  38.781   3.612
65284W        W31825  27.733   3.181  10.916
65285W        W31826  29.950  13.448   2.733
65286W        W31827  39.809   7.387   4.242
65287W        W31828  33.965  17.700   4.600
65288W        W31829   5.394  35.141   2.964
65289W        W31830  29.026  39.803   2.272
65290W        W31831  40.887  10.100   0.552
65291W        W31832   5.524  34.914  10.509
65292W        W31833  15.707  43.493  14.496
65293W        W31834  37.589  14.598  11.583
65294W        W31835   7.150   4.709   1.995
65295W        W31836  12.167  21.960  14.242
65296W        W31837  15.173  41.248   0.283
65297W        W31838  29.677  44.579   1.692
65298W        W31839  20.389  30.434   5.156
65299W        W31840  10.714  16.216  14.435
65300W        W31841  20.197  18.879   4.511
65301W        W31842  28.345  43.761   4.086
65302W        W31843  33.758   4.941  14.309
65303W        W31844  22.783  23.576   2.500
65304W        W31845  41.468  41.470   3.153
65305W        W31846  42.569  19.358   4.638
65306W        W31847  34.436   7.100   3.614
65307W        W31848   0.886  42.911  11.727
65308W        W31849  42.944  18.447   4.627
65309W        W31850  31.938  20.937  11.536
65310W        W31851   6.742  15.534  12.321
65311W        W31852   0.758  17.190   2.399
65312W        W31853   2.714  11.952  10.598
65313W        W31854  27.454  26.026  13.034
65314W        W31855  18.158  29.142   2.300
65315W        W31856  41.542  39.228   3.293
65316W        W31857   1.447  19.238   2.171
65317W        W31858  24.519  43.938  11.164
65318W        W31859  40.997   2.945  10.498
65319W        W31860  24.525   8.612   2.757
65320W        W31861   9.928  38.495  14.286
65321W        W31862  44.356  23.250   2.750
65322W        W31863  16.788  17.140  14.378
65323W        W31864  12.065  37.944   1.834
65324W        W31865  41.266   4.372  14.977
65325W        W31866  14.847   2.311  14.716
65326W        W31867   0.532   8.795   2.635
65327W        W31868   7.110   0.608  12.766
65328W        W31869  27.214  34.832   3.287
65329W        W31870  40.520  21.163   1.844
65330W        W31871  12.639   8.179   1.740
65331W        W31872  19.244  13.777  13.506
65332W        W31873   2.064   0.894  13.019
65333W        W31874  38.082  18.907   1.300
65334W        W31875  21.679  21.986  12.537
65335W        W31876  40.313   5.730  11.661
65336W        W31877  25.904  37.657  12.354
65337W        W31878  40.074  44.346   3.855
65338W        W31879  20.829  20.542   0.346
65339W        W31880  20.732  40.920  13.049
65340W        W31881   4.992  11.115   1.812
65341W        W31882   9.339  25.455  11.996
65342W        W31883  22.660  16.675  12.037
65343W        W31884   4.165   2.974  12.113
65344W        W31885  39.821  14.948   2.850
65345W        W31886  22.081  41.713  14.371
65346W        W31887  23.096   2.882   3.219
65347W        W31888  11.574  23.908   2.776
65348W        W31889  17.190  29.719   3.348
65349W        W31890   8.877  24.873   4.700
65350W        W31891  39.210  44.502  14.451
65351W        W31892   3.426   1.335  11.945
65352W        W31893   5.414  28.867  12.483
65353W        W31894  34.295  37.457  11.070
65354W        W31895  25.501  21.361   1.491
65355W        W31896  18.585   5.519  11.568
65356W        W31897   6.454  31.731  13.413
65357W        W31898  43.286  34.990   2.884
65358W        W31899  36.808  19.045  14.290
65359W        W31900   3.681  33.423  13.543
65360W        W31901  24.510  36.494  13.060
65361W        W31902  29.104   6.206   4.098
65362W        W31903  31.407   3.962   1.851
65363W        W31904   3.662  19.617   4.921
65364W        W31905  33.700  15.888  10.110
65365W        W31906  22.228  24.784   2.757
65366W        W31907   0.970  25.571   3.665
65367W        W31908  34.609  44.821   0.811
65368W        W31909  16.738  34.484  14.878
65369W        W31910   0.972  22.602   2.276
65370W        W31911   7.947  10.407   1.454
65371W        W31912  10.063  12.969   1.504
65372W        W31913  38.515   5.672   1.747
65373W        W31914  18.532   9.849  13.416
65374W        W31915  36.954  36.943  12.114
65375W        W31916   3.382  23.518  11.313
65376W        W31917  13.013  22.244   0.885
65377W        W31918  29.129  19.511   1.920
65378W        W31919  21.632  43.363   3.251
65379W        W31920  19.344   2.421  12.406
65380W        W31921  13.369  41.239  11.092
65381W        W31922  40.474   6.845  10.743
65382W        W31923  34.321  26.930   1.809
65383W        W31924  15.582  18.064  10.532
65384W        W31925   3.229  43.324   2.746
65385W        W31926  30.953  15.283  14.434
65386W        W31927  32.154  25.051   0.456
65387W        W31928  34.449  44.313   1.489
65388W        W31929  11.841   0.484  12.864
65389W        W31930  11.285  37.578  14.974
65390W        W31931   1.668   2.885   2.435
65391W        W31932   0.989  23.673   1.601
65392W        W31933   3.698   5.271   4.670
65393W        W31934  38.861  38.121   0.793
65394W        W31935  11.975  12.683  12.498
65395W        W31936  22.048  35.983  10.901
65396W        W31937  30.520   9.789  12.533
65397W        W31938  22.080  25.282   2.818
65398W        W31939  44.965  26.651   3.188
65399W        W31940  16.112  40.308  11.955
65400W        W31941  20.454   1.335   1.769
65401W        W31942  14.648   3.975   3.715
65402W        W31943  35.940   8.378  10.800
65403W        W31944  18.963  42.924  14.826
65404W        W31945  36.518  20.351  14.860
65405W        W31946   0.569  21.636  14.969
65406W        W31947  28.941  20.656  12.078
65407W        W31948  40.863  31.618   4.614
65408W        W31949  14.055   2.972  11.666
65409W        W31950  40.565  43.941   0.233
65410W        W31951  20.052   7.010  12.436
65411W        W31952  32.363  43.378   4.543
65412W        W31953  15.440  13.292   1.522
65413W        W31954  22.059  35.535   3.331
65414W        W31955  21.344   3.188  12.798
65415W        W31956  11.293   9.205  11.611
65416W        W31957  42.313  44.331  13.749
65417W        W31958   5.289  19.856  13.036
65418W        W31959   0.971  44.424   2.025
65419W        W31960  11.597   5.813  10.447
65420W        W31961  26.553  37.646  10.919
65421W        W31962  34.949   8.346   1.848
65422W        W31963  44.724  23.574  14.385
65423W        W31964  15.576   6.215   1.278
65424W        W31965  20.364  37.171   4.237
65425W        W31966  18.096  35.941  11.434
65426W        W31967   5.532  16.874  10.170
65427W        W31968  43.177  18.731   4.994
65428W        W31969  28.670  29.233   0.351
65429W        W31970  36.179  18.224   4.617
65430W        W31971  27.418  16.471  11.702
65431W        W31972  31.350  22.676   1.821
65432W        W31973  16.036  22.674  12.292
65433W        W31974  39.029  36.151   1.339
65434W        W31975  42.367   0.535   4.481
65435W        W31976   8.290  33.887   2.990
65436W        W31977   3.515  35.984  12.339
65437W        W31978  35.460  17.112  13.491
65438W        W31979   4.131   1.311  12.459
65439W        W31980  39.822  23.140   1.282
65440W        W31981  19.530  29.187   1.272
65441W        W31982  17.220  41.774  11.993
65442W        W31983  44.451  42.881  12.002
65443W        W31984   5.474  25.419   3.130
65444W        W31985  21.171  29.449   0.771
65445W        W31986  28.937  28.083  14.146
65446W        W31987  32.869  24.800   2.221
65447W        W31988  16.319  31.902  11.325
65448W        W31989  38.815  39.911   0.792
65449W        W31990  40.151   7.635   3.468
65450W        W31991  30.220  44.538  11.434
65451W        W31992   0.325   2.530  13.910
65452W        W31993  22.228  35.914   3.007
65453W        W31994  37.606  33.585   1.369
65454W        W31995  33.703  29.676   0.074
65455W        W31996  32.990  43.779   4.007
65456W        W31997  40.419  33.694  11.316
65457W        W31998  10.227  14.540   1.803
65458W        W31999  44.890  42.637  12.097
65459W        W32000   1.031  20.600   3.306
65460W        W32001   1.836  12.342  14.323
65461W        W32002  22.971  25.238  13.409
65462W        W32003  18.745  29.063  13.445
65463W        W32004  22.828   5.252  14.531
65464W        W32005  31.447  22.930  14.051
65465W        W32006   2.390  12.400   5.060
65466W        W32007  14.845  16.099  14.069
65467W        W32008  34.360  36.638   0.361
65468W        W32009  25.975  43.836   4.250
65469W        W32010  22.243  40.824   3.235
65470W        W32011   8.850  42.297   5.044
65471W        W32012  11.273  34.278   2.796
65472W        W32013   1.184   6.655  11.070
65473W        W32014   1.866   0.600  14.309
65474W        W32015  23.228  41.465   1.389
65475W        W32016  33.760   3.279  14.317
65476W        W32017  23.019  40.356  12.938
65477W        W32018  31.643   9.716   3.182
65478W        W32019  42.832   3.862  14.875
65479W        W32020   8.740  39.578  11.648
65480W        W32021  12.565   4.974  12.754
65481W        W32022  27.392  31.155   1.707
65482W        W32023  43.541  44.886   1.228
65483W        W32024   1.409  16.096  11.633
65484W        W32025   6.721  42.378   0.973
65485W        W32026  34.662  18.453   3.247
65486W        W32027  31.901  37.418   1.761
65487W        W32028  41.041   5.234  14.368
65488W        W32029  35.109  33.841  13.609
65489W        W32030   4.401  33.710  10.423
65490W        W32031  22.206   7.670   3.326
65491W        W32032  35.964   8.996   3.647
65492W        W32033  41.895  39.069  12.110
65493W        W32034  25.503   1.480  12.332
65494W        W32035  15.470  37.600  11.100
65495W        W32036  27.661  14.956  11.948
65496W        W32037  42.281  13.016   2.200
65497W        W32038  29.546  38.527  14.521
65498W        W32039  24.262  31.479  11.813
65499W        W32040  38.354  25.084  11.614
65500W        W32041  21.386  39.220  11.233
65501W        W32042  23.109  44.861   1.784
65502W        W32043  33.721   5.628  13.928
65503W        W32044  41.381   7.159  14.322
65504W        W32045  41.089  39.130  13.392
65505W        W32046  17.766   1.226   4.546
65506W        W32047  14.098  19.349  14.760
65507W        W32048  13.936  20.694  14.519
65508W        W32049  21.931  11.671   4.225
65509W        W32050  22.154  25.453  11.940
65510W        W32051  27.107  28.084   0.438
65511W        W32052  30.410  10.732  10.622
65512W        W32053  41.916   8.842  13.084
65513W        W32054  20.664   7.491   4.112
65514W        W32055   0.703  35.074  11.855
65515W        W32056  33.490  42.931  10.150
65516W        W32057  18.308  22.802  11.182
65517W        W32058  26.142  21.153  14.305
65518W        W32059  29.024  22.077   3.549
65519W        W32060   6.270   6.329  12.725
65520W        W32061  19.427  19.332  13.396
65521W        W32062   2.695  26.479  13.144
65522W        W32063  23.499  41.458  14.321
65523W        W32064  27.473   3.698   2.787
65524W        W32065  25.014  31.010   1.959
65525W        W32066  33.099  31.010  12.304
65526W        W32067   9.228  28.177  13.449
65527W        W32068   4.407   4.482   3.752
65528W        W32069  32.898  29.631   3.642
65529W        W32070  20.259  26.321  14.366
65530W        W32071  11.833  32.191   0.821
65531W        W32072   8.639  27.090  12.570
65532W        W32073   4.612  35.714   3.803
65533W        W32074   7.598  19.059   1.821
65534W        W32075  29.881  38.495  13.271
65535W        W32076   1.176  17.933  12.924
65536W        W32077  34.445  17.147   4.694
65537W        W32078  30.498  17.985   2.151
65538W        W32079  27.548  15.466  11.949
65539W        W32080  20.585  25.555   4.181
65540W        W32081  35.976   8.613   0.300
65541W        W32082  17.502  14.076  11.852
65542W        W32083  18.505  35.572  14.260
65543W        W32084   9.030  41.927  13.565
65544W        W32085  29.955  43.572  11.652
65545W        W32086  32.522  15.806  13.839
65546W        W32087  12.053  16.817  13.461
65547W        W32088  12.476   4.024   1.254
65548W        W32089  22.639  18.722  11.263
65549W        W32090  39.817  14.595   3.219
65550W        W32091  36.020  30.180   0.397
65551W        W32092   6.327  39.049  12.597
65552W        W32093  29.311   5.765  14.434
65553W        W32094  31.928  40.590   5.008
65554W        W32095  24.267   8.631   4.077
65555W        W32096  17.600   1.044   0.759
65556W        W32097  16.309  23.138   4.567
65557W        W32098  18.254   9.548  13.744
65558W        W32099  26.415  35.172  12.119
65559W        W32100  24.266   9.236   3.656
65560W        W32101  40.700  35.485   0.595
65561W        W32102   7.634   5.830  14.342
65562W        W32103  14.439  27.165  10.577
65563W        W32104  11.640  14.303   1.849
65564W        W32105  32.435  31.771  11.881
65565W        W32106  13.234  30.960  14.078
65566W        W32107  42.736  25.696  11.084
65567W        W32108  17.582  15.699   0.215
65568W        W32109  43.469   0.968   0.454
65569W        W32110  42.472  26.139   1.913
65570W        W32111  40.002  34.945  10.704
65571W        W32112  33.352  32.834  12.937
65572W        W32113  26.823  30.069  12.916
65573W        W32114  38.333  36.672   0.881
65574W        W32115  41.523  18.649   3.220
65575W        W32116  20.587   3.033  12.652
65576W        W32117  21.121   8.108  13.570
65577W        W32118  10.277   2.457  10.930
65578W        W32119   7.597  14.133  10.733
65579W        W32120   6.251  43.306   1.999
65580W        W32121   9.579   1.024   1.746
65581W        W32122  39.419  21.335  13.212
65582W        W32123  13.904  35.414   3.684
65583W        W32124  27.547  12.853   0.360
65584W        W32125  17.107  37.084   1.177
65585W        W32126  40.542  14.150   0.831
65586W        W32127  44.246  36.105  12.296
65587W        W32128  39.521   2.312  13.945
65588W        W32129  24.816  29.165  11.612
65589W        W32130  30.724  33.545   2.726
65590W        W32131  24.540  17.705   1.292
65591W        W32132  36.203  31.963   4.992
65592W        W32133  11.436  28.648   4.805
65593W        W32134  41.310  34.044  11.673
65594W        W32135  34.463  23.910   1.795
65595W        W32136  40.553  37.414  11.812
65596W        W32137   0.480  21.109  10.833
65597W        W32138  16.987  26.634   2.381
65598W        W32139  29.390   1.627  11.166
65599W        W32140  22.074  10.323   0.687
65600W        W32141  10.145  28.112   5.422
65601W        W32142  24.982  36.359  11.854
65602W        W32143  35.891  23.725  14.903
65603W        W32144  33.856  15.374  10.180
65604W        W32145  11.767  34.931  12.657
65605W        W32146  16.801  40.795   2.874
65606W        W32147  20.157  44.682   1.355
65607W        W32148  31.924  26.698  14.891
65608W        W32149  35.329  43.871   2.822
65609W        W32150  37.877  20.182   3.114
65610W        W32151  43.685  32.401   4.367
65611W        W32152  10.871  40.491   4.813
65612W        W32153  13.537  11.169   4.255
65613W        W32154  20.353   5.196  12.999
65614W        W32155  28.817   8.641  11.968
65615W        W32156  13.006  36.026  10.428
65616W        W32157  31.100  42.916  11.048
65617W        W32158   5.784   8.413  11.994
65618W        W32159   0.894  21.499   3.725
65619W        W32160  39.037  12.014   2.468
65620W        W32161  25.266  32.370  14.060
65621W        W32162   1.058   6.166   2.296
65622W        W32163  31.995  31.475  12.606
65623W        W32164  11.342  37.015   3.210
65624W        W32165  32.246  39.016  12.031
65625W        W32166   8.907   6.511   4.637
65626W        W32167  44.927  41.878  10.737
65627W        W32168  12.430  27.145  14.949
65628W        W32169  33.508  12.704  11.880
65629W        W32170  25.497  13.840  10.460
65630W        W32171   8.642  25.680  12.401
65631W        W32172   6.938  24.807  10.687
65632W        W32173  13.356  28.623   1.842
65633W        W32174  38.964  36.112   2.660
65634W        W32175  38.009   7.087  11.140
65635W        W32176  31.723  20.057  14.874
65636W        W32177  36.031  15.767  14.656
65637W        W32178  34.967  44.505   3.580
65638W        W32179   3.421  31.648   3.119
65639W        W32180  19.208  42.220   0.429
65640W        W32181   4.310  40.070   2.585
65641W        W32182   3.262  23.758  11.752
65642W        W32183  18.815  44.342   4.801
65643W        W32184  25.148   2.961   4.818
65644W        W32185   1.381   4.910   3.284
65645W        W32186  18.075  22.446  13.391
65646W        W32187  25.567  40.806   4.694
65647W        W32188  30.877  39.557   2.595
65648W        W32189  22.550   2.679   5.025
65649W        W32190  18.689  31.404   3.875
65650W        W32191  13.105  23.963  12.064
65651W        W32192  10.249   3.723  10.121
65652W        W32193  29.114  38.838   1.665
65653W        W32194   1.984  37.016  10.401
65654W        W32195   5.604  40.408   3.828
65655W        W32196   6.005  22.771   5.137
65656W        W32197  33.163  15.022   4.135
65657W        W32198  13.690   7.631   1.818
65658W        W32199  13.355  24.161  12.496
65659W        W32200  20.339  37.006  13.066
65660W        W32201  10.184  29.568  10.770
65661W        W32202   2.838  42.816  13.990
65662W        W32203  41.999  30.703  13.960
65663W        W32204  36.153  33.433   1.199
65664W        W32205  17.584  18.213  14.186
65665W        W32206  28.405  38.419   1.294
65666W        W32207  15.323  23.954  12.041
65667W        W32208  16.557   8.907  12.912
65668W        W32209  10.278  42.750   5.005
65669W        W32210  38.827  40.319  10.123
65670W        W32211  22.791   8.879   2.257
65671W        W32212  40.551  41.084  12.026
65672W        W32213  44.620  37.136  12.127
65673W        W32214   2.118  40.814  13.497
65674W        W32215  29.316  35.853  13.168
65675W        W32216   9.489  34.306   0.385
65676W        W32217  19.321  12.866   3.608
65677W        W32218   6.232  44.660  10.680
65678W        W32219  29.085  31.466  14.714
65679W        W32220  11.105  18.189  11.228
65680W        W32221  40.422  42.270   0.957
65681W        W32222  11.465  38.731  14.558
65682W        W32223   0.020  26.195   3.417
65683W        W32224  30.413  38.923  11.575
65684W        W32225  35.674  20.546   1.668
65685W        W32226  25.415   6.168  13.381
65686W        W32227  10.419  44.498   2.333
65687W        W32228  25.664  15.303   3.902
65688W        W32229  40.401  16.561   0.978
65689W        W32230  36.325  44.620  11.568
65690W        W32231  22.718  29.983   1.724
65691W        W32232  10.638  37.484  12.165
65692W        W32233  18.798  44.994  11.148
65693W        W32234  25.623   3.414  12.491
65694W        W32235  29.146  24.980   0.490
65695W        W32236  29.635  10.849  11.996
65696W        W32237  32.111  43.999  10.545
65697W        W32238  33.101  35.478   1.165
65698W        W32239   8.674   7.573   4.058
65699W        W32240  33.419  30.026  14.254
65700W        W32241   1.322  41.805   0.668
65701W        W32242  37.964  33.530   3.134
65702W        W32243  32.677   7.185   1.685
65703W        W32244  39.903  35.410  13.652
65704W        W32245   4.319   5.222  11.599
65705W        W32246  27.391  26.500   1.812
65706W        W32247  43.316  42.515   0.485
65707W        W32248  17.842   5.505   2.238
65708W        W32249   9.208  19.807   4.035
65709W        W32250  44.882  39.968  11.062
65710W        W32251  34.126  12.293   1.867
65711W        W32252  12.733  21.755  12.472
65712W        W32253  18.331  38.993  14.105
65713W        W32254  23.239   8.051  12.306
65714W        W32255  11.703   0.693   4.079
65715W        W32256   9.992  24.172   1.799
65716W        W32257   2.865  18.674  11.490
65717W        W32258  30.081  34.070   4.751
65718W        W32259  13.615  23.176   1.718
65719W        W32260  22.126   9.986   1.092
65720W        W32261  16.986  13.641   1.050
65721W        W32262   2.452   4.699   0.027
65722W        W32263  15.813  28.504   3.165
65723W        W32264  39.583  17.803   2.732
65724W        W32265  30.067  16.643  11.646
65725W        W32266  41.809  22.670   0.613
65726W        W32267   3.457  26.554   0.742
65727W        W32268  33.394  28.687  11.082
65728W        W32269  41.989  36.308   5.149
65729W        W32270  21.156   4.127  10.448
65730W        W32271   3.733   4.929  12.445
65731W        W32272  29.021  26.631  14.014
65732W        W32273  17.629   9.867  13.093
65733W        W32274  13.026   0.087   3.973
65734W        W32275   8.326  24.997  12.822
65735W        W32276  21.233  18.333  13.010
65736W        W32277  14.076   5.552   4.605
65737W        W32278   0.448  30.880   1.855
65738W        W32279  11.733   7.731  13.795
65739W        W32280  32.947  38.376  10.421
65740W        W32281  11.844  42.943  14.824
65741W        W32282  17.193  16.633   0.942
65742W        W32283  15.276  44.153  11.673
65743W        W32284   8.702   8.852  10.959
65744W        W32285   2.706  10.415   1.850
65745W        W32286  41.927  28.736  12.960
65746W        W32287   2.241   5.987  12.557
65747W        W32288  26.488  19.065   3.825
65748W        W32289  16.055  25.071  13.148
65749W        W32290  29.605   0.530   3.844
65750W        W32291  37.379  26.047   4.954
65751W        W32292   6.804   9.176   3.410
65752W        W32293   6.400  15.054   4.623
65753W        W32294  11.348  44.257   1.762
65754W        W32295   8.911  36.386   1.744
65755W        W32296  44.991  25.504  13.965
65756W        W32297  13.342   5.272   1.760
65757W        W32298   0.146  29.722   3.159
65758W        W32299  21.597  21.282   3.237
65759W        W32300  16.583  17.922   4.140
65760W        W32301  13.208  30.547   1.483
65761W        W32302  22.047  13.702   0.978
65762W        W32303  24.555  21.858  14.969
65763W        W32304   9.227   5.304   4.515
65764W        W32305   7.370  21.614  11.521
65765W        W32306  42.812  27.520   4.071
65766W        W32307  18.374  26.778   0.649
65767W        W32308  25.732  18.685  11.515
65768W        W32309   6.136  13.272  11.497
65769W        W32310  18.784  25.338   1.600
65770W        W32311  26.873  26.537   1.787
65771W        W32312   7.812  13.530   3.639
65772W        W32313   5.986  18.637  13.011
65773W        W32314  39.115  22.686   3.743
65774W        W32315  18.304  19.587   4.833
65775W        W32316  14.178  15.262  13.116
65776W        W32317  22.595  23.600   0.527
65777W        W32318  15.548  13.666   4.148
65778W        W32319   3.326  44.282   0.899
65779W        W32320  37.340   7.830   3.884
65780W        W32321   7.713  20.023  13.921
65781W        W32322   2.416  26.938  14.798
65782W        W32323   8.101  33.869   1.703
65783W        W32324  28.469   4.677   2.064
65784W        W32325  33.395  39.056   3.273
65785W        W32326  22.638   5.117   0.422
65786W        W32327  44.380  42.750  10.553
65787W        W32328  33.395   0.533   3.289
65788W        W32329  32.643  18.018   2.328
65789W        W32330  25.542   9.374   0.940
65790W        W32331  39.917  17.743   5.134
65791W        W32332  41.947   2.035   2.755
65792W        W32333  18.968  33.338  14.832
65793W        W32334   6.359   7.781  14.000
65794W        W32335   8.840  34.648  12.502
65795W        W32336   1.462  35.852  12.995
65796W        W32337  33.391  31.494  14.851
65797W        W32338  11.574  36.189  10.273
65798W        W32339  31.806   4.001  10.850
65799W        W32340   5.244  18.678  13.351
65800W        W32341  44.927  31.056   4.578
65801W        W32342  25.112  16.996   3.995
65802W        W32343  24.119  37.499  10.970
65803W        W32344  31.507  21.188  13.629
65804W        W32345  11.135   0.939  12.756
65805W        W32346  13.827   4.863   2.784
65806W        W32347  33.547  44.200  11.051
65807W        W32348   5.930  19.143   1.659
65808W        W32349  13.595  19.939   2.796
65809W        W32350  37.880  10.871  12.491
65810W        W32351  21.068  44.364   3.638
65811W        W32352  15.561  41.507  13.889
65812W        W32353  41.952  36.478   3.594
65813W        W32354  27.194   1.883   2.286
65814W        W32355  30.188  28.652   3.873
65815W        W32356  15.884  17.297  12.442
65816W        W32357  21.340  31.953   2.231
65817W        W32358   7.950   6.841   1.334
65818W        W32359  43.609  32.053  13.229
65819W        W32360  40.029  21.948   0.678
65820W        W32361  14.784  28.046   0.531
65821W        W32362  40.420  39.332   3.683
65822W        W32363  30.390   3.247   2.816
65823W        W32364   7.451  30.071  11.853
65824W        W32365  11.422  40.040   2.644
65825W        W32366  29.978  12.316  14.220
65826W        W32367  39.933  37.904   2.350
65827W        W32368  15.225  31.180  13.409
65828W        W32369   8.826  44.713  13.883
65829W        W32370  38.485  10.394   2.623
65830W        W32371  44.049  26.367   3.577
65831W        W32372  42.431  25.806   0.930
65832W        W32373   6.243  15.093   4.124
65833W        W32374  17.648  26.043   4.235
65834W        W32375  42.194  44.864  12.457
65835W        W32376   4.754   9.885   4.063
65836W        W32377  29.532  13.341   2.004
65837W        W32378  29.754   8.760  10.283
65838W        W32379  44.877   4.219   0.417
65839W        W32380  26.001   5.094  11.139
65840W        W32381  12.432   6.204  11.975
65841W        W32382  21.608  28.603  12.506
65842W        W32383  35.824  14.565   0.853
65843W        W32384  16.750  22.087   3.683
65844W        W32385  44.918  36.643  13.941
65845W        W32386  35.800  23.057   2.688
65846W        W32387  32.404  31.500  12.322
65847W        W32388  22.230  33.588  11.467
65848W        W32389  10.871  18.465   4.664
65849W        W32390   3.484  31.583  14.882
65850W        W32391  42.808   6.426  13.745
65851W        W32392  38.583  10.980  11.992
65852W        W32393  37.290   9.346   3.324
65853W        W32394  36.308  26.655  11.447
65854W        W32395   0.535  16.718  13.857
65855W        W32396  43.079  24.676   0.779
65856W        W32397  25.703  24.977   3.204
65857W        W32398   6.234   4.783  14.379
65858W        W32399  41.351  31.932  13.781
65859W        W32400  26.999  21.179  13.941
65860W        W32401  43.549  41.729   0.034
65861W        W32402  32.634  20.616   1.659
65862W        W32403  17.376  42.098   1.887
65863W        W32404  39.804  40.511  12.984
65864W        W32405  14.692  39.476   0.474
65865W        W32406   2.882  30.984   3.639
65866W        W32407  23.145  23.243  14.432
65867W        W32408  24.412  44.837   1.978
65868W        W32409  26.950  37.507   2.737
65869W        W32410   0.708   3.527  12.490
65870W        W32411  18.713   3.853   0.243
65871W        W32412   5.127  11.629  11.582
65872W        W32413   7.527  29.513  10.776
65873W        W32414  15.810   1.537   4.311
65874W        W32415  15.067  26.764   2.621
65875W        W32416  10.634  22.134   4.514
65876W        W32417   4.385  14.615  13.314
65877W        W32418  37.282  34.646   4.599
65878W        W32419  34.119  44.896   4.042
65879W        W32420   0.706  26.472  14.475
65880W        W32421   7.184  40.389   1.770
65881W        W32422  19.143  37.055   4.639
65882W        W32423  40.400  44.469   1.358
65883W        W32424   7.354  20.279  12.977
65884W        W32425  43.027   5.375   1.391
65885W        W32426  22.154  14.608   1.655
65886W        W32427   4.654  22.985   3.185
65887W        W32428  15.648   9.209  10.653
65888W        W32429  17.119   1.938  12.962
65889W        W32430  41.707   3.458  13.998
65890W        W32431  36.579  38.578  10.735
65891W        W32432  29.637  27.835  13.900
65892W        W32433  25.082  15.645  12.531
65893W        W32434  18.767  42.297   0.720
65894W        W32435   5.334  28.507   1.953
65895W        W32436  39.032   4.920   0.428
65896W        W32437   4.748  13.076  12.814
65897W        W32438  30.535  10.991  10.185
65898W        W32439  42.036  26.498   3.144
65899W        W32440  38.871  16.016   1.362
65900W        W32441  22.096  17.074  14.250
65901W        W32442   4.174  30.684  14.288
65902W        W32443   0.587  13.035  12.936
65903W        W32444  11.574  43.521  12.946
65904W        W32445   9.268  17.365  11.991
65905W        W32446  18.281  12.845   2.758
65906W        W32447  36.572   0.800  12.906
65907W        W32448   3.773  35.998   5.174
65908W        W32449   9.775   1.781  10.945
65909W        W32450   5.313  20.699   3.282
65910W        W32451  32.367  40.433   1.212
65911W        W32452  18.305  17.801   4.295
65912W        W32453  41.543  34.949   4.749
65913W        W32454  10.298  39.384   1.165
65914W        W32455  44.554  21.073  13.840
65915W        W32456  33.164  20.246  11.165
65916W        W32457   5.811  31.783  12.810
65917W        W32458  14.145  18.800  12.177
65918W        W32459  22.110  33.241   2.220
65919W        W32460  24.695   1.696   0.310
65920W        W32461  33.337  40.835   1.961
65921W        W32462  15.561  15.335  10.123
65922W        W32463  33.316   4.523   3.628
65923W        W32464  37.034  33.212   0.923
65924W        W32465  16.649  32.764   4.060
65925W        W32466  19.334  40.001  14.745
65926W        W32467  14.212  23.050  13.360
65927W        W32468  37.494   8.752   1.853
65928W        W32469  20.445  28.446  11.549
65929W        W32470  35.572  18.791  13.843
65930W        W32471  32.080  25.015   0.988
65931W        W32472  22.596   7.245  13.363
65932W        W32473  33.597  21.952   1.830
65933W        W32474  43.771  27.747   0.829
65934W        W32475  31.503  31.132   4.163
65935W        W32476  21.601   0.005   1.416
65936W        W32477  25.456   4.910  13.845
65937W        W32478  38.314  26.182  10.930
65938W        W32479  29.139  17.474   1.648
65939W        W32480  41.310  17.076  11.898
65940W        W32481   8.308  16.096  13.533
65941W        W32482  20.826  27.130   4.790
65942W        W32483  40.263  36.663  14.034
65943W        W32484  25.670  19.284   2.692
65944W        W32485  33.094  35.080   1.483
65945W        W32486  12.084  17.663   3.004
65946W        W32487   1.832  44.735   1.111
65947W        W32488  19.122  42.044  14.013
65948W        W32489  39.439   4.730   2.824
65949W        W32490  22.900  42.851  13.601
65950W        W32491  38.141  22.017   3.135
65951W        W32492   2.706   4.741   1.635
65952W        W32493  38.968  18.375  13.690
65953W        W32494   7.207  42.316   3.214
65954W        W32495  38.884   9.873  11.632
65955W        W32496  11.889   7.943   1.731
65956W        W32497   2.061  35.527  12.482
65957W        W32498  10.732  33.854   2.203
65958W        W32499  20.036  37.920  12.623
65959W        W32500  13.110  38.332  14.936
65960W        W32501  13.354  40.812   0.362
65961W        W32502  39.989  39.962   0.743
65962W        W32503  41.515  18.740  10.680
65963W        W32504  40.089  23.658  13.386
65964W        W32505  29.204  35.854  14.469
65965W        W32506  26.506  42.518  12.897
65966W        W32507  31.115  36.508  11.963
65967W        W32508  39.702  41.095   0.235
65968W        W32509  39.554  17.675  14.339
65969W        W32510  15.379  18.838  13.933
65970W        W32511  37.822   9.392   4.057
65971W        W32512  16.158   5.360   4.711
65972W        W32513  42.976  35.800   0.852
65973W        W32514  42.343  32.658  12.456
65974W        W32515  13.830  34.366  11.352
65975W        W32516  33.067  11.549   1.396
65976W        W32517  40.428   7.835  11.634
65977W        W32518   8.705  27.253   1.266
65978W        W32519  13.429  34.434   4.701
65979W        W32520   4.678  38.094   2.735
65980W        W32521  33.874   0.403   1.845
65981W        W32522  19.920   5.380  11.103
65982W        W32523  36.869  36.905   1.650
65983W        W32524  31.822  11.824   3.158
65984W        W32525  10.122  33.692  11.970
65985W        W32526   6.697  12.703   0.024
65986W        W32527  11.257  21.043  13.369
65987W        W32528  24.002  10.626   3.585
65988W        W32529  13.737  43.264  13.868
65989W        W32530  39.091  13.011   2.220
65990W        W32531   2.329  10.916  13.504
65991W        W32532  32.050   3.509   4.038
65992W        W32533  33.796  31.490   2.804
65993W        W32534   3.448   6.259  11.237
65994W        W32535  40.637   6.208   5.120
65995W        W32536  37.215  30.971  11.186
65996W        W32537  14.401  40.255  12.024
65997W        W32538  23.285  26.674  14.474
65998W        W32539  26.673   0.553   1.872
65999W        W32540  23.025  34.005  14.822
66000W        W32541  27.086  40.341   2.147
66001W        W32542  22.534  21.082  11.675
66002W        W32543   0.830   9.923   1.699
66003W        W32544  22.719  28.661   2.010
66004W        W32545  21.694  32.710   4.318
66005W        W32546  40.876  11.064   0.281
66006W        W32547  36.794  22.921  11.574
66007W        W32548  36.834  31.368  14.316
66008W        W32549  32.037  37.864  11.578
66009W        W32550   4.901  17.070   2.346
66010W        W32551   7.697  27.175  14.861
66011W        W32552  23.230  17.732   1.651
66012W        W32553  17.589  29.506   4.290
66013W        W32554  40.599  15.088  12.527
66014W        W32555  42.777  44.554  13.812
66015W        W32556  34.643  10.986   0.259
66016W        W32557   2.221  38.838   1.363
66017W        W32558  22.619   6.769  14.215
66018W        W32559  28.343  22.347  12.175
66019W        W32560  17.270  36.348  14.798
66020W        W32561  39.060  29.981   2.861
66021W        W32562   3.925  31.531   3.811
66022W        W32563  20.037  22.075  11.881
66023W        W32564  14.986  15.330  14.784
66024W        W32565  23.565  34.870  11.521
66025W        W32566   1.936  42.748  12.572
66026W        W32567  10.791   0.022  14.942
66027W        W32568  32.972  16.800   4.538
66028W        W32569  39.217  39.065  14.497
66029W        W32570  13.673   4.758   4.639
66030W        W32571  15.345  13.775  11.631
66031W        W32572  37.943   2.479  10.059
66032W        W32573  18.192  25.559  12.516
66033W        W32574  42.754  17.920  12.651
66034W        W32575  32.398  23.610   0.436
66035W        W32576  19.575  10.423   1.892
66036W        W32577  39.987   3.856   2.405
66037W        W32578   4.521   1.853  13.411
66038W        W32579  28.066  15.076  12.259
66039W        W32580  27.211  23.611   0.234
66040W        W32581  14.361  42.313  11.513
66041W        W32582  10.223  32.043   2.881
66042W        W32583  21.892  18.614  14.793
66043W        W32584  14.775  44.907  13.262
66044W        W32585  30.053  30.679  14.872
66045W        W32586  21.300  14.137   4.952
66046W        W32587  15.873  38.504  11.558
66047W        W32588  37.338  23.688   0.554
66048W        W32589  22.829  31.575   0.877
66049W        W32590  13.550  39.814  12.178
66050W        W32591  23.540  31.192   4.553
66051W        W32592  20.763  22.049  14.031
66052W        W32593  16.064  43.596   2.761
66053W        W32594  21.531  15.769   0.429
66054W        W32595  28.507  24.631  11.901
66055W        W32596   8.864  20.077  11.594
66056W        W32597  15.117  25.159  12.090
66057W        W32598  38.004  13.814   1.198
66058W        W32599   8.421  17.901   4.096
66059W        W32600  28.980  21.526   4.972
66060W        W32601  22.391  14.239   3.251
66061W        W32602  25.078  19.541   3.397
66062W        W32603  23.155   7.944   3.244
66063W        W32604  11.293  42.239   2.774
66064W        W32605  42.283  42.823   0.910
66065W        W32606  27.547   8.364  14.462
66066W        W32607  23.532   3.800  10.979
66067W        W32608  19.995   4.405  11.368
66068W        W32609  41.835  20.571  12.083
66069W        W32610  25.204  22.198  14.028
66070W        W32611  10.492   6.774  11.948
66071W        W32612  19.576  38.038   3.558
66072W        W32613  13.684  24.960  14.720
66073W        W32614  39.247  43.347  13.175
66074W        W32615   3.531  34.375  12.444
66075W        W32616  36.078  19.668   3.331
66076W        W32617   7.145  20.220   3.789
66077W        W32618  16.711  36.535   1.926
66078W        W32619   0.047  37.435   2.557
66079W        W32620   1.463  24.451   0.519
66080W        W32621  14.882  28.898   2.872
66081W        W32622  29.464  36.537   1.825
66082W        W32623  25.746   3.885   9.707
66083W        W32624  26.170   0.556   3.658
66084W        W32625  22.243  17.610  12.566
66085W        W32626  43.902  26.886   3.611
66086W        W32627  27.554   8.172   2.364
66087W        W32628  12.304  16.446  13.043
66088W        W32629  44.983  14.864   0.473
66089W        W32630  17.332   9.688  14.460
66090W        W32631  15.805  22.679  11.259
66091W        W32632  26.463   5.902   2.391
66092W        W32633  26.616  41.196  13.741
66093W        W32634  25.222   8.394  14.980
66094W        W32635  44.011  33.472  11.480
66095W        W32636  43.715   3.339  10.694
66096W        W32637  24.452  33.429  12.144
66097W        W32638   8.715  23.191  13.996
66098W        W32639  11.040  39.084   5.162
66099W        W32640   8.220  25.958  13.119
66100W        W32641   6.646   4.291  12.434
66101W        W32642  29.493   3.689   1.832
66102W        W32643  18.068  28.060   3.737
66103W        W32644  35.361  36.958  11.505
66104W        W32645  29.563  29.545   1.805
66105W        W32646  25.091  24.717  11.630
66106W        W32647   0.353  18.187  12.465
66107W        W32648  37.016  32.059   2.395
66108W        W32649  41.828  29.218  14.444
66109W        W32650  14.196  14.899   1.907
66110W        W32651   7.610  33.760  11.108
66111W        W32652  21.290  29.658   2.333
66112W        W32653  40.918   4.597  12.888
66113W        W32654   7.475  11.655  13.143
66114W        W32655  13.091  38.371  12.459
66115W        W32656  24.882   2.970   1.406
66116W        W32657  38.924  19.537   2.180
66117W        W32658  11.765  42.056  12.997
66118W        W32659  17.935  23.019   1.934
66119W        W32660   3.062  19.779   0.616
66120W        W32661  14.171   4.980  14.197
66121W        W32662   6.756   7.927   2.027
66122W        W32663  42.945  29.745   2.433
66123W        W32664  24.314   4.153  11.198
66124W        W32665  36.617  23.051   0.929
66125W        W32666  10.592  22.378  13.990
66126W        W32667   6.428  28.922   3.899
66127W        W32668  36.670  33.413   1.260
66128W        W32669  18.075   7.661  12.882
66129W        W32670  32.794   9.431  13.008
66130W        W32671   4.246  43.473   4.289
66131W        W32672  24.988  12.566  14.944
66132W        W32673   2.405  25.752  13.034
66133W        W32674   2.333  23.811  11.702
66134W        W32675  42.875  29.910   4.095
66135W        W32676  42.843   6.697   3.850
66136W        W32677  15.873   9.304  11.978
66137W        W32678  41.934  27.460  12.444
66138W        W32679  25.956  29.896  12.405
66139W        W32680  11.629   3.694  14.342
66140W        W32681  26.532  41.970  14.739
66141W        W32682  20.550  36.580   2.800
66142W        W32683  26.091  39.553  13.452
66143W        W32684  17.792  32.461   1.788
66144W        W32685  10.122  13.367   3.226
66145W        W32686   0.736  44.022  10.752
66146W        W32687   1.046   0.725  12.917
66147W        W32688   7.690  31.875  11.543
66148W        W32689  33.492  36.373   1.705
66149W        W32690  34.044  38.309  13.007
66150W        W32691  10.420  30.976   0.286
66151W        W32692  29.915  24.263  12.043
66152W        W32693   2.227  25.228   3.904
66153W        W32694   5.612  36.663  11.025
66154W        W32695  30.031  17.509  11.072
66155W        W32696  43.250  34.942   0.418
66156W        W32697  17.617  29.503   2.746
66157W        W32698   7.171   3.692  14.662
66158W        W32699  23.096  32.035   1.005
66159W        W32700  10.639   5.800  12.632
66160W        W32701  34.436  28.218  13.948
66161W        W32702  24.799  21.595   0.333
66162W        W32703  27.721  23.345   0.938
66163W        W32704  22.304  18.393  11.898
66164W        W32705  37.913  12.079  13.452
66165W        W32706  36.771  36.999   1.142
66166W        W32707  20.565  41.871   0.694
66167W        W32708   8.775  18.706   0.734
66168W        W32709   2.940  39.432   0.293
66169W        W32710  10.218  11.701  14.476
66170W        W32711   3.227  35.142   1.978
66171W        W32712  41.976  26.626   5.283
66172W        W32713  25.107  33.499   2.599
66173W        W32714   5.406  27.058   3.222
66174W        W32715  26.507  35.566   0.698
66175W        W32716  32.522  37.566   0.420
66176W        W32717   1.492  44.701  14.296
66177W        W32718  35.532  26.030  10.737
66178W        W32719  22.642  36.848   2.315
66179W        W32720  39.309  31.010  13.501
66180W        W32721  36.107   1.949  14.037
66181W        W32722  34.631  28.960   0.823
66182W        W32723  15.462   3.911  14.495
66183W        W32724  31.821  41.243  11.620
66184W        W32725  37.738  41.943  13.547
66185W        W32726   9.417  21.035   0.314
66186W        W32727  10.680   5.694   0.208
66187W        W32728  27.495  41.269   0.440
66188W        W32729  36.864  35.561   4.662
66189W        W32730  27.591  40.402   4.351
66190W        W32731  14.767  40.996  14.480
66191W        W32732  36.778  23.201  11.141
66192W        W32733  10.096  16.711   3.640
66193W        W32734   6.406  40.463  12.044
66194W        W32735   5.716   0.717  12.066
66195W        W32736  19.780  23.139  12.057
66196W        W32737  43.540  35.409   2.333
66197W        W32738  13.105  21.060  14.653
66198W        W32739  22.812  15.358   2.889
66199W        W32740  44.746  22.500  14.989
66200W        W32741  16.240  21.644  11.983
66201W        W32742  32.992  21.627   4.863
66202W        W32743   8.317   3.848  10.545
66203W        W32744  33.459  17.594   1.772
66204W        W32745  15.733   0.809  13.871
66205W        W32746  43.930  37.123   4.542
66206W        W32747   4.532  44.874   3.575
66207W        W32748  39.928  31.999   1.234
66208W        W32749  18.595   8.377   0.336
66209W        W32750  42.346  27.828   0.494
66210W        W32751  33.095  14.781   2.244
66211W        W32752  24.156  37.822   1.641
66212W        W32753  19.180  22.948  11.135
66213W        W32754   2.350  23.746   1.705
66214W        W32755  17.100  29.210   1.904
66215W        W32756   5.462  15.995  12.970
66216W        W32757  12.376   0.239  12.199
66217W        W32758  10.433  40.490   2.267
66218W        W32759   2.672  21.573   4.167
66219W        W32760  32.109  37.318   1.285
66220W        W32761  15.841  12.597  12.012
66221W        W32762  40.441  36.677   4.696
66222W        W32763  29.680  43.058   0.768
66223W        W32764   9.729  38.754  11.541
66224W        W32765  16.134  11.594  14.332
66225W        W32766   6.044  26.720   2.797
66226W        W32767  37.084  27.173  13.913
66227W        W32768  34.862  44.581   1.277
66228W        W32769  21.313   1.760   3.252
66229W        W32770  36.384  23.114  10.406
66230W        W32771   9.604  28.110   0.397
66231W        W32772  10.949  42.853   1.405
66232W        W32773   3.478  44.648   4.151
66233W        W32774  33.096  12.101  12.857
66234W        W32775  14.989  14.950   0.177
66235W        W32776  34.909   6.099   0.775
66236W        W32777  44.276  27.447  11.121
66237W        W32778  26.889  41.268   4.732
66238W        W32779  38.590  12.669   1.447
66239W        W32780   0.440  37.097  11.596
66240W        W32781  43.321   4.784   2.784
66241W        W32782  16.127   7.363  10.658
66242W        W32783  43.350   7.872   3.156
66243W        W32784  26.606  20.981  10.983
66244W        W32785  25.142  37.381   2.156
66245W        W32786  44.868  32.150   1.903
66246W        W32787  43.481  30.643   4.119
66247W        W32788  44.559  42.794  14.720
66248W        W32789  16.186  28.644  14.551
66249W        W32790  29.467  17.179  14.708
66250W        W32791  44.915  44.494  10.563
66251W        W32792   2.196  21.440  11.721
66252W        W32793  21.907   5.221   2.782
66253W        W32794  11.919  37.346   3.654
66254W        W32795  33.611  43.170  11.906
66255W        W32796  18.199  17.566   1.172
66256W        W32797  15.565  26.065  14.475
66257W        W32798  16.780  40.120  12.908
66258W        W32799   9.982   0.811  11.134
66259W        W32800  16.583  15.535   4.281
66260W        W32801  10.121  12.716   4.632
66261W        W32802  34.959  17.266  10.508
66262W        W32803  23.112   1.551  12.525
66263W        W32804   8.995  38.094   1.254
66264W        W32805  37.807   0.399   2.709
66265W        W32806  33.632  20.118   3.881
66266W        W32807  24.646  24.918   0.922
66267W        W32808  24.047   8.235  14.471
66268W        W32809  19.729  13.769   1.364
66269W        W32810  30.421   8.934  13.461
66270W        W32811  34.457  40.073   0.843
66271W        W32812  20.182  21.622   4.291
66272W        W32813  39.435  14.131   2.737
66273W        W32814  27.488  31.601  14.583
66274W        W32815  33.093  24.608  11.602
66275W        W32816  40.348  37.393   4.468
66276W        W32817  39.676  11.714   1.721
66277W        W32818   8.887  41.548  11.148
66278W        W32819  31.820  15.657  14.940
66279W        W32820  26.969  15.431   0.944
66280W        W32821   6.278  29.004   3.385
66281W        W32822   4.431  20.341  10.436
66282W        W32823   4.452  23.542   0.190
66283W        W32824  20.778  28.109   2.416
66284W        W32825  27.486   1.002   2.333
66285W        W32826  38.419  30.889   1.666
66286W        W32827  19.672  12.605   3.319
66287W        W32828  10.144   3.681   1.812
66288W        W32829  17.113  23.161   0.796
66289W        W32830  15.753   7.510   3.169
66290W        W32831  34.481  38.451   2.585
66291W        W32832  19.385  24.963   3.504
66292W        W32833   0.739  28.518  11.525
66293W        W32834  37.742  38.778  14.314
66294W        W32835   7.988  39.344  14.323
66295W        W32836  23.025  23.738  14.321
66296W        W32837  23.561  30.455  10.649
66297W        W32838  14.309  14.690   1.427
66298W        W32839   3.011  28.716   1.429
66299W        W32840  23.721  22.221  11.764
66300W        W32841  32.685  14.618   4.739
66301W        W32842  16.125  17.748   3.922
66302W        W32843  36.113   4.371  12.103
66303W        W32844  39.663  19.593   4.212
66304W        W32845   1.274  11.255  11.934
66305W        W32846  32.705  19.608  10.744
66306W        W32847   9.895  27.957   0.812
66307W        W32848  32.717  40.436   3.465
66308W        W32849   7.768  20.834  13.342
66309W        W32850  26.623   8.396   2.203
66310W        W32851  26.027  40.759   4.940
66311W        W32852  26.919  35.216  12.177
66312W        W32853   0.445  19.111  12.020
66313W        W32854  31.421  15.267  12.488
66314W        W32855  16.562  25.072  13.910
66315W        W32856  10.338  43.068  12.341
66316W        W32857  41.562   1.237   3.676
66317W        W32858  25.589  42.957   2.167
66318W        W32859  11.955  39.355  13.393
66319W        W32860   1.421  22.041  14.532
66320W        W32861   0.247   0.751   1.841
66321W        W32862  35.127  41.046   4.696
66322W        W32863  40.743  31.515   0.079
66323W        W32864  41.549  19.542   3.630
66324W        W32865  13.067  40.440   0.914
66325W        W32866   1.414   0.969  12.598
66326W        W32867  18.515   2.583  14.637
66327W        W32868  26.585  26.351  12.216
66328W        W32869  33.961  10.409   1.969
66329W        W32870  23.580   3.889   0.818
66330W        W32871  32.895  43.430   4.388
66331W        W32872  19.225  36.562   1.545
66332W        W32873  43.468  25.087   1.653
66333W        W32874  20.061  33.972   2.751
66334W        W32875  26.635  19.792  13.008
66335W        W32876  35.199   4.149   5.151
66336W        W32877  10.371  19.036  11.488
66337W        W32878  24.563  41.148   0.001
66338W        W32879  24.232   0.532   4.077
66339W        W32880  30.413  18.601  12.214
66340W        W32881  16.999  43.817  14.382
66341W        W32882  13.684  11.806  14.504
66342W        W32883  41.089  17.427   3.743
66343W        W32884  42.599  40.743  11.425
66344W        W32885  11.772  39.487  13.867
66345W        W32886  36.223  20.367  14.442
66346W        W32887  32.591  27.226   0.356
66347W        W32888  21.514  38.496   1.162
66348W        W32889   6.403   1.132  13.984
66349W        W32890   2.949  37.549  13.085
66350W        W32891  37.708  19.160   1.595
66351W        W32892   4.379   3.556  13.609
66352W        W32893  14.406  26.268   0.903
66353W        W32894  43.026  19.118  14.218
66354W        W32895  14.670  33.346   0.042
66355W        W32896  31.567  23.723  10.683
66356W        W32897  42.943   8.265  14.222
66357W        W32898  16.314  29.549   1.842
66358W        W32899  13.905  27.146  12.033
66359W        W32900  32.554   4.177  13.926
66360W        W32901   6.087  17.801  13.898
66361W        W32902  28.108  43.338   2.301
66362W        W32903  36.643  26.782  11.077
66363W        W32904  14.266  40.558  13.291
66364W        W32905  30.341  22.136  14.256
66365W        W32906  42.934  12.685  11.376
66366W        W32907   7.751  36.849  13.999
66367W        W32908  12.189   6.747  12.847
66368W        W32909  33.134  10.457  12.043
66369W        W32910  22.297  42.918   4.202
66370W        W32911   6.708  38.146   4.636
66371W        W32912  14.611  25.399  14.874
66372W        W32913  30.725  10.650  13.820
66373W        W32914  19.549  38.046   3.057
66374W        W32915  23.067   1.827   0.282
66375W        W32916   9.784  25.085  12.995
66376W        W32917  14.111  19.584   2.171
66377W        W32918  24.754  39.574   2.368
66378W        W32919  34.495  18.042  12.462
66379W        W32920  11.679  12.452   2.662
66380W        W32921  27.381  31.154  11.032
66381W        W32922  36.447  20.758  14.173
66382W        W32923   1.876  18.623  10.987
66383W        W32924   4.832  30.391  11.915
66384W        W32925  38.697  39.034  14.505
66385W        W32926  41.823   6.494   1.055
66386W        W32927   7.310   3.823   1.872
66387W        W32928  24.530  18.148   1.831
66388W        W32929  11.638  17.052  12.763
66389W        W32930  35.522  21.348   0.841
66390W        W32931  13.665  40.401  14.232
66391W        W32932   6.762  29.103  14.067
66392W        W32933   6.902  31.907   2.376
66393W        W32934  39.408  35.242  13.769
66394W        W32935  27.399  21.013  11.487
66395W        W32936  15.675   2.912   1.695
66396W        W32937  11.693   7.950  12.364
66397W        W32938   5.954  18.607  12.228
66398W        W32939  27.236  42.403   2.708
66399W        W32940  22.509  20.014   4.293
66400W        W32941  33.575  31.265  13.997
66401W        W32942  27.488  40.276   3.398
66402W        W32943  43.274  29.150  12.931
66403W        W32944  32.104   9.885  13.187
66404W        W32945  20.136  24.822  14.273
66405W        W32946  42.074  27.927   4.664
66406W        W32947  16.621   4.704  14.815
66407W        W32948  17.775   8.789   0.809
66408W        W32949  29.397  21.063   1.281
66409W        W32950  23.200  40.287  10.666
66410W        W32951   7.711  11.831  13.810
66411W        W32952  13.812  11.653  13.600
66412W        W32953  40.231  40.506   3.196
66413W        W32954  26.956   3.017   3.803
66414W        W32955  44.856  21.761   2.330
66415W        W32956  21.152  15.443  11.104
66416W        W32957  13.283  21.113   5.257
66417W        W32958  13.155   8.253  14.767
66418W        W32959  19.252  11.729   3.707
66419W        W32960  13.617   8.301  13.312
66420W        W32961   0.285  13.691  14.731
66421W        W32962  28.588  44.265   2.170
66422W        W32963   6.269  38.237   4.081
66423W        W32964  12.270  15.320  11.033
66424W        W32965  42.793   0.287   1.275
66425W        W32966  24.217  30.060  10.632
66426W        W32967  33.986  37.894   3.741
66427W        W32968  41.815  32.812   0.994
66428W        W32969   2.705  20.749  14.027
66429W        W32970  34.584  24.142  11.176
66430W        W32971   9.642  34.954   2.718
66431W        W32972   5.859  44.524  13.060
66432W        W32973  37.952   6.603  11.017
66433W        W32974   5.300   6.155  10.600
66434W        W32975  44.433  10.307  10.426
66435W        W32976   2.993  18.019   3.698
66436W        W32977  23.195   6.115  12.024
66437W        W32978  29.981  26.670  12.435
66438W        W32979  39.061  19.061  12.050
66439W        W32980  25.947  34.917   2.760
66440W        W32981  41.932   7.182   3.690
66441W        W32982   8.381  10.299  11.609
66442W        W32983  36.339   6.781   4.518
66443W        W32984   3.992   4.195   3.867
66444W        W32985   3.667  27.788  12.312
66445W        W32986  35.737  30.360   2.014
66446W        W32987  40.442  16.684   4.508
66447W        W32988  33.140  10.292   1.308
66448W        W32989   8.808  41.799  10.684
66449W        W32990  41.809  14.261  12.092
66450W        W32991  34.398  34.858  10.222
66451W        W32992  28.754  16.857   3.202
66452W        W32993   3.914  16.760   0.873
66453W        W32994  34.630   5.764  12.156
66454W        W32995  41.991   2.549   2.770
66455W        W32996  24.260  32.812  11.742
66456W        W32997   8.163  25.586  12.141
66457W        W32998   6.633  10.255  10.861
66458W        W32999  43.895  14.343   2.745
66459W        W33000   3.369   0.708   5.563
66460W        W33001   3.760   1.813   4.021
66461W        W33002   1.787   3.834  11.187
66462W        W33003  14.108  41.902  13.143
66463W        W33004   0.285  40.475  14.028
66464W        W33005   2.722  10.250  11.599
66465W        W33006   4.906   8.502  10.698
66466W        W33007  23.341  40.345  14.852
66467W        W33008  11.073   5.749   3.370
66468W        W33009  41.362  20.417   4.958
66469W        W33010  26.929   1.759   2.729
66470W        W33011  17.124  43.096  12.462
66471W        W33012  30.088   3.851   4.335
66472W        W33013  27.598  23.533   2.878
66473W        W33014  26.667  35.588  11.940
66474W        W33015  38.029  17.505  10.662
66475W        W33016  34.788   8.149  13.825
66476W        W33017  29.957  32.450   0.816
66477W        W33018  34.862  18.528   3.721
66478W        W33019  30.703  37.470  11.249
66479W        W33020   6.837  42.789   0.399
66480W        W33021  41.681   3.538   2.687
66481W        W33022  18.178  19.660  10.711
66482W        W33023  30.062  42.799  12.582
66483W        W33024  17.821  26.003  13.528
66484W        W33025  39.958  36.412   4.565
66485W        W33026  12.598  39.323  10.656
66486W        W33027  38.143   2.016  10.184
66487W        W33028  30.109  40.524  13.408
66488W        W33029  15.292  43.112   0.748
66489W        W33030  20.234   2.367   2.916
66490W        W33031  38.594  11.074  10.673
66491W        W33032  43.442  36.199  14.817
66492W        W33033  20.335  21.616   1.504
66493W        W33034  24.431   6.256  14.624
66494W        W33035  44.047  34.476  14.334
66495W        W33036  24.018  20.661  14.439
66496W        W33037  26.828  28.014  13.112
66497W        W33038  33.581  38.666   1.217
66498W        W33039   5.437  42.063   0.021
66499W        W33040  41.449   1.763  10.748
66500W        W33041  18.196  20.027  10.345
66501W        W33042  37.544  25.556   5.046
66502W        W33043  24.613  35.818  10.468
66503W        W33044  39.735   8.853  10.688
66504W        W33045  34.323  25.096  11.578
66505W        W33046  43.867  20.381   1.975
66506W        W33047   8.078   1.938   2.862
66507W        W33048  14.315   1.304  13.468
66508W        W33049   5.415  38.405  10.153
66509W        W33050  22.411   8.917   3.804
66510W        W33051  24.249  40.096  13.374
66511W        W33052  30.090  38.987  12.455
66512W        W33053  26.463  22.136   2.780
66513W        W33054  11.229  34.052   4.850
66514W        W33055   7.909  35.079   1.750
66515W        W33056   4.838   9.730  12.527
66516W        W33057   7.739  32.357   3.107
66517W        W33058   6.892  37.615  14.133
66518W        W33059  20.252  29.648   3.712
66519W        W33060  14.891   0.724   0.534
66520W        W33061  41.918  21.628   2.597
66521W        W33062   4.728   1.759  13.936
66522W        W33063  43.796  19.792   1.049
66523W        W33064  20.225  36.146   1.306
66524W        W33065  28.552  19.260   3.344
66525W        W33066  14.152  37.879   3.107
66526W        W33067  25.430  26.753   1.893
66527W        W33068   5.807   6.840  12.103
66528W        W33069  19.767  14.636   3.085
66529W        W33070  23.974  12.249   3.765
66530W        W33071  31.016   1.936   2.490
66531W        W33072  25.853  32.515   1.315
66532W        W33073   9.924  20.886  13.114
66533W        W33074  11.414   2.824   4.702
66534W        W33075  15.558  21.929  12.700
66535W        W33076  17.546  38.385  13.826
66536W        W33077  20.734  25.469  12.936
66537W        W33078   2.099  41.194  13.120
66538W        W33079  25.758  41.352   2.819
66539W        W33080  24.707   8.515  12.527
66540W        W33081  33.436   3.601   2.818
66541W        W33082  28.724  43.020  14.981
66542W        W33083   3.967  40.906   1.149
66543W        W33084   0.696  20.814  13.088
66544W        W33085  24.755  24.422   0.973
66545W        W33086  21.221  41.429   2.489
66546W        W33087  28.732  14.776   4.030
66547W        W33088   4.376  19.347  10.772
66548W        W33089  43.816  30.125   4.866
66549W        W33090  22.202  19.834  12.951
66550W        W33091  23.996  10.075   1.211
66551W        W33092   8.710   1.977   2.225
66552W        W33093   5.077  22.525   4.763
66553W        W33094  42.277   7.641  13.834
66554W        W33095   1.689   4.704   4.131
66555W        W33096  32.082  24.642  12.962
66556W        W33097  10.993  24.036   4.498
66557W        W33098  41.262  36.315   1.770
66558W        W33099   8.383  25.100  13.332
66559W        W33100  22.669  33.919   0.188
66560W        W33101  15.567  17.801   2.183
66561W        W33102  34.101   3.188   3.766
66562W        W33103  35.291  15.216   2.980
66563W        W33104  14.614  38.253   0.817
66564W        W33105  21.287  24.985  13.948
66565W        W33106  35.961  26.687  12.407
66566W        W33107  19.185   0.009  14.424
66567W        W33108  16.172  41.050  12.464
66568W        W33109  16.609   3.171  10.388
66569W        W33110  24.641   5.005   4.063
66570W        W33111  40.074  38.893  12.601
66571W        W33112  35.457  32.912   2.313
66572W        W33113  36.769  37.522  12.866
66573W        W33114  12.292   3.282   0.816
66574W        W33115   3.538  22.102  11.966
66575W        W33116  22.528  43.826  13.306
66576W        W33117  10.458   7.243   3.778
66577W        W33118   3.743  39.068  12.942
66578W        W33119  36.619  26.677   2.571
66579W        W33120  12.232  38.804  11.745
66580W        W33121  10.652  20.323   1.346
66581W        W33122  22.938   4.584  11.181
66582W        W33123  18.118  15.442  14.452
66583W        W33124  31.456  26.932  12.854
66584W        W33125  39.450   2.961   1.220
66585W        W33126   2.538  35.493  10.953
66586W        W33127  10.174  24.077   1.242
66587W        W33128  19.638  34.110   3.678
66588W        W33129   7.839   4.353   3.959
66589W        W33130  27.680  26.788   3.709
66590W        W33131   0.418  39.982  13.398
66591W        W33132  21.180  37.618  11.582
66592W        W33133  15.805  38.856   4.101
66593W        W33134  30.463   4.608  12.876
66594W        W33135  33.071  13.524  11.037
66595W        W33136  22.181   2.200   4.810
66596W        W33137  24.520  30.418   4.130
66597W        W33138  24.037  31.642  10.939
66598W        W33139  44.439  14.004   0.671
66599W        W33140  36.827  17.184   3.774
66600W        W33141  22.196  27.146   1.453
66601W        W33142  27.062  35.903  12.893
66602W        W33143  34.063  28.215  13.154
66603W        W33144  11.287  13.187   0.474
66604W        W33145  21.185  35.145   4.542
66605W        W33146   8.416   3.255  12.966
66606W        W33147   1.358  11.194   0.796
66607W        W33148   2.065  25.025   1.271
66608W        W33149  27.977  18.534  14.825
66609W        W33150  12.614  34.047   4.960
66610W        W33151  40.420  21.436   1.401
66611W        W33152  13.851  10.766   4.107
66612W        W33153  31.633  20.077  11.193
66613W        W33154  16.159   4.245  12.890
66614W        W33155  28.946   7.016  10.559
66615W        W33156  34.323   3.364  14.949
66616W        W33157  26.793   3.810  12.074
66617W        W33158  13.229  33.104   3.199
66618W        W33159   1.293   0.062  14.874
66619W        W33160  27.080   5.963   1.867
66620W        W33161  12.202   6.987   4.232
66621W        W33162  21.454   1.805   0.364
66622W        W33163  29.622  29.331  13.881
66623W        W33164  43.118  29.632   1.941
66624W        W33165   2.739  12.826   2.706
66625W        W33166  28.297  39.002   1.396
66626W        W33167  20.525   0.883  14.521
66627W        W33168   6.458  26.946   1.717
66628W        W33169  40.114  20.797  11.186
66629W        W33170   1.431  28.320   2.640
66630W        W33171  13.408  29.029  12.837
66631W        W33172  42.548   1.303  12.359
66632W        W33173  25.204  13.219   5.396
66633W        W33174  39.421  16.255   2.632
66634W        W33175   5.259  21.163  14.406
66635W        W33176  15.233  40.583  12.301
66636W        W33177   4.437  12.444   0.402
66637W        W33178   9.182  32.102  13.808
66638W        W33179  13.790   4.599  10.752
66639W        W33180  18.002   0.371  11.718
66640W        W33181  27.945  36.545  11.918
66641W        W33182   4.210  14.296   3.904
66642W        W33183  10.284  43.764   2.776
66643W        W33184  18.767  34.822   3.744
66644W        W33185  37.963   8.890   1.670
66645W        W33186  25.428   7.464  12.986
66646W        W33187   1.717  32.971   3.282
66647W        W33188  10.281  44.827  11.052
66648W        W33189  35.132  40.117   4.644
66649W        W33190  11.053   4.789  10.949
66650W        W33191   6.913  23.927   4.077
66651W        W33192  18.519  32.172  12.536
66652W        W33193  39.831   9.801   2.630
66653W        W33194   6.916  41.494   3.412
66654W        W33195  18.660  24.249  13.332
66655W        W33196   5.278  25.745  12.094
66656W        W33197  35.321  43.079   4.096
66657W        W33198   4.248   3.080  14.958
66658W        W33199  33.053  41.787   4.655
66659W        W33200   8.676  19.224   2.872
66660W        W33201   8.414  18.190   3.649
66661W        W33202  17.193  17.575  11.387
66662W        W33203  11.194  10.302  14.770
66663W        W33204  41.444  42.017   2.451
66664W        W33205  19.183  21.757  11.913
66665W        W33206  19.484   9.107   1.859
66666W        W33207  42.986  25.691  13.675
66667W        W33208  16.000  19.587   4.214
66668W        W33209  16.625  20.992   0.212
66669W        W33210  42.783  39.975   3.265
66670W        W33211  29.054   2.358  13.041
66671W        W33212  21.570  37.016   0.267
66672W        W33213  22.245  21.721  13.243
66673W        W33214  34.988   9.377  12.958
66674W        W33215  28.925   2.495   2.716
66675W        W33216  14.703  43.969  13.436
66676W        W33217  17.826  14.216   2.251
66677W        W33218  32.595  33.860  13.923
66678W        W33219  38.462  16.096   0.024
66679W        W33220  27.018  43.002   0.404
66680W        W33221  14.666  16.319  12.120
66681W        W33222  40.987  32.480   2.015
66682W        W33223  42.803  42.512   3.261
66683W        W33224   1.704   0.660   0.927
66684W        W33225  17.178   3.253   3.481
66685W        W33226  30.447   1.456  14.507
66686W        W33227   3.317  20.935   4.744
66687W        W33228  25.079   3.478   4.807
66688W        W33229  32.438  10.134   3.596
66689W        W33230  33.994   4.296   1.892
66690W        W33231  27.587   7.145  10.840
66691W        W33232  37.983   4.117   4.243
66692W        W33233   4.324   2.512   3.785
66693W        W33234  23.533  35.292   4.210
66694W        W33235  24.925   2.793   0.400
66695W        W33236  14.019  38.522   1.792
66696W        W33237  10.851  16.531   2.093
66697W        W33238  34.070   0.982   0.473
66698W        W33239  24.161  35.388   2.222
66699W        W33240   3.237  11.769   1.807
66700W        W33241   0.613  14.264  13.054
66701W        W33242   2.368  14.654   5.025
66702W        W33243  39.968  39.883  13.779
66703W        W33244  43.401  33.703   3.588
66704W        W33245  36.511  36.430  13.527
66705W        W33246   1.910  20.906  10.661
66706W        W33247  25.631  13.160   1.309
66707W        W33248  40.010   0.831   1.912
66708W        W33249  35.114  15.562   0.748
66709W        W33250  42.073   4.983  13.080
66710W        W33251   4.567  21.227  13.927
66711W        W33252  27.573  19.522  11.676
66712W        W33253  23.055  23.683   0.770
66713W        W33254   3.221  27.738  13.557
66714W        W33255  36.979  36.665  13.428
66715W        W33256  39.285  43.966   3.798
66716W        W33257   8.544   1.753   1.761
66717W        W33258   3.504   8.370   1.267
66718W        W33259  24.114   0.076   1.616
66719W        W33260  24.414  30.043   0.790
66720W        W33261  10.835   6.646  13.567
66721W        W33262   3.854  17.860  11.625
66722W        W33263  27.761  35.549  11.993
66723W        W33264  11.850  12.962   2.774
66724W        W33265  27.699  44.207   2.470
66725W        W33266  16.314  21.318  10.738
66726W        W33267   9.875  28.532  10.760
66727W        W33268   7.217   8.174   4.076
66728W        W33269   7.965  16.965   4.110
66729W        W33270  17.982  37.767   0.761
66730W        W33271   6.572  11.831  14.378
66731W        W33272  29.938  35.101   3.434
66732W        W33273   0.208  18.082  10.863
66733W        W33274  35.202  33.265   2.659
66734W        W33275   3.759  20.994   0.094
66735W        W33276   3.415  29.600  12.035
66736W        W33277  18.569   5.589  13.679
66737W        W33278  29.746  15.640  14.449
66738W        W33279  31.205   7.720  13.426
66739W        W33280   9.646  27.927  12.671
66740W        W33281  14.687  13.229   0.734
66741W        W33282  38.170  33.117  13.446
66742W        W33283  43.517  43.801   4.191
66743W        W33284  34.650  19.793   0.860
66744W        W33285   9.401  28.966   1.079
66745W        W33286  12.188   2.214   0.855
66746W        W33287  30.994   2.908   4.275
66747W        W33288   6.954  35.803  12.761
66748W        W33289  40.189  44.740   4.221
66749W        W33290  25.985   3.622   5.076
66750W        W33291  31.150  15.822   3.807
66751W        W33292  29.087  19.536  10.144
66752W        W33293  15.147  12.124  13.616
66753W        W33294   9.877  26.890   3.747
66754W        W33295  43.980   3.443   3.592
66755W        W33296  36.032   1.239   2.476
66756W        W33297  21.188  10.608  12.192
66757W        W33298  38.519  15.187  14.930
66758W        W33299  12.959  40.285   2.274
66759W        W33300   0.076  34.359  14.398
66760W        W33301   5.304  18.397   4.475
66761W        W33302  32.607  17.336  14.389
66762W        W33303  38.975   9.369  12.582
66763W        W33304  22.676  40.040  11.528
66764W        W33305  36.066  26.969   2.637
66765W        W33306  17.677  18.702   4.565
66766W        W33307  19.986  31.900  10.887
66767W        W33308  17.661  29.345   1.853
66768W        W33309  10.194  41.007   1.395
66769W        W33310   9.697  19.697  14.294
66770W        W33311  40.361  18.343   4.110
66771W        W33312   9.940   8.706   2.185
66772W        W33313  15.835  13.323  13.338
66773W        W33314   0.638  19.678  12.488
66774W        W33315   8.560  27.158   0.329
66775W        W33316  11.362   8.754   0.908
66776W        W33317  25.536  44.027  12.704
66777W        W33318  15.095  29.402  11.081
66778W        W33319  15.679   3.438  14.448
66779W        W33320  18.875   4.960   1.838
66780W        W33321  14.279  26.035  12.372
66781W        W33322   2.294  39.320  13.433
66782W        W33323  31.440  13.241  12.098
66783W        W33324   2.785  34.531   3.178
66784W        W33325  43.791  13.090   2.598
66785W        W33326  29.002  18.386   1.411
66786W        W33327   6.616  22.163  12.542
66787W        W33328  25.930  30.827  10.626
66788W        W33329   6.839  36.373   1.484
66789W        W33330  32.778   1.164  11.887
66790W        W33331  22.339  30.468   2.461
66791W        W33332  43.295  16.639  13.434
66792W        W33333  39.452  44.702   3.020
66793W        W33334   3.531  37.056   4.956
66794W        W33335  39.891  16.322  10.599
66795W        W33336  42.112  41.189  11.514
66796W        W33337  21.655  20.600   4.238
66797W        W33338  28.890  35.079  13.861
66798W        W33339  14.622  33.866  14.973
66799W        W33340  32.007   8.768   3.405
66800W        W33341  29.577   4.777   3.642
66801W        W33342  31.367  30.871  14.951
66802W        W33343  24.416   1.092  14.692
66803W        W33344  31.360  19.955   2.779
66804W        W33345  17.191  23.635  13.420
66805W        W33346  26.570  23.733   3.714
66806W        W33347   0.895  22.048   0.042
66807W        W33348  37.334  34.839   5.071
66808W        W33349  26.196   7.883   0.882
66809W        W33350   9.227  16.199  13.402
66810W        W33351  30.959  37.633   0.481
66811W        W33352  17.384  12.130   1.481
66812W        W33353  38.057  34.535  11.644
66813W        W33354  33.013  26.230   2.432
66814W        W33355   5.518  27.424  14.890
66815W        W33356  39.551  29.689   3.406
66816W        W33357  30.119  14.685  13.918
66817W        W33358  18.077   2.821   0.271
66818W        W33359  33.206  25.957   2.846
66819W        W33360  36.921   1.300  12.081
66820W        W33361  43.789   5.463  12.475
66821W        W33362   5.143  20.591   1.685
66822W        W33363   2.584  38.457  13.377
66823W        W33364  10.773  22.028  14.840
66824W        W33365  11.338  28.846   3.148
66825W        W33366  17.550   0.351   3.825
66826W        W33367  34.365  30.031  11.227
66827W        W33368  41.145   6.372   2.150
66828W        W33369   7.150   1.758   1.146
66829W        W33370  40.757  15.369  12.934
66830W        W33371   4.805  15.122   2.474
66831W        W33372  41.472  28.063   0.551
66832W        W33373  12.531  32.019   3.188
66833W        W33374  31.307  14.736   1.885
66834W        W33375  43.199   2.450  11.693
66835W        W33376  40.352  23.926   1.320
66836W        W33377  28.872  23.003   2.230
66837W        W33378  23.786  13.860   0.693
66838W        W33379  17.851  39.870  14.264
66839W        W33380  33.836  40.245  11.911
66840W        W33381  41.012  12.717  12.089
66841W        W33382  40.109   9.560  11.124
66842W        W33383  38.471  12.217   1.192
66843W        W33384   5.416  17.208   0.197
66844W        W33385  13.228  24.078   0.789
66845W        W33386  40.467  18.470  14.667
66846W        W33387  24.474   8.904  12.980
66847W        W33388   6.612   7.298  11.172
66848W        W33389  16.632  10.703  12.585
66849W        W33390  27.654  38.165   4.213
66850W        W33391  28.013  10.667  11.545
66851W        W33392  22.059  10.856  14.556
66852W        W33393   5.200  11.764  10.708
66853W        W33394  26.611  29.150  10.620
66854W        W33395   6.931  18.101  11.281
66855W        W33396  22.702  14.659   2.289
66856W        W33397  25.662   4.675   4.497
66857W        W33398  21.770  34.109  10.499
66858W        W33399  30.047  25.508   0.469
66859W        W33400   7.598  34.202   0.251
66860W        W33401  28.146   6.954  11.181
66861W        W33402  44.352  14.849  13.386
66862W        W33403  41.476  15.597   0.390
66863W        W33404  33.694   5.378   1.244
66864W        W33405  31.002  10.773   2.723
66865W        W33406  30.118  24.270  14.923
66866W        W33407   4.819  44.241   2.161
66867W        W33408   5.263   1.164   2.828
66868W        W33409  44.344  29.341  10.767
66869W        W33410  16.766   9.408   1.028
66870W        W33411  10.079  21.368   1.903
66871W        W33412  17.436  31.906   2.785
66872W        W33413  44.022   1.473   2.657
66873W        W33414  31.993  18.031  12.448
66874W        W33415  44.949  40.009  12.420
66875W        W33416  22.623   2.222   4.575
66876W        W33417  29.024  35.662  11.161
66877W        W33418  30.506  27.062   0.353
66878W        W33419  32.451   3.385   3.705
66879W        W33420  39.855   6.725   2.114
66880W        W33421  16.353  13.830  14.012
66881W        W33422   5.665  12.972   4.077
66882W        W33423   3.665  18.311   0.738
66883W        W33424  28.055  44.448   1.060
66884W        W33425  17.756   1.027  14.445
66885W        W33426  27.659  21.990   3.902
66886W        W33427  18.472   9.660  12.087
66887W        W33428  32.015  42.590  13.054
66888W        W33429  23.688  37.159   2.666
66889W        W33430   8.169   9.236  14.874
66890W        W33431  11.439  16.383  14.985
66891W        W33432  15.805  35.286  12.444
66892W        W33433  28.908  26.856   0.270
66893W        W33434  29.331  32.807  12.061
66894W        W33435  37.798  35.059   3.808
66895W        W33436  24.210   0.217   0.436
66896W        W33437  30.505  20.106  12.046
66897W        W33438  22.993  38.801   3.643
66898W        W33439  20.359  41.380  11.559
66899W        W33440  23.460  20.142   1.422
66900W        W33441  12.287  36.176  12.977
66901W        W33442   5.702  42.494   0.023
66902W        W33443  20.942  23.652  13.800
66903W        W33444  30.731   7.257   1.778
66904W        W33445  15.383  37.721  10.255
66905W        W33446  41.826  15.911   1.605
66906W        W33447  36.569  23.391   1.758
66907W        W33448  11.057  17.535  12.297
66908W        W33449  15.997  22.473  13.038
66909W        W33450  32.877  24.985  10.858
66910W        W33451  43.069  14.074  14.929
66911W        W33452  22.017  22.823  14.390
66912W        W33453  26.154  22.578   1.873
66913W        W33454  41.883  38.507  14.142
66914W        W33455  30.685  12.927   2.292
66915W        W33456  43.823  28.689   2.382
66916W        W33457  15.658  20.251   3.774
66917W        W33458  22.719  27.948   2.387
66918W        W33459  36.696  32.600  13.961
66919W        W33460   5.685  18.742  14.326
66920W        W33461  19.938   5.867  13.380
66921W        W33462  26.965   1.002  13.828
66922W        W33463  38.622  35.410  14.735
66923W        W33464  37.539  40.999  12.856
66924W        W33465   9.172  23.470  14.026
66925W        W33466  20.057  26.287  12.882
66926W        W33467   8.915  39.468   1.144
66927W        W33468  31.432  44.822  12.341
66928W        W33469  25.492   1.497   1.725
66929W        W33470  25.225  36.397   2.443
66930W        W33471   7.693  41.893   4.507
66931W        W33472  26.333  21.781   2.436
66932W        W33473  40.021  14.975   1.487
66933W        W33474   2.734  15.099  13.830
66934W        W33475   2.829  40.830   4.708
66935W        W33476  36.834  26.653  14.867
66936W        W33477  35.319  36.112  10.445
66937W        W33478  24.135  39.385  10.810
66938W        W33479  14.202  17.825  10.494
66939W        W33480   6.270   2.224  12.845
66940W        W33481  41.730  40.596  10.283
66941W        W33482   5.775  35.436  12.873
66942W        W33483  21.038   5.002  10.043
66943W        W33484   5.222  35.569  14.247
66944W        W33485   0.499  39.743  11.666
66945W        W33486  28.023   9.912  14.768
66946W        W33487   3.431  28.553  12.966
66947W        W33488  43.376  38.901  13.019
66948W        W33489  36.893  19.750  13.828
66949W        W33490  27.124  17.262   1.724
66950W        W33491   1.760  44.469  13.848
66951W        W33492  20.553   1.997   2.183
66952W        W33493   0.717  12.743   4.581
66953W        W33494   8.738  22.583  14.804
66954W        W33495  33.623  35.383  14.525
66955W        W33496  31.024  31.572  10.800
66956W        W33497  30.932  39.488  12.889
66957W        W33498  16.125  42.312   0.740
66958W        W33499   1.942  21.220  12.098
66959W        W33500   5.497   9.756   3.748
66960W        W33501  12.835  24.185  11.229
66961W        W33502  36.793  40.292   3.422
66962W        W33503  15.259  10.742  11.186
66963W        W33504  32.899  16.207   3.651
66964W        W33505   0.811   4.143  12.895
66965W        W33506  43.061  23.133  10.721
66966W        W33507  19.763   2.973   3.750
66967W        W33508  33.134  15.105  11.460
66968W        W33509  13.014  44.565   1.980
66969W        W33510  17.593  30.524  14.854
66970W        W33511  38.135  31.629  10.694
66971W        W33512  32.921  23.172  12.888
66972W        W33513  26.107  23.872   3.574
66973W        W33514  43.439  23.982  10.518
66974W        W33515  20.997   5.292   1.183
66975W        W33516  30.357  19.125   0.431
66976W        W33517   3.095  25.882   1.434
66977W        W33518  10.384  38.151   4.474
66978W        W33519  12.948  17.705  12.063
66979W        W33520  15.144   0.269   1.462
66980W        W33521   2.685  13.645  11.737
66981W        W33522  28.461  12.148  13.531
66982W        W33523  13.633  42.736   0.804
66983W        W33524   6.273  39.395   3.311
66984W        W33525  31.660  44.267   0.356
66985W        W33526   0.453  25.252   1.995
66986W        W33527  35.642  29.383   0.392
66987W        W33528   9.913  33.562   1.754
66988W        W33529  16.750   2.257   4.514
66989W        W33530  31.671  31.484   2.041
66990W        W33531  39.962  23.912  12.936
66991W        W33532  10.983  14.805   3.728
66992W        W33533  19.260  11.982   3.259
66993W        W33534  28.952   2.743   2.257
66994W        W33535   7.950  41.068  12.587
66995W        W33536  35.027   8.158  10.925
66996W        W33537  25.207  18.064  12.422
66997W        W33538  29.478  37.267   5.073
66998W        W33539   1.863  10.291   2.587
66999W        W33540   3.618   9.730   0.832
67000W        W33541  35.932   2.312  11.679
67001W        W33542  25.659   4.335   3.524
67002W        W33543  12.661  17.009   4.717
67003W        W33544  40.437  39.743   0.962
67004W        W33545  32.748  35.929   1.696
67005W        W33546  35.523  12.603   3.457
67006W        W33547  23.235  12.549   0.398
67007W        W33548  32.636  29.685  13.812
67008W        W33549  17.461  21.722  11.450
67009W        W33550   8.337  43.952  11.910
67010W        W33551   6.479  40.263  10.332
67011W        W33552  25.129  14.050  11.721
67012W        W33553   4.517  38.018   0.711
67013W        W33554  25.797  11.137  14.212
67014W        W33555  15.152  14.876  12.972
67015W        W33556   3.314   8.837  10.593
67016W        W33557  39.749  44.035   4.102
67017W        W33558  17.706  41.469  13.754
67018W        W33559  35.785  17.320   3.308
67019W        W33560   6.609  36.630  13.903
67020W        W33561  21.896  26.938   1.056
67021W        W33562  37.806   8.586  10.214
67022W        W33563  27.249  16.782  12.093
67023W        W33564  43.783  22.061  14.969
67024W        W33565   8.341   7.287   2.719
67025W        W33566  26.925  41.790   0.020
67026W        W33567  34.067  26.055   3.330
67027W        W33568  34.014  31.198  10.431
67028W        W33569  32.196  37.072  11.944
67029W        W33570  15.381  19.007  12.410
67030W        W33571  13.603  13.338  13.033
67031W        W33572  19.692  19.262  14.349
67032W        W33573  27.303  21.396  14.927
67033W        W33574  27.761  38.987  11.877
67034W        W33575  17.891  14.214  14.867
67035W        W33576  11.438  27.583  14.380
67036W        W33577   1.358  13.799   1.979
67037W        W33578  44.274  37.872   1.265
67038W        W33579  24.898  32.150   1.261
67039W        W33580  42.928  42.523  14.720
67040W        W33581  42.049  32.060   3.860
67041W        W33582  37.020  43.450  13.342
67042W        W33583  42.303  28.141  11.613
67043W        W33584  41.943  29.967  13.499
67044W        W33585  31.016  19.745   2.478
67045W        W33586  19.454  14.287  13.261
67046W        W33587  42.110   8.502  14.379
67047W        W33588  36.046  17.693  12.874
67048W        W33589  22.465   8.134   3.399
67049W        W33590  15.133  19.655  11.954
67050W        W33591  23.630  22.927   2.436
67051W        W33592  36.384  33.548  14.829
67052W        W33593  31.758   0.286   0.453
67053W        W33594  25.788   4.725   0.968
67054W        W33595   9.433  38.404   0.401
67055W        W33596  15.200  20.741   3.043
67056W        W33597  36.289  36.489  14.484
67057W        W33598  33.160  26.699  12.667
67058W        W33599  29.121  26.509  11.738
67059W        W33600   5.249  16.891  11.924
67060W        W33601  17.050  27.611  11.258
67061W        W33602   9.300  28.184  12.351
67062W        W33603  34.336  14.725  11.632
67063W        W33604  31.182  43.814   3.783
67064W        W33605  12.193  21.790  13.128
67065W        W33606  16.626  25.069  11.058
67066W        W33607  27.996  11.292   0.226
67067W        W33608   5.444   9.537   0.806
67068W        W33609  25.696  24.032   0.907
67069W        W33610  16.195  24.556  13.331
67070W        W33611   2.273  10.339   4.582
67071W        W33612  19.340  21.584   3.215
67072W        W33613   5.362  36.929   1.418
67073W        W33614  40.098   6.646   0.690
67074W        W33615  21.177  12.875   1.804
67075W        W33616  23.539   9.465  12.958
67076W        W33617  22.287   1.780  12.962
67077W        W33618  23.460  26.577  12.265
67078W        W33619  16.094   6.749   3.690
67079W        W33620  16.483  35.698  11.532
67080W        W33621  12.227  42.361   2.688
67081W        W33622  23.009  20.985  13.962
67082W        W33623  26.207   0.542  11.615
67083W        W33624  21.212  35.973   2.679
67084W        W33625  43.442   9.769  11.935
67085W        W33626  13.686  24.493  13.409
67086W        W33627  18.528  14.385   2.815
67087W        W33628   6.137  32.955   0.308
67088W        W33629  12.928   8.723   1.709
67089W        W33630  33.690  35.376  13.423
67090W        W33631  19.494   4.701   2.349
67091W        W33632  23.032   3.722   2.008
67092W        W33633  41.009  39.864   3.100
67093W        W33634  38.664  25.776  11.839
67094W        W33635  40.429  35.639  12.000
67095W        W33636  40.926  42.584   4.066
67096W        W33637  34.151  15.102  12.708
67097W        W33638  21.710  33.138   3.281
67098W        W33639  23.019   6.471   3.676
67099W        W33640  38.071  12.601  12.433
67100W        W33641   8.879  41.883   0.387
67101W        W33642  33.120  11.841  11.494
67102W        W33643  32.564  26.720  12.064
67103W        W33644  18.824  41.337  14.889
67104W        W33645  35.597  18.861   3.190
67105W        W33646  32.823  14.194  13.782
67106W        W33647  34.955  41.304   1.850
67107W        W33648  40.061  36.973  11.001
67108W        W33649   0.835  28.835  12.516
67109W        W33650  25.738  13.705  12.360
67110W        W33651  37.363  39.093   0.901
67111W        W33652  31.615  20.576  14.754
67112W        W33653  39.196  17.463  14.642
67113W        W33654   9.901  22.702  10.616
67114W        W33655  33.280  28.905  13.832
67115W        W33656   6.805  18.013  10.769
67116W        W33657  10.947  33.913  11.530
67117W        W33658  18.031  30.396  13.562
67118W        W33659  12.891  11.560   2.870
67119W        W33660  16.620  19.769   1.757
67120W        W33661  42.309  18.480   4.116
67121W        W33662  41.059  23.055  10.476
67122W        W33663  13.460  22.866  11.096
67123W        W33664   4.730  22.016   1.768
67124W        W33665  17.501   5.418   0.743
67125W        W33666   1.732  21.420  11.502
67126W        W33667   0.346   6.294  11.201
67127W        W33668  44.022   6.635   4.325
67128W        W33669  39.890  33.670  10.487
67129W        W33670  11.782  21.176   1.664
67130W        W33671  20.550  18.489   2.260
67131W        W33672  18.194   1.531   3.276
67132W        W33673  31.207  43.044  14.481
67133W        W33674   2.554  30.098   3.175
67134W        W33675   2.724   5.085  11.867
67135W        W33676  10.751  18.028   3.303
67136W        W33677  22.102  20.689   4.481
67137W        W33678  37.082   1.861   1.775
67138W        W33679  21.863  15.227  12.299
67139W        W33680  44.243  22.904   2.389
67140W        W33681  11.908  41.534  13.851
67141W        W33682  30.865   8.667  13.451
67142W        W33683  14.529  11.225   0.355
67143W        W33684  32.578   2.433  13.044
67144W        W33685  24.258   5.911  12.039
67145W        W33686  23.178  30.807   0.413
67146W        W33687  33.663  25.823   2.466
67147W        W33688  22.496   2.395  11.180
67148W        W33689  33.563   8.689   2.262
67149W        W33690  23.187  10.321   1.975
67150W        W33691  25.587  26.499  12.636
67151W        W33692  25.332  26.049  12.896
67152W        W33693  11.614  18.123  11.137
67153W        W33694  14.401  42.868  12.133
67154W        W33695  25.706  38.606   4.353
67155W        W33696  20.838  39.983   4.600
67156W        W33697  21.810   6.368   1.772
67157W        W33698   1.797  21.947  11.517
67158W        W33699  35.116  29.114  11.798
67159W        W33700  42.030   5.464   2.843
67160W        W33701  20.585  37.191  12.660
67161W        W33702  34.952  17.814  10.565
67162W        W33703  37.575  43.966   1.176
67163W        W33704  10.342   5.880  13.066
67164W        W33705  34.502  23.175   4.685
67165W        W33706  27.126  39.941  11.099
67166W        W33707  37.971  24.903  11.161
67167W        W33708  44.913   6.188  12.511
67168W        W33709  19.019  16.824   3.742
67169W        W33710  30.705   5.579   0.517
67170W        W33711  14.753  32.668  12.957
67171W        W33712  14.880  34.026  13.442
67172W        W33713  13.071  10.331   1.862
67173W        W33714  36.968  14.564   1.804
67174W        W33715  23.585  24.478   3.660
67175W        W33716   5.392  34.628   2.249
67176W        W33717  27.913   7.955  14.375
67177W        W33718   6.805   8.343   0.814
67178W        W33719   0.277  35.428  12.785
67179W        W33720  16.651  43.353   3.313
67180W        W33721  13.290  42.776   3.974
67181W        W33722   7.983  35.637  12.505
67182W        W33723  43.999  23.978   4.282
67183W        W33724   8.676  13.849  14.866
67184W        W33725  37.916  14.542  13.491
67185W        W33726  38.504  13.348   0.283
67186W        W33727   4.391  36.300  13.837
67187W        W33728  31.119   2.815   4.889
67188W        W33729  12.594  15.645   2.180
67189W        W33730  19.171  32.738  12.916
67190W        W33731  41.136   5.882   0.964
67191W        W33732   7.391  15.494   2.315
67192W        W33733  25.194   6.888  13.900
67193W        W33734  20.785  35.518   0.921
67194W        W33735  32.017  35.962  14.027
67195W        W33736   4.757  17.234  10.712
67196W        W33737  19.898  33.149  12.593
67197W        W33738   6.824  39.607   2.331
67198W        W33739  30.809  41.405  13.904
67199W        W33740  16.397  26.655  11.924
67200W        W33741  37.101  39.383   3.424
67201W        W33742  15.475  34.247   4.085
67202W        W33743  22.006   2.960  13.841
67203W        W33744  19.102  25.663  12.335
67204W        W33745  15.007  14.188  11.560
67205W        W33746  12.130  39.562   3.649
67206W        W33747  15.314   8.761   3.344
67207W        W33748  35.432  19.367  14.738
67208W        W33749  32.839  10.418   4.543
67209W        W33750  14.554  12.807  14.997
67210W        W33751  16.462  31.981  14.860
67211W        W33752  29.541  35.883  12.197
67212W        W33753  19.126  14.056  12.412
67213W        W33754  13.692  41.338  13.879
67214W        W33755  34.374  17.792   2.748
67215W        W33756   1.563   4.774  10.548
67216W        W33757  33.093   8.659   4.117
67217W        W33758  38.676  12.901   1.930
67218W        W33759  23.207  23.499   1.743
67219W        W33760   2.877   1.850  14.375
67220W        W33761  11.364  44.343  13.480
67221W        W33762  22.014  11.165   4.752
67222W        W33763  13.634  16.305   1.888
67223W        W33764  20.086   3.789   0.216
67224W        W33765  27.601  40.974  14.736
67225W        W33766  17.737  31.195   1.165
67226W        W33767   5.934  10.737  12.007
67227W        W33768  16.061  39.098   4.496
67228W        W33769  30.465  17.295   4.155
67229W        W33770  36.447  21.650  14.719
67230W        W33771  31.015   5.846   1.358
67231W        W33772  14.387  11.665   0.099
67232W        W33773  39.304  20.495  14.883
67233W        W33774  33.918  39.110   3.349
67234W        W33775   2.007   9.718  11.570
67235W        W33776   8.849  25.586  13.882
67236W        W33777  19.729  35.753   2.224
67237W        W33778  35.374  15.237   2.453
67238W        W33779  13.637   4.282  14.012
67239W        W33780  39.793  13.839  11.514
67240W        W33781  29.488  26.941  12.559
67241W        W33782   2.940  21.273   4.972
67242W        W33783   1.832  38.144   2.838
67243W        W33784   3.798  36.894  14.670
67244W        W33785   0.057  22.225  10.665
67245W        W33786   3.799   6.532   1.295
67246W        W33787  16.083   8.003   4.006
67247W        W33788  27.872  38.464   0.205
67248W        W33789  30.675  41.213   0.947
67249W        W33790  30.900  13.643   3.257
67250W        W33791  27.561  38.600   2.209
67251W        W33792   9.670  36.956  11.169
67252W        W33793  38.489  20.274  13.012
67253W        W33794  31.068  36.620   1.423
67254W        W33795  16.331  24.576  14.570
67255W        W33796   7.219  29.417  11.171
67256W        W33797  27.143  42.270   0.894
67257W        W33798  13.682  13.762   1.553
67258W        W33799  20.395  18.833  12.527
67259W        W33800  18.774  28.163   4.515
67260W        W33801  38.818  15.236  13.029
67261W        W33802  24.682   3.310   0.449
67262W        W33803  21.158  15.772   4.533
67263W        W33804  21.956   3.435   4.618
67264W        W33805  36.048  21.520  10.483
67265W        W33806  19.018  15.568  14.552
67266W        W33807  36.194  13.717   2.432
67267W        W33808  41.538  28.253   1.561
67268W        W33809  29.593  12.783  13.757
67269W        W33810  38.490  30.483  13.746
67270W        W33811  14.286   4.864  12.846
67271W        W33812  39.782   8.657  12.465
67272W        W33813  26.659  35.343  12.597
67273W        W33814  43.420  34.372   2.166
67274W        W33815  11.361  18.230  13.372
67275W        W33816   0.868  24.534   1.801
67276W        W33817  43.455  17.654  13.479
67277W        W33818  24.312  36.993   1.203
67278W        W33819  20.710  11.698  14.315
67279W        W33820  14.534   9.416   1.709
67280W        W33821  12.147  12.891  12.045
67281W        W33822  19.789  24.989  12.515
67282W        W33823  38.317   9.857   4.277
67283W        W33824  18.220  27.629   4.477
67284W        W33825  23.707  28.341   9.869
67285W        W33826  40.135   3.771   0.813
67286W        W33827  29.561  35.092  14.673
67287W        W33828  34.429   6.651  11.964
67288W        W33829  14.119  44.321  13.442
67289W        W33830  17.264  21.424  14.361
67290W        W33831  33.078  37.568  14.823
67291W        W33832  15.506  19.433   4.201
67292W        W33833  37.596   6.263   1.692
67293W        W33834  40.966  43.869  10.902
67294W        W33835  42.024  42.779   1.362
67295W        W33836  11.774  30.516  14.820
67296W        W33837  10.232  14.322  11.105
67297W        W33838   9.521  33.575   0.776
67298W        W33839   3.888  10.981   2.814
67299W        W33840  14.773  44.944  11.036
67300W        W33841   1.121   4.236  13.496
67301W        W33842  25.018  35.952   1.155
67302W        W33843  11.170  12.591   3.802
67303W        W33844  41.018   5.759  14.291
67304W        W33845  15.851  29.703  12.045
67305W        W33846  31.304  24.524   1.341
67306W        W33847  19.633  13.688   4.011
67307W        W33848  39.759  33.370  14.040
67308W        W33849  12.675  13.636  11.215
67309W        W33850  24.748  30.980   0.747
67310W        W33851  36.423   2.801   3.490
67311W        W33852  12.668  41.833  11.926
67312W        W33853  39.364  37.075  13.476
67313W        W33854  41.624  32.121   4.178
67314W        W33855  41.689  22.603   2.605
67315W        W33856   7.360  40.466   3.700
67316W        W33857  22.044  22.543  11.998
67317W        W33858  34.393  25.417  10.716
67318W        W33859  10.198  12.916  11.051
67319W        W33860  26.155  43.779   0.777
67320W        W33861   7.443  28.523   2.544
67321W        W33862  33.966  19.617  12.063
67322W        W33863  29.827  29.454  14.781
67323W        W33864  38.318  16.307   4.842
67324W        W33865   4.910   0.958  12.575
67325W        W33866  24.894  10.322   1.128
67326W        W33867  17.314  17.142  11.652
67327W        W33868  38.941   7.493  12.501
67328W        W33869   3.607  10.230   0.697
67329W        W33870  21.314  33.068   2.476
67330W        W33871  44.855   8.689  13.472
67331W        W33872  40.969  38.535   1.108
67332W        W33873  37.234  18.182  10.322
67333W        W33874   9.568  25.267  11.157
67334W        W33875  21.225  40.947   2.680
67335W        W33876  32.536  35.781   3.538
67336W        W33877   5.909  24.170   3.285
67337W        W33878   1.810  33.428  12.058
67338W        W33879   1.236  20.189  12.389
67339W        W33880  36.100  11.822  11.100
67340W        W33881  14.107  24.060  11.120
67341W        W33882  11.476  23.794  12.129
67342W        W33883  36.204  30.832  11.220
67343W        W33884  41.546  29.442   3.834
67344W        W33885   2.305  17.762   2.165
67345W        W33886  29.025  25.545   2.312
67346W        W33887  19.609  24.001   0.033
67347W        W33888  11.807  26.285  12.470
67348W        W33889  15.757   2.902  13.160
67349W        W33890  19.960  22.532  12.129
67350W        W33891   3.996  14.404  10.394
67351W        W33892  15.763   8.853  12.461
67352W        W33893  11.185  20.738   0.399
67353W        W33894  29.515  43.705  14.943
67354W        W33895   1.726  28.104   1.761
67355W        W33896  42.169   7.332  10.220
67356W        W33897  41.835  36.300  12.454
67357W        W33898  29.718  12.241  13.045
67358W        W33899  13.172  35.935  11.675
67359W        W33900   7.698  10.902  12.188
67360W        W33901  36.510   8.447   1.770
67361W        W33902  29.509  12.305  14.536
67362W        W33903  24.045  35.731   0.888
67363W        W33904  35.329  12.069  14.217
67364W        W33905  21.291  34.845   3.662
67365W        W33906  27.746  38.314   2.601
67366W        W33907  31.602  25.543  10.626
67367W        W33908  14.344  41.445  13.260
67368W        W33909   2.423  44.456  12.448
67369W        W33910   7.023  27.977  12.569
67370W        W33911  22.306  43.282  14.876
67371W        W33912   0.510  44.621   0.940
67372W        W33913   7.951  21.877   1.034
67373W        W33914  34.801  21.167  13.424
67374W        W33915  43.015  36.771   4.293
67375W        W33916  34.051  39.580  14.044
67376W        W33917  32.457  20.992   1.313
67377W        W33918  36.594   7.915  11.438
67378W        W33919  18.196  25.582   3.746
67379W        W33920   8.475  16.651   4.906
67380W        W33921  28.764  13.436   9.885
67381W        W33922  26.643   4.302  14.084
67382W        W33923  30.249  12.444  11.366
67383W        W33924  21.239  26.729  13.770
67384W        W33925  10.457  14.298  10.647
67385W        W33926  36.951   5.869   0.073
67386W        W33927  18.703  38.868   4.492
67387W        W33928  37.125  21.196   3.167
67388W        W33929  24.577  23.612  10.470
67389W        W33930   5.413  14.170   0.504
67390W        W33931  17.036  16.747  12.148
67391W        W33932  22.086  20.484  10.983
67392W        W33933   7.944  32.818   3.991
67393W        W33934  42.952  33.677   4.763
67394W        W33935  31.435  33.965  13.713
67395W        W33936  15.734  11.582  14.965
67396W        W33937  39.733  32.697  12.464
67397W        W33938  32.934  33.066  14.967
67398W        W33939  40.536   5.668  13.448
67399W        W33940  36.495  27.153   2.415
67400W        W33941  40.263   0.939  13.435
67401W        W33942  20.574  17.643  11.919
67402W        W33943  36.097  19.309  14.825
67403W        W33944   2.621   1.994  14.829
67404W        W33945  15.833  36.423   1.644
67405W        W33946   7.675   1.979   2.362
67406W        W33947  33.926  20.144  10.365
67407W        W33948   4.851  39.923   3.858
67408W        W33949  22.671  23.554   0.013
67409W        W33950  16.156   2.480  11.218
67410W        W33951  32.596   7.629   3.719
67411W        W33952  41.121  28.070   4.583
67412W        W33953  43.447  32.476   2.054
67413W        W33954  16.022   9.339   3.762
67414W        W33955  19.777  25.448  10.446
67415W        W33956  39.803  18.180   0.058
67416W        W33957  16.707  20.588   4.132
67417W        W33958  31.172  25.144  12.005
67418W        W33959  17.197  10.585   3.700
67419W        W33960  32.102  41.152  12.927
67420W        W33961  30.489  35.314  12.084
67421W        W33962   8.827  26.243   2.258
67422W        W33963  28.282  30.003  12.954
67423W        W33964  20.194  11.357  12.997
67424W        W33965  39.083  18.156   3.651
67425W        W33966   0.205  28.540  13.395
67426W        W33967  11.912  26.789  12.457
67427W        W33968  37.903  10.740  11.538
67428W        W33969  19.119   9.311  12.850
67429W        W33970  36.978  24.025  10.696
67430W        W33971  24.434  41.115  14.493
67431W        W33972  16.279  37.568   1.346
67432W        W33973   4.911  43.678  14.501
67433W        W33974  39.563   6.629   0.750
67434W        W33975  25.964   2.624   3.652
67435W        W33976  21.720  39.166   1.712
67436W        W33977   5.233  43.363  14.217
67437W        W33978  16.118  23.563   4.815
67438W        W33979  21.778  44.232  14.476
67439W        W33980  21.647  13.806  12.867
67440W        W33981  20.605  44.210   4.560
67441W        W33982  33.350  26.961  13.086
67442W        W33983  44.763  12.513   0.847
67443W        W33984  34.554  22.018  12.873
67444W        W33985  14.306  25.561   2.696
67445W        W33986  22.710  36.129  10.514
67446W        W33987  40.619  25.267   0.489
67447W        W33988  38.045  29.929   4.604
67448W        W33989  12.739  32.622  11.991
67449W        W33990  15.359  29.157   9.854
67450W        W33991   6.927  10.185  14.785
67451W        W33992   2.842  18.040   2.697
67452W        W33993  13.598  30.949   0.810
67453W        W33994  20.158  19.222   2.215
67454W        W33995  29.933  10.964   1.921
67455W        W33996   6.283  19.806   4.174
67456W        W33997  33.534  43.987   0.874
67457W        W33998  31.494  15.707   0.382
67458W        W33999  35.052  12.354   0.158
67459W        W34000   2.547   0.852   3.741
67460W        W34001  23.134   3.477  12.801
67461W        W34002  20.760  26.007  11.210
67462W        W34003  28.590   4.464  11.072
67463W        W34004  31.862   9.709   2.698
67464W        W34005  20.139  11.911  14.799
67465W        W34006  31.864  30.010   0.435
67466W        W34007  41.470   6.234   3.260
67467W        W34008  17.439  17.823  12.560
67468W        W34009  21.074  15.381  10.130
67469W        W34010  28.565  30.882   3.177
67470W        W34011   4.680  16.146   3.138
67471W        W34012  27.675  35.805   1.505
67472W        W34013  33.133  41.941  13.361
67473W        W34014  35.004   4.243   0.904
67474W        W34015   3.887  20.829  14.310
67475W        W34016  16.303  44.786  11.922
67476W        W34017  41.526   7.003  11.568
67477W        W34018  12.640  37.583   2.280
67478W        W34019   1.484   8.276  14.987
67479W        W34020   3.834  23.627   0.157
67480W        W34021  39.576   0.012   2.610
67481W        W34022  15.812  27.205  14.911
67482W        W34023  44.237  38.361  12.889
67483W        W34024  41.272  29.645   1.011
67484W        W34025  17.813  25.535   4.087
67485W        W34026  10.781  40.297  14.346
67486W        W34027  29.052  16.271   3.934
67487W        W34028  31.887  32.849  14.922
67488W        W34029  30.184  36.626  12.918
67489W        W34030   1.262  29.449   5.007
67490W        W34031  30.924   7.194  14.358
67491W        W34032  10.936  44.413   2.412
67492W        W34033  33.980  21.997  13.796
67493W        W34034  42.411  44.492   4.549
67494W        W34035  32.083  21.468   1.770
67495W        W34036  19.432  27.659   2.369
67496W        W34037   1.671  28.501  11.344
67497W        W34038  23.509  16.260  12.546
67498W        W34039  15.865  32.909   5.124
67499W        W34040  36.311  42.743   3.873
67500W        W34041  44.984  30.531  10.520
67501W        W34042  23.244  13.250   4.210
67502W        W34043  31.624  21.101   0.406
67503W        W34044  44.350  19.751   2.292
67504W        W34045   8.822  33.125  11.846
67505W        W34046  20.256   1.795   4.128
67506W        W34047  25.097  39.287  13.997
67507W        W34048  19.174  31.454   1.399
67508W        W34049  11.748  18.743  12.127
67509W        W34050  23.021  31.975   4.595
67510W        W34051   2.675  34.322  14.337
67511W        W34052  36.949  32.547  12.454
67512W        W34053   8.254   6.786  11.506
67513W        W34054  35.358   3.614   3.901
67514W        W34055  28.461  41.159   0.732
67515W        W34056  19.408   6.642   3.178
67516W        W34057  37.448  37.672   3.589
67517W        W34058   3.369   6.345  11.731
67518W        W34059  24.408  28.042  13.392
67519W        W34060  35.827  17.208   3.807
67520W        W34061  43.774   7.998   0.783
67521W        W34062  24.753  32.380  13.146
67522W        W34063   4.251  36.970  11.295
67523W        W34064  21.179  17.605  10.465
67524W        W34065   7.691  42.555   3.283
67525W        W34066  24.624  21.464  13.073
67526W        W34067  17.615   5.374   1.793
67527W        W34068  42.457  32.133  13.437
67528W        W34069  21.076  35.485   3.376
67529W        W34070  15.937  43.509   1.974
67530W        W34071  26.510   9.348   1.791
67531W        W34072  44.787  36.327  11.688
67532W        W34073  37.609  16.689  13.382
67533W        W34074  29.423  38.493   4.357
67534W        W34075   1.203   0.869   4.240
67535W        W34076  37.403  22.844  10.738
67536W        W34077  22.695  24.498   0.182
67537W        W34078  41.424   6.679   0.792
67538W        W34079   9.175  10.039   5.168
67539W        W34080  28.473  12.334   1.521
67540W        W34081   3.384  11.350  11.640
67541W        W34082  40.811   1.983  10.630
67542W        W34083  34.078  36.590   4.374
67543W        W34084  32.060  18.265   0.262
67544W        W34085   3.356   5.592   0.535
67545W        W34086  20.072  19.897  13.539
67546W        W34087  44.503  36.217   3.447
67547W        W34088  13.661   3.815   4.625
67548W        W34089  38.618  28.199   4.994
67549W        W34090  35.899  37.000  10.654
67550W        W34091  43.217  31.623  12.490
67551W        W34092   7.513   9.807  11.588
67552W        W34093  35.588  40.477  13.484
67553W        W34094  19.164  40.824  14.436
67554W        W34095   5.266  26.417   0.000
67555W        W34096  15.717  10.379  14.225
67556W        W34097  36.342   8.662   4.948
67557W        W34098  28.051  15.275   3.604
67558W        W34099  26.908  15.583  14.506
67559W        W34100  39.262  29.604  11.151
67560W        W34101  28.419  19.092  11.637
67561W        W34102  30.304   3.763  11.463
67562W        W34103   8.403  24.649   4.034
67563W        W34104  23.172  15.372  11.773
67564W        W34105  18.106  37.096  11.044
67565W        W34106  30.478   4.609   4.678
67566W        W34107  10.227  34.040   4.514
67567W        W34108  14.871   6.916  10.809
67568W        W34109  19.496  15.797  11.884
67569W        W34110  13.686  17.136  12.659
67570W        W34111  23.233  16.590   3.707
67571W        W34112  18.637  19.097  12.812
67572W        W34113  34.277   3.889  11.059
67573W        W34114   2.872  26.173   4.043
67574W        W34115   8.239  23.982  11.898
67575W        W34116  26.622  18.938  14.890
67576W        W34117  27.449  28.588   0.531
67577W        W34118  35.979  25.685   4.607
67578W        W34119   7.101  16.066  12.522
67579W        W34120  28.924  20.878   1.147
67580W        W34121  38.136  22.616  14.276
67581W        W34122  16.841  38.488   2.851
67582W        W34123  10.772   9.515  14.551
67583W        W34124   1.731  17.317  14.253
67584W        W34125  41.115  33.019  14.093
67585W        W34126  41.864  23.546  14.905
67586W        W34127  10.558  31.055   4.769
67587W        W34128  19.745   2.360   1.644
67588W        W34129  11.820  37.084   4.470
67589W        W34130   1.573   3.334   0.017
67590W        W34131  41.289  26.093   4.177
67591W        W34132   3.929  23.118   0.316
67592W        W34133  31.434  38.708  14.863
67593W        W34134  10.915  38.524   3.102
67594W        W34135  31.426  44.133  13.907
67595W        W34136  31.095  13.622  13.089
67596W        W34137  18.321   2.471   3.360
67597W        W34138  33.434   1.307  13.563
67598W        W34139   4.420  36.251  11.594
67599W        W34140   6.818   6.211   0.038
67600W        W34141  11.364  44.593  11.078
67601W        W34142  42.960   7.766   4.520
67602W        W34143  32.111  18.515  11.456
67603W        W34144  11.312  15.123   3.303
67604W        W34145  27.756  44.323  14.039
67605W        W34146  29.376  16.085   1.919
67606W        W34147  25.385  37.296   1.318
67607W        W34148  22.144   7.541  11.763
67608W        W34149  38.536  27.386   2.445
67609W        W34150  37.627   7.324  13.446
67610W        W34151   7.687   3.686   5.573
67611W        W34152   8.740  10.660   4.544
67612W        W34153  18.489  21.435  14.492
67613W        W34154  35.798  20.240   2.232
67614W        W34155  35.342   0.212  13.048
67615W        W34156  25.988  14.043  11.177
67616W        W34157  20.529  13.569   3.148
67617W        W34158  41.350  27.597   4.620
67618W        W34159  29.909  40.924   0.874
67619W        W34160   8.996  14.552  10.957
67620W        W34161  27.496  41.444  12.379
67621W        W34162  15.193   0.999  10.462
67622W        W34163  13.296  27.628  12.927
67623W        W34164   4.619  34.614   2.880
67624W        W34165  32.398   0.327  11.072
67625W        W34166  15.017  40.984   1.940
67626W        W34167  23.061  30.177  10.674
67627W        W34168  17.683  35.055  14.314
67628W        W34169  20.552  26.707  13.454
67629W        W34170   9.994  42.252   4.247
67630W        W34171  19.684  36.089  12.209
67631W        W34172  38.262  33.488  10.642
67632W        W34173   8.839  25.381   4.646
67633W        W34174  35.834  38.280   4.021
67634W        W34175   6.707  25.702   2.371
67635W        W34176   0.974  42.044   2.363
67636W        W34177  14.699  15.537  12.531
67637W        W34178  21.299   6.840  11.616
67638W        W34179  23.543  31.334   4.028
67639W        W34180   0.360  25.229   4.345
67640W        W34181  15.286  40.570  12.820
67641W        W34182   4.922  26.397   1.375
67642W        W34183  33.590  22.152  10.707
67643W        W34184  18.154  29.467   1.030
67644W        W34185  37.284   8.611   2.331
67645W        W34186   3.587  42.289   4.743
67646W        W34187  13.664  32.781  13.833
67647W        W34188  10.523  38.709   9.896
67648W        W34189  13.664  39.636   2.140
67649W        W34190   1.372  25.777   1.355
67650W        W34191  25.020  17.850  11.057
67651W        W34192  17.051  12.230  10.741
67652W        W34193   4.556  18.720   4.353
67653W        W34194  41.397  25.896  13.023
67654W        W34195  11.591  22.693  14.027
67655W        W34196   0.382  22.973  13.190
67656W        W34197   0.929   8.119  14.820
67657W        W34198   4.426  10.705   1.307
67658W        W34199   2.365  17.803   0.579
67659W        W34200  11.839   8.815   1.801
67660W        W34201  27.051  23.225   1.184
67661W        W34202   4.233  27.237  12.668
67662W        W34203  30.161  37.871  13.551
67663W        W34204  38.237  22.244   4.487
67664W        W34205  38.358  30.795   3.862
67665W        W34206  44.292   1.207   0.841
67666W        W34207  44.244   4.676   4.297
67667W        W34208  12.559   4.905   0.232
67668W        W34209   0.853   1.505  14.418
67669W        W34210  28.214  32.168  13.462
67670W        W34211  10.824  43.003  12.524
67671W        W34212   2.266  15.176  12.159
67672W        W34213  10.734  38.230  10.126
67673W        W34214   8.444  16.366   2.375
67674W        W34215  12.977  18.115  10.798
67675W        W34216  15.375   3.375   0.803
67676W        W34217  35.480  43.300   1.169
67677W        W34218   6.245   3.968  14.564
67678W        W34219  24.882  12.619  10.723
67679W        W34220  41.713  33.305   2.842
67680W        W34221  39.441   5.027   3.232
67681W        W34222  13.784   7.734  12.479
67682W        W34223   5.602  21.875  10.755
67683W        W34224  30.879  16.529  13.367
67684W        W34225   8.798  28.054  13.138
67685W        W34226  22.263   7.751   1.496
67686W        W34227  21.085  42.076  14.888
67687W        W34228  18.964  17.561   2.555
67688W        W34229   4.193  43.829   0.277
67689W        W34230  19.123  36.071  14.383
67690W        W34231  27.618   3.141  11.836
67691W        W34232  11.417  25.464  14.707
67692W        W34233   0.845  27.163  11.275
67693W        W34234  42.276  41.916  12.003
67694W        W34235   8.738   3.134  11.337
67695W        W34236  27.139  26.275   5.101
67696W        W34237  17.235  43.737   0.284
67697W        W34238  39.722  18.313  11.530
67698W        W34239  36.610   9.848   3.326
67699W        W34240  14.123  21.139  14.894
67700W        W34241  25.084  15.160  13.343
67701W        W34242  20.730  23.980   2.323
67702W        W34243  31.083   2.540  13.340
67703W        W34244  36.100  30.697   1.856
67704W        W34245  35.589  39.895   4.557
67705W        W34246   3.762   1.766   3.140
67706W        W34247   5.898  15.429   0.459
67707W        W34248  15.326  24.733  13.849
67708W        W34249  27.992   5.678  12.451
67709W        W34250  36.467  32.431  13.403
67710W        W34251   0.694  12.214  13.866
67711W        W34252   7.311  25.590  11.630
67712W        W34253  40.219  21.632   1.954
67713W        W34254  23.517  35.319  10.712
67714W        W34255  41.321  15.058  11.822
67715W        W34256  34.887  13.348  12.921
67716W        W34257  29.349  29.028   3.539
67717W        W34258  24.954  24.454   2.701
67718W        W34259  29.486  39.815   0.744
67719W        W34260  16.761  21.602   1.442
67720W        W34261  21.702  16.310   0.649
67721W        W34262  31.461  34.034   4.184
67722W        W34263  17.268  21.940  14.285
67723W        W34264  30.395  40.597   4.319
67724W        W34265  44.080  17.092   1.845
67725W        W34266  33.104  25.740  14.852
67726W        W34267  20.758  37.822   3.066
67727W        W34268  25.607   0.657  13.305
67728W        W34269  27.690  27.164  14.461
67729W        W34270  41.962   6.558   1.935
67730W        W34271  35.480  13.708  11.107
67731W        W34272  23.541  10.158   4.190
67732W        W34273  30.082  18.169   0.273
67733W        W34274  25.615  16.728  11.389
67734W        W34275   9.284  12.335   4.681
67735W        W34276  17.228  23.197  12.789
67736W        W34277  26.270  19.104  12.475
67737W        W34278  27.338  27.062   2.845
67738W        W34279  12.171  20.210   0.231
67739W        W34280  33.461   5.678  11.149
67740W        W34281   2.787  20.158  12.065
67741W        W34282  19.293  39.342  13.497
67742W        W34283  29.590  10.353  11.993
67743W        W34284   4.411   2.165  10.828
67744W        W34285  23.980  37.280  13.308
67745W        W34286  18.800  31.944  11.668
67746W        W34287  29.454   5.873  13.589
67747W        W34288  14.754  34.094   4.792
67748W        W34289   6.321  21.277   0.403
67749W        W34290  14.581   7.400  12.018
67750W        W34291  39.516  41.773   0.851
67751W        W34292   9.884  26.736  10.660
67752W        W34293   7.677  33.604   1.883
67753W        W34294  34.491   5.579  10.184
67754W        W34295   0.256  44.347   2.735
67755W        W34296  11.358  17.356   3.487
67756W        W34297   0.988  38.619  13.751
67757W        W34298  44.849  24.475  14.404
67758W        W34299  30.432  23.970  13.213
67759W        W34300  10.181  27.171   1.394
67760W        W34301  24.014  30.810   1.891
67761W        W34302  34.265  35.869   4.132
67762W        W34303  25.833   9.260  13.598
67763W        W34304  15.449  37.005   1.066
67764W        W34305  39.900  19.601  13.100
67765W        W34306  22.586  41.025   1.016
67766W        W34307  38.068   6.957  10.639
67767W        W34308  38.717  44.254  11.380
67768W        W34309   2.270  23.290  10.737
67769W        W34310   4.132  12.357   2.177
67770W        W34311  17.253  18.676   1.459
67771W        W34312  15.819  33.101  14.327
67772W        W34313  42.762  24.707  12.709
67773W        W34314  41.258  22.267   4.230
67774W        W34315  36.024  27.665  13.484
67775W        W34316   4.328   8.400   2.325
67776W        W34317  10.422  40.075  14.017
67777W        W34318  12.820  22.961   4.246
67778W        W34319  42.077  17.549  13.933
67779W        W34320   9.053  23.781  14.978
67780W        W34321  11.910  19.339   1.491
67781W        W34322  22.186  29.911  14.668
67782W        W34323  36.987  27.873  12.524
67783W        W34324  38.243   5.790   1.203
67784W        W34325  23.438  35.270   3.328
67785W        W34326   5.879  42.303  11.885
67786W        W34327   1.046  15.578  10.911
67787W        W34328   7.764  18.022   2.645
67788W        W34329  26.059  13.399   1.667
67789W        W34330   9.423  19.710  12.350
67790W        W34331  21.661   0.359  10.379
67791W        W34332   3.808  23.228  13.322
67792W        W34333  30.376   9.976  14.373
67793W        W34334  32.129  25.584  10.679
67794W        W34335   1.691  21.426  12.926
67795W        W34336  18.781  37.641  11.570
67796W        W34337  23.841  31.668  13.513
67797W        W34338   8.631  27.665  10.479
67798W        W34339  28.052  18.091  13.377
67799W        W34340   0.898  29.623   3.762
67800W        W34341   3.256  18.293  13.743
67801W        W34342   1.797  35.863  11.370
67802W        W34343   6.609  31.403  12.457
67803W        W34344  30.465   7.337   0.699
67804W        W34345  27.364  11.885  11.423
67805W        W34346  26.284  19.354   4.606
67806W        W34347  33.263  29.846   0.294
67807W        W34348  36.390   3.838   4.983
67808W        W34349   8.724  33.360  13.155
67809W        W34350   8.276  32.639   2.328
67810W        W34351   2.519   8.192   3.803
67811W        W34352  43.782   1.469  13.638
67812W        W34353  44.041   7.667  14.347
67813W        W34354  22.253  14.176  14.704
67814W        W34355   1.283  27.118  11.893
67815W        W34356  11.571   7.651   4.124
67816W        W34357  29.217  13.100  13.574
67817W        W34358   6.289  10.637  13.547
67818W        W34359  36.531  33.242  10.998
67819W        W34360  22.201  21.100   1.512
67820W        W34361   4.158  23.517   2.302
67821W        W34362  42.279  35.050   1.895
67822W        W34363  34.029   4.773  10.267
67823W        W34364  22.029  17.186  10.445
67824W        W34365  34.103   9.126  13.946
67825W        W34366   3.926  19.988   4.035
67826W        W34367  28.260  37.049  12.944
67827W        W34368   7.224  42.913   1.310
67828W        W34369   7.206  26.158   1.038
67829W        W34370  24.401  42.055   2.921
67830W        W34371  41.094  43.008   3.190
67831W        W34372  15.391   7.770  11.520
67832W        W34373   9.234  29.442   4.528
67833W        W34374  12.553  11.536  12.396
67834W        W34375  24.624  37.865   0.257
67835W        W34376   4.802  20.995  12.976
67836W        W34377  22.683   6.955   3.785
67837W        W34378  42.291  32.584  10.824
67838W        W34379  43.833  16.659  13.394
67839W        W34380  39.169  22.544   2.856
67840W        W34381  13.255  15.156  13.374
67841W        W34382  22.715   5.864   4.165
67842W        W34383  35.020   5.803   4.589
67843W        W34384   4.445  12.313  14.035
67844W        W34385  27.467  30.643   1.193
67845W        W34386  30.393  15.170   2.179
67846W        W34387  32.586  35.515  12.673
67847W        W34388  16.038  27.543   3.321
67848W        W34389  11.399   7.752  10.580
67849W        W34390  36.110  22.760   1.414
67850W        W34391  34.076  33.453  14.381
67851W        W34392  31.980  44.682   1.855
67852W        W34393   4.633   5.278  11.177
67853W        W34394  29.937  22.893  13.841
67854W        W34395  44.164  44.694  12.029
67855W        W34396  42.977  17.143  11.140
67856W        W34397  41.213  34.319  14.069
67857W        W34398  30.886  27.170  12.528
67858W        W34399  11.263   6.984   2.926
67859W        W34400  37.063  21.693   3.841
67860W        W34401   7.641  22.478  12.565
67861W        W34402  42.297   6.860  14.747
67862W        W34403  15.597  14.155   3.120
67863W        W34404  22.398  26.432  14.060
67864W        W34405  34.081  42.381  10.554
67865W        W34406  24.199  31.040  14.612
67866W        W34407  10.745   4.465   0.735
67867W        W34408  22.208  28.564   1.885
67868W        W34409  31.096  24.783   0.376
67869W        W34410  16.000  41.412   1.303
67870W        W34411  28.080  41.499   2.447
67871W        W34412  37.881  30.851   0.455
67872W        W34413  39.826   9.866  10.740
67873W        W34414  20.070  18.626   2.014
67874W        W34415  34.056  11.698  14.172
67875W        W34416  39.474   2.378  12.564
67876W        W34417  30.856   9.758  14.437
67877W        W34418   2.235   4.693  13.980
67878W        W34419  22.623   5.929   2.860
67879W        W34420  28.929  14.890  11.197
67880W        W34421  20.366  42.359   0.862
67881W        W34422   9.734  19.510  11.146
67882W        W34423  42.482  26.200  14.481
67883W        W34424  25.478  38.527   1.420
67884W        W34425  24.174  10.801  13.747
67885W        W34426  40.426  10.771   1.241
67886W        W34427  37.559  30.498  10.487
67887W        W34428  15.234  31.615   1.425
67888W        W34429  35.006  28.793   9.925
67889W        W34430  18.385  13.363   2.727
67890W        W34431   0.543  44.545   2.310
67891W        W34432  25.546  35.848  11.427
67892W        W34433   7.744  22.812   0.863
67893W        W34434  36.235   4.452  11.171
67894W        W34435  28.548  35.239   3.635
67895W        W34436  20.243  20.217   2.184
67896W        W34437   2.217  21.509  12.951
67897W        W34438  41.515  20.642  13.080
67898W        W34439  21.105  41.908  12.924
67899W        W34440  18.847  43.535  12.999
67900W        W34441  44.949  21.485   1.391
67901W        W34442  20.302  24.164   3.190
67902W        W34443  40.422  31.612   2.403
67903W        W34444  28.061   6.430  13.864
67904W        W34445  12.491  19.649  10.801
67905W        W34446  30.368   2.733  11.561
67906W        W34447  13.610   3.229   3.378
67907W        W34448  11.278   7.118   2.262
67908W        W34449  40.546  35.087  11.408
67909W        W34450  42.773  21.181  13.576
67910W        W34451  21.213  13.632  12.196
67911W        W34452   8.178  37.214  10.308
67912W        W34453  17.130  41.018  11.631
67913W        W34454  16.240   0.157   4.261
67914W        W34455   2.306  14.937   4.570
67915W        W34456  27.055  10.890  11.939
67916W        W34457  24.504  23.130  10.727
67917W        W34458  17.048  23.987  10.542
67918W        W34459  41.492  43.342   3.192
67919W        W34460  33.515   1.237   1.761
67920W        W34461  38.631  31.715   5.208
67921W        W34462  22.145  10.069  11.433
67922W        W34463   3.983  10.639   3.706
67923W        W34464   5.929   4.823  14.814
67924W        W34465   0.216  38.594   1.853
67925W        W34466   9.418   1.852   1.261
67926W        W34467   4.739  29.113   4.571
67927W        W34468   4.844  32.153   0.360
67928W        W34469  40.015  11.726   3.631
67929W        W34470  33.629  32.647  12.053
67930W        W34471  35.877   2.225  14.414
67931W        W34472  43.836  33.688   4.433
67932W        W34473  26.123  32.825   2.999
67933W        W34474  22.488  26.854  11.542
67934W        W34475  20.330  18.912   1.270
67935W        W34476  12.134  27.510   1.131
67936W        W34477  34.385  14.296  12.463
67937W        W34478  43.857   8.243   1.310
67938W        W34479  17.262   1.056   2.303
67939W        W34480  33.847   1.330   3.109
67940W        W34481  33.827   1.784   3.358
67941W        W34482  23.567  10.591   3.862
67942W        W34483  18.314   1.270  12.495
67943W        W34484   3.390   0.189   5.732
67944W        W34485   1.682  24.954   4.545
67945W        W34486   4.807  31.069   3.848
67946W        W34487  14.154   8.121  12.484
67947W        W34488  12.143  11.247  12.193
67948W        W34489   8.961  36.934  13.386
67949W        W34490  31.053  13.799   0.784
67950W        W34491  43.232  21.671   1.219
67951W        W34492  34.226   2.430   1.563
67952W        W34493   1.182  30.428  13.671
67953W        W34494  20.936  15.127   2.909
67954W        W34495   9.278  14.626  14.833
67955W        W34496  42.976   1.644   4.611
67956W        W34497  22.792  10.207  14.943
67957W        W34498   1.963  19.821  14.336
67958W        W34499  42.878  14.588   3.656
67959W        W34500   9.140  18.132  14.426
67960W        W34501  41.342   8.204   4.095
67961W        W34502  30.573  10.251  10.630
67962W        W34503  27.077  13.903  11.321
67963W        W34504  12.350  15.313  13.528
67964W        W34505  27.608  40.477   4.863
67965W        W34506   9.692   6.310   2.437
67966W        W34507   1.915  29.373  11.640
67967W        W34508  28.176   0.231   4.725
67968W        W34509  15.673  22.524  14.030
67969W        W34510  41.885  44.530  13.518
67970W        W34511  44.798  15.266  12.517
67971W        W34512  23.602  28.005  13.103
67972W        W34513  39.424  16.673   1.249
67973W        W34514   2.221  11.680   4.567
67974W        W34515  34.096  12.833   2.715
67975W        W34516  21.094  40.572   1.408
67976W        W34517  11.717  36.873   0.036
67977W        W34518   7.782   5.497   1.361
67978W        W34519  28.587  11.667  14.917
67979W        W34520  19.656   8.462  12.058
67980W        W34521  11.641   8.498  14.526
67981W        W34522  26.406  16.235  14.884
67982W        W34523   2.275  11.453   1.441
67983W        W34524  20.067   1.727   0.401
67984W        W34525  19.578  42.002   0.993
67985W        W34526  19.805   0.962  11.511
67986W        W34527  23.714  11.668  13.475
67987W        W34528  34.085  41.580   2.617
67988W        W34529  36.955  30.529   0.187
67989W        W34530  21.614  37.393   4.984
67990W        W34531  38.637   8.839   4.334
67991W        W34532   7.927  17.600  13.566
67992W        W34533  40.252   2.865  13.938
67993W        W34534  11.663  23.232   1.747
67994W        W34535   5.319  23.755   1.886
67995W        W34536  15.751   3.587  13.946
67996W        W34537  39.325  18.609   2.252
67997W        W34538   9.457  37.842   2.146
67998W        W34539   0.382  28.609   1.245
67999W        W34540  35.011  23.803   2.754
68000W        W34541  11.725   5.414   1.890
68001W        W34542  27.053  43.809  14.854
68002W        W34543  39.956  12.112  10.271
68003W        W34544  18.196  21.613   1.303
68004W        W34545  44.728  41.239  12.829
68005W        W34546  44.460  15.823   1.782
68006W        W34547  26.526   6.114  13.113
68007W        W34548   0.065  44.706   4.538
68008W        W34549   5.321   3.490   0.827
68009W        W34550   4.859  10.704  13.573
68010W        W34551  10.018  19.622  10.238
68011W        W34552  16.628   8.172   0.462
68012W        W34553  32.124  22.177   1.982
68013W        W34554  25.968   7.504   2.807
68014W        W34555  43.612   8.771   4.600
68015W        W34556  19.328  12.710   1.765
68016W        W34557  41.106  34.980  12.878
68017W        W34558  11.848  34.504   2.179
68018W        W34559  28.533   7.240   2.950
68019W        W34560  33.193   9.801  10.409
68020W        W34561   4.901   9.880  10.980
68021W        W34562  39.508  35.118   1.811
68022W        W34563  34.859  10.369   0.790
68023W        W34564  14.350  29.663  10.670
68024W        W34565  36.533  28.413  11.517
68025W        W34566  34.534  31.801   4.599
68026W        W34567   4.794  14.346  13.480
68027W        W34568  12.648  19.139  11.571
68028W        W34569  22.441   7.174   3.358
68029W        W34570   9.398  24.676  14.760
68030W        W34571   7.442  14.329   0.374
68031W        W34572  32.769  10.294  14.362
68032W        W34573  27.873  20.838  11.509
68033W        W34574  43.917  40.512   2.148
68034W        W34575   8.955  30.066   1.746
68035W        W34576   2.906  41.474   3.750
68036W        W34577   8.383  40.011   4.616
68037W        W34578  19.181   0.192   0.400
68038W        W34579   9.861  43.725  13.921
68039W        W34580  43.683  34.855   1.910
68040W        W34581  39.571  20.424   0.787
68041W        W34582  25.319   0.285   1.960
68042W        W34583  17.238  42.782  14.543
68043W        W34584  23.180  25.689   2.869
68044W        W34585  33.093  20.615   1.926
68045W        W34586  30.476  41.529   1.311
68046W        W34587  42.442  25.778   4.338
68047W        W34588  30.404   8.236  14.833
68048W        W34589  32.397  31.986   2.947
68049W        W34590  30.011  44.317  14.324
68050W        W34591  44.449  21.133  11.101
68051W        W34592  12.553  24.508  12.468
68052W        W34593  34.664  12.286  13.811
68053W        W34594  20.757  26.210  14.407
68054W        W34595  11.355  33.259   0.744
68055W        W34596   2.284  11.143  13.014
68056W        W34597   3.918  11.542  13.064
68057W        W34598  21.486  24.107  12.594
68058W        W34599  23.605  24.717  14.112
68059W        W34600  39.130   0.917   0.788
68060W        W34601  32.821   9.447  14.110
68061W        W34602  25.088  19.282  12.139
68062W        W34603   3.115  28.783  10.561
68063W        W34604  20.574   9.781   3.719
68064W        W34605   4.576   3.405   4.358
68065W        W34606  26.608  33.519   2.709
68066W        W34607  10.963  36.593   2.255
68067W        W34608  37.646  43.740  11.638
68068W        W34609  36.045  37.380   4.585
68069W        W34610   4.951  33.216  12.990
68070W        W34611  40.296  26.561  14.557
68071W        W34612  30.058  25.681   3.904
68072W        W34613   3.834  17.132  13.836
68073W        W34614  41.476  17.796   2.923
68074W        W34615  23.591   8.261  11.632
68075W        W34616   8.365  24.724   4.618
68076W        W34617   4.454   5.413   1.793
68077W        W34618  35.538  36.137  14.227
68078W        W34619  29.595  18.638   0.409
68079W        W34620   5.500  28.020   3.273
68080W        W34621  37.655  42.823   0.794
68081W        W34622  32.953  18.029  14.833
68082W        W34623  25.121   6.133   0.363
68083W        W34624   6.105   4.883   0.317
68084W        W34625   7.220  18.286  10.411
68085W        W34626  13.057  12.897  12.268
68086W        W34627  32.302  17.348  12.384
68087W        W34628  26.487  18.143   0.566
68088W        W34629  33.323  22.100   0.492
68089W        W34630  21.631  29.234   0.937
68090W        W34631  23.025  36.856   0.558
68091W        W34632  16.981   3.975  10.774
68092W        W34633  10.706   2.508   0.903
68093W        W34634  31.820  33.310   1.321
68094W        W34635   9.335   5.031  10.296
68095W        W34636  42.961  30.878   0.872
68096W        W34637  33.695  15.549  14.614
68097W        W34638   1.473  36.400   3.593
68098W        W34639  37.023  12.201   3.206
68099W        W34640  11.082   7.683  13.015
68100W        W34641  44.878   8.762   1.018
68101W        W34642   8.391  37.513  11.570
68102W        W34643   5.413  30.573   5.102
68103W        W34644  33.469  42.956   0.296
68104W        W34645  10.624  20.561  14.165
68105W        W34646  39.384  11.632   2.197
68106W        W34647   5.224  29.014   4.254
68107W        W34648   8.410  15.616  13.343
68108W        W34649  29.169   1.185  10.869
68109W        W34650  39.028  42.858   0.285
68110W        W34651   7.323  38.881  12.496
68111W        W34652  22.986  22.755  14.562
68112W        W34653  15.292  42.471  14.027
68113W        W34654  20.058   2.277   0.346
68114W        W34655  41.242  20.275  13.951
68115W        W34656  31.923  25.212   1.443
68116W        W34657  40.099   3.751  14.043
68117W        W34658  15.755  39.183   4.980
68118W        W34659  30.968  18.745   2.081
68119W        W34660  30.555  24.002  13.739
68120W        W34661  22.738  28.583   3.762
68121W        W34662   2.445  12.659   1.892
68122W        W34663   3.301  14.374  13.318
68123W        W34664   9.782  14.242   2.475
68124W        W34665  26.440  38.808   4.163
68125W        W34666  35.060  30.032  11.932
68126W        W34667  20.305  35.060  11.623
68127W        W34668  34.876  28.517  13.033
68128W        W34669   1.987  27.585  12.538
68129W        W34670  23.003  29.153  10.673
68130W        W34671  41.559  12.605  10.878
68131W        W34672  22.664   6.817   4.324
68132W        W34673   2.229  42.946   4.824
68133W        W34674  43.956   8.296  13.112
68134W        W34675  12.744   2.359   3.221
68135W        W34676  20.731   1.275   3.787
68136W        W34677  30.962   7.965   3.408
68137W        W34678   8.943  40.971  10.387
68138W        W34679  42.310   6.322   4.344
68139W        W34680  42.439  27.250   0.776
68140W        W34681   0.972  34.607   4.741
68141W        W34682  17.573  32.552   3.420
68142W        W34683  18.757  11.075  11.050
68143W        W34684  34.889  13.839   3.616
68144W        W34685  25.182  26.574   3.904
68145W        W34686   4.839  16.909   5.319
68146W        W34687  11.386  19.706  11.050
68147W        W34688  31.392  28.900   3.641
68148W        W34689  28.019  30.138   3.622
68149W        W34690  36.663   9.253  10.988
68150W        W34691  21.606  42.331  13.075
68151W        W34692  41.921  23.198   1.256
68152W        W34693  12.023  42.556   5.000
68153W        W34694  19.259  37.387  10.708
68154W        W34695  19.503  43.532   4.173
68155W        W34696  25.584  32.137  10.631
68156W        W34697  15.618   7.758   0.441
68157W        W34698   8.282  35.704  12.988
68158W        W34699   7.615   9.305   2.274
68159W        W34700  35.225  40.762  13.218
68160W        W34701  37.771  36.634  13.990
68161W        W34702  31.910  36.429   4.202
68162W        W34703  11.257  32.643  10.426
68163W        W34704  27.413  20.693   1.802
68164W        W34705  37.792  26.495  13.201
68165W        W34706   3.956   1.255   4.459
68166W        W34707  35.582  17.790   4.607
68167W        W34708  21.831  40.099   3.832
68168W        W34709  13.239  20.461  12.487
68169W        W34710  29.319  31.734   1.508
68170W        W34711  17.599   2.868   2.305
68171W        W34712  40.968  29.134   1.785
68172W        W34713  24.942  37.236  12.940
68173W        W34714  29.952  18.583  14.974
68174W        W34715  29.961  37.903  12.191
68175W        W34716  11.718  27.245   4.084
68176W        W34717   2.736  20.113  12.603
68177W        W34718  22.524   9.886  13.844
68178W        W34719   1.572  29.565   5.407
68179W        W34720  34.312   5.212   3.628
68180W        W34721  41.044  26.093  12.014
68181W        W34722  40.506   8.355  14.808
68182W        W34723  12.420  28.625  14.717
68183W        W34724  25.975  28.067  13.471
68184W        W34725  18.063  34.600   1.165
68185W        W34726   6.935  33.886   0.806
68186W        W34727  15.890  24.125   2.385
68187W        W34728  39.436  23.468  14.451
68188W        W34729   4.451  38.399  11.219
68189W        W34730   8.562  32.554   0.494
68190W        W34731  44.256  43.987  10.960
68191W        W34732  33.408  36.445  13.348
68192W        W34733  23.964   1.966   0.906
68193W        W34734  43.911   7.295   3.154
68194W        W34735  30.063  29.628   3.530
68195W        W34736   5.525  15.168   2.278
68196W        W34737   5.557  24.045   2.273
68197W        W34738   0.293  33.365   0.638
68198W        W34739  18.696  40.907  10.639
68199W        W34740   8.950   6.358  14.470
68200W        W34741  34.804  44.514   2.687
68201W        W34742  28.468  42.733  10.651
68202W        W34743   1.932  37.947   0.731
68203W        W34744   3.461  14.352  10.511
68204W        W34745  33.108  23.198  11.525
68205W        W34746  32.021  25.590  11.539
68206W        W34747  15.858  22.035   0.289
68207W        W34748  34.443  38.817  12.479
68208W        W34749  16.512  22.521  12.929
68209W        W34750  10.749  34.119   4.531
68210W        W34751  31.677  12.816  12.966
68211W        W34752  15.259  15.575  13.301
68212W        W34753  29.581  36.496  12.102
68213W        W34754  35.593  29.019   2.629
68214W        W34755  25.646   0.020  14.249
68215W        W34756  29.516  20.023   0.393
68216W        W34757   7.494  18.795   1.362
68217W        W34758   9.509  21.907  13.964
68218W        W34759  30.474  42.654  13.970
68219W        W34760  30.211  33.062   3.334
68220W        W34761   3.780   8.624  10.743
68221W        W34762   0.997   9.182   2.198
68222W        W34763   2.951   5.705   4.259
68223W        W34764  12.311  30.041   4.448
68224W        W34765  36.624  22.284  10.322
68225W        W34766  32.099   1.248  12.171
68226W        W34767  21.430  21.527  13.389
68227W        W34768   7.099  23.536  14.524
68228W        W34769  38.061  37.137   2.228
68229W        W34770  43.939   8.240   3.852
68230W        W34771  19.003   6.278  14.283
68231W        W34772  14.853  15.707  14.402
68232W        W34773   2.325   8.911  14.371
68233W        W34774   3.113  13.195   5.140
68234W        W34775  17.773  33.002  13.548
68235W        W34776  33.130  17.340   3.863
68236W        W34777  11.247  16.672  10.873
68237W        W34778  33.896  41.730  14.569
68238W        W34779  27.077  12.229   1.055
68239W        W34780  34.492  10.746   0.706
68240W        W34781  41.568   7.331  13.867
68241W        W34782  15.682  35.774  12.653
68242W        W34783  38.842  16.199  11.472
68243W        W34784  19.052  33.588   0.286
68244W        W34785   3.875  16.556   3.057
68245W        W34786   0.843  36.154   3.758
68246W        W34787  40.315  26.120   2.935
68247W        W34788  34.503   3.865  14.247
68248W        W34789  33.476  21.034   1.239
68249W        W34790  18.195  20.039  12.982
68250W        W34791  12.158  39.897   3.200
68251W        W34792   7.690   0.747   1.889
68252W        W34793  31.884   5.935   2.851
68253W        W34794   0.000  43.870   2.865
68254W        W34795  19.201  19.810  13.978
68255W        W34796  15.889  44.002  12.058
68256W        W34797  33.807  16.476  13.008
68257W        W34798  27.959  15.728   4.344
68258W        W34799   8.979  14.118  12.545
68259W        W34800   9.888  16.538  10.965
68260W        W34801  19.592  37.655   5.105
68261W        W34802   2.742  37.880   0.008
68262W        W34803  34.088  23.939   1.361
68263W        W34804  10.647  28.545   0.846
68264W        W34805   6.263  17.200  12.154
68265W        W34806  36.191  25.150  12.366
68266W        W34807  23.711  20.753  10.900
68267W        W34808   5.920  27.589   1.838
68268W        W34809  26.190  37.405  14.913
68269W        W34810  18.801   2.074   1.171
68270W        W34811  27.802   3.970  12.108
68271W        W34812   5.925   4.584   2.952
68272W        W34813  39.054  18.055   0.250
68273W        W34814  19.613  36.669   2.329
68274W        W34815  15.139  11.866   2.394
68275W        W34816  36.492   6.899   3.127
68276W        W34817  20.738  27.520   3.238
68277W        W34818   3.008  19.250  12.566
68278W        W34819   3.732  40.999   0.682
68279W        W34820  36.421  16.164   2.709
68280W        W34821  22.516  18.935   2.694
68281W        W34822  24.562  21.778  10.720
68282W        W34823  37.496   3.917   4.136
68283W        W34824  36.172   9.014  13.535
68284W        W34825  34.527   2.051  13.520
68285W        W34826  28.418  40.247  12.898
68286W        W34827   3.998   2.480  10.752
68287W        W34828  34.026   0.769  14.401
68288W        W34829  41.854  36.791  12.601
68289W        W34830  17.729  29.801   0.865
68290W        W34831  14.291  12.747   2.886
68291W        W34832  23.193   5.588  11.229
68292W        W34833   6.716   1.803  11.064
68293W        W34834  39.458   7.415  10.500
68294W        W34835  15.137  32.135   0.443
68295W        W34836   6.323  30.895  11.380
68296W        W34837  36.777  43.456  13.822
68297W        W34838  19.965  43.979  14.001
68298W        W34839   2.149   6.747   2.490
68299W        W34840   7.296  32.064   0.284
68300W        W34841  23.562  20.287  10.664
68301W        W34842  13.193  35.650   4.103
68302W        W34843  17.964  32.030   4.184
68303W        W34844  13.028   4.227  11.632
68304W        W34845  27.965   0.834   3.055
68305W        W34846  16.870  30.434   2.945
68306W        W34847  37.087  11.621   1.750
68307W        W34848  10.552   5.900  14.044
68308W        W34849  20.841  32.931  13.943
68309W        W34850  22.123  20.804  13.325
68310W        W34851  16.802  20.682   2.157
68311W        W34852  44.848  26.635  13.086
68312W        W34853  26.268  41.344  12.969
68313W        W34854   1.944  42.872   1.176
68314W        W34855   3.802  31.488   2.838
68315W        W34856  24.774  30.452   2.740
68316W        W34857   9.213  12.210  12.560
68317W        W34858  40.083  16.586  12.581
68318W        W34859  13.731  42.955  10.614
68319W        W34860  24.467  40.854   2.214
68320W        W34861  31.876  19.422  11.810
68321W        W34862   7.007  25.066  13.927
68322W        W34863   1.416  14.830   3.267
68323W        W34864  18.576  32.555  13.431
68324W        W34865  33.822   1.639   4.286
68325W        W34866  32.408  14.847  12.604
68326W        W34867  21.686  11.455  14.238
68327W        W34868  20.083  13.591   0.246
68328W        W34869  38.468  34.329  14.347
68329W        W34870  32.729   2.919   0.240
68330W        W34871  19.572   1.367   4.613
68331W        W34872  38.012  19.009  12.036
68332W        W34873   5.436  20.413   1.271
68333W        W34874  42.921   2.305   4.667
68334W        W34875  10.072   7.191  11.703
68335W        W34876   9.876  19.066  10.903
68336W        W34877  28.518  27.534  12.464
68337W        W34878  42.713  23.488  14.535
68338W        W34879  30.925  28.011  10.761
68339W        W34880  26.584  34.562   1.524
68340W        W34881  19.296   8.372   0.922
68341W        W34882   9.853  18.645   1.952
68342W        W34883  38.043  31.548  11.659
68343W        W34884  23.725   8.803   3.186
68344W        W34885  15.889  11.654  10.093
68345W        W34886  16.764  42.297   1.097
68346W        W34887   5.002  43.932  10.552
68347W        W34888  32.983  20.477   3.338
68348W        W34889  24.937  43.123  11.050
68349W        W34890  27.396  21.613  11.176
68350W        W34891  25.609  36.781   0.273
68351W        W34892  25.717  28.175   0.396
68352W        W34893  12.261  24.415   2.711
68353W        W34894  10.579  27.043  10.960
68354W        W34895   0.311   8.881  12.899
68355W        W34896   7.804  24.214  11.610
68356W        W34897  23.255  19.906   2.282
68357W        W34898  25.072  29.358   0.798
68358W        W34899  39.810  31.483   3.199
68359W        W34900   5.631  16.496  12.490
68360W        W34901  27.114  22.292  14.513
68361W        W34902  20.111  35.573   1.339
68362W        W34903  11.152  32.537   1.368
68363W        W34904  33.853  17.908   1.624
68364W        W34905  33.055  10.295  14.960
68365W        W34906  14.181  11.564   4.248
68366W        W34907  25.178  17.947   1.161
68367W        W34908  10.239   5.983   0.323
68368W        W34909   2.939  27.032   0.512
68369W        W34910  32.664  31.419  11.559
68370W        W34911  39.297  27.049  11.044
68371W        W34912  33.720   7.995   3.145
68372W        W34913  17.962  12.864  12.004
68373W        W34914   2.775  15.001  12.047
68374W        W34915  27.457  27.123  13.060
68375W        W34916  31.458  29.407  10.640
68376W        W34917   3.515   8.632  13.285
68377W        W34918  37.998  44.192   1.426
68378W        W34919  34.999  43.002   2.822
68379W        W34920  33.032  12.554  13.140
68380W        W34921  29.454  25.710  11.952
68381W        W34922  22.170  10.254   4.422
68382W        W34923   5.521  41.423   0.630
68383W        W34924  25.155  40.070  12.407
68384W        W34925  12.701  25.724   3.148
68385W        W34926  18.477  31.266  10.070
68386W        W34927  26.193  44.189   3.599
68387W        W34928  22.823  38.762   4.157
68388W        W34929  20.452  39.410  12.872
68389W        W34930  14.069  23.645   3.820
68390W        W34931  14.298  36.282  10.447
68391W        W34932  23.625  18.505  14.036
68392W        W34933  25.899  34.884   0.934
68393W        W34934  42.045   1.439  11.505
68394W        W34935  18.576  32.413   2.275
68395W        W34936  32.231  29.708  11.078
68396W        W34937  20.275  24.236  12.915
68397W        W34938  18.600  39.864  13.601
68398W        W34939  11.444  16.776  11.342
68399W        W34940  35.543   8.286  12.053
68400W        W34941  39.750  10.394  14.805
68401W        W34942  11.434  32.639  14.371
68402W        W34943  23.819  15.385   4.110
68403W        W34944  16.049  15.301  10.745
68404W        W34945  38.479   3.617  14.866
68405W        W34946   7.462   7.242  14.765
68406W        W34947  35.643  25.401  12.337
68407W        W34948  10.551   7.239  12.162
68408W        W34949   1.478  42.488   2.928
68409W        W34950  34.850  10.918  13.049
68410W        W34951  17.167  44.501   0.764
68411W        W34952  12.368   1.754   1.628
68412W        W34953  31.836  32.322   3.636
68413W        W34954   0.446   7.899   2.799
68414W        W34955  17.283   2.772   0.346
68415W        W34956  26.979  14.532   1.275
68416W        W34957  31.964  28.218   3.579
68417W        W34958   1.065   6.072  10.505
68418W        W34959  41.398  26.313   4.665
68419W        W34960   7.870  15.791  13.999
68420W        W34961  20.267  14.894  10.497
68421W        W34962  19.020   3.277   2.351
68422W        W34963  29.890  26.990  10.994
68423W        W34964  13.668  33.510  10.800
68424W        W34965  17.825  23.099  13.507
68425W        W34966  32.580  11.288   3.307
68426W        W34967   0.683  15.454  14.358
68427W        W34968  37.871  25.136  12.103
68428W        W34969   5.817  28.496  12.092
68429W        W34970  22.074  33.937  14.276
68430W        W34971  41.813   9.467  12.113
68431W        W34972  40.045  20.483   3.113
68432W        W34973  27.557  15.577   2.725
68433W        W34974  27.657   2.412  12.817
68434W        W34975  16.289   8.130  13.711
68435W        W34976  35.007  20.678   4.622
68436W        W34977   7.339  10.113  10.743
68437W        W34978  27.941  36.589  14.821
68438W        W34979   3.873   4.458  10.355
68439W        W34980   1.732  12.674  12.466
68440W        W34981   9.128  12.256  10.402
68441W        W34982   6.316  43.701  11.563
68442W        W34983   4.287  13.870   2.220
68443W        W34984   3.599  16.828  11.234
68444W        W34985  12.829  38.492  12.895
68445W        W34986  10.704   8.547   4.689
68446W        W34987  24.439  37.293  13.521
68447W        W34988  32.359  41.938   3.563
68448W        W34989   3.503  37.940   2.145
68449W        W34990   6.965  30.128   1.536
68450W        W34991  22.625  35.812   1.255
68451W        W34992  27.419  23.823  11.564
68452W        W34993   0.018  28.610   0.863
68453W        W34994   1.793   7.355  12.343
68454W        W34995   5.722  40.749  12.821
68455W        W34996   7.912  17.140   1.970
68456W        W34997  37.983  23.202   2.175
68457W        W34998  39.887  31.491   1.020
68458W        W34999  36.960  13.772  10.248
68459W        W35000  23.716  15.304  13.358
68460W        W35001  23.134  41.619  13.238
68461W        W35002  36.916   4.162   1.223
68462W        W35003   6.410  16.257  11.225
68463W        W35004  35.001  34.459  11.859
68464W        W35005   8.169   7.323  10.794
68465W        W35006  11.329  15.769  11.123
68466W        W35007  19.300  32.608   2.007
68467W        W35008  22.103  39.599  12.978
68468W        W35009  26.674  37.386  12.073
68469W        W35010  27.727  40.057  14.014
68470W        W35011  30.557  35.333   2.725
68471W        W35012  15.728  23.194   0.733
68472W        W35013  35.288  31.438   0.405
68473W        W35014  28.109  25.826  11.542
68474W        W35015   0.474   4.730  14.959
68475W        W35016  33.715  23.727  13.048
68476W        W35017  20.367  16.537  11.089
68477W        W35018  25.152  31.828   4.229
68478W        W35019  14.355   0.641  10.272
68479W        W35020   8.774   5.248  13.552
68480W        W35021  16.034  11.855  11.481
68481W        W35022  17.412  29.141   4.908
68482W        W35023  13.821   0.863  11.538
68483W        W35024  38.059  36.547   0.024
68484W        W35025  20.653   3.084  12.130
68485W        W35026  21.701   3.619  12.661
68486W        W35027  20.092   1.967  14.317
68487W        W35028   7.665  12.265   0.066
68488W        W35029  28.170   9.299  13.061
68489W        W35030  17.855   2.985  13.433
68490W        W35031  20.266  20.416   1.657
68491W        W35032  32.944  37.324  14.384
68492W        W35033  35.171   6.018  13.438
68493W        W35034   8.431  12.251   1.211
68494W        W35035  40.942  26.448   3.454
68495W        W35036  15.870  18.153   0.774
68496W        W35037  13.667  43.257   2.627
68497W        W35038  36.311  12.663   0.923
68498W        W35039  16.389  23.544  11.235
68499W        W35040  13.762   6.562  14.282
68500W        W35041   1.549  20.931   2.636
68501W        W35042   9.403  23.923   2.356
68502W        W35043  17.247  42.539  11.561
68503W        W35044   7.906  32.043  11.106
68504W        W35045  10.792   6.866   2.198
68505W        W35046  11.929  36.977   1.879
68506W        W35047  31.882  33.102  11.891
68507W        W35048  24.423  38.108  13.856
68508W        W35049  12.863  32.933  10.621
68509W        W35050  43.293  43.428   3.423
68510W        W35051  24.550  10.648  11.163
68511W        W35052  42.754  15.319   0.351
68512W        W35053   2.673   4.362   3.308
68513W        W35054  26.731  29.189   3.361
68514W        W35055  11.607  44.216  14.492
68515W        W35056  40.331   5.384   2.717
68516W        W35057   7.356  18.095   0.550
68517W        W35058  30.331  22.067  11.975
68518W        W35059  33.192  39.031   2.782
68519W        W35060   6.034  25.076  14.942
68520W        W35061  16.733  14.406  10.110
68521W        W35062   8.420  39.046  10.760
68522W        W35063  28.452  31.136   1.682
68523W        W35064  29.511   6.325  11.680
68524W        W35065  20.325  29.715  11.064
68525W        W35066   1.379  37.361   1.635
68526W        W35067   0.318  34.543  10.717
68527W        W35068  29.924  16.756   3.963
68528W        W35069  10.304  19.289   3.237
68529W        W35070   1.876   6.897   4.223
68530W        W35071  24.684  39.016  12.898
68531W        W35072   3.956  39.870   3.688
68532W        W35073   2.711  26.575  11.574
68533W        W35074  23.594  28.504   3.921
68534W        W35075   7.807  26.303   4.585
68535W        W35076   2.284  22.543   0.178
68536W        W35077  40.916   6.581  14.935
68537W        W35078   7.327  19.431  12.414
68538W        W35079  22.624  39.364   0.641
68539W        W35080   1.929  41.974   1.464
68540W        W35081  12.553  17.719  12.465
68541W        W35082  34.990  42.324  12.880
68542W        W35083   1.228   8.888  10.533
68543W        W35084  25.061  41.020   4.518
68544W        W35085  30.701   1.200   2.407
68545W        W35086  38.974  20.310  12.507
68546W        W35087  42.416  16.010  13.464
68547W        W35088  20.881  29.622  11.671
68548W        W35089  16.422  15.524   2.238
68549W        W35090  37.906  13.214   3.314
68550W        W35091  19.782   1.226   0.851
68551W        W35092  42.366   0.176  14.550
68552W        W35093  20.092   0.196   2.265
68553W        W35094   5.932   5.238   4.265
68554W        W35095  13.112   3.823  14.296
68555W        W35096  14.612  13.373  11.447
68556W        W35097  27.130  30.521  11.656
68557W        W35098  25.368  33.373   3.197
68558W        W35099  23.096  15.729   2.567
68559W        W35100  37.305  22.997   2.722
68560W        W35101  39.398  28.607  12.800
68561W        W35102  36.881   1.917   3.581
68562W        W35103  38.893  21.669   0.705
68563W        W35104  33.412  34.499  12.912
68564W        W35105  13.236  18.692   2.247
68565W        W35106  24.956  30.742  13.432
68566W        W35107  11.321   7.757  14.777
68567W        W35108  23.659  31.822   4.025
68568W        W35109  20.203   1.571  13.429
68569W        W35110  42.777  20.345   4.425
68570W        W35111  25.158  14.050   4.530
68571W        W35112  28.412   5.855  12.741
68572W        W35113  29.008  15.739   3.847
68573W        W35114   6.735   6.771   2.853
68574W        W35115  13.266   1.479  12.267
68575W        W35116   9.851   4.953  10.328
68576W        W35117  11.833  26.937  13.779
68577W        W35118   9.331  36.172   2.592
68578W        W35119  17.637  23.546  12.396
68579W        W35120   7.953   3.946   1.349
68580W        W35121  29.615  36.992   1.385
68581W        W35122  37.333  17.443  12.953
68582W        W35123  33.394  44.433  11.503
68583W        W35124  16.871  18.351  12.862
68584W        W35125  41.704  37.489  11.665
68585W        W35126  31.164   2.408   2.256
68586W        W35127  40.560  13.847  13.998
68587W        W35128  33.443  42.379  13.442
68588W        W35129   4.096   3.319   4.184
68589W        W35130  35.777  14.545  10.698
68590W        W35131   4.031  34.824  13.221
68591W        W35132  12.259   1.059  14.021
68592W        W35133  43.373  42.246  14.123
68593W        W35134  22.295   3.970  10.729
68594W        W35135   3.378   5.721   0.046
68595W        W35136  39.885  23.310  14.206
68596W        W35137   7.898  17.601   1.232
68597W        W35138  18.732  43.952  12.739
68598W        W35139  20.520  10.206  14.917
68599W        W35140   1.982  12.681  10.799
68600W        W35141  23.131  13.188   2.458
68601W        W35142  33.434  15.103   0.879
68602W        W35143   8.772   4.212  14.789
68603W        W35144  39.569  24.541   4.540
68604W        W35145  37.226  14.690  14.897
68605W        W35146  12.909  14.392   1.232
68606W        W35147  19.073  16.114  13.903
68607W        W35148  13.824  22.797  12.411
68608W        W35149   5.883  19.660   0.202
68609W        W35150   8.908  28.453   2.785
68610W        W35151   8.773  22.616  13.915
68611W        W35152  15.732  12.184  10.162
68612W        W35153  39.797  28.888  11.117
68613W        W35154  33.063  13.492  10.377
68614W        W35155  16.270  18.994   0.599
68615W        W35156  27.517  25.732   3.671
68616W        W35157   7.326  28.181   4.843
68617W        W35158  25.030  28.709   2.827
68618W        W35159  10.677  16.669   1.122
68619W        W35160  24.719   7.359   4.224
68620W        W35161   0.828  23.794   0.024
68621W        W35162  33.077   7.717  14.127
68622W        W35163  41.549  36.949  14.981
68623W        W35164  32.525  19.242   4.583
68624W        W35165  37.737  12.233  14.086
68625W        W35166  24.208   4.752   2.832
68626W        W35167  25.605  18.565   0.816
68627W        W35168   8.909  25.128  13.368
68628W        W35169  44.961  22.161   4.765
68629W        W35170  39.502  25.935   1.888
68630W        W35171   5.227  24.430  12.808
68631W        W35172  32.161   6.882   1.901
68632W        W35173  34.164   9.817  11.077
68633W        W35174   7.238  32.622   4.207
68634W        W35175  39.372   6.107   0.761
68635W        W35176   2.502  27.135  12.459
68636W        W35177  17.734  20.641   2.297
68637W        W35178  22.597  31.783  14.598
68638W        W35179  25.859  35.857  12.165
68639W        W35180  41.876  12.241   4.675
68640W        W35181  23.186  43.707  14.716
68641W        W35182  19.662   4.906   0.817
68642W        W35183  36.479   8.163  11.870
68643W        W35184  11.664  32.358  13.010
68644W        W35185  25.162  34.385   3.957
68645W        W35186  25.514  22.555   3.740
68646W        W35187   9.715   1.268   3.306
68647W        W35188  33.371  11.220   4.003
68648W        W35189  17.659   9.076   3.589
68649W        W35190  43.441   8.141   1.777
68650W        W35191  23.132  33.027   1.431
68651W        W35192  15.601   7.409  10.718
68652W        W35193  35.477  33.075  10.995
68653W        W35194   8.448  35.117  13.808
68654W        W35195  27.254  13.528   2.705
68655W        W35196   6.773  19.505   4.148
68656W        W35197  34.002  43.752  14.335
68657W        W35198  43.252   0.930   3.241
68658W        W35199  36.599  41.611  11.530
68659W        W35200  44.341   9.905   4.060
68660W        W35201  36.219  35.547   3.434
68661W        W35202  25.103  13.158  12.154
68662W        W35203  34.406  43.936  14.572
68663W        W35204  37.420  20.662  13.554
68664W        W35205   2.846  22.239  14.408
68665W        W35206  10.147   0.879  11.605
68666W        W35207  22.230  18.767   3.237
68667W        W35208   8.331  37.467  13.998
68668W        W35209   6.844  37.440  10.608
68669W        W35210  11.195   2.903   0.220
68670W        W35211  10.698  18.504   2.342
68671W        W35212  36.562   1.480   1.811
68672W        W35213  28.270   3.171  14.375
68673W        W35214  18.242  29.905   0.760
68674W        W35215  12.089  35.343  11.158
68675W        W35216   1.861  18.069  14.906
68676W        W35217  38.422  30.568  14.312
68677W        W35218  39.285  13.773  11.696
68678W        W35219   6.435  32.435  12.292
68679W        W35220  37.503  13.377  14.755
68680W        W35221  12.647  27.540   4.361
68681W        W35222   8.007  21.985   1.844
68682W        W35223  29.626  20.938   2.865
68683W        W35224  16.068  10.849  13.468
68684W        W35225  40.889  26.522  13.763
68685W        W35226   1.782  23.984   1.566
68686W        W35227   3.308   5.386   4.030
68687W        W35228  42.478   0.035   4.340
68688W        W35229  26.261   6.751  12.534
68689W        W35230  41.930  11.302   3.709
68690W        W35231  34.145   4.215  14.943
68691W        W35232   5.186  42.525   1.873
68692W        W35233  33.616  21.551  11.938
68693W        W35234  11.859   2.950   0.843
68694W        W35235  31.397  10.701   4.657
68695W        W35236  39.041  42.905  14.387
68696W        W35237   5.653  22.157  11.580
68697W        W35238   1.100  13.035  14.067
68698W        W35239  33.119  44.059   2.570
68699W        W35240   2.183  17.598  12.130
68700W        W35241  30.584  42.245  13.652
68701W        W35242  31.688  39.891   2.751
68702W        W35243  14.084   9.795   3.791
68703W        W35244  11.412   8.150   4.314
68704W        W35245  25.498  33.891  13.736
68705W        W35246  21.268  12.893   4.016
68706W        W35247  19.047   4.744   1.396
68707W        W35248  31.595  41.526  11.981
68708W        W35249   2.175  33.342  10.274
68709W        W35250  36.670  33.957  13.845
68710W        W35251  25.894  16.881  14.835
68711W        W35252  42.412   8.622   0.031
68712W        W35253  37.755  12.925   1.640
68713W        W35254   2.885  27.746   4.640
68714W        W35255  28.644  38.827  13.570
68715W        W35256  20.467  30.538  14.345
68716W        W35257  17.279   5.709   1.120
68717W        W35258  32.354  27.054   3.873
68718W        W35259  31.361  31.457   2.459
68719W        W35260  33.082  39.801   4.215
68720W        W35261  24.872  19.835  11.171
68721W        W35262  44.843  35.144   4.595
68722W        W35263  27.552  25.196   4.248
68723W        W35264  26.430  31.664   3.230
68724W        W35265  40.625  16.759  12.343
68725W        W35266   3.005  44.075   1.237
68726W        W35267  17.615  29.164   2.340
68727W        W35268   2.717  16.493   1.709
68728W        W35269  38.454   6.218   1.418
68729W        W35270  15.160  20.144  14.552
68730W        W35271  39.357  12.855  14.310
68731W        W35272   1.004  31.393   2.245
68732W        W35273   9.678  13.084   3.225
68733W        W35274  36.816  39.568  14.795
68734W        W35275  33.952  20.894   1.460
68735W        W35276   7.962  42.422   3.712
68736W        W35277   1.383  30.053   3.211
68737W        W35278  28.383  10.747  10.004
68738W        W35279  37.806  31.844   1.858
68739W        W35280  29.052  34.615  14.087
68740W        W35281  16.106   6.218   1.364
68741W        W35282  36.105  44.835   2.248
68742W        W35283  24.729  30.101   1.195
68743W        W35284  13.246  14.647   4.345
68744W        W35285  40.262  42.622  11.095
68745W        W35286   1.783  33.634   1.772
68746W        W35287  37.280   1.901   3.204
68747W        W35288   4.808  43.088   0.491
68748W        W35289  38.603  34.334   1.420
68749W        W35290  42.869   3.276   1.286
68750W        W35291  17.330  30.727   9.913
68751W        W35292  21.128  33.449  14.412
68752W        W35293  26.662   6.281  10.659
68753W        W35294   7.878  12.648  11.599
68754W        W35295  17.290  41.487  14.993
68755W        W35296  30.421   2.315   1.797
68756W        W35297  43.436  43.697   2.814
68757W        W35298   1.175  14.758   2.801
68758W        W35299   8.698  39.369  12.616
68759W        W35300   4.376  30.846   4.475
68760W        W35301  36.793   3.561   3.132
68761W        W35302  23.883  17.751   2.984
68762W        W35303   4.849   8.558   1.545
68763W        W35304  43.813  12.338  10.972
68764W        W35305  37.451  35.451  10.564
68765W        W35306   8.159  39.009   0.590
68766W        W35307   1.383   3.368   4.136
68767W        W35308  39.250  21.708   4.566
68768W        W35309   0.228  16.152   3.126
68769W        W35310  42.426   0.487  14.983
68770W        W35311  16.148  39.539  13.400
68771W        W35312   7.956   1.453  12.493
68772W        W35313  11.613  21.670   1.741
68773W        W35314   6.438   0.310   1.454
68774W        W35315  13.604  15.195   2.825
68775W        W35316  44.436  35.648   3.553
68776W        W35317  33.656  24.400  10.160
68777W        W35318  39.860  44.641   1.204
68778W        W35319   2.730  29.317   0.883
68779W        W35320  16.488  44.708   4.110
68780W        W35321   2.109  18.780  13.458
68781W        W35322  22.166  36.357  14.399
68782W        W35323  22.105   1.153   0.841
68783W        W35324  17.664   5.247  12.077
68784W        W35325  37.874  40.088  11.142
68785W        W35326  23.740  41.950   1.662
68786W        W35327  28.834  15.190  14.500
68787W        W35328  38.888  28.044  13.949
68788W        W35329  33.517  34.892   1.282
68789W        W35330  38.059  25.178   0.653
68790W        W35331  32.655  25.594  10.626
68791W        W35332  44.297  20.470  11.965
68792W        W35333  35.395  43.349   0.114
68793W        W35334  11.310  24.679   1.577
68794W        W35335   7.202  32.906  11.747
68795W        W35336  17.786  21.028   0.835
68796W        W35337  43.812  25.102   0.452
68797W        W35338   6.602  15.257  12.767
68798W        W35339  14.310  23.183   3.652
68799W        W35340  35.053  28.024  14.310
68800W        W35341  28.860  26.913  11.018
68801W        W35342   3.465  35.949  11.339
68802W        W35343   9.530  23.172   3.228
68803W        W35344   5.164  44.362  14.318
68804W        W35345  26.236  42.043  12.896
68805W        W35346  10.263  11.329   2.010
68806W        W35347  10.229  17.311  11.262
68807W        W35348   8.161   0.374  14.251
68808W        W35349   3.992  43.347  12.712
68809W        W35350  11.449  40.998   0.040
68810W        W35351  40.878  37.266   2.841
68811W        W35352  31.689  24.997  12.873
68812W        W35353  30.152  28.371  11.458
68813W        W35354  25.997  21.250   3.041
68814W        W35355   9.688  29.939  14.883
68815W        W35356  37.186  29.921   3.523
68816W        W35357  34.636  43.036   1.729
68817W        W35358  41.836  44.742  14.941
68818W        W35359  27.714  39.419   3.970
68819W        W35360   6.840  21.213  12.245
68820W        W35361   3.976  12.103  14.004
68821W        W35362  21.548  21.471  14.348
68822W        W35363  15.830  23.187   3.770
68823W        W35364  40.584  17.596   3.643
68824W        W35365  31.867  14.219   1.937
68825W        W35366  16.331  33.864  10.176
68826W        W35367  32.110   3.222   2.728
68827W        W35368  36.912   9.688   2.922
68828W        W35369   6.741  22.172   0.506
68829W        W35370   6.102  41.589   4.657
68830W        W35371  18.735   5.922   3.310
68831W        W35372  33.148  30.945   2.454
68832W        W35373  44.195  25.393   1.868
68833W        W35374  44.981  39.963   3.693
68834W        W35375   5.330  44.325   4.760
68835W        W35376  19.845  24.282  12.114
68836W        W35377   0.852  21.733   0.960
68837W        W35378  22.312  27.538  13.388
68838W        W35379  35.990  17.143  12.914
68839W        W35380  22.879   0.228   3.630
68840W        W35381  40.610  33.628  12.208
68841W        W35382  40.871   2.135   4.505
68842W        W35383  44.792  14.010  13.385
68843W        W35384  31.589  35.752   0.236
68844W        W35385  12.970  33.091  12.129
68845W        W35386  14.515  40.927  11.481
68846W        W35387  30.432  16.291  11.548
68847W        W35388  21.691  40.443  14.070
68848W        W35389  21.595  31.593  11.256
68849W        W35390  22.797   9.581   0.659
68850W        W35391  29.520  44.023  14.022
68851W        W35392  29.191   3.043  11.173
68852W        W35393  30.997   0.198  10.673
68853W        W35394  44.711  35.311  11.582
68854W        W35395  24.702   3.716  10.994
68855W        W35396  17.524  35.922  11.486
68856W        W35397  12.713  21.702   2.625
68857W        W35398  33.125  31.940  14.828
68858W        W35399  13.662  11.102  11.144
68859W        W35400  17.026  40.515   1.265
68860W        W35401   4.005  38.081   4.656
68861W        W35402  43.838  17.094   3.166
68862W        W35403  20.623  38.247   3.960
68863W        W35404  38.604  20.029  10.953
68864W        W35405   0.267  24.246   1.741
68865W        W35406  38.244  13.430   4.603
68866W        W35407   0.229   0.949   4.080
68867W        W35408  40.290  20.912  14.328
68868W        W35409  34.932  29.171   3.247
68869W        W35410  16.708   5.242   1.264
68870W        W35411  38.813  18.845   2.249
68871W        W35412  19.925  33.386  10.950
68872W        W35413  35.023  39.816   0.834
68873W        W35414  11.525  23.467  12.522
68874W        W35415  23.952  14.428   1.772
68875W        W35416   9.311   0.277   1.119
68876W        W35417  29.934   3.785   3.370
68877W        W35418  37.459  20.785   0.535
68878W        W35419   1.778  30.642   0.305
68879W        W35420  17.835  34.545   4.102
68880W        W35421  14.504  26.546  13.447
68881W        W35422   5.603   9.155   1.182
68882W        W35423  26.545  15.342  13.793
68883W        W35424  18.259  27.552  11.947
68884W        W35425  27.326  20.810  13.789
68885W        W35426  30.655  42.665  10.264
68886W        W35427  38.831  31.632   2.691
68887W        W35428  27.394   4.266  11.606
68888W        W35429  38.314  10.500   0.355
68889W        W35430  11.203   1.475   2.270
68890W        W35431  16.675  17.417   2.317
68891W        W35432  26.501  28.243  13.458
68892W        W35433  28.061  25.403  10.245
68893W        W35434  42.516  15.932  12.570
68894W        W35435  24.173  31.556  12.327
68895W        W35436  25.586  25.458   3.079
68896W        W35437  16.667  28.476   1.186
68897W        W35438  36.090   7.198  12.537
68898W        W35439  11.735  13.816  13.939
68899W        W35440  28.253  10.764   1.248
68900W        W35441  15.803  34.579   2.712
68901W        W35442   7.515  42.682   1.678
68902W        W35443  10.244  37.001   3.191
68903W        W35444  20.208  34.867  12.514
68904W        W35445  17.500  17.084  14.010
68905W        W35446  12.706  14.042  14.555
68906W        W35447  39.986  14.134  14.031
68907W        W35448  34.947   5.066  10.120
68908W        W35449   4.707  12.809  14.888
68909W        W35450  20.972   5.757  14.904
68910W        W35451  35.324  36.098  13.745
68911W        W35452  29.725  40.895   1.350
68912W        W35453  28.908   8.135  13.505
68913W        W35454  35.102   3.487   1.681
68914W        W35455  26.494  28.584   4.248
68915W        W35456  29.971  43.620   3.383
68916W        W35457  44.522  24.051   1.318
68917W        W35458  33.714  15.288  14.155
68918W        W35459  28.220  32.097   4.154
68919W        W35460   0.886  21.558  12.090
68920W        W35461   0.299  29.852   2.678
68921W        W35462  39.992  14.116  12.445
68922W        W35463  14.312   4.620  13.314
68923W        W35464  27.756   1.226  11.717
68924W        W35465  36.090  24.696   4.473
68925W        W35466  43.989   5.748  14.326
68926W        W35467   7.713  18.162  10.781
68927W        W35468  16.237  36.984   2.794
68928W        W35469  35.105   6.970   1.302
68929W        W35470   9.870  20.591  10.632
68930W        W35471  42.824  17.068   3.252
68931W        W35472   7.793  13.366   2.926
68932W        W35473  10.094  17.766  14.503
68933W        W35474  16.326  21.403   0.856
68934W        W35475  37.139  31.032   0.843
68935W        W35476  33.483  13.571   2.344
68936W        W35477  42.727  17.216  12.365
68937W        W35478  22.081  20.228   1.995
68938W        W35479   4.739  20.496   0.300
68939W        W35480  33.207  37.800  14.357
68940W        W35481  41.822  10.455   3.793
68941W        W35482  23.121  15.504  14.923
68942W        W35483   3.115   5.850   2.404
68943W        W35484  14.804  23.039  11.770
68944W        W35485  28.863   4.278  12.611
68945W        W35486  14.705  24.084  14.390
68946W        W35487  14.720  18.030  13.134
68947W        W35488  33.049  39.124  13.659
68948W        W35489   6.416  11.234  11.979
68949W        W35490  17.367  34.655   0.301
68950W        W35491  13.761  11.660   0.480
68951W        W35492  13.195   0.903   3.736
68952W        W35493  38.648  23.767  12.594
68953W        W35494   3.548  12.703  12.935
68954W        W35495  27.915  18.767   3.046
68955W        W35496  34.598   5.884   0.414
68956W        W35497  40.698  41.330   0.190
68957W        W35498  31.335  41.804  12.928
68958W        W35499   9.372  26.946   3.870
68959W        W35500  40.944  13.231   0.392
68960W        W35501  38.170  21.115  12.059
68961W        W35502  40.341  37.260   2.662
68962W        W35503  37.035  28.006   0.395
68963W        W35504   4.286  24.027  12.933
68964W        W35505  22.932  15.144  12.200
68965W        W35506   8.143   8.269   0.329
68966W        W35507   2.203  16.084   3.027
68967W        W35508  43.607   7.782  11.862
68968W        W35509   7.790  33.465  14.932
68969W        W35510  11.136  17.750   4.140
68970W        W35511  14.337  37.452  14.827
68971W        W35512   3.293  30.303  12.798
68972W        W35513  34.919  26.347   1.427
68973W        W35514   9.443  18.727  12.834
68974W        W35515  11.126  15.541  14.100
68975W        W35516  20.491   2.333   0.004
68976W        W35517  10.233  38.268   9.932
68977W        W35518  31.275  17.023   9.689
68978W        W35519  11.685  30.307  14.363
68979W        W35520  18.558  14.780   0.804
68980W        W35521   4.908  27.138   3.270
68981W        W35522  31.671  31.128   0.326
68982W        W35523  32.135  19.425   3.463
68983W        W35524  37.990  13.351  10.562
68984W        W35525  34.437  26.183  13.675
68985W        W35526  22.984  15.172   2.421
68986W        W35527  12.782  29.132  10.290
68987W        W35528  33.184  27.479  13.120
68988W        W35529   1.237  25.790  13.509
68989W        W35530  31.528  33.650   3.527
68990W        W35531  35.828   1.308  10.705
68991W        W35532   9.069   3.744   3.639
68992W        W35533  17.685   7.952  14.765
68993W        W35534  18.087  36.230   0.848
68994W        W35535  25.692   1.377   3.209
68995W        W35536   9.374   2.550  11.168
68996W        W35537  16.312  12.392  13.032
68997W        W35538   1.945  28.609  10.870
68998W        W35539  29.608  24.235   0.500
68999W        W35540  33.422  37.065   0.321
69000W        W35541  26.052  16.761  13.159
69001W        W35542  37.945  32.438  12.412
69002W        W35543  34.221  18.339  12.931
69003W        W35544  19.175  27.983  12.079
69004W        W35545  37.314  43.496   0.178
69005W        W35546   4.109  20.226  12.104
69006W        W35547  31.488  19.254  12.248
69007W        W35548   6.642  15.171  11.940
69008W        W35549  21.225  18.937   1.206
69009W        W35550   3.352  19.721   0.145
69010W        W35551   8.447  11.781  12.527
69011W        W35552   3.417   7.331  10.628
69012W        W35553  39.941  28.020  14.323
69013W        W35554   5.165  44.631   1.190
69014W        W35555  31.573  28.568  13.682
69015W        W35556  13.296  30.607   2.072
69016W        W35557  42.106  33.179   1.914
69017W        W35558  25.676  21.078   9.936
69018W        W35559  16.060  16.703   4.227
69019W        W35560  34.631   3.740   0.296
69020W        W35561  13.807  11.279   1.350
69021W        W35562  18.982  39.926   1.498
69022W        W35563  35.457   9.283   2.006
69023W        W35564   7.894  36.480   4.232
69024W        W35565  17.292   4.403  11.084
69025W        W35566  33.057  30.527   0.299
69026W        W35567  15.432  35.867  13.493
69027W        W35568  10.711   5.438  14.765
69028W        W35569  24.774   9.368   0.281
69029W        W35570  19.188  44.163   0.390
69030W        W35571  39.556  23.473  12.340
69031W        W35572  41.540  25.964  12.145
69032W        W35573  33.783  27.876  10.184
69033W        W35574  44.480  12.987   0.871
69034W        W35575  10.841   1.892   0.039
69035W        W35576  19.710  33.067  12.127
69036W        W35577  18.044  10.192  12.899
69037W        W35578  18.090  32.596   2.186
69038W        W35579  32.493  31.179  12.790
69039W        W35580  22.783  20.187   4.721
69040W        W35581  37.879  40.054   4.394
69041W        W35582  31.209  44.409   1.672
69042W        W35583  21.099   9.015  10.193
69043W        W35584  35.356   5.482  14.675
69044W        W35585  33.160   6.736  13.078
69045W        W35586  31.957  18.837  11.099
69046W        W35587  34.319   6.206   5.287
69047W        W35588  27.541  43.288   1.456
69048W        W35589  35.193  28.462   0.600
69049W        W35590  22.644  33.453  14.896
69050W        W35591  21.917  20.377  13.545
69051W        W35592  33.123  43.914  11.562
69052W        W35593  19.660   0.440  12.444
69053W        W35594  27.102  23.016   4.647
69054W        W35595  44.737  21.069  12.413
69055W        W35596  15.377  23.112  13.341
69056W        W35597   9.738  12.356  14.784
69057W        W35598  35.922  25.690  10.834
69058W        W35599  43.286  20.322  14.360
69059W        W35600  34.009  19.125   0.441
69060W        W35601   4.810  34.946   1.172
69061W        W35602   6.888  23.288  13.597
69062W        W35603  10.825  35.527  11.060
69063W        W35604  17.657   7.982   0.695
69064W        W35605  23.130   7.782   1.932
69065W        W35606  44.494  27.340   0.264
69066W        W35607  34.044  40.119  12.362
69067W        W35608   5.707  38.414   0.557
69068W        W35609  13.838  22.141  11.499
69069W        W35610  11.524  21.324  14.035
69070W        W35611  20.786  43.398   2.385
69071W        W35612  24.990   8.959  12.524
69072W        W35613  16.257  12.183   1.668
69073W        W35614  20.661   0.055   2.584
69074W        W35615  10.189  44.818  13.337
69075W        W35616  44.848  33.866   1.220
69076W        W35617  10.785  27.766   4.216
69077W        W35618  21.372  18.634  14.775
69078W        W35619  43.896  29.909   4.376
69079W        W35620   3.500  12.611   4.346
69080W        W35621  30.689  27.276  10.638
69081W        W35622   2.806  34.099  10.258
69082W        W35623   6.886  24.924  12.866
69083W        W35624  32.454   5.453  14.953
69084W        W35625  40.654   4.875   3.517
69085W        W35626  25.493  35.448   1.826
69086W        W35627  35.393  32.170   0.909
69087W        W35628  23.041   7.115   1.955
69088W        W35629  38.007  38.855  12.472
69089W        W35630  32.483  17.578  11.980
69090W        W35631  21.291  23.561  10.640
69091W        W35632  14.664  40.816  10.082
69092W        W35633  23.641  24.494  13.215
69093W        W35634   4.681  21.511   0.452
69094W        W35635  25.455   4.934   4.106
69095W        W35636  13.607   3.272   4.833
69096W        W35637  35.799   5.024  13.526
69097W        W35638  29.315  15.773   2.966
69098W        W35639  41.814  39.106   0.778
69099W        W35640  39.422  33.375   4.051
69100W        W35641  36.750  13.102   4.099
69101W        W35642   8.028  27.134   0.265
69102W        W35643  22.056   9.354  12.260
69103W        W35644  17.760  14.705   1.525
69104W        W35645  17.325  10.668  10.547
69105W        W35646  27.222   8.477  12.363
69106W        W35647  18.790  30.834   2.270
69107W        W35648   7.909  32.053   1.426
69108W        W35649   2.753  43.006  12.023
69109W        W35650   1.670  20.632  14.065
69110W        W35651  20.522  38.208   2.836
69111W        W35652  33.187   5.519  10.456
69112W        W35653  16.547  36.050  11.139
69113W        W35654  35.938   8.079  14.329
69114W        W35655  44.874  38.633  11.996
69115W        W35656  13.802  29.919  13.373
69116W        W35657  22.341  25.208   1.246
69117W        W35658  42.755   9.178   2.665
69118W        W35659  44.816   5.109  10.658
69119W        W35660  11.555  44.096  11.049
69120W        W35661  15.643  24.148  13.314
69121W        W35662   6.078  23.389  11.118
69122W        W35663  30.648  38.772  14.777
69123W        W35664   6.708  14.770  10.965
69124W        W35665  28.383  38.918   4.206
69125W        W35666  36.541   9.028  12.260
69126W        W35667  39.429  19.792  12.922
69127W        W35668   9.219  17.197  14.155
69128W        W35669  42.233  17.884  12.534
69129W        W35670   2.748  26.437  12.485
69130W        W35671  18.645  37.638  12.938
69131W        W35672  14.727  36.002   1.041
69132W        W35673  19.126  12.274   1.906
69133W        W35674  10.839  42.693  13.941
69134W        W35675  18.745  29.622   1.800
69135W        W35676  27.684  18.738  13.039
69136W        W35677  41.516   6.745   3.190
69137W        W35678   2.894   0.543  11.958
69138W        W35679  36.447   8.019   2.741
69139W        W35680  35.387  34.204  13.337
69140W        W35681  23.155  27.280   3.716
69141W        W35682  12.072   9.302   0.077
69142W        W35683  19.202   7.725  10.578
69143W        W35684  29.622   2.788   3.329
69144W        W35685   2.545   2.035   1.773
69145W        W35686  36.995  13.699   2.502
69146W        W35687  35.905  43.299  11.184
69147W        W35688   1.926  31.034   2.640
69148W        W35689  22.345  24.985  11.919
69149W        W35690  40.863  26.612   2.961
69150W        W35691  34.420  41.389   4.231
69151W        W35692  40.034  28.082  10.703
69152W        W35693  17.146  23.158  11.795
69153W        W35694  31.068  40.820  12.041
69154W        W35695  10.151  28.052   1.958
69155W        W35696   0.803  16.987   4.205
69156W        W35697  14.769  25.578  14.413
69157W        W35698  10.447  42.422  14.207
69158W        W35699  33.986   9.662  14.847
69159W        W35700  14.774  20.597   2.758
69160W        W35701  35.490   3.710  14.935
69161W        W35702  34.979  21.830  14.391
69162W        W35703   2.312   7.094  14.950
69163W        W35704   5.037  11.535  14.578
69164W        W35705  40.669   3.961   1.784
69165W        W35706  11.213  30.001   1.418
69166W        W35707  31.420  10.121  11.146
69167W        W35708  23.642   2.753  13.373
69168W        W35709  29.714  34.444   2.699
69169W        W35710   6.518  44.873  10.295
69170W        W35711  28.834  41.296   4.069
69171W        W35712  18.222  17.058   2.165
69172W        W35713  37.972  35.123   0.335
69173W        W35714  31.822  33.697  13.480
69174W        W35715  36.260   8.678   3.915
69175W        W35716  39.954   8.607   1.261
69176W        W35717   7.705   8.587   4.562
69177W        W35718   5.076  25.704   2.241
69178W        W35719  13.820  28.446  10.635
69179W        W35720   0.019  20.238  13.663
69180W        W35721  33.413  38.455  11.686
69181W        W35722   8.948   5.133  14.998
69182W        W35723   9.419  41.912   0.260
69183W        W35724  22.328   4.354  13.721
69184W        W35725   9.580  36.871   0.652
69185W        W35726  23.061  23.220  13.560
69186W        W35727  20.030  21.219  13.347
69187W        W35728   8.700  22.962   4.188
69188W        W35729  20.834  44.962   2.105
69189W        W35730  34.515  30.418  13.017
69190W        W35731  16.601  10.912  13.416
69191W        W35732  40.510  27.444   2.671
69192W        W35733  30.388   5.181  10.794
69193W        W35734  30.525  33.377   1.439
69194W        W35735  36.601  14.346   3.798
69195W        W35736  11.012  32.842  12.142
69196W        W35737  21.680  16.047  13.287
69197W        W35738  41.292  40.506  10.599
69198W        W35739   2.284  13.250  10.827
69199W        W35740   7.742  23.501  12.498
69200W        W35741  43.836  29.959   1.907
69201W        W35742  32.208   9.952   0.370
69202W        W35743  37.011  24.115   1.769
69203W        W35744  36.243  29.634  14.351
69204W        W35745  34.696   0.119   1.859
69205W        W35746  41.892   7.031   4.554
69206W        W35747  44.837  28.628  14.446
69207W        W35748   5.761  40.029   4.146
69208W        W35749  31.207  18.190   2.311
69209W        W35750  33.056  20.264  14.600
69210W        W35751  33.434  32.727  13.929
69211W        W35752  26.131  38.011  14.431
69212W        W35753  21.717  30.590  10.673
69213W        W35754  14.245  21.406   2.566
69214W        W35755  28.167  30.759  13.403
69215W        W35756  17.095  41.906  14.302
69216W        W35757   4.720   2.792   1.809
69217W        W35758   2.786  41.554   1.478
69218W        W35759   3.926  19.015   3.735
69219W        W35760  21.271  41.861  10.532
69220W        W35761  19.466   5.547   5.022
69221W        W35762  14.722  26.501  12.963
69222W        W35763  20.217  38.469  13.228
69223W        W35764   7.021  20.297   0.867
69224W        W35765  34.540  29.572  13.459
69225W        W35766  37.776  34.776  12.898
69226W        W35767  18.183   5.162   2.410
69227W        W35768  32.370  29.946  11.543
69228W        W35769  14.833   1.934   3.110
69229W        W35770  19.191  28.491  12.051
69230W        W35771  17.404  13.541  12.162
69231W        W35772  26.631  10.657   0.874
69232W        W35773  42.543  42.590   2.699
69233W        W35774  37.889   3.465  14.911
69234W        W35775  14.770  34.151  10.345
69235W        W35776  24.593  26.073   3.396
69236W        W35777  22.777   7.976  12.583
69237W        W35778   8.784  28.077   4.688
69238W        W35779  25.692  21.124   0.164
69239W        W35780  30.441  25.594   1.767
69240W        W35781  16.140  18.224   4.198
69241W        W35782  33.953  39.473  11.514
69242W        W35783   7.659   2.826  14.945
69243W        W35784   9.404  19.127  13.534
69244W        W35785   7.766  16.320   3.437
69245W        W35786  31.904  44.792   4.800
69246W        W35787  20.811  42.032   3.604
69247W        W35788  20.300  44.104  13.181
69248W        W35789   0.170   0.035   0.935
69249W        W35790  44.805  40.201  14.080
69250W        W35791  34.928   8.214  14.319
69251W        W35792   1.579  36.904  10.709
69252W        W35793   4.645  14.339   0.937
69253W        W35794  25.558   0.532  12.063
69254W        W35795   8.446   5.507  11.115
69255W        W35796  34.393   6.012   3.902
69256W        W35797  14.901  22.211  12.184
69257W        W35798   9.803   5.269   0.217
69258W        W35799   2.800  10.071  14.925
69259W        W35800  36.250   3.244  11.491
69260W        W35801  28.063  20.090  12.895
69261W        W35802  44.864  32.674   1.862
69262W        W35803  43.987  15.135   0.424
69263W        W35804  36.290  39.999  12.473
69264W        W35805  31.884   5.281   3.218
69265W        W35806  38.992   2.715   4.174
69266W        W35807  21.237   3.754   2.905
69267W        W35808   0.459  24.306  10.637
69268W        W35809   6.972  39.689  13.015
69269W        W35810  24.587  26.560   0.292
69270W        W35811   4.946   3.471   2.115
69271W        W35812  18.605  20.756   2.347
69272W        W35813  23.928  12.777  14.988
69273W        W35814  40.910  35.128   0.271
69274W        W35815   7.216  41.159   1.675
69275W        W35816  19.017  38.932  11.015
69276W        W35817  39.489  28.080  14.728
69277W        W35818   0.038  10.777  12.374
69278W        W35819  39.341  40.366  14.679
69279W        W35820  23.454   5.457   2.224
69280W        W35821  30.080   0.980  13.867
69281W        W35822  31.520  39.939  11.485
69282W        W35823  36.709  42.386   5.012
69283W        W35824   9.143  37.620  14.973
69284W        W35825  27.659  43.941  13.445
69285W        W35826  39.756   0.063   4.294
69286W        W35827  18.493  42.979  11.216
69287W        W35828  37.331  15.375   3.653
69288W        W35829   7.640  37.402  13.409
69289W        W35830  25.386   2.533  12.543
69290W        W35831  29.119   4.047   2.613
69291W        W35832  39.333   0.662   3.597
69292W        W35833  10.586  44.539  13.191
69293W        W35834  38.013  39.144  10.257
69294W        W35835   7.152  41.204  13.875
69295W        W35836  38.994  24.687  13.590
69296W        W35837  15.730   9.648   1.426
69297W        W35838  19.298  40.218  13.296
69298W        W35839   7.086  37.680   4.552
69299W        W35840  31.902  34.511  10.136
69300W        W35841  43.895   1.006  11.811
69301W        W35842   5.087  22.172   4.124
69302W        W35843  19.924  32.347   4.733
69303W        W35844  36.355  29.500  14.887
69304W        W35845   0.337   8.096  11.645
69305W        W35846  24.395   2.070   0.108
69306W        W35847  16.798  40.472   2.449
69307W        W35848  16.322  37.525   2.856
69308W        W35849  43.389   7.853  13.753
69309W        W35850   2.509  43.294  11.677
69310W        W35851   4.525  33.022  12.196
69311W        W35852  44.955  43.394   3.137
69312W        W35853  32.112  20.780  10.669
69313W        W35854  37.665   0.877   2.247
69314W        W35855  42.782  15.648  11.543
69315W        W35856   6.094  13.865   3.361
69316W        W35857  34.644  12.162   1.790
69317W        W35858   1.306   6.808   2.203
69318W        W35859  16.143  31.614   2.786
69319W        W35860   4.635   7.842  13.370
69320W        W35861  34.650  36.523  14.227
69321W        W35862  37.285  26.587  13.155
69322W        W35863  14.852  39.531  11.052
69323W        W35864  11.758  42.008  14.732
69324W        W35865  29.177   8.782  12.899
69325W        W35866  30.893  16.826  13.815
69326W        W35867  30.061   7.074  11.492
69327W        W35868  22.222  35.814   0.927
69328W        W35869  28.202  44.599   1.547
69329W        W35870   7.225  43.139  14.442
69330W        W35871  38.308  36.630   2.969
69331W        W35872  39.403   0.472   4.570
69332W        W35873  21.001   5.994   3.693
69333W        W35874   8.184  27.183  11.647
69334W        W35875  17.075   8.653   4.596
69335W        W35876  26.708   4.252   0.510
69336W        W35877  11.626  10.039  13.463
69337W        W35878  40.420  13.362   0.364
69338W        W35879   6.842  37.819   2.894
69339W        W35880  36.525  24.114   4.546
69340W        W35881  28.164  16.183   0.726
69341W        W35882   8.741  35.909   1.220
69342W        W35883   8.347   1.810  12.947
69343W        W35884  10.643  16.708   0.123
69344W        W35885  13.386  21.309   4.231
69345W        W35886   0.873   2.043  12.046
69346W        W35887  16.702   5.234  14.841
69347W        W35888   6.751  24.054   1.881
69348W        W35889  32.211  10.463   0.295
69349W        W35890  24.963  19.923   4.234
69350W        W35891  28.213  34.590   4.009
69351W        W35892  37.669  27.457  10.717
69352W        W35893  21.090   5.745  12.034
69353W        W35894  30.700  29.105   4.116
69354W        W35895  35.063  17.961   0.725
69355W        W35896   9.669  25.693   0.453
69356W        W35897  36.222  24.960  10.319
69357W        W35898  31.138   6.264  10.160
69358W        W35899  18.784  42.773  11.783
69359W        W35900  36.061  16.598  12.009
69360W        W35901  27.867  44.940   4.083
69361W        W35902   1.095  27.577  11.460
69362W        W35903  11.594  27.102   1.854
69363W        W35904  18.506  21.758   2.254
69364W        W35905  25.981  37.858   1.713
69365W        W35906  15.132  36.807  13.310
69366W        W35907  18.103   3.229  12.036
69367W        W35908  28.264  27.949   4.507
69368W        W35909  33.365  36.064  12.968
69369W        W35910  33.175  40.853   3.695
69370W        W35911  30.893  40.634  11.108
69371W        W35912  31.015  15.209  14.934
69372W        W35913  29.456  20.301  13.099
69373W        W35914   0.806  10.195  13.671
69374W        W35915  44.784  28.724   2.328
69375W        W35916  18.557  15.790  12.260
69376W        W35917  33.330  35.841   4.496
69377W        W35918  24.199  38.828   1.925
69378W        W35919  12.390  41.411  12.078
69379W        W35920   3.270  41.309   3.273
69380W        W35921  20.309  13.481   2.585
69381W        W35922  26.643   4.275   1.424
69382W        W35923  24.932  33.963  12.501
69383W        W35924   1.737  30.728  12.051
69384W        W35925  31.562  43.669   1.227
69385W        W35926  31.458  26.681   0.110
69386W        W35927  18.609  34.208  12.161
69387W        W35928  44.757   1.049   3.942
69388W        W35929  16.869  32.212   2.687
69389W        W35930   2.968  40.837   1.990
69390W        W35931  15.882  19.560  14.986
69391W        W35932  34.028  26.419  10.669
69392W        W35933  32.836  33.305   0.766
69393W        W35934  16.021  25.917  14.732
69394W        W35935  27.840  11.675  11.454
69395W        W35936  27.635  21.987   0.846
69396W        W35937  10.315   2.868   1.469
69397W        W35938  19.230  20.456   4.164
69398W        W35939  38.936  25.995  10.135
69399W        W35940   6.107  44.442   5.045
69400W        W35941  28.250   6.808   1.770
69401W        W35942  14.765   1.764  14.100
69402W        W35943   5.446  15.293   4.522
69403W        W35944  43.446  43.862  11.980
69404W        W35945   5.790   5.420   2.492
69405W        W35946  15.965  11.172  14.098
69406W        W35947  15.549  20.491  12.487
69407W        W35948   8.756  42.893  11.061
69408W        W35949   0.909   1.573  12.293
69409W        W35950  42.932  42.160  14.362
69410W        W35951  28.416  15.242   2.744
69411W        W35952  23.454  11.798   3.194
69412W        W35953  20.248  18.845  11.675
69413W        W35954  31.666  34.586  13.548
69414W        W35955  11.345  27.661   2.634
69415W        W35956   7.779  18.102  11.688
69416W        W35957  29.131  12.775  12.870
69417W        W35958  13.555  17.289   2.876
69418W        W35959  14.883  13.451   5.095
69419W        W35960   3.863  38.957   3.685
69420W        W35961  39.160   7.550   3.105
69421W        W35962  24.821  11.112   4.548
69422W        W35963  13.784   2.340  10.248
69423W        W35964  40.430  18.731  12.673
69424W        W35965   7.897  18.923   0.430
69425W        W35966   5.426  36.157  12.884
69426W        W35967  40.674   4.508  12.061
69427W        W35968  42.516  37.937   1.885
69428W        W35969  36.691  19.183   2.759
69429W        W35970  43.553   3.950   1.010
69430W        W35971  27.349  32.889   1.421
69431W        W35972  44.332  34.126   2.201
69432W        W35973  37.729   0.475  13.585
69433W        W35974  20.978  32.153  10.070
69434W        W35975  22.379  31.986  11.956
69435W        W35976  12.171  25.114  12.008
69436W        W35977   7.749   6.261  11.514
69437W        W35978  31.993   7.099  11.956
69438W        W35979  36.287   9.438   3.257
69439W        W35980  18.873  34.803   1.404
69440W        W35981  17.685   2.929   1.502
69441W        W35982  38.339   2.986   1.215
69442W        W35983  33.851  39.405  13.399
69443W        W35984  11.384  10.862  13.042
69444W        W35985  27.097  33.070   1.844
69445W        W35986  13.737  40.760  12.591
69446W        W35987   0.383   8.918  11.115
69447W        W35988   2.974  25.971   3.579
69448W        W35989   5.766  42.718  13.607
69449W        W35990   1.165  29.720  12.890
69450W        W35991  43.806  22.749  13.890
69451W        W35992  20.549  17.050   3.225
69452W        W35993   8.161  14.397   4.167
69453W        W35994  31.469  21.581   4.599
69454W        W35995  34.086  24.990   3.231
69455W        W35996  32.109  13.200   2.333
69456W        W35997  10.280  41.687   3.701
69457W        W35998  11.316  27.564   3.203
69458W        W35999   6.166  28.548   3.618
69459W        W36000   8.175  39.013   2.996
69460W        W36001  30.555   5.906  11.573
69461W        W36002  31.986   8.900  10.602
69462W        W36003  38.786  39.923  14.819
69463W        W36004  43.009  19.536   3.758
69464W        W36005  12.438  12.428  13.373
69465W        W36006   2.988   0.319   1.850
69466W        W36007  17.115   1.707  10.975
69467W        W36008  14.273  30.865  14.549
69468W        W36009  43.040  13.621   2.455
69469W        W36010  32.924  27.726  14.902
69470W        W36011   8.498  16.825  10.615
69471W        W36012  40.299  33.142  13.061
69472W        W36013  27.131   9.402  14.109
69473W        W36014  38.747   3.828   9.977
69474W        W36015  43.860  23.149   2.901
69475W        W36016  40.941   5.664   3.386
69476W        W36017  24.527  16.519  12.162
69477W        W36018  43.859  35.600   0.828
69478W        W36019   0.007  28.494  12.025
69479W        W36020  24.514  25.273  14.428
69480W        W36021  42.813   2.203  11.441
69481W        W36022  28.298  17.122   3.175
69482W        W36023   3.658  28.752   5.281
69483W        W36024  36.413  10.723   2.410
69484W        W36025  21.007   9.159   0.173
69485W        W36026  14.112  29.986   3.970
69486W        W36027  31.162  36.957   3.204
69487W        W36028   8.728  39.504   2.666
69488W        W36029  44.548  10.198  14.489
69489W        W36030  37.053  28.724  12.925
69490W        W36031  40.919  35.587  14.630
69491W        W36032   1.098  13.368  14.854
69492W        W36033  20.015  26.157   5.107
69493W        W36034  39.743  40.367  10.714
69494W        W36035  43.756  19.104  10.405
69495W        W36036  23.588  21.217   2.888
69496W        W36037  29.040   3.920  13.847
69497W        W36038  35.420   0.731  13.089
69498W        W36039   4.707  41.075  11.230
69499W        W36040  36.578   5.856  11.777
69500W        W36041  38.052  25.673   2.866
69501W        W36042  29.441  20.978  10.952
69502W        W36043   3.525  31.711  13.065
69503W        W36044   6.419  22.106  13.028
69504W        W36045  38.331  40.741   0.623
69505W        W36046  37.762   5.918  14.956
69506W        W36047  35.975  31.162   2.132
69507W        W36048  39.317   2.318  11.071
69508W        W36049  14.191  37.035  12.611
69509W        W36050  31.935  39.791   2.302
69510W        W36051   0.487   2.845  10.660
69511W        W36052  22.666  12.619  12.050
69512W        W36053  26.742  44.323   4.521
69513W        W36054  23.213  28.600  13.036
69514W        W36055  38.377  26.261  13.098
69515W        W36056  14.730  13.154   2.205
69516W        W36057  36.239   5.294  13.469
69517W        W36058   8.814   8.142   1.879
69518W        W36059  17.071   1.358   1.145
69519W        W36060   9.373   1.553  10.331
69520W        W36061  22.507  16.286  11.136
69521W        W36062  27.736   1.724  11.818
69522W        W36063   2.930   8.271  13.852
69523W        W36064  14.727  10.723  10.417
69524W        W36065  19.839   2.869  14.899
69525W        W36066  41.464  29.611   2.409
69526W        W36067  25.490  23.123   3.076
69527W        W36068  39.912   9.078  11.170
69528W        W36069  34.388  26.689   0.567
69529W        W36070   6.270  31.021  11.864
69530W        W36071   5.703   1.755  14.836
69531W        W36072  12.580  34.357   0.882
69532W        W36073  38.467  25.635  10.594
69533W        W36074   7.225  13.353  14.453
69534W        W36075   9.373  32.780   2.189
69535W        W36076  15.866  28.649  12.135
69536W        W36077   8.403  41.058   0.372
69537W        W36078  36.413  32.550   2.913
69538W        W36079   4.588   8.862   2.375
69539W        W36080   3.543  18.687   4.053
69540W        W36081  27.611   2.543   4.544
69541W        W36082  29.329  43.970  12.159
69542W        W36083   6.917  12.878  14.237
69543W        W36084   0.402  40.301   4.929
69544W        W36085   5.428  33.626  11.709
69545W        W36086   6.912  20.725  12.973
69546W        W36087   9.544   4.835   3.790
69547W        W36088   8.203   8.143  10.585
69548W        W36089  37.463  34.167   4.675
69549W        W36090  21.830  31.014   3.901
69550W        W36091  38.022  25.218  14.709
69551W        W36092  32.662   1.669  14.860
69552W        W36093   0.331  35.634   1.101
69553W        W36094   5.718   9.516   1.847
69554W        W36095  32.909  42.367  13.541
69555W        W36096  37.652  20.106   4.449
69556W        W36097  21.206  20.170  10.777
69557W        W36098   8.145  42.938  11.018
69558W        W36099  30.822  39.966   3.774
69559W        W36100  22.192  43.891   4.827
69560W        W36101  31.916   6.900   4.290
69561W        W36102  43.836   8.794   2.797
69562W        W36103  34.139   7.381  12.569
69563W        W36104   6.558  16.080  12.471
69564W        W36105  11.724  10.976  14.275
69565W        W36106  13.333  35.617  14.088
69566W        W36107  40.898  17.138  14.987
69567W        W36108  21.572  15.290   3.573
69568W        W36109  26.945  36.411   3.634
69569W        W36110   6.640  18.059  11.705
69570W        W36111  26.462  39.999  14.488
69571W        W36112  20.886  25.114  11.436
69572W        W36113  14.142   6.054  10.778
69573W        W36114  14.422  38.000  10.508
69574W        W36115  14.778  13.753  13.806
69575W        W36116  19.804  34.890  11.596
69576W        W36117  20.387   0.245   4.341
69577W        W36118   2.027  19.683  12.351
69578W        W36119  29.947  39.046   3.359
69579W        W36120  39.433   7.119   1.728
69580W        W36121  38.821  43.844  14.412
69581W        W36122   0.363  32.516  13.803
69582W        W36123  38.047  35.387   3.470
69583W        W36124  13.741   2.782   3.632
69584W        W36125  17.475  39.722   1.243
69585W        W36126   4.385  23.252  13.958
69586W        W36127   1.237  13.618   1.057
69587W        W36128  31.574  22.500   2.694
69588W        W36129  36.459  40.564  14.013
69589W        W36130  40.443  29.471   0.391
69590W        W36131  34.850  30.076   2.401
69591W        W36132  31.842  34.907  11.874
69592W        W36133   6.886  28.528  14.740
69593W        W36134  29.016  25.087  12.325
69594W        W36135   3.728  34.805   4.564
69595W        W36136  15.798  21.047  14.790
69596W        W36137   6.225  26.216   0.959
69597W        W36138   4.318  23.501   3.683
69598W        W36139   6.871  41.114  13.450
69599W        W36140  31.158  38.608  11.405
69600W        W36141  32.645  21.768  13.001
69601W        W36142  11.138   6.303  11.581
69602W        W36143  11.606  42.471  14.954
69603W        W36144   8.591   4.705   1.628
69604W        W36145  35.846   9.350   4.065
69605W        W36146  32.112  33.469   4.380
69606W        W36147   0.281   9.126   3.631
69607W        W36148  29.890  24.757  12.583
69608W        W36149  30.133  42.025  10.837
69609W        W36150  15.741  18.808   2.830
69610W        W36151   7.949  11.640  13.378
69611W        W36152  12.333   9.410  13.247
69612W        W36153  41.680  18.722   4.873
69613W        W36154  37.594   1.430   3.899
69614W        W36155  14.212  44.927   4.403
69615W        W36156  41.516  17.824  10.936
69616W        W36157  26.250  16.006  13.349
69617W        W36158  36.816  25.469  14.253
69618W        W36159  24.990   2.257  14.439
69619W        W36160  35.445  12.308   0.477
69620W        W36161  16.810  29.596   1.719
69621W        W36162  43.372  35.254   3.322
69622W        W36163   3.904  35.424  13.912
69623W        W36164  25.731   4.920   4.943
69624W        W36165  19.553  43.768   2.206
69625W        W36166  35.852  10.913  12.455
69626W        W36167  25.794  42.719   4.529
69627W        W36168  27.426  36.253   3.804
69628W        W36169   7.409  33.421   5.106
69629W        W36170  33.477  15.204  14.950
69630W        W36171  31.069   7.434   1.326
69631W        W36172  37.387  38.293   1.362
69632W        W36173  10.797  22.169  13.542
69633W        W36174  27.439  13.786  13.437
69634W        W36175  33.624  12.206  12.620
69635W        W36176  25.911   4.754  13.135
69636W        W36177  24.227  22.257   3.445
69637W        W36178   0.338   2.919   1.339
69638W        W36179  44.985  11.964   1.610
69639W        W36180   1.665  41.966  12.103
69640W        W36181  38.063  42.610   4.615
69641W        W36182  34.996  30.134  10.338
69642W        W36183  10.159   0.456   1.109
69643W        W36184  23.307  43.345   3.886
69644W        W36185  29.358  37.200   0.946
69645W        W36186  20.175  39.885   0.331
69646W        W36187  11.686   6.453  12.475
69647W        W36188  43.352  20.712   3.898
69648W        W36189   4.348  36.784  14.005
69649W        W36190  29.750  13.663   0.222
69650W        W36191   2.977  10.979  10.805
69651W        W36192  40.336  23.709  11.243
69652W        W36193  26.629   5.404  14.384
69653W        W36194  19.118  43.076  14.352
69654W        W36195  14.007  26.893  10.690
69655W        W36196  23.405  10.107   2.817
69656W        W36197   5.215  17.583   4.119
69657W        W36198   9.916   1.270   2.824
69658W        W36199  37.011  18.063   2.167
69659W        W36200  23.722   1.382  13.373
69660W        W36201   2.838   6.633   0.417
69661W        W36202  24.025  25.253   2.072
69662W        W36203  23.485   1.424  13.884
69663W        W36204   4.638  37.505  10.798
69664W        W36205  41.340  14.374   2.655
69665W        W36206  16.222  10.204   0.799
69666W        W36207   9.792  15.308   4.927
69667W        W36208  25.901   3.891  14.992
69668W        W36209  18.136  23.291  11.162
69669W        W36210  16.998   1.407   1.653
69670W        W36211   0.706  43.659  12.094
69671W        W36212  21.247  44.776  12.027
69672W        W36213  32.519   8.959  10.559
69673W        W36214  43.737  14.536   5.013
69674W        W36215  25.733  16.720   1.285
69675W        W36216  12.859  32.934   0.083
69676W        W36217  29.422   0.177  11.128
69677W        W36218   8.226  21.685   1.462
69678W        W36219  36.262  42.942  11.061
69679W        W36220  20.539   6.713  13.425
69680W        W36221  27.082  14.156  14.221
69681W        W36222  24.440   6.199  11.636
69682W        W36223   3.610  43.052   1.750
69683W        W36224  11.041  19.722  14.570
69684W        W36225   3.952  34.338   1.727
69685W        W36226  19.764  36.609   0.211
69686W        W36227   0.182  20.160   3.231
69687W        W36228  17.552  39.964   1.956
69688W        W36229  43.331  28.152  10.663
69689W        W36230  30.570   3.354  14.861
69690W        W36231  43.914  43.259  13.499
69691W        W36232  21.786  36.964  14.796
69692W        W36233  16.773  20.201   0.752
69693W        W36234  18.836   2.657   3.523
69694W        W36235   9.454  11.316   1.339
69695W        W36236   0.404  20.593  13.553
69696W        W36237  35.649  38.502  10.677
69697W        W36238  30.977  18.863   1.578
69698W        W36239  11.029  22.020   0.279
69699W        W36240  16.563  30.372   1.967
69700W        W36241   9.717  39.363   3.807
69701W        W36242   2.920  15.396   0.803
69702W        W36243   3.204  44.453  13.147
69703W        W36244  14.186  12.019  11.417
69704W        W36245  42.057  16.500  14.940
69705W        W36246  42.999  32.689  11.917
69706W        W36247  42.158  42.803  10.259
69707W        W36248  31.137  22.471   0.012
69708W        W36249  27.118  35.644  13.451
69709W        W36250   9.806  42.290  11.443
69710W        W36251   2.643  21.252  12.808
69711W        W36252  27.221   1.251   4.300
69712W        W36253  15.348  12.431   1.828
69713W        W36254  10.321  37.096   1.659
69714W        W36255  42.269   4.782  13.515
69715W        W36256  29.052  41.909   1.200
69716W        W36257  24.588  24.037  14.890
69717W        W36258  17.516  26.670  13.316
69718W        W36259  36.127  28.122  13.216
69719W        W36260  22.784  38.203   4.169
69720W        W36261   9.781  35.746   0.288
69721W        W36262  17.245  17.216   3.159
69722W        W36263  10.146  41.824  12.811
69723W        W36264  14.385   6.131  11.939
69724W        W36265  30.903  14.143  13.405
69725W        W36266   2.379   0.899   1.205
69726W        W36267  32.455  14.361  11.552
69727W        W36268  31.380   1.706  13.824
69728W        W36269  22.168  29.958  14.165
69729W        W36270   7.230  38.909   1.498
69730W        W36271  33.489  25.512  13.409
69731W        W36272  15.716   2.914   4.571
69732W        W36273  43.905  43.065   0.150
69733W        W36274  30.962  17.269   3.338
69734W        W36275  11.391   4.221  11.723
69735W        W36276   4.321   5.088   0.425
69736W        W36277  39.060  28.373   1.279
69737W        W36278  37.633  32.879   3.720
69738W        W36279  14.024  18.620  14.309
69739W        W36280   6.971  31.798   1.867
69740W        W36281   8.874  28.144   1.762
69741W        W36282  26.187  27.499  12.790
69742W        W36283  16.694  31.724  14.408
69743W        W36284   3.949  15.346   0.360
69744W        W36285  25.237  15.669  13.405
69745W        W36286  34.897   3.734   5.104
69746W        W36287  42.389  20.202   3.080
69747W        W36288  17.893  42.308  11.375
69748W        W36289  39.527  13.545   3.687
69749W        W36290  25.160  38.313  14.785
69750W        W36291  38.959  22.413  11.643
69751W        W36292  26.181  36.439  10.567
69752W        W36293  19.592  22.137  14.380
69753W        W36294  32.538  11.253  11.109
69754W        W36295   6.636  22.984   3.139
69755W        W36296   5.272  44.954  14.429
69756W        W36297   9.791  36.419   1.987
69757W        W36298  28.599  33.838  11.123
69758W        W36299   8.214  36.642   2.814
69759W        W36300  28.044  11.717   4.055
69760W        W36301  32.263  31.072  14.593
69761W        W36302  41.084  11.853  12.922
69762W        W36303  11.817  10.961  11.475
69763W        W36304  21.444   3.344   3.672
69764W        W36305  14.888  23.066   0.082
69765W        W36306  17.126  15.860  13.368
69766W        W36307  10.878  37.938   2.220
69767W        W36308   9.862  17.070  10.978
69768W        W36309  28.104  16.033  12.655
69769W        W36310   0.850   8.787   0.462
69770W        W36311  39.019  27.334  14.854
69771W        W36312  21.444  23.018   3.499
69772W        W36313  31.407  18.782  12.424
69773W        W36314  36.496  24.769   1.388
69774W        W36315   5.102  40.402   3.960
69775W        W36316  38.530  23.737   4.257
69776W        W36317  42.227  15.647   3.783
69777W        W36318  31.532  27.243   0.954
69778W        W36319  24.492  22.030   3.079
69779W        W36320  24.056  24.677  12.421
69780W        W36321   6.299  29.496  11.077
69781W        W36322  16.818  17.185  13.445
69782W        W36323   8.209  10.693  11.999
69783W        W36324   5.661  15.571   0.893
69784W        W36325  36.297  40.255   1.201
69785W        W36326  14.303  36.326   3.844
69786W        W36327  26.318  33.917  12.069
69787W        W36328  24.460  44.245   2.334
69788W        W36329   8.143  40.941   5.539
69789W        W36330   1.925  27.539   4.712
69790W        W36331   7.261  42.416  10.683
69791W        W36332  21.954  28.333   2.278
69792W        W36333  27.422  36.326   0.518
69793W        W36334  44.464  28.630   3.151
69794W        W36335  19.676  37.118   3.645
69795W        W36336  24.917   6.923  14.848
69796W        W36337  11.259  15.078  14.831
69797W        W36338  19.174  25.038  13.122
69798W        W36339  25.141  32.569   2.399
69799W        W36340  14.050  17.409   4.144
69800W        W36341   7.378  38.114   0.959
69801W        W36342  12.305  26.734  12.764
69802W        W36343  22.731  11.686   0.229
69803W        W36344  37.027   6.438   4.315
69804W        W36345  43.269  27.496  12.953
69805W        W36346  29.500   0.913  14.429
69806W        W36347  31.869  17.745  13.337
69807W        W36348  31.900  38.569   2.718
69808W        W36349  14.397  18.084  11.121
69809W        W36350  12.838  10.200   2.305
69810W        W36351  11.341  42.009   0.066
69811W        W36352  34.666  20.280  12.201
69812W        W36353  39.872   4.255   3.215
69813W        W36354  11.346   0.844  14.794
69814W        W36355   0.499  35.346   2.380
69815W        W36356  25.418   7.110   4.609
69816W        W36357  26.567  13.123   3.390
69817W        W36358  18.576  40.486   3.360
69818W        W36359  13.274  42.603   4.478
69819W        W36360  32.514   1.460   1.807
69820W        W36361  18.269   2.132   2.316
69821W        W36362  34.097   3.032   3.129
69822W        W36363  44.121  40.245   1.423
69823W        W36364  12.085   1.371   0.779
69824W        W36365   5.579  16.163  11.656
69825W        W36366   2.886   6.386  11.487
69826W        W36367  24.728  18.705   3.220
69827W        W36368  18.446  43.657   0.774
69828W        W36369  14.570  33.145  12.871
69829W        W36370  30.607  22.497   3.839
69830W        W36371   5.306  14.824  10.924
69831W        W36372   0.475  18.277   1.312
69832W        W36373   4.417  36.534   3.929
69833W        W36374  14.227  35.117  14.989
69834W        W36375  44.400  32.280   0.942
69835W        W36376   8.801  43.369  10.719
69836W        W36377   0.833   3.393   2.869
69837W        W36378  44.392   2.881   4.682
69838W        W36379   0.560   9.565  13.464
69839W        W36380  28.148  11.654  12.546
69840W        W36381   8.927   3.894  12.646
69841W        W36382   3.811  38.883   2.290
69842W        W36383   6.162   7.909  14.880
69843W        W36384   9.924  36.400   1.483
69844W        W36385  39.860  28.739   1.832
69845W        W36386  43.901   0.160   0.335
69846W        W36387  37.667  18.834  10.812
69847W        W36388   9.458  24.179   3.218
69848W        W36389   9.730   2.330   3.852
69849W        W36390  28.038  41.140   1.111
69850W        W36391  18.065  11.517  13.733
69851W        W36392  15.190   2.014  14.949
69852W        W36393   3.467   1.920   1.825
69853W        W36394   4.771  42.003   0.895
69854W        W36395  36.470  36.982   2.892
69855W        W36396  33.156  16.277  12.935
69856W        W36397  34.503   7.489   4.507
69857W        W36398   3.648  10.509   1.750
69858W        W36399  35.591  25.468   4.284
69859W        W36400  32.533  32.582   1.372
69860W        W36401  15.795  29.425  14.892
69861W        W36402   5.370   8.394   3.693
69862W        W36403  14.134  26.543  11.069
69863W        W36404  30.554  11.671   0.202
69864W        W36405  25.652  19.003  11.126
69865W        W36406  10.833  14.083   2.833
69866W        W36407  13.119  23.595   0.636
69867W        W36408  30.407  40.816   0.753
69868W        W36409  20.444   3.277  10.278
69869W        W36410  20.264   2.849   3.670
69870W        W36411   6.340   2.925  11.443
69871W        W36412  14.320  25.578  12.005
69872W        W36413  13.056  16.497  13.529
69873W        W36414   0.046  33.996  14.845
69874W        W36415  23.636  20.772  10.373
69875W        W36416  40.451  23.528  13.029
69876W        W36417  28.546   0.315   1.495
69877W        W36418  30.695  20.799   2.721
69878W        W36419  27.542  35.019  11.120
69879W        W36420   6.364  40.585   4.522
69880W        W36421  29.661  14.590   4.251
69881W        W36422  32.828  32.938   4.222
69882W        W36423  42.553  19.305   3.747
69883W        W36424   2.363   5.265   0.770
69884W        W36425  33.202  42.977   0.740
69885W        W36426  29.234  37.944  13.583
69886W        W36427  10.284  17.252   3.177
69887W        W36428   7.777  34.495  12.629
69888W        W36429  31.535   5.651   3.146
69889W        W36430   7.013  19.226  14.667
69890W        W36431  22.982  23.662  12.377
69891W        W36432   5.331  41.027  12.316
69892W        W36433  36.992   5.985   4.729
69893W        W36434  30.915  40.233   0.364
69894W        W36435  25.062  18.134   3.121
69895W        W36436   7.164   8.454   0.339
69896W        W36437  14.648  11.079   2.341
69897W        W36438  41.948  36.140   4.130
69898W        W36439  43.226  11.681   4.106
69899W        W36440   5.753  41.875   2.712
69900W        W36441  18.921  12.270   4.597
69901W        W36442  41.833  18.701  14.385
69902W        W36443  39.872  43.469  12.699
69903W        W36444  34.061  39.938   2.351
69904W        W36445  11.955  38.362   0.743
69905W        W36446  26.156  37.339  10.868
69906W        W36447   7.642  11.828   2.438
69907W        W36448  16.164  30.245   4.175
69908W        W36449   6.871  16.518  11.227
69909W        W36450  42.191  26.138  14.976
69910W        W36451   7.099  43.506   3.127
69911W        W36452  36.610   4.299  10.842
69912W        W36453   9.054  20.558   3.345
69913W        W36454  23.172   6.689  11.811
69914W        W36455   6.886  35.889   1.698
69915W        W36456  38.345  33.813  13.765
69916W        W36457  26.195  15.777  11.485
69917W        W36458  20.608  22.347   1.382
69918W        W36459  25.650  30.546  11.546
69919W        W36460   8.441  12.798  13.369
69920W        W36461  28.577  27.236   0.242
69921W        W36462  12.904  16.718  11.122
69922W        W36463   9.426  20.131  14.375
69923W        W36464  28.816  38.841   0.085
69924W        W36465  18.220  43.575  10.681
69925W        W36466  34.861  27.519   4.144
69926W        W36467  13.845   1.571   4.852
69927W        W36468  15.331  28.086  12.443
69928W        W36469  43.099  11.352   0.809
69929W        W36470  24.797  21.084   0.333
69930W        W36471  15.824  25.097   3.168
69931W        W36472  31.869  11.160  13.906
69932W        W36473  34.553  25.592   2.854
69933W        W36474  30.585  20.603  14.863
69934W        W36475  33.368  44.275   0.008
69935W        W36476   8.307  13.848  11.132
69936W        W36477  14.318  42.916   0.486
69937W        W36478  36.163  15.636  11.991
69938W        W36479   0.304  30.209   2.317
69939W        W36480   9.328  21.136   4.244
69940W        W36481  19.179  31.115   0.990
69941W        W36482  19.594   3.735   0.440
69942W        W36483   6.103  43.850  12.422
69943W        W36484  25.567  16.143  13.167
69944W        W36485   9.949   3.794   2.791
69945W        W36486  42.726  31.807   3.055
69946W        W36487  24.910  28.429   1.702
69947W        W36488  19.528  26.435  10.678
69948W        W36489   9.210  21.411   0.617
69949W        W36490  37.125  38.275  12.407
69950W        W36491  35.831  30.569   3.936
69951W        W36492   2.388  42.413   3.154
69952W        W36493  37.158  21.129   5.111
69953W        W36494  31.356  16.344   2.802
69954W        W36495  18.846  29.109   1.516
69955W        W36496   7.088   5.187   0.520
69956W        W36497   0.999  28.214  10.289
69957W        W36498  33.704   8.194   3.650
69958W        W36499  22.000   4.595   1.609
69959W        W36500  39.085  25.697   1.707
69960W        W36501  13.397  34.415  14.294
69961W        W36502   5.640  32.512  12.641
69962W        W36503   6.302  21.604   3.655
69963W        W36504  33.644  28.221   3.176
69964W        W36505  25.247  10.648   4.523
69965W        W36506   0.967  35.579  13.822
69966W        W36507  22.759  32.357   1.430
69967W        W36508   9.248   4.462  14.029
69968W        W36509  31.113  21.679  12.953
69969W        W36510  34.969   5.801  14.863
69970W        W36511  26.635  34.194  10.469
69971W        W36512  28.475  12.859   4.310
69972W        W36513  42.734  24.209  12.457
69973W        W36514  27.042  37.445  10.825
69974W        W36515  13.464  31.919  11.650
69975W        W36516  14.374  24.000   4.576
69976W        W36517  42.067  23.116   0.766
69977W        W36518  31.109  44.211   0.357
69978W        W36519   0.922  29.913  14.679
69979W        W36520   0.005  42.422  11.614
69980W        W36521  18.842  33.508  10.729
69981W        W36522   1.961  19.298   2.764
69982W        W36523  35.832  32.139   1.696
69983W        W36524  44.099  44.407   3.766
69984W        W36525  42.810  23.753  13.104
69985W        W36526   2.762  30.344  13.578
69986W        W36527  38.634  38.745   0.242
69987W        W36528  34.427  35.287  10.561
69988W        W36529  37.332  34.922   4.160
69989W        W36530  37.677   9.190  11.321
69990W        W36531  40.855  32.113   3.580
69991W        W36532  25.117  22.671   5.041
69992W        W36533   4.795  31.228   0.897
69993W        W36534  10.303  33.348  11.606
69994W        W36535  14.939   9.402  13.336
69995W        W36536  10.280   1.371  12.374
69996W        W36537  25.778  30.180  13.753
69997W        W36538  12.373   2.465   2.219
69998W        W36539  43.839  12.314   1.036
69999W        W36540  39.823   7.746   3.845
70000W        W36541  27.194  16.215  11.011
70001W        W36542  26.456  37.586   1.836
70002W        W36543  33.216   6.890  10.645
70003W        W36544   6.240  36.634  10.945
70004W        W36545   3.052   3.288  13.447
70005W        W36546  39.910   6.425  13.841
70006W        W36547   8.868  14.094   4.705
70007W        W36548  14.351  21.598   0.927
70008W        W36549  26.780  12.654   1.487
70009W        W36550  17.937  31.511   3.314
70010W        W36551  32.223   9.284   1.801
70011W        W36552  15.676   2.173  14.922
70012W        W36553  40.231  15.998  14.885
70013W        W36554  16.241   7.083   2.296
70014W        W36555   7.916  34.662   2.824
70015W        W36556  19.763   6.725   2.793
70016W        W36557  10.247  31.287   0.682
70017W        W36558  26.773  13.056  13.577
70018W        W36559  27.087  28.564   4.052
70019W        W36560  21.486  13.390  14.342
70020W        W36561  21.694  13.575   0.200
70021W        W36562  43.862   8.692  14.019
70022W        W36563  44.287  30.962  11.476
70023W        W36564  26.227  31.960   5.015
70024W        W36565  35.842   2.173   2.804
70025W        W36566  32.879  16.171  14.330
70026W        W36567   1.080  43.293   1.772
70027W        W36568   2.765   2.546   3.626
70028W        W36569  25.013   2.192   0.863
70029W        W36570  32.490   9.933   0.817
70030W        W36571  43.740  17.578   3.278
70031W        W36572  28.481  28.518   4.337
70032W        W36573  40.803  32.426  12.801
70033W        W36574   1.260  15.907  10.538
70034W        W36575  43.721  37.859   5.022
70035W        W36576  14.671   4.758   3.230
70036W        W36577  15.257  10.191  11.448
70037W        W36578  35.552  12.505  14.414
70038W        W36579  41.000  11.394   4.939
70039W        W36580   4.432  20.087   1.972
70040W        W36581  22.355  22.614  13.447
70041W        W36582   0.728  36.003   1.441
70042W        W36583   9.165  29.318   2.797
70043W        W36584  35.076  17.817   1.237
70044W        W36585  12.240  39.294  11.659
70045W        W36586  22.232  44.631  11.185
70046W        W36587  18.442  12.197   4.417
70047W        W36588   0.166  30.755   5.593
70048W        W36589   5.107  42.739  11.929
70049W        W36590   8.630  30.380   0.886
70050W        W36591  32.924  44.081   0.217
70051W        W36592  24.560  25.234   1.330
70052W        W36593  30.381   8.699   1.125
70053W        W36594  26.610   9.209  14.833
70054W        W36595   7.723  20.538  13.825
70055W        W36596  23.476  26.160  14.302
70056W        W36597  26.436  14.142   2.655
70057W        W36598  24.988  42.581   3.577
70058W        W36599   4.710  20.717   0.797
70059W        W36600  13.584  31.402  11.610
70060W        W36601  12.804  15.970   4.595
70061W        W36602  44.085  18.634   1.420
70062W        W36603  43.310  19.617  12.416
70063W        W36604  19.121  14.756  14.516
70064W        W36605  16.705  20.902  12.989
70065W        W36606   8.685  29.340   0.994
70066W        W36607  39.575  35.223   3.118
70067W        W36608  24.171  36.122  14.494
70068W        W36609  44.908  30.141   2.970
70069W        W36610  32.053  29.191   4.652
70070W        W36611  15.316   4.211   0.388
70071W        W36612   3.841  14.264   1.383
70072W        W36613  20.258  22.646  14.529
70073W        W36614  30.012   3.273  12.745
70074W        W36615  13.864  35.309  11.907
70075W        W36616  13.487  42.058   2.161
70076W        W36617  11.336   9.835   0.762
70077W        W36618   8.426  41.319  11.167
70078W        W36619  32.883  17.723   0.942
70079W        W36620  36.079   6.785   3.446
70080W        W36621  28.356   9.342  12.073
70081W        W36622  27.117  16.398   3.635
70082W        W36623  30.658   6.749  14.382
70083W        W36624  15.801  11.369  12.274
70084W        W36625  27.275  37.831   0.002
70085W        W36626  23.013  21.784  13.380
70086W        W36627   2.945   3.498   3.662
70087W        W36628   7.755  37.131   1.668
70088W        W36629  44.466  33.084  13.929
70089W        W36630  37.381  27.021   2.939
70090W        W36631  27.725  14.149  14.341
70091W        W36632  36.846   4.076  14.263
70092W        W36633   9.852  30.521  11.997
70093W        W36634   8.495  26.698   2.224
70094W        W36635  12.102  19.053  12.895
70095W        W36636  29.797  12.222   1.396
70096W        W36637  27.782  41.483  14.424
70097W        W36638  19.042  34.603  14.305
70098W        W36639  26.450  20.126  10.438
70099W        W36640  10.971  20.017   2.306
70100W        W36641  26.499  24.990   0.691
70101W        W36642  32.954  38.328   4.124
70102W        W36643  19.961  37.283  11.134
70103W        W36644  28.157  20.309   0.665
70104W        W36645  32.617  25.940   2.195
70105W        W36646  26.219   9.554  13.384
70106W        W36647   3.052  14.271   2.075
70107W        W36648  33.538  11.039  14.815
70108W        W36649  19.536   6.286   1.054
70109W        W36650  10.444  38.540   5.430
70110W        W36651  40.062  42.774   4.646
70111W        W36652  17.774  39.341   0.869
70112W        W36653   8.738  19.448   1.344
70113W        W36654   7.787  10.415   4.426
70114W        W36655  13.229   6.478   2.228
70115W        W36656  10.705  13.060  12.662
70116W        W36657   8.255  31.661  10.933
70117W        W36658   1.467  37.323   3.652
70118W        W36659   5.420  42.931   4.308
70119W        W36660  22.480  26.012   1.279
70120W        W36661   1.427   3.954   4.666
70121W        W36662   2.130  19.494   4.131
70122W        W36663  13.508  32.553   4.953
70123W        W36664  43.448  16.843  12.798
70124W        W36665   6.867  23.248   0.434
70125W        W36666  44.272  31.097   4.091
70126W        W36667   1.903  15.846  12.485
70127W        W36668   5.274   4.745  11.689
70128W        W36669  16.206  20.958  12.819
70129W        W36670  17.748  19.299   0.367
70130W        W36671  38.521   5.228  14.992
70131W        W36672  28.293  35.627  12.067
70132W        W36673  15.510  19.781   2.906
70133W        W36674  31.601  44.348  12.169
70134W        W36675   5.136   9.193  14.271
70135W        W36676  17.297  33.358  11.463
70136W        W36677   9.710  26.143   0.203
70137W        W36678   9.808  32.488  12.939
70138W        W36679  10.879  26.086  11.869
70139W        W36680  29.108  13.669  14.274
70140W        W36681  43.298   1.631  11.240
70141W        W36682  22.665  21.169   3.351
70142W        W36683  14.830  17.623   4.462
70143W        W36684  34.998  11.709   3.662
70144W        W36685  12.402  39.758   0.933
70145W        W36686  10.648  11.541  13.798
70146W        W36687  18.556  20.526   3.697
70147W        W36688  43.056  42.798   2.381
70148W        W36689  40.326  34.950   4.155
70149W        W36690  33.180  23.610  12.359
70150W        W36691  28.436  26.738   1.148
70151W        W36692  19.003  37.518   2.396
70152W        W36693   4.357  35.001   0.516
70153W        W36694  14.610  28.293   3.650
70154W        W36695   5.230   5.653  10.535
70155W        W36696   6.485  27.897   2.289
70156W        W36697  44.909  13.606  14.339
70157W        W36698   9.121  24.604  10.716
70158W        W36699   6.202  20.615  13.368
70159W        W36700  30.574  39.748  14.750
70160W        W36701  21.745  18.474   1.004
70161W        W36702  34.932   5.552   9.915
70162W        W36703  43.233  42.468   4.134
70163W        W36704  33.630   7.177   2.271
70164W        W36705  30.648  26.560   0.440
70165W        W36706  32.551  32.714   0.870
70166W        W36707  25.145  15.584   1.256
70167W        W36708  25.720   0.279   1.588
70168W        W36709   0.952  29.339  11.665
70169W        W36710  43.789  44.699   1.642
70170W        W36711  39.838  17.171  10.353
70171W        W36712  40.780  33.411  14.137
70172W        W36713  39.399  27.721  10.660
70173W        W36714  34.874   8.802   1.499
70174W        W36715  15.324  15.611  11.461
70175W        W36716   7.232   0.805   1.133
70176W        W36717   0.964  30.922  13.471
70177W        W36718  35.810  22.486  12.429
70178W        W36719  17.019   0.231  11.554
70179W        W36720  10.821   4.858  13.390
70180W        W36721   1.341  25.438   3.282
70181W        W36722  20.601  44.370   1.398
70182W        W36723  34.077  27.919  13.595
70183W        W36724  30.371   1.727   4.442
70184W        W36725  18.437  25.090   1.315
70185W        W36726  10.637  28.127   2.163
70186W        W36727  30.884  35.449   4.428
70187W        W36728   1.478   2.426   3.213
70188W        W36729  11.425  34.807  10.820
70189W        W36730   8.547  21.010  13.994
70190W        W36731   6.797   3.928   1.867
70191W        W36732  37.701   0.725  10.655
70192W        W36733  28.472  41.720   0.484
70193W        W36734  40.563   2.829   3.604
70194W        W36735  42.354  12.577   1.651
70195W        W36736  10.275  11.943   1.501
70196W        W36737  30.684  11.187  10.634
70197W        W36738   7.975   1.784  14.265
70198W        W36739  15.251  11.221  13.394
70199W        W36740  34.321  42.379   0.350
70200W        W36741  29.219   4.943  13.371
70201W        W36742  13.337  33.666   2.320
70202W        W36743  10.049   0.871   5.086
70203W        W36744  22.072  33.857   0.828
70204W        W36745  27.929  20.291  10.610
70205W        W36746  19.690  35.508  10.691
70206W        W36747   5.514  25.087  14.943
70207W        W36748  19.742  13.874  13.409
70208W        W36749  32.421  30.626  12.065
70209W        W36750  27.445  13.622   3.820
70210W        W36751  20.632   7.918   1.684
70211W        W36752  40.684  33.962   4.083
70212W        W36753  27.304  38.977  12.100
70213W        W36754  31.428  29.633   1.542
70214W        W36755   0.913  31.101   1.751
70215W        W36756  19.716   2.742  12.088
70216W        W36757  37.038  44.732   1.282
70217W        W36758  12.945  28.924   2.673
70218W        W36759  23.291   5.926  14.849
70219W        W36760  40.549  40.100   4.579
70220W        W36761   3.245  17.757   2.885
70221W        W36762  38.967  22.601  13.002
70222W        W36763  17.232  29.157   4.149
70223W        W36764  18.554  19.531  13.305
70224W        W36765  21.836  14.912   5.077
70225W        W36766  10.310  10.652  10.520
70226W        W36767  15.737  23.130   2.433
70227W        W36768  41.138  21.453   3.036
70228W        W36769  22.105  36.568  13.091
70229W        W36770  38.262  10.825   0.777
70230W        W36771  42.941   3.183  13.562
70231W        W36772  37.942  15.745   4.054
70232W        W36773  25.171   6.310   4.071
70233W        W36774  24.493  42.360   3.677
70234W        W36775  39.112  44.799   2.660
70235W        W36776   0.839   9.181  12.191
70236W        W36777   3.029  17.607   4.698
70237W        W36778  42.032   2.473  14.765
70238W        W36779  10.323  27.543   3.115
70239W        W36780   0.915  41.961   3.686
70240W        W36781  24.583  33.544   4.907
70241W        W36782  26.747  40.022   2.405
70242W        W36783  42.905  16.769   2.502
70243W        W36784   7.624  44.504   1.783
70244W        W36785  23.337  23.911   0.376
70245W        W36786  22.105  13.124   1.714
70246W        W36787  40.401  25.483   1.395
70247W        W36788  43.842  23.069  14.453
70248W        W36789  19.761  23.281   3.892
70249W        W36790  15.223  13.548   3.360
70250W        W36791  44.321  41.918  11.899
70251W        W36792  24.451   8.982  12.445
70252W        W36793  15.559  23.683   2.470
70253W        W36794  14.296  16.818  13.900
70254W        W36795  41.638  42.471   2.624
70255W        W36796  24.735  39.112   2.650
70256W        W36797  15.665  43.328   3.278
70257W        W36798   8.942   7.277   0.322
70258W        W36799  22.784  25.535   4.386
70259W        W36800   4.776  28.186  13.994
70260W        W36801  10.818  31.467  12.941
70261W        W36802   8.934  31.962   5.071
70262W        W36803  31.949  31.223   2.416
70263W        W36804   0.295  23.870   2.120
70264W        W36805  25.111  23.740   4.056
70265W        W36806  43.387  35.582   1.555
70266W        W36807  34.296   6.182   4.752
70267W        W36808  42.623  30.510  14.774
70268W        W36809  29.539   3.315   0.206
70269W        W36810  42.808  28.017   3.638
70270W        W36811  31.042   2.295   4.988
70271W        W36812  40.322   3.350  13.853
70272W        W36813  40.067  39.040   3.977
70273W        W36814  26.938  27.142  13.068
70274W        W36815   0.372  39.513  10.692
70275W        W36816  23.748  15.614   3.042
70276W        W36817  41.232   8.163  14.415
70277W        W36818  16.607  26.428   3.928
70278W        W36819  12.629  21.082  14.867
70279W        W36820  12.279   5.851   2.473
70280W        W36821  17.571  38.342  10.615
70281W        W36822  36.834  11.309  14.748
70282W        W36823  19.144   9.121  12.370
70283W        W36824   0.493  32.519  11.693
70284W        W36825  36.957  41.823   0.423
70285W        W36826   4.364  34.579   2.412
70286W        W36827  39.600   8.774   2.773
70287W        W36828  32.166   3.932   0.779
70288W        W36829  42.728  27.023  14.914
70289W        W36830  19.723  15.699  13.831
70290W        W36831  43.606   7.275   3.837
70291W        W36832   1.232  40.247   1.307
70292W        W36833  22.219  21.449  14.892
70293W        W36834  24.702  13.566   2.725
70294W        W36835  43.996  35.341  14.419
70295W        W36836  30.610  15.357  10.151
70296W        W36837   4.636  11.945  14.560
70297W        W36838  11.329  32.934  14.798
70298W        W36839  11.861  18.670   4.128
70299W        W36840   2.433  41.494  10.333
70300W        W36841  38.931  14.157   1.158
70301W        W36842  20.205  37.828  10.768
70302W        W36843   2.451  33.001   0.734
70303W        W36844   4.579  39.653   1.450
70304W        W36845   1.955  43.809   0.306
70305W        W36846  41.279   8.212   2.244
70306W        W36847  31.051  35.105  12.282
70307W        W36848  29.412   7.480  14.036
70308W        W36849  42.336   8.813   3.803
70309W        W36850   8.666  18.494  13.356
70310W        W36851  27.437  16.630   0.362
70311W        W36852   7.508   9.994   3.507
70312W        W36853  41.846  38.378  13.643
70313W        W36854  13.009  15.985  12.264
70314W        W36855  13.891   4.083   2.402
70315W        W36856  32.116   6.576  13.339
70316W        W36857  13.833   9.267   2.477
70317W        W36858   8.635   7.803   2.233
70318W        W36859  10.246   2.081  11.631
70319W        W36860  15.649  33.593   3.301
70320W        W36861  20.992  13.247   0.310
70321W        W36862  14.886   0.059   3.229
70322W        W36863  12.318  39.247  14.726
70323W        W36864  22.574   2.708   0.226
70324W        W36865  43.922  43.495  11.773
70325W        W36866   4.962  35.118  14.138
70326W        W36867  21.722  41.312   0.835
70327W        W36868  43.058  10.459   0.921
70328W        W36869  39.362  19.842   1.472
70329W        W36870  34.553   4.441  13.943
70330W        W36871   3.778  40.485  13.350
70331W        W36872  21.866  39.834   2.246
70332W        W36873  11.811   5.243  11.102
70333W        W36874  14.740  21.641   3.150
70334W        W36875  26.463  27.937  14.888
70335W        W36876  23.852  34.954  14.307
70336W        W36877   9.710  10.671   2.410
70337W        W36878  41.839  24.745  12.963
70338W        W36879  42.897  43.381   4.288
70339W        W36880  33.007   7.344   3.950
70340W        W36881  30.383   3.754  13.939
70341W        W36882  12.154  36.927   2.742
70342W        W36883   2.856   8.221  14.358
70343W        W36884  10.726  35.387   1.799
70344W        W36885  30.158  13.605  13.227
70345W        W36886   8.192   1.301   0.356
70346W        W36887  18.690  28.581   4.211
70347W        W36888  24.472  13.381   1.905
70348W        W36889   2.244   9.955   2.828
70349W        W36890  35.406  30.845   4.738
70350W        W36891  10.222  14.667  12.056
70351W        W36892  31.893  42.495  12.047
70352W        W36893  40.474  37.544   4.958
70353W        W36894  30.863   0.504  12.021
70354W        W36895  35.986  42.280  13.806
70355W        W36896  23.551  18.510   4.623
70356W        W36897  25.507  28.574  14.933
70357W        W36898  31.485  36.907  13.624
70358W        W36899  23.576  29.965   4.171
70359W        W36900  31.409  43.775   0.296
70360W        W36901   5.492  25.299   2.210
70361W        W36902  38.431  44.246  11.790
70362W        W36903   5.627  40.853   2.100
70363W        W36904  27.137  20.705   4.509
70364W        W36905  38.852  27.099   3.597
70365W        W36906  42.206  14.536  13.474
70366W        W36907  11.137   1.317   4.282
70367W        W36908  27.430  22.515   1.293
70368W        W36909  42.545  25.158  12.499
70369W        W36910   2.964  37.945  11.519
70370W        W36911   7.440  34.054   0.723
70371W        W36912  17.130  30.148   1.325
70372W        W36913  20.671  40.157   2.827
70373W        W36914  37.561  16.630  11.425
70374W        W36915  37.102   4.687  13.050
70375W        W36916   7.825   3.909  12.887
70376W        W36917  43.467  35.672  14.810
70377W        W36918  22.463  27.516   3.194
70378W        W36919  35.543  24.854   1.990
70379W        W36920  26.209  20.217   0.929
70380W        W36921  13.194  38.480   0.426
70381W        W36922   5.259  28.184  14.407
70382W        W36923  37.433  14.713   2.005
70383W        W36924  23.210   2.675   0.057
70384W        W36925   5.781  29.259   4.250
70385W        W36926  24.585   7.431  13.597
70386W        W36927   7.447   7.671   1.403
70387W        W36928  21.697  29.949  14.502
70388W        W36929  20.535  27.315   0.891
70389W        W36930  19.660  37.995  14.876
70390W        W36931  27.043  42.498   4.368
70391W        W36932  19.086  27.180   4.530
70392W        W36933  20.564  19.028   4.158
70393W        W36934  25.107  43.180  13.845
70394W        W36935  27.029   7.297  10.705
70395W        W36936  13.186  41.910  13.733
70396W        W36937  20.298  25.034  12.011
70397W        W36938  30.631  13.038  14.614
70398W        W36939   7.900  15.106  13.387
70399W        W36940  36.009   6.445  13.852
70400W        W36941  21.030  17.065  13.952
70401W        W36942   8.372  34.451  13.471
70402W        W36943  29.588   0.224  14.635
70403W        W36944  37.477  36.453   3.370
70404W        W36945  14.652  16.836   2.837
70405W        W36946  20.985  19.176   0.483
70406W        W36947  44.954  33.147   2.760
70407W        W36948  11.381   3.120   0.693
70408W        W36949  34.404  28.448  12.839
70409W        W36950  31.219  17.036   4.628
70410W        W36951  39.931  23.394  12.978
70411W        W36952  24.406  39.992   0.718
70412W        W36953  25.068  43.009   4.603
70413W        W36954  43.830  16.789  10.982
70414W        W36955  27.650   2.957  12.301
70415W        W36956  14.346  44.828  12.959
70416W        W36957   5.427  18.739   0.831
70417W        W36958   8.602  22.009   3.790
70418W        W36959  21.586  33.171  14.391
70419W        W36960  10.917   1.870   3.269
70420W        W36961  30.194   0.271   0.375
70421W        W36962  37.837  28.532   0.775
70422W        W36963  22.277  20.264   4.724
70423W        W36964  37.429   6.410  11.396
70424W        W36965  24.738  18.635  12.841
70425W        W36966   4.736   8.847   1.087
70426W        W36967  13.921  11.641  12.200
70427W        W36968  36.937  12.607  13.321
70428W        W36969  38.599  29.965   0.670
70429W        W36970  13.303  44.288  12.511
70430W        W36971   9.390  10.436   9.969
70431W        W36972  14.538  32.372  13.942
70432W        W36973  31.767   9.329  13.557
70433W        W36974  29.659  15.763   5.063
70434W        W36975   1.227   1.307   2.716
70435W        W36976   0.665  20.261   4.137
70436W        W36977   1.441  15.216  13.541
70437W        W36978  34.027  32.999  12.077
70438W        W36979  26.540   9.773   1.452
70439W        W36980  43.281  17.090  11.538
70440W        W36981  35.435   9.442   3.265
70441W        W36982  33.091  14.405   3.789
70442W        W36983  10.595  14.783   3.377
70443W        W36984  18.028  16.822   2.825
70444W        W36985  25.409   4.161  10.962
70445W        W36986  23.977  36.167  11.570
70446W        W36987  21.198   9.839   4.540
70447W        W36988  42.318  40.986   1.016
70448W        W36989   3.729  17.747  12.115
70449W        W36990  32.483  29.062   2.219
70450W        W36991  40.074   2.578   2.375
70451W        W36992   6.037  39.787  13.288
70452W        W36993  30.456   0.699   0.504
70453W        W36994  28.356  11.308   4.125
70454W        W36995   7.930  25.320  12.985
70455W        W36996  15.139  24.013  11.552
70456W        W36997  21.783  36.019  13.824
70457W        W36998   9.424   0.242  10.630
70458W        W36999  38.834   7.292  11.668
70459W        W37000  43.939  10.219  11.163
70460W        W37001  22.045  34.921  10.707
70461W        W37002  25.029   7.336   3.097
70462W        W37003  11.123  19.022  12.789
70463W        W37004   1.964  10.915  14.529
70464W        W37005  31.460  41.540   2.546
70465W        W37006  27.542  32.930  10.589
70466W        W37007   4.788   1.268   1.934
70467W        W37008   0.471   9.917   3.228
70468W        W37009  15.330  12.816  12.866
70469W        W37010  29.946  20.002  10.811
70470W        W37011  19.996  36.432   4.132
70471W        W37012   8.529   3.734  13.555
70472W        W37013  13.503   6.755   1.862
70473W        W37014  26.849  11.360   0.533
70474W        W37015  41.241  24.831  12.241
70475W        W37016  19.537  44.806  13.574
70476W        W37017  12.816  16.345   2.824
70477W        W37018  30.042  14.317  13.557
70478W        W37019  44.692  12.872   3.216
70479W        W37020  23.525   4.756   0.652
70480W        W37021   2.630   2.333  12.415
70481W        W37022  27.975  34.843   2.970
70482W        W37023   2.313  28.226   3.135
70483W        W37024  44.476   5.668   2.203
70484W        W37025  21.730  16.964   1.207
70485W        W37026  17.180  22.333   5.160
70486W        W37027  14.762  11.408  13.524
70487W        W37028   8.451  19.929   2.735
70488W        W37029   5.674  37.568   3.920
70489W        W37030  29.162  11.714  12.899
70490W        W37031  39.827  30.589   0.266
70491W        W37032  44.604  40.803   4.700
70492W        W37033  15.848  17.132   0.438
70493W        W37034  18.724   9.735  13.933
70494W        W37035  14.257  12.565  13.600
70495W        W37036   3.769  28.147  14.551
70496W        W37037  19.697  19.719   0.288
70497W        W37038  10.379  15.872  12.420
70498W        W37039  37.026  15.060   4.665
70499W        W37040  41.972  41.053   3.123
70500W        W37041  12.228   3.699   0.475
70501W        W37042  34.913  32.334   0.717
70502W        W37043   7.705  19.043  10.724
70503W        W37044  10.311  18.210  10.289
70504W        W37045  34.123   5.992  13.752
70505W        W37046  38.357  32.062   3.815
70506W        W37047  12.062  37.467  11.198
70507W        W37048  17.300  25.491  14.409
70508W        W37049  30.611  14.897  10.431
70509W        W37050  26.215   8.624   3.840
70510W        W37051  42.129  17.854   4.136
70511W        W37052  21.498   5.742  13.545
70512W        W37053   1.888  14.370  13.386
70513W        W37054  43.432  30.466   4.990
70514W        W37055  18.727   1.007   0.344
70515W        W37056   8.874  44.519  11.658
70516W        W37057  30.942  26.476   3.579
70517W        W37058  20.396  39.843   3.680
70518W        W37059  36.273  10.058  11.259
70519W        W37060   7.663  23.462   1.846
70520W        W37061  38.869  19.150  10.460
70521W        W37062  41.606   5.141   0.837
70522W        W37063  12.062  26.463   4.134
70523W        W37064  22.460  10.167   2.455
70524W        W37065  13.151  17.117  11.356
70525W        W37066  15.326  16.607   1.276
70526W        W37067  16.854   9.743  12.402
70527W        W37068  13.787   0.445   2.818
70528W        W37069  23.162   5.632  14.454
70529W        W37070   2.855  14.164   3.513
70530W        W37071  30.142   6.699   2.968
70531W        W37072  12.358  35.108   0.961
70532W        W37073  17.149  30.245  13.834
70533W        W37074  30.531  19.580  11.940
70534W        W37075  28.995   7.861  13.022
70535W        W37076  43.084   0.451   1.658
70536W        W37077  15.719  37.398   0.858
70537W        W37078  25.696  22.710   2.802
70538W        W37079  35.282  42.719   3.738
70539W        W37080  31.588  28.234  11.445
70540W        W37081  28.661  21.240   3.410
70541W        W37082  30.607   7.733   1.960
70542W        W37083  10.414  37.896   2.760
70543W        W37084  23.672  36.510  10.672
70544W        W37085  11.802  38.530   4.535
70545W        W37086  15.085  36.985   4.534
70546W        W37087  24.112   2.729  13.155
70547W        W37088  32.628  36.475   4.522
70548W        W37089  26.111  43.252   0.782
70549W        W37090  28.226  43.019  10.992
70550W        W37091  15.322  34.483   2.890
70551W        W37092  15.722  22.821   4.099
70552W        W37093  23.498   1.218   0.929
70553W        W37094  12.187  23.456   0.972
70554W        W37095  20.894  28.477   0.506
70555W        W37096   7.217   0.788   4.671
70556W        W37097   9.882  38.327   2.751
70557W        W37098   1.431  38.592  13.998
70558W        W37099  41.125   8.195   3.614
70559W        W37100  27.218  19.263  12.491
70560W        W37101  15.262  32.998  14.283
70561W        W37102  40.463  13.089   5.047
70562W        W37103   4.594   7.432   4.050
70563W        W37104  23.761  44.990   0.242
70564W        W37105  44.481  43.475  14.388
70565W        W37106  28.037  43.473  10.037
70566W        W37107  24.769  35.619   3.649
70567W        W37108   2.398  16.607  12.008
70568W        W37109  16.561  16.161  10.667
70569W        W37110  31.586  30.962   2.139
70570W        W37111   3.339  20.158   3.373
70571W        W37112  19.070  25.708  13.911
70572W        W37113   2.800   6.038   0.723
70573W        W37114  11.261  21.276  11.155
70574W        W37115   8.799  16.014   4.231
70575W        W37116   9.415  22.966   0.246
70576W        W37117   9.399  31.575  12.972
70577W        W37118  31.762  34.837   2.270
70578W        W37119  19.541  14.857  12.507
70579W        W37120   6.706  28.459   1.222
70580W        W37121  26.029  25.281  10.751
70581W        W37122  12.575  28.110  14.792
70582W        W37123  13.258  43.276   2.335
70583W        W37124  10.174   7.988   9.986
70584W        W37125  20.180  43.911   4.681
70585W        W37126  21.968  20.538  14.866
70586W        W37127  27.148  15.302  10.123
70587W        W37128  21.991  26.207   0.327
70588W        W37129  25.505  35.912  12.987
70589W        W37130  22.265   6.382   1.453
70590W        W37131  44.303   8.413   2.968
70591W        W37132  35.563  34.349  12.491
70592W        W37133  19.788  21.050  11.888
70593W        W37134  11.514  23.164   4.352
70594W        W37135  43.419   8.980   2.518
70595W        W37136  12.250  39.250  13.857
70596W        W37137  27.015   0.714   1.183
70597W        W37138  40.761  41.034   2.815
70598W        W37139  39.922   5.204   3.300
70599W        W37140   8.775  10.897  12.093
70600W        W37141  28.600  17.625   2.452
70601W        W37142  23.500  35.993  14.335
70602W        W37143  39.995   7.129  10.557
70603W        W37144  39.532  35.039  14.957
70604W        W37145  42.447  31.031  13.991
70605W        W37146   8.272  42.939  11.961
70606W        W37147   9.356   9.765  12.463
70607W        W37148  28.748  42.787  13.950
70608W        W37149   7.279  11.556  14.781
70609W        W37150  14.199  21.126   0.774
70610W        W37151  27.419  21.975   1.338
70611W        W37152  25.910  21.694  13.065
70612W        W37153  34.201  15.807  10.995
70613W        W37154  34.959  35.611   2.822
70614W        W37155  43.019   9.927  10.949
70615W        W37156  29.292  28.530   1.984
70616W        W37157  22.544  32.952   3.748
70617W        W37158  32.017   7.138  12.465
70618W        W37159  11.364  36.789   3.706
70619W        W37160  15.850  41.772   1.793
70620W        W37161  37.460   7.324   2.081
70621W        W37162  34.026  10.310  11.631
70622W        W37163  25.265  17.567   0.757
70623W        W37164  37.516   6.501   2.150
70624W        W37165   3.575  26.588  13.515
70625W        W37166  32.522  29.495   4.372
70626W        W37167  11.647  20.215  13.431
70627W        W37168   2.334  41.382   1.682
70628W        W37169  16.296   4.975  13.479
70629W        W37170  36.573   3.225   3.774
70630W        W37171  11.844  34.847  13.160
70631W        W37172  22.666  38.452  14.015
70632W        W37173  39.860  32.460   2.333
70633W        W37174  38.206  44.886  12.041
70634W        W37175   1.521  19.724   3.366
70635W        W37176  36.941   1.277  14.356
70636W        W37177   5.198  30.132   1.291
70637W        W37178   1.203  29.888   5.569
70638W        W37179   5.295  14.817  14.304
70639W        W37180  21.390  37.866   0.428
70640W        W37181  14.205   7.667   1.888
70641W        W37182  18.632  28.666   3.260
70642W        W37183  29.745   5.096  13.330
70643W        W37184  41.969   0.255  11.545
70644W        W37185  31.352  25.516   2.674
70645W        W37186  39.377  40.624   1.853
70646W        W37187  24.130  21.528   4.697
70647W        W37188   2.333  41.720   1.284
70648W        W37189  17.295  22.521   1.811
70649W        W37190   1.542  27.291  13.463
70650W        W37191  30.801  31.229   1.781
70651W        W37192  32.792   1.780   3.522
70652W        W37193  18.028  23.986   1.641
70653W        W37194  33.507  19.315  14.334
70654W        W37195   5.827  38.455   9.819
70655W        W37196   7.919  20.640  12.436
70656W        W37197  26.953  36.988   2.281
70657W        W37198  40.482  11.357   1.491
70658W        W37199   1.376  11.296  13.961
70659W        W37200  33.787  44.145  13.819
70660W        W37201  33.033  42.480   0.762
70661W        W37202  26.946  39.658   3.744
70662W        W37203   5.356   4.996   1.867
70663W        W37204   8.250  30.209   4.082
70664W        W37205  39.639   0.915   0.959
70665W        W37206  35.060  33.672   0.384
70666W        W37207  39.142   2.858  10.787
70667W        W37208  24.556  30.174   3.115
70668W        W37209  38.238  38.765   1.187
70669W        W37210  44.961   8.625   3.583
70670W        W37211  43.149   6.145   1.007
70671W        W37212  18.253  30.724   2.693
70672W        W37213  44.156  42.774  11.474
70673W        W37214  36.463   3.378  11.961
70674W        W37215  17.390  20.316  10.374
70675W        W37216  16.478  39.975   3.763
70676W        W37217  27.010  36.877  14.919
70677W        W37218  10.649  21.170   0.695
70678W        W37219  14.457  16.642  13.023
70679W        W37220   3.642  29.221   0.787
70680W        W37221  39.491  22.285  11.748
70681W        W37222  30.893  25.735   4.599
70682W        W37223   8.223  17.217  13.057
70683W        W37224  27.635  14.209   3.381
70684W        W37225  14.242   1.868  10.745
70685W        W37226  38.030  43.433   0.318
70686W        W37227  22.512   2.803  10.831
70687W        W37228  15.790  25.260   4.040
70688W        W37229  10.385  33.489  12.922
70689W        W37230   5.974  36.458  11.337
70690W        W37231  38.649  30.214   3.058
70691W        W37232   6.486  21.021  13.189
70692W        W37233  26.884  43.021  12.528
70693W        W37234  26.934   4.210  12.411
70694W        W37235  30.564   9.188  13.910
70695W        W37236  16.306  43.739   0.473
70696W        W37237  26.886  10.402  11.886
70697W        W37238  28.566  36.951   1.298
70698W        W37239  20.677   6.039  12.820
70699W        W37240  10.724  16.242  12.398
70700W        W37241   0.024   2.297  12.048
70701W        W37242  26.138  27.109   4.021
70702W        W37243  40.701  22.579  12.897
70703W        W37244  31.825  36.459   0.884
70704W        W37245  24.001  20.782   3.442
70705W        W37246  12.840   4.890  14.197
70706W        W37247  21.271  38.998   3.611
70707W        W37248  13.315  34.105  13.338
70708W        W37249  35.086  33.134  12.132
70709W        W37250   1.464   1.763   2.639
70710W        W37251  19.189   1.217   0.408
70711W        W37252  16.187  16.859   3.760
70712W        W37253   8.405  41.981  12.312
70713W        W37254  20.675  23.300  14.025
70714W        W37255  28.444   1.936   2.087
70715W        W37256  33.054  37.502   2.373
70716W        W37257   9.525   5.825   2.316
70717W        W37258   0.842  36.090  14.879
70718W        W37259  42.941  33.646   3.333
70719W        W37260  41.867  19.020   3.044
70720W        W37261  39.972  18.097   1.822
70721W        W37262  14.007  43.324   4.037
70722W        W37263  15.181  21.659   4.095
70723W        W37264  21.177  28.350   4.132
70724W        W37265  14.636  21.786  12.896
70725W        W37266  29.045   8.167   2.698
70726W        W37267   4.522   3.920  11.959
70727W        W37268   9.410  42.765   3.743
70728W        W37269  21.161   1.222  13.786
70729W        W37270  23.402  38.603  14.591
70730W        W37271  32.165  22.480   3.337
70731W        W37272  39.455  29.139   2.701
70732W        W37273  12.114  27.415  13.805
70733W        W37274  31.317  11.814  14.387
70734W        W37275  41.966  26.492   2.591
70735W        W37276  21.217  37.002   3.783
70736W        W37277  18.671   0.968   2.587
70737W        W37278  32.530  24.976  12.092
70738W        W37279  38.524   6.321   0.345
70739W        W37280  37.228  16.702   3.079
70740W        W37281  30.115  23.330  12.025
70741W        W37282   3.216  26.371   2.272
70742W        W37283  41.164  43.669   4.908
70743W        W37284  37.991   9.222  13.471
70744W        W37285   7.585  38.461   1.314
70745W        W37286  15.410  38.940  14.795
70746W        W37287  28.176  36.524  14.350
70747W        W37288  43.190  29.763   0.206
70748W        W37289  35.445  36.042   3.072
70749W        W37290  21.767  20.624   1.851
70750W        W37291   1.479   3.407  13.004
70751W        W37292  27.451   4.481  13.782
70752W        W37293  14.095  36.116  12.173
70753W        W37294  23.402  12.774  14.948
70754W        W37295   3.666   6.809   3.663
70755W        W37296  40.887  22.141  10.744
70756W        W37297   7.183  16.754   2.509
70757W        W37298  42.369  10.332   4.418
70758W        W37299  33.589  30.862  13.005
70759W        W37300  13.868  14.249   1.441
70760W        W37301  40.209  11.619   3.169
70761W        W37302   0.794  16.249   3.646
70762W        W37303   7.788  37.090  12.366
70763W        W37304  34.320  12.643  13.921
70764W        W37305  14.925  35.355   2.739
70765W        W37306  38.050  39.946   0.208
70766W        W37307  30.276  17.540  10.631
70767W        W37308  13.191   1.385  11.260
70768W        W37309  26.615  29.154  11.158
70769W        W37310  28.893  20.630  11.534
70770W        W37311   9.195   6.388   2.975
70771W        W37312   1.844   6.893  12.597
70772W        W37313  14.599  36.510   2.205
70773W        W37314  35.124  30.055   0.198
70774W        W37315  24.497  39.577  14.783
70775W        W37316  13.362  15.068  14.907
70776W        W37317  15.637  11.067  11.334
70777W        W37318  25.897  30.878   3.475
70778W        W37319  18.744   4.798  10.156
70779W        W37320   1.942   8.916   2.293
70780W        W37321  37.496  18.004   0.998
70781W        W37322  36.139  18.165   3.721
70782W        W37323  22.251  23.158   3.756
70783W        W37324   7.954  22.736  12.972
70784W        W37325  44.299  38.439   1.940
70785W        W37326  35.855   3.739  14.106
70786W        W37327  25.606  25.620   0.010
70787W        W37328  24.682  35.005   2.902
70788W        W37329   8.771  23.934  14.553
70789W        W37330  29.240  36.112  11.306
70790W        W37331  42.764   3.653  14.370
70791W        W37332  12.767  25.578   4.517
70792W        W37333  41.000  31.555  14.509
70793W        W37334  33.689  32.145   4.965
70794W        W37335  12.568  16.186   3.712
70795W        W37336  39.456   6.128  13.863
70796W        W37337   3.085   5.005   1.885
70797W        W37338  42.944  23.729   2.372
70798W        W37339  39.867  38.723  11.536
70799W        W37340   1.077  42.885   3.742
70800W        W37341   0.476  21.972   3.203
70801W        W37342  39.205   6.723   3.774
70802W        W37343  27.979   5.333  14.700
70803W        W37344  23.446   6.186   3.684
70804W        W37345  32.685  33.611  11.655
70805W        W37346  12.716  11.115  10.949
70806W        W37347   4.529  35.169   4.980
70807W        W37348   3.298  17.039  11.598
70808W        W37349  10.791  42.525  13.462
70809W        W37350  44.439   2.494  12.917
70810W        W37351  17.314  41.488  10.751
70811W        W37352   5.167  21.967  11.619
70812W        W37353  37.968  35.048  11.646
70813W        W37354  23.484  16.115   3.663
70814W        W37355   4.721   5.759   0.848
70815W        W37356  12.209  25.578   3.210
70816W        W37357  13.775  30.671  13.836
70817W        W37358  12.919  19.666  10.526
70818W        W37359  17.698  12.584  12.933
70819W        W37360  44.187   6.575   3.651
70820W        W37361  16.063  41.941  14.474
70821W        W37362  44.524  42.874   3.542
70822W        W37363   8.289  25.946  10.895
70823W        W37364   5.872   1.498  10.861
70824W        W37365  27.762  30.494  14.523
70825W        W37366   8.673  44.230   1.447
70826W        W37367  26.568  38.309  12.094
70827W        W37368  34.553  23.198   0.570
70828W        W37369  12.145   0.975   0.457
70829W        W37370  39.655  22.477  10.783
70830W        W37371   7.001  28.068   2.317
70831W        W37372  30.566  42.820  14.449
70832W        W37373  17.158  38.042   3.658
70833W        W37374  10.705  19.588   3.328
70834W        W37375   8.904  10.274  14.734
70835W        W37376   0.814  42.008  12.148
70836W        W37377   7.752  26.487   4.100
70837W        W37378   7.367   0.805  11.505
70838W        W37379  39.546   5.799  12.784
70839W        W37380  28.078  27.615   4.141
70840W        W37381   9.894   8.306  12.816
70841W        W37382  33.872  25.704  12.177
70842W        W37383  27.127   1.182  14.777
70843W        W37384  16.777  15.119   1.978
70844W        W37385   0.590  12.668   2.761
70845W        W37386   3.647  36.904  13.321
70846W        W37387  36.558  19.796   0.336
70847W        W37388  41.560   5.638  13.394
70848W        W37389   0.406  12.612  13.224
70849W        W37390  24.888  26.843   0.659
70850W        W37391  10.406   0.566  13.835
70851W        W37392  36.170  44.894  12.004
70852W        W37393  29.136  36.427   0.214
70853W        W37394   5.199  22.278   9.817
70854W        W37395  39.337  44.934   4.571
70855W        W37396   6.883  11.235   4.657
70856W        W37397  18.107  30.491  10.323
70857W        W37398  18.138  37.552   0.304
70858W        W37399  25.006  30.122   4.041
70859W        W37400   8.929   9.694   3.807
70860W        W37401  34.605  27.975   4.138
70861W        W37402  34.768  34.654  14.537
70862W        W37403  29.085  21.169  12.572
70863W        W37404  25.033  11.106  10.895
70864W        W37405  41.523   6.979  10.759
70865W        W37406  26.040  15.146   2.135
70866W        W37407   4.232  10.610   4.155
70867W        W37408  28.541  12.207  14.047
70868W        W37409  31.332   4.426   3.082
70869W        W37410  29.834  33.929  12.063
70870W        W37411   1.867  38.987   2.235
70871W        W37412  31.199  42.961  13.015
70872W        W37413  14.857  21.604   4.559
70873W        W37414   8.713  22.142   0.122
70874W        W37415  43.297  15.582  11.667
70875W        W37416  36.384  40.802   0.887
70876W        W37417  40.297  20.789   2.156
70877W        W37418  24.993  13.591  11.879
70878W        W37419  30.478  13.910   3.329
70879W        W37420  32.520   2.682  11.568
70880W        W37421   9.816  12.146   1.329
70881W        W37422   6.119  38.440   1.314
70882W        W37423  34.497   8.024  12.024
70883W        W37424   8.395  15.805  11.600
70884W        W37425   6.559  32.587  11.036
70885W        W37426  33.993   0.776  12.066
70886W        W37427  42.783  43.953   0.923
70887W        W37428  30.254  41.753  11.791
70888W        W37429  20.263  21.827  13.924
70889W        W37430  12.122  13.676  12.898
70890W        W37431  33.870  35.869  12.917
70891W        W37432  32.601   4.730   3.241
70892W        W37433  36.962  32.478  13.312
70893W        W37434   4.863  18.768  14.182
70894W        W37435  38.037   6.334  10.584
70895W        W37436  21.126   4.286  14.843
70896W        W37437   2.722  31.718  14.912
70897W        W37438  32.811  20.232  13.634
70898W        W37439  30.797  11.856  14.332
70899W        W37440   7.510   2.484   1.741
70900W        W37441  33.349  19.755   3.648
70901W        W37442  25.233   1.220   0.721
70902W        W37443   6.940   3.284   3.327
70903W        W37444   7.964  40.563   4.602
70904W        W37445   8.825  40.306   0.730
70905W        W37446  12.393  11.706   2.800
70906W        W37447  20.752  40.578  11.592
70907W        W37448  32.364  33.546   2.077
70908W        W37449  38.391   9.027   3.158
70909W        W37450  26.157  19.543   2.758
70910W        W37451   7.451  36.741  10.434
70911W        W37452  40.366  25.976  14.965
70912W        W37453  10.121  41.466  13.243
70913W        W37454  42.545   5.367   2.690
70914W        W37455  12.798  21.063  11.550
70915W        W37456  39.516  33.654  14.993
70916W        W37457   7.868  25.218  14.334
70917W        W37458  35.008  38.569  14.415
70918W        W37459  11.828  24.778   0.899
70919W        W37460  40.391   1.441  13.390
70920W        W37461  14.749  42.810  11.285
70921W        W37462  30.930  25.382   1.747
70922W        W37463  10.771  15.252   1.699
70923W        W37464  30.738  38.827  11.206
70924W        W37465  23.580  35.923   1.853
70925W        W37466  21.794  15.266   2.727
70926W        W37467  37.080  34.389   1.205
70927W        W37468  44.945  36.085  14.845
70928W        W37469  30.687  34.772  12.097
70929W        W37470  12.044  40.847  14.190
70930W        W37471   5.935   0.815   4.022
70931W        W37472  44.478  33.772   0.833
70932W        W37473  37.615  17.194   4.196
70933W        W37474   6.167  21.283   2.691
70934W        W37475  25.357  40.255  11.864
70935W        W37476  19.498  17.185   0.835
70936W        W37477  43.305   7.712   3.705
70937W        W37478  22.107  25.674  11.488
70938W        W37479  20.589  23.520  10.686
70939W        W37480  42.792  34.852   4.064
70940W        W37481  33.047  33.156   4.648
70941W        W37482  28.722  33.001  13.077
70942W        W37483  26.289  31.810   2.272
70943W        W37484  42.437  36.736  14.914
70944W        W37485  29.397   2.198   3.883
70945W        W37486  37.523   1.525   0.705
70946W        W37487   8.416  26.797   1.721
70947W        W37488  10.647  17.219  12.337
70948W        W37489  40.082  33.238   3.527
70949W        W37490  44.965  10.359   4.587
70950W        W37491  36.154  39.711   1.981
70951W        W37492  34.577  33.928  14.493
70952W        W37493  25.272  21.067  10.697
70953W        W37494   9.195  25.749   4.607
70954W        W37495  14.901   0.749   4.814
70955W        W37496  28.144   1.748   3.449
70956W        W37497  17.962   9.585  12.161
70957W        W37498  37.260  29.225  11.120
70958W        W37499  28.290  31.013   3.599
70959W        W37500  23.543   6.851  13.859
70960W        W37501  21.049  26.694   4.642
70961W        W37502  20.070  34.458   4.732
70962W        W37503  25.528   5.340  10.680
70963W        W37504  12.325  13.885   0.484
70964W        W37505   6.844  38.828  13.176
70965W        W37506   2.766  41.845   2.048
70966W        W37507  38.558  33.552   0.377
70967W        W37508  21.148  25.884  14.310
70968W        W37509   5.708  12.130  12.933
70969W        W37510  12.891  32.960   0.998
70970W        W37511  29.060  32.199   3.068
70971W        W37512  36.480   9.257  13.886
70972W        W37513  33.372   6.317   2.302
70973W        W37514  16.977  21.705  11.223
70974W        W37515  30.063  32.938  13.650
70975W        W37516  24.761  16.844  11.131
70976W        W37517  42.293  32.611   1.818
70977W        W37518  22.447  19.060   4.259
70978W        W37519   8.768  41.557   0.820
70979W        W37520  12.665  26.977   1.852
70980W        W37521  13.956  38.620  13.869
70981W        W37522   1.054  24.588  13.825
70982W        W37523  42.904  12.171   0.276
70983W        W37524   3.809  22.248   2.004
70984W        W37525  26.785  42.973   4.421
70985W        W37526   0.904  37.859   4.300
70986W        W37527  43.438   2.854  11.907
70987W        W37528  27.615  29.992   0.359
70988W        W37529   6.878  43.564   4.661
70989W        W37530  26.733   6.483   3.674
70990W        W37531  28.835  44.807  11.552
70991W        W37532  20.188  29.962  14.544
70992W        W37533  18.733   6.792   2.793
70993W        W37534  29.472   5.032  10.560
70994W        W37535  25.162  28.981   3.261
70995W        W37536  35.300  44.314   2.162
70996W        W37537  33.054  38.095   3.207
70997W        W37538  14.472  44.504   4.171
70998W        W37539  29.085   8.649   1.485
70999W        W37540   3.067  21.603   2.174
71000W        W37541   6.566  38.007  11.634
71001W        W37542  37.843  19.533  14.247
71002W        W37543  25.111  28.477   1.214
71003W        W37544  24.971   2.321   3.443
71004W        W37545  33.475  24.107   0.736
71005W        W37546   6.642   6.283  10.697
71006W        W37547   1.973   1.476   9.979
71007W        W37548  19.048  37.828  12.534
71008W        W37549  36.923  41.585   3.774
71009W        W37550  29.177  32.156  12.590
71010W        W37551  13.048  24.734  11.687
71011W        W37552  13.356  14.746   2.214
71012W        W37553   0.267  44.915  10.551
71013W        W37554  21.802  11.249   2.659
71014W        W37555  42.789   5.873  11.937
71015W        W37556  21.583  26.898   2.156
71016W        W37557  29.041  13.130   3.150
71017W        W37558   8.866   4.098  13.369
71018W        W37559  18.241  42.038   1.326
71019W        W37560  12.719   2.833   3.462
71020W        W37561   4.534  23.084   5.612
71021W        W37562  44.292  20.221  11.482
71022W        W37563  24.607  21.500   3.183
71023W        W37564   0.345  21.807  11.494
71024W        W37565  30.094  15.304  13.089
71025W        W37566  34.313  36.854   2.757
71026W        W37567  13.766  38.258  13.468
71027W        W37568   1.804  29.926  12.457
71028W        W37569  12.708  12.572  12.076
71029W        W37570   1.256  29.355  11.052
71030W        W37571  25.552  38.813  12.672
71031W        W37572  35.165  41.436   0.756
71032W        W37573  32.307  19.606  13.802
71033W        W37574  24.813  14.223  12.976
71034W        W37575  27.515  44.222   1.979
71035W        W37576  33.055  25.313  10.453
71036W        W37577  34.171  28.395  14.504
71037W        W37578  38.578  42.553  11.510
71038W        W37579  22.601  32.160   4.829
71039W        W37580  42.524  29.133   2.185
71040W        W37581   3.591  16.506   1.225
71041W        W37582   4.337  39.855   4.059
71042W        W37583   3.440  39.763   0.257
71043W        W37584  30.188  26.748  13.277
71044W        W37585  37.341   4.443  12.652
71045W        W37586  27.314  30.869  10.615
71046W        W37587  13.780  20.680   3.498
71047W        W37588  35.132  41.276  13.121
71048W        W37589  16.286  41.691  13.994
71049W        W37590  18.661  17.723   3.923
71050W        W37591   3.845  29.298   3.282
71051W        W37592   5.441  25.725  12.575
71052W        W37593  32.443   7.318  13.167
71053W        W37594  34.992  10.937   4.986
71054W        W37595  41.861  13.684   2.368
71055W        W37596  15.264   5.421  12.763
71056W        W37597  30.954  31.154  10.509
71057W        W37598  22.386   9.355   0.441
71058W        W37599  16.622  29.549  14.242
71059W        W37600   7.486  16.572  11.841
71060W        W37601  18.618  26.375  13.906
71061W        W37602   1.922   7.246   3.242
71062W        W37603  15.817   1.663   3.241
71063W        W37604   1.985   9.795   3.918
71064W        W37605  10.815  41.816   3.238
71065W        W37606  21.795  24.153   2.254
71066W        W37607   3.212   0.782   0.842
71067W        W37608  41.793   9.776   1.782
71068W        W37609   5.931   2.701   0.255
71069W        W37610  41.008  44.363   0.864
71070W        W37611  30.427  27.746  13.974
71071W        W37612   5.747  18.482   4.206
71072W        W37613  40.814   3.130  11.926
71073W        W37614  18.821  18.526  13.433
71074W        W37615  40.259   6.692  11.669
71075W        W37616  33.103  27.152   2.182
71076W        W37617  19.952   4.641  14.767
71077W        W37618  27.536  36.300   1.357
71078W        W37619  28.898  37.684  11.065
71079W        W37620  38.541  37.427   1.441
71080W        W37621  30.016  34.357  10.773
71081W        W37622  31.547   5.738   1.720
71082W        W37623   8.886   8.839   3.788
71083W        W37624   8.806  14.851  14.710
71084W        W37625  15.125   9.887  14.704
71085W        W37626  33.914  24.391  13.973
71086W        W37627  42.060  32.959   3.798
71087W        W37628  42.935  19.747   2.320
71088W        W37629  10.357   2.815   1.966
71089W        W37630  39.376  32.667  14.899
71090W        W37631   7.649  39.280  12.582
71091W        W37632  26.260  14.126  10.730
71092W        W37633  23.945  23.646  13.258
71093W        W37634  16.636  14.712  12.098
71094W        W37635  23.354  28.791  12.073
71095W        W37636  16.268  18.484  11.022
71096W        W37637   1.371  10.730  12.678
71097W        W37638  11.748  42.553  13.859
71098W        W37639   9.800  42.395   3.245
71099W        W37640  14.023  14.296  13.918
71100W        W37641   3.272  28.757  10.059
71101W        W37642   6.120   6.476   4.545
71102W        W37643   0.857   4.107   3.630
71103W        W37644  38.046  12.371  11.970
71104W        W37645   4.334   7.615  11.501
71105W        W37646   8.857  15.258   3.324
71106W        W37647  32.975   1.347   3.344
71107W        W37648  22.317  31.039   1.197
71108W        W37649  10.812  39.106   3.096
71109W        W37650  22.144  27.912   3.652
71110W        W37651  23.201   8.651   0.381
71111W        W37652  16.172  44.012   3.145
71112W        W37653  41.436  41.496  12.921
71113W        W37654   4.182  28.507  12.551
71114W        W37655  24.154   5.345   3.461
71115W        W37656  42.523  25.233  14.881
71116W        W37657  28.091   6.939  13.928
71117W        W37658  18.921  38.757   0.856
71118W        W37659   1.690   1.987   3.057
71119W        W37660  21.625  11.272  12.848
71120W        W37661   1.490  26.682  10.267
71121W        W37662   6.688  27.075   0.968
71122W        W37663  40.797  35.650  11.211
71123W        W37664   2.672  34.823   5.396
71124W        W37665  44.907  36.486   3.206
71125W        W37666  38.480  32.660   2.882
71126W        W37667  38.974  29.033  11.206
71127W        W37668  10.299   6.859   0.363
71128W        W37669  28.509  18.511   1.256
71129W        W37670  37.863  17.568   4.864
71130W        W37671  39.114  16.343  12.461
71131W        W37672  15.097   0.248   2.749
71132W        W37673  28.346   1.940  12.916
71133W        W37674   6.265  44.832   4.136
71134W        W37675  24.091  15.241  12.978
71135W        W37676  10.079   8.179  11.795
71136W        W37677  44.556  22.969  14.807
71137W        W37678  10.372  40.000  14.523
71138W        W37679  22.200  16.631   3.729
71139W        W37680   6.803  24.427  12.938
71140W        W37681  24.833   3.602   2.146
71141W        W37682  38.624   5.200  14.487
71142W        W37683  23.732  43.174   1.184
71143W        W37684  44.725  14.245   3.311
71144W        W37685   0.882   8.257   4.439
71145W        W37686  27.913  14.132   4.207
71146W        W37687  26.656  10.336   4.530
71147W        W37688  44.011  25.683  10.497
71148W        W37689  43.434  13.020  13.028
71149W        W37690  34.706  40.736  12.492
71150W        W37691  31.213  33.114  10.766
71151W        W37692  26.230  37.072   4.363
71152W        W37693  32.915  37.438  13.362
71153W        W37694   4.788   3.864  13.547
71154W        W37695  20.053  10.407  12.887
71155W        W37696  38.377   2.266  12.588
71156W        W37697  40.450  30.628   1.778
71157W        W37698  12.873   2.419   0.290
71158W        W37699  15.950  27.130   1.651
71159W        W37700  14.999  17.239   0.797
71160W        W37701   9.886   1.839   1.639
71161W        W37702  25.482  12.310  11.682
71162W        W37703  38.078  26.356  11.340
71163W        W37704   3.162  37.712   2.564
71164W        W37705  13.262  42.237  10.804
71165W        W37706  32.414  38.302   1.811
71166W        W37707  29.128   8.773   0.979
71167W        W37708   0.312  43.902   1.762
71168W        W37709  27.638  37.910   1.865
71169W        W37710  43.473  39.177   0.857
71170W        W37711   2.470  27.561   2.662
71171W        W37712  41.603  26.378   1.830
71172W        W37713   8.797   4.984  11.029
71173W        W37714  16.029  34.459  11.110
71174W        W37715  12.094   9.314   1.800
71175W        W37716  38.249   7.957   4.191
71176W        W37717  11.420  42.722   1.507
71177W        W37718  28.020   1.939   1.745
71178W        W37719  35.773  39.037   0.295
71179W        W37720  25.923  32.451   2.705
71180W        W37721  15.337  16.750  10.541
71181W        W37722   5.770  11.678  11.545
71182W        W37723  24.719  12.358   1.878
71183W        W37724  24.262  43.266   4.808
71184W        W37725  21.905  29.013   1.808
71185W        W37726  25.980   1.306   2.739
71186W        W37727  43.901  21.148  14.254
71187W        W37728  24.305  40.686  12.581
71188W        W37729  17.805  31.082   2.440
71189W        W37730  26.503  12.319   3.955
71190W        W37731  20.405  37.929   0.573
71191W        W37732  40.114  11.301  11.506
71192W        W37733  18.097  32.472   4.540
71193W        W37734  28.142  38.993  11.123
71194W        W37735  35.158   5.422   3.865
71195W        W37736  20.022  13.667   2.201
71196W        W37737  29.628  11.859  11.306
71197W        W37738   5.656   6.522  13.856
71198W        W37739  15.761  38.619   2.846
71199W        W37740  12.137   4.207  11.088
71200W        W37741  16.664  32.747  12.927
71201W        W37742  23.373  15.530  13.042
71202W        W37743  41.361  13.062  12.869
71203W        W37744  34.193   1.546  12.968
71204W        W37745  33.399  29.523   3.596
71205W        W37746  15.104  37.302  13.406
71206W        W37747  32.152  12.615  12.999
71207W        W37748  40.002  18.710   2.641
71208W        W37749  14.173  11.233   2.147
71209W        W37750  28.446   8.327  14.470
71210W        W37751  42.478  44.579   4.059
71211W        W37752  34.165  28.381   0.127
71212W        W37753  27.784  18.493  13.540
71213W        W37754  29.166  25.107   3.769
71214W        W37755   8.950  17.325   3.540
71215W        W37756  20.049  25.601   0.122
71216W        W37757  23.399  38.108  14.870
71217W        W37758  24.038   1.495  12.452
71218W        W37759  26.127  32.427   0.867
71219W        W37760   3.239   8.435   3.349
71220W        W37761  18.814  40.630   3.804
71221W        W37762  33.590  19.978  11.144
71222W        W37763  12.728   8.953   4.175
71223W        W37764  16.279  32.535  12.576
71224W        W37765  39.225  29.463   3.066
71225W        W37766   7.380  21.624   4.269
71226W        W37767   4.738  24.117   1.762
71227W        W37768  13.165  26.326  12.776
71228W        W37769  14.414   2.424   0.992
71229W        W37770  15.911   2.995   0.353
71230W        W37771   5.001  12.651   1.220
71231W        W37772  31.482   6.446  11.442
71232W        W37773  21.237   8.278  11.388
71233W        W37774  29.209   7.778   1.905
71234W        W37775   3.415  34.669  10.671
71235W        W37776   3.110   9.363  14.780
71236W        W37777  26.245  27.090  11.346
71237W        W37778  40.763   5.012   1.783
71238W        W37779  28.456  20.582  14.374
71239W        W37780  34.354  32.381   2.894
71240W        W37781  34.077  38.427   0.729
71241W        W37782   2.311   8.936  12.983
71242W        W37783  16.160  41.880   3.951
71243W        W37784  17.788  31.601  12.295
71244W        W37785  27.580  22.098  14.325
71245W        W37786  40.597  19.588  12.484
71246W        W37787  30.927  24.473   1.938
71247W        W37788  11.761  25.614   2.932
71248W        W37789  24.447  13.909   1.417
71249W        W37790  35.436  19.993   2.871
71250W        W37791  35.824   1.012   3.626
71251W        W37792  43.749  30.183  12.370
71252W        W37793  16.206  15.991  10.224
71253W        W37794  39.686   6.829   3.531
71254W        W37795  19.889  13.889   2.634
71255W        W37796   6.137  42.323   1.832
71256W        W37797  25.498  43.975  11.289
71257W        W37798  44.254  16.865   2.441
71258W        W37799  24.555   6.675   4.696
71259W        W37800  28.110  43.472  11.597
71260W        W37801  34.834  27.026   1.754
71261W        W37802   6.569  35.382   3.938
71262W        W37803  35.999  23.453   0.384
71263W        W37804   9.243  34.313  10.537
71264W        W37805   4.917  16.778   0.976
71265W        W37806   9.695   6.774   0.029
71266W        W37807   0.731  19.824   0.410
71267W        W37808  37.546   1.193  11.362
71268W        W37809  22.766  30.938  10.696
71269W        W37810  22.990  21.644  12.379
71270W        W37811  31.361  43.633  13.949
71271W        W37812  14.231  30.173  13.490
71272W        W37813  43.805  39.113  13.968
71273W        W37814   9.625   0.866  11.564
71274W        W37815   4.926  32.276  14.820
71275W        W37816  24.300   8.441  14.901
71276W        W37817   3.764  39.804  11.931
71277W        W37818  41.738  38.442   3.809
71278W        W37819  40.473  32.935   3.660
71279W        W37820  27.561  12.904  12.657
71280W        W37821  14.132  21.742   3.521
71281W        W37822   5.292  17.685   1.867
71282W        W37823  37.900   1.219  14.850
71283W        W37824  29.922  34.438   2.204
71284W        W37825  33.553  31.323  10.643
71285W        W37826  16.447  19.836   2.761
71286W        W37827  30.159  27.206  10.550
71287W        W37828  15.806   4.899  12.041
71288W        W37829   7.237  42.642  14.542
71289W        W37830   1.002   3.615  12.926
71290W        W37831  41.181  16.201   0.834
71291W        W37832  44.435  33.962  12.157
71292W        W37833  39.917   8.094   1.210
71293W        W37834   3.800   8.242   4.799
71294W        W37835  25.483  37.473   2.558
71295W        W37836  42.395  19.206  12.849
71296W        W37837   4.741  16.068  14.725
71297W        W37838  22.134   3.465  11.561
71298W        W37839  13.673  12.527   3.994
71299W        W37840   5.522   9.333   4.023
71300W        W37841  15.065  31.614   0.462
71301W        W37842  24.679  15.693  11.967
71302W        W37843  39.728  17.391   2.344
71303W        W37844  32.163  29.867   1.842
71304W        W37845  16.997   5.165   0.430
71305W        W37846  35.685  24.029   4.871
71306W        W37847  43.957  26.905   0.317
71307W        W37848  40.868  43.920   1.928
71308W        W37849  12.638  26.465   1.710
71309W        W37850  35.955  23.423  11.113
71310W        W37851  24.139  20.217   4.644
71311W        W37852  35.330  13.949  13.390
71312W        W37853   1.641  11.249  14.855
71313W        W37854  35.481  30.480  10.760
71314W        W37855  19.832  38.035  13.908
71315W        W37856  16.646   8.119   4.810
71316W        W37857  44.884  38.151  13.946
71317W        W37858   0.291  17.564   3.352
71318W        W37859   9.068   0.528  14.779
71319W        W37860   8.644  22.097  11.992
71320W        W37861  18.094  43.469   2.864
71321W        W37862  20.508  36.584  11.179
71322W        W37863   7.798   4.093  11.103
71323W        W37864  28.047   9.126   4.568
71324W        W37865   8.863  44.570  10.783
71325W        W37866  23.178  30.170   2.857
71326W        W37867  10.894   0.050   0.789
71327W        W37868  41.347  14.291  10.869
71328W        W37869  42.265  20.773  11.890
71329W        W37870  21.698  26.925  14.236
71330W        W37871   4.713  13.191   2.648
71331W        W37872  26.758  12.153  13.046
71332W        W37873  35.092  16.502   2.655
71333W        W37874  36.076  36.562  11.385
71334W        W37875  15.097  27.565  10.991
71335W        W37876  29.689   4.489  12.391
71336W        W37877  23.737  25.943  12.999
71337W        W37878   8.360   8.770   3.638
71338W        W37879   9.192  19.097  14.016
71339W        W37880  35.207  18.212  13.002
71340W        W37881  33.874  16.357  11.688
71341W        W37882  15.134  22.108   1.852
71342W        W37883  25.161  36.430  14.405
71343W        W37884  22.605   4.469  10.004
71344W        W37885  33.345  21.575   0.587
71345W        W37886  44.103  41.913   4.024
71346W        W37887  39.730   1.252  14.456
71347W        W37888  17.625  29.610   4.829
71348W        W37889  38.992  33.605  12.019
71349W        W37890   1.154  24.160   0.248
71350W        W37891  44.199  29.698  14.932
71351W        W37892  39.373  30.505   4.959
71352W        W37893   1.211  25.570   4.155
71353W        W37894  38.013  44.007  14.060
71354W        W37895  10.185  25.089   1.885
71355W        W37896  23.901  11.598  12.520
71356W        W37897  44.780  10.697  11.381
71357W        W37898  40.167   5.685   1.951
71358W        W37899  28.320  38.506  11.212
71359W        W37900   1.952  15.370  13.605
71360W        W37901   1.710  38.438  11.655
71361W        W37902  19.337   1.838   4.461
71362W        W37903  13.171   4.294   3.221
71363W        W37904   3.425  30.816  12.727
71364W        W37905   4.316  42.397   2.183
71365W        W37906  41.453  42.800  14.527
71366W        W37907  22.155  29.408  14.815
71367W        W37908  44.815  32.605   0.901
71368W        W37909  21.074  18.499  10.480
71369W        W37910  38.824  30.522  12.567
71370W        W37911  28.291  24.943   3.000
71371W        W37912  43.209  14.142  11.628
71372W        W37913   5.339   1.178  10.304
71373W        W37914   6.644  40.341  12.494
71374W        W37915  41.203  23.998   1.482
71375W        W37916  27.056   5.862   0.951
71376W        W37917  28.172   0.294  10.116
71377W        W37918  28.603  30.078  11.997
71378W        W37919  36.609  17.683  14.352
71379W        W37920  11.732   6.915   2.712
71380W        W37921  41.571  20.455  11.364
71381W        W37922  33.851  13.141   0.718
71382W        W37923  30.482   5.664  13.834
71383W        W37924  33.101   3.913   1.220
71384W        W37925  12.939   6.936  10.747
71385W        W37926  24.595  41.528   1.779
71386W        W37927  35.341  23.200   1.397
71387W        W37928  23.642  26.120  10.940
71388W        W37929  10.229  30.855  13.989
71389W        W37930   8.609  27.154  14.034
71390W        W37931  36.064  27.201  12.445
71391W        W37932  25.192  44.049  14.890
71392W        W37933  26.769   9.270  12.825
71393W        W37934  22.464   0.002  10.439
71394W        W37935  33.167  40.319   4.894
71395W        W37936  19.172  42.055   3.209
71396W        W37937   9.572   3.797   3.742
71397W        W37938  35.203  26.015   2.318
71398W        W37939  18.652  36.344   2.585
71399W        W37940  13.269  32.222   1.034
71400W        W37941  41.463   3.469   1.282
71401W        W37942   8.691  19.159  12.667
71402W        W37943  28.122  18.486  12.903
71403W        W37944  12.520  28.865   4.774
71404W        W37945  44.449  11.876   4.232
71405W        W37946  28.942  12.133   3.902
71406W        W37947  40.122  15.994   4.941
71407W        W37948  37.831   7.476  12.968
71408W        W37949  15.213   5.972   0.962
71409W        W37950  34.322  43.279   2.987
71410W        W37951  16.862  42.177   1.880
71411W        W37952  13.727  18.797   1.878
71412W        W37953  23.959  30.102  12.618
71413W        W37954  36.330  28.156   3.581
71414W        W37955  17.820   0.503   0.336
71415W        W37956  35.980  22.050  11.655
71416W        W37957   6.758  11.472   1.768
71417W        W37958  30.764  44.910  14.703
71418W        W37959  36.614  23.490  10.746
71419W        W37960   9.753  30.865   3.754
71420W        W37961  41.430   8.096   1.261
71421W        W37962  43.235  24.601   2.839
71422W        W37963  17.423  35.117   3.199
71423W        W37964  11.583   8.293  11.597
71424W        W37965  16.066  22.188   4.545
71425W        W37966  13.075  29.071  10.699
71426W        W37967  31.466  19.945  10.712
71427W        W37968  39.113   9.301   2.248
71428W        W37969   7.950   3.290   4.157
71429W        W37970  12.356  26.008   0.390
71430W        W37971  35.935  34.047  14.300
71431W        W37972  16.229  20.420   4.116
71432W        W37973  33.035  36.562  14.835
71433W        W37974  16.184  34.407   1.392
71434W        W37975  28.002  10.359   0.520
71435W        W37976  16.016  12.309  14.909
71436W        W37977  14.193  12.517   4.578
71437W        W37978   5.749  39.954  10.879
71438W        W37979   7.029  22.500  13.383
71439W        W37980  18.580  27.787   1.623
71440W        W37981   1.746  10.313   4.608
71441W        W37982  15.590   2.460   2.881
71442W        W37983  41.971  21.093   0.838
71443W        W37984   5.447  11.327  11.845
71444W        W37985  38.816  25.397   4.175
71445W        W37986  18.158  12.560   9.831
71446W        W37987  16.785   0.291  14.843
71447W        W37988  37.558  31.626  11.472
71448W        W37989  44.265   8.080   1.602
71449W        W37990  13.436  38.490  13.823
71450W        W37991  19.526  35.024  14.960
71451W        W37992  29.714   6.319  13.627
71452W        W37993  38.479  21.643   4.063
71453W        W37994  32.361  24.580  12.447
71454W        W37995  41.526  37.997  12.028
71455W        W37996  26.908  24.687  10.685
71456W        W37997   2.229   6.935  10.454
71457W        W37998   0.323  16.545  11.487
71458W        W37999  17.440   0.558   0.737
71459W        W38000  18.642  10.798  10.634
71460W        W38001  22.526  41.495  14.584
71461W        W38002   8.973  42.740   1.846
71462W        W38003  22.056  29.447  10.986
71463W        W38004  19.634  32.465  12.934
71464W        W38005   4.380  10.838  13.704
71465W        W38006  15.769  39.838   2.520
71466W        W38007  13.173  27.441   2.168
71467W        W38008  14.849   9.301   2.609
71468W        W38009   1.017  43.736  12.939
71469W        W38010  16.552   0.189   1.830
71470W        W38011  35.073  36.937   1.630
71471W        W38012  24.689  33.122  14.545
71472W        W38013  23.079  36.507  10.464
71473W        W38014  36.564  29.008   2.771
71474W        W38015   6.374   8.954  11.457
71475W        W38016  12.414  26.006  14.404
71476W        W38017  23.378  36.102   3.791
71477W        W38018  31.463  25.904  13.007
71478W        W38019   4.854  14.892  10.690
71479W        W38020  16.555  40.497  14.987
71480W        W38021  26.725  14.695   4.184
71481W        W38022  35.176   6.341  10.947
71482W        W38023  25.386  39.493  14.891
71483W        W38024  21.708  10.883  11.482
71484W        W38025  31.844  26.107   3.216
71485W        W38026  19.486  35.841   2.884
71486W        W38027  22.695  39.448  10.224
71487W        W38028  25.582  44.884   0.751
71488W        W38029  35.872  13.255   4.510
71489W        W38030  12.106  32.396   2.796
71490W        W38031  19.689  44.655  14.975
71491W        W38032  37.699  29.009   2.780
71492W        W38033  23.452  12.211   3.759
71493W        W38034  38.655  13.635   3.157
71494W        W38035  20.994   8.615  12.163
71495W        W38036  13.389  41.630  12.300
71496W        W38037  13.391  14.433  12.005
71497W        W38038  17.705   6.245   3.721
71498W        W38039  18.570  18.542   5.015
71499W        W38040  30.920  12.299  14.600
71500W        W38041  17.041   7.910   3.563
71501W        W38042  27.056  40.442  11.065
71502W        W38043  17.580  13.185  11.854
71503W        W38044   4.977  11.136  11.960
71504W        W38045  29.017  11.650   2.597
71505W        W38046  44.010  12.268  12.952
71506W        W38047  27.130  40.925  13.806
71507W        W38048  28.103  19.548   3.595
71508W        W38049  30.896  21.045  14.862
71509W        W38050  30.181  21.254   2.134
71510W        W38051  30.164  10.504   4.474
71511W        W38052  11.364  12.125   4.022
71512W        W38053  36.511  27.938  14.312
71513W        W38054  19.975   1.617   3.264
71514W        W38055   1.370  14.222   0.369
71515W        W38056  19.528  19.069  11.447
71516W        W38057  10.723  44.316   0.388
71517W        W38058   1.521   9.186   3.126
71518W        W38059   2.738  42.469  14.381
71519W        W38060  19.075  31.613   1.897
71520W        W38061  30.099  17.130  11.870
71521W        W38062  33.957  22.263   0.900
71522W        W38063  29.836  40.286   1.678
71523W        W38064  35.020  42.368   1.615
71524W        W38065  20.090  19.690  12.210
71525W        W38066  18.164  18.177  11.383
71526W        W38067  40.520  30.351   3.140
71527W        W38068   3.698  43.684   5.423
71528W        W38069   7.266  29.504   4.005
71529W        W38070  39.270  17.092   4.036
71530W        W38071   4.849  36.929   2.215
71531W        W38072  41.967  14.840  13.109
71532W        W38073   7.754  15.910   1.898
71533W        W38074  23.673  39.824   0.499
71534W        W38075  21.471   6.320   0.382
71535W        W38076  40.862  21.135  12.788
71536W        W38077  13.615  29.414  12.510
71537W        W38078  12.259   7.459   2.087
71538W        W38079   4.444   7.862  11.068
71539W        W38080  30.993   3.967  11.165
71540W        W38081  24.195  41.926   4.785
71541W        W38082  18.674  42.304   4.520
71542W        W38083  39.928   2.724  14.369
71543W        W38084  37.744  38.378  12.492
71544W        W38085  20.606  22.454   4.265
71545W        W38086   7.854  30.496   0.956
71546W        W38087  41.475  32.579   3.224
71547W        W38088  20.202  28.232  11.121
71548W        W38089  25.985  16.666  11.021
71549W        W38090  40.479  13.030   3.531
71550W        W38091  30.038  15.911   0.297
71551W        W38092  12.003  10.762   0.321
71552W        W38093  24.137  34.433   4.247
71553W        W38094  24.204  15.700   4.325
71554W        W38095  16.752  16.121  11.178
71555W        W38096  32.936  34.136   3.708
71556W        W38097  35.828  29.299  11.224
71557W        W38098  28.142  17.816  14.347
71558W        W38099  12.797  14.180  12.066
71559W        W38100  18.452  19.085   1.200
71560W        W38101  25.036  34.421  10.554
71561W        W38102  14.412  13.430   3.129
71562W        W38103  24.130  31.091  10.683
71563W        W38104  29.003   7.302   2.714
71564W        W38105  37.421  19.775   4.777
71565W        W38106   4.540  37.853  12.519
71566W        W38107  39.495  30.979  13.971
71567W        W38108  13.839  38.695   4.179
71568W        W38109  25.508  24.512  10.738
71569W        W38110  30.333  38.465  13.511
71570W        W38111  11.132  24.805  13.876
71571W        W38112  30.703  10.876  11.044
71572W        W38113  14.370   7.810   2.373
71573W        W38114  13.821  21.066   4.402
71574W        W38115  15.840  43.520   0.399
71575W        W38116  25.984  31.411   2.777
71576W        W38117  19.622  28.228  11.176
71577W        W38118   9.262   9.523   4.248
71578W        W38119  38.947   9.487  14.013
71579W        W38120  10.900   4.071   4.181
71580W        W38121  40.358  29.640  11.556
71581W        W38122  24.978   8.685  10.315
71582W        W38123   4.394  32.743   4.160
71583W        W38124  24.727  12.101  13.804
71584W        W38125  38.561   4.585   4.110
71585W        W38126  17.766  27.923   3.310
71586W        W38127   9.392  23.665   1.459
71587W        W38128  34.564  19.327  12.072
71588W        W38129  28.739  44.426   2.648
71589W        W38130  22.702  29.096   3.655
71590W        W38131  39.094   9.723   0.710
71591W        W38132   8.475  36.881   5.020
71592W        W38133   3.838  13.378   1.700
71593W        W38134   9.414  28.715  11.595
71594W        W38135   7.259  41.459   3.846
71595W        W38136  36.860   2.339   4.082
71596W        W38137   0.774   6.629  14.976
71597W        W38138  29.932  44.320  11.060
71598W        W38139  23.642  23.489   0.354
71599W        W38140  37.318  20.185  10.807
71600W        W38141  14.874  10.930  11.913
71601W        W38142  35.120  35.095   0.468
71602W        W38143  21.595  27.440   3.380
71603W        W38144   3.490  37.553   5.118
71604W        W38145  21.680  15.665  11.960
71605W        W38146   3.701   7.400   3.974
71606W        W38147  36.457  32.559   2.399
71607W        W38148  44.947  15.348  13.006
71608W        W38149  32.794  37.607  12.405
71609W        W38150  34.378   0.962   1.936
71610W        W38151  14.806  44.751  12.761
71611W        W38152   4.195  10.655  12.817
71612W        W38153  27.473  14.602   1.473
71613W        W38154  11.691   0.245  11.525
71614W        W38155  13.661  35.466   4.147
71615W        W38156  14.181  16.536  13.488
71616W        W38157  31.060  12.272   2.438
71617W        W38158  40.017  31.078  11.629
71618W        W38159  21.717  34.027  13.896
71619W        W38160  11.123  38.832   4.709
71620W        W38161  31.963  38.934  14.944
71621W        W38162  20.205   9.229   2.365
71622W        W38163  31.284   7.452   2.524
71623W        W38164  20.673  44.890  14.315
71624W        W38165  11.346  40.481  13.406
71625W        W38166  16.727   0.494  10.411
71626W        W38167  39.458  15.741  14.031
71627W        W38168  10.173  38.902  13.507
71628W        W38169  24.034  36.838  14.975
71629W        W38170  27.694  21.831  11.588
71630W        W38171  28.568  43.402  11.832
71631W        W38172  42.270  13.200  13.008
71632W        W38173   6.954   3.341  14.996
71633W        W38174  23.747  15.799  12.474
71634W        W38175  21.255   4.236  12.617
71635W        W38176  26.031  43.860   4.792
71636W        W38177  24.483   6.644   0.022
71637W        W38178   1.795   1.334  10.446
71638W        W38179   1.671   2.365  14.680
71639W        W38180  15.112  36.147   4.505
71640W        W38181  44.474   3.017  10.938
71641W        W38182   3.449   5.755   4.679
71642W        W38183   8.937   4.367  10.636
71643W        W38184  37.476  14.058   0.623
71644W        W38185  27.499  43.476  13.229
71645W        W38186  16.536  18.259  11.653
71646W        W38187   9.863  18.257   3.463
71647W        W38188  37.499   8.206  10.451
71648W        W38189  33.202  35.932   0.810
71649W        W38190  34.032  21.599   3.789
71650W        W38191   5.321   2.516   3.238
71651W        W38192   9.601  14.295  13.488
71652W        W38193  27.959  27.977   1.518
71653W        W38194  38.463  43.666  10.861
71654W        W38195  44.295  38.420   2.810
71655W        W38196   6.717  34.655   0.168
71656W        W38197  18.783  35.154   1.058
71657W        W38198  31.771  20.069   3.976
71658W        W38199  32.038  41.893  12.543
71659W        W38200  20.161  14.492   1.894
71660W        W38201  25.146   7.373   2.107
71661W        W38202   3.851  21.627   4.614
71662W        W38203  28.284   8.832  14.380
71663W        W38204  11.629  21.195  10.217
71664W        W38205  12.396   1.729  11.140
71665W        W38206  16.192  11.828  14.802
71666W        W38207  38.286  14.128  11.866
71667W        W38208  30.680   4.826  11.598
71668W        W38209  16.514  25.601   2.729
71669W        W38210   7.465   2.981   1.880
71670W        W38211  18.086  36.980   1.168
71671W        W38212  19.989  16.496   0.258
71672W        W38213  11.601  19.706  14.825
71673W        W38214   5.914  20.275  12.463
71674W        W38215  16.765  19.241  10.903
71675W        W38216  34.179  20.663  11.563
71676W        W38217  38.919  33.164  11.033
71677W        W38218  32.746  22.751  11.484
71678W        W38219  37.925   2.865   0.902
71679W        W38220  34.168  44.979  13.953
71680W        W38221  30.809   8.134  13.394
71681W        W38222  33.793  38.980  10.079
71682W        W38223  19.477  30.394  13.027
71683W        W38224   4.416  27.461  12.059
71684W        W38225  12.238  22.993  10.805
71685W        W38226  10.320  19.978  12.400
71686W        W38227   8.999  34.222  12.267
71687W        W38228  30.089   8.386   1.424
71688W        W38229  43.582   8.775  11.612
71689W        W38230   2.149   1.813  13.917
71690W        W38231  35.385   9.996  11.951
71691W        W38232  28.908  32.962  13.555
71692W        W38233  43.063  39.445  12.245
71693W        W38234  42.487   7.623   2.135
71694W        W38235  28.955  27.607   1.135
71695W        W38236   9.627  38.357  13.885
71696W        W38237  38.822  39.501  14.249
71697W        W38238  11.417  36.125  11.251
71698W        W38239  12.429  38.435  13.428
71699W        W38240  24.425  26.051  11.714
71700W        W38241  17.837  41.298   0.738
71701W        W38242   1.403   5.153   0.890
71702W        W38243   6.216  14.009  11.181
71703W        W38244   9.858  41.919   0.864
71704W        W38245  21.106  26.089  12.071
71705W        W38246   7.885  35.586  10.966
71706W        W38247   3.388  40.480   5.062
71707W        W38248   6.785   2.791  14.344
71708W        W38249  17.190  27.753   0.190
71709W        W38250  42.968   8.822  12.421
71710W        W38251   2.329  35.883  10.142
71711W        W38252  31.415  35.431  13.547
71712W        W38253  42.962  37.958  11.671
71713W        W38254  26.940  13.692  10.420
71714W        W38255   9.918  30.941   0.432
71715W        W38256  21.659  34.497  11.711
71716W        W38257  13.754  43.135   4.746
71717W        W38258  18.846  44.847  12.878
71718W        W38259  10.946  37.121  12.443
71719W        W38260   8.210  44.990   4.202
71720W        W38261  20.920  43.423   1.638
71721W        W38262  41.419  43.003  11.640
71722W        W38263  18.156  11.568   2.228
71723W        W38264  26.259  19.803  11.948
71724W        W38265  36.466  35.268   4.522
71725W        W38266  25.903  18.980  14.363
71726W        W38267  42.465   3.807   4.438
71727W        W38268  26.641  17.121   1.884
71728W        W38269  30.646   7.785   5.076
71729W        W38270   1.448  23.668  13.836
71730W        W38271  14.199   8.975   1.763
71731W        W38272  31.632  14.981   2.687
71732W        W38273  29.585   0.977   4.126
71733W        W38274  23.250  37.828  14.434
71734W        W38275  33.942   3.340  13.350
71735W        W38276  27.143  22.553   2.853
71736W        W38277  26.244  17.692   4.742
71737W        W38278  36.577  16.302  13.600
71738W        W38279  16.651  23.332   4.902
71739W        W38280  32.000  19.670   2.436
71740W        W38281   4.281   6.766   4.175
71741W        W38282   9.729  29.032  11.976
71742W        W38283  13.678  21.088  11.598
71743W        W38284  12.237  13.836   3.075
71744W        W38285  27.872  22.276   1.450
71745W        W38286  24.213  31.015  14.105
71746W        W38287  30.603  24.408  10.569
71747W        W38288  24.768  23.153  11.173
71748W        W38289  39.493  44.040   1.435
71749W        W38290  28.173  10.107   1.903
71750W        W38291  10.240  39.825   3.186
71751W        W38292  31.375  38.726  13.106
71752W        W38293  25.587  31.555   3.101
71753W        W38294  15.821  16.369   3.928
71754W        W38295  42.060  28.581  12.475
71755W        W38296  10.302   3.736   2.307
71756W        W38297  35.040   7.706  12.555
71757W        W38298  35.159  22.155  12.019
71758W        W38299  16.562  23.994   1.317
71759W        W38300  10.698  10.481  14.890
71760W        W38301  12.399  32.005  10.663
71761W        W38302  40.978  23.841  13.202
71762W        W38303  18.595   8.577  12.897
71763W        W38304  41.051  14.999   3.875
71764W        W38305  44.345  29.852  14.441
71765W        W38306  40.041  44.909   3.318
71766W        W38307   2.388  28.069   4.145
71767W        W38308  42.810  32.528  13.395
71768W        W38309  10.784  34.798  12.605
71769W        W38310  14.760  19.828   5.383
71770W        W38311  33.185  37.853   0.706
71771W        W38312  36.778  44.914   0.862
71772W        W38313  31.059  17.730   2.584
71773W        W38314  18.326  28.684   2.088
71774W        W38315  34.841  21.310  14.372
71775W        W38316  14.530   3.050   1.675
71776W        W38317  15.765  19.026  10.701
71777W        W38318  28.585  30.894  12.723
71778W        W38319  40.872  33.637  14.576
71779W        W38320  35.783   9.377  13.445
71780W        W38321  42.056   4.469  13.065
71781W        W38322  26.266  32.499   0.359
71782W        W38323  22.617  21.554  13.596
71783W        W38324   0.997  41.273  11.651
71784W        W38325  23.948  23.393   3.107
71785W        W38326  11.291  11.200  14.465
71786W        W38327  21.572   0.926  13.361
71787W        W38328   8.489  30.236   1.864
71788W        W38329  25.947  33.068   4.770
71789W        W38330  44.302  18.954   1.084
71790W        W38331  37.051  42.761   2.866
71791W        W38332  11.062  24.222   0.297
71792W        W38333  18.198   5.700   3.180
71793W        W38334  39.483   0.735   3.104
71794W        W38335  15.328  44.070   0.894
71795W        W38336  31.297  16.551   3.342
71796W        W38337   5.991  29.434   0.883
71797W        W38338  40.234  26.096  14.355
71798W        W38339  22.020  18.637  11.525
71799W        W38340  44.792  17.515   3.227
71800W        W38341  39.202  25.063  11.882
71801W        W38342  44.833  30.165   2.469
71802W        W38343  37.794  29.192  11.101
71803W        W38344  36.957  13.841  10.812
71804W        W38345   9.190  29.075  12.878
71805W        W38346   1.005  15.333   1.220
71806W        W38347  22.647  42.142  11.506
71807W        W38348   8.845  29.402  14.082
71808W        W38349  31.473  17.899  12.423
71809W        W38350  14.814  43.990   3.137
71810W        W38351  27.906  30.452  11.148
71811W        W38352  42.238  36.082   0.346
71812W        W38353  22.164  33.118   0.430
71813W        W38354   1.800   7.823  14.981
71814W        W38355  44.248   1.738  13.498
71815W        W38356  30.965   2.999  14.795
71816W        W38357  35.436   4.766   3.915
71817W        W38358  19.696  10.558   3.337
71818W        W38359  11.822   2.069   2.795
71819W        W38360  33.934  33.835   2.098
71820W        W38361  10.842  22.628   2.359
71821W        W38362   9.721  33.438  13.804
71822W        W38363  17.157  13.661   0.571
71823W        W38364  36.975  18.433  12.536
71824W        W38365   1.244  18.094   3.780
71825W        W38366  32.867  12.759   1.927
71826W        W38367  18.729  41.893   1.497
71827W        W38368  29.564  12.353   3.243
71828W        W38369  24.089  13.646   3.048
71829W        W38370  29.168  40.992  11.997
71830W        W38371  43.954  15.630  13.827
71831W        W38372  38.911  32.850  10.030
71832W        W38373   9.292  25.435   0.221
71833W        W38374  11.075  30.191  13.968
71834W        W38375  13.233   2.663  13.934
71835W        W38376   7.572  24.582  13.346
71836W        W38377  10.334  30.220   2.476
71837W        W38378  11.503  19.282  12.538
71838W        W38379  33.240  27.775  12.221
71839W        W38380  10.602  17.661  11.467
71840W        W38381  31.229  37.384  11.214
71841W        W38382  24.195  35.050  10.747
71842W        W38383  35.286  19.196   4.324
71843W        W38384  26.041   5.299   3.178
71844W        W38385  11.262   6.830   4.485
71845W        W38386  23.740  25.712  13.525
71846W        W38387   7.779   4.455   0.197
71847W        W38388   7.909  24.661  12.445
71848W        W38389  30.841  12.067   3.206
71849W        W38390  23.105  29.647   1.902
71850W        W38391  18.265  20.117   0.766
71851W        W38392  14.536   3.171  14.832
71852W        W38393  17.275  21.558   1.618
71853W        W38394  28.981  39.984   4.096
71854W        W38395  11.598  16.840  14.801
71855W        W38396  42.233  34.378   2.395
71856W        W38397  12.755  13.793   3.145
71857W        W38398  41.310  24.302  12.459
71858W        W38399  36.075   7.273   1.246
71859W        W38400  26.955  38.464   2.379
71860W        W38401  20.079  35.145  14.817
71861W        W38402  33.947  13.588  12.936
71862W        W38403  25.582  35.137   4.656
71863W        W38404  24.736  44.252  12.150
71864W        W38405  28.560   3.927  11.160
71865W        W38406  20.864  16.346  12.065
71866W        W38407   2.435  42.526  12.367
71867W        W38408  41.433  22.772   0.951
71868W        W38409   8.686  13.661  11.828
71869W        W38410  13.480  27.143  12.900
71870W        W38411   6.916  35.556   4.293
71871W        W38412  17.574  12.120   3.540
71872W        W38413   0.029  21.132  11.971
71873W        W38414   9.945   6.387   4.651
71874W        W38415   3.414   0.204   2.119
71875W        W38416  41.175  40.733   1.756
71876W        W38417  34.215  10.153  14.952
71877W        W38418  40.711  32.010  12.025
71878W        W38419  33.687  35.077   4.222
71879W        W38420  29.450  18.154   1.422
71880W        W38421  11.060  31.993  12.458
71881W        W38422  28.064   0.614   5.075
71882W        W38423   9.359   2.193  14.340
71883W        W38424   6.309   1.945  10.713
71884W        W38425  34.137  43.041   4.646
71885W        W38426  18.282   8.835   2.291
71886W        W38427  34.486  14.215   3.560
71887W        W38428  39.787  41.547   0.475
71888W        W38429  15.683  21.548   4.079
71889W        W38430  31.697  33.592  11.515
71890W        W38431  27.499   4.158  10.802
71891W        W38432  18.956  32.549   9.952
71892W        W38433  38.938   9.308  14.897
71893W        W38434  27.843  16.621   3.720
71894W        W38435  44.101  38.863  11.360
71895W        W38436   0.980  34.984   0.687
71896W        W38437  10.492  15.030   2.669
71897W        W38438  38.110  33.766  11.948
71898W        W38439  11.078  15.574  10.712
71899W        W38440   9.452  13.978  12.687
71900W        W38441   7.178  34.083  14.008
71901W        W38442  15.161   0.764   1.292
71902W        W38443  16.152  22.967   1.047
71903W        W38444   2.411  28.507   2.696
71904W        W38445   6.297  16.838  13.494
71905W        W38446  27.367  20.938   3.177
71906W        W38447  33.144  35.945   1.354
71907W        W38448  12.715   4.493  11.318
71908W        W38449  18.185   7.958   3.483
71909W        W38450  23.648  38.860  11.846
71910W        W38451  44.549  14.640   4.514
71911W        W38452  35.108   8.579   4.990
71912W        W38453  18.174  44.889   4.639
71913W        W38454  23.558  23.564  14.381
71914W        W38455  34.633  20.175   0.310
71915W        W38456  13.120  44.567  12.028
71916W        W38457  31.278  13.196  11.624
71917W        W38458  10.233   6.933   1.978
71918W        W38459  21.598   7.456   4.548
71919W        W38460  16.211  41.410  14.421
71920W        W38461  20.015  11.221   0.177
71921W        W38462  36.061  32.381   2.114
71922W        W38463   6.639  30.860  12.491
71923W        W38464  24.691  13.114  13.891
71924W        W38465   8.255  19.485  14.837
71925W        W38466  38.724  36.624   2.664
71926W        W38467  28.474   5.194   3.323
71927W        W38468  33.450  40.204  10.970
71928W        W38469  19.821  38.604  10.535
71929W        W38470   1.333   1.039   0.056
71930W        W38471  25.085  33.421   5.037
71931W        W38472  15.114  10.881  14.302
71932W        W38473   2.885  16.552  12.123
71933W        W38474  29.536   5.291  12.026
71934W        W38475  39.351  13.027  13.831
71935W        W38476  38.334  12.295  12.758
71936W        W38477   3.956  15.035   2.821
71937W        W38478  17.976  38.241  14.747
71938W        W38479  14.678  15.023  12.428
71939W        W38480  27.260  39.359   3.406
71940W        W38481  17.341   5.953  12.718
71941W        W38482   4.158  31.983   9.816
71942W        W38483   2.433  26.046   0.271
71943W        W38484  43.944  15.616  14.743
71944W        W38485  27.017  32.297  14.752
71945W        W38486  29.186  40.816   2.243
71946W        W38487  29.096  39.822  13.032
71947W        W38488   9.284  29.740   3.080
71948W        W38489  18.199  38.113   1.735
71949W        W38490   2.669  30.491   3.685
71950W        W38491  12.034  26.179   3.691
71951W        W38492  13.397  32.174  10.904
71952W        W38493  11.850  16.823   1.029
71953W        W38494  38.681  37.602   5.001
71954W        W38495  22.251   4.897   2.571
71955W        W38496   1.856  34.486   5.007
71956W        W38497  30.123  19.290   0.912
71957W        W38498  26.158  37.000   3.843
71958W        W38499   7.757  15.661  11.532
71959W        W38500  25.812  23.396   3.407
71960W        W38501  43.093  35.950   2.818
71961W        W38502   8.681  15.740  14.882
71962W        W38503  13.535   2.319   1.233
71963W        W38504  14.962  16.532  13.159
71964W        W38505  36.370  43.963   1.886
71965W        W38506  13.434  10.752  12.091
71966W        W38507  12.551  14.755   1.617
71967W        W38508  14.725  18.480   1.343
71968W        W38509   5.287  25.141  14.475
71969W        W38510   8.414  17.023  11.980
71970W        W38511  37.930  23.636   1.862
71971W        W38512  14.354  10.891  10.741
71972W        W38513   1.841  19.642   0.298
71973W        W38514  14.111  26.409  10.518
71974W        W38515  38.135  15.669  11.669
71975W        W38516   9.903  29.967   2.299
71976W        W38517  33.162  36.959  13.501
71977W        W38518  22.718   4.373   4.536
71978W        W38519  12.561  24.371   4.385
71979W        W38520  35.601  15.182   1.542
71980W        W38521   1.735  38.316  13.050
71981W        W38522  18.126  28.146   4.626
71982W        W38523  11.822   7.727  10.873
71983W        W38524  39.121  12.650  12.376
71984W        W38525  44.865  39.148  11.883
71985W        W38526  24.462  33.997  12.220
71986W        W38527  34.034  14.048   0.298
71987W        W38528   6.146  44.618  11.458
71988W        W38529  35.605  17.294   0.005
71989W        W38530  34.648  29.848  12.170
71990W        W38531  43.441  20.251   1.164
71991W        W38532  41.374  25.600   2.388
71992W        W38533  36.476  38.901  13.909
71993W        W38534   6.399  21.733   2.783
71994W        W38535  44.699  29.505   3.236
71995W        W38536   1.192   6.405   4.808
71996W        W38537  39.652  11.459  14.468
71997W        W38538  14.030  21.855   2.623
71998W        W38539  10.764  36.097   3.115
71999W        W38540   4.245  17.578  11.484
72000W        W38541  19.827  26.163  14.943
72001W        W38542   8.549  42.909  12.770
72002W        W38543  10.613  27.074  13.818
72003W        W38544  43.068  30.466   1.945
72004W        W38545   4.452   0.358   0.719
72005W        W38546  17.775  43.343   3.998
72006W        W38547  31.665   7.887  12.110
72007W        W38548  39.050  43.947  11.136
72008W        W38549  36.459  25.517  12.920
72009W        W38550  41.993  18.323   0.898
72010W        W38551  35.972   9.983  10.827
72011W        W38552  18.259  24.085   2.106
72012W        W38553   2.163  16.215   0.176
72013W        W38554  39.830  43.264   1.972
72014W        W38555  18.093   0.309   3.769
72015W        W38556  26.547  11.141  12.101
72016W        W38557  43.820  23.513   4.139
72017W        W38558  41.131  32.090  11.109
72018W        W38559  26.318  29.922   0.970
72019W        W38560  36.330  23.148  11.408
72020W        W38561   6.842   7.941  12.854
72021W        W38562  40.939  22.781   1.712
72022W        W38563  39.546   6.537   4.115
72023W        W38564  21.367  21.709  12.912
72024W        W38565   4.456  16.801  10.799
72025W        W38566  11.755  11.229   4.249
72026W        W38567  15.989  44.697   4.215
72027W        W38568   3.921  17.114   3.883
72028W        W38569  13.599  14.355   1.009
72029W        W38570   6.620  27.916   1.359
72030W        W38571  44.055  38.409  11.145
72031W        W38572  12.154   8.383   1.745
72032W        W38573  41.351  35.149   1.352
72033W        W38574  33.458  38.356  14.820
72034W        W38575  17.097  26.447   4.170
72035W        W38576  26.450  41.322   3.209
72036W        W38577  30.039  12.826   0.744
72037W        W38578  18.721   3.492  11.197
72038W        W38579  36.278  32.383  11.896
72039W        W38580  29.151   2.427   1.554
72040W        W38581   5.590   6.380   4.384
72041W        W38582   9.803   8.493  14.934
72042W        W38583   2.720  12.328  10.964
72043W        W38584  13.246  42.885  13.067
72044W        W38585  32.503  38.014   4.690
72045W        W38586  15.758  24.559  13.623
72046W        W38587  33.197   7.389  14.996
72047W        W38588  42.216  38.045  12.776
72048W        W38589   9.852  31.010  11.840
72049W        W38590   9.128   0.871  11.753
72050W        W38591  19.724  31.129  13.432
72051W        W38592  34.480  18.800  14.291
72052W        W38593  18.273  18.205  14.914
72053W        W38594   4.193  24.807   4.107
72054W        W38595  42.011  44.546   3.772
72055W        W38596   1.246  16.044   3.787
72056W        W38597  26.682  11.122  14.382
72057W        W38598  18.991  13.258  14.408
72058W        W38599   1.903  39.039   1.709
72059W        W38600  16.188  31.591   3.629
72060W        W38601  40.862  35.878   0.911
72061W        W38602   1.710  13.440   0.706
72062W        W38603  32.523  35.950   4.545
72063W        W38604  24.608  15.102   0.920
72064W        W38605  32.843  17.596   0.448
72065W        W38606  17.492  43.329  13.401
72066W        W38607   2.525   6.894  12.418
72067W        W38608   6.335  33.591   3.916
72068W        W38609  21.328  44.741  11.201
72069W        W38610  27.438  22.706  11.123
72070W        W38611   7.576   1.599   3.738
72071W        W38612  39.714  32.521   3.194
72072W        W38613  10.075  28.390   1.575
72073W        W38614  21.157   1.429   2.901
72074W        W38615  24.312  31.922   2.895
72075W        W38616  26.764  24.834  12.925
72076W        W38617   8.199  35.409   4.786
72077W        W38618  16.056   5.988   1.927
72078W        W38619  39.735  32.876  11.150
72079W        W38620  20.220  15.730   1.027
72080W        W38621  15.742  18.575   4.821
72081W        W38622  14.661   9.397  11.619
72082W        W38623  29.235  32.012   2.108
72083W        W38624   7.933   9.435   1.290
72084W        W38625  29.102   9.779   4.539
72085W        W38626   3.320  42.754  13.268
72086W        W38627  41.459  40.976   0.391
72087W        W38628   6.341  28.056   3.640
72088W        W38629  17.289  44.875   3.113
72089W        W38630  20.958  30.516  14.520
72090W        W38631  44.361   8.868   4.164
72091W        W38632  37.640  42.068  11.796
72092W        W38633   7.889   7.495  11.187
72093W        W38634  39.054   4.012   3.590
72094W        W38635  15.038  20.305  12.979
72095W        W38636  11.749  24.114  13.618
72096W        W38637  36.318  41.961  11.131
72097W        W38638   3.689  35.951   3.888
72098W        W38639   5.087  15.110   1.379
72099W        W38640  30.127  14.757   2.338
72100W        W38641  24.188   9.803  11.600
72101W        W38642  16.872  25.559   4.143
72102W        W38643   2.525  40.904   4.284
72103W        W38644  29.016  33.718   3.193
72104W        W38645   2.244  31.531  14.816
72105W        W38646   1.232   5.315   4.658
72106W        W38647  20.816   9.517  12.503
72107W        W38648  38.602  29.360  14.841
72108W        W38649  18.749  36.388  11.237
72109W        W38650  26.322  30.847  10.938
72110W        W38651  29.782  28.441  11.090
72111W        W38652   4.634  44.851   4.631
72112W        W38653  21.551  44.752   0.784
72113W        W38654  32.725  27.576  11.195
72114W        W38655  40.930  15.358   2.364
72115W        W38656   9.698  20.157   3.744
72116W        W38657  42.269   6.966  12.414
72117W        W38658  12.962  27.909  11.117
72118W        W38659  15.193  14.732   0.602
72119W        W38660  23.212   5.284  11.679
72120W        W38661   2.579  29.794   4.593
72121W        W38662  11.197  43.099   3.228
72122W        W38663  20.162  35.354  10.856
72123W        W38664  11.877  18.325  12.481
72124W        W38665  31.397  42.434  12.173
72125W        W38666  23.757  43.308   2.537
72126W        W38667  42.988  37.949  14.917
72127W        W38668  33.300  30.657  12.609
72128W        W38669  44.561   4.337  10.769
72129W        W38670  30.644   2.745   1.985
72130W        W38671  28.540  43.223   1.304
72131W        W38672  23.454  37.005  10.710
72132W        W38673  18.131  41.832   3.203
72133W        W38674  22.493   4.496   1.795
72134W        W38675  24.778   8.720   4.169
72135W        W38676  16.083  23.746   0.445
72136W        W38677  31.897  39.962   0.129
72137W        W38678  27.641  34.295   0.487
72138W        W38679   5.722  38.997   3.710
72139W        W38680  26.622  19.625   1.454
72140W        W38681  23.598  30.101   3.150
72141W        W38682  41.533  31.124  11.534
72142W        W38683  14.061  28.827  10.364
72143W        W38684  33.282   9.380  12.929
72144W        W38685  43.113   4.720   3.253
72145W        W38686  38.432   1.668  14.396
72146W        W38687  17.323   9.280   0.368
72147W        W38688   6.183  11.094  13.313
72148W        W38689   7.817  31.480   4.818
72149W        W38690  21.493  31.121  11.433
72150W        W38691  12.147  35.904  11.639
72151W        W38692  36.572   0.485   1.330
72152W        W38693  35.319  22.738   0.624
72153W        W38694  23.847  14.280   3.779
72154W        W38695  36.046   8.115   0.199
72155W        W38696   2.249  44.349  13.655
72156W        W38697   0.182  12.804  12.135
72157W        W38698  37.569  41.676  11.483
72158W        W38699  16.164  29.220  12.881
72159W        W38700  43.809  20.796   1.040
72160W        W38701   3.002   3.524   2.398
72161W        W38702  43.970  32.344  13.920
72162W        W38703  22.512  11.794  14.244
72163W        W38704  10.592  28.688   3.208
72164W        W38705  19.090  27.133  10.657
72165W        W38706  20.668   8.841   2.856
72166W        W38707   4.991   5.193  10.736
72167W        W38708  11.104  23.016  13.649
72168W        W38709  13.649  21.281  12.392
72169W        W38710  11.164  11.143   2.322
72170W        W38711   7.909  26.179  10.633
72171W        W38712   0.766  25.068  12.708
72172W        W38713  41.297   6.248  12.584
72173W        W38714  36.895  15.730  11.504
72174W        W38715   6.352  13.792   3.820
72175W        W38716  22.308  44.428   1.979
72176W        W38717  15.038  23.124   4.246
72177W        W38718  28.644  12.320   3.525
72178W        W38719  22.052  34.368   0.808
72179W        W38720  29.655   7.324  11.689
72180W        W38721  23.808  21.117   4.575
72181W        W38722  40.766  28.320   3.697
72182W        W38723  32.944  14.294  10.680
72183W        W38724  11.580  11.604   3.112
72184W        W38725   0.378  16.368  12.123
72185W        W38726  37.347  31.827  14.934
72186W        W38727  25.482  20.791  13.877
72187W        W38728   4.813  37.858   3.657
72188W        W38729  41.265   4.743   0.910
72189W        W38730  31.406  27.939  12.989
72190W        W38731  31.537   2.303   5.057
72191W        W38732  23.233  20.001  13.862
72192W        W38733  24.042  13.509   2.213
72193W        W38734  28.375  44.238   0.670
72194W        W38735  16.702  11.874  14.977
72195W        W38736  19.552  25.528  13.771
72196W        W38737  37.482  10.159   0.939
72197W        W38738   4.277   5.323  10.249
72198W        W38739  31.394   2.313  14.000
72199W        W38740  43.423  20.521   0.737
72200W        W38741  44.710  33.851   4.144
72201W        W38742  44.406   5.921  10.566
72202W        W38743  27.028   8.232   0.647
72203W        W38744  36.274  18.656  12.289
72204W        W38745   4.852   2.994   2.273
72205W        W38746  28.179  13.787   1.449
72206W        W38747  29.921   9.678  13.366
72207W        W38748  33.844  11.331   4.308
72208W        W38749  22.126  19.975   0.952
72209W        W38750  19.763  14.679   1.622
72210W        W38751  24.057  38.488  13.944
72211W        W38752  16.899  10.237  14.972
72212W        W38753  25.179  33.007  12.149
72213W        W38754  26.182  24.230   0.895
72214W        W38755  21.161  36.825  11.938
72215W        W38756  22.644  18.724   0.809
72216W        W38757   2.102  18.100  13.030
72217W        W38758  34.493   0.787  14.777
72218W        W38759  35.781  35.427   0.326
72219W        W38760  34.259  42.673  14.940
72220W        W38761  11.903  30.542  11.093
72221W        W38762   2.702  38.928  14.063
72222W        W38763  26.951  23.531   4.531
72223W        W38764  42.621   0.272   4.843
72224W        W38765  12.184   2.376  14.084
72225W        W38766  35.608  12.154   0.939
72226W        W38767  36.780  33.856  14.632
72227W        W38768  30.833  27.668  14.714
72228W        W38769   5.911  23.873   4.101
72229W        W38770  43.436  42.513  14.573
72230W        W38771   7.404   0.858  12.435
72231W        W38772  10.417   2.909  11.102
72232W        W38773   3.434  37.066  14.245
72233W        W38774  11.282  16.067   1.017
72234W        W38775   6.247  38.068   3.605
72235W        W38776   0.818  16.706   1.811
72236W        W38777  43.019  41.411  11.925
72237W        W38778  16.240  28.150  14.800
72238W        W38779   4.812  36.124  11.262
72239W        W38780  35.497   8.089  10.716
72240W        W38781   2.874  29.205   3.627
72241W        W38782  38.341  27.092   2.873
72242W        W38783   4.098  35.538   2.612
72243W        W38784  27.541  43.443  14.200
72244W        W38785  42.465  23.961   1.175
72245W        W38786   3.979   1.381   0.851
72246W        W38787  17.810  37.453  13.915
72247W        W38788  30.836  30.182   2.189
72248W        W38789  25.662  42.276   2.750
72249W        W38790   1.722  19.063  14.878
72250W        W38791  10.449   6.062   2.075
72251W        W38792   6.161  41.488  13.820
72252W        W38793  23.630  42.520  11.558
72253W        W38794  42.805  34.962   1.900
72254W        W38795  44.236  16.949  11.527
72255W        W38796  11.650   0.770  10.602
72256W        W38797  16.551   0.726   2.710
72257W        W38798  33.297  26.761   4.984
72258W        W38799  11.100   2.167  14.709
72259W        W38800  24.325   3.767   4.862
72260W        W38801  40.209   3.234  12.503
72261W        W38802  33.077  33.842  14.318
72262W        W38803   0.207  31.144  11.747
72263W        W38804  31.691  43.286   0.367
72264W        W38805  22.045   2.963  10.684
72265W        W38806  44.316  38.472  10.704
72266W        W38807  24.870  27.470  11.081
72267W        W38808   5.646  44.552  14.363
72268W        W38809  31.015   2.375  10.435
72269W        W38810   8.956  34.566   4.656
72270W        W38811  32.834   7.273   4.451
72271W        W38812   7.991  17.284  11.770
72272W        W38813  40.357   9.040   4.599
72273W        W38814  17.104   9.737   1.294
72274W        W38815  36.541  15.067   4.057
72275W        W38816  14.740  15.362  12.031
72276W        W38817  17.583  38.641  14.680
72277W        W38818   4.381  38.314   1.612
72278W        W38819  12.316   2.745   0.715
72279W        W38820   4.162  37.847   1.482
72280W        W38821   9.901  30.589   4.197
72281W        W38822  12.058   7.509   4.292
72282W        W38823  20.970  15.087  13.954
72283W        W38824  29.400  23.489  10.817
72284W        W38825   1.154   6.902   1.392
72285W        W38826   1.132  13.167  12.088
72286W        W38827   7.538  23.805   0.804
72287W        W38828  31.047  10.318  12.612
72288W        W38829  34.079  24.990  12.030
72289W        W38830  33.912  33.853   0.841
72290W        W38831  23.837  33.056   0.248
72291W        W38832   6.420  22.159   4.520
72292W        W38833   6.690  19.627  14.793
72293W        W38834  15.672   4.190  10.173
72294W        W38835  39.442  43.225   0.971
72295W        W38836  38.909  23.739  10.289
72296W        W38837   0.948  30.571  10.150
72297W        W38838  36.894  20.781  13.899
72298W        W38839  27.093  31.975   1.323
72299W        W38840  33.980   1.247   4.594
72300W        W38841  14.912   0.459  13.293
72301W        W38842   8.666  32.459  13.549
72302W        W38843  18.314  15.390   2.685
72303W        W38844  12.865  30.358   4.658
72304W        W38845   1.291  27.637   1.100
72305W        W38846  11.172  24.763  12.969
72306W        W38847   4.339   2.374   0.803
72307W        W38848  25.239   8.694  10.766
72308W        W38849  36.461  22.727   0.520
72309W        W38850   7.189   5.862  12.170
72310W        W38851  20.733  39.243   1.934
72311W        W38852  21.303  21.717   3.238
72312W        W38853  15.796  30.267   0.361
72313W        W38854  35.349  10.849   3.277
72314W        W38855  23.115   0.143   4.093
72315W        W38856  31.587  35.021  13.282
72316W        W38857  29.344   5.789   0.265
72317W        W38858  18.885  20.902   5.012
72318W        W38859  37.133  18.777  10.745
72319W        W38860   8.372  29.530  11.885
72320W        W38861  35.846  22.277  14.463
72321W        W38862  30.514  27.524  11.647
72322W        W38863  29.208  32.002  13.418
72323W        W38864  24.015   9.390   4.094
72324W        W38865  28.297   9.867   0.242
72325W        W38866   4.238   6.175   0.460
72326W        W38867  17.817  15.736   5.077
72327W        W38868  25.795  35.071   4.190
72328W        W38869  27.242  15.915   0.955
72329W        W38870  33.893  37.432  13.627
72330W        W38871  21.143  38.841  13.020
72331W        W38872  31.447  40.552  13.988
72332W        W38873   4.518  22.672  14.580
72333W        W38874  21.303  27.997  10.943
72334W        W38875  42.028  21.866  14.395
72335W        W38876  38.834   3.701  14.501
72336W        W38877  35.340   8.577  14.290
72337W        W38878   5.898  16.756   4.249
72338W        W38879  39.928  33.711   0.478
72339W        W38880  26.984  31.453  14.468
72340W        W38881  42.268  30.307  10.728
72341W        W38882   7.719  16.084  14.860
72342W        W38883  37.412  37.958   2.185
72343W        W38884  15.878  30.216  13.533
72344W        W38885  37.563  44.314   3.141
72345W        W38886  26.978  36.350   0.817
72346W        W38887  26.433   8.862  12.535
72347W        W38888  41.220   6.923  13.865
72348W        W38889   7.295  24.465   5.440
72349W        W38890  31.827  24.643  12.501
72350W        W38891  23.733   2.846  11.221
72351W        W38892   0.949  19.429   2.103
72352W        W38893  29.543  25.559  14.849
72353W        W38894   8.245  36.123   2.424
72354W        W38895  18.068   9.575  10.682
72355W        W38896  44.255  36.466   2.436
72356W        W38897  42.391  13.231   3.781
72357W        W38898  41.019   2.522   2.705
72358W        W38899  18.525  38.896  10.306
72359W        W38900  36.415   6.132  13.978
72360W        W38901   4.209   5.411  13.639
72361W        W38902  25.352   1.490  11.850
72362W        W38903  31.659  37.279  13.963
72363W        W38904  18.710  15.029  13.353
72364W        W38905   7.325  14.547   4.519
72365W        W38906  10.341   4.678   1.983
72366W        W38907  34.822  24.701   0.620
72367W        W38908  33.373  30.157   0.709
72368W        W38909  12.750  25.550  13.389
72369W        W38910  34.630  18.046   3.605
72370W        W38911  26.659  15.030   2.820
72371W        W38912  30.969   2.467   4.520
72372W        W38913  15.146  22.995  12.404
72373W        W38914   1.431  27.501  14.718
72374W        W38915  44.187   1.355  11.575
72375W        W38916   9.443  36.606   2.338
72376W        W38917  19.641  13.648   9.918
72377W        W38918   6.147  34.520   3.907
72378W        W38919  38.953  27.681   1.830
72379W        W38920   5.718  43.543  14.264
72380W        W38921   6.244   8.802   3.391
72381W        W38922  32.336  23.169   2.699
72382W        W38923   2.691  43.272   0.235
72383W        W38924  18.121  22.065   1.992
72384W        W38925   5.965  20.820  12.957
72385W        W38926  17.927  26.419   9.942
72386W        W38927  17.540   1.357  11.999
72387W        W38928  26.598  26.644   4.573
72388W        W38929  43.546   6.035  14.467
72389W        W38930  37.710   6.781  13.444
72390W        W38931   0.296  26.709   2.173
72391W        W38932   9.171   6.255   2.461
72392W        W38933  31.172  44.918   0.030
72393W        W38934   0.536  28.948   4.610
72394W        W38935  29.577  41.726  13.561
72395W        W38936  32.022  11.867   3.621
72396W        W38937  38.321  40.257   3.175
72397W        W38938  34.068  28.862   1.307
72398W        W38939  30.148  42.339   2.880
72399W        W38940  27.434  39.573  10.914
72400W        W38941  26.076  14.577  13.607
72401W        W38942  27.950   3.483   2.770
72402W        W38943  35.027  24.315  12.052
72403W        W38944  26.671  37.861   1.436
72404W        W38945   5.431  10.473   1.229
72405W        W38946  17.751  40.953  12.894
72406W        W38947  36.518  41.291   4.876
72407W        W38948  32.447  21.284  14.254
72408W        W38949  38.793  11.608  10.788
72409W        W38950  23.111  23.468   1.235
72410W        W38951  18.829  21.443   4.535
72411W        W38952  19.877  29.579   2.741
72412W        W38953   2.405  10.868  11.547
72413W        W38954  25.800  24.549  13.425
72414W        W38955  22.975   1.398   4.880
72415W        W38956  26.190  23.687  14.497
72416W        W38957  10.167  34.856  11.022
72417W        W38958  16.664  35.680  14.304
72418W        W38959  17.677   5.933   4.143
72419W        W38960   6.452  39.011   0.719
72420W        W38961  33.965   3.958   1.375
72421W        W38962   1.009  26.040   1.853
72422W        W38963  26.003  34.320  11.981
72423W        W38964   5.666  23.201  13.380
72424W        W38965  16.203  44.047  11.622
72425W        W38966  42.691  26.728   4.869
72426W        W38967  44.802  17.254  14.844
72427W        W38968  28.208  14.295   1.381
72428W        W38969  30.520  27.643   2.134
72429W        W38970  44.503  30.122   1.325
72430W        W38971   1.824  42.441  13.360
72431W        W38972   8.271   7.942  13.989
72432W        W38973  21.589  38.854  12.742
72433W        W38974  16.698   5.746   1.064
72434W        W38975   3.354   3.499   2.797
72435W        W38976  36.524   4.210   1.834
72436W        W38977  37.917  43.252   2.479
72437W        W38978  12.936  12.229  14.319
72438W        W38979  23.198  44.600   1.336
72439W        W38980  41.814  37.399   0.981
72440W        W38981   2.904   5.877   1.228
72441W        W38982  44.531  26.428   4.177
72442W        W38983  10.823  40.636  11.666
72443W        W38984  26.984  10.341   0.337
72444W        W38985  38.027  19.950   1.284
72445W        W38986  12.812  40.822   4.338
72446W        W38987  24.883  41.056   3.657
72447W        W38988  18.024   4.673   3.168
72448W        W38989   3.625  26.494   1.963
72449W        W38990  14.241   0.029  13.955
72450W        W38991  43.595  38.692  11.151
72451W        W38992   2.451  10.416   2.597
72452W        W38993   7.367  30.424   1.328
72453W        W38994  43.491  44.530   2.433
72454W        W38995  14.120  34.883  13.075
72455W        W38996   2.444  44.958   0.416
72456W        W38997  13.712  37.432  10.673
72457W        W38998  28.081  44.724  13.615
72458W        W38999  44.530   3.330   2.266
72459W        W39000  26.268  10.302  10.129
72460W        W39001  29.582  39.006  11.252
72461W        W39002   5.194  40.865  10.599
72462W        W39003   5.621  13.177  13.769
72463W        W39004  42.716  25.839  14.097
72464W        W39005  42.392   2.990  13.461
72465W        W39006  17.839  41.356   2.217
72466W        W39007  39.754  25.462  11.125
72467W        W39008  42.517   0.843   1.456
72468W        W39009  14.287   5.613  13.520
72469W        W39010  28.906  13.947  13.861
72470W        W39011  29.341  12.460   1.486
72471W        W39012   0.144  39.913   3.128
72472W        W39013  31.378   9.664   1.749
72473W        W39014  19.590   1.931  11.594
72474W        W39015  24.097  33.404   5.081
72475W        W39016  23.652  17.574   2.555
72476W        W39017   1.211   4.858   5.078
72477W        W39018  42.999  13.044  13.316
72478W        W39019  28.936   2.486   0.351
72479W        W39020  22.679   6.240   1.129
72480W        W39021  19.222  28.755   2.186
72481W        W39022  21.978  40.382   3.352
72482W        W39023  27.628  22.161  13.370
72483W        W39024  15.769  11.726   5.028
72484W        W39025  11.150  33.999   1.285
72485W        W39026  16.557  37.285   3.258
72486W        W39027  30.439  15.203  13.456
72487W        W39028   4.790   8.309  13.558
72488W        W39029   8.286  24.503  11.909
72489W        W39030  29.853  16.679  11.185
72490W        W39031  31.639  14.238  14.919
72491W        W39032  44.346  12.685  12.074
72492W        W39033   1.963  42.353   1.075
72493W        W39034  15.840   4.298  11.450
72494W        W39035  27.636  39.960  10.606
72495W        W39036   9.791  32.299  12.466
72496W        W39037  42.701  26.387   0.360
72497W        W39038  28.430  12.542  10.167
72498W        W39039  33.183  14.179   2.932
72499W        W39040   2.672  34.185  11.256
72500W        W39041   5.287   4.820   2.768
72501W        W39042  12.080  13.634   2.600
72502W        W39043  41.234  11.872   0.020
72503W        W39044  25.931  10.187   1.807
72504W        W39045  43.049  42.501   2.827
72505W        W39046  39.486   9.364   3.298
72506W        W39047  35.855  38.608   2.262
72507W        W39048  10.142  31.964  11.443
72508W        W39049  35.415  44.686  14.815
72509W        W39050  30.052  15.555  10.996
72510W        W39051  28.072  31.811  11.084
72511W        W39052  14.682  43.980  11.158
72512W        W39053   1.549  12.847   3.559
72513W        W39054  13.110   7.932  11.927
72514W        W39055  26.080   7.141  14.265
72515W        W39056  16.895  10.634  12.099
72516W        W39057  10.596  24.494   2.333
72517W        W39058  18.198  16.369   2.671
72518W        W39059  23.080  35.883   1.828
72519W        W39060  23.608  19.659   1.197
72520W        W39061   1.370  10.422   3.336
72521W        W39062  41.013  36.028  12.097
72522W        W39063  27.633  22.995  10.750
72523W        W39064  28.961   0.708   4.494
72524W        W39065   3.832  38.889  13.484
72525W        W39066  16.571   8.379  11.113
72526W        W39067  34.580  22.101  14.639
72527W        W39068  13.484  22.735  10.245
72528W        W39069   1.733  12.639  14.891
72529W        W39070   3.496  27.102  13.369
72530W        W39071  20.912  43.368   0.798
72531W        W39072  30.644  15.625   3.871
72532W        W39073  16.575   6.659  11.559
72533W        W39074  18.300  16.881  14.977
72534W        W39075  38.593  21.208   2.226
72535W        W39076  37.669  37.503   2.248
72536W        W39077  43.418  27.954   1.227
72537W        W39078  21.088  35.103   0.861
72538W        W39079  42.358   9.179   0.350
72539W        W39080  27.585   1.394  13.957
72540W        W39081  28.142  40.003   1.730
72541W        W39082  10.638  24.551   0.294
72542W        W39083  27.480  18.911  13.476
72543W        W39084   9.197  33.204  12.992
72544W        W39085  34.598  33.984   3.144
72545W        W39086  29.480   8.562  11.290
72546W        W39087  11.185  19.798  12.587
72547W        W39088   8.438  11.072  14.325
72548W        W39089  44.428  44.777  11.594
72549W        W39090  19.515   4.433   3.334
72550W        W39091   0.001  29.578   3.706
72551W        W39092   2.956  21.553  14.953
72552W        W39093  29.895  24.999  13.999
72553W        W39094   0.919  36.882  10.725
72554W        W39095   4.438  25.774   0.869
72555W        W39096  35.032   1.988  14.887
72556W        W39097  26.113  34.089   3.123
72557W        W39098  25.470  26.188   4.159
72558W        W39099  35.417   6.121  11.623
72559W        W39100  15.810  39.009  14.470
72560W        W39101  40.369  23.161   1.830
72561W        W39102   0.863   0.514  14.349
72562W        W39103  42.086   7.846   2.889
72563W        W39104  44.124  35.518  11.961
72564W        W39105  25.473  12.916  13.954
72565W        W39106  12.199   1.277  10.949
72566W        W39107  35.512  32.008  14.083
72567W        W39108  20.710  42.360   4.424
72568W        W39109  34.705  34.875   4.316
72569W        W39110  25.653  34.657  14.242
72570W        W39111  11.866  18.562  11.023
72571W        W39112  40.982  28.568  13.993
72572W        W39113  36.097  16.776   3.924
72573W        W39114  14.579  15.575   1.255
72574W        W39115  20.134  35.447   2.319
72575W        W39116  26.995  28.541  10.697
72576W        W39117  36.139  11.101  11.611
72577W        W39118  25.738  43.419   0.001
72578W        W39119  23.636  24.907   0.408
72579W        W39120   5.239  43.073   2.946
72580W        W39121   2.407   0.607   4.165
72581W        W39122  32.074  30.908   1.949
72582W        W39123   7.331  31.518   0.274
72583W        W39124  35.340   6.704   2.020
72584W        W39125  15.758  23.713   0.846
72585W        W39126  41.981  15.250  13.450
72586W        W39127  29.587  37.247  12.604
72587W        W39128  26.230   2.294  12.000
72588W        W39129  13.064  24.295  14.853
72589W        W39130  34.547  33.970   4.722
72590W        W39131   5.481  31.682   4.815
72591W        W39132  41.219  23.570  14.302
72592W        W39133  35.101  20.679  10.752
72593W        W39134  15.359  34.599  10.592
72594W        W39135  28.519  26.242   2.306
72595W        W39136   0.007   1.749  12.204
72596W        W39137  23.185  33.559   4.043
72597W        W39138   9.303   0.992   2.326
72598W        W39139   1.464  27.966  11.497
72599W        W39140  15.150  35.016  12.159
72600W        W39141  36.980  33.046  13.986
72601W        W39142  28.124  10.748   4.258
72602W        W39143  25.643  42.540  11.560
72603W        W39144   7.738   6.782  11.542
72604W        W39145  16.922  31.966  11.200
72605W        W39146  11.130  16.321  13.333
72606W        W39147   7.826   0.356  11.112
72607W        W39148  19.675  31.654   0.797
72608W        W39149  14.317   1.989   0.262
72609W        W39150  24.730  16.244   1.798
72610W        W39151  35.605  37.773   0.884
72611W        W39152   2.950  19.668   1.119
72612W        W39153  33.443   4.948   2.321
72613W        W39154  43.246   5.505  14.332
72614W        W39155  41.779  35.915  14.353
72615W        W39156  25.114  31.440  10.707
72616W        W39157  32.892  34.846   0.504
72617W        W39158  25.176  17.518   4.049
72618W        W39159  37.307  40.378   3.346
72619W        W39160   6.410  43.683  14.584
72620W        W39161  10.231  11.560  13.496
72621W        W39162  39.885   9.286   4.897
72622W        W39163  25.186  18.381  13.587
72623W        W39164   6.786  24.064  11.187
72624W        W39165   0.362  37.508  14.683
72625W        W39166   8.394   8.786   2.326
72626W        W39167  37.270  25.978  12.346
72627W        W39168  21.021   6.614   4.141
72628W        W39169  39.500  18.346   2.693
72629W        W39170   8.878   4.994   4.255
72630W        W39171  33.136  25.512  13.011
72631W        W39172  41.114   8.386  12.925
72632W        W39173  32.545  34.370  13.910
72633W        W39174  15.131  34.621   3.911
72634W        W39175  13.147  31.411   2.077
72635W        W39176  43.414  13.320  13.465
72636W        W39177  34.302  13.753  10.662
72637W        W39178   0.676  39.506   0.381
72638W        W39179   1.854   4.232   3.979
72639W        W39180  11.300  25.587   2.671
72640W        W39181  16.401  15.021  14.898
72641W        W39182  30.767  27.479  14.256
72642W        W39183   0.489  36.834  11.156
72643W        W39184  37.328  34.062   0.894
72644W        W39185  17.122  13.627   0.070
72645W        W39186  12.395  21.186   3.896
72646W        W39187  17.627  28.606  13.376
72647W        W39188  36.515  12.791   3.667
72648W        W39189  16.815  16.383   2.284
72649W        W39190  26.151  32.354  11.566
72650W        W39191  38.949   7.739   1.254
72651W        W39192  43.892  22.665   2.098
72652W        W39193  16.425   7.361   5.162
72653W        W39194  44.962  18.638  13.092
72654W        W39195   2.993  37.576   1.361
72655W        W39196  15.704   8.875   3.832
72656W        W39197  34.424  15.550   2.897
72657W        W39198  30.665  17.827  11.638
72658W        W39199   3.857  18.061  10.725
72659W        W39200  22.587  13.686  13.728
72660W        W39201  36.404   3.171   0.198
72661W        W39202   6.270  20.824   4.290
72662W        W39203  16.172  38.305  10.334
72663W        W39204   9.102  41.491   3.772
72664W        W39205  37.881  18.074   1.338
72665W        W39206  44.689  20.537  12.934
72666W        W39207  24.611   8.049   2.923
72667W        W39208  26.136  44.283   0.733
72668W        W39209  23.709  18.077   2.379
72669W        W39210  12.689  28.697  13.287
72670W        W39211  24.078  24.022   1.785
72671W        W39212  38.230  38.953  14.279
72672W        W39213   5.649  13.205   3.143
72673W        W39214   6.816  43.904  14.332
72674W        W39215  24.471   9.857  12.119
72675W        W39216  38.944   2.383  12.644
72676W        W39217  21.205  11.368  14.984
72677W        W39218   3.675  11.584   3.489
72678W        W39219  24.324   3.502  10.691
72679W        W39220   9.327  23.647  12.543
72680W        W39221  12.151  40.688  13.180
72681W        W39222  26.431   4.565   4.151
72682W        W39223  18.510  13.098   0.278
72683W        W39224  30.586   5.531  14.357
72684W        W39225   4.740  11.935  12.810
72685W        W39226  34.970   4.178   5.627
72686W        W39227  15.915  11.623   1.810
72687W        W39228  32.362  39.917  13.834
72688W        W39229   8.818   4.447  13.741
72689W        W39230  26.398  41.000  13.321
72690W        W39231  17.493  42.038   9.861
72691W        W39232  36.450   5.236  12.078
72692W        W39233  44.390  20.784   3.162
72693W        W39234  40.282   3.373  10.834
72694W        W39235  42.810   6.463   1.288
72695W        W39236  11.773  25.470  12.902
72696W        W39237   0.843  14.653  10.459
72697W        W39238  41.520  37.913  13.495
72698W        W39239  34.966  14.598   4.178
72699W        W39240  11.656  27.897   5.156
72700W        W39241  12.038  21.193  12.514
72701W        W39242  16.506  24.248   1.770
72702W        W39243  26.602  15.534   4.491
72703W        W39244  37.116   8.151   2.572
72704W        W39245  34.437  33.062  14.032
72705W        W39246  19.504  42.755  14.252
72706W        W39247  17.996  18.470  12.955
72707W        W39248  34.882   2.361  11.186
72708W        W39249  25.743  40.980   3.369
72709W        W39250  16.213  40.471  13.802
72710W        W39251  29.361  18.652  10.641
72711W        W39252   5.253  36.428  14.815
72712W        W39253  12.177  33.162   2.304
72713W        W39254  25.351  18.407  10.286
72714W        W39255   0.029  36.943   2.250
72715W        W39256  22.635  42.923   4.984
72716W        W39257  32.153   2.495   3.146
72717W        W39258  15.201  14.057  13.476
72718W        W39259   3.953  19.496   3.906
72719W        W39260  27.164   7.957  11.010
72720W        W39261  19.070  29.472  12.241
72721W        W39262  28.930  35.003   0.014
72722W        W39263  11.589  38.480   4.086
72723W        W39264  39.896  31.553   4.114
72724W        W39265  24.892  37.840  14.817
72725W        W39266   4.939  17.173   0.385
72726W        W39267  42.870  37.459  14.901
72727W        W39268  28.717  36.905   2.939
72728W        W39269  31.767   1.847   4.948
72729W        W39270  30.576  13.197  14.126
72730W        W39271  37.784   3.347  10.742
72731W        W39272  38.462   3.341  11.976
72732W        W39273  20.634  25.072   2.374
72733W        W39274  44.505   6.720  12.877
72734W        W39275  32.528  29.017  12.348
72735W        W39276  40.004  14.129   0.813
72736W        W39277   7.254   4.511   1.253
72737W        W39278  18.125  26.113  13.084
72738W        W39279  30.123  38.480  11.556
72739W        W39280   7.188  33.151  12.547
72740W        W39281  31.067  17.138  10.459
72741W        W39282  15.649   0.257  11.575
72742W        W39283  44.406  14.441  12.350
72743W        W39284  42.629   3.386  10.005
72744W        W39285  35.053  13.096   0.774
72745W        W39286  29.712  41.487   3.108
72746W        W39287   7.204  12.667   1.229
72747W        W39288  17.462  29.157   0.287
72748W        W39289   5.395   9.684  14.289
72749W        W39290  26.324  32.126  13.296
72750W        W39291  44.439  39.923  13.101
72751W        W39292   2.798  14.202   3.015
72752W        W39293  18.631  42.951  12.234
72753W        W39294  24.666  43.805  12.424
72754W        W39295  44.235  15.119   1.553
72755W        W39296  23.179  16.008   0.744
72756W        W39297  26.916   4.983  14.972
72757W        W39298   5.650  36.422  14.371
72758W        W39299   6.010  13.833   4.232
72759W        W39300  26.904  11.264   3.860
72760W        W39301  26.563  22.719  12.042
72761W        W39302  26.981  20.625  10.932
72762W        W39303  36.807   0.873  13.364
72763W        W39304  30.554  44.178  11.613
72764W        W39305   8.399  22.484  11.060
72765W        W39306  18.649  24.423  12.630
72766W        W39307  22.614  44.405  12.577
72767W        W39308   1.838  20.112   3.267
72768W        W39309  29.255  14.875  13.864
72769W        W39310  21.047  38.722  13.990
72770W        W39311   9.724  19.475   0.860
72771W        W39312   5.071  40.783  13.531
72772W        W39313  40.783   1.304   4.724
72773W        W39314  28.410  38.538   0.298
72774W        W39315  40.013  38.174   4.747
72775W        W39316  14.663  18.700   1.837
72776W        W39317  26.794  42.939   4.930
72777W        W39318  31.061  16.930  11.527
72778W        W39319  41.407  21.158  13.452
72779W        W39320  11.322  10.899   3.514
72780W        W39321  33.969  39.030  11.784
72781W        W39322   7.252  42.284   2.684
72782W        W39323  15.820  44.988   1.380
72783W        W39324  31.166  29.372   0.784
72784W        W39325  28.012  24.646   1.699
72785W        W39326  19.675  11.812  11.531
72786W        W39327  43.550  43.706  12.532
72787W        W39328   0.463  40.633   0.394
72788W        W39329  39.010  43.855   3.188
72789W        W39330   4.266  33.007  11.212
72790W        W39331   8.388  25.125   0.036
72791W        W39332   3.020   7.936   3.716
72792W        W39333  33.526  17.403   4.628
72793W        W39334  40.280  12.283   2.734
72794W        W39335   6.230  22.730  12.881
72795W        W39336  41.012  28.095   0.816
72796W        W39337  22.440  13.546   4.340
72797W        W39338   1.821  39.517   1.502
72798W        W39339  15.261  44.370  10.729
72799W        W39340   1.419   6.941  10.708
72800W        W39341  18.615  41.381   0.392
72801W        W39342  28.829  37.592  12.331
72802W        W39343   7.286  36.312   0.217
72803W        W39344  16.744  16.618  11.117
72804W        W39345  28.452  13.341  13.133
72805W        W39346  29.072   1.192   1.196
72806W        W39347  10.766  11.931  13.468
72807W        W39348   8.696  22.001   1.555
72808W        W39349  32.073  10.753   4.314
72809W        W39350  32.371  16.777   3.283
72810W        W39351  44.387  18.636   0.223
72811W        W39352  21.179   1.725  10.696
72812W        W39353  18.612  25.919   3.320
72813W        W39354  10.240  11.582   3.787
72814W        W39355  13.835   2.545   0.402
72815W        W39356  37.365  18.350  13.731
72816W        W39357  10.564  27.548  12.573
72817W        W39358  23.742   4.220  14.985
72818W        W39359  16.401   8.383   3.841
72819W        W39360  25.520  40.681   3.716
72820W        W39361  38.294  27.787  12.994
72821W        W39362  21.776  14.541   0.417
72822W        W39363  33.493  10.796  13.403
72823W        W39364   7.033  24.749   1.951
72824W        W39365   4.900  35.969  14.506
72825W        W39366  23.525  36.310   1.316
72826W        W39367  13.924  40.433  12.015
72827W        W39368  17.185   7.723  10.767
72828W        W39369  23.080  36.100  14.044
72829W        W39370   9.135  31.100   4.578
72830W        W39371   2.783  42.356  13.788
72831W        W39372  35.090  41.677   3.563
72832W        W39373  16.217  20.111   1.690
72833W        W39374   0.801  27.485  13.120
72834W        W39375  19.790  18.238   4.583
72835W        W39376  21.765  23.926  12.166
72836W        W39377   1.010  18.590  10.562
72837W        W39378  10.280   8.125   0.004
72838W        W39379  20.618  23.302   1.438
72839W        W39380  35.906  33.081   0.423
72840W        W39381  15.396  18.291  11.933
72841W        W39382   9.270  29.839   0.691
72842W        W39383  10.613   3.017   0.763
72843W        W39384  39.968  27.163   4.637
72844W        W39385  21.410  44.892  12.514
72845W        W39386  42.244  27.674   1.007
72846W        W39387  39.037   7.763  13.544
72847W        W39388  27.129  43.510  12.895
72848W        W39389  44.090  38.086   4.603
72849W        W39390   8.675   3.252  13.416
72850W        W39391  34.401  16.038   1.728
72851W        W39392  28.007  44.322  12.788
72852W        W39393  42.912   5.033   0.980
72853W        W39394  38.735  35.878   4.042
72854W        W39395  32.534  36.529   0.378
72855W        W39396  21.067  13.035   0.853
72856W        W39397   2.621  34.005   4.899
72857W        W39398   9.864   8.790   0.902
72858W        W39399  27.559  13.747   2.361
72859W        W39400  16.522  33.529  10.554
72860W        W39401  10.525  24.239   2.782
72861W        W39402   5.751  32.925  11.243
72862W        W39403  21.671  28.206   0.866
72863W        W39404  24.394  34.003  14.498
72864W        W39405  15.777   1.559  12.098
72865W        W39406  39.431  34.451  12.864
72866W        W39407  41.030  11.247  12.834
72867W        W39408   8.256   9.198   3.915
72868W        W39409   6.747  32.273   4.993
72869W        W39410  38.048  32.294   1.770
72870W        W39411   1.357  42.056  10.706
72871W        W39412   4.290  42.899  13.453
72872W        W39413  27.643   3.352  11.369
72873W        W39414   9.979  12.792  11.486
72874W        W39415  33.427  30.923   1.217
72875W        W39416  13.630  12.082  12.096
72876W        W39417  15.667  10.841  10.891
72877W        W39418  25.658  31.625  12.039
72878W        W39419  38.704  21.629   4.542
72879W        W39420  20.904  36.388  10.900
72880W        W39421   3.424   3.917   4.555
72881W        W39422   4.458  37.047  12.129
72882W        W39423  34.427  37.575   2.241
72883W        W39424  26.009   4.777   3.232
72884W        W39425  10.621  18.168  12.878
72885W        W39426  20.651  29.164   2.746
72886W        W39427   2.280  22.506   2.336
72887W        W39428  34.998  14.366   4.671
72888W        W39429  40.933  42.885  11.433
72889W        W39430  22.157  12.122   4.428
72890W        W39431  26.450   8.327   0.774
72891W        W39432   9.760  35.374  11.985
72892W        W39433  33.702  13.840   1.306
72893W        W39434  32.371  17.304   4.116
72894W        W39435  41.234   4.023  12.838
72895W        W39436  44.259  12.119  10.269
72896W        W39437  31.727  14.484   2.792
72897W        W39438   8.713  23.099  14.880
72898W        W39439  35.612  44.478  12.614
72899W        W39440  30.175  28.569   3.228
72900W        W39441  42.085  26.184  13.075
72901W        W39442  26.968   4.486   0.064
72902W        W39443  36.974  21.614   4.369
72903W        W39444   3.876  14.193  12.551
72904W        W39445  23.865  39.835  10.379
72905W        W39446  11.308  43.222   1.190
72906W        W39447   5.918   5.749  14.320
72907W        W39448  34.378   5.839   2.675
72908W        W39449   7.286  32.102   3.219
72909W        W39450  18.774  31.728   4.294
72910W        W39451  36.976  11.788  12.121
72911W        W39452  17.112  33.018  11.836
72912W        W39453  41.604  26.366  14.341
72913W        W39454  17.342  30.138   4.983
72914W        W39455  14.866  28.124  12.159
72915W        W39456  25.514  42.027  11.583
72916W        W39457  26.469  23.254  14.410
72917W        W39458   1.797  43.176   2.970
72918W        W39459   5.167   8.410  12.939
72919W        W39460  22.873   0.253  13.477
72920W        W39461  44.623   5.551  10.247
72921W        W39462  18.197   1.224   1.315
72922W        W39463   7.294  43.526   0.941
72923W        W39464  28.520   2.444   0.655
72924W        W39465   0.148   0.823  13.844
72925W        W39466  25.763  26.305  13.727
72926W        W39467  31.463   4.799   2.700
72927W        W39468  16.088  22.497   0.326
72928W        W39469  30.408  42.250   2.199
72929W        W39470  22.499  25.058  13.548
72930W        W39471  13.099  22.570  11.933
72931W        W39472  14.739   3.905  11.645
72932W        W39473   3.528  29.563   4.885
72933W        W39474  37.544   3.360   0.289
72934W        W39475  27.714  31.527   0.373
72935W        W39476  40.366  12.892  12.993
72936W        W39477   0.913  34.779  13.397
72937W        W39478  27.887  14.675  12.973
72938W        W39479   1.964   7.370  13.757
72939W        W39480  19.866  25.291  14.229
72940W        W39481  12.356   2.835  14.233
72941W        W39482  37.383   8.934  14.253
72942W        W39483  36.552  30.628  10.746
72943W        W39484  16.700  42.271  12.400
72944W        W39485  24.161   4.930  14.837
72945W        W39486   2.803   7.346  14.563
72946W        W39487   8.260  39.062   3.525
72947W        W39488  19.463  43.126  14.958
72948W        W39489  11.809  15.526  10.233
72949W        W39490  44.302  36.778   0.632
72950W        W39491   6.863  36.386  11.927
72951W        W39492  17.616   1.939  12.592
72952W        W39493  11.238  24.623  11.545
72953W        W39494  42.154  21.150  10.395
72954W        W39495  40.291  24.224  11.386
72955W        W39496  22.681  19.256  11.973
72956W        W39497  10.679   6.703   1.128
72957W        W39498   9.127   0.423   3.334
72958W        W39499   0.367  32.143  11.370
72959W        W39500  32.062  42.286   3.832
72960W        W39501   2.226   0.944   2.772
72961W        W39502  10.798  10.702   3.707
72962W        W39503  31.114   6.061  14.836
72963W        W39504  27.377   5.620  13.145
72964W        W39505  25.104  43.085  12.095
72965W        W39506   2.260  42.288  11.914
72966W        W39507   4.816  25.997  12.073
72967W        W39508  25.492   5.409   4.991
72968W        W39509  21.002   1.015  11.122
72969W        W39510  14.675  36.965  12.422
72970W        W39511  42.859  21.580  13.246
72971W        W39512  39.335  19.032   0.981
72972W        W39513  15.126   8.276  13.779
72973W        W39514  23.736   3.858  12.534
72974W        W39515   4.717  18.719  13.354
72975W        W39516  20.717  32.670  12.590
72976W        W39517  13.895   8.642  14.518
72977W        W39518  43.478   7.350  13.897
72978W        W39519   5.656  20.710  12.538
72979W        W39520  42.324  12.087   1.736
72980W        W39521  29.961  21.093  13.890
72981W        W39522  36.828   5.968   4.242
72982W        W39523  30.304  17.285   2.682
72983W        W39524  34.978   2.246  13.390
72984W        W39525  31.036   5.654  11.569
72985W        W39526  26.446  30.718   1.356
72986W        W39527  24.041  19.953   1.189
72987W        W39528   5.758  18.207   3.620
72988W        W39529  19.271  43.871   3.728
72989W        W39530  21.320  12.331   5.237
72990W        W39531  33.483  21.719   2.286
72991W        W39532  35.038  10.859  11.040
72992W        W39533  35.662  25.161   3.642
72993W        W39534  34.902   4.835  12.563
72994W        W39535  15.112  43.318   0.257
72995W        W39536   0.864  16.290  13.965
72996W        W39537  10.241  34.831  13.364
72997W        W39538   6.679  26.083   1.202
72998W        W39539  36.938  44.432  11.096
72999W        W39540  32.546  16.589   3.800
73000W        W39541  40.908  13.213   3.783
73001W        W39542  25.619  34.361   3.183
73002W        W39543   5.803   3.766  12.515
73003W        W39544  22.560  29.806   4.094
73004W        W39545   0.283  10.437   4.128
73005W        W39546  40.036  11.802  12.356
73006W        W39547  25.196  37.850   3.336
73007W        W39548  43.837  12.579   0.182
73008W        W39549  15.322  24.732  14.373
73009W        W39550  16.167  32.104   0.589
73010W        W39551  21.395  23.726  11.511
73011W        W39552   0.134   0.667   3.100
73012W        W39553   1.997  23.747   0.009
73013W        W39554   8.247   3.580   3.856
73014W        W39555  44.279  15.295  14.011
73015W        W39556  22.777  30.446   2.723
73016W        W39557  40.707  35.503  10.741
73017W        W39558  41.951   6.681  12.903
73018W        W39559  29.354  13.643  13.799
73019W        W39560  44.760   5.647  11.554
73020W        W39561  44.954  17.583   4.065
73021W        W39562  22.495  23.891  12.447
73022W        W39563  42.381  10.901  14.349
73023W        W39564  23.715  12.222   3.322
73024W        W39565   1.045  21.607   2.958
73025W        W39566  25.685  16.314   4.972
73026W        W39567  17.792  14.357  12.267
73027W        W39568  37.277  19.232   4.521
73028W        W39569  35.500  29.139   1.872
73029W        W39570  38.189  24.636  12.528
73030W        W39571  30.486  24.277  14.175
73031W        W39572  21.565  41.733  14.761
73032W        W39573   2.994  23.069  12.404
73033W        W39574   7.683  34.510   9.917
73034W        W39575  14.541  31.646   3.542
73035W        W39576  39.400  44.449  12.484
73036W        W39577  34.743  31.703  12.546
73037W        W39578  35.328  31.320   4.184
73038W        W39579  19.720   4.837   4.180
73039W        W39580  26.302  13.860   1.796
73040W        W39581  20.978  20.351   3.203
73041W        W39582  11.496  41.298   3.209
73042W        W39583  17.126  40.282   4.167
73043W        W39584   0.402  24.103   4.850
73044W        W39585  12.026  31.976  11.140
73045W        W39586  35.445   1.350   3.703
73046W        W39587  42.078  16.321  11.504
73047W        W39588   7.289  25.579  13.030
73048W        W39589  22.746  41.553   4.975
73049W        W39590  37.324  16.249   2.807
73050W        W39591  43.089   9.501   5.078
73051W        W39592  17.349  19.253  12.059
73052W        W39593  26.050  26.501  12.345
73053W        W39594   5.852   9.458  11.831
73054W        W39595   9.069  23.215  12.479
73055W        W39596  31.139  44.905   2.915
73056W        W39597  21.263  42.918   0.515
73057W        W39598  14.787  31.694  12.956
73058W        W39599  21.429  21.706   4.858
73059W        W39600  11.493   4.786  11.740
73060W        W39601   2.454  21.140   0.256
73061W        W39602  37.845   9.600   3.591
73062W        W39603  39.847   0.732   3.672
73063W        W39604   9.972  39.159   2.382
73064W        W39605   2.133   5.379  10.115
73065W        W39606  41.861   1.090  11.173
73066W        W39607  17.586  40.327   0.662
73067W        W39608   3.408  26.935   1.688
73068W        W39609  41.027  44.875  13.416
73069W        W39610  18.305  12.572  14.505
73070W        W39611  19.114  39.061   1.308
73071W        W39612  31.195  42.889   3.181
73072W        W39613  15.454  34.111   1.945
73073W        W39614   3.691   7.322  11.111
73074W        W39615  39.349   8.952  12.404
73075W        W39616  29.169  13.472   4.667
73076W        W39617  21.506   4.828  14.527
73077W        W39618   1.104  20.959  10.187
73078W        W39619  11.265  29.108   4.615
73079W        W39620  40.719  26.064  14.589
73080W        W39621  21.153  19.055  14.997
73081W        W39622  42.325   6.222  13.536
73082W        W39623  40.937  17.224  11.584
73083W        W39624   2.457  36.799   3.690
73084W        W39625  26.005   3.478  14.711
73085W        W39626  41.989   5.317  13.454
73086W        W39627  42.287  16.628  11.172
73087W        W39628  15.217   4.444  13.133
73088W        W39629  29.506   5.450   1.306
73089W        W39630  36.222   5.861   2.305
73090W        W39631  30.375  20.622   3.205
73091W        W39632  26.207   4.292   1.699
73092W        W39633  34.159   9.908   1.198
73093W        W39634  10.799   7.925  14.796
73094W        W39635  27.515  34.043  11.289
73095W        W39636   9.842   1.520  12.637
73096W        W39637   8.474   4.524  10.063
73097W        W39638  22.491  29.388   0.932
73098W        W39639  23.922  15.739  12.968
73099W        W39640  40.630   8.145   3.677
73100W        W39641   4.318   8.115  11.960
73101W        W39642  16.411  11.677   1.927
73102W        W39643   8.392  21.129  12.104
73103W        W39644   7.400  40.530  14.514
73104W        W39645  28.917  28.252  11.109
73105W        W39646  35.758  40.726  11.136
73106W        W39647  44.890  14.134  14.244
73107W        W39648  32.174  16.039   1.756
73108W        W39649   7.767  17.438   2.376
73109W        W39650   9.038  27.561   2.414
73110W        W39651  22.920   9.269  13.588
73111W        W39652  29.932   5.479  13.050
73112W        W39653  44.371  26.685  13.763
73113W        W39654   0.521  34.784   0.811
73114W        W39655  13.816  11.001   1.812
73115W        W39656  38.543  17.508  10.899
73116W        W39657  43.865  43.042   4.615
73117W        W39658  13.236   0.489  12.992
73118W        W39659  44.019   2.540  12.099
73119W        W39660   7.411  26.984   1.703
73120W        W39661   3.289  34.638   3.834
73121W        W39662  39.410  44.541  11.985
73122W        W39663  39.547   0.911  12.242
73123W        W39664   6.206  14.607  13.483
73124W        W39665  37.993  37.909  12.499
73125W        W39666  37.039   9.724  11.508
73126W        W39667  36.139  10.318  10.184
73127W        W39668  35.027   9.813  13.948
73128W        W39669   1.893  23.265   2.094
73129W        W39670  12.887  43.621   1.933
73130W        W39671  18.001  24.991  12.424
73131W        W39672   5.792   3.717   0.858
73132W        W39673  13.189   1.780  12.683
73133W        W39674   9.345  16.242   0.740
73134W        W39675  23.137  20.197  11.463
73135W        W39676  42.087  16.131  14.018
73136W        W39677  40.558  36.382   3.249
73137W        W39678  27.911  20.042   2.715
73138W        W39679  27.648  29.762   4.431
73139W        W39680  24.077   4.702  14.354
73140W        W39681  19.241  37.847   1.775
73141W        W39682   0.720   5.450  12.539
73142W        W39683  32.012  44.791  13.097
73143W        W39684  33.427  16.091   2.756
73144W        W39685  10.116  25.771  14.241
73145W        W39686   8.660  43.346  13.049
73146W        W39687  33.840  41.983   4.274
73147W        W39688  34.204   4.270   0.511
73148W        W39689  15.275  32.907   1.651
73149W        W39690  40.614   0.437  14.034
73150W        W39691  12.642   1.979   4.476
73151W        W39692   8.623   5.303  10.679
73152W        W39693  23.449   2.813  12.905
73153W        W39694  42.044  27.397   2.310
73154W        W39695  24.764   4.095  12.052
73155W        W39696   0.343  22.008   4.059
73156W        W39697  21.161  13.650  13.090
73157W        W39698  24.561  15.083  13.139
73158W        W39699   7.558   3.000  12.643
73159W        W39700  33.110  19.158  12.909
73160W        W39701  32.867   1.954  13.780
73161W        W39702  35.719  24.628  11.443
73162W        W39703   9.909  22.368  12.931
73163W        W39704  15.197  29.943  11.941
73164W        W39705  14.183   3.873  14.215
73165W        W39706   3.424  22.779   3.779
73166W        W39707  27.084   9.607   3.616
73167W        W39708  16.821  26.447  14.056
73168W        W39709  13.299  16.565  14.053
73169W        W39710  17.008  23.885  11.476
73170W        W39711  23.752  41.271  13.882
73171W        W39712  29.639   3.507  12.469
73172W        W39713  14.071  36.408  14.022
73173W        W39714  11.151   9.198  10.705
73174W        W39715  35.014  29.664   3.167
73175W        W39716  12.638  11.277  14.235
73176W        W39717  11.459  31.713  10.469
73177W        W39718  34.816  31.321   4.240
73178W        W39719  13.983   5.441   3.398
73179W        W39720  22.260  38.379   2.907
73180W        W39721  28.614  21.494  13.835
73181W        W39722  19.240  24.146  12.928
73182W        W39723  22.811  40.861  11.638
73183W        W39724  36.901  37.923   2.250
73184W        W39725  22.365  34.117  11.381
73185W        W39726  25.233   0.534   3.277
73186W        W39727  29.479  35.783  10.399
73187W        W39728  10.739  38.083   0.668
73188W        W39729   5.391  39.881  13.930
73189W        W39730   5.305  19.487  12.116
73190W        W39731  33.797  22.163  14.513
73191W        W39732  38.532   4.441  13.036
73192W        W39733  34.441  23.262   3.793
73193W        W39734  26.446   6.295  12.120
73194W        W39735  14.176  23.256  11.578
73195W        W39736  22.431  14.316  12.519
73196W        W39737   0.747   8.175   0.899
73197W        W39738  38.324  15.306  12.464
73198W        W39739  22.171  37.776  12.028
73199W        W39740   3.860  36.973  10.487
73200W        W39741   2.715   9.653   0.673
73201W        W39742  42.614  30.820  11.814
73202W        W39743   8.818   8.768   3.292
73203W        W39744   2.301  22.967  11.967
73204W        W39745  37.031  28.601  11.180
73205W        W39746  21.078  40.283  11.206
73206W        W39747  22.688   4.551   3.631
73207W        W39748  26.514   9.731  14.689
73208W        W39749  37.896  17.311  14.749
73209W        W39750  38.049  35.590  13.943
73210W        W39751  22.998   3.887  13.095
73211W        W39752  35.921  13.217   1.674
73212W        W39753  36.483   4.509   2.708
73213W        W39754  43.732  18.666  12.573
73214W        W39755  12.080  29.074  14.047
73215W        W39756  30.778   6.225   3.143
73216W        W39757   5.501  40.483  13.480
73217W        W39758  32.087  44.035   3.870
73218W        W39759   2.191  38.833  13.348
73219W        W39760   5.036  24.619  13.273
73220W        W39761  20.983  20.539  11.922
73221W        W39762  22.972  25.657   1.853
73222W        W39763  16.191  24.492   4.864
73223W        W39764  24.067  32.122   1.395
73224W        W39765  17.148   3.874   4.745
73225W        W39766  13.860  29.536   0.777
73226W        W39767   8.211   7.452  14.238
73227W        W39768  11.667  40.495   0.809
73228W        W39769   2.499  24.743  14.112
73229W        W39770  26.574  38.458  12.583
73230W        W39771  19.182  34.952   0.784
73231W        W39772   3.996  19.619   3.398
73232W        W39773  16.639  41.741  13.327
73233W        W39774  14.322   0.972  10.668
73234W        W39775   0.825  11.188  11.670
73235W        W39776   4.189  44.437   5.247
73236W        W39777  38.642  28.028  13.437
73237W        W39778  18.079  44.437  14.938
73238W        W39779  23.320  24.063  11.705
73239W        W39780  42.476  35.753  13.333
73240W        W39781  31.951  30.500   0.743
73241W        W39782  37.409   0.241   4.492
73242W        W39783  36.517   0.596   3.189
73243W        W39784   2.322  33.194   5.520
73244W        W39785   0.045  14.747   2.389
73245W        W39786  17.612  37.601  11.332
73246W        W39787   5.260  14.360  14.070
73247W        W39788  12.825  22.639   3.089
73248W        W39789  20.376   7.538  11.195
73249W        W39790   3.219   1.132   0.477
73250W        W39791  44.802  28.403   1.916
73251W        W39792  21.631  35.906  11.814
73252W        W39793  39.408  28.702  10.568
73253W        W39794  23.987   9.358   3.239
73254W        W39795   4.006  24.037  10.906
73255W        W39796  44.040  22.152  14.520
73256W        W39797  32.354  43.372   2.259
73257W        W39798  29.914  38.966  11.640
73258W        W39799  18.957  43.246  11.169
73259W        W39800   9.338  41.840   4.071
73260W        W39801  26.124  15.105   2.670
73261W        W39802  11.620   7.843  12.903
73262W        W39803  16.107   4.274   2.085
73263W        W39804  37.303  28.069   3.728
73264W        W39805  12.494  26.238  14.904
73265W        W39806   5.495  22.206  10.258
73266W        W39807   7.179   7.489  11.489
73267W        W39808   0.356  43.004   1.662
73268W        W39809   0.514  15.715   5.256
73269W        W39810  21.558  10.050   1.904
73270W        W39811  20.192  17.718   3.248
73271W        W39812  30.056   2.288  12.435
73272W        W39813  33.027  14.030  11.136
73273W        W39814   0.641  36.430  10.797
73274W        W39815  38.522  18.276   4.509
73275W        W39816  30.917  23.030   1.862
73276W        W39817  43.473  35.411  10.719
73277W        W39818  38.916  18.151  12.120
73278W        W39819   3.352   7.788   4.096
73279W        W39820  15.159  42.073   3.757
73280W        W39821  26.002  32.957  13.389
73281W        W39822   5.005  26.078   2.591
73282W        W39823  44.828   5.881   1.780
73283W        W39824  30.978   8.431  13.011
73284W        W39825  18.613   5.778   3.830
73285W        W39826  20.559  21.624   0.021
73286W        W39827   8.735   8.824   4.631
73287W        W39828  42.274  40.883   4.334
73288W        W39829   1.901  14.519   4.801
73289W        W39830  10.081   6.222  13.360
73290W        W39831   9.461   3.435   4.106
73291W        W39832  10.830  15.630  12.345
73292W        W39833   5.756  30.009  14.783
73293W        W39834  28.133   6.438  11.129
73294W        W39835  34.259  40.206   0.334
73295W        W39836  29.951  38.351   0.258
73296W        W39837  21.791  11.153   4.062
73297W        W39838  30.967  15.757   2.277
73298W        W39839  44.607  20.002   1.861
73299W        W39840  34.972  34.929  11.618
73300W        W39841   9.618   8.324   0.804
73301W        W39842  41.963  21.366  11.706
73302W        W39843  29.829  30.622   4.064
73303W        W39844  35.781  20.170  12.290
73304W        W39845   5.522   6.402   1.184
73305W        W39846  38.220  37.452  12.572
73306W        W39847   9.665  27.223  10.637
73307W        W39848  15.132  27.914   0.922
73308W        W39849  36.799  38.350   4.224
73309W        W39850   4.315   7.289   1.222
73310W        W39851  15.843  26.297   1.007
73311W        W39852  26.689  35.618  14.816
73312W        W39853  27.670  18.719   4.023
73313W        W39854  11.137  43.389  11.448
73314W        W39855  43.992  21.062   4.600
73315W        W39856  39.556  12.655  10.698
73316W        W39857  31.464  25.999   1.363
73317W        W39858   4.272  16.838   4.221
73318W        W39859  30.882  38.571   2.807
73319W        W39860  25.515  40.068  14.050
73320W        W39861  43.651  33.695   1.543
73321W        W39862   5.799  37.846  12.184
73322W        W39863  35.888   5.469   0.847
73323W        W39864  13.233  11.369   3.227
73324W        W39865  17.989  39.369  12.967
73325W        W39866  43.343   5.212   4.558
73326W        W39867  33.797   8.642  11.905
73327W        W39868   5.429  19.504  13.986
73328W        W39869   4.621  38.047  13.946
73329W        W39870   3.436   0.542  14.371
73330W        W39871   9.195  34.827  10.586
73331W        W39872  24.002   5.193   2.992
73332W        W39873  12.110  38.517   2.363
73333W        W39874  33.271   7.002   3.160
73334W        W39875  36.474  28.595  12.967
73335W        W39876  16.046  14.488   0.755
73336W        W39877  41.739  23.290  14.467
73337W        W39878  24.372  27.500  11.150
73338W        W39879  36.021   3.284  14.307
73339W        W39880  37.041  40.350  10.691
73340W        W39881  29.427  43.205  14.871
73341W        W39882  39.618   7.857  10.751
73342W        W39883   8.881  17.141  14.964
73343W        W39884  40.385  36.137  10.822
73344W        W39885   3.722   4.706   0.780
73345W        W39886  18.278   0.752   0.360
73346W        W39887   1.899  35.936   2.410
73347W        W39888  36.081  38.788   2.730
73348W        W39889  39.291  18.063  13.388
73349W        W39890  25.298   1.982  13.010
73350W        W39891  19.088  25.187  12.017
73351W        W39892   6.546  43.036  12.118
73352W        W39893  12.189  24.946  10.923
73353W        W39894  11.933  37.867   3.635
73354W        W39895   0.046  38.843   2.609
73355W        W39896  14.872  23.204  13.206
73356W        W39897  23.213  32.034   2.487
73357W        W39898  32.400  42.404  11.323
73358W        W39899   0.096   1.898  12.719
73359W        W39900  11.700  14.722  14.019
73360W        W39901   3.753  21.937  10.785
73361W        W39902  16.123  39.895   2.099
73362W        W39903  26.099  19.036   2.978
73363W        W39904  17.134   0.755   2.732
73364W        W39905  40.326  44.007   4.578
73365W        W39906  43.677   8.915  12.089
73366W        W39907  29.106   7.337  11.844
73367W        W39908  17.430  40.644  13.152
73368W        W39909   9.179  20.027  10.502
73369W        W39910  34.783   7.133   4.217
73370W        W39911  27.171  10.243   2.405
73371W        W39912  17.317  16.720  13.039
73372W        W39913   5.364  42.271  11.869
73373W        W39914  38.507  35.589  11.516
73374W        W39915  20.624  20.289   2.814
73375W        W39916  16.248   0.052   0.900
73376W        W39917  35.706  25.926  13.932
73377W        W39918  18.028  13.156  10.646
73378W        W39919  18.476   2.096  14.356
73379W        W39920   9.138  33.332   0.550
73380W        W39921  20.870  40.075   2.262
73381W        W39922   5.250  37.035  11.070
73382W        W39923  30.412  15.618   1.547
73383W        W39924  33.912   3.652  14.853
73384W        W39925   5.798  15.940   1.253
73385W        W39926   4.464   6.184  11.623
73386W        W39927  43.786   3.950  12.869
73387W        W39928   8.862   2.325   0.197
73388W        W39929   1.818  28.218  14.935
73389W        W39930  22.996  26.038   4.353
73390W        W39931  34.596   4.239   3.072
73391W        W39932  41.463  37.066   4.032
73392W        W39933  21.928   7.038   3.175
73393W        W39934   3.362  22.447   4.661
73394W        W39935   1.827  19.235  12.137
73395W        W39936  39.964  33.889  11.464
73396W        W39937  22.192  21.522  10.993
73397W        W39938  27.891  11.720  10.915
73398W        W39939   9.409  30.463   2.622
73399W        W39940  37.489   0.226  12.370
73400W        W39941  25.520  25.118   5.022
73401W        W39942   7.800   2.365  12.390
73402W        W39943   5.217  32.508   2.302
73403W        W39944  28.711  41.543   4.513
73404W        W39945  41.346   9.567   4.941
73405W        W39946  35.851  37.805   4.259
73406W        W39947   0.314   8.681   0.297
73407W        W39948   3.912  24.038   4.188
73408W        W39949  41.885   4.695  14.275
73409W        W39950  40.511  28.932   2.651
73410W        W39951   8.879  13.177  12.615
73411W        W39952  20.294  27.668  12.605
73412W        W39953  29.036  42.293   3.456
73413W        W39954   0.781  35.276  13.450
73414W        W39955  26.483  18.138   4.616
73415W        W39956  25.922   7.737   1.304
73416W        W39957  14.193  23.698  14.251
73417W        W39958  17.567  18.855  11.322
73418W        W39959  16.761   9.546   0.268
73419W        W39960  21.768   6.926  13.885
73420W        W39961  31.470   0.573   2.373
73421W        W39962   4.359   2.758  12.547
73422W        W39963  11.720  43.062  11.116
73423W        W39964  18.235  41.451  11.269
73424W        W39965  16.845  42.706   3.285
73425W        W39966  39.219  37.511   3.701
73426W        W39967  15.538  10.235   0.173
73427W        W39968  31.958   7.181  11.385
73428W        W39969  20.747   5.106   5.416
73429W        W39970  26.772  33.932  12.318
73430W        W39971   2.273  42.342   0.088
73431W        W39972  23.698  22.033  12.707
73432W        W39973  14.192  33.487  13.267
73433W        W39974  30.064  27.613   1.897
73434W        W39975  15.652  40.148  12.108
73435W        W39976  36.555  29.150   4.261
73436W        W39977  18.918  16.037   4.197
73437W        W39978   1.825  10.909  12.919
73438W        W39979  28.897  16.536  13.511
73439W        W39980  11.136  29.714   1.862
73440W        W39981  26.103  44.783  14.329
73441W        W39982  11.734  29.123   2.139
73442W        W39983  26.486  12.839  14.990
73443W        W39984  34.082  14.925  12.042
73444W        W39985   7.700  41.330   1.794
73445W        W39986   9.747  18.021   1.517
73446W        W39987  23.121  33.324  12.225
73447W        W39988   6.153  18.625   4.492
73448W        W39989  30.425  16.689   0.867
73449W        W39990  40.855   5.720  12.966
73450W        W39991  28.182   5.144   4.693
73451W        W39992   1.167   1.921   4.566
73452W        W39993  42.909  24.578   1.264
73453W        W39994   3.791  30.020   4.848
73454W        W39995  41.875   9.674   2.692
73455W        W39996  22.021  15.117   4.635
73456W        W39997  23.759   8.314   2.464
73457W        W39998  15.901  41.286  12.852
73458W        W39999  18.776  35.857   0.340
73459W        W40000   8.376  21.160  14.466
73460W        W40001  35.017  18.749  14.476
73461W        W40002  18.234  15.721  10.248
73462W        W40003  16.818  11.829  13.580
73463W        W40004  39.934   3.325  11.189
73464W        W40005  17.058  43.480  14.835
73465W        W40006  22.180  41.250  11.414
73466W        W40007  29.580   4.852  14.591
73467W        W40008   6.173  12.294   2.538
73468W        W40009  33.216  38.593   3.161
73469W        W40010  42.929  38.166  14.447
73470W        W40011  20.910  28.689  14.553
73471W        W40012  15.951  34.669   2.218
73472W        W40013  22.529  34.617  14.302
73473W        W40014  36.907  21.970  11.699
73474W        W40015   7.961  37.577  12.439
73475W        W40016  14.288  31.185  13.557
73476W        W40017  21.502  24.828   0.587
73477W        W40018   2.018  15.235   0.560
73478W        W40019  40.002  21.143   1.936
73479W        W40020   0.980   1.707   3.655
73480W        W40021  14.047  12.919  14.980
73481W        W40022  16.999  19.161  14.347
73482W        W40023  38.930  30.585  11.167
73483W        W40024  19.135  26.134   0.958
73484W        W40025  38.771   2.571   3.157
73485W        W40026  42.343  16.846   3.225
73486W        W40027  11.878  43.928   4.595
73487W        W40028  35.909  21.112  11.270
73488W        W40029  37.342  35.938  13.165
73489W        W40030  21.226  27.227  11.187
73490W        W40031  11.314  15.662   0.709
73491W        W40032  28.241  17.534   3.501
73492W        W40033  28.058  36.938   0.421
73493W        W40034  30.974  44.272  11.058
73494W        W40035  35.601   0.956   2.326
73495W        W40036  35.937   2.061   2.315
73496W        W40037  44.896  27.611   4.715
73497W        W40038  37.566   7.677   1.680
73498W        W40039  38.997  38.274   4.266
73499W        W40040  20.578  15.638   0.412
73500W        W40041  14.717   9.383  12.501
73501W        W40042  25.114  25.454  14.911
73502W        W40043   2.241  38.497  12.985
73503W        W40044  22.773  39.768   0.227
73504W        W40045  22.788  33.932  10.566
73505W        W40046  28.856  44.884   1.413
73506W        W40047  13.086  24.790  14.038
73507W        W40048   7.854  30.828  11.554
73508W        W40049  23.996  34.262  12.141
73509W        W40050  33.483  36.688   1.242
73510W        W40051   9.792   2.883   1.401
73511W        W40052  31.172  33.025   1.813
73512W        W40053  11.420  34.445   1.240
73513W        W40054  17.563  20.670  12.588
73514W        W40055  16.648   2.685   2.723
73515W        W40056  34.815   1.516  11.532
73516W        W40057  32.431  27.620   3.449
73517W        W40058  40.174   3.418   2.208
73518W        W40059  40.027  20.653   0.400
73519W        W40060  19.076   1.092   3.204
73520W        W40061  18.190  31.620  12.611
73521W        W40062   0.780  28.637  10.496
73522W        W40063  19.041  39.213  13.051
73523W        W40064  35.865  30.141  11.606
73524W        W40065  29.058  15.930  13.523
73525W        W40066   3.075  36.500   4.334
73526W        W40067   9.882  26.570   2.445
73527W        W40068  37.597  29.366  12.423
73528W        W40069   8.302  30.562   2.951
73529W        W40070   0.776  42.557   2.337
73530W        W40071  22.686  32.927  14.835
73531W        W40072  16.225  19.566  14.415
73532W        W40073  24.936  30.588   3.785
73533W        W40074  23.207  28.599   2.964
73534W        W40075  16.261  33.721   2.456
73535W        W40076  19.333  15.266  11.216
73536W        W40077   0.976  38.972   1.635
73537W        W40078   5.023   9.254   4.080
73538W        W40079  22.753  34.618  12.318
73539W        W40080  36.530   3.593   4.129
73540W        W40081   3.386  16.566   2.146
73541W        W40082  28.983  38.641   4.102
73542W        W40083  27.676   9.686   3.029
73543W        W40084   4.252  22.014   1.219
73544W        W40085  16.788  18.948   4.099
73545W        W40086  27.672  24.262  14.876
73546W        W40087  12.648  42.336  14.913
73547W        W40088  33.579  19.690  12.483
73548W        W40089  41.324  44.906   2.633
73549W        W40090  44.119  16.042   0.057
73550W        W40091  32.678  25.978   2.731
73551W        W40092  15.371  19.344   3.234
73552W        W40093  25.855  11.484  13.780
73553W        W40094   7.376  22.441  10.495
73554W        W40095  22.194  22.928   3.253
73555W        W40096  33.524   9.619   0.473
73556W        W40097  44.932  36.984  11.156
73557W        W40098   3.968  22.156  10.373
73558W        W40099  17.239  32.924   3.618
73559W        W40100  36.952   8.646  11.531
73560W        W40101  12.994  39.056  14.551
73561W        W40102   4.007  23.766  12.537
73562W        W40103  34.420  12.683   0.437
73563W        W40104   4.878  26.749  13.065
73564W        W40105   5.965  38.665  14.574
73565W        W40106  23.233   0.176  14.271
73566W        W40107  35.570  22.592  10.482
73567W        W40108  43.343  28.223   4.386
73568W        W40109  44.058   9.709   3.641
73569W        W40110  11.561   9.320   1.110
73570W        W40111  15.148  20.344   4.895
73571W        W40112  42.091  32.967   0.531
73572W        W40113  41.873  11.577  13.916
73573W        W40114  40.803  19.805   3.347
73574W        W40115  10.030  13.045   2.835
73575W        W40116  39.522  19.226  11.156
73576W        W40117  37.437  20.948   3.503
73577W        W40118  37.282  33.630  10.840
73578W        W40119  35.485  11.687  12.773
73579W        W40120  24.611  17.127   4.223
73580W        W40121  28.892  16.701   0.199
73581W        W40122   3.185   6.381   0.833
73582W        W40123  20.164  19.485  14.516
73583W        W40124  28.626  19.223   1.853
73584W        W40125   4.259  27.929   4.081
73585W        W40126  16.802   6.945  13.941
73586W        W40127  44.757   8.719  14.505
73587W        W40128  15.670  44.874  13.312
73588W        W40129  33.916  34.548   3.283
73589W        W40130  30.500  38.088   4.928
73590W        W40131  37.310  43.292   1.708
73591W        W40132  13.592  38.558   0.733
73592W        W40133   0.858   5.492  11.591
73593W        W40134  17.243  44.109  11.721
73594W        W40135  20.984  40.992   3.145
73595W        W40136  33.547  21.936   0.941
73596W        W40137  44.325   2.024   3.116
73597W        W40138  39.949  24.439  14.132
73598W        W40139  29.621  35.359   2.270
73599W        W40140  29.594  19.194   3.346
73600W        W40141   3.634   9.589  10.956
73601W        W40142  30.863  22.123   3.225
73602W        W40143  43.036  40.963  13.466
73603W        W40144   6.439   8.375   2.170
73604W        W40145  23.323  32.200   3.642
73605W        W40146  18.932  35.220  12.066
73606W        W40147  32.610  14.658   2.237
73607W        W40148  26.577  17.310  10.572
73608W        W40149  14.669  30.373  12.485
73609W        W40150  14.662  12.252   4.583
73610W        W40151  21.500  14.296   0.892
73611W        W40152   1.256  32.390   2.716
73612W        W40153  25.033  34.076  13.959
73613W        W40154  24.696  17.895  12.614
73614W        W40155  41.808  38.296   3.301
73615W        W40156   7.803   1.406  12.974
73616W        W40157  35.447  26.943   4.198
73617W        W40158   9.339  29.384   4.027
73618W        W40159  25.543   3.350   4.997
73619W        W40160  28.897  20.840  14.433
73620W        W40161  38.524  31.163  10.687
73621W        W40162  36.505   5.163  11.570
73622W        W40163  29.064  15.774  11.052
73623W        W40164  31.346  41.391  11.492
73624W        W40165  21.234  12.150  13.846
73625W        W40166  31.026  11.795   3.629
73626W        W40167  22.335   8.219  12.460
73627W        W40168  39.498  35.939  14.475
73628W        W40169  36.049  27.312   3.767
73629W        W40170  27.001  44.004   1.521
73630W        W40171  40.454  30.375  10.738
73631W        W40172  24.008  41.978   2.113
73632W        W40173   0.142  20.256   4.161
73633W        W40174  16.513  36.523   2.412
73634W        W40175  40.288  20.012  10.798
73635W        W40176  34.068  19.170  14.037
73636W        W40177   7.680  30.214  12.796
73637W        W40178  37.319   9.126   2.241
73638W        W40179  42.410  24.967  10.609
73639W        W40180  20.762   4.547  11.098
73640W        W40181  20.178   7.878  10.808
73641W        W40182  13.552  16.748   0.354
73642W        W40183   9.567  23.924   0.047
73643W        W40184  33.564   0.922   3.603
73644W        W40185  40.308  29.174  13.539
73645W        W40186  12.179   0.235   3.266
73646W        W40187  31.171  10.409   0.832
73647W        W40188  19.159  29.780  10.593
73648W        W40189  41.358  26.922  12.940
73649W        W40190  36.607  21.215  12.059
73650W        W40191  11.498  17.812  12.533
73651W        W40192  18.046  40.366   0.052
73652W        W40193  40.595  25.860  13.413
73653W        W40194  36.629  10.010   4.023
73654W        W40195  43.004   1.236   0.324
73655W        W40196  34.890  26.436  13.503
73656W        W40197  43.466   3.772   4.723
73657W        W40198  30.129   0.481  10.787
73658W        W40199  21.262   4.421   0.331
73659W        W40200  34.130   8.475  10.605
73660W        W40201  28.950  40.024  12.189
73661W        W40202   8.625  14.282  13.549
73662W        W40203  18.716  15.803   1.357
73663W        W40204   3.106  44.929  10.199
73664W        W40205  23.946   0.499  12.016
73665W        W40206  41.858  27.459   4.586
73666W        W40207   6.041  30.470   4.731
73667W        W40208  18.489  31.809  14.889
73668W        W40209  26.628   1.488   3.616
73669W        W40210  40.355  35.643  13.852
73670W        W40211  37.475   2.188   1.790
73671W        W40212  22.353   2.600  12.377
73672W        W40213  31.111  41.366   0.692
73673W        W40214  36.829  15.809  14.205
73674W        W40215  28.470  36.095  10.780
73675W        W40216  26.799  21.202   1.415
73676W        W40217   4.000  40.378   2.851
73677W        W40218  31.472  16.743  10.978
73678W        W40219  11.341  31.015   2.409
73679W        W40220   3.410  14.132   1.158
73680W        W40221  30.308  36.316  12.524
73681W        W40222  41.551  18.070  13.262
73682W        W40223  23.272  19.384   2.445
73683W        W40224  27.549  39.456  11.853
73684W        W40225  13.694  40.804   1.699
73685W        W40226  27.120  33.090   3.231
73686W        W40227  21.632   8.232  13.362
73687W        W40228  26.675  41.927  12.430
73688W        W40229  18.250   3.413  14.391
73689W        W40230  33.916  44.293   2.168
73690W        W40231  32.375  41.408   0.510
73691W        W40232  37.787  32.875  11.086
73692W        W40233  20.129  44.937  14.895
73693W        W40234  29.439  21.485  10.819
73694W        W40235  14.703  25.209   4.746
73695W        W40236  33.119  14.050   4.167
73696W        W40237  21.174  39.051   2.147
73697W        W40238   1.221  38.286   4.866
73698W        W40239  44.484  30.137  14.901
73699W        W40240  40.476   6.022   1.631
73700W        W40241   2.097   8.412   1.139
73701W        W40242   9.341  42.350   2.721
73702W        W40243  20.256  25.343  10.265
73703W        W40244  41.263  19.649  10.724
73704W        W40245  10.398  13.159   4.718
73705W        W40246  38.909  42.039   1.661
73706W        W40247  34.704  40.055   2.625
73707W        W40248   4.830  20.566   2.584
73708W        W40249  30.049  19.998  12.586
73709W        W40250   7.597   5.963   1.522
73710W        W40251  36.084  16.268  14.460
73711W        W40252  44.310   5.937  10.059
73712W        W40253  17.475  28.196   0.337
73713W        W40254  26.022  26.197   4.603
73714W        W40255  16.998  12.374   4.122
73715W        W40256   2.893  12.779  10.783
73716W        W40257   0.924  20.179  14.866
73717W        W40258  33.030  32.001  13.309
73718W        W40259   4.200  35.455   0.316
73719W        W40260  14.260   6.914  14.032
73720W        W40261  31.203  32.609  11.997
73721W        W40262  24.179   2.294  11.464
73722W        W40263   6.929   0.246  13.894
73723W        W40264  19.600  38.148   0.394
73724W        W40265  25.868  22.595   2.316
73725W        W40266   1.994  12.401   1.814
73726W        W40267  29.167  25.123   4.552
73727W        W40268  21.771   8.749  10.634
73728W        W40269  42.384  37.945   4.440
73729W        W40270  33.637  15.238   4.122
73730W        W40271  30.099  29.135   3.647
73731W        W40272  35.407   7.131   0.710
73732W        W40273   9.528  15.094  14.986
73733W        W40274   6.094  36.415  14.660
73734W        W40275  43.746  21.495   4.387
73735W        W40276  32.415  19.475   2.211
73736W        W40277  31.093  30.478  13.196
73737W        W40278  17.826  20.330   4.663
73738W        W40279  41.250  31.086  11.082
73739W        W40280  38.797  34.792   0.144
73740W        W40281  18.275  12.045   9.756
73741W        W40282  29.652  17.956  11.628
73742W        W40283  26.030  34.769  14.583
73743W        W40284  23.311  30.166   3.748
73744W        W40285  41.085  31.482   1.891
73745W        W40286  11.278  32.618  11.451
73746W        W40287  15.598  25.150  12.372
73747W        W40288  20.264  27.057  13.811
73748W        W40289  18.100  13.056   4.062
73749W        W40290  38.955  10.648  12.083
73750W        W40291   5.432   6.487   1.707
73751W        W40292   7.128   4.485   4.295
73752W        W40293   3.501  22.527  14.519
73753W        W40294  24.200  17.978  10.355
73754W        W40295  42.255  30.019   3.578
73755W        W40296  43.897  28.537   1.896
73756W        W40297  13.335  14.381   1.851
73757W        W40298  28.519  20.542   2.319
73758W        W40299  22.976  24.443   1.464
73759W        W40300  34.742  25.566  12.130
73760W        W40301   5.246   2.437   2.717
73761W        W40302  19.808  29.609  11.054
73762W        W40303   3.243  34.800  13.977
73763W        W40304  32.157   4.025  13.550
73764W        W40305   0.272   9.323   2.609
73765W        W40306  30.585  11.083   0.278
73766W        W40307  40.970  34.521  13.618
73767W        W40308  23.471  17.070   2.721
73768W        W40309  22.520   3.385   2.624
73769W        W40310  33.082  11.460  14.029
73770W        W40311  13.105   7.433   1.319
73771W        W40312  12.874  37.850  12.634
73772W        W40313   9.346  32.638   3.783
73773W        W40314   5.301  39.572  14.390
73774W        W40315   4.248  39.578   2.396
73775W        W40316  11.779   0.025   1.723
73776W        W40317  17.016  14.300   5.224
73777W        W40318  31.499   9.296   4.550
73778W        W40319  37.609  43.492  10.777
73779W        W40320  42.543  37.082   2.480
73780W        W40321  10.688   4.429   3.207
73781W        W40322  23.585   1.946  14.583
73782W        W40323  19.140  44.467  13.563
73783W        W40324  25.293  40.959  11.664
73784W        W40325  12.531  31.196  12.979
73785W        W40326  12.531  40.315   3.252
73786W        W40327   7.885  40.799  13.401
73787W        W40328  41.248  42.999   4.105
73788W        W40329  19.561  13.145  10.093
73789W        W40330  20.822  38.656   4.889
73790W        W40331  35.817  14.631   3.570
73791W        W40332  36.474  36.144  13.067
73792W        W40333   5.621  13.751   4.847
73793W        W40334   2.744  29.240   4.855
73794W        W40335  36.714  17.509   2.819
73795W        W40336  30.034  25.589  14.068
73796W        W40337  30.248  28.377   0.051
73797W        W40338  25.573  38.450  12.327
73798W        W40339  28.953   7.264  14.250
73799W        W40340  33.572  28.900  12.094
73800W        W40341   9.170   3.287   1.219
73801W        W40342  43.738  41.845  11.396
73802W        W40343  23.143  35.045   1.383
73803W        W40344  24.244   9.581   0.213
73804W        W40345  28.575   3.899  14.560
73805W        W40346  32.412   1.254   0.001
73806W        W40347  19.263   8.638  14.421
73807W        W40348  31.160  31.301  14.464
73808W        W40349  36.343  43.344  11.485
73809W        W40350  43.032  31.779   4.320
73810W        W40351  15.516   9.259  14.292
73811W        W40352  23.694  39.385  10.531
73812W        W40353  39.472   2.986  14.379
73813W        W40354  18.005  28.131   0.311
73814W        W40355  22.108  36.446   3.745
73815W        W40356  39.287  36.273  13.869
73816W        W40357  42.586  14.679  14.599
73817W        W40358  39.629  24.904  13.417
73818W        W40359  39.867  37.320   2.962
73819W        W40360   5.733  11.920  13.472
73820W        W40361  22.658   5.849  14.959
73821W        W40362  32.501  38.082   0.341
73822W        W40363   9.931  26.299  11.576
73823W        W40364  38.299  11.774   3.286
73824W        W40365  13.883  36.116  11.199
73825W        W40366  16.489  18.193   4.566
73826W        W40367  11.763  38.043   4.295
73827W        W40368   0.176   9.436   2.118
73828W        W40369  25.916  43.650  12.034
73829W        W40370  40.997  20.765  10.673
73830W        W40371  38.449   1.570   2.900
73831W        W40372  27.690  30.030   3.222
73832W        W40373   7.088  31.195  12.511
73833W        W40374   9.424  32.917   3.350
73834W        W40375  13.737  44.090  11.627
73835W        W40376   2.077  41.391  14.942
73836W        W40377  35.992  15.255  14.351
73837W        W40378  28.686   6.816   2.112
73838W        W40379  43.941  42.184   3.628
73839W        W40380   8.708   4.705  14.896
73840W        W40381  37.031   6.352   2.212
73841W        W40382  33.390  20.770   5.073
73842W        W40383  41.045  28.249  11.061
73843W        W40384  18.151  28.697  13.994
73844W        W40385   9.911  27.886  14.034
73845W        W40386  32.539  15.699   2.919
73846W        W40387   3.935   8.415   2.699
73847W        W40388   1.885   9.030   3.492
73848W        W40389  14.902  28.022  12.725
73849W        W40390  41.868  33.429  11.587
73850W        W40391   6.794  38.556   2.399
73851W        W40392  11.716  29.267   1.319
73852W        W40393  14.978  22.101   3.322
73853W        W40394  14.312  15.548   2.741
73854W        W40395  39.693  19.836   0.743
73855W        W40396  38.959   5.929   1.831
73856W        W40397  29.036  25.744   0.894
73857W        W40398  20.079  21.194  13.886
73858W        W40399  15.875  23.414  12.456
73859W        W40400  22.177  17.314   3.273
73860W        W40401  16.313  41.553  10.694
73861W        W40402  27.275   4.525  11.095
73862W        W40403   2.717   4.004   3.675
73863W        W40404  13.583  36.507   3.260
73864W        W40405  19.538  17.746  11.886
73865W        W40406  11.102  37.496   4.120
73866W        W40407  21.688  26.021  11.317
73867W        W40408  28.684  43.813  12.526
73868W        W40409   0.861  18.311  13.048
73869W        W40410  41.260   2.303  10.698
73870W        W40411  23.268  37.464   2.071
73871W        W40412  15.599  26.523  14.211
73872W        W40413  28.144   9.806   4.902
73873W        W40414  35.411   6.384  14.268
73874W        W40415   6.768  11.674   0.804
73875W        W40416   4.755   9.050  11.274
73876W        W40417  17.147  37.625   0.411
73877W        W40418  10.095  36.916  10.561
73878W        W40419  43.956  42.957  11.927
73879W        W40420   1.816   3.735  14.525
73880W        W40421  30.483  13.950   1.256
73881W        W40422   0.639  22.486  11.005
73882W        W40423  11.219  21.987   1.763
73883W        W40424  19.597  28.811  11.947
73884W        W40425  19.990  35.875   0.915
73885W        W40426  30.636  31.031   4.502
73886W        W40427  23.736  30.022   0.024
73887W        W40428  36.389  33.970  13.396
73888W        W40429   8.206  24.569  10.437
73889W        W40430  12.777  44.315  12.520
73890W        W40431   5.424  38.395  11.066
73891W        W40432  24.075   1.920   3.216
73892W        W40433  43.363  17.212   4.023
73893W        W40434  21.032   5.293  14.695
73894W        W40435  34.826   4.551  10.141
73895W        W40436  39.124   2.784  14.881
73896W        W40437  33.492  18.271   3.992
73897W        W40438  35.294  13.584   0.723
73898W        W40439   6.670  22.251  11.608
73899W        W40440   5.322  31.934   2.614
73900W        W40441  39.368  26.168   0.919
73901W        W40442  30.341   9.259  14.902
73902W        W40443  12.727  29.464  10.691
73903W        W40444  12.376  26.205  11.377
73904W        W40445  11.316  13.070   2.252
73905W        W40446  39.921   6.585   0.185
73906W        W40447  43.074  13.159  14.769
73907W        W40448   6.000  14.559   0.971
73908W        W40449  44.863  27.129   1.116
73909W        W40450   0.959  29.724  13.746
73910W        W40451  24.957  30.540  14.740
73911W        W40452  23.982  16.371  11.154
73912W        W40453  41.811   5.592  10.577
73913W        W40454  13.393  35.400  12.828
73914W        W40455   7.219  12.831   0.346
73915W        W40456  19.201  33.911   1.757
73916W        W40457  25.550  16.582   0.830
73917W        W40458  17.743  41.758  10.666
73918W        W40459  14.211  16.214  11.207
73919W        W40460  44.341  43.321   0.307
73920W        W40461  35.107  43.675   0.413
73921W        W40462   2.591  42.051  13.256
73922W        W40463  29.598  17.166   0.205
73923W        W40464  39.894  33.539   3.147
73924W        W40465   2.939  22.246   3.184
73925W        W40466   9.832  26.394  12.620
73926W        W40467  21.674  14.132   3.661
73927W        W40468   2.667  34.134   4.411
73928W        W40469   1.822  16.954   3.090
73929W        W40470   2.393  36.432  13.562
73930W        W40471  35.627  27.906   0.291
73931W        W40472   8.207  43.288  11.550
73932W        W40473  44.851   0.651   3.637
73933W        W40474  28.069  26.571   5.116
73934W        W40475   6.453  23.069   1.323
73935W        W40476  33.806  39.250  12.208
73936W        W40477  15.539  29.861  12.628
73937W        W40478  27.210  27.456   3.278
73938W        W40479  30.678  32.043   3.783
73939W        W40480  44.036  44.726  14.345
73940W        W40481   5.128   8.117   2.762
73941W        W40482  11.390  39.722   3.571
73942W        W40483  42.555  42.768   3.679
73943W        W40484  42.865   6.931  13.690
73944W        W40485   7.931   6.884  13.423
73945W        W40486  26.312  20.276   4.640
73946W        W40487   4.410  44.729  12.863
73947W        W40488  17.766   1.438  12.485
73948W        W40489  16.539  36.630   0.447
73949W        W40490   7.980  36.506  11.539
73950W        W40491   1.613  38.020   0.292
73951W        W40492  29.546  23.179   0.460
73952W        W40493  21.326  36.340  11.796
73953W        W40494  26.468  39.391   2.301
73954W        W40495   1.456  33.118   2.176
73955W        W40496  19.626  12.400  12.594
73956W        W40497   1.249  29.069  12.290
73957W        W40498  32.919   2.108  12.033
73958W        W40499  25.417  43.874   3.676
73959W        W40500  15.443  36.604  12.930
73960W        W40501  10.486  40.170   4.575
73961W        W40502  25.315  15.186  11.572
73962W        W40503  32.337  19.063   4.101
73963W        W40504  44.768   2.250   1.385
73964W        W40505  28.677  23.101   0.523
73965W        W40506  23.286  42.802  14.039
73966W        W40507  26.626  21.344  13.133
73967W        W40508  32.055  43.485   1.301
73968W        W40509  28.195   0.966  13.760
73969W        W40510   0.688  23.528  11.375
73970W        W40511   2.645  16.958  12.361
73971W        W40512  18.271  42.395   0.445
73972W        W40513  28.167  10.296   4.619
73973W        W40514   8.420  19.967  14.838
73974W        W40515  29.965  36.098   2.660
73975W        W40516  22.463  42.780   2.244
73976W        W40517  28.293  17.715  14.876
73977W        W40518   2.144   9.600  14.938
73978W        W40519  31.053   2.652   3.852
73979W        W40520  43.738  26.121   0.806
73980W        W40521  25.759  25.082   2.239
73981W        W40522  20.028  14.223  11.918
73982W        W40523  10.720  12.773  11.035
73983W        W40524   6.698   7.651   3.602
73984W        W40525  27.471   1.887   1.733
73985W        W40526  44.942  15.120  14.407
73986W        W40527   5.848   9.645   4.733
73987W        W40528  27.621  19.996   3.134
73988W        W40529   9.822  10.654  10.723
73989W        W40530  33.131  18.648   4.096
73990W        W40531   0.338   4.968  11.204
73991W        W40532  31.699  11.663   4.510
73992W        W40533  18.801  34.518   4.484
73993W        W40534  27.285   9.911   0.370
73994W        W40535  38.902  19.728   1.197
73995W        W40536   1.239  10.262   0.383
73996W        W40537  14.214   6.254  12.415
73997W        W40538  12.015  32.838  11.958
73998W        W40539   5.769  18.249  11.928
73999W        W40540  32.173  38.088   4.123
74000W        W40541  30.420  13.195   1.873
74001W        W40542  31.802  12.176   0.821
74002W        W40543   2.777  21.299   1.242
74003W        W40544  43.291  44.783  13.122
74004W        W40545  16.771  11.745   4.043
74005W        W40546  15.026  43.250  13.428
74006W        W40547  15.512  37.564   4.120
74007W        W40548  27.720  40.864  12.081
74008W        W40549  44.402   5.213   1.902
74009W        W40550  20.824  34.934  14.318
74010W        W40551  10.744  22.935  10.689
74011W        W40552  44.285   2.193  14.782
74012W        W40553  34.065  14.600   0.287
74013W        W40554  30.473  30.475   0.093
74014W        W40555   3.750  10.219  13.152
74015W        W40556   4.153   1.258   0.368
74016W        W40557  15.696  33.394   5.238
74017W        W40558  39.730  24.082   4.810
74018W        W40559  24.117  26.125   3.641
74019W        W40560  34.389  38.883   3.271
74020W        W40561  22.476  18.395  12.596
74021W        W40562  41.304  21.371  10.594
74022W        W40563  19.754   6.098  14.805
74023W        W40564   2.661  16.335  12.567
74024W        W40565   2.106   8.302  11.642
74025W        W40566  35.432  34.018   0.972
74026W        W40567  44.008  43.702  14.390
74027W        W40568  16.810   8.443   1.476
74028W        W40569  43.002  37.591   0.832
74029W        W40570  31.984  39.103   0.919
74030W        W40571  16.281  16.573  14.684
74031W        W40572   7.295  39.119   2.668
74032W        W40573  35.487  22.296  11.655
74033W        W40574  24.045  13.879   2.591
74034W        W40575  41.416  11.166   3.552
74035W        W40576   7.297   8.151   3.181
74036W        W40577  15.692  21.822   1.393
74037W        W40578  14.380   5.015  12.342
74038W        W40579  20.252  42.071  11.007
74039W        W40580  16.359  26.988  14.325
74040W        W40581  12.866  21.053   4.932
74041W        W40582   8.057  32.666   0.389
74042W        W40583  40.907   6.744  11.064
74043W        W40584  42.552  33.668   4.055
74044W        W40585  17.334  33.792   0.814
74045W        W40586  22.007   2.955   1.274
74046W        W40587   9.603  28.725   3.425
74047W        W40588  34.143  32.593  14.322
74048W        W40589  12.246  34.994  12.364
74049W        W40590  27.997   5.975   4.139
74050W        W40591  19.160  29.195   3.888
74051W        W40592  12.627   5.433  12.069
74052W        W40593  18.291  11.718   3.773
74053W        W40594   4.518  40.764  12.426
74054W        W40595   8.224  11.176   2.903
74055W        W40596   6.927  14.431   2.654
74056W        W40597   0.734  43.550  13.993
74057W        W40598  40.571   7.248   2.209
74058W        W40599  33.856   9.288  11.515
74059W        W40600  37.263  33.407   0.399
74060W        W40601  13.733   0.473   2.291
74061W        W40602  34.167  27.553   2.831
74062W        W40603   9.624  37.946   0.838
74063W        W40604  16.503  19.324   2.029
74064W        W40605  31.264  21.677  11.231
74065W        W40606  28.257  41.524  14.761
74066W        W40607  32.108   6.416   4.122
74067W        W40608  40.363  32.095   4.634
74068W        W40609  44.425   7.884  13.954
74069W        W40610  39.834  25.188   3.812
74070W        W40611   7.422  30.507   2.335
74071W        W40612  25.979   4.763  10.741
74072W        W40613  24.233  10.830   2.088
74073W        W40614  43.014  37.139   2.236
74074W        W40615  20.984  20.769  12.827
74075W        W40616  11.747  23.026   3.626
74076W        W40617   9.623  34.994   2.153
74077W        W40618   7.245  43.699   3.599
74078W        W40619  31.171  28.467  12.894
74079W        W40620   2.545  34.051   5.396
74080W        W40621  44.857  39.618  12.078
74081W        W40622  10.782   7.674  12.081
74082W        W40623  11.085   0.531   0.772
74083W        W40624   1.933  40.062  14.159
74084W        W40625   9.715  22.704  13.878
74085W        W40626  20.685   6.688   1.364
74086W        W40627  14.802  12.085   3.285
74087W        W40628  16.003   9.288   4.629
74088W        W40629  17.594  36.097   2.829
74089W        W40630  32.655  44.938   0.342
74090W        W40631  18.732  36.525   4.481
74091W        W40632   6.119  15.079  12.848
74092W        W40633  24.480   3.989  13.189
74093W        W40634  42.401  38.144   2.897
74094W        W40635   6.686   6.759  14.974
74095W        W40636   9.795  13.493  14.506
74096W        W40637  23.925   0.952  13.087
74097W        W40638  36.740  34.339  13.493
74098W        W40639  11.210  40.347  12.916
74099W        W40640  19.342  11.780   2.316
74100W        W40641  22.609  34.879  11.476
74101W        W40642  23.148  10.600  12.434
74102W        W40643  43.633  26.217  13.057
74103W        W40644  19.765  11.394  13.300
74104W        W40645  31.598  20.223  12.135
74105W        W40646   6.774  42.607   4.136
74106W        W40647  19.986  22.209   3.061
74107W        W40648   9.406  26.957  12.212
74108W        W40649  25.123  16.644  13.739
74109W        W40650   2.439  20.915  12.477
74110W        W40651  12.315  38.323   2.795
74111W        W40652  41.921  29.510  14.914
74112W        W40653   4.430  21.952  10.251
74113W        W40654  40.417  18.005  12.005
74114W        W40655  36.255  14.087   4.622
74115W        W40656  23.677  35.081  11.997
74116W        W40657  18.173  15.162   1.762
74117W        W40658  14.665  32.690  12.067
74118W        W40659  39.910  43.120   5.034
74119W        W40660  42.413  17.880   3.400
74120W        W40661  43.240  34.599   3.886
74121W        W40662  41.112  29.946   4.922
74122W        W40663   8.692   9.731  11.028
74123W        W40664   2.364  28.223  14.432
74124W        W40665  41.945   2.760  12.935
74125W        W40666  17.346  31.730  12.093
74126W        W40667  10.339  26.651  14.934
74127W        W40668  19.319  17.553  14.545
74128W        W40669  34.144  23.063  13.667
74129W        W40670  31.684  35.862  13.455
74130W        W40671  30.021  27.446   1.390
74131W        W40672  19.438  12.269   1.481
74132W        W40673  42.767   2.514  11.045
74133W        W40674  37.218  38.903   2.195
74134W        W40675   3.667  41.891   4.416
74135W        W40676  38.260   4.912   3.762
74136W        W40677  27.544   9.134  13.982
74137W        W40678   5.373  19.511   1.319
74138W        W40679  14.635  28.499   0.268
74139W        W40680  40.152  12.160   3.232
74140W        W40681  29.964   3.481   1.851
74141W        W40682  29.427  16.028  14.451
74142W        W40683  14.074  15.521  12.692
74143W        W40684   5.388  44.429  12.559
74144W        W40685  27.977  28.145   4.103
74145W        W40686  14.835  20.662  11.143
74146W        W40687   8.292   6.830  12.931
74147W        W40688  10.053  27.639  12.579
74148W        W40689   0.386   9.892   1.231
74149W        W40690  23.283  18.641   3.126
74150W        W40691  17.755   6.393   2.067
74151W        W40692  36.171  39.430   4.618
74152W        W40693  41.988  38.724   1.306
74153W        W40694  28.354  34.292  12.913
74154W        W40695   7.075  33.764   4.888
74155W        W40696  16.143  17.582   0.519
74156W        W40697  17.540  41.962   0.073
74157W        W40698  43.807  22.911   4.619
74158W        W40699   0.030  10.107  14.630
74159W        W40700  24.696   7.231  14.483
74160W        W40701  24.556  24.647  10.727
74161W        W40702  44.703  20.100   1.323
74162W        W40703   9.972  14.589  12.681
74163W        W40704  18.726  20.234   2.345
74164W        W40705  18.254  12.553   2.256
74165W        W40706   6.962   4.377   9.948
74166W        W40707   5.342   6.667  11.504
74167W        W40708   6.402  41.392  14.319
74168W        W40709  20.583  29.700  13.489
74169W        W40710  42.470  18.747   3.109
74170W        W40711  12.135   8.618  14.330
74171W        W40712  15.439  35.502   2.766
74172W        W40713  12.819  26.019   4.797
74173W        W40714  29.465  38.575   4.877
74174W        W40715  26.967   3.199  14.042
74175W        W40716  43.881  22.527   0.182
74176W        W40717   4.965   9.441   1.933
74177W        W40718   9.877  28.980   4.574
74178W        W40719  11.732  30.956  11.365
74179W        W40720  43.749  11.621  12.528
74180W        W40721   7.132  42.701   3.553
74181W        W40722  25.170  16.547  11.210
74182W        W40723  39.260  44.284   3.397
74183W        W40724  20.330  12.622  10.589
74184W        W40725  29.200  12.672   2.601
74185W        W40726  36.007  14.678   2.790
74186W        W40727  23.228  14.961  13.867
74187W        W40728  28.320  22.183   3.039
74188W        W40729  40.352  41.945   2.410
74189W        W40730  32.417  11.489  10.668
74190W        W40731  29.489   4.204   4.588
74191W        W40732  17.650   9.350   0.822
74192W        W40733  43.884   2.544  14.845
74193W        W40734  10.887  14.670  11.464
74194W        W40735  27.153   6.977  11.081
74195W        W40736  36.507  22.692  13.497
74196W        W40737  42.277  35.456  10.616
74197W        W40738  13.169  18.763   0.344
74198W        W40739  37.871   6.668   3.787
74199W        W40740   1.706  13.176   3.193
74200W        W40741   2.013  33.804  12.990
74201W        W40742  22.585  16.389   2.800
74202W        W40743  19.275   8.250   1.494
74203W        W40744   8.960  37.587   1.314
74204W        W40745  40.947   0.621  14.374
74205W        W40746  18.043  29.919   1.278
74206W        W40747  36.871  34.625   4.927
74207W        W40748  40.573  12.709   2.688
74208W        W40749   7.389   9.193   4.667
74209W        W40750   5.151   5.236  11.772
74210W        W40751  15.447  30.082  13.756
74211W        W40752  44.492  41.289  11.445
74212W        W40753   0.369   0.464   1.250
74213W        W40754  27.918  17.726  12.414
74214W        W40755  33.822  27.657  13.946
74215W        W40756  20.144  12.753   0.688
74216W        W40757  43.259  32.494  11.108
74217W        W40758  22.920  38.076  11.052
74218W        W40759  21.891   6.251   0.071
74219W        W40760  10.732   2.020   1.609
74220W        W40761  35.679  16.596  14.379
74221W        W40762  26.054   1.803  12.046
74222W        W40763  39.307  28.081  12.909
74223W        W40764  35.574  29.540  12.429
74224W        W40765  26.545  17.878   2.298
74225W        W40766   3.491  32.718  12.807
74226W        W40767  44.955  15.169   3.293
74227W        W40768  12.847  41.317   9.701
74228W        W40769  29.125  36.994  13.495
74229W        W40770  35.482  23.216   3.631
74230W        W40771  17.655  11.403   0.867
74231W        W40772   8.814  28.624   0.372
74232W        W40773   2.660  11.124   1.261
74233W        W40774  12.199  13.817   4.949
74234W        W40775  11.376  35.287  10.658
74235W        W40776  34.667  33.147  12.570
74236W        W40777  16.636  19.823   2.270
74237W        W40778  18.759  34.363  13.902
74238W        W40779  36.598  40.371   3.982
74239W        W40780  41.151  16.362   5.550
74240W        W40781  38.506   7.775   0.351
74241W        W40782  26.716   7.656  13.882
74242W        W40783  26.930  24.156  10.713
74243W        W40784   4.956  18.548  12.934
74244W        W40785  17.283  19.769  12.651
74245W        W40786  39.393   2.031   1.260
74246W        W40787  13.643   3.501   1.830
74247W        W40788  11.276  41.821   1.534
74248W        W40789  33.842  40.494   1.717
74249W        W40790  32.912  22.590   0.130
74250W        W40791  18.419  40.995   1.819
74251W        W40792   0.459  32.082   3.115
74252W        W40793  30.935  43.278  12.595
74253W        W40794  18.172   4.431  11.577
74254W        W40795  37.819   9.869   1.378
74255W        W40796   3.011  14.216  11.439
74256W        W40797  44.717  40.432   3.986
74257W        W40798  22.620   0.661   1.967
74258W        W40799   8.559  28.089   0.417
74259W        W40800  11.399  41.354   1.302
74260W        W40801  10.291   8.301   1.459
74261W        W40802   8.465  16.746  13.134
74262W        W40803  35.510  39.224  11.156
74263W        W40804  18.741   3.443  12.084
74264W        W40805  23.582  36.704   4.639
74265W        W40806  10.753  21.151  13.406
74266W        W40807   6.092  32.435   2.734
74267W        W40808  34.674  44.099  10.855
74268W        W40809  28.951  22.651   4.582
74269W        W40810  26.958   8.796  13.009
74270W        W40811   2.141  24.482   9.696
74271W        W40812  29.612   3.945  14.522
74272W        W40813   8.097  36.555  12.491
74273W        W40814  44.229  30.966   3.207
74274W        W40815   6.939  23.332   9.821
74275W        W40816  26.721  34.922   3.240
74276W        W40817  12.810  42.764   4.696
74277W        W40818  29.427  36.122   2.797
74278W        W40819  20.653   5.719   3.416
74279W        W40820  19.893   7.433  12.003
74280W        W40821  35.534   4.378   2.710
74281W        W40822  29.228  42.255  14.825
74282W        W40823  27.860  15.972  14.807
74283W        W40824  22.152  32.856  11.041
74284W        W40825  40.037  12.904  10.717
74285W        W40826  17.810  42.282   3.181
74286W        W40827  40.033  30.504  14.248
74287W        W40828  21.038  15.308   4.756
74288W        W40829  39.126  14.892  13.920
74289W        W40830  30.376  18.611   4.864
74290W        W40831   1.784  31.578   1.736
74291W        W40832  41.477   2.910   4.024
74292W        W40833  24.273  28.891   2.298
74293W        W40834  26.563  22.211  12.018
74294W        W40835  29.027  13.880   1.151
74295W        W40836   8.787  27.398  10.887
74296W        W40837   1.448   3.227   5.070
74297W        W40838  43.335   4.642  11.687
74298W        W40839   6.270  13.746  13.505
74299W        W40840  30.113  15.721  14.082
74300W        W40841  22.512  16.810   4.911
74301W        W40842  34.949  31.222  11.389
74302W        W40843   6.044  36.569   3.626
74303W        W40844  27.043  24.468  11.139
74304W        W40845  11.826  16.300   1.733
74305W        W40846  36.642  39.564   1.819
74306W        W40847  22.670   9.019   4.236
74307W        W40848   5.209   0.257  13.842
74308W        W40849  12.956  16.433  12.557
74309W        W40850   1.148  21.062  12.932
74310W        W40851  41.461  22.930  11.999
74311W        W40852  15.180  42.262   1.220
74312W        W40853  44.081  21.558  13.357
74313W        W40854  37.915   2.189   1.484
74314W        W40855   8.638   8.253   0.513
74315W        W40856   9.395  43.279   2.879
74316W        W40857  36.496  27.940   4.552
74317W        W40858   7.664  21.052  13.820
74318W        W40859  17.099  35.150  14.032
74319W        W40860  34.818  17.082   3.190
74320W        W40861  38.319  10.496  11.160
74321W        W40862  21.627   7.331   2.741
74322W        W40863  11.557  28.136   3.193
74323W        W40864   9.717  27.713  12.194
74324W        W40865  22.607  36.080  14.389
74325W        W40866  34.400  14.001   3.104
74326W        W40867  17.759  23.052   4.234
74327W        W40868  21.066  24.127  11.666
74328W        W40869   9.209  42.886  11.989
74329W        W40870  18.553  38.399   4.350
74330W        W40871  18.711  23.964  12.884
74331W        W40872   3.492   0.049  12.518
74332W        W40873  21.293   4.029   0.720
74333W        W40874  20.956   1.810   2.550
74334W        W40875  37.797  38.313  11.592
74335W        W40876   7.843  27.288   3.124
74336W        W40877  39.582  21.470  14.963
74337W        W40878  41.633  16.783  12.187
74338W        W40879  43.293   0.301  14.678
74339W        W40880  31.638  10.853  14.811
74340W        W40881  29.400  39.466  11.113
74341W        W40882  28.884  20.149  13.337
74342W        W40883  21.531  12.732  13.922
74343W        W40884   5.901  31.992  10.142
74344W        W40885  26.650  15.761   1.166
74345W        W40886   8.857  29.905  13.375
74346W        W40887  36.072  26.261  14.193
74347W        W40888   5.013   9.807  13.952
74348W        W40889  30.276  43.869   3.713
74349W        W40890  39.055  44.776   0.206
74350W        W40891  30.140   6.990  13.464
74351W        W40892  41.935   7.895   2.381
74352W        W40893  18.196   1.460   4.304
74353W        W40894  19.054  26.090  12.620
74354W        W40895  41.827  34.776  11.141
74355W        W40896  44.564  43.770   1.084
74356W        W40897  20.959  27.594  10.960
74357W        W40898  36.945   9.112   4.539
74358W        W40899  32.508  39.652   4.145
74359W        W40900   5.843   4.437   1.983
74360W        W40901   5.511  35.943   0.370
74361W        W40902  43.688  26.536  10.916
74362W        W40903  41.058  33.925   0.869
74363W        W40904  33.442  40.719  11.120
74364W        W40905  23.673   7.846   3.211
74365W        W40906  37.036  17.732   3.256
74366W        W40907  18.703  18.075   0.177
74367W        W40908  28.857  19.258  11.439
74368W        W40909   4.014  22.346  11.938
74369W        W40910  14.645  17.930   9.989
74370W        W40911  43.099  16.823   3.754
74371W        W40912  29.970  30.680  13.969
74372W        W40913   5.864   1.130  11.696
74373W        W40914  19.658  10.271   2.889
74374W        W40915  21.189  23.790  12.950
74375W        W40916  13.859  12.973   0.992
74376W        W40917  44.815  27.571  12.029
74377W        W40918  42.819  11.875  13.633
74378W        W40919  34.090  33.891  12.951
74379W        W40920  10.295  35.930   3.820
74380W        W40921  30.083  21.703   2.862
74381W        W40922  19.658  34.659  11.164
74382W        W40923  41.547  36.482   0.301
74383W        W40924  31.049  39.053  14.887
74384W        W40925  32.361   2.411   0.803
74385W        W40926  24.973  30.641  11.037
74386W        W40927  30.226  22.289  13.172
74387W        W40928  10.659   1.653   0.711
74388W        W40929  23.239  38.495   0.185
74389W        W40930  10.654  20.539  13.645
74390W        W40931  21.068  11.923   4.094
74391W        W40932  44.317   1.717   0.748
74392W        W40933  41.474  22.212   2.309
74393W        W40934  33.190   1.447   1.307
74394W        W40935  27.880  24.513  11.092
74395W        W40936  44.123  15.260  10.703
74396W        W40937  27.979  38.013  12.202
74397W        W40938  15.686  14.380   3.581
74398W        W40939  40.020  34.511  12.120
74399W        W40940  14.697   5.890   0.900
74400W        W40941  10.020  21.272  10.659
74401W        W40942   9.255  12.802  12.000
74402W        W40943  37.809  27.234   2.182
74403W        W40944   0.477   7.829  13.921
74404W        W40945  28.882  38.415  12.955
74405W        W40946  37.012  44.837   0.406
74406W        W40947  32.641  36.810  12.045
74407W        W40948   1.087  17.524  14.768
74408W        W40949  38.961  25.118   1.356
74409W        W40950  21.256  10.013   1.211
74410W        W40951   0.489  28.750  12.990
74411W        W40952   9.294  42.937   2.389
74412W        W40953  22.203  11.759  10.699
74413W        W40954  21.486  18.802  10.650
74414W        W40955  44.208   6.193   4.523
74415W        W40956  34.031  36.951  13.808
74416W        W40957   0.484  28.135  13.567
74417W        W40958  22.533  22.217   0.279
74418W        W40959  16.185  36.121   2.434
74419W        W40960  15.018  18.021   2.245
74420W        W40961  34.895   4.990  13.479
74421W        W40962  29.268  39.821  12.532
74422W        W40963  16.133   8.907  14.838
74423W        W40964  20.864   7.419  11.300
74424W        W40965  14.218  24.034   3.093
74425W        W40966  20.335   8.648  14.197
74426W        W40967  28.166  25.558   1.818
74427W        W40968  42.717  12.226   0.760
74428W        W40969  27.394  44.596  14.847
74429W        W40970  34.519   2.670  10.389
74430W        W40971  26.004  21.657   3.951
74431W        W40972   5.993   9.201   1.569
74432W        W40973  15.706  25.648  13.320
74433W        W40974   1.183  19.635   0.536
74434W        W40975  44.306  24.097  13.871
74435W        W40976  20.322  41.425  13.881
74436W        W40977  19.989  12.190  14.350
74437W        W40978  43.827  27.483   4.726
74438W        W40979  26.539  36.347  12.356
74439W        W40980  23.615  10.239  12.087
74440W        W40981  14.735  13.288   2.728
74441W        W40982  37.042   6.240  12.404
74442W        W40983  24.051  34.620   3.273
74443W        W40984  31.582  21.503  14.961
74444W        W40985   9.331  44.564  13.262
74445W        W40986  44.251  42.260   0.226
74446W        W40987  14.702  35.545  13.718
74447W        W40988  39.421   9.932  13.304
74448W        W40989  35.469  36.062   0.128
74449W        W40990   1.459  27.963   4.107
74450W        W40991  33.840  13.871  14.304
74451W        W40992  11.712   6.805  13.539
74452W        W40993  40.052  36.463   3.214
74453W        W40994  42.015   3.968   2.764
74454W        W40995  33.593  23.626  14.543
74455W        W40996  44.574  22.010  11.549
74456W        W40997  28.421  20.081  11.564
74457W        W40998  22.589   9.693   2.590
74458W        W40999  43.695   2.424   4.539
74459W        W41000   1.911  34.085   0.409
74460W        W41001  25.993  34.053  12.466
74461W        W41002   3.295  22.500   1.330
74462W        W41003  41.471  26.493  11.384
74463W        W41004  30.734   0.395   3.798
74464W        W41005  28.403  11.020  10.466
74465W        W41006  18.543   7.516  14.921
74466W        W41007  19.124  39.378  10.719
74467W        W41008  36.312  41.839  12.403
74468W        W41009  40.596  44.293   3.738
74469W        W41010   5.477  25.944   0.056
74470W        W41011  11.870  33.188  13.245
74471W        W41012  15.282  15.089   3.261
74472W        W41013  17.784   6.004   3.257
74473W        W41014  31.887  33.931   2.744
74474W        W41015  27.694  17.566  13.061
74475W        W41016  37.868  15.176   1.730
74476W        W41017  10.677  23.459   4.583
74477W        W41018   2.897  14.773   4.245
74478W        W41019  18.519  39.300  13.016
74479W        W41020  26.216   3.806  10.690
74480W        W41021   7.178  17.082   3.109
74481W        W41022  24.011  15.359   0.699
74482W        W41023  36.854  29.022   3.864
74483W        W41024  41.389  15.611   1.463
74484W        W41025  38.091  18.282  10.918
74485W        W41026   2.981  15.237  13.371
74486W        W41027   7.356  18.938  12.571
74487W        W41028  10.052  21.724   0.413
74488W        W41029  37.964  41.354  11.559
74489W        W41030   6.862  12.689   2.296
74490W        W41031  10.881  24.730  13.412
74491W        W41032  23.150  28.198  14.339
74492W        W41033  23.674  33.688  13.929
74493W        W41034  11.657  28.447   0.325
74494W        W41035  28.462  24.129  13.198
74495W        W41036  26.934   1.241  10.740
74496W        W41037  17.153  20.201   2.848
74497W        W41038  43.344   9.780  14.881
74498W        W41039  22.817  31.988  10.681
74499W        W41040  23.578  23.187   4.155
74500W        W41041  34.134  25.511   3.279
74501W        W41042  40.395   8.272  11.286
74502W        W41043  14.720   3.198   2.151
74503W        W41044  21.520  22.125   0.221
74504W        W41045  29.020  42.994   2.355
74505W        W41046  39.510   7.153   3.106
74506W        W41047  41.696  25.516  11.939
74507W        W41048  25.917  41.821   2.706
74508W        W41049  18.578  42.279   3.638
74509W        W41050  39.961  17.057   1.788
74510W        W41051  31.447  12.636  12.064
74511W        W41052   0.942  18.112  10.335
74512W        W41053   7.125  15.841  10.737
74513W        W41054  10.600  26.149  10.987
74514W        W41055   6.221  11.037  11.043
74515W        W41056  44.739  38.552   1.668
74516W        W41057  42.027  22.658   0.146
74517W        W41058  23.767   5.317  11.730
74518W        W41059  20.746  39.865  11.177
74519W        W41060  13.058  38.070  13.825
74520W        W41061  12.275  13.452   3.510
74521W        W41062  43.635  39.701   0.854
74522W        W41063  44.945  29.697  12.380
74523W        W41064   9.342  43.367   4.724
74524W        W41065   8.541  36.367   1.048
74525W        W41066  38.336   7.918  11.191
74526W        W41067   5.912   5.819  12.603
74527W        W41068  43.960  13.256   4.482
74528W        W41069  35.501   6.702   1.520
74529W        W41070  35.835  28.155   3.569
74530W        W41071  40.727  37.115   4.701
74531W        W41072  16.082  29.535   3.723
74532W        W41073  23.069   8.844   4.531
74533W        W41074  12.175  31.334   2.820
74534W        W41075  22.765  11.390   2.699
74535W        W41076  28.022  20.049  11.054
74536W        W41077  36.939  21.622  12.098
74537W        W41078   6.281  28.591   3.071
74538W        W41079   4.849  26.864   3.709
74539W        W41080  28.000  38.685   2.939
74540W        W41081  17.364  20.424   0.291
74541W        W41082  26.128  23.720   4.095
74542W        W41083  26.683  19.649  11.191
74543W        W41084  34.417  36.393   1.728
74544W        W41085  25.480  10.809  14.463
74545W        W41086  39.152  39.933   2.619
74546W        W41087   8.636  13.318  14.214
74547W        W41088   5.452  23.220  13.854
74548W        W41089  19.171  33.065  12.075
74549W        W41090  34.593  22.746   4.389
74550W        W41091  22.363  36.036   3.509
74551W        W41092  18.688  29.209   3.232
74552W        W41093  25.301  11.278   1.373
74553W        W41094   8.938  35.926   2.826
74554W        W41095  20.532  16.270  14.799
74555W        W41096  13.807   6.848  13.796
74556W        W41097   3.455  21.620   0.841
74557W        W41098   1.823  30.556   5.415
74558W        W41099  15.092  26.110  12.976
74559W        W41100  10.861  24.646   1.273
74560W        W41101  31.929  39.631  11.093
74561W        W41102  35.487   6.040   4.604
74562W        W41103  32.184   7.990  10.577
74563W        W41104   3.316  35.959   1.258
74564W        W41105  43.382   6.218  11.975
74565W        W41106   0.050  43.427   1.493
74566W        W41107  31.462  15.131   3.527
74567W        W41108  37.359  30.069   0.494
74568W        W41109   2.300  44.118  11.428
74569W        W41110  23.469  43.438  10.656
74570W        W41111  20.148   6.927  14.904
74571W        W41112  40.754   4.784   2.840
74572W        W41113  38.943   8.189   0.387
74573W        W41114  34.839  16.571  12.916
74574W        W41115  10.493  40.947   0.169
74575W        W41116  16.642  20.985  13.779
74576W        W41117  23.661  38.281   0.422
74577W        W41118  21.053  18.748  11.805
74578W        W41119  19.463  41.687   0.424
74579W        W41120   7.165   9.160  13.376
74580W        W41121  15.082   3.011  11.725
74581W        W41122   2.425   8.165  13.959
74582W        W41123  10.765  36.345   1.841
74583W        W41124   1.280  10.209   3.815
74584W        W41125  19.537  33.947   4.188
74585W        W41126  26.111  30.846  11.468
74586W        W41127  29.423  38.071   4.672
74587W        W41128  17.336  12.253  12.126
74588W        W41129  42.957  38.041   2.192
74589W        W41130  37.036  42.422  10.751
74590W        W41131  32.389  44.304  13.940
74591W        W41132   2.786  37.330  12.643
74592W        W41133  29.680  36.025  14.449
74593W        W41134   3.156  10.708   1.828
74594W        W41135  22.149  40.011   0.918
74595W        W41136  10.206  27.567   4.157
74596W        W41137   6.950  17.033  12.545
74597W        W41138   5.623  42.187  12.331
74598W        W41139   9.412  16.788   1.632
74599W        W41140  22.716  17.702  11.195
74600W        W41141  37.635  25.955  12.721
74601W        W41142   2.467  38.911   1.812
74602W        W41143  31.504  41.038  12.203
74603W        W41144   9.889   3.558  11.366
74604W        W41145  11.229  18.547   1.516
74605W        W41146  42.068  36.834  11.628
74606W        W41147   0.679  44.683  11.967
74607W        W41148   4.312  15.830   3.714
74608W        W41149  15.078   7.935  14.784
74609W        W41150  30.058  34.838  14.513
74610W        W41151  30.601  42.469   3.800
74611W        W41152  42.420   6.802   0.248
74612W        W41153   9.169  27.768   3.478
74613W        W41154  44.677  37.752   9.821
74614W        W41155  27.095  19.167   3.430
74615W        W41156  32.929   2.358  12.503
74616W        W41157  22.677  34.657   3.139
74617W        W41158  16.869   1.524  14.998
74618W        W41159   7.733  24.527  10.204
74619W        W41160   1.862   3.755   2.071
74620W        W41161  18.211  34.013   3.425
74621W        W41162  11.150  15.823  13.139
74622W        W41163  43.275  31.694  13.874
74623W        W41164  31.161  22.673  14.550
74624W        W41165  41.265  30.525  12.165
74625W        W41166  27.993  39.920  12.070
74626W        W41167   6.245  13.689   2.146
74627W        W41168  42.502   8.282  13.077
74628W        W41169   7.098  35.049   1.443
74629W        W41170  44.219  20.302   3.133
74630W        W41171   4.718  21.839   5.024
74631W        W41172  42.482   5.817  13.015
74632W        W41173  36.185  10.753   4.285
74633W        W41174  39.211  14.806   1.614
74634W        W41175   2.508  37.353   4.105
74635W        W41176  25.544  28.500   0.905
74636W        W41177   9.280  35.979   3.608
74637W        W41178  35.513  25.495   4.789
74638W        W41179  37.444  39.821  11.035
74639W        W41180  34.208   0.030   1.729
74640W        W41181  28.552  21.813  13.427
74641W        W41182  15.361   1.943   3.185
74642W        W41183   5.043  17.155  12.511
74643W        W41184  43.954  41.425  13.650
74644W        W41185  31.666  33.552   4.032
74645W        W41186  41.478  28.662   2.326
74646W        W41187  38.884   7.841   3.444
74647W        W41188  15.845  39.450  11.047
74648W        W41189   2.770  41.391  13.766
74649W        W41190   1.541  26.509  14.863
74650W        W41191   1.383  13.174  14.460
74651W        W41192  20.757  32.013  10.548
74652W        W41193   3.391  39.203   2.478
74653W        W41194  23.665  25.196   1.398
74654W        W41195  33.529  44.008   3.336
74655W        W41196  40.814  22.428  13.387
74656W        W41197  14.398   6.291  12.900
74657W        W41198  30.258  25.026   4.503
74658W        W41199  24.787  10.220   2.740
74659W        W41200  38.407  29.844  13.617
74660W        W41201  36.508  12.228  10.579
74661W        W41202  12.135  34.908   0.002
74662W        W41203  26.804  12.442  10.966
74663W        W41204  17.240  30.404   2.578
74664W        W41205  37.581  23.305  10.552
74665W        W41206   2.826  24.607  12.750
74666W        W41207  36.386  16.869   4.678
74667W        W41208  18.215  16.279   1.750
74668W        W41209  22.216  29.795   0.172
74669W        W41210  22.195  33.302  13.128
74670W        W41211  39.906   7.909   0.319
74671W        W41212   5.081  40.944   3.299
74672W        W41213  38.355  19.441  11.540
74673W        W41214  44.826  24.859  14.807
74674W        W41215  43.029  23.224   2.213
74675W        W41216  44.054   5.333  11.093
74676W        W41217  27.464  11.551   9.670
74677W        W41218  14.063  27.250   4.647
74678W        W41219  25.959  32.189   2.264
74679W        W41220  33.444  11.866   1.756
74680W        W41221  24.604  44.249  10.749
74681W        W41222   0.465  42.724   1.219
74682W        W41223  41.927   2.996  12.428
74683W        W41224  39.984  41.525   2.467
74684W        W41225  35.638  35.866   0.573
74685W        W41226   8.838  39.518  10.328
74686W        W41227   1.806  21.670  11.065
74687W        W41228  27.471  10.443   0.556
74688W        W41229  30.203  10.652  13.806
74689W        W41230  23.992  23.132  13.122
74690W        W41231  26.166   8.147  14.493
74691W        W41232   9.651  28.248   3.192
74692W        W41233   3.263  31.927   1.680
74693W        W41234  24.101  41.404  14.945
74694W        W41235   9.504   4.459   3.150
74695W        W41236  28.518  19.075   4.932
74696W        W41237  11.325  19.662   3.514
74697W        W41238  10.930  38.451  14.496
74698W        W41239  43.461  19.985   0.697
74699W        W41240   0.433  17.512   0.875
74700W        W41241  19.789  32.443   2.889
74701W        W41242   2.029   2.786   0.981
74702W        W41243  35.113  35.750   1.958
74703W        W41244  22.182   8.420   3.783
74704W        W41245   4.289  13.532   3.301
74705W        W41246  38.813  20.718   2.237
74706W        W41247  27.430  18.226   4.320
74707W        W41248  19.386  15.731   4.146
74708W        W41249  28.560  33.333  11.105
74709W        W41250   6.011  39.112  13.899
74710W        W41251  22.618  34.501  11.811
74711W        W41252  24.248   8.781  13.531
74712W        W41253   2.228   1.097   4.044
74713W        W41254  30.545  23.888  14.545
74714W        W41255   5.695  17.665   1.525
74715W        W41256  43.306  40.716   0.017
74716W        W41257  28.971  11.579   1.198
74717W        W41258   6.046  10.640   4.483
74718W        W41259  42.467  28.167   0.875
74719W        W41260  13.064  40.145   3.173
74720W        W41261  37.332  35.037   1.919
74721W        W41262  11.707  22.531   3.718
74722W        W41263  28.017   1.709   4.862
74723W        W41264  11.712   9.455  11.455
74724W        W41265  16.822  27.564   3.739
74725W        W41266  23.161  34.869  12.060
74726W        W41267  44.212  22.709  10.554
74727W        W41268  29.537  16.857   4.341
74728W        W41269  17.930  30.384   1.750
74729W        W41270  35.640  43.716  14.735
74730W        W41271  11.847  36.328  12.697
74731W        W41272  16.376  26.016   2.431
74732W        W41273  17.933  31.897  14.062
74733W        W41274   9.623  30.339  10.656
74734W        W41275  13.339  39.018   3.308
74735W        W41276  13.747  12.126   4.298
74736W        W41277   9.875  20.287  14.981
74737W        W41278  44.707  13.765  11.394
74738W        W41279  32.631  37.676  13.718
74739W        W41280  24.648   7.197   2.393
74740W        W41281  36.406  16.299   0.428
74741W        W41282  29.930  39.577   3.122
74742W        W41283  24.674  42.790  12.092
74743W        W41284  33.417  31.949  12.946
74744W        W41285  13.610  26.500  13.539
74745W        W41286  21.686  27.541  12.744
74746W        W41287  39.543  18.384   3.613
74747W        W41288  37.978  39.625   4.679
74748W        W41289  21.523  17.542   4.455
74749W        W41290  31.818  32.568   2.349
74750W        W41291  19.152   3.743  11.368
74751W        W41292  31.411  37.491  14.382
74752W        W41293  23.050   2.822   5.006
74753W        W41294  34.986  29.473  12.196
74754W        W41295   7.807  18.402   0.484
74755W        W41296  18.961  38.790  12.429
74756W        W41297   5.783  16.977  11.939
74757W        W41298  34.957  22.798  14.586
74758W        W41299  24.084   2.522  12.709
74759W        W41300  14.542  35.498   1.245
74760W        W41301  10.888  23.482  13.888
74761W        W41302  44.393   4.148   4.303
74762W        W41303  42.290   7.775   1.154
74763W        W41304  15.624  22.891   1.162
74764W        W41305  10.762  34.035   0.928
74765W        W41306  38.992  17.528  10.559
74766W        W41307  17.466  19.490   2.841
74767W        W41308  26.621  16.032   2.725
74768W        W41309  36.881   5.729  14.598
74769W        W41310  15.758  39.901   4.467
74770W        W41311  31.858  44.834  12.034
74771W        W41312  39.963   4.706  10.466
74772W        W41313  26.160   5.337   1.895
74773W        W41314  35.073  12.641   1.651
74774W        W41315  23.969  44.803  14.780
74775W        W41316  41.965  21.901   3.124
74776W        W41317  20.506  17.697  13.326
74777W        W41318  17.577   0.832  11.652
74778W        W41319   8.988   2.765   3.896
74779W        W41320  38.275  16.078   0.916
74780W        W41321  24.603  23.533  13.844
74781W        W41322  37.917  34.777  11.212
74782W        W41323  42.374  29.468  12.577
74783W        W41324  28.104  35.175  12.266
74784W        W41325   9.078  28.134   0.424
74785W        W41326  41.401  26.069   0.789
74786W        W41327  32.770  23.073  10.671
74787W        W41328   3.987  31.148  10.278
74788W        W41329   7.866  19.394   0.224
74789W        W41330   5.452   3.740   1.301
74790W        W41331  34.330   6.176  12.092
74791W        W41332   3.515  39.010   4.565
74792W        W41333  34.387  12.118   2.707
74793W        W41334  25.556  29.460   0.994
74794W        W41335  17.692  14.823  14.685
74795W        W41336  34.571  11.165  13.390
74796W        W41337  37.786  43.287  13.890
74797W        W41338  10.822   9.947   0.925
74798W        W41339  18.098  20.776  12.438
74799W        W41340  13.573  15.611  14.864
74800W        W41341  13.415  20.422  14.045
74801W        W41342   6.812   9.739   0.986
74802W        W41343  30.325   5.782  12.038
74803W        W41344  19.240  18.679   4.643
74804W        W41345  21.299  33.696  12.005
74805W        W41346  17.734  33.891   4.687
74806W        W41347  36.294   3.420   2.288
74807W        W41348  43.782  38.649  12.813
74808W        W41349  34.125  33.346  13.006
74809W        W41350  16.797  31.457  12.955
74810W        W41351   9.076   0.792   2.788
74811W        W41352  22.598  28.045   0.061
74812W        W41353   9.914  37.136   0.260
74813W        W41354  37.404  14.116  13.789
74814W        W41355  16.067  18.602   2.502
74815W        W41356  37.278   6.696   1.530
74816W        W41357  43.063   3.159  14.448
74817W        W41358   2.781  33.974  12.132
74818W        W41359  34.007  10.631   2.727
74819W        W41360  41.892  22.649  12.046
74820W        W41361  27.043  33.599   1.732
74821W        W41362  28.483   7.238  11.932
74822W        W41363  10.239  34.611  11.880
74823W        W41364  44.959  30.696  11.931
74824W        W41365  35.828   7.261   0.399
74825W        W41366  25.987  28.148  14.942
74826W        W41367  41.136  16.918   3.911
74827W        W41368   1.386  32.622   1.298
74828W        W41369  25.955  18.340  12.873
74829W        W41370  10.279  43.261   2.795
74830W        W41371  39.900  28.232   0.014
74831W        W41372  38.147  30.106  14.435
74832W        W41373  44.776  37.908  10.686
74833W        W41374  34.042  30.304   1.122
74834W        W41375   6.541   2.165  14.826
74835W        W41376  34.537  23.665   1.248
74836W        W41377  25.523  43.760   3.193
74837W        W41378  36.071  33.817  12.120
74838W        W41379  10.628   4.840   4.567
74839W        W41380  13.637   5.832   1.742
74840W        W41381  11.795  26.173   1.100
74841W        W41382   4.038   5.501   2.077
74842W        W41383  33.098   2.846  12.487
74843W        W41384   0.260  25.078   3.828
74844W        W41385  26.523   3.731   2.645
74845W        W41386  44.795  19.001  13.819
74846W        W41387  36.392   1.042  14.479
74847W        W41388  41.692  10.069  14.340
74848W        W41389  11.202   8.682  10.576
74849W        W41390  14.573  44.663  14.862
74850W        W41391  14.771  17.541  12.977
74851W        W41392  29.530  41.998   3.112
74852W        W41393  40.354  32.302   2.354
74853W        W41394   6.260  16.913  14.945
74854W        W41395  10.686  37.123  13.060
74855W        W41396  18.490  12.422   5.435
74856W        W41397   4.815  42.967  13.614
74857W        W41398  11.367  13.043  13.009
74858W        W41399   6.008  23.566  13.571
74859W        W41400  41.076  28.747  11.063
74860W        W41401   6.837  18.120   3.383
74861W        W41402  20.580  26.507  11.425
74862W        W41403  17.617  44.730   0.783
74863W        W41404  13.564   8.300   3.260
74864W        W41405  34.332  12.660  11.153
74865W        W41406  22.901  39.090   1.390
74866W        W41407   4.810  39.821   4.390
74867W        W41408   5.880  25.071   3.118
74868W        W41409  39.065   7.673   0.383
74869W        W41410  18.588  43.374   0.369
74870W        W41411  11.191  40.883   3.294
74871W        W41412   1.512  34.365  13.662
74872W        W41413  25.686  26.048  14.735
74873W        W41414  39.997   8.082  11.007
74874W        W41415  30.578  18.541   1.745
74875W        W41416   9.411  19.231   4.876
74876W        W41417  12.679   5.796  10.661
74877W        W41418  24.766  39.636  13.810
74878W        W41419  10.817  29.985   3.321
74879W        W41420  30.528  15.369  14.714
74880W        W41421  26.646  38.124  14.383
74881W        W41422   0.336  40.251   1.194
74882W        W41423  30.624  19.649   4.591
74883W        W41424  34.498   0.689   1.214
74884W        W41425  39.924  40.882   1.733
74885W        W41426  42.876  14.204   4.958
74886W        W41427  27.940  13.184  14.010
74887W        W41428  38.014  10.721  14.389
74888W        W41429  10.270  32.578   3.561
74889W        W41430  14.005   0.202  14.395
74890W        W41431  18.638  33.891   3.790
74891W        W41432  36.818  34.054  11.601
74892W        W41433  23.262  16.358   3.259
74893W        W41434   6.879  12.511   1.813
74894W        W41435  22.747  10.854   3.799
74895W        W41436  34.995   4.886   3.647
74896W        W41437  27.898   3.027  14.731
74897W        W41438  15.171  31.861   3.198
74898W        W41439   4.262  33.012   0.198
74899W        W41440   6.840  35.444   2.469
74900W        W41441  24.941  22.281   3.125
74901W        W41442  12.745  15.583  13.311
74902W        W41443  25.568   5.884   2.406
74903W        W41444  24.140  11.993  13.544
74904W        W41445  34.189  36.051   2.204
74905W        W41446  20.976  35.908   1.205
74906W        W41447  36.643  17.731   1.342
74907W        W41448  16.831  27.963   2.289
74908W        W41449  43.358  26.217  12.541
74909W        W41450  10.449  27.559   1.123
74910W        W41451  15.374  39.298   3.392
74911W        W41452  26.204  37.549   4.550
74912W        W41453  30.135  29.886  11.236
74913W        W41454  14.897   6.393   4.613
74914W        W41455  17.675   4.147   3.705
74915W        W41456  28.634  34.546  13.788
74916W        W41457  35.419  16.196   3.685
74917W        W41458   9.696  13.915   1.876
74918W        W41459  16.065  25.418  11.631
74919W        W41460  36.043   3.081  11.040
74920W        W41461  21.332   2.278   5.150
74921W        W41462  15.635  32.744   4.024
74922W        W41463  14.281  11.872   2.836
74923W        W41464   9.696  27.047  14.781
74924W        W41465  43.714  27.805   0.266
74925W        W41466  13.683   4.291  12.554
74926W        W41467  10.616  44.481   4.846
74927W        W41468  11.730  12.631   3.185
74928W        W41469  11.844  40.618  12.455
74929W        W41470  38.988  28.546  11.449
74930W        W41471  21.576  23.463  13.021
74931W        W41472  44.878  17.205   1.344
74932W        W41473  27.855  26.704  13.359
74933W        W41474  30.748   7.698  12.063
74934W        W41475  10.253  35.166   3.289
74935W        W41476  24.131  25.594   2.829
74936W        W41477  38.969  31.429   3.384
74937W        W41478   8.693  38.776  11.989
74938W        W41479  25.605  28.977   2.848
74939W        W41480  24.787   6.456  11.053
74940W        W41481  28.409  41.078   4.524
74941W        W41482  33.597  14.349   0.394
74942W        W41483  37.843   2.687   1.375
74943W        W41484   0.164   7.664  12.615
74944W        W41485  23.221  10.185  10.607
74945W        W41486  42.156   4.339  14.899
74946W        W41487  26.616   0.459  14.004
74947W        W41488  16.627  36.929  13.352
74948W        W41489   4.899  35.873  13.436
74949W        W41490  13.469   3.019  12.380
74950W        W41491  21.450  19.002  13.964
74951W        W41492  15.177  17.538   2.422
74952W        W41493   3.716   4.506   1.271
74953W        W41494  35.569  35.865   1.750
74954W        W41495  13.664  13.383   0.694
74955W        W41496  44.508  42.400  11.823
74956W        W41497  19.783  11.177  11.068
74957W        W41498  26.669   8.400   3.730
74958W        W41499   9.682  34.904  13.539
74959W        W41500  36.833  44.292   3.815
74960W        W41501  10.812  13.848  11.139
74961W        W41502  24.771  32.100  11.537
74962W        W41503  29.458  19.310  14.443
74963W        W41504  14.065  31.152   0.862
74964W        W41505  40.963   4.979  13.913
74965W        W41506  19.203  33.472  11.734
74966W        W41507  27.581  18.204   0.819
74967W        W41508  35.602  12.744  11.017
74968W        W41509  37.938  39.856  14.302
74969W        W41510  28.726  17.069  11.278
74970W        W41511  40.944  14.881  13.913
74971W        W41512  30.122  27.527   3.257
74972W        W41513   6.948  28.301   3.092
74973W        W41514  32.396  16.814   0.376
74974W        W41515  41.863  27.653   1.874
74975W        W41516  26.687  41.911   5.190
74976W        W41517  32.881   8.573   2.747
74977W        W41518  43.035  15.935   2.158
74978W        W41519  14.239  36.933   3.579
74979W        W41520  38.277  25.241  13.056
74980W        W41521  13.396   8.745   3.470
74981W        W41522  44.208  18.120  12.178
74982W        W41523  10.324  36.709   1.300
74983W        W41524  21.243   7.202   4.846
74984W        W41525  28.120  37.613  14.961
74985W        W41526  22.063  26.326  11.093
74986W        W41527  31.062  30.804  10.129
74987W        W41528  34.375   1.770  10.784
74988W        W41529  33.654   6.789  10.362
74989W        W41530  42.133  36.748   2.279
74990W        W41531  15.291   1.312   2.319
74991W        W41532  36.679   6.704   2.158
74992W        W41533  32.979  41.023  11.097
74993W        W41534   2.046  40.881   4.143
74994W        W41535  10.831   9.000  11.692
74995W        W41536  26.432  29.837  13.144
74996W        W41537  40.061   5.170   2.282
74997W        W41538  31.768  40.367  14.387
74998W        W41539  27.675  11.835  13.835
74999W        W41540   7.747   7.870  10.717
75000W        W41541  18.547  37.355  11.144
75001W        W41542   8.651   7.220   0.768
75002W        W41543  38.064   0.798   3.464
75003W        W41544  17.704  39.177  14.902
75004W        W41545  15.321  40.487   4.445
75005W        W41546  10.288  17.796  13.047
75006W        W41547  26.033  15.382   3.112
75007W        W41548  13.677  27.547   2.164
75008W        W41549  23.949  22.614   5.088
75009W        W41550  31.724  36.873  10.828
75010W        W41551  28.636  41.119  14.726
75011W        W41552  33.627  31.069  12.530
75012W        W41553  40.389  31.443   1.253
75013W        W41554   6.782  17.545   0.984
75014W        W41555  39.878   9.131  14.540
75015W        W41556  34.942  28.045  13.788
75016W        W41557  30.901  15.718  14.730
75017W        W41558  42.738  31.428   4.087
75018W        W41559  25.347  37.402  13.719
75019W        W41560  38.278  39.426   2.806
75020W        W41561  23.559  26.544   2.131
75021W        W41562  44.800  43.593  12.073
75022W        W41563   5.244   9.847   2.231
75023W        W41564  12.687  34.626  12.114
75024W        W41565  19.774  31.649  13.412
75025W        W41566  38.642  21.723   2.680
75026W        W41567  13.145  14.815   3.506
75027W        W41568  34.012  34.133  11.227
75028W        W41569  40.507  25.682  11.551
75029W        W41570  10.061  16.958  11.616
75030W        W41571  18.275   5.813   0.112
75031W        W41572   7.221  29.035  13.836
75032W        W41573  22.825  24.106   2.396
75033W        W41574  17.721  41.145  10.718
75034W        W41575   5.407  33.598  14.146
75035W        W41576  25.650  10.666  13.985
75036W        W41577   8.697  28.144  10.669
75037W        W41578  32.969  38.467  11.941
75038W        W41579  34.360  15.026   3.685
75039W        W41580  22.761  29.144  14.582
75040W        W41581  41.544   0.911   0.432
75041W        W41582  17.033   6.399  11.632
75042W        W41583  43.704   0.472   3.254
75043W        W41584  32.084  22.241  14.948
75044W        W41585  42.335  32.524   2.738
75045W        W41586  16.144  26.343   0.032
75046W        W41587   6.812   7.600   0.270
75047W        W41588  24.018  37.300  13.841
75048W        W41589  26.942  18.297   1.444
75049W        W41590  43.784  24.631  13.418
75050W        W41591  10.227  25.003  11.507
75051W        W41592  21.023  15.840   5.025
75052W        W41593   3.835  33.819   2.164
75053W        W41594   4.347  17.698  13.305
75054W        W41595  37.688  42.296  10.779
75055W        W41596  16.656   7.176  11.517
75056W        W41597  21.265  11.374   2.724
75057W        W41598   9.826  36.441  11.155
75058W        W41599  11.902  43.681   1.227
75059W        W41600  27.183  15.372   3.681
75060W        W41601  24.959   0.833  11.929
75061W        W41602   8.381  36.387   1.833
75062W        W41603  15.994  15.965   1.416
75063W        W41604  19.916   1.251  12.089
75064W        W41605   2.544  18.013  12.103
75065W        W41606  12.860   2.652  10.938
75066W        W41607  28.546   6.680  10.711
75067W        W41608  38.027  29.536   1.809
75068W        W41609  38.932  37.167   2.709
75069W        W41610   0.448  38.554   2.751
75070W        W41611  16.061  40.020  12.431
75071W        W41612  38.934  16.475   2.822
75072W        W41613  18.227  12.779  14.955
75073W        W41614   7.938  11.772  12.379
75074W        W41615  43.157  15.717  14.245
75075W        W41616  35.502   9.481  13.019
75076W        W41617  13.634  15.304   0.777
75077W        W41618   7.878  29.890   1.331
75078W        W41619  39.544  14.560  13.836
75079W        W41620  26.633   7.129  10.396
75080W        W41621  16.945   3.963   2.737
75081W        W41622  24.188  19.193   0.007
75082W        W41623  29.607  30.311   3.122
75083W        W41624  13.251  10.332  13.524
75084W        W41625   7.863  29.014   1.682
75085W        W41626   4.509  32.711   3.656
75086W        W41627  26.836  26.819   2.802
75087W        W41628  25.306  12.551  11.055
75088W        W41629  28.115  15.579  12.392
75089W        W41630  36.359  16.299   3.712
75090W        W41631  19.826  13.851  14.842
75091W        W41632  22.012   0.750  12.453
75092W        W41633   2.457   3.562   3.573
75093W        W41634  22.073  36.801   1.220
75094W        W41635  15.333  41.034  12.098
75095W        W41636   3.375  15.727  11.084
75096W        W41637   1.351   5.525  14.109
75097W        W41638  33.541  30.575   2.211
75098W        W41639  27.964  13.080  11.573
75099W        W41640  34.556   5.836  14.498
75100W        W41641   6.411  33.147   3.282
75101W        W41642  31.107   1.208  10.691
75102W        W41643  28.882  11.239  14.986
75103W        W41644   1.411   7.362   0.054
75104W        W41645   4.465  35.010  14.316
75105W        W41646  13.163  44.324  11.199
75106W        W41647   9.122  25.207   4.160
75107W        W41648  32.164  16.274  13.790
75108W        W41649   4.224   4.262   3.324
75109W        W41650  24.708  29.037  11.109
75110W        W41651  10.740  41.664  11.617
75111W        W41652   4.844  29.620   4.306
75112W        W41653  35.917  30.634  13.467
75113W        W41654  30.564   9.694  13.978
75114W        W41655  13.318  42.105   3.197
75115W        W41656  14.218  35.305   4.850
75116W        W41657  44.334  23.178   1.511
75117W        W41658  30.809  33.935  12.007
75118W        W41659  14.377  10.663  11.209
75119W        W41660  21.432  12.224   2.664
75120W        W41661  11.113  44.983  14.414
75121W        W41662  29.251  22.527  12.401
75122W        W41663  19.275  33.031   1.686
75123W        W41664  39.079  13.742   2.318
75124W        W41665  40.796  16.207   1.204
75125W        W41666  17.490   9.534  14.923
75126W        W41667  24.706  38.837  11.568
75127W        W41668  35.607  28.364   1.358
75128W        W41669  35.869  25.630   3.687
75129W        W41670  34.986  27.582  10.721
75130W        W41671  37.322  19.014  14.249
75131W        W41672  21.971  44.385   2.940
75132W        W41673   1.374  31.368  11.635
75133W        W41674  15.442  38.063  14.461
75134W        W41675  26.778  29.015   4.142
75135W        W41676  44.914   8.139  13.379
75136W        W41677  34.566  17.626   3.267
75137W        W41678  31.477  24.897  13.436
75138W        W41679   4.428  21.193   0.793
75139W        W41680  12.787  18.711   1.926
75140W        W41681  27.115  43.280  14.937
75141W        W41682  29.037  13.400   3.606
75142W        W41683  36.601  19.908   4.280
75143W        W41684  18.339  31.471   4.676
75144W        W41685  31.124  34.578   2.812
75145W        W41686  27.019   0.839  12.930
75146W        W41687   2.357   8.164   2.504
75147W        W41688  14.666  35.310  14.719
75148W        W41689  39.945  29.561  14.425
75149W        W41690  28.398   7.884  10.682
75150W        W41691  15.673  18.462   3.279
75151W        W41692  37.270   6.905   4.428
75152W        W41693  22.489   5.018   1.741
75153W        W41694   9.402  19.209   0.531
75154W        W41695  18.301  17.355  14.508
75155W        W41696  21.674   9.357   1.326
75156W        W41697   2.696   7.171  11.123
75157W        W41698  26.574  10.043   0.104
75158W        W41699   8.818  16.453  12.061
75159W        W41700  23.056  10.788  14.194
75160W        W41701   8.421  24.359   3.166
75161W        W41702  20.858  16.826  11.869
75162W        W41703  41.278  38.352   3.590
75163W        W41704  15.490  32.018   0.029
75164W        W41705   4.739  27.996  10.926
75165W        W41706   9.397  26.026  12.073
75166W        W41707  23.113   5.033   1.396
75167W        W41708   9.779  19.143   3.823
75168W        W41709  35.076  18.783   3.151
75169W        W41710  38.954   0.331   0.909
75170W        W41711  20.688  35.563   3.678
75171W        W41712   1.948  12.145  11.012
75172W        W41713  15.834  37.351   2.915
75173W        W41714  32.886  31.998   5.040
75174W        W41715   1.363  43.008   0.813
75175W        W41716  43.220  20.069  14.827
75176W        W41717   4.470  17.644  10.639
75177W        W41718  30.649   5.208  13.939
75178W        W41719  13.777  13.835   0.349
75179W        W41720  11.306  42.211  12.828
75180W        W41721  43.781  37.163   2.644
75181W        W41722  35.378  24.509  11.059
75182W        W41723  23.218   0.337  11.429
75183W        W41724   6.327  43.727  10.725
75184W        W41725  33.512  12.740   4.617
75185W        W41726  41.920  31.509  11.539
75186W        W41727  22.805  37.823   0.650
75187W        W41728   6.891   8.532  10.682
75188W        W41729  43.942  10.249  13.347
75189W        W41730  17.556  17.617  14.968
75190W        W41731  13.707  23.038   2.612
75191W        W41732   5.843  36.808  10.177
75192W        W41733  41.061  38.045   0.855
75193W        W41734  28.442  39.258  13.861
75194W        W41735  21.205  20.067   3.617
75195W        W41736  13.251   2.793   0.333
75196W        W41737   3.636  18.271  13.016
75197W        W41738  28.129  36.111   3.227
75198W        W41739  20.425  30.317  14.829
75199W        W41740  22.408   6.319  14.947
75200W        W41741  39.313  11.559  10.746
75201W        W41742  20.036   3.843  13.766
75202W        W41743  44.849  21.080   1.731
75203W        W41744   1.491   1.984   1.701
75204W        W41745  18.770   2.526  12.223
75205W        W41746  15.366   9.304   2.681
75206W        W41747   4.964  17.098   2.873
75207W        W41748  18.069   2.031   3.196
75208W        W41749   8.640   9.444  14.950
75209W        W41750  33.091   6.859   3.637
75210W        W41751  10.831  16.406  11.903
75211W        W41752  38.058  28.018   3.302
75212W        W41753  38.793   5.881  13.908
75213W        W41754  28.495  43.481  14.311
75214W        W41755  30.615  14.587   4.102
75215W        W41756  30.774  24.788   4.314
75216W        W41757  12.681   4.399   0.389
75217W        W41758  37.636  40.787   0.055
75218W        W41759   1.967  10.760   4.699
75219W        W41760  37.137  27.509   1.272
75220W        W41761   8.086  39.813   4.215
75221W        W41762  24.679   6.936  13.926
75222W        W41763  32.368  29.241  10.511
75223W        W41764  29.166  17.788   2.324
75224W        W41765   6.422  15.994   3.153
75225W        W41766  13.707   9.825   3.095
75226W        W41767  21.696  20.116   1.688
75227W        W41768  37.416  18.144  14.513
75228W        W41769  20.920  35.536   1.798
75229W        W41770  36.916  25.168  12.127
75230W        W41771  18.165  29.841  12.505
75231W        W41772   1.204   9.320   1.356
75232W        W41773   1.936  38.918  11.525
75233W        W41774  29.015  23.726  14.859
75234W        W41775  12.264  17.298   0.260
75235W        W41776  31.411   0.622   2.880
75236W        W41777  19.630  15.192   1.648
75237W        W41778  44.785  31.518   9.835
75238W        W41779  11.625  10.616   1.423
75239W        W41780   9.853   5.848   4.625
75240W        W41781  25.828   3.371   3.068
75241W        W41782  23.725  30.446  13.109
75242W        W41783  11.380  19.639   1.627
75243W        W41784  37.587  41.905  12.303
75244W        W41785   0.887  32.679  14.039
75245W        W41786  39.020  41.524  13.395
75246W        W41787  20.652  33.891  12.851
75247W        W41788  35.058  31.807   4.168
75248W        W41789  13.364   2.141  13.885
75249W        W41790  17.652  42.562   3.622
75250W        W41791  34.367  32.884  13.074
75251W        W41792  22.778  40.573  13.879
75252W        W41793   6.861  31.805  13.756
75253W        W41794   3.193  27.319   2.637
75254W        W41795  35.041  25.546  14.594
75255W        W41796   6.352  28.397   2.171
75256W        W41797  41.444  12.909   1.277
75257W        W41798  21.147  37.822   4.486
75258W        W41799  11.185  12.116   1.426
75259W        W41800  14.681   8.149  11.629
75260W        W41801  11.652  37.911  13.521
75261W        W41802  30.689   6.360  11.811
75262W        W41803  18.749  36.069   1.295
75263W        W41804  17.419   7.139   2.714
75264W        W41805  19.718  32.957   1.975
75265W        W41806  37.700  32.524  11.504
75266W        W41807  37.989  15.664   1.593
75267W        W41808  16.329  40.709   2.621
75268W        W41809  28.423  44.418  14.365
75269W        W41810  28.026  11.270   2.135
75270W        W41811  28.371  41.448   4.887
75271W        W41812  41.253  43.179  11.157
75272W        W41813  39.328  12.065   1.563
75273W        W41814  31.421  42.454   3.340
75274W        W41815   1.086  40.095   0.728
75275W        W41816  33.340  19.694  13.913
75276W        W41817  12.705  31.752  11.600
75277W        W41818  40.006  32.733  10.726
75278W        W41819  21.146  20.941   4.957
75279W        W41820  19.485   6.205   1.737
75280W        W41821   6.823  22.174  13.985
75281W        W41822  42.020   6.772   1.465
75282W        W41823  40.634  41.363  10.579
75283W        W41824   7.946  29.725   0.439
75284W        W41825  19.223  16.958   1.240
75285W        W41826  34.091  20.617  12.810
75286W        W41827  16.681  10.809   3.824
75287W        W41828  39.630  31.991   3.133
75288W        W41829   6.250  37.495   4.596
75289W        W41830   5.825  38.704  10.267
75290W        W41831  27.449  28.423  13.749
75291W        W41832   4.726  15.562   3.851
75292W        W41833  42.938  25.110   0.981
75293W        W41834   0.261  40.400  10.552
75294W        W41835  33.318  19.690  11.491
75295W        W41836  32.432  43.865  10.920
75296W        W41837  22.285  25.224  14.021
75297W        W41838  42.000  27.999  11.133
75298W        W41839  35.457   2.325  14.948
75299W        W41840  23.336  12.796   4.497
75300W        W41841   0.399  35.812  12.071
75301W        W41842   9.082  34.521  13.523
75302W        W41843  33.907  32.382  11.268
75303W        W41844   7.542  21.444   3.223
75304W        W41845   9.310   7.140   4.429
75305W        W41846  25.304  10.039  11.243
75306W        W41847  38.666  34.192  12.936
75307W        W41848  24.934  15.846  13.014
75308W        W41849  43.713  18.408   3.743
75309W        W41850  34.991   0.910   1.421
75310W        W41851  33.738   8.279   0.311
75311W        W41852   6.409   4.863  10.415
75312W        W41853  32.085  25.252  11.958
75313W        W41854  15.026  39.457   4.336
75314W        W41855  36.783  16.057   4.463
75315W        W41856  18.883  24.957   3.358
75316W        W41857   0.345  37.356   3.404
75317W        W41858  38.816  19.283   0.916
75318W        W41859   4.618  22.646  12.909
75319W        W41860  30.816  19.898   2.926
75320W        W41861   1.912  35.552  10.949
75321W        W41862   9.952  40.056  14.233
75322W        W41863  43.976  16.215  11.679
75323W        W41864  44.484   3.366  11.944
75324W        W41865  14.129  39.486   1.935
75325W        W41866   8.309  22.911  13.804
75326W        W41867  20.295  11.181  11.121
75327W        W41868  16.724   4.302  11.731
75328W        W41869  10.932  42.350  14.330
75329W        W41870  31.224   2.833  11.164
75330W        W41871  32.385  26.948  14.957
75331W        W41872  35.872  10.140  11.569
75332W        W41873  35.646  25.470   1.342
75333W        W41874  42.520  38.853   1.340
75334W        W41875  11.801  13.524  10.415
75335W        W41876  41.755  15.722   3.573
75336W        W41877   1.893  14.731   4.320
75337W        W41878  42.465  29.955  13.357
75338W        W41879  10.257   0.016   0.872
75339W        W41880  27.506  16.308  14.962
75340W        W41881  25.288   7.407   0.664
75341W        W41882  38.757   7.826   5.079
75342W        W41883   3.142  24.645  14.926
75343W        W41884   1.974   9.011   0.943
75344W        W41885   8.407   9.196   1.303
75345W        W41886  17.097  15.590  13.821
75346W        W41887  30.380  39.658  12.003
75347W        W41888  42.222  26.018  14.045
75348W        W41889  40.904  34.651  14.419
75349W        W41890   0.964  42.791  13.152
75350W        W41891   0.547  41.354  14.973
75351W        W41892   3.689  20.394  13.607
75352W        W41893  18.289  38.021  12.889
75353W        W41894   1.746  40.471  13.325
75354W        W41895  17.047  13.351   4.719
75355W        W41896   2.228  25.174   1.764
75356W        W41897   0.647  31.004  10.228
75357W        W41898  38.965  15.336  12.145
75358W        W41899  36.614  41.402  13.505
75359W        W41900  40.543  24.762  12.008
75360W        W41901   6.794  10.407  13.495
75361W        W41902  37.514  29.528   1.776
75362W        W41903   1.767  17.911  12.313
75363W        W41904  21.503   1.205   3.263
75364W        W41905  17.742  15.270  14.961
75365W        W41906  18.163   1.956  11.695
75366W        W41907  41.336   3.444  14.369
75367W        W41908   3.641  26.072  13.643
75368W        W41909  42.401  21.251  12.005
75369W        W41910  30.643  23.274   2.560
75370W        W41911  19.339  39.052   3.444
75371W        W41912  15.128   8.921  11.101
75372W        W41913  30.707  30.995  14.452
75373W        W41914  26.324  27.954  13.048
75374W        W41915  12.105  33.083  11.499
75375W        W41916  22.770  14.334  11.261
75376W        W41917  10.445  11.976   4.093
75377W        W41918  28.654  21.992  13.968
75378W        W41919   9.310  41.667   1.671
75379W        W41920  22.995  11.622  14.163
75380W        W41921   9.145  36.996  14.462
75381W        W41922  13.004   1.259  12.654
75382W        W41923  43.982  37.947   3.598
75383W        W41924   1.766  33.427   3.052
75384W        W41925  38.346  34.454  14.869
75385W        W41926  26.584  44.790  11.160
75386W        W41927   6.468   7.185  14.748
75387W        W41928  15.734  27.999   4.462
75388W        W41929  43.909   4.051  12.301
75389W        W41930  41.923  19.655   4.150
75390W        W41931  21.258  14.245   3.957
75391W        W41932  39.109  39.968  14.388
75392W        W41933   1.768  27.324  12.115
75393W        W41934  37.654   5.551  12.860
75394W        W41935   7.852  15.841   3.279
75395W        W41936   2.242   6.258   1.683
75396W        W41937  41.806  20.507   3.879
75397W        W41938  35.573   1.262  14.814
75398W        W41939  25.827  11.733   2.196
75399W        W41940   2.266  21.099  13.739
75400W        W41941  31.916  11.749   2.251
75401W        W41942   0.791   8.900  10.796
75402W        W41943  31.185  38.961   4.228
75403W        W41944  10.938  30.384   5.122
75404W        W41945  28.878  29.233   3.670
75405W        W41946  26.760  18.472  13.426
75406W        W41947   7.133  44.979   1.126
75407W        W41948  26.563  10.240  13.842
75408W        W41949  17.136  30.644  14.608
75409W        W41950   8.878  15.813   3.323
75410W        W41951  41.453  16.507  13.613
75411W        W41952   7.413   3.117   3.190
75412W        W41953   3.630  23.203  11.881
75413W        W41954  15.872   0.029  12.846
75414W        W41955  44.802  29.393  10.511
75415W        W41956  18.709  13.156  13.763
75416W        W41957  14.603  10.737   1.439
75417W        W41958  36.879  10.685   2.631
75418W        W41959  18.222  44.038  13.721
75419W        W41960  33.465  30.783  10.683
75420W        W41961  26.088  38.925   4.524
75421W        W41962  31.431  24.222  10.714
75422W        W41963  15.555   2.172  14.399
75423W        W41964  41.501  41.999  12.600
75424W        W41965  41.743   6.339  11.113
75425W        W41966  28.911   3.221  11.588
75426W        W41967  17.123  24.386  11.474
75427W        W41968  23.448  41.001  14.593
75428W        W41969   7.142  20.102  10.905
75429W        W41970   8.096   5.891   1.560
75430W        W41971   4.600  15.118  11.079
75431W        W41972  43.808  27.471  13.563
75432W        W41973  18.997  31.418  12.499
75433W        W41974  26.464  21.255  13.873
75434W        W41975   3.326  16.521  11.560
75435W        W41976  35.483   4.870   2.902
75436W        W41977   7.794  40.281  13.342
75437W        W41978  10.557   8.692  14.377
75438W        W41979  15.236   4.851   4.825
75439W        W41980  21.680  17.171  14.582
75440W        W41981   0.226  32.919   0.979
75441W        W41982  32.531  18.216  10.543
75442W        W41983   3.920  23.073  12.812
75443W        W41984  41.393  18.636  11.605
75444W        W41985   4.306  38.512   2.633
75445W        W41986  36.322  44.696  13.504
75446W        W41987  34.345  12.349   1.385
75447W        W41988  36.948   5.816  12.153
75448W        W41989  31.915  42.949  13.865
75449W        W41990   4.796  36.326  12.526
75450W        W41991   3.107   5.245   2.991
75451W        W41992   6.751  28.063  12.090
75452W        W41993  14.273  33.230   0.762
75453W        W41994  24.635   7.640   3.223
75454W        W41995  40.376  27.699  11.590
75455W        W41996  29.517  24.616  11.207
75456W        W41997  28.511  33.116   0.435
75457W        W41998  18.975   9.922   0.944
75458W        W41999  17.716  18.735  14.046
75459W        W42000  23.187  35.920  13.012
75460W        W42001   7.812   1.058  12.206
75461W        W42002  20.563   3.541   1.373
75462W        W42003  23.215  40.054   0.306
75463W        W42004   8.708  13.957   3.846
75464W        W42005   4.245  44.051   1.937
75465W        W42006  34.295  44.219  14.999
75466W        W42007   2.228  28.663  10.432
75467W        W42008  33.907  31.124   3.370
75468W        W42009  17.775  42.381   0.979
75469W        W42010   2.800  37.869   4.199
75470W        W42011   3.871  42.241   0.304
75471W        W42012  11.591   7.374   0.996
75472W        W42013  12.576  40.226   1.840
75473W        W42014  31.551  34.087  11.516
75474W        W42015   5.781   5.861  11.601
75475W        W42016  12.595  17.666   2.840
75476W        W42017  32.510   5.685   0.872
75477W        W42018  36.647  42.990   3.212
75478W        W42019  34.061  23.835  12.638
75479W        W42020  35.878  40.678  12.040
75480W        W42021  29.844  19.601   4.175
75481W        W42022   7.987   6.256   4.549
75482W        W42023  14.843  21.123   2.848
75483W        W42024   1.554  43.301  14.325
75484W        W42025  20.066  19.233  12.551
75485W        W42026   6.792  37.779   0.902
75486W        W42027  40.926   3.441  11.518
75487W        W42028  11.913  22.622  11.136
75488W        W42029  33.604  16.020  12.828
75489W        W42030  28.266  31.272  12.557
75490W        W42031   9.115   0.842  13.387
75491W        W42032   5.970  36.496  11.848
75492W        W42033  12.293   3.416   2.246
75493W        W42034  24.717   6.883  12.410
75494W        W42035  44.351   9.173  12.862
75495W        W42036  40.880  12.158  10.278
75496W        W42037   5.440   0.864  11.642
75497W        W42038  29.894   0.263  13.398
75498W        W42039   1.481  25.696   0.422
75499W        W42040  27.532   5.960   4.428
75500W        W42041   8.489  39.495   9.930
75501W        W42042  20.992  30.052  13.353
75502W        W42043  44.796  20.292   0.459
75503W        W42044  33.865  18.632   4.643
75504W        W42045  26.407   8.965  13.047
75505W        W42046  31.950  44.017  11.047
75506W        W42047  26.974  31.051   0.294
75507W        W42048   1.064  14.231  14.855
75508W        W42049   2.063  12.415   0.241
75509W        W42050  33.303  38.550  11.178
75510W        W42051  29.239  23.089  13.602
75511W        W42052   3.887  35.903   3.403
75512W        W42053  21.493  31.094   0.779
75513W        W42054   2.285  14.453   2.398
75514W        W42055  42.828   0.885  12.559
75515W        W42056  39.869  23.701   0.442
75516W        W42057  31.127   5.960  12.923
75517W        W42058  11.346  24.487   3.653
75518W        W42059  30.455  18.322  11.506
75519W        W42060   4.028  26.763   5.061
75520W        W42061  39.774  27.091   2.437
75521W        W42062   1.967  18.118   0.422
75522W        W42063  33.623  19.135   3.825
75523W        W42064  20.014  12.786  13.495
75524W        W42065   0.406   3.379   2.597
75525W        W42066  17.254  27.713   4.687
75526W        W42067  32.326  14.734   1.697
75527W        W42068  30.083  44.030  11.482
75528W        W42069  37.627  10.312  14.299
75529W        W42070   8.200   5.206   4.417
75530W        W42071  34.682  36.669  13.352
75531W        W42072  42.923   7.677   1.818
75532W        W42073  37.838  33.860  11.533
75533W        W42074  15.647  38.080  11.073
75534W        W42075  40.482  40.840   4.079
75535W        W42076   6.477  24.967  11.685
75536W        W42077  39.387  21.526  11.688
75537W        W42078  19.270   7.070   3.653
75538W        W42079   3.284  32.128  13.407
75539W        W42080  16.185  30.745  12.822
75540W        W42081  41.464  40.335   4.559
75541W        W42082  41.002   1.964   1.680
75542W        W42083  18.864  44.839  12.377
75543W        W42084  30.994  35.585   2.879
75544W        W42085  39.291  37.870  11.311
75545W        W42086  16.872  11.866  11.171
75546W        W42087  28.687  31.904  14.909
75547W        W42088  13.251  27.433   3.633
75548W        W42089  40.143  40.002   0.218
75549W        W42090  11.737  23.750   0.944
75550W        W42091   4.257  12.922  13.473
75551W        W42092  17.569  12.199  12.593
75552W        W42093   1.434  12.208  13.119
75553W        W42094   5.318  12.838  14.053
75554W        W42095  34.627   6.751   1.288
75555W        W42096  25.149  34.633  13.062
75556W        W42097  27.196  28.080  10.629
75557W        W42098  34.601  21.366  11.664
75558W        W42099  14.321   0.919  13.870
75559W        W42100  24.026  40.274  10.593
75560W        W42101  14.643  27.620   2.197
75561W        W42102   3.199  42.930  11.749
75562W        W42103  27.435  33.946   1.851
75563W        W42104   5.850  44.306   4.601
75564W        W42105  24.563  18.881  11.102
75565W        W42106   8.857  33.348  14.064
75566W        W42107  29.197  24.798  10.640
75567W        W42108  14.713  12.224  10.596
75568W        W42109  31.488  43.353   3.203
75569W        W42110  32.925   0.265   3.325
75570W        W42111   3.855  12.023   3.682
75571W        W42112  13.051  20.998  13.340
75572W        W42113   4.409  43.245  13.823
75573W        W42114  25.775  10.370  10.343
75574W        W42115  31.987   2.731   0.973
75575W        W42116  34.852  14.327   3.183
75576W        W42117  34.652  44.052  11.350
75577W        W42118   8.280  12.257   1.731
75578W        W42119  41.446   3.873   0.263
75579W        W42120  27.026  34.344   1.142
75580W        W42121  15.079  36.589  13.975
75581W        W42122  35.581   5.295   1.632
75582W        W42123  36.958  34.102  10.649
75583W        W42124  32.007  29.413  14.251
75584W        W42125   1.783  25.145   2.124
75585W        W42126  22.175  14.056   1.916
75586W        W42127  32.743  11.823   4.626
75587W        W42128  16.852   5.699   2.275
75588W        W42129  14.701  15.356   3.764
75589W        W42130  27.657  13.094  13.589
75590W        W42131  35.403   9.693  11.502
75591W        W42132  15.361   3.258  13.861
75592W        W42133  29.499  34.620  13.280
75593W        W42134  22.756  13.011   1.331
75594W        W42135  31.437  44.625   2.552
75595W        W42136  29.761  23.233  14.496
75596W        W42137   0.741  13.135   4.965
75597W        W42138  29.104  34.102  14.481
75598W        W42139   6.664  10.167   3.668
75599W        W42140  25.719   8.506   2.342
75600W        W42141  17.910  25.246  12.859
75601W        W42142  12.542   3.424  10.720
75602W        W42143  27.147  19.793  10.935
75603W        W42144   9.164   0.494  12.981
75604W        W42145  27.522  40.503   2.349
75605W        W42146  41.418   9.344   0.627
75606W        W42147  27.685  14.081  12.162
75607W        W42148  13.642  22.713  13.302
75608W        W42149  10.342   2.803   4.986
75609W        W42150  43.706  21.600   4.906
75610W        W42151   1.565   0.563   1.824
75611W        W42152   4.291   7.109  11.407
75612W        W42153  25.342   3.192  13.430
75613W        W42154  35.924  15.749  14.150
75614W        W42155   1.386  32.922   2.868
75615W        W42156  14.032   9.245  13.626
75616W        W42157  27.965  23.370  14.144
75617W        W42158  17.564  24.618  13.345
75618W        W42159  42.307  11.620  12.481
75619W        W42160   7.376  34.466   4.572
75620W        W42161  12.330   8.377   0.763
75621W        W42162  11.774  38.249   2.758
75622W        W42163  19.132   0.933   4.138
75623W        W42164  40.913  21.177  13.292
75624W        W42165   0.041  11.673  12.324
75625W        W42166  33.513  44.008   2.235
75626W        W42167   6.133  40.992   4.107
75627W        W42168   9.823  19.406   3.237
75628W        W42169  18.470   9.919   1.074
75629W        W42170  40.117  38.943  13.545
75630W        W42171  29.334  40.341  12.532
75631W        W42172  21.229   5.439  13.854
75632W        W42173  36.027  30.367  14.915
75633W        W42174  36.334   1.903   1.388
75634W        W42175   8.814  28.630   3.869
75635W        W42176   5.360  34.335   3.274
75636W        W42177  28.440  27.548   4.796
75637W        W42178  18.513   8.109  11.349
75638W        W42179  44.054  18.796   3.727
75639W        W42180  11.643  29.213  11.896
75640W        W42181  32.493  20.971   2.707
75641W        W42182  23.641  38.884   2.214
75642W        W42183  34.360  12.739  13.020
75643W        W42184   3.791  38.803  14.900
75644W        W42185  38.440  13.179   5.010
75645W        W42186   7.204  36.388   4.544
75646W        W42187  39.788  28.485  14.564
75647W        W42188  42.152  16.137   4.694
75648W        W42189  21.000  31.382  14.661
75649W        W42190  26.921  39.994   0.373
75650W        W42191  36.651   7.952   1.809
75651W        W42192   9.088  25.575  11.544
75652W        W42193   8.332   3.927   2.310
75653W        W42194  36.539  39.139  11.565
75654W        W42195  40.195  12.638   9.870
75655W        W42196  35.377  10.301   0.876
75656W        W42197  21.059  24.847   3.683
75657W        W42198  15.563  22.069   4.251
75658W        W42199   6.352   9.230   3.132
75659W        W42200  30.132   4.961   4.513
75660W        W42201  11.657  25.840   3.828
75661W        W42202   1.692  21.261   2.265
75662W        W42203  22.609  28.171  10.251
75663W        W42204   9.354  23.595  11.674
75664W        W42205   7.953  26.514   3.633
75665W        W42206  42.362  36.678   3.851
75666W        W42207  31.585  38.604   1.238
75667W        W42208  12.107  40.339  12.818
75668W        W42209   1.563  44.485   3.565
75669W        W42210  41.809   4.288   3.239
75670W        W42211   7.653  35.605   3.092
75671W        W42212  32.346  30.567  10.687
75672W        W42213  30.444  35.912  12.126
75673W        W42214  23.655  19.514   1.713
75674W        W42215  18.700  26.295  10.786
75675W        W42216  23.152   7.419   5.436
75676W        W42217  43.338  25.248  13.797
75677W        W42218  35.353   3.484  12.458
75678W        W42219  15.535  33.965  12.781
75679W        W42220  19.656  19.549  11.920
75680W        W42221  11.224  25.663  13.444
75681W        W42222  11.121  29.134   2.720
75682W        W42223   7.372  20.691  11.716
75683W        W42224   7.154  40.472  10.733
75684W        W42225  30.674  33.614   4.400
75685W        W42226  35.209  43.430  14.618
75686W        W42227  35.815  18.082  14.539
75687W        W42228  29.520  11.279   1.805
75688W        W42229  28.281  14.386  11.555
75689W        W42230  25.238  43.450  13.366
75690W        W42231   8.652  40.769  10.806
75691W        W42232  32.122  25.304  11.104
75692W        W42233  19.544  13.882  13.922
75693W        W42234  44.821  20.065   2.333
75694W        W42235  36.408  21.876   4.487
75695W        W42236  26.076  21.899   1.293
75696W        W42237  24.585  42.510  12.814
75697W        W42238  10.599  38.035  14.646
75698W        W42239   7.246  32.621   0.788
75699W        W42240  17.615  13.841  13.556
75700W        W42241  34.061  29.402   2.321
75701W        W42242  23.579  14.293  14.477
75702W        W42243   4.446   9.771   1.143
75703W        W42244  14.639  18.245   3.258
75704W        W42245   8.165  41.947  11.858
75705W        W42246  36.137  37.316  10.328
75706W        W42247  14.305  39.979  12.451
75707W        W42248  44.812  35.407   3.282
75708W        W42249   5.280   5.562  13.162
75709W        W42250  36.203   9.751  11.695
75710W        W42251  27.307  26.328  14.033
75711W        W42252  18.946  30.920   4.024
75712W        W42253   6.663  29.064   0.376
75713W        W42254  32.456  32.087  11.457
75714W        W42255   6.010  29.640   0.025
75715W        W42256  20.304   4.389   3.723
75716W        W42257  13.555  43.370   0.242
75717W        W42258  34.404  32.128  12.529
75718W        W42259  19.220  19.959   4.306
75719W        W42260   3.598  30.680  10.266
75720W        W42261  43.942  34.639  12.007
75721W        W42262  21.192  32.581  10.909
75722W        W42263   9.563   7.650  14.466
75723W        W42264   6.403  26.733   3.691
75724W        W42265  26.951  28.122  14.922
75725W        W42266  44.233   9.446  11.003
75726W        W42267  24.822  33.569   0.189
75727W        W42268   0.591  15.604  11.174
75728W        W42269  12.348  23.644   4.657
75729W        W42270  25.452  29.563  11.566
75730W        W42271  39.543  43.792  11.267
75731W        W42272  40.190  37.644  12.160
75732W        W42273  34.381  44.777   1.295
75733W        W42274  26.584  32.602  14.364
75734W        W42275  42.275   7.821   3.854
75735W        W42276  12.861  39.971   2.727
75736W        W42277  38.402  33.010  14.801
75737W        W42278   7.739   5.375  14.865
75738W        W42279  20.592  13.273   0.818
75739W        W42280  37.540  32.804  14.801
75740W        W42281  20.084  15.758   3.386
75741W        W42282  31.573  32.708   3.397
75742W        W42283  21.423  44.206  10.058
75743W        W42284  22.104  14.848  13.073
75744W        W42285   3.775  38.994  12.206
75745W        W42286  13.223  34.516  12.030
75746W        W42287   0.725  36.060  11.497
75747W        W42288  25.176  39.964  11.470
75748W        W42289  13.504   4.943   1.322
75749W        W42290  26.572  11.838  11.732
75750W        W42291  22.923  11.892  13.326
75751W        W42292  27.520  14.144  11.267
75752W        W42293   8.238  31.759  10.045
75753W        W42294  14.849  40.417   3.672
75754W        W42295  28.083  39.228  10.214
75755W        W42296   3.008  41.320  11.540
75756W        W42297  20.683   1.356   2.707
75757W        W42298  32.353  18.802  11.993
75758W        W42299  29.537  28.410  11.979
75759W        W42300  25.505  25.460  12.511
75760W        W42301  25.127  33.893  10.589
75761W        W42302  38.499   1.185  10.661
75762W        W42303  39.890   7.427   2.821
75763W        W42304  19.154  40.894   1.491
75764W        W42305  38.450   7.700   2.019
75765W        W42306  21.704  23.899   3.686
75766W        W42307  27.140  35.010   4.176
75767W        W42308  20.500   5.439   3.010
75768W        W42309  26.590  23.468   4.141
75769W        W42310  35.168  41.999  14.450
75770W        W42311  40.912  43.365   4.554
75771W        W42312  27.934  26.553   0.227
75772W        W42313  27.519   1.411  12.154
75773W        W42314  20.791  12.235  13.030
75774W        W42315  40.837   3.384  14.234
75775W        W42316  37.099   7.471  13.494
75776W        W42317   0.523  44.844   2.743
75777W        W42318  22.639  25.916   4.713
75778W        W42319  35.037  37.920  14.017
75779W        W42320  15.087  19.503   2.747
75780W        W42321  21.294  25.813   3.103
75781W        W42322   2.398  36.325   1.732
75782W        W42323  28.214  12.797  11.990
75783W        W42324  28.012  27.349   3.548
75784W        W42325  23.044  37.460   4.362
75785W        W42326  36.768   7.136  11.045
75786W        W42327   4.414  31.668  10.157
75787W        W42328  44.319  11.164   3.444
75788W        W42329   3.766   8.145   2.286
75789W        W42330  19.761   7.007   9.687
75790W        W42331  13.161  39.884   0.403
75791W        W42332  25.532  18.333   3.234
75792W        W42333   7.369  14.633   2.852
75793W        W42334   2.790  26.340   1.419
75794W        W42335  24.587  22.706  12.532
75795W        W42336  35.616  14.698  11.173
75796W        W42337  12.362  32.899   1.880
75797W        W42338  22.543  20.619  11.921
75798W        W42339  13.769  26.106   0.304
75799W        W42340   2.447  36.706  11.532
75800W        W42341   9.079  43.740   3.762
75801W        W42342  33.391   0.837   2.138
75802W        W42343  34.012  13.708  11.096
75803W        W42344  20.223  37.995   1.759
75804W        W42345   5.475  27.698  13.130
75805W        W42346  21.998  19.671  10.704
75806W        W42347  21.303  15.617   2.860
75807W        W42348  39.038  42.827  10.745
75808W        W42349  35.939  11.659  13.875
75809W        W42350  41.924  39.034   3.636
75810W        W42351  29.653  24.495  14.800
75811W        W42352   8.242  18.121   0.456
75812W        W42353  20.913  15.786   1.622
75813W        W42354   9.802  28.153   2.340
75814W        W42355  14.149  35.806   4.666
75815W        W42356  25.390  41.188   3.714
75816W        W42357  13.747  33.860  12.582
75817W        W42358  41.372  25.348   1.518
75818W        W42359  35.964  42.111   1.656
75819W        W42360  27.103   8.301  10.609
75820W        W42361  36.713   0.224  10.270
75821W        W42362  22.149   5.366  12.653
75822W        W42363   5.745  17.768  13.482
75823W        W42364  27.117  12.225   1.574
75824W        W42365  43.844  34.874   0.058
75825W        W42366   9.764  24.784  13.416
75826W        W42367   1.168  19.736   2.932
75827W        W42368  24.621  19.153   0.303
75828W        W42369  15.111  42.302   1.782
75829W        W42370  24.466  44.695   1.474
75830W        W42371  14.648  43.671  11.583
75831W        W42372  26.904  28.277  11.953
75832W        W42373   8.980  29.690  12.092
75833W        W42374  24.295   0.930  10.326
75834W        W42375   9.352  26.711   1.648
75835W        W42376  35.366  33.019   4.455
75836W        W42377  17.496  24.741   4.651
75837W        W42378  13.667  13.345   3.757
75838W        W42379   3.020  19.032   0.297
75839W        W42380   4.744  10.220  13.802
75840W        W42381   9.245  22.940  10.698
75841W        W42382   1.800   0.612   2.746
75842W        W42383  12.561  18.091   2.188
75843W        W42384   3.598  13.792   4.664
75844W        W42385  14.046  35.641  12.430
75845W        W42386  43.392   3.091   1.389
75846W        W42387  22.055  11.314  11.989
75847W        W42388  32.009  30.032   0.970
75848W        W42389  43.526  34.377   4.840
75849W        W42390   5.894  44.801  11.050
75850W        W42391  28.231  39.270  10.706
75851W        W42392   5.842  31.440  10.670
75852W        W42393   6.328  10.446  11.683
75853W        W42394  35.308  26.682  14.446
75854W        W42395  23.082  27.649  14.353
75855W        W42396  10.227  45.000   2.357
75856W        W42397  22.429  32.961   2.675
75857W        W42398   2.323  42.406  13.545
75858W        W42399  21.530   0.516   1.248
75859W        W42400  27.422  32.920   2.799
75860W        W42401   1.864  35.554  14.832
75861W        W42402  28.011  28.401   4.558
75862W        W42403  30.400  38.641   2.690
75863W        W42404  21.767  31.459   4.210
75864W        W42405  11.784  10.262  14.580
75865W        W42406  14.992  38.793   0.883
75866W        W42407  10.427  34.499  12.887
75867W        W42408  26.756  25.241  10.013
75868W        W42409  17.505  24.557   3.551
75869W        W42410   5.250  10.802   0.874
75870W        W42411  21.572   7.814   1.815
75871W        W42412  11.870  19.037  11.195
75872W        W42413  39.336   1.718  11.159
75873W        W42414  38.464  10.328   1.678
75874W        W42415  26.412  21.971   3.258
75875W        W42416  23.609   4.290   0.462
75876W        W42417  44.658  42.514   1.489
75877W        W42418  18.240   6.561  13.656
75878W        W42419  12.069  22.658  11.635
75879W        W42420  34.081  34.357   2.283
75880W        W42421  20.670  26.544   3.350
75881W        W42422  39.866  40.052   4.113
75882W        W42423  24.022  42.852   2.412
75883W        W42424  30.030  37.954   3.256
75884W        W42425   6.700   7.838   0.749
75885W        W42426  25.885   0.027   4.473
75886W        W42427  17.345  34.267   0.628
75887W        W42428  35.460  22.687  13.339
75888W        W42429   5.267  32.364   1.283
75889W        W42430  44.502  42.869  11.068
75890W        W42431  35.098   3.485   0.379
75891W        W42432  20.817  30.992  13.501
75892W        W42433  31.665  15.715  12.332
75893W        W42434   1.708  13.754  11.591
75894W        W42435   3.891  33.896  13.322
75895W        W42436   5.307  31.412  11.410
75896W        W42437  31.920   5.193   2.367
75897W        W42438   0.639  29.834   2.271
75898W        W42439  44.765  11.464   3.551
75899W        W42440   5.777  40.667  14.906
75900W        W42441  36.442  33.770  12.491
75901W        W42442  21.188   8.863  14.768
75902W        W42443  42.125  13.859  12.009
75903W        W42444  14.360  18.210   1.654
75904W        W42445  37.325  31.535  14.443
75905W        W42446  14.700  12.381  14.727
75906W        W42447   5.362  43.560  10.722
75907W        W42448   8.465   7.688  10.540
75908W        W42449   8.797  38.248  10.722
75909W        W42450  42.737   1.447   2.699
75910W        W42451  28.490  27.245   2.252
75911W        W42452  14.907  41.425   3.648
75912W        W42453  30.878  44.573  12.926
75913W        W42454  34.890   3.214  13.512
75914W        W42455  32.582  37.084  10.787
75915W        W42456  25.030  36.816   2.193
75916W        W42457  32.551  44.016   4.190
75917W        W42458  11.792  17.586   2.555
75918W        W42459  21.253  35.089   3.086
75919W        W42460  19.284  10.577  13.329
75920W        W42461  39.828  29.005  13.490
75921W        W42462  39.445   3.268  12.012
75922W        W42463  21.337  44.286   0.912
75923W        W42464  11.684  15.513   2.204
75924W        W42465  34.918  12.619   0.606
75925W        W42466  43.414  17.548  14.443
75926W        W42467   2.862   4.057  12.527
75927W        W42468  36.520  44.452  12.337
75928W        W42469  44.936  34.052  13.094
75929W        W42470  19.300  27.179   1.183
75930W        W42471   9.074  20.838  12.221
75931W        W42472  11.867  37.389   2.754
75932W        W42473   9.453  44.073  14.681
75933W        W42474  41.380  29.105   2.585
75934W        W42475  44.294   6.465  12.246
75935W        W42476  34.577   4.694   2.838
75936W        W42477  31.656  17.661   3.823
75937W        W42478  41.817  31.683  13.855
75938W        W42479   2.902  23.443  11.498
75939W        W42480  33.219   2.748   0.332
75940W        W42481  36.432   9.371   2.276
75941W        W42482  19.722  19.043  11.934
75942W        W42483  37.435  39.423   5.090
75943W        W42484  20.947  36.490   4.508
75944W        W42485  26.468  34.998   2.792
75945W        W42486  11.334  37.249  14.202
75946W        W42487  39.888  38.235  14.857
75947W        W42488  40.066  33.223   0.333
75948W        W42489  10.242  27.175  12.468
75949W        W42490  39.082  13.216  13.430
75950W        W42491  33.697  36.457  11.234
75951W        W42492  19.848  42.477   0.844
75952W        W42493  28.812  43.033   0.497
75953W        W42494  43.448  32.048   4.033
75954W        W42495   2.640  24.595   4.726
75955W        W42496  28.142  19.805   4.597
75956W        W42497  15.250   4.712   0.298
75957W        W42498  37.999  10.872   3.322
75958W        W42499  34.890  36.414  13.778
75959W        W42500  28.514  32.530   1.058
75960W        W42501  20.673  34.583   3.120
75961W        W42502  43.788   7.434   4.956
75962W        W42503   3.730   7.769   1.900
75963W        W42504   1.766  10.106   1.681
75964W        W42505  18.315  28.756   2.605
75965W        W42506   7.756  36.065   3.307
75966W        W42507  16.202  18.632   4.551
75967W        W42508  16.521   0.611   4.124
75968W        W42509  23.110  14.311   2.821
75969W        W42510  14.825  38.048   2.264
75970W        W42511  42.399  39.269  14.772
75971W        W42512   3.665  21.122   2.622
75972W        W42513  25.763   9.765  13.510
75973W        W42514  25.209   7.387  11.875
75974W        W42515   4.299  21.145   1.660
75975W        W42516  40.550  17.228   0.342
75976W        W42517  24.830  37.111   1.216
75977W        W42518  41.279  18.244   4.146
75978W        W42519   5.740  41.780   3.667
75979W        W42520  37.010   4.419   1.737
75980W        W42521   3.846  11.152  10.680
75981W        W42522  17.546  42.451   4.585
75982W        W42523  27.181  40.221  10.597
75983W        W42524   4.712  42.106  12.345
75984W        W42525   5.795  33.393  13.917
75985W        W42526   2.772  11.302  12.991
75986W        W42527  42.821  27.923  11.608
75987W        W42528  25.441  31.065   0.282
75988W        W42529  43.398  19.298   0.065
75989W        W42530  42.335  31.554   3.326
75990W        W42531  33.341  39.340   0.839
75991W        W42532  30.621  38.167  11.996
75992W        W42533   0.533  21.489   1.863
75993W        W42534  35.911  20.175  11.193
75994W        W42535  27.001  29.757  14.770
75995W        W42536  31.563  12.274  13.134
75996W        W42537  11.126  24.984   1.942
75997W        W42538  31.591   9.233   2.371
75998W        W42539  32.923   8.166   4.212
75999W        W42540  37.372  11.839   3.076
76000W        W42541  28.854  19.046   2.944
76001W        W42542   1.296  32.017  13.331
76002W        W42543  17.652  42.468  11.886
76003W        W42544   3.233   4.816  12.606
76004W        W42545  19.622  21.984   3.360
76005W        W42546  22.699   3.417  12.560
76006W        W42547  23.044   3.938   1.538
76007W        W42548  40.722   4.430   5.004
76008W        W42549   8.644  32.093  12.061
76009W        W42550  44.478   4.843   2.865
76010W        W42551  30.512  37.137  13.359
76011W        W42552  40.152   0.982   0.947
76012W        W42553  21.916  32.696   1.351
76013W        W42554  11.435  42.418  14.264
76014W        W42555  41.477   4.294  11.664
76015W        W42556   4.715  21.955   3.127
76016W        W42557  26.678   2.315   3.319
76017W        W42558  42.946  32.315  10.009
76018W        W42559   6.365  15.040  14.824
76019W        W42560  43.764  40.264   3.555
76020W        W42561  18.601  10.603   3.615
76021W        W42562  28.145   5.171  12.513
76022W        W42563  21.142  11.736  14.622
76023W        W42564   1.672  35.938  14.475
76024W        W42565  13.132  43.041  12.078
76025W        W42566   8.345  19.137   0.224
76026W        W42567  25.629  11.898  11.449
76027W        W42568  27.605   1.970   3.205
76028W        W42569  35.179   7.114   3.233
76029W        W42570   7.144  20.667  10.576
76030W        W42571  32.333  30.584  14.782
76031W        W42572  44.795  34.875   4.142
76032W        W42573   4.193  43.499  14.224
76033W        W42574  42.863  30.921   1.852
76034W        W42575  32.430  27.636   4.520
76035W        W42576  10.564  39.055   5.357
76036W        W42577  39.108  37.575  10.602
76037W        W42578  36.010  17.397   1.817
76038W        W42579  10.251  18.717   0.636
76039W        W42580  24.197  40.886   4.126
76040W        W42581   8.260  22.781   4.457
76041W        W42582  13.707  19.587   4.311
76042W        W42583  30.875  41.978  13.122
76043W        W42584  24.622   6.345   0.442
76044W        W42585  24.994  25.142  13.414
76045W        W42586  13.557   3.359  14.508
76046W        W42587   6.066  30.706   0.364
76047W        W42588  28.599  27.005  12.580
76048W        W42589  29.328  32.070  10.315
76049W        W42590  39.312  15.237   0.379
76050W        W42591  23.711   8.395   3.844
76051W        W42592  24.058   2.139   1.923
76052W        W42593  16.843  23.107  13.972
76053W        W42594  30.369  21.554   3.765
76054W        W42595  14.747   2.771   2.412
76055W        W42596  18.301   8.740   2.799
76056W        W42597  13.625  34.573   2.781
76057W        W42598   1.302  16.552   1.909
76058W        W42599   1.058  20.589   2.390
76059W        W42600  12.363  37.027  11.242
76060W        W42601  42.001  43.725  13.881
76061W        W42602  22.175  30.324  12.160
76062W        W42603  35.117  11.677  10.704
76063W        W42604   5.724  27.184  12.935
76064W        W42605   3.731  38.882   2.788
76065W        W42606   7.635  43.838  14.031
76066W        W42607  21.623  28.475  11.627
76067W        W42608  29.448   9.299   4.692
76068W        W42609  18.290  23.497  10.722
76069W        W42610  37.589  17.688   4.022
76070W        W42611   9.492  19.619  12.865
76071W        W42612   4.244  31.179  13.401
76072W        W42613  13.690   2.251  11.100
76073W        W42614  39.326  27.018   3.807
76074W        W42615  30.537  40.621   1.475
76075W        W42616  14.156  34.801  13.974
76076W        W42617   1.984  26.449   1.089
76077W        W42618   9.990  35.050  11.636
76078W        W42619   1.976  31.469  10.689
76079W        W42620   4.472  44.546   1.909
76080W        W42621   6.234   7.669  10.489
76081W        W42622  38.453   9.686  11.444
76082W        W42623   3.431  23.143   0.512
76083W        W42624  19.734  42.084  11.094
76084W        W42625  19.702  39.974   0.844
76085W        W42626  44.019  24.544  12.969
76086W        W42627  38.255   5.923   0.160
76087W        W42628  13.527   6.285   4.865
76088W        W42629  44.520  20.694  11.557
76089W        W42630  42.910  22.179   4.565
76090W        W42631  36.227  20.189  12.555
76091W        W42632  27.129   2.344   0.970
76092W        W42633  17.845  24.604  14.386
76093W        W42634  17.008   8.198  12.945
76094W        W42635  34.848   8.596  13.526
76095W        W42636  28.965  44.474  14.319
76096W        W42637  16.396  30.918   2.325
76097W        W42638  27.117  37.815   3.116
76098W        W42639  14.327  21.505  12.469
76099W        W42640  13.215   0.408  14.753
76100W        W42641   3.812  22.925   5.049
76101W        W42642  39.400  21.202  14.372
76102W        W42643   2.461  29.033  13.465
76103W        W42644  10.290  27.057   2.915
76104W        W42645  38.331   5.241   2.751
76105W        W42646  18.793  11.887  12.787
76106W        W42647  17.723  18.134   0.834
76107W        W42648  25.762  16.279  10.647
76108W        W42649   3.287   4.513   0.427
76109W        W42650  17.724  15.506   2.770
76110W        W42651  12.283  23.425   1.858
76111W        W42652   4.247  34.261   2.996
76112W        W42653   2.986  35.496  11.895
76113W        W42654   6.994  23.589  14.014
76114W        W42655  27.886  15.487  14.955
76115W        W42656  32.552  25.228   4.596
76116W        W42657  41.532  18.733  12.105
76117W        W42658   0.793  39.556  14.836
76118W        W42659  40.334  35.094  13.812
76119W        W42660  39.066  27.080  14.412
76120W        W42661  22.037  23.783   4.269
76121W        W42662   4.277  36.886  10.794
76122W        W42663   2.229  43.187   1.470
76123W        W42664  13.150  13.611   0.049
76124W        W42665  25.198   2.749  14.412
76125W        W42666  12.200  16.374  12.160
76126W        W42667   9.727  27.550  11.195
76127W        W42668   8.846  11.435  13.413
76128W        W42669   4.948  26.602   2.200
76129W        W42670   8.712  19.959   1.266
76130W        W42671  16.197   3.054   1.666
76131W        W42672  27.646  40.701   3.925
76132W        W42673   3.872  21.024   1.368
76133W        W42674  40.888   9.636  11.416
76134W        W42675  40.067  25.605   4.008
76135W        W42676   1.449  34.050   0.171
76136W        W42677  16.093  37.011  11.736
76137W        W42678  22.610  43.863   4.020
76138W        W42679  22.186   4.887  12.475
76139W        W42680  10.319   1.760  12.019
76140W        W42681  20.936  10.623   4.153
76141W        W42682   0.172  19.681   4.700
76142W        W42683   6.251  36.103  12.429
76143W        W42684  32.567  26.193   0.415
76144W        W42685   5.285  19.593  13.488
76145W        W42686  23.570   3.402   1.027
76146W        W42687  37.866  34.942   3.270
76147W        W42688  23.716  10.982   1.127
76148W        W42689  35.505  24.590   1.137
76149W        W42690  34.673  13.847  12.529
76150W        W42691  41.668  22.185  13.457
76151W        W42692  10.835  14.586  12.820
76152W        W42693  16.639  13.639  10.507
76153W        W42694   7.691   7.403   3.893
76154W        W42695  23.170   9.961   4.538
76155W        W42696  44.145  23.041  11.768
76156W        W42697  27.569  26.048   0.433
76157W        W42698  32.174  32.993  11.004
76158W        W42699  15.863  18.808  11.156
76159W        W42700  38.880  10.754   2.332
76160W        W42701  15.159   1.325  13.768
76161W        W42702  19.456  42.907   2.182
76162W        W42703   2.737   2.148  11.799
76163W        W42704   4.385   5.264   4.137
76164W        W42705  37.659  37.982   1.706
76165W        W42706   2.860  30.119  12.447
76166W        W42707   6.740  33.101  11.594
76167W        W42708   6.246  31.842  14.005
76168W        W42709   8.760  17.823  14.191
76169W        W42710  23.970  11.707   2.241
76170W        W42711  24.066  38.896   3.431
76171W        W42712  17.190  31.006   1.918
76172W        W42713   3.492  31.086   0.788
76173W        W42714  24.009   6.903  14.927
76174W        W42715   9.955  11.027   2.686
76175W        W42716  18.859  16.933  11.968
76176W        W42717  32.483  24.742   3.097
76177W        W42718   0.301  43.027  13.057
76178W        W42719  34.930  41.320  10.698
76179W        W42720  17.906  12.791  11.039
76180W        W42721  38.514   4.956   0.435
76181W        W42722  33.942  17.309   4.958
76182W        W42723  41.440  27.056   0.907
76183W        W42724   4.709  21.204  14.434
76184W        W42725  11.761  31.560  14.082
76185W        W42726  32.989  31.640   4.644
76186W        W42727  27.904  17.080   0.858
76187W        W42728  39.845  39.351   2.558
76188W        W42729  28.556  28.892   0.718
76189W        W42730   8.589  40.803   3.391
76190W        W42731  13.617  36.539   2.368
76191W        W42732  11.833  13.931   0.351
76192W        W42733  20.796  11.122   2.812
76193W        W42734   8.802  37.940  10.262
76194W        W42735  32.377  26.686  13.416
76195W        W42736  29.496  43.527  11.937
76196W        W42737  24.387  11.510  13.580
76197W        W42738  35.936  37.498  11.743
76198W        W42739  29.036  42.500  13.154
76199W        W42740  37.950  36.833  13.117
76200W        W42741   6.389  40.004  13.593
76201W        W42742   0.881  36.555   0.649
76202W        W42743  16.093   6.237  14.941
76203W        W42744  38.048  23.081  10.495
76204W        W42745  43.461  17.598   3.706
76205W        W42746  18.593  17.199   2.699
76206W        W42747  10.986  13.091   3.713
76207W        W42748   7.714   8.012  12.015
76208W        W42749   5.383  26.806   1.007
76209W        W42750  29.157  37.651   5.007
76210W        W42751  27.183  12.349   3.292
76211W        W42752  13.828   6.713   4.796
76212W        W42753  17.264  36.011  11.948
76213W        W42754  43.413  31.477  11.530
76214W        W42755   4.806  42.193   2.267
76215W        W42756  29.027   3.941   4.519
76216W        W42757  32.114  19.009  11.589
76217W        W42758  26.948  23.610   3.269
76218W        W42759  40.455  32.063   0.939
76219W        W42760  44.249  17.570  12.872
76220W        W42761  30.103  25.738  13.558
76221W        W42762  36.887  17.701  12.970
76222W        W42763  15.168   3.965   2.260
76223W        W42764  17.308  12.764   4.099
76224W        W42765   2.512  33.561   1.050
76225W        W42766  12.581  36.316   0.881
76226W        W42767   9.676   0.631   0.956
76227W        W42768  18.774  41.862  10.806
76228W        W42769   5.643  23.221  11.860
76229W        W42770   6.192  41.055  10.649
76230W        W42771  12.289  23.956  11.824
76231W        W42772  21.741  10.215  11.150
76232W        W42773  34.609  10.384   3.348
76233W        W42774   9.297  19.664   3.538
76234W        W42775  35.118  43.892   3.291
76235W        W42776  40.230  37.051   1.249
76236W        W42777  15.231  23.270   2.433
76237W        W42778  17.324  26.383   2.723
76238W        W42779   9.973  38.476  10.702
76239W        W42780   8.249  13.167  12.389
76240W        W42781   9.170  19.716   1.174
76241W        W42782   9.142  43.658   2.221
76242W        W42783  20.307  14.327   1.415
76243W        W42784  44.579  26.199   3.159
76244W        W42785  11.567  19.920   3.142
76245W        W42786  42.200  31.149   4.098
76246W        W42787   3.689   3.451   3.253
76247W        W42788  16.038  19.818  12.564
76248W        W42789   1.456  31.129   2.369
76249W        W42790  41.236  35.096  11.987
76250W        W42791  23.016   5.494  14.942
76251W        W42792  42.553   7.696  14.745
76252W        W42793  34.951  30.401  13.277
76253W        W42794  37.822  32.128   3.075
76254W        W42795  27.713  23.658  12.037
76255W        W42796  31.121  11.847   2.720
76256W        W42797   7.693  31.822   0.502
76257W        W42798  17.800  13.281   0.702
76258W        W42799   3.187  12.258  11.167
76259W        W42800  26.945  29.038  12.512
76260W        W42801  18.169  18.208   0.441
76261W        W42802  32.879  40.525  12.492
76262W        W42803  39.394  18.903   1.808
76263W        W42804  27.561  11.467  10.652
76264W        W42805  26.939  44.462  10.939
76265W        W42806  35.474  40.228   3.239
76266W        W42807  14.808  20.029   4.619
76267W        W42808  31.144  22.570   3.257
76268W        W42809  37.084   4.908   0.494
76269W        W42810  21.559  24.943   3.764
76270W        W42811  13.054  36.275  14.924
76271W        W42812   5.865  40.144  14.968
76272W        W42813  39.886  37.628  12.995
76273W        W42814  12.165   5.942  14.108
76274W        W42815  36.615  19.753  12.004
76275W        W42816  13.451  44.425  10.781
76276W        W42817  26.613  17.193   5.016
76277W        W42818   9.881  26.122   2.173
76278W        W42819  24.916   4.181   2.386
76279W        W42820  34.362  35.066  11.437
76280W        W42821   7.127  28.109  13.984
76281W        W42822  26.998  22.785   1.466
76282W        W42823  39.558   3.056  13.350
76283W        W42824  42.853  18.073   1.332
76284W        W42825  34.526   5.630  13.992
76285W        W42826   7.777  44.402   2.674
76286W        W42827  39.834   9.387   1.829
76287W        W42828   2.907  15.730  10.150
76288W        W42829  17.165   9.670  10.653
76289W        W42830  24.098  38.677  12.073
76290W        W42831   6.630   5.927  12.794
76291W        W42832  36.863   1.224  10.728
76292W        W42833  31.487  23.998  12.155
76293W        W42834  31.271  16.503   0.850
76294W        W42835  40.145  26.679   3.717
76295W        W42836  17.530  11.483  11.809
76296W        W42837   3.363  26.231  13.128
76297W        W42838  17.275  32.602  12.155
76298W        W42839  44.279   7.933  12.390
76299W        W42840  20.917  30.660  12.611
76300W        W42841  38.942  20.037   2.446
76301W        W42842  15.131  31.981   4.582
76302W        W42843   3.385  12.417   2.916
76303W        W42844  34.369  41.764  14.778
76304W        W42845  26.454   3.315  13.861
76305W        W42846  38.816  38.630   0.703
76306W        W42847  31.601  39.086   0.282
76307W        W42848  15.284  36.564   4.768
76308W        W42849  23.386  38.510  12.192
76309W        W42850  24.239  35.907   1.713
76310W        W42851   0.373  27.604   1.196
76311W        W42852  35.128  27.093  11.512
76312W        W42853  33.912  33.374   3.664
76313W        W42854  25.048   7.140  12.795
76314W        W42855  34.234  43.900  13.864
76315W        W42856   2.766  43.940  11.970
76316W        W42857   7.783   0.255  13.858
76317W        W42858  42.411  39.899   1.858
76318W        W42859   2.737  31.374  12.853
76319W        W42860  44.545   7.175  10.463
76320W        W42861   9.945  32.651   2.234
76321W        W42862  16.358  19.077  13.880
76322W        W42863   2.849  23.716   2.249
76323W        W42864  43.485  13.218  11.586
76324W        W42865  16.258  38.239  14.223
76325W        W42866  11.665  12.334   0.312
76326W        W42867  32.252  28.979  14.895
76327W        W42868  16.246  36.137  11.554
76328W        W42869  26.076   0.863   4.411
76329W        W42870  14.073  41.613   3.254
76330W        W42871   1.726  42.892   4.644
76331W        W42872  26.873  21.702  11.164
76332W        W42873  20.777  36.984  13.929
76333W        W42874  24.743  33.905  10.954
76334W        W42875  33.567  42.230   3.871
76335W        W42876  43.019  19.076  14.748
76336W        W42877  41.756  30.491   3.717
76337W        W42878  20.854  31.003   5.062
76338W        W42879  18.720  23.514   2.183
76339W        W42880  12.998  38.567  10.927
76340W        W42881  16.568  17.888  12.632
76341W        W42882  15.677  13.574   4.632
76342W        W42883  11.307   9.835   2.654
76343W        W42884  35.364  24.554  14.293
76344W        W42885   1.788   6.396   0.866
76345W        W42886  18.757  30.938   3.535
76346W        W42887  15.748   2.929   3.641
76347W        W42888   1.924  36.661   2.894
76348W        W42889   3.721  20.572  12.929
76349W        W42890  41.823  40.436  14.968
76350W        W42891  20.350   7.651   1.353
76351W        W42892  26.207  38.014   1.226
76352W        W42893  33.080  24.374   0.458
76353W        W42894  13.681  33.112  13.004
76354W        W42895   1.068  25.713   2.715
76355W        W42896  20.153  11.289  12.493
76356W        W42897  15.788  35.644   4.198
76357W        W42898   4.695  31.998   9.755
76358W        W42899  25.931  20.095  11.415
76359W        W42900  23.712  34.888  10.917
76360W        W42901   7.089  17.760  11.663
76361W        W42902  34.840  20.065   2.958
76362W        W42903   0.723  25.586   1.677
76363W        W42904  31.082  30.157  10.675
76364W        W42905  36.581  39.773  14.371
76365W        W42906  25.552   0.524  10.331
76366W        W42907  43.552  31.472  14.256
76367W        W42908   0.135  41.588   0.397
76368W        W42909  38.589   5.716   3.205
76369W        W42910  13.110  18.755  12.003
76370W        W42911   3.976  39.289  14.896
76371W        W42912  44.090  25.895   1.872
76372W        W42913   1.765  33.907   1.342
76373W        W42914   3.813  41.838   4.924
76374W        W42915  33.468  20.098  13.118
76375W        W42916  32.617  36.907  14.413
76376W        W42917  26.523   7.870  12.171
76377W        W42918   2.147  13.132   0.816
76378W        W42919  23.297   5.791   2.600
76379W        W42920  32.150  43.334   1.788
76380W        W42921  13.693  13.226  14.651
76381W        W42922  38.847  40.325  10.733
76382W        W42923  29.973  34.455  14.186
76383W        W42924  30.636  42.819  13.514
76384W        W42925  12.744  36.287   4.602
76385W        W42926  42.280  39.097   2.252
76386W        W42927   6.039   4.369  11.490
76387W        W42928  42.396   3.003  11.633
76388W        W42929  34.879  22.787  14.049
76389W        W42930   3.549   6.119  12.531
76390W        W42931  34.411  20.323  11.154
76391W        W42932   0.660  18.184   4.817
76392W        W42933  12.176  16.324  13.528
76393W        W42934  14.705  20.121  13.860
76394W        W42935  41.303  31.017  13.453
76395W        W42936  18.028  20.252  12.517
76396W        W42937  35.845  36.319   1.830
76397W        W42938  38.184  10.314   4.026
76398W        W42939  35.669  28.176  11.561
76399W        W42940   4.118  42.264  13.491
76400W        W42941  33.540  20.076   1.497
76401W        W42942   1.494  44.329   2.752
76402W        W42943  24.931  28.977  14.106
76403W        W42944  16.702  38.519  14.393
76404W        W42945  28.229   2.309   3.619
76405W        W42946   5.321  38.125  12.182
76406W        W42947  34.581  22.634   0.371
76407W        W42948  13.685  24.539   2.211
76408W        W42949   4.669  14.188  11.185
76409W        W42950  17.820   3.967  11.296
76410W        W42951  43.172  18.284  11.403
76411W        W42952  43.036  22.160  10.601
76412W        W42953  31.704  23.252   0.022
76413W        W42954  38.792  24.095  14.316
76414W        W42955  26.257  13.677   2.775
76415W        W42956  11.694  21.759   3.305
76416W        W42957  27.024  11.127  11.464
76417W        W42958  21.540  31.086  13.012
76418W        W42959  20.930  42.229  10.669
76419W        W42960   4.372  30.996   1.751
76420W        W42961   6.305   0.157   1.927
76421W        W42962  37.880   5.615  10.722
76422W        W42963  24.749  20.208   3.364
76423W        W42964   5.648  39.354   0.499
76424W        W42965  41.368  37.513   1.249
76425W        W42966  22.997  36.928  14.523
76426W        W42967   4.977  32.034  12.968
76427W        W42968  37.560  18.816  11.677
76428W        W42969   5.149  42.396  12.323
76429W        W42970   1.461  43.447  10.733
76430W        W42971   5.168  42.886  12.951
76431W        W42972  35.433  24.685  13.355
76432W        W42973  34.574  31.567  14.804
76433W        W42974  11.163  40.472   2.802
76434W        W42975  13.336  15.756   0.812
76435W        W42976  34.210  21.249   2.008
76436W        W42977  35.883  38.535  13.173
76437W        W42978  11.564  34.535  13.496
76438W        W42979  29.130   8.884  11.088
76439W        W42980  23.523   4.777   1.178
76440W        W42981  13.463  39.300  12.217
76441W        W42982  20.074  16.967  12.906
76442W        W42983   3.751  11.726   4.698
76443W        W42984   4.882  17.334  14.416
76444W        W42985  36.995   3.973   0.738
76445W        W42986  25.145  22.577   0.279
76446W        W42987   8.714   8.212  14.147
76447W        W42988  14.109  42.048   0.111
76448W        W42989   8.327   3.856   3.209
76449W        W42990  38.023  36.905   3.307
76450W        W42991  38.860  40.571  13.458
76451W        W42992  18.180  22.601  12.005
76452W        W42993   7.551  39.266  13.454
76453W        W42994  41.119  24.194   3.752
76454W        W42995  36.441  22.554  14.844
76455W        W42996  19.898   9.373  12.481
76456W        W42997  36.778  42.888  10.978
76457W        W42998   9.831  12.341   2.288
76458W        W42999   7.191  38.592  12.896
76459W        W43000  11.312  41.794   2.524
76460W        W43001  41.631  19.624   4.579
76461W        W43002  38.033   0.708   1.431
76462W        W43003   7.513  25.033  14.636
76463W        W43004  15.124  28.322  13.407
76464W        W43005  26.488  17.153   4.510
76465W        W43006  15.467  33.503  11.686
76466W        W43007  30.661  21.826   2.828
76467W        W43008   0.835   9.216   4.638
76468W        W43009  22.078  21.052   3.154
76469W        W43010  23.621   5.942   0.983
76470W        W43011   5.353  42.115   4.860
76471W        W43012  35.996  13.730   0.392
76472W        W43013  40.427   0.696  14.437
76473W        W43014  26.712  27.657   0.896
76474W        W43015   7.297   0.424   1.853
76475W        W43016  39.471  21.184  10.899
76476W        W43017  18.738  30.485   4.770
76477W        W43018  25.089   8.567   3.311
76478W        W43019  35.735   1.390   0.360
76479W        W43020   6.819   2.200   1.347
76480W        W43021   8.349  31.959  10.514
76481W        W43022  17.997  32.441  14.064
76482W        W43023   4.756  32.164   4.686
76483W        W43024  20.673  19.250   2.798
76484W        W43025  32.204  27.608  11.179
76485W        W43026   8.912  14.046   0.363
76486W        W43027  13.756   2.789  10.602
76487W        W43028  33.540   8.079   0.762
76488W        W43029   7.541  13.660   4.406
76489W        W43030  10.977  32.385   0.873
76490W        W43031   0.078  21.848   2.794
76491W        W43032   0.742  27.498   3.728
76492W        W43033  16.046  33.696   3.665
76493W        W43034  37.897  37.283   5.231
76494W        W43035  25.476  27.179   4.048
76495W        W43036  33.305  11.779  12.138
76496W        W43037  43.019  33.473  12.225
76497W        W43038  11.706  29.089   4.911
76498W        W43039  44.315  28.533   2.260
76499W        W43040  38.508   1.877   3.815
76500W        W43041  38.536  20.240  13.861
76501W        W43042  22.927  28.315   3.302
76502W        W43043  14.884  41.448  10.729
76503W        W43044   4.834  24.408  10.883
76504W        W43045  34.451  42.808   4.187
76505W        W43046  17.184   7.094   3.408
76506W        W43047  24.894   0.497  14.780
76507W        W43048   4.123  39.388   3.887
76508W        W43049  16.284  17.234  14.321
76509W        W43050   5.737  35.548   3.018
76510W        W43051  41.450  31.693  14.251
76511W        W43052  27.446  43.904  13.909
76512W        W43053   4.847  38.610   5.584
76513W        W43054  35.222  44.599  12.285
76514W        W43055  25.727  36.888  13.213
76515W        W43056  34.400  41.064  13.430
76516W        W43057  11.756  17.233   0.209
76517W        W43058   7.935  10.663  12.555
76518W        W43059  22.701  23.672   1.530
76519W        W43060  41.815   9.990  12.167
76520W        W43061  26.491  34.831  14.351
76521W        W43062  26.686  30.085   4.682
76522W        W43063   4.043   0.724   0.429
76523W        W43064  25.770  31.459   0.357
76524W        W43065   9.551  27.279  11.572
76525W        W43066  32.158  11.601   1.764
76526W        W43067  44.937  28.825  12.470
76527W        W43068  13.126  16.032  13.304
76528W        W43069  32.655  16.206   2.236
76529W        W43070   4.042  15.604   0.875
76530W        W43071  43.737  25.646   2.169
76531W        W43072  23.030  26.620  13.028
76532W        W43073  42.876   5.528   3.047
76533W        W43074  41.541  29.661  13.685
76534W        W43075  43.283  39.041   0.354
76535W        W43076   9.746  24.658   0.200
76536W        W43077  22.710  42.313   2.297
76537W        W43078  25.698  39.130   2.029
76538W        W43079   6.198  36.447  13.618
76539W        W43080  12.089  18.454  10.565
76540W        W43081   1.968  10.297  10.310
76541W        W43082  27.468  17.545  11.546
76542W        W43083  26.108  13.436   4.595
76543W        W43084  16.186  16.372  13.334
76544W        W43085  36.389  44.917   3.254
76545W        W43086  24.911   3.819   0.363
76546W        W43087  36.501   1.694  13.804
76547W        W43088  10.863   0.967  14.577
76548W        W43089  33.628   7.263  12.581
76549W        W43090   8.357   9.450   1.738
76550W        W43091  41.040   1.759  14.884
76551W        W43092  34.589   8.249  12.486
76552W        W43093  14.205  13.311   3.750
76553W        W43094  12.273  35.471  10.704
76554W        W43095  44.696  23.985   0.576
76555W        W43096   2.306   6.217   1.142
76556W        W43097  43.404  28.693   0.713
76557W        W43098  22.045  37.975  14.824
76558W        W43099  31.006  10.864   1.054
76559W        W43100  15.678   3.834  11.621
76560W        W43101  39.710  13.395   1.673
76561W        W43102  10.798   6.241  10.740
76562W        W43103  19.819  17.667  14.444
76563W        W43104  27.412   8.470  12.954
76564W        W43105  33.284  10.806   1.391
76565W        W43106  22.511  40.344  12.882
76566W        W43107  20.053   8.042  10.306
76567W        W43108  15.184  11.460  10.564
76568W        W43109  28.935  27.468   2.253
76569W        W43110  43.822  25.124  13.593
76570W        W43111  39.461  11.290  10.219
76571W        W43112  19.018   0.772  12.802
76572W        W43113  39.542  22.591   1.950
76573W        W43114  24.532  35.088   1.349
76574W        W43115  29.423  14.422  10.712
76575W        W43116  17.066   6.392  12.614
76576W        W43117  20.948  41.634  10.855
76577W        W43118  38.817  44.363  10.473
76578W        W43119  21.467   6.748   3.397
76579W        W43120  16.786  22.665  14.339
76580W        W43121  15.082  26.578  12.527
76581W        W43122  44.980  22.579  14.514
76582W        W43123   9.184  33.729  12.399
76583W        W43124   2.447  18.496  12.943
76584W        W43125  21.982  13.452  13.450
76585W        W43126  18.415  26.155  11.204
76586W        W43127   6.471   8.744   0.850
76587W        W43128   7.369  11.381   3.873
76588W        W43129  26.012  21.678  12.530
76589W        W43130  38.894  44.987  14.292
76590W        W43131  39.614  29.107  12.410
76591W        W43132  19.278  27.473  11.504
76592W        W43133  12.136  19.221   4.030
76593W        W43134  34.163  40.409   2.162
76594W        W43135   9.452  35.933  10.336
76595W        W43136  35.238  32.050  13.234
76596W        W43137   0.175  21.749   4.530
76597W        W43138  15.490  44.599   4.205
76598W        W43139  37.836  25.181  11.597
76599W        W43140  23.447  42.678  12.010
76600W        W43141  11.824  19.106   0.517
76601W        W43142  42.969  38.105   1.683
76602W        W43143  13.001  32.127   4.112
76603W        W43144   7.611  26.097   1.434
76604W        W43145  20.277  32.994  11.607
76605W        W43146  14.593  29.029   1.911
76606W        W43147  10.716  26.600  11.284
76607W        W43148  30.088  25.783  10.334
76608W        W43149  19.268  16.689   0.789
76609W        W43150  41.968   9.438  13.544
76610W        W43151  39.326   3.280  12.951
76611W        W43152  29.594  11.660  10.803
76612W        W43153  25.460  31.229   2.177
76613W        W43154  12.850  29.877  11.928
76614W        W43155  14.237  42.373   4.807
76615W        W43156  11.603   5.206   3.276
76616W        W43157  25.470   1.837   4.004
76617W        W43158  27.045  16.130   4.069
76618W        W43159  12.363  44.398  10.741
76619W        W43160  23.526  39.045   2.769
76620W        W43161  41.567  34.052   2.103
76621W        W43162  12.742  37.377  10.452
76622W        W43163  38.918  34.817   0.685
76623W        W43164  26.090  41.834   4.550
76624W        W43165  32.025  14.865  14.464
76625W        W43166  43.923  36.163  12.681
76626W        W43167  43.720  39.390   0.356
76627W        W43168   2.225   3.530  13.137
76628W        W43169   5.196  21.740   3.192
76629W        W43170   9.110  36.043  14.927
76630W        W43171  42.040   8.322  12.827
76631W        W43172  39.172  17.664  12.840
76632W        W43173  25.529  16.767  12.360
76633W        W43174   1.777  28.530  12.804
76634W        W43175  24.257  43.804  12.794
76635W        W43176  27.912  44.364  14.541
76636W        W43177  23.309  30.966   3.289
76637W        W43178   2.362  16.004   0.624
76638W        W43179  27.877   6.499  12.122
76639W        W43180  29.643  22.503   3.402
76640W        W43181  44.743  12.886  11.428
76641W        W43182  40.625   9.120  14.283
76642W        W43183   2.808  22.731   1.359
76643W        W43184  10.587  39.275  14.493
76644W        W43185  28.337   5.993   3.755
76645W        W43186  14.332  20.952   1.230
76646W        W43187  18.293   3.715  11.063
76647W        W43188  41.457  18.515  13.531
76648W        W43189  38.506   0.963  13.364
76649W        W43190  29.964  29.716  11.691
76650W        W43191  36.972  10.896   1.613
76651W        W43192  17.678  16.153  13.032
76652W        W43193  24.739  31.717   0.386
76653W        W43194  10.566  12.361  11.603
76654W        W43195  13.290  14.776  11.618
76655W        W43196  29.419  22.582  12.880
76656W        W43197  13.828  14.786  13.774
76657W        W43198   9.932  27.727  13.530
76658W        W43199  18.180  23.572   2.146
76659W        W43200  20.788  19.932   1.524
76660W        W43201  42.068   0.962   3.679
76661W        W43202   8.240  29.060  12.080
76662W        W43203   5.931  13.589  11.067
76663W        W43204  30.888  11.528   4.104
76664W        W43205  38.375   6.822  12.579
76665W        W43206  37.498  10.864  11.233
76666W        W43207  20.088   9.156  12.043
76667W        W43208  41.861   1.891  11.654
76668W        W43209  32.962  44.371  12.087
76669W        W43210  10.608   9.487   2.359
76670W        W43211   7.467  31.654   1.812
76671W        W43212  26.254  22.708  11.622
76672W        W43213  32.272  20.283   1.841
76673W        W43214  33.647  24.215   2.264
76674W        W43215  34.350  23.583   3.092
76675W        W43216  18.488  18.036  14.277
76676W        W43217  19.315  36.469  13.432
76677W        W43218  33.962  21.601   4.303
76678W        W43219   4.209  42.934   4.534
76679W        W43220   8.645  21.165   0.794
76680W        W43221  35.638  16.605  12.348
76681W        W43222  30.044   5.076   3.663
76682W        W43223  37.854  16.035  12.944
76683W        W43224  14.822  27.639  11.944
76684W        W43225  36.917  39.102   1.173
76685W        W43226   4.181  12.175  14.477
76686W        W43227   2.258  15.437   4.807
76687W        W43228  11.451  26.503   5.008
76688W        W43229  20.519  33.461  11.651
76689W        W43230   4.018  29.661  11.049
76690W        W43231  31.601  27.547  14.734
76691W        W43232  20.327  23.721  12.880
76692W        W43233   1.764  18.621   2.222
76693W        W43234   6.721  33.130   2.857
76694W        W43235   0.539  37.405  14.191
76695W        W43236  37.162  13.859   5.013
76696W        W43237  28.478   9.614  14.771
76697W        W43238  18.688  26.685   9.972
76698W        W43239  18.231  13.824   3.668
76699W        W43240  19.473  40.372   3.189
76700W        W43241  42.901  32.290   2.887
76701W        W43242  12.883  24.985  12.445
76702W        W43243  34.791  31.475   1.841
76703W        W43244  12.379  29.481  14.837
76704W        W43245  36.802  11.814   3.714
76705W        W43246  39.875   8.301  11.465
76706W        W43247  14.196  41.332  11.360
76707W        W43248  13.340  42.345  14.390
76708W        W43249  27.418  20.804   0.038
76709W        W43250  40.228  41.079   0.335
76710W        W43251  28.588  12.784   3.296
76711W        W43252  30.522  42.615  11.675
76712W        W43253  37.913  12.871  10.759
76713W        W43254   4.735  44.836  10.992
76714W        W43255  10.704  12.853  13.272
76715W        W43256  15.793  16.189  12.608
76716W        W43257  35.462   4.155   0.673
76717W        W43258  43.114  15.019   0.872
76718W        W43259  38.899  10.059   1.696
76719W        W43260  27.605   8.732   3.124
76720W        W43261  34.757   6.326  10.586
76721W        W43262  29.727  17.463  11.498
76722W        W43263  20.797  44.425  10.501
76723W        W43264   6.495  26.584  14.422
76724W        W43265  38.919  31.703   0.815
76725W        W43266   2.089  17.682  10.850
76726W        W43267  19.587  37.027   3.147
76727W        W43268   3.261  11.189  14.356
76728W        W43269  13.136  12.072  10.064
76729W        W43270  21.263   4.746  12.538
76730W        W43271  33.663   6.902  11.659
76731W        W43272  16.035  31.632  14.777
76732W        W43273  40.916  33.596  13.249
76733W        W43274   2.836  40.309   2.869
76734W        W43275  25.721  39.490   4.205
76735W        W43276  44.076  16.279  13.069
76736W        W43277  36.254  19.242   3.683
76737W        W43278  33.120   1.211   4.272
76738W        W43279   9.009  14.144   1.304
76739W        W43280  22.573   7.677  14.768
76740W        W43281  39.987  37.313   4.848
76741W        W43282  27.410  40.992   1.860
76742W        W43283  20.359   3.354  13.933
76743W        W43284  29.188  38.455  12.528
76744W        W43285   3.496  18.502   2.389
76745W        W43286  22.909  15.827  13.005
76746W        W43287  23.528   4.270  10.742
76747W        W43288  27.213   9.412  13.065
76748W        W43289  26.088   4.452   0.271
76749W        W43290  30.781  32.116   0.008
76750W        W43291  12.684  10.397  14.449
76751W        W43292   4.215   8.434   4.547
76752W        W43293  14.212   8.005  10.741
76753W        W43294  40.978  43.125  14.527
76754W        W43295   0.469  25.633  11.634
76755W        W43296  29.460  35.664  11.662
76756W        W43297  17.232  16.701  11.292
76757W        W43298   7.274   7.112  10.463
76758W        W43299  43.941  16.745   1.219
76759W        W43300  10.200  39.027  12.991
76760W        W43301   0.516   6.930  10.581
76761W        W43302   1.021  40.615   1.955
76762W        W43303  14.526   8.778   4.504
76763W        W43304  38.925  14.087   3.252
76764W        W43305  25.948  24.157   2.255
76765W        W43306   7.127  28.988   2.713
76766W        W43307  15.622   6.812   0.797
76767W        W43308  23.767  35.456   0.537
76768W        W43309  15.617   9.230  12.834
76769W        W43310  27.473  17.477  12.545
76770W        W43311  30.104  18.462  11.133
76771W        W43312   7.641   9.394  13.399
76772W        W43313  15.624  26.200   5.094
76773W        W43314   4.982  44.773  13.829
76774W        W43315   1.012   4.709  10.608
76775W        W43316  24.138   3.055  12.624
76776W        W43317  10.090   3.082  11.454
76777W        W43318  10.409  16.018   1.717
76778W        W43319  21.284  25.054   0.994
76779W        W43320  31.188   2.209   4.127
76780W        W43321   0.975  10.645  13.450
76781W        W43322  18.892  31.196  11.530
76782W        W43323  44.571  39.605   0.983
76783W        W43324  21.568  31.813  14.141
76784W        W43325  22.972  14.586  12.991
76785W        W43326  19.259   2.081   3.361
76786W        W43327   0.958  23.866  10.117
76787W        W43328  37.636   0.822  12.979
76788W        W43329   3.782  43.044   0.708
76789W        W43330  34.510   6.521  12.469
76790W        W43331  17.114   8.831  10.049
76791W        W43332  39.339  30.105  13.533
76792W        W43333  14.165  35.601   3.267
76793W        W43334  14.825  24.743   4.178
76794W        W43335  41.937   6.448  13.793
76795W        W43336  39.906  33.378  11.351
76796W        W43337  13.029  35.904   0.274
76797W        W43338  38.931  44.966   3.775
76798W        W43339  26.146  40.950  13.770
76799W        W43340   7.474  20.534   0.101
76800W        W43341  41.489  37.740   0.794
76801W        W43342  38.740  44.803  14.754
76802W        W43343   7.782  24.028  10.255
76803W        W43344  26.158   2.319  11.035
76804W        W43345  38.636  28.110   1.880
76805W        W43346  42.691  11.397   1.173
76806W        W43347  21.132  44.642  14.249
76807W        W43348  29.934  10.122  12.541
76808W        W43349  10.374   9.013   2.335
76809W        W43350   5.705   6.374  11.858
76810W        W43351  43.307   1.948  11.660
76811W        W43352  16.102  24.979   2.244
76812W        W43353   7.830   0.013  11.540
76813W        W43354  12.529  43.256   1.834
76814W        W43355   7.615   1.932   1.277
76815W        W43356  24.607   9.760   2.887
76816W        W43357  16.194  36.460   2.004
76817W        W43358  38.901  44.902  12.431
76818W        W43359  20.602  34.909  14.789
76819W        W43360  26.130  43.680  11.184
76820W        W43361   4.015  32.960  12.089
76821W        W43362   7.451  20.473  14.285
76822W        W43363  18.719  27.209  11.010
76823W        W43364  32.677  30.403   1.796
76824W        W43365  13.345  21.525  14.699
76825W        W43366  42.177  12.305   4.273
76826W        W43367   4.759  22.998   4.055
76827W        W43368   0.379  12.691   1.302
76828W        W43369  20.019  35.873  14.372
76829W        W43370  39.866   9.361  10.700
76830W        W43371   0.800  26.248  11.083
76831W        W43372  37.048  17.437  13.404
76832W        W43373   6.011  25.328   1.275
76833W        W43374  14.070   5.045   4.498
76834W        W43375  27.978  25.009   2.576
76835W        W43376  25.970   0.936  14.013
76836W        W43377  44.492  17.352   1.688
76837W        W43378  35.857  37.949  11.528
76838W        W43379  38.734  38.837   1.860
76839W        W43380   2.343  13.262  11.842
76840W        W43381  44.913   0.460  11.206
76841W        W43382   4.150  44.954   0.859
76842W        W43383  25.015  40.998  12.091
76843W        W43384   9.986  11.387  11.049
76844W        W43385  20.316   8.295   0.821
76845W        W43386  17.004   7.794  14.053
76846W        W43387  39.272  24.101   4.581
76847W        W43388   7.484  10.397   1.218
76848W        W43389  27.603  15.995  10.511
76849W        W43390  26.731  31.253  13.834
76850W        W43391   1.780  14.607  12.915
76851W        W43392   5.869  40.375  11.192
76852W        W43393  11.766   1.942   4.492
76853W        W43394  21.877  38.843   1.317
76854W        W43395  43.688   2.310  11.771
76855W        W43396  27.252  12.897   1.729
76856W        W43397  31.955  20.725   4.170
76857W        W43398  18.651  35.468   4.098
76858W        W43399  39.129   3.738  14.928
76859W        W43400  28.090   9.310  13.587
76860W        W43401  15.854   2.088  11.079
76861W        W43402  37.527   7.654  14.765
76862W        W43403  13.128  41.508   5.226
76863W        W43404  37.989  33.489  12.628
76864W        W43405   9.571   9.107  13.101
76865W        W43406  44.367  32.341   4.632
76866W        W43407  16.800  38.757   0.262
76867W        W43408   8.840   8.500  12.354
76868W        W43409  33.869   5.427   3.871
76869W        W43410  19.764  23.416   1.818
76870W        W43411  10.041  29.865   2.795
76871W        W43412   9.928   9.759   3.626
76872W        W43413  27.732  27.411   0.761
76873W        W43414  33.865  31.578   1.888
76874W        W43415  41.346  35.020  10.685
76875W        W43416   3.307  28.476   1.795
76876W        W43417  23.292   8.342  14.969
76877W        W43418  38.283  27.617   0.079
76878W        W43419  21.507  10.645  11.017
76879W        W43420  29.247  11.372   2.983
76880W        W43421  23.733  23.589  10.627
76881W        W43422  14.037  16.206  10.691
76882W        W43423  19.289  21.040   3.615
76883W        W43424  31.288  40.634   0.399
76884W        W43425  18.541   7.786  11.890
76885W        W43426  30.866   9.326   3.581
76886W        W43427  29.942  21.623  13.764
76887W        W43428   7.757  12.721  13.412
76888W        W43429  43.867  41.968  12.436
76889W        W43430  25.159   7.808   2.403
76890W        W43431   6.414  39.534   3.797
76891W        W43432   3.351  21.111   3.016
76892W        W43433  43.583  35.709  11.112
76893W        W43434   3.352  33.624   2.079
76894W        W43435  21.580   4.827   5.525
76895W        W43436  29.099  28.903  11.513
76896W        W43437  35.497  14.197   1.757
76897W        W43438  35.091  34.403   3.667
76898W        W43439  20.321  18.057  12.037
76899W        W43440  23.616  40.008  14.495
76900W        W43441  20.201  11.196   0.644
76901W        W43442  40.961  33.102  11.527
76902W        W43443  35.672  44.943   2.498
76903W        W43444  36.955  18.785  14.858
76904W        W43445  34.039  43.249  14.461
76905W        W43446  17.358  10.745   2.196
76906W        W43447  19.187   3.595   4.405
76907W        W43448  44.574  11.346   1.352
76908W        W43449  19.763  36.137   3.752
76909W        W43450  36.385  17.639   0.907
76910W        W43451  44.202  30.328   4.492
76911W        W43452  43.742  14.995   1.583
76912W        W43453  23.527  19.594  13.974
76913W        W43454  25.247  42.475   0.221
76914W        W43455  19.001  34.128   0.256
76915W        W43456  26.543   8.396   4.236
76916W        W43457  26.442  15.713  11.958
76917W        W43458  36.015  12.048  10.661
76918W        W43459  19.843  32.661  11.652
76919W        W43460  25.026  25.650  13.015
76920W        W43461  19.308  11.096  13.317
76921W        W43462   3.941  43.353  12.192
76922W        W43463   9.167  20.539  14.594
76923W        W43464  10.415  20.730  14.895
76924W        W43465   5.191  31.899  13.592
76925W        W43466  22.134   7.683  12.249
76926W        W43467  44.889   8.856  11.205
76927W        W43468  32.532  29.583   0.879
76928W        W43469  16.098   6.497   4.153
76929W        W43470   3.475  44.349  14.077
76930W        W43471   0.310  22.189  13.877
76931W        W43472  19.770  12.064   3.245
76932W        W43473   5.706  11.736  10.755
76933W        W43474  43.229  43.971  13.457
76934W        W43475  21.033   4.617  12.083
76935W        W43476  31.205  39.536  13.353
76936W        W43477  35.266  12.066  12.010
76937W        W43478   2.721  35.054  12.036
76938W        W43479  13.207  12.894  10.310
76939W        W43480  15.587  28.734   2.748
76940W        W43481  21.433  33.923   1.249
76941W        W43482  41.126  19.459   4.403
76942W        W43483  44.459  10.420   4.114
76943W        W43484  37.467  23.185   2.267
76944W        W43485  44.475  26.877  12.475
76945W        W43486  36.561   8.970  11.398
76946W        W43487  11.418   1.841   2.567
76947W        W43488  29.167  42.923  12.323
76948W        W43489  17.990   0.837  11.958
76949W        W43490  44.238  41.393  12.803
76950W        W43491  23.773   8.428   4.939
76951W        W43492  21.333   2.121  10.270
76952W        W43493   4.308  26.561   2.802
76953W        W43494   8.284  10.185   2.404
76954W        W43495  39.767  42.518  11.175
76955W        W43496  38.741  20.549  14.326
76956W        W43497  41.384  11.743   3.281
76957W        W43498   2.866  20.622  12.614
76958W        W43499   0.406  25.038  14.030
76959W        W43500  10.782   0.335  11.360
76960W        W43501  41.407  21.722   1.391
76961W        W43502  42.468  26.687   1.825
76962W        W43503   6.307  12.323  12.029
76963W        W43504  36.332  14.642  10.649
76964W        W43505  39.050  33.681  14.387
76965W        W43506  11.051  29.144  13.001
76966W        W43507  41.000  21.751   3.878
76967W        W43508  30.222  41.317   0.729
76968W        W43509   4.385  31.415  13.931
76969W        W43510  14.122  40.593   4.701
76970W        W43511  17.072  17.451   0.740
76971W        W43512  34.700  43.711   4.235
76972W        W43513  35.330  31.983   2.417
76973W        W43514  13.287  26.527  10.337
76974W        W43515   6.324  11.948   4.452
76975W        W43516  29.170  22.831   2.764
76976W        W43517  21.014  32.553  11.392
76977W        W43518  23.219  26.435   1.427
76978W        W43519  27.653  15.353  12.434
76979W        W43520   2.577  28.490  14.821
76980W        W43521  41.480  17.762  12.846
76981W        W43522  31.420   5.984   3.586
76982W        W43523  16.994   9.730  14.849
76983W        W43524   1.958  12.913   0.367
76984W        W43525  25.585  35.074   1.453
76985W        W43526  37.520  12.699   3.623
76986W        W43527  12.145   5.220  10.287
76987W        W43528   2.828  34.271  11.733
76988W        W43529  25.328   8.611  14.506
76989W        W43530  38.564  18.367  10.723
76990W        W43531  38.784  15.318  11.125
76991W        W43532  41.359  40.517   3.576
76992W        W43533  37.321  32.501   2.440
76993W        W43534  34.919  12.600  12.417
76994W        W43535   0.825  38.289  13.348
76995W        W43536  24.710  11.076   2.051
76996W        W43537  12.008  44.797   2.165
76997W        W43538   4.225  22.203   1.681
76998W        W43539  29.703   7.673  13.653
76999W        W43540   6.009  19.185   2.596
77000W        W43541  30.177  10.961  14.366
77001W        W43542   0.453  36.891  12.080
77002W        W43543  13.226  28.156  14.270
77003W        W43544  40.585  38.587  12.079
77004W        W43545  20.704   3.758   1.911
77005W        W43546   7.718  10.626  14.494
77006W        W43547  36.905  34.528  10.947
77007W        W43548  26.573  33.947   0.410
77008W        W43549  41.992  13.835  13.382
77009W        W43550   9.719  36.226   0.496
77010W        W43551   6.356  31.006   1.627
77011W        W43552  10.798   0.789   1.101
77012W        W43553  44.738   1.240   4.871
77013W        W43554   4.555   7.122   4.510
77014W        W43555  36.763  23.142  13.505
77015W        W43556  32.707   3.399   3.248
77016W        W43557  42.784  39.998  10.982
77017W        W43558  19.797   8.456   2.386
77018W        W43559  22.040  26.750  13.853
77019W        W43560   4.017  22.658  11.530
77020W        W43561  27.606  14.720  11.052
77021W        W43562   6.666  41.028  12.503
77022W        W43563  30.481  17.378  14.926
77023W        W43564  25.967  43.998   1.208
77024W        W43565   5.817  31.420  11.543
77025W        W43566  22.134  10.776  12.084
77026W        W43567  37.911  23.160   3.642
77027W        W43568  14.840  32.893  11.217
77028W        W43569  23.484  31.972  13.844
77029W        W43570  30.465  26.006  13.297
77030W        W43571  40.745  39.565  13.378
77031W        W43572   2.466  41.963  14.312
77032W        W43573  31.666  22.550   3.214
77033W        W43574  21.984  15.310   9.781
77034W        W43575  34.811  15.741  12.406
77035W        W43576  44.894   9.366  11.624
77036W        W43577  30.017  16.864  12.825
77037W        W43578  30.578  41.254   2.314
77038W        W43579  25.909  25.577   2.239
77039W        W43580  22.955  18.258  12.715
77040W        W43581  39.529  44.501   2.512
77041W        W43582  26.617  19.095   4.321
77042W        W43583  16.093  31.614  13.401
77043W        W43584  36.882  19.536   0.951
77044W        W43585   6.703  28.966   1.279
77045W        W43586  33.621  16.757   1.012
77046W        W43587  23.704  43.399   3.526
77047W        W43588  29.537  13.788  11.514
77048W        W43589  22.618  36.388  12.932
77049W        W43590  42.028   2.269   4.846
77050W        W43591  38.087  29.426  14.745
77051W        W43592  28.335  23.384   4.807
77052W        W43593   2.935  27.693   2.877
77053W        W43594  33.126  24.117   3.331
77054W        W43595  30.654  10.642  12.919
77055W        W43596  35.928  17.384   0.853
77056W        W43597   2.244   8.776  10.730
77057W        W43598  15.409  43.470   3.754
77058W        W43599   7.028  24.703   3.656
77059W        W43600  32.700  40.156   0.559
77060W        W43601  28.645  31.719   0.446
77061W        W43602  24.423   9.947  13.042
77062W        W43603  43.710  33.110  13.504
77063W        W43604  39.888   9.160  12.449
77064W        W43605  14.586   9.935   1.842
77065W        W43606  12.407  38.893   4.118
77066W        W43607   3.260   4.784   0.976
77067W        W43608  22.031  25.082   4.581
77068W        W43609  20.316  25.026  12.529
77069W        W43610  10.221  42.477   2.390
77070W        W43611  41.096  21.603  13.995
77071W        W43612  11.121   1.788   0.446
77072W        W43613   0.164  11.562  13.455
77073W        W43614  31.965  30.076  12.864
77074W        W43615  40.921  23.038  14.016
77075W        W43616  26.621  26.714  12.580
77076W        W43617  39.272   5.823   0.263
77077W        W43618  32.668  16.668   1.016
77078W        W43619   0.777  30.691  12.913
77079W        W43620   1.889  32.932  10.289
77080W        W43621  31.504  12.377  12.630
77081W        W43622   8.777  28.010  13.648
77082W        W43623  36.901   3.883  11.992
77083W        W43624   8.387  34.370  10.793
77084W        W43625  23.821  42.252  11.944
77085W        W43626  24.259  36.022   4.266
77086W        W43627  44.380  17.476   0.662
77087W        W43628  38.065  17.175   5.119
77088W        W43629  43.739  44.869   0.737
77089W        W43630  27.976   8.486   0.205
77090W        W43631  38.015  39.696  12.938
77091W        W43632  29.173  10.119  14.407
77092W        W43633   9.872   0.479   4.092
77093W        W43634  15.798   7.969  13.762
77094W        W43635  42.623  21.242  10.086
77095W        W43636  25.733  16.606  11.892
77096W        W43637  31.117  41.604   1.681
77097W        W43638  29.665  26.093  14.899
77098W        W43639  38.827  38.962   3.692
77099W        W43640  36.271  33.668  10.918
77100W        W43641   5.920  21.056  11.670
77101W        W43642  10.732  21.216   3.538
77102W        W43643   1.684  38.304  10.826
77103W        W43644  33.075   2.970   1.229
77104W        W43645   3.736  29.409  14.112
77105W        W43646   1.156  34.269  10.781
77106W        W43647  26.385  12.805   4.549
77107W        W43648  37.397  22.437  12.594
77108W        W43649   3.627  37.049   1.113
77109W        W43650  18.659  28.420   3.717
77110W        W43651  18.748  32.977  13.175
77111W        W43652  36.126  15.509   2.208
77112W        W43653   5.037  34.308  13.727
77113W        W43654  20.019   6.729  13.368
77114W        W43655  42.043  13.161   4.215
77115W        W43656  18.319   5.208  14.013
77116W        W43657  16.193  20.747  14.985
77117W        W43658  27.115  16.642   3.164
77118W        W43659  22.181  41.318   4.155
77119W        W43660  29.589  30.339   4.966
77120W        W43661   9.951  30.369   3.721
77121W        W43662  11.249   6.893  14.260
77122W        W43663  21.199  25.048   3.214
77123W        W43664  39.244  14.993   5.087
77124W        W43665   9.357  38.484  13.188
77125W        W43666  43.284  33.659   2.714
77126W        W43667  26.649  28.574  12.417
77127W        W43668   7.943   8.173  12.468
77128W        W43669  36.556   0.269   4.532
77129W        W43670  34.827  42.504  14.435
77130W        W43671   3.128  33.951  13.761
77131W        W43672  36.008   4.488  13.932
77132W        W43673  37.378   2.657   1.628
77133W        W43674  16.158  37.435   0.332
77134W        W43675  39.749  18.308   1.377
77135W        W43676  12.159  22.192   1.223
77136W        W43677  33.858  26.938  10.782
77137W        W43678  40.657  37.700   1.889
77138W        W43679  34.803  18.281  14.412
77139W        W43680   9.854   9.065  11.037
77140W        W43681  33.973  28.759  13.134
77141W        W43682  10.559  13.294   3.471
77142W        W43683  35.102  28.638  10.542
77143W        W43684  32.607  35.001  13.050
77144W        W43685   7.064  14.792  14.423
77145W        W43686  12.181  11.328   1.024
77146W        W43687  28.570   2.370   1.175
77147W        W43688  15.652  33.514   0.293
77148W        W43689  11.731  33.556   0.564
77149W        W43690  38.626  20.226  12.111
77150W        W43691  28.998  35.906  11.701
77151W        W43692  37.963   2.332   5.755
77152W        W43693   0.480  11.735  13.852
77153W        W43694   4.877  43.566  12.436
77154W        W43695  38.871   3.857  13.422
77155W        W43696   4.321  37.354   1.719
77156W        W43697  35.239  25.648   1.625
77157W        W43698  43.358  41.952  14.579
77158W        W43699   3.285  39.565  13.512
77159W        W43700  12.850  18.693   3.752
77160W        W43701   6.453   3.821  13.555
77161W        W43702  12.797  21.109   1.505
77162W        W43703  42.070  34.047  13.002
77163W        W43704  35.901  38.044  10.670
77164W        W43705   2.358  23.473  12.095
77165W        W43706  12.085  24.645  13.913
77166W        W43707  25.337  40.244   2.159
77167W        W43708  40.918   4.239   4.093
77168W        W43709  40.268  43.822  12.581
77169W        W43710  42.305  36.513  12.636
77170W        W43711  19.540  17.313   2.632
77171W        W43712  36.536   0.686   0.425
77172W        W43713  10.144   1.206   4.451
77173W        W43714  19.008   4.711  10.646
77174W        W43715  17.510   8.350  12.964
77175W        W43716   0.484  28.931   4.103
77176W        W43717  27.441  29.495   0.528
77177W        W43718  13.305  10.290  11.030
77178W        W43719  31.170   0.277  12.413
77179W        W43720   1.380  36.618  14.881
77180W        W43721  10.756  27.801  14.777
77181W        W43722   8.825  30.717  12.980
77182W        W43723  10.344  35.102  14.435
77183W        W43724  11.279  41.303   4.573
77184W        W43725  18.718  11.765  11.783
77185W        W43726  41.907  41.788   2.335
77186W        W43727  16.877  19.867   4.509
77187W        W43728  11.702  39.510   4.905
77188W        W43729  26.016  31.344  10.580
77189W        W43730  10.649  17.543   3.423
77190W        W43731  25.451  38.222   4.599
77191W        W43732   0.669  42.860   4.599
77192W        W43733  23.778   7.357   0.894
77193W        W43734  44.959   4.314   2.230
77194W        W43735   2.776  27.370  12.859
77195W        W43736  35.518  31.911  11.711
77196W        W43737  33.010  16.059  11.566
77197W        W43738  19.469  41.791   2.265
77198W        W43739   3.472  36.787  13.791
77199W        W43740   0.300  34.846  11.611
77200W        W43741  14.732  20.315  14.803
77201W        W43742  44.802  44.967  10.776
77202W        W43743  32.103   5.053   5.035
77203W        W43744  23.236   3.078  12.495
77204W        W43745  26.950  43.815   2.005
77205W        W43746  39.906   8.605   3.655
77206W        W43747  41.519  12.874   2.706
77207W        W43748  33.424  27.486   3.333
77208W        W43749   5.673   4.986  11.926
77209W        W43750   7.873  34.392  13.575
77210W        W43751  20.315  33.926  11.495
77211W        W43752  11.632  10.284  11.973
77212W        W43753  32.868  38.469  11.444
77213W        W43754  29.228  21.669  12.687
77214W        W43755   7.152  18.648  14.929
77215W        W43756  26.244   9.765   1.004
77216W        W43757  24.251   1.798   1.313
77217W        W43758  24.499  28.555   4.939
77218W        W43759  14.841  44.243   1.775
77219W        W43760  25.968   4.221  11.181
77220W        W43761  23.212  21.150  12.493
77221W        W43762   9.082   4.647   3.934
77222W        W43763  39.275   4.773  13.276
77223W        W43764   4.707  37.055  11.036
77224W        W43765  26.997   6.378  12.975
77225W        W43766  39.802  17.181  13.946
77226W        W43767  44.167  19.537  10.892
77227W        W43768  22.880   3.157  13.797
77228W        W43769  20.302  40.835   1.242
77229W        W43770   9.322  35.601  13.865
77230W        W43771   3.892   3.396   0.755
77231W        W43772  12.693  18.725   0.940
77232W        W43773  25.760  19.724  12.735
77233W        W43774  19.929  19.794   3.050
77234W        W43775  16.202  40.126  14.860
77235W        W43776  14.252   2.440   1.843
77236W        W43777  10.935  14.045  10.681
77237W        W43778   7.939   5.452  11.153
77238W        W43779   6.750   5.530   0.760
77239W        W43780  19.591  24.051  14.503
77240W        W43781  39.349  34.356   3.103
77241W        W43782   9.039   5.327  14.531
77242W        W43783  15.914  43.349  11.441
77243W        W43784  13.703  28.940  14.479
77244W        W43785  36.049  31.998  10.397
77245W        W43786   2.238  24.582  14.561
77246W        W43787   5.847  25.780   2.841
77247W        W43788  14.126  34.620  14.859
77248W        W43789  19.163  40.376   4.130
77249W        W43790  44.761  21.148   3.234
77250W        W43791   6.112  21.910   3.213
77251W        W43792  24.987   7.218   0.273
77252W        W43793   3.517  15.342  14.702
77253W        W43794   6.195  36.913  11.385
77254W        W43795   9.165  21.121  11.052
77255W        W43796  13.399   9.325   1.184
77256W        W43797  25.466  26.152   0.739
77257W        W43798  37.996   1.683   1.553
77258W        W43799  26.070  11.321  12.743
77259W        W43800  18.644  29.051  10.619
77260W        W43801  19.519  25.769   0.101
77261W        W43802  21.273  15.473   1.880
77262W        W43803   7.689  17.044  14.470
77263W        W43804   5.589  41.973  13.061
77264W        W43805  12.932  20.820  11.124
77265W        W43806  18.970   4.557  13.678
77266W        W43807  12.706   1.731  10.731
77267W        W43808  39.854  30.497  11.462
77268W        W43809  36.035  28.447   3.182
77269W        W43810  27.431  15.114   0.785
77270W        W43811  33.457   1.280   2.694
77271W        W43812  21.835  28.682  12.032
77272W        W43813  17.524  24.991  12.590
77273W        W43814   4.318  19.443   0.070
77274W        W43815  21.831   3.400  14.099
77275W        W43816  26.614  28.158   3.110
77276W        W43817   7.983   4.350   2.158
77277W        W43818   6.157  17.988   2.276
77278W        W43819  43.788  43.995  14.778
77279W        W43820  29.466  33.393   2.291
77280W        W43821  35.519  40.075   2.750
77281W        W43822  42.025  10.767   2.370
77282W        W43823  23.434  11.761   1.441
77283W        W43824  44.653  18.066  11.901
77284W        W43825  40.828   0.416  11.582
77285W        W43826  22.164   0.275   0.889
77286W        W43827  39.111   1.978   4.994
77287W        W43828  37.630  12.740   0.397
77288W        W43829  24.143  23.197  12.621
77289W        W43830  40.904  20.412  14.844
77290W        W43831  35.562  16.805   0.727
77291W        W43832  42.767  36.191  14.338
77292W        W43833  24.072  11.650   0.260
77293W        W43834  25.319  39.691   3.942
77294W        W43835  32.059  16.999   1.563
77295W        W43836  13.387  39.152  13.139
77296W        W43837  17.189   1.115   4.580
77297W        W43838  44.368  24.589  14.794
77298W        W43839   5.472  29.179  14.368
77299W        W43840  20.294   9.895   3.284
77300W        W43841  27.765  23.066   0.485
77301W        W43842  30.192  17.765   2.500
77302W        W43843   2.721  21.671  11.143
77303W        W43844  15.079  31.405   0.970
77304W        W43845  27.378  11.862   3.338
77305W        W43846  42.037  39.539   1.885
77306W        W43847  38.035   9.873   2.346
77307W        W43848  20.083  23.687   3.132
77308W        W43849  24.352  41.106   0.808
77309W        W43850  37.292  21.007   1.372
77310W        W43851  43.998  43.784   1.920
77311W        W43852  42.227  17.263   2.917
77312W        W43853  28.056   9.863   1.257
77313W        W43854  24.793   7.218  11.545
77314W        W43855  10.674  42.529   3.685
77315W        W43856  41.803  26.672  10.687
77316W        W43857  40.556  30.947   1.341
77317W        W43858  21.583  17.240   3.527
77318W        W43859  34.322   9.650   1.675
77319W        W43860  29.617  19.586   2.111
77320W        W43861  40.717  44.157  14.681
77321W        W43862  29.229  26.997  11.891
77322W        W43863  44.530  33.694   1.871
77323W        W43864  36.009  16.592   2.360
77324W        W43865   1.749  26.454  11.575
77325W        W43866  33.590   4.458   4.048
77326W        W43867   3.668   3.685  11.009
77327W        W43868  11.972  32.039  14.002
77328W        W43869  31.513  23.426  14.205
77329W        W43870  20.613  12.727   1.000
77330W        W43871   7.165  43.210   0.413
77331W        W43872  27.012  23.523  12.817
77332W        W43873   4.442  33.537   4.281
77333W        W43874  12.428  15.898  13.042
77334W        W43875  15.776  32.181   1.861
77335W        W43876  21.668   9.420  10.893
77336W        W43877   5.066   1.814  13.018
77337W        W43878   9.216  35.253   1.243
77338W        W43879  27.083  37.242  14.279
77339W        W43880  30.855  14.104   2.956
77340W        W43881  23.514  42.960   3.338
77341W        W43882  11.211   3.775  10.413
77342W        W43883  43.462   7.885  14.768
77343W        W43884   6.821  25.949  12.926
77344W        W43885  34.097  19.852   3.251
77345W        W43886   2.512  35.973  13.850
77346W        W43887   5.994   0.767  13.947
77347W        W43888   7.478  43.792  13.512
77348W        W43889  16.833  22.516  12.051
77349W        W43890  27.165  43.308   4.290
77350W        W43891  13.215  41.992   1.218
77351W        W43892   8.121   8.342   2.252
77352W        W43893  31.091  10.348  12.095
77353W        W43894  17.502  11.541  14.608
77354W        W43895  33.942  37.809  13.058
77355W        W43896  19.140  21.830   2.791
77356W        W43897  20.238   6.060  12.037
77357W        W43898  43.424   8.403   3.111
77358W        W43899  38.362  11.169   4.301
77359W        W43900  16.731   5.960   4.235
77360W        W43901  15.676   4.677  11.104
77361W        W43902  34.407   5.780  13.049
77362W        W43903  13.368  22.273   1.275
77363W        W43904  42.936  42.338   1.231
77364W        W43905  36.036  28.408   2.121
77365W        W43906   3.409   9.574  14.328
77366W        W43907  43.683  14.697   3.647
77367W        W43908   5.804  23.440   0.746
77368W        W43909  26.197   2.551   0.067
77369W        W43910  20.538  11.508  13.349
77370W        W43911   0.996  25.493  13.896
77371W        W43912  31.113  17.440   1.094
77372W        W43913  34.504  36.353   4.191
77373W        W43914  30.166   3.524  11.896
77374W        W43915  44.199   8.094   2.176
77375W        W43916  33.471  37.417   1.778
77376W        W43917  26.500  22.982  13.503
77377W        W43918  42.415  23.576   2.326
77378W        W43919   3.409  27.441  12.586
77379W        W43920   6.299   8.289   4.131
77380W        W43921  43.927   4.397  14.580
77381W        W43922   2.811   9.336  11.223
77382W        W43923   5.087   2.964   3.148
77383W        W43924  12.555   0.654  11.870
77384W        W43925  43.503  29.230   5.075
77385W        W43926  35.568   2.065   1.518
77386W        W43927  27.951  27.617  11.595
77387W        W43928  30.955  23.842  11.228
77388W        W43929  13.420   5.331  12.444
77389W        W43930  38.575   5.321  12.115
77390W        W43931  29.607  36.175   0.977
77391W        W43932  38.132  26.795   0.386
77392W        W43933  38.914   0.745   1.230
77393W        W43934  10.862   9.458   0.037
77394W        W43935   9.309  24.925   0.245
77395W        W43936   9.586  29.478  13.578
77396W        W43937  42.286  20.814   4.636
77397W        W43938  42.465  44.660   0.555
77398W        W43939   3.162   6.717  13.109
77399W        W43940  34.846  35.325  11.350
77400W        W43941  36.400  37.963  11.571
77401W        W43942  24.207   7.935   1.799
77402W        W43943  37.886  39.135   1.900
77403W        W43944  36.305   4.804   3.108
77404W        W43945  22.580  34.130  14.131
77405W        W43946   0.745  15.788  10.538
77406W        W43947  42.364  37.957   0.316
77407W        W43948  42.025  44.759  11.430
77408W        W43949  38.709  16.196   3.850
77409W        W43950  19.651  40.984  10.278
77410W        W43951  11.362  27.296  12.942
77411W        W43952   4.644   4.811   4.072
77412W        W43953  21.071  30.550   3.718
77413W        W43954  41.749  16.549  14.023
77414W        W43955  32.688   7.464  14.946
77415W        W43956  31.989  42.529  13.567
77416W        W43957   6.612  32.232   4.121
77417W        W43958   1.172  39.687   0.388
77418W        W43959  23.878  44.148  11.896
77419W        W43960  15.492   5.692   3.298
77420W        W43961  10.405  10.133  10.440
77421W        W43962  18.756  35.528  11.496
77422W        W43963  33.037   4.268   2.612
77423W        W43964  35.536  42.536  10.443
77424W        W43965  13.111  37.124   4.817
77425W        W43966   3.806  27.696  12.805
77426W        W43967  43.421  15.481  10.651
77427W        W43968  17.834  25.082   3.178
77428W        W43969  36.284  41.459  11.127
77429W        W43970  15.771  37.217  12.101
77430W        W43971  18.679  11.290  14.073
77431W        W43972  44.684  27.141   2.521
77432W        W43973  10.652  27.883  12.963
77433W        W43974  23.197  30.746  13.910
77434W        W43975  14.697   1.088   3.311
77435W        W43976  25.377  27.072  11.921
77436W        W43977  40.019  41.458   4.349
77437W        W43978  19.739  14.303   2.307
77438W        W43979   3.375   5.424   5.060
77439W        W43980  23.532  27.464   2.380
77440W        W43981   5.366  24.794   1.694
77441W        W43982  22.845  23.940  11.540
77442W        W43983   2.758  11.301  14.456
77443W        W43984  26.169  40.419   1.742
77444W        W43985  18.594  25.822  12.276
77445W        W43986  11.689  36.442   4.654
77446W        W43987  26.168  37.934   4.100
77447W        W43988   4.385  37.054   3.874
77448W        W43989  31.706   8.238   2.369
77449W        W43990  12.672  31.476   4.605
77450W        W43991  28.504  13.356   4.172
77451W        W43992  37.946  29.610   1.186
77452W        W43993  33.128   0.904  11.598
77453W        W43994  34.405  29.006   4.625
77454W        W43995   7.663  37.919   3.149
77455W        W43996  23.744   1.823  10.320
77456W        W43997   8.509  16.974   2.635
77457W        W43998  42.584  15.579   3.420
77458W        W43999   1.045  35.394  12.162
77459W        W44000  32.491  30.460   0.666
77460W        W44001  14.748  15.490   0.760
77461W        W44002  18.192  19.520  13.935
77462W        W44003  18.540  44.865   2.664
77463W        W44004  11.900  35.953  13.545
77464W        W44005  26.943  22.709  13.472
77465W        W44006  43.872  11.259  12.886
77466W        W44007   4.606   3.120   3.209
77467W        W44008  26.414   5.027  12.465
77468W        W44009  36.490  37.396   3.714
77469W        W44010  10.226  31.299  14.249
77470W        W44011  26.414  30.342  13.109
77471W        W44012   3.764  10.757   3.261
77472W        W44013   4.989  26.017  11.096
77473W        W44014  19.002  19.550  14.414
77474W        W44015   0.963  37.451  14.495
77475W        W44016  26.051  42.916  10.702
77476W        W44017  10.965  26.155  11.363
77477W        W44018  30.963  16.329   3.676
77478W        W44019  22.181  14.994   5.464
77479W        W44020  35.414  25.931   4.495
77480W        W44021   8.235  23.526  13.972
77481W        W44022  12.426  13.573   1.642
77482W        W44023  39.475  17.077  12.009
77483W        W44024  18.735   7.897  13.379
77484W        W44025  10.662  24.546  12.088
77485W        W44026   9.539  41.581  13.376
77486W        W44027   5.113   8.701  11.175
77487W        W44028   0.859   8.178  13.196
77488W        W44029  12.645  34.456  10.890
77489W        W44030  22.371   8.223   1.904
77490W        W44031  39.046  23.410   0.827
77491W        W44032  39.533  36.131   2.564
77492W        W44033  42.471  12.881  14.330
77493W        W44034   9.923   1.713   3.081
77494W        W44035  36.137  39.031   2.282
77495W        W44036   7.776  43.316   3.645
77496W        W44037  19.019  31.457  10.712
77497W        W44038  15.398  13.021   4.070
77498W        W44039  26.201  20.682  14.583
77499W        W44040   0.688  20.331   0.396
77500W        W44041   2.677  28.296   4.528
77501W        W44042  29.886  22.038  13.452
77502W        W44043  21.716  41.029   0.407
77503W        W44044  17.846  12.351  12.003
77504W        W44045  24.633  35.088   0.456
77505W        W44046  32.195  32.109   0.532
77506W        W44047  17.563  40.275  14.400
77507W        W44048   8.734  31.433   4.411
77508W        W44049   1.937  31.831   2.155
77509W        W44050   9.295  41.805   4.588
77510W        W44051   8.143  15.345  11.612
77511W        W44052   3.438  12.088   3.362
77512W        W44053  19.264   4.191  14.497
77513W        W44054  31.683  14.963   2.154
77514W        W44055  32.180   3.276  13.075
77515W        W44056  39.753  25.201   0.871
77516W        W44057  28.668  14.365  14.700
77517W        W44058  19.675  37.400   4.259
77518W        W44059  36.127  18.177   2.473
77519W        W44060  39.254  27.463   1.459
77520W        W44061  43.528   3.526  12.962
77521W        W44062   4.665  12.193   2.178
77522W        W44063  25.167  42.372  13.369
77523W        W44064  32.629  38.843   4.717
77524W        W44065   4.358  21.083   3.227
77525W        W44066  15.319  11.246   3.601
77526W        W44067  39.692  40.064  11.149
77527W        W44068  43.909   3.943   3.800
77528W        W44069  36.181  41.551   3.123
77529W        W44070  10.759  11.155  12.403
77530W        W44071  32.130  24.682   4.176
77531W        W44072   9.141  44.459   4.661
77532W        W44073  43.884  24.166  13.575
77533W        W44074  12.175  19.146  13.697
77534W        W44075   4.935  43.516   5.102
77535W        W44076   6.662  17.183   3.107
77536W        W44077   1.428  41.043   3.153
77537W        W44078  14.119  21.665  14.536
77538W        W44079  40.672   6.934   4.091
77539W        W44080  22.124  34.354  13.959
77540W        W44081  36.886   9.506  13.035
77541W        W44082  40.979  27.524  14.006
77542W        W44083  39.898  32.904   0.761
77543W        W44084   1.329  38.984  13.590
77544W        W44085   4.468  26.526  14.436
77545W        W44086   2.327  27.511   1.388
77546W        W44087  11.156  42.957  10.639
77547W        W44088   3.703  32.827   2.280
77548W        W44089   2.329  17.592  12.969
77549W        W44090  37.969   9.498  10.549
77550W        W44091  17.213  26.142   2.282
77551W        W44092  25.661   1.315   2.229
77552W        W44093  27.978  29.548   0.755
77553W        W44094  34.186  34.833  11.943
77554W        W44095  22.556  11.325   1.736
77555W        W44096  15.332  44.773   3.340
77556W        W44097  41.933   6.910   2.313
77557W        W44098  15.022   8.721   1.903
77558W        W44099  38.058  21.032   0.726
77559W        W44100  17.254  11.807  11.521
77560W        W44101  18.373  44.380  14.525
77561W        W44102  31.504  41.253  13.144
77562W        W44103  35.871   5.860  11.001
77563W        W44104   8.038  22.589  13.452
77564W        W44105  15.360   9.075  13.254
77565W        W44106  44.824  34.627   4.610
77566W        W44107  28.499  23.530  13.950
77567W        W44108  22.501  34.108   0.644
77568W        W44109  27.676  12.766  11.898
77569W        W44110  13.446  31.239   4.014
77570W        W44111  42.516   4.054   3.568
77571W        W44112  21.065  30.919   1.874
77572W        W44113  21.039  15.612  13.953
77573W        W44114  25.450   1.296   2.726
77574W        W44115  37.022  14.389   1.297
77575W        W44116  41.495   3.471   2.198
77576W        W44117   7.059  35.922  11.843
77577W        W44118  41.730  21.473  12.700
77578W        W44119   9.073  12.814   4.659
77579W        W44120  32.971   8.835  12.382
77580W        W44121  39.265  44.683   0.794
77581W        W44122  26.377  32.937   3.841
77582W        W44123  11.246  21.804  11.138
77583W        W44124  41.295  32.257  12.911
77584W        W44125  43.411  22.663  13.469
77585W        W44126  42.428  23.043   1.189
77586W        W44127   9.632  37.682   3.157
77587W        W44128  23.670  39.014   3.749
77588W        W44129  11.260  39.907  14.495
77589W        W44130  42.844   5.182   3.417
77590W        W44131   0.314  23.206   0.271
77591W        W44132  22.155   9.606   1.444
77592W        W44133  36.870   5.171   1.395
77593W        W44134  13.800  34.031  10.609
77594W        W44135  40.410  17.063  14.328
77595W        W44136  28.055  44.049   2.806
77596W        W44137  32.123  13.629  12.502
77597W        W44138  28.340  23.167   4.311
77598W        W44139  42.896  26.454  12.595
77599W        W44140   7.861  38.793  11.590
77600W        W44141  25.868  35.546   1.403
77601W        W44142  33.924   9.986   1.650
77602W        W44143  31.093  18.136  14.347
77603W        W44144   8.789  38.652   3.691
77604W        W44145  40.583  23.743  13.529
77605W        W44146   5.414  22.756   3.435
77606W        W44147   3.846   0.809  14.175
77607W        W44148  18.698  36.487   1.599
77608W        W44149  34.425  30.106  12.586
77609W        W44150   3.237  24.748  13.436
77610W        W44151  35.013  13.445   5.035
77611W        W44152   1.776  28.525   4.605
77612W        W44153  35.406  21.036   4.468
77613W        W44154   6.323   9.794   0.802
77614W        W44155  28.114   9.305  14.555
77615W        W44156   4.286  36.723   2.963
77616W        W44157   2.872  44.153  12.888
77617W        W44158  27.000  44.822   4.556
77618W        W44159  25.544  31.147   2.687
77619W        W44160  21.066  12.525   0.816
77620W        W44161  33.937   3.219   1.983
77621W        W44162  12.288   1.951  14.586
77622W        W44163  42.903  26.561   2.894
77623W        W44164  22.047   7.318   1.752
77624W        W44165  30.136  36.312   4.999
77625W        W44166  22.541  21.176  11.163
77626W        W44167  21.510   6.854   1.614
77627W        W44168  34.087   9.886  14.380
77628W        W44169  15.937  43.754  11.145
77629W        W44170  25.410  41.337   3.197
77630W        W44171  34.646   7.532  13.864
77631W        W44172  21.685   7.528  10.662
77632W        W44173  12.079  38.088  12.353
77633W        W44174  29.544  11.995   3.636
77634W        W44175  32.935  37.854   1.177
77635W        W44176  31.764   8.889  14.268
77636W        W44177   3.496  42.987   0.205
77637W        W44178  37.984  25.397   3.304
77638W        W44179  27.019  44.544   0.228
77639W        W44180  13.256  11.483  13.069
77640W        W44181   7.621  18.617  11.017
77641W        W44182  29.389  21.932   4.743
77642W        W44183   8.878  25.658   4.188
77643W        W44184  11.318  18.901   0.093
77644W        W44185  16.857  43.026   4.634
77645W        W44186   5.373  23.489  12.476
77646W        W44187  40.571  11.612  10.711
77647W        W44188  19.625  43.768  12.488
77648W        W44189   1.524  14.873  12.558
77649W        W44190  32.849  41.302  11.539
77650W        W44191   3.289   0.313   2.765
77651W        W44192  39.992  17.606   4.028
77652W        W44193  24.578  25.563  13.971
77653W        W44194  28.054  20.315  12.391
77654W        W44195  28.876  20.308  14.345
77655W        W44196  16.241   1.821   1.065
77656W        W44197  30.640  18.222  13.972
77657W        W44198  20.267  12.219   4.507
77658W        W44199  30.287  11.889  14.232
77659W        W44200  11.183  38.424  11.049
77660W        W44201   5.887  22.181   4.521
77661W        W44202  19.627   4.965  12.098
77662W        W44203  21.340  35.876  13.556
77663W        W44204  34.336  10.761   3.105
77664W        W44205  34.351  37.478   3.226
77665W        W44206  12.532  33.996  11.743
77666W        W44207   6.803  40.346  14.917
77667W        W44208  33.119   9.554  14.536
77668W        W44209  21.646  15.355  13.054
77669W        W44210   9.248  24.575   3.447
77670W        W44211  16.057  31.036  12.075
77671W        W44212  31.856  14.825  13.046
77672W        W44213  41.398  40.321  13.592
77673W        W44214  26.196  15.802  12.440
77674W        W44215  28.330  39.801  13.406
77675W        W44216  30.385  21.266  11.276
77676W        W44217  36.137  14.132  10.686
77677W        W44218  13.449  32.317   2.794
77678W        W44219  44.559  44.743   4.689
77679W        W44220   4.320  38.598  14.861
77680W        W44221   9.293  11.460  11.640
77681W        W44222  37.200  12.182   3.677
77682W        W44223  11.142  14.725   4.638
77683W        W44224  13.610  16.528  10.635
77684W        W44225  27.414   8.885   4.060
77685W        W44226   9.804  40.162  13.528
77686W        W44227   5.910  23.189  12.856
77687W        W44228  20.205  40.504  10.681
77688W        W44229   8.259  36.843  12.099
77689W        W44230   9.485  17.895   4.079
77690W        W44231  28.008  39.536   1.297
77691W        W44232  16.395  37.928   4.637
77692W        W44233  27.544  29.022  10.664
77693W        W44234  14.554   4.194  14.397
77694W        W44235  41.964  40.743  10.781
77695W        W44236  29.769   2.371   2.199
77696W        W44237  12.432  43.771   1.749
77697W        W44238  38.956  29.917  11.516
77698W        W44239  24.900  23.476   4.437
77699W        W44240  37.916  32.045   1.335
77700W        W44241  20.198   0.071  14.411
77701W        W44242  30.089  21.512   3.333
77702W        W44243  25.947  43.946  11.597
77703W        W44244  28.905  36.052   3.174
77704W        W44245  29.444  39.926   1.630
77705W        W44246  37.092  21.248  13.878
77706W        W44247  25.537  15.348  11.119
77707W        W44248  10.858  12.010  12.075
77708W        W44249   8.396   4.228  13.913
77709W        W44250  10.303  31.438  12.553
77710W        W44251  33.940  36.042  14.885
77711W        W44252  37.611  30.235  11.983
77712W        W44253  23.168  38.961  11.109
77713W        W44254  20.143   4.415   2.849
77714W        W44255  28.402  31.996   1.742
77715W        W44256  23.562  32.406  10.403
77716W        W44257  41.397  39.397   0.959
77717W        W44258  21.165  14.663   3.089
77718W        W44259  14.216  43.441  14.011
77719W        W44260  32.714  25.193   3.220
77720W        W44261  21.517  20.518  14.580
77721W        W44262  11.505  25.337  12.478
77722W        W44263  37.465   9.616  10.526
77723W        W44264  16.223   6.335  14.437
77724W        W44265  11.639  43.589  12.073
77725W        W44266  14.348  31.534   3.047
77726W        W44267  40.930  31.188  13.847
77727W        W44268  18.519   5.286   0.926
77728W        W44269  37.370  37.543   1.822
77729W        W44270  18.509  34.593  13.453
77730W        W44271   5.904   7.665   3.177
77731W        W44272  19.105   4.591   0.367
77732W        W44273   0.943   4.132   1.682
77733W        W44274  19.062  37.578  11.141
77734W        W44275  32.367  18.260   1.969
77735W        W44276   4.284  22.050   5.238
77736W        W44277  28.630   4.290   2.881
77737W        W44278  17.073  14.133   3.694
77738W        W44279   9.845   6.829  12.669
77739W        W44280  27.678  11.406   3.312
77740W        W44281  26.481  13.342  14.843
77741W        W44282   4.362  13.895  11.881
77742W        W44283  33.127  16.827   0.979
77743W        W44284   7.316  25.965  14.437
77744W        W44285  29.652  37.626  13.544
77745W        W44286  35.489  20.270  12.683
77746W        W44287  21.491  13.335  10.197
77747W        W44288   4.900   1.334  14.793
77748W        W44289   3.287  35.134  10.899
77749W        W44290  44.305  15.376  13.448
77750W        W44291  11.244   4.670   1.584
77751W        W44292  43.070  26.963  11.427
77752W        W44293  37.113  25.055  14.226
77753W        W44294  10.451  26.192  11.493
77754W        W44295  41.060  22.531  14.972
77755W        W44296  27.806  12.876   0.819
77756W        W44297  17.685  17.711  10.600
77757W        W44298  35.363  10.345  12.988
77758W        W44299  16.669  18.440   4.130
77759W        W44300  32.457  20.309   4.678
77760W        W44301  20.144  12.433  13.903
77761W        W44302   3.909  18.248  12.144
77762W        W44303  17.162  17.639   2.408
77763W        W44304  17.963  42.757   0.660
77764W        W44305   7.410  17.239  11.249
77765W        W44306  20.499  27.808  11.075
77766W        W44307  39.757  30.589   1.136
77767W        W44308  18.210  23.249   4.563
77768W        W44309  36.436   4.901   2.197
77769W        W44310  43.745   3.400   4.049
77770W        W44311  29.656   0.738  13.424
77771W        W44312  31.709   6.349   3.769
77772W        W44313  26.699  41.371   2.331
77773W        W44314  25.328  10.372  14.688
77774W        W44315  27.141  40.018  14.855
77775W        W44316  24.598  26.579   2.210
77776W        W44317  22.489  24.065   0.957
77777W        W44318  31.950  13.610  12.997
77778W        W44319  38.191  19.104   1.771
77779W        W44320  32.999  18.339   2.673
77780W        W44321  29.043  14.130   0.700
77781W        W44322  31.470  18.140   1.042
77782W        W44323  10.379   4.877   0.819
77783W        W44324  18.126  43.210   3.307
77784W        W44325   9.663  20.208  12.401
77785W        W44326   5.661   0.813  14.818
77786W        W44327   4.017   1.295   3.169
77787W        W44328  36.691  12.597   3.198
77788W        W44329   9.769  24.336  14.807
77789W        W44330   3.371  41.036  12.899
77790W        W44331  12.317   3.427   3.739
77791W        W44332  13.747  34.466  13.907
77792W        W44333  19.865   5.846  14.289
77793W        W44334  31.563  10.138   2.869
77794W        W44335  30.851  34.879   1.722
77795W        W44336  22.083   9.108  11.819
77796W        W44337  24.190  38.116  14.360
77797W        W44338  22.507  42.112   0.937
77798W        W44339  43.414  13.848  13.410
77799W        W44340  39.960  20.545  14.053
77800W        W44341  24.053  14.861   0.831
77801W        W44342  20.901   5.392  11.660
77802W        W44343  10.879  18.724  14.880
77803W        W44344  15.543  33.230   0.718
77804W        W44345  28.013  41.586   1.470
77805W        W44346  35.370  15.651   4.413
77806W        W44347  32.021  19.656   2.968
77807W        W44348  23.439   6.234  12.529
77808W        W44349  20.008  17.228   3.147
77809W        W44350   8.310  26.059  14.543
77810W        W44351  19.836  22.134  14.831
77811W        W44352  30.575  43.456   3.834
77812W        W44353  20.142   4.821  14.314
77813W        W44354  35.375  25.092  10.625
77814W        W44355  19.717  12.013   1.063
77815W        W44356  35.968  35.503   2.512
77816W        W44357  33.939  36.071  10.809
77817W        W44358  15.304  23.052   0.382
77818W        W44359  34.893  28.506  13.543
77819W        W44360  25.697  21.619  11.709
77820W        W44361   5.821   4.158  14.839
77821W        W44362  18.712  38.565   2.693
77822W        W44363  19.060   8.139   0.522
77823W        W44364  38.866   3.960   0.342
77824W        W44365  29.411   6.880  11.866
77825W        W44366  22.611  23.531   1.042
77826W        W44367  40.599  35.969  11.643
77827W        W44368  27.699  35.606  10.467
77828W        W44369  35.598  44.037  11.682
77829W        W44370   4.913  24.092  13.114
77830W        W44371   9.564  30.674   1.234
77831W        W44372   1.308  28.174  13.071
77832W        W44373  21.225   4.010  14.344
77833W        W44374  34.654  36.081  12.020
77834W        W44375   1.795  15.599   3.345
77835W        W44376   9.380  13.198  14.746
77836W        W44377  18.107  18.216  13.396
77837W        W44378  26.596  10.735  14.028
77838W        W44379  17.752  34.137   1.555
77839W        W44380  22.782  19.890  11.216
77840W        W44381   4.003  28.808   3.107
77841W        W44382  32.609  41.407  11.068
77842W        W44383  33.946  37.089  14.618
77843W        W44384  44.019  30.822   0.837
77844W        W44385  34.095   9.662  12.429
77845W        W44386  42.372   1.497   2.258
77846W        W44387  36.376  22.407   4.533
77847W        W44388   9.893  40.689  12.613
77848W        W44389  29.628  44.239   0.436
77849W        W44390  43.703  22.591  10.436
77850W        W44391  25.981  17.560  12.347
77851W        W44392  33.143  16.536   1.910
77852W        W44393  12.659  38.907   2.856
77853W        W44394   0.686  35.099  12.380
77854W        W44395   4.935   0.059   1.351
77855W        W44396  38.803  13.752  11.269
77856W        W44397  21.172  32.430   0.747
77857W        W44398   4.234  37.025   3.384
77858W        W44399   7.245  44.041   1.159
77859W        W44400  32.944  32.571   0.573
77860W        W44401   6.235  10.209   2.738
77861W        W44402  42.731  34.882   0.473
77862W        W44403  31.117  42.736  10.538
77863W        W44404  10.511  39.664   4.697
77864W        W44405  17.579   6.785  12.920
77865W        W44406   5.316  32.150  11.203
77866W        W44407  27.246   2.730  12.898
77867W        W44408   6.312   7.182  11.638
77868W        W44409  44.513   7.468   0.354
77869W        W44410  41.865   2.559   3.857
77870W        W44411  23.214  32.415  13.978
77871W        W44412  37.890   0.922  12.510
77872W        W44413  41.219  36.612   1.299
77873W        W44414  16.222  14.660   5.010
77874W        W44415   1.346  43.456  12.598
77875W        W44416  38.561   3.094  14.487
77876W        W44417  29.631  29.458  12.024
77877W        W44418  24.695  15.389  10.750
77878W        W44419  32.635  24.135  12.492
77879W        W44420  41.559  10.260  11.808
77880W        W44421   3.580  43.528   4.816
77881W        W44422  24.301  33.094  13.206
77882W        W44423   3.978  38.963   4.810
77883W        W44424  19.126   7.868   0.959
77884W        W44425  44.702  25.939   4.182
77885W        W44426  29.491  21.427   4.732
77886W        W44427  19.986  10.717  13.727
77887W        W44428  28.074  10.586   3.406
77888W        W44429  33.478  40.795   0.430
77889W        W44430  15.398  19.328  14.060
77890W        W44431   9.643  19.562  13.384
77891W        W44432  39.462  36.446   1.347
77892W        W44433  33.526   5.175   0.779
77893W        W44434  43.690  42.541  11.757
77894W        W44435  13.146  39.845  13.902
77895W        W44436   7.743  37.368  12.878
77896W        W44437  23.526  15.800   4.085
77897W        W44438  15.180  17.999   3.592
77898W        W44439  32.794   4.799  11.984
77899W        W44440  30.178  36.004   3.132
77900W        W44441  16.412  29.975  13.162
77901W        W44442   4.614  42.496   0.830
77902W        W44443   6.940   0.347  14.844
77903W        W44444  39.401  43.248   2.778
77904W        W44445  14.693  34.989  12.444
77905W        W44446  31.506  30.484  12.454
77906W        W44447  33.472  30.222  12.400
77907W        W44448   3.893   4.763  11.972
77908W        W44449  16.842  21.259  10.571
77909W        W44450   3.654  29.572   3.688
77910W        W44451   8.241  15.525   0.209
77911W        W44452  24.229  29.654   1.324
77912W        W44453  15.267  19.803   4.574
77913W        W44454  39.536   6.641   3.055
77914W        W44455  34.135  27.816   3.697
77915W        W44456  34.878   8.947   2.772
77916W        W44457  28.438  18.062  12.837
77917W        W44458  42.622  43.749   1.809
77918W        W44459  13.088  30.991  11.369
77919W        W44460  20.109  32.861   0.925
77920W        W44461  32.510  28.782   1.215
77921W        W44462  12.909   9.078   0.421
77922W        W44463   0.243  40.382   3.900
77923W        W44464  21.983  32.825  11.901
77924W        W44465  27.646  10.011   2.248
77925W        W44466  17.996  14.162  13.420
77926W        W44467  18.254  33.002   0.441
77927W        W44468  33.940  36.460   0.931
77928W        W44469   7.626  23.334   3.163
77929W        W44470  39.469  28.036   4.302
77930W        W44471  41.398  42.340   4.590
77931W        W44472  40.300  10.302  11.785
77932W        W44473  11.659  43.719  14.462
77933W        W44474  27.107  38.070  11.992
77934W        W44475   7.527   2.624   3.205
77935W        W44476  23.221  28.923   2.205
77936W        W44477  32.597  44.030  11.373
77937W        W44478  29.073  29.991  10.465
77938W        W44479  14.205  37.095  11.572
77939W        W44480  42.766  40.598  14.965
77940W        W44481  12.230  15.811  13.530
77941W        W44482  19.174  36.262   2.739
77942W        W44483  31.989  40.141  11.151
77943W        W44484  40.644  25.510   4.555
77944W        W44485  25.957  30.924   0.408
77945W        W44486  40.783  36.372   1.129
77946W        W44487   0.793  30.550   4.579
77947W        W44488  37.541  39.011  10.710
77948W        W44489   8.145  38.063  14.793
77949W        W44490  26.536  20.297  13.013
77950W        W44491  24.510  14.301  11.595
77951W        W44492  23.469  28.483  11.415
77952W        W44493  21.483  42.619   1.770
77953W        W44494  44.899   5.893  13.798
77954W        W44495  18.850  32.901   1.936
77955W        W44496   3.814  21.417  10.884
77956W        W44497  34.078  33.640   0.240
77957W        W44498  37.621   0.756  11.628
77958W        W44499   4.493  11.092  12.867
77959W        W44500  10.736  39.588   2.896
77960W        W44501  16.087  30.529   2.128
77961W        W44502  32.459  35.404  14.945
77962W        W44503  25.467   3.805  11.690
77963W        W44504   6.214  30.128  12.453
77964W        W44505  29.006  23.334  14.019
77965W        W44506  32.201  34.462  14.348
77966W        W44507  27.995  22.409  14.474
77967W        W44508   6.656  12.326   4.656
77968W        W44509  24.146  15.031  13.446
77969W        W44510  40.497  22.193  11.100
77970W        W44511  43.349  22.450  13.958
77971W        W44512   5.679  30.030   2.143
77972W        W44513   3.021  12.813  12.110
77973W        W44514  34.481   0.639  11.913
77974W        W44515  28.453  34.318  11.989
77975W        W44516  35.867  18.335  13.610
77976W        W44517  40.893  21.172  10.350
77977W        W44518   9.248   5.597   1.142
77978W        W44519   0.231  31.435   2.729
77979W        W44520   2.721   5.409   4.634
77980W        W44521  11.550  11.014   0.338
77981W        W44522  40.185  26.461  11.674
77982W        W44523  40.706  34.322  14.022
77983W        W44524   4.311  39.332   0.351
77984W        W44525  24.971  26.160   4.146
77985W        W44526  16.611  17.789   3.642
77986W        W44527  17.549   8.124   2.669
77987W        W44528  38.337  28.996   3.790
77988W        W44529  14.225  19.241  13.073
77989W        W44530   6.346  12.504  12.622
77990W        W44531   0.403  23.014   0.748
77991W        W44532  34.447  27.241   4.578
77992W        W44533  38.896   0.905  11.406
77993W        W44534  30.512  33.351   2.296
77994W        W44535  25.064  42.915   1.216
77995W        W44536  34.237   8.286   0.198
77996W        W44537  10.164  29.384   3.689
77997W        W44538  38.020  19.839  11.540
77998W        W44539  22.662  21.254  12.489
77999W        W44540  44.304  33.207  14.960
78000W        W44541  26.426  27.554   4.310
78001W        W44542  35.506  23.770  13.314
78002W        W44543   1.463  34.854   1.943
78003W        W44544  32.940   9.083   2.687
78004W        W44545  12.132   7.187   2.867
78005W        W44546  40.008   4.822  14.584
78006W        W44547  33.074  20.816   0.914
78007W        W44548  29.545  18.343  11.949
78008W        W44549  27.855   4.296  12.502
78009W        W44550  14.905  44.897   1.188
78010W        W44551  16.064   2.500  13.031
78011W        W44552  40.891  43.189  12.780
78012W        W44553   2.838  16.708  11.612
78013W        W44554   6.736   5.281   1.461
78014W        W44555  14.377  24.192   2.626
78015W        W44556  21.686  21.620   1.506
78016W        W44557  42.748  32.934  13.753
78017W        W44558  22.281   6.161   3.268
78018W        W44559  13.636  41.735  12.955
78019W        W44560  12.764  12.922  11.458
78020W        W44561  26.498  36.075   2.100
78021W        W44562  26.082  31.479  13.505
78022W        W44563  16.311  14.259  14.344
78023W        W44564  13.117  36.554  10.397
78024W        W44565  43.034  24.584  14.534
78025W        W44566   8.899  30.035  11.720
78026W        W44567  36.051  22.580   3.723
78027W        W44568  37.523   1.625   2.823
78028W        W44569  28.468  28.519   3.798
78029W        W44570  38.412  23.493   3.309
78030W        W44571  23.782  13.116   4.251
78031W        W44572   0.841  10.203  13.165
78032W        W44573   2.414  37.635   0.503
78033W        W44574  11.697  20.480   3.642
78034W        W44575   9.943  18.711  12.743
78035W        W44576  21.513  26.196   3.783
78036W        W44577  10.677  23.630   1.940
78037W        W44578  33.192  23.178   1.271
78038W        W44579  44.134  38.931   4.767
78039W        W44580  37.417  34.895  14.514
78040W        W44581  40.953   0.574   1.265
78041W        W44582   4.369  38.147  13.448
78042W        W44583  28.461  40.105  10.459
78043W        W44584   7.912   8.911   4.197
78044W        W44585  42.785  30.635   3.662
78045W        W44586  10.876  13.389   1.378
78046W        W44587  10.813  17.254  14.817
78047W        W44588  43.709  16.539  14.313
78048W        W44589  17.084  11.953   3.252
78049W        W44590   5.389   2.707   9.711
78050W        W44591  44.734  21.612   0.422
78051W        W44592  31.187   7.400  14.983
78052W        W44593   4.078  40.931  13.294
78053W        W44594  21.196  23.949   3.618
78054W        W44595  12.654  33.851   2.302
78055W        W44596   4.133  25.756  13.634
78056W        W44597  42.791  25.921  11.882
78057W        W44598  43.440  41.978   2.042
78058W        W44599   5.318   2.848  11.394
78059W        W44600  12.431  40.417  13.519
78060W        W44601  12.274  36.488  14.364
78061W        W44602  30.418  37.071   1.678
78062W        W44603  27.002  37.329   3.271
78063W        W44604  41.513  18.844   2.235
78064W        W44605  19.339  14.749   0.965
78065W        W44606  28.144  34.612   1.759
78066W        W44607  36.699   1.297   3.642
78067W        W44608  14.683  39.996   0.469
78068W        W44609  26.857   1.956  12.348
78069W        W44610   1.831  13.674   3.289
78070W        W44611  11.435  23.305  10.521
78071W        W44612  36.546   7.820   1.333
78072W        W44613  12.627  37.041   4.994
78073W        W44614  15.266  38.011   1.326
78074W        W44615  37.823  13.817   2.161
78075W        W44616  13.555  40.487  11.665
78076W        W44617  39.304  37.045   3.480
78077W        W44618  21.027   0.686   0.389
78078W        W44619   1.181  21.187  14.396
78079W        W44620  10.776   5.723  11.532
78080W        W44621  32.638   7.800  13.322
78081W        W44622   7.167   2.840   1.484
78082W        W44623  20.130  25.664  10.754
78083W        W44624  17.717   5.177  13.044
78084W        W44625  35.444  43.449  12.500
78085W        W44626  13.738  23.152  13.536
78086W        W44627   6.680  39.369  13.968
78087W        W44628   0.579  22.743   0.311
78088W        W44629  10.340  10.900   3.184
78089W        W44630   9.317   8.250   4.441
78090W        W44631  17.613  40.827  14.390
78091W        W44632  26.185  29.946   4.780
78092W        W44633  10.305   9.721  14.697
78093W        W44634   7.765   5.827   4.382
78094W        W44635  13.741  33.614  13.039
78095W        W44636  43.742  33.585   0.248
78096W        W44637  21.557   7.647   2.320
78097W        W44638  19.009  44.299   3.550
78098W        W44639  41.818   8.407   1.713
78099W        W44640  37.645   1.135   2.723
78100W        W44641  32.981  10.146  11.689
78101W        W44642  30.552  23.177  13.285
78102W        W44643   1.696  35.058   0.003
78103W        W44644  38.405  38.508   1.617
78104W        W44645   1.698  44.104   3.225
78105W        W44646   1.924  23.505  14.543
78106W        W44647   9.426   7.088   9.900
78107W        W44648  21.527  29.699   9.960
78108W        W44649  43.027  43.873   4.431
78109W        W44650  19.267  34.640  12.866
78110W        W44651  17.733  44.927  13.744
78111W        W44652   3.377   4.831   4.603
78112W        W44653  34.337  22.988  13.168
78113W        W44654  14.776  23.792   1.764
78114W        W44655  29.256   4.947  11.423
78115W        W44656  36.867  16.068   3.015
78116W        W44657  25.540   9.934  10.549
78117W        W44658  24.185  33.584  10.574
78118W        W44659  22.191  21.947   3.648
78119W        W44660  38.161   7.610   2.543
78120W        W44661   7.150  16.487  14.823
78121W        W44662  20.743  37.049  14.814
78122W        W44663  41.450   7.279   3.316
78123W        W44664  29.512   9.840   0.965
78124W        W44665  20.031  35.359  14.300
78125W        W44666  35.616  40.296  14.408
78126W        W44667  27.720   2.473   3.150
78127W        W44668  26.496  30.295   2.330
78128W        W44669  31.443   4.899  14.253
78129W        W44670  13.090   7.208  13.775
78130W        W44671  11.834   7.504  12.576
78131W        W44672  42.968  15.281  13.330
78132W        W44673  17.552  40.459  14.871
78133W        W44674  31.439   1.850   0.720
78134W        W44675  40.343  43.010   3.692
78135W        W44676  15.749  18.573   4.296
78136W        W44677  23.107  13.121  14.362
78137W        W44678  17.237  20.722   1.375
78138W        W44679   7.988  16.126   0.286
78139W        W44680  28.034   1.752   0.866
78140W        W44681  16.080   0.548  11.547
78141W        W44682  24.704  22.045   3.579
78142W        W44683  16.414   8.405  12.003
78143W        W44684  30.020  24.261  12.537
78144W        W44685   8.699  10.127   2.102
78145W        W44686  10.189  41.745   2.926
78146W        W44687  20.272  44.799  11.188
78147W        W44688  28.660  11.319   1.685
78148W        W44689  33.573  10.393   4.068
78149W        W44690   4.134  22.652  13.104
78150W        W44691  16.919  10.511  13.575
78151W        W44692  29.349  11.673   4.557
78152W        W44693  24.333  21.177  12.769
78153W        W44694  10.216  35.487   1.825
78154W        W44695  26.987  36.358   3.106
78155W        W44696  11.739  39.845  14.255
78156W        W44697  42.945  29.666  13.337
78157W        W44698  23.781   9.293   4.555
78158W        W44699   4.685  40.829   2.299
78159W        W44700  23.520   3.769   1.387
78160W        W44701  24.531  41.603   0.848
78161W        W44702  28.701  20.598  12.535
78162W        W44703  25.131  44.932   1.008
78163W        W44704  19.168  34.858  12.402
78164W        W44705  36.497  20.838  14.672
78165W        W44706  44.415  11.817  14.236
78166W        W44707  23.021  30.154   1.002
78167W        W44708  30.424  15.428   4.951
78168W        W44709  24.059  22.929  14.134
78169W        W44710  18.136  21.670  12.153
78170W        W44711  16.616  15.682  10.397
78171W        W44712  11.304  20.007   4.667
78172W        W44713  15.601   0.776  12.432
78173W        W44714  26.564   2.989  10.571
78174W        W44715   3.754  14.704  14.985
78175W        W44716   3.237  34.211  12.049
78176W        W44717  33.139  44.241   0.684
78177W        W44718  14.918  39.767  14.116
78178W        W44719  38.401  15.810   1.338
78179W        W44720  38.384  42.508  12.422
78180W        W44721  39.070   7.223  13.510
78181W        W44722  22.458  31.405  11.696
78182W        W44723  34.842  27.587  14.044
78183W        W44724  38.847  42.374   3.181
78184W        W44725   1.670  16.036   3.087
78185W        W44726  32.425   6.785   3.066
78186W        W44727  38.993   9.812  13.579
78187W        W44728   0.716   2.670   4.582
78188W        W44729  44.523   4.861  14.993
78189W        W44730  32.063  24.165  12.486
78190W        W44731   9.756  14.408   1.991
78191W        W44732  15.649  15.890   4.692
78192W        W44733   6.480  14.144   2.155
78193W        W44734  28.850  41.780  11.215
78194W        W44735  12.914   4.341   3.707
78195W        W44736   0.730  12.100   0.549
78196W        W44737  24.717   4.658  12.121
78197W        W44738  22.637   2.455   1.963
78198W        W44739  44.741  41.278   0.447
78199W        W44740  34.372   8.793   4.625
78200W        W44741  19.730   1.319  13.380
78201W        W44742   5.432   8.428   4.220
78202W        W44743  18.309  37.965   4.215
78203W        W44744  27.119  36.133   2.651
78204W        W44745   8.573  33.670   1.848
78205W        W44746  38.568  24.658   4.765
78206W        W44747   1.197  32.580   0.270
78207W        W44748  18.520  12.903  13.075
78208W        W44749  21.199  29.993  13.821
78209W        W44750  17.817   6.006  11.143
78210W        W44751  42.781  20.066  14.515
78211W        W44752  10.137  10.159   4.170
78212W        W44753  43.193  32.939   2.887
78213W        W44754   4.343  40.384   3.256
78214W        W44755  15.360  18.138   0.768
78215W        W44756   9.286  20.504   2.881
78216W        W44757   0.348   2.380   3.661
78217W        W44758   4.143   6.494   0.885
78218W        W44759   5.858  22.937   0.691
78219W        W44760  33.122   8.409  10.530
78220W        W44761  14.279   8.446  13.797
78221W        W44762  35.016  44.146  12.120
78222W        W44763  38.379  42.456  11.070
78223W        W44764  14.881  37.807   0.804
78224W        W44765  33.383  21.737   0.106
78225W        W44766  37.962  35.625   0.429
78226W        W44767   4.386  41.015  11.995
78227W        W44768  33.828  19.756  11.550
78228W        W44769  29.760  35.048   0.992
78229W        W44770  43.091  16.507  12.969
78230W        W44771  34.400  39.624  13.469
78231W        W44772  20.655   6.346   1.856
78232W        W44773  40.736   5.922   3.776
78233W        W44774  24.896  37.893   3.754
78234W        W44775  43.194  41.384   0.376
78235W        W44776  30.306  17.113  12.486
78236W        W44777  26.228  22.079   3.749
78237W        W44778  37.405  44.194  14.822
78238W        W44779  24.790  18.432   4.212
78239W        W44780   7.174  11.307   0.302
78240W        W44781  40.538  14.211  14.944
78241W        W44782   6.211   7.774  13.365
78242W        W44783  27.593   7.642  14.062
78243W        W44784  22.697   4.939  10.175
78244W        W44785  43.853  11.601   4.601
78245W        W44786  21.391   8.357  11.879
78246W        W44787  22.257  35.365  12.142
78247W        W44788   5.806   2.595   3.397
78248W        W44789  36.843   1.713  10.962
78249W        W44790   7.692  26.725  14.595
78250W        W44791  44.237  33.935  10.667
78251W        W44792  10.532   4.836  11.006
78252W        W44793  30.470  41.546   4.221
78253W        W44794  10.212  19.115  12.862
78254W        W44795  42.780   5.848   2.627
78255W        W44796  12.719  14.662  10.516
78256W        W44797  26.127   4.265  13.905
78257W        W44798  43.230  39.350  10.630
78258W        W44799  23.954  27.767   2.387
78259W        W44800  42.922  11.707  14.976
78260W        W44801  43.356   3.419   3.725
78261W        W44802  23.552  18.942  12.595
78262W        W44803  36.874  21.182  14.810
78263W        W44804  31.169  29.241   3.188
78264W        W44805  19.399   5.127  11.624
78265W        W44806   6.254   3.391  13.302
78266W        W44807  39.044   1.472  13.882
78267W        W44808  26.075   7.134  10.764
78268W        W44809  31.192  42.195   1.558
78269W        W44810  16.017  44.471  13.239
78270W        W44811  29.811  31.613  11.457
78271W        W44812  20.237   4.964   1.653
78272W        W44813   2.797  42.542  11.107
78273W        W44814  15.019  20.790  12.449
78274W        W44815  25.812  37.119   9.904
78275W        W44816  40.497  11.870   1.438
78276W        W44817  11.867  38.467  14.292
78277W        W44818  10.080  35.634   3.436
78278W        W44819  27.280  43.497  11.620
78279W        W44820  26.875   4.258  11.583
78280W        W44821  23.766  17.617   4.297
78281W        W44822   8.616  22.822   1.867
78282W        W44823  15.300  37.928  10.721
78283W        W44824   3.722  21.210  14.615
78284W        W44825   5.464  32.433  14.049
78285W        W44826  31.839   3.256  14.505
78286W        W44827  24.058  27.027   4.569
78287W        W44828  20.607  36.860  10.739
78288W        W44829   1.933  15.534  11.168
78289W        W44830   5.345   1.532   0.746
78290W        W44831  15.554   1.870  13.025
78291W        W44832  24.683  43.324   3.151
78292W        W44833  37.899  16.503   1.872
78293W        W44834  17.992  41.951   0.325
78294W        W44835   9.272  41.727   0.743
78295W        W44836   8.392  44.788  11.653
78296W        W44837  22.793  31.347  12.510
78297W        W44838  10.798  10.910   4.160
78298W        W44839  40.391  11.303   0.348
78299W        W44840   6.144  32.824   2.095
78300W        W44841  42.837  37.350   4.865
78301W        W44842  12.751   5.340  11.008
78302W        W44843   9.002  27.088   2.673
78303W        W44844   1.352  39.125  14.089
78304W        W44845  19.635   9.859  13.857
78305W        W44846  14.633  29.526   1.262
78306W        W44847  35.327  40.942   1.806
78307W        W44848  42.941  28.545   3.652
78308W        W44849   6.620  13.892  12.601
78309W        W44850  24.821  17.368  11.109
78310W        W44851  39.883   6.756   2.627
78311W        W44852  26.719   3.779  14.332
78312W        W44853  14.655   2.160  13.298
78313W        W44854  30.874  36.420  13.977
78314W        W44855  15.528   8.739   1.856
78315W        W44856   8.721  41.105   9.938
78316W        W44857  42.200  44.915   4.749
78317W        W44858  33.816  30.530   0.709
78318W        W44859  38.849  24.493  10.808
78319W        W44860  11.114  17.596  12.784
78320W        W44861  12.833  35.977   4.213
78321W        W44862  33.274  10.717   3.286
78322W        W44863  30.634  29.905   3.501
78323W        W44864  17.200   0.271   2.458
78324W        W44865  25.451  18.843   1.216
78325W        W44866  42.355   2.084  11.737
78326W        W44867   8.015  16.263   3.890
78327W        W44868  29.021  17.379  13.964
78328W        W44869  26.197  30.573   1.800
78329W        W44870  15.981   0.075   0.431
78330W        W44871  17.153  40.694  12.065
78331W        W44872  22.070  24.037  10.678
78332W        W44873   0.719  13.084   3.632
78333W        W44874  39.862  41.051  14.523
78334W        W44875   5.839  13.212  14.239
78335W        W44876   3.346   8.011   4.825
78336W        W44877  39.368  29.665   3.912
78337W        W44878  11.631  31.882   1.209
78338W        W44879  28.774  12.411   9.809
78339W        W44880   4.366  22.012   2.120
78340W        W44881  33.930  24.390   0.406
78341W        W44882  33.630   2.434   0.595
78342W        W44883  14.597  41.182  13.990
78343W        W44884  32.149  34.775   4.127
78344W        W44885  26.875  30.556   0.483
78345W        W44886   0.346  18.803  11.619
78346W        W44887  23.557   6.467  12.078
78347W        W44888  36.848  29.189   4.811
78348W        W44889  10.666  15.296  11.022
78349W        W44890  34.472  44.508  13.359
78350W        W44891  23.607   5.386   2.708
78351W        W44892   5.255  44.181   1.465
78352W        W44893  43.068  33.256   0.846
78353W        W44894   3.152  36.374   0.459
78354W        W44895  25.837  27.019  12.134
78355W        W44896   0.034  36.653   0.939
78356W        W44897   3.066   5.020   4.965
78357W        W44898  18.993  33.957  11.903
78358W        W44899  44.437   1.432   1.293
78359W        W44900  32.708   8.295   0.308
78360W        W44901  33.703  16.680   3.694
78361W        W44902  18.683  37.457  13.984
78362W        W44903  13.051   8.371   3.334
78363W        W44904  28.901   7.784  12.526
78364W        W44905  35.604  11.726   0.123
78365W        W44906  32.925   1.278  13.536
78366W        W44907  24.770  31.859  14.880
78367W        W44908  35.427  31.979   4.566
78368W        W44909   2.965  25.074  14.665
78369W        W44910  19.312  13.360   3.755
78370W        W44911  24.292  14.285  14.972
78371W        W44912   2.760   3.945  10.693
78372W        W44913  39.529  18.627   4.351
78373W        W44914  44.296  12.802   1.881
78374W        W44915  31.668  40.605   3.333
78375W        W44916  42.835  19.055   2.675
78376W        W44917  26.707  24.446  11.571
78377W        W44918  39.511   1.272  13.980
78378W        W44919  19.528   2.509  13.850
78379W        W44920  29.448   0.525  13.001
78380W        W44921  24.739  33.354  12.991
78381W        W44922  24.193  34.448   2.220
78382W        W44923  37.426   3.378  11.140
78383W        W44924  11.213  27.462   0.715
78384W        W44925  31.980  28.715   4.435
78385W        W44926  31.417  35.004  10.596
78386W        W44927   7.985  17.152   1.461
78387W        W44928  24.661   6.363   3.968
78388W        W44929  11.149  26.713   1.851
78389W        W44930  34.456  23.915  12.954
78390W        W44931   0.380  39.031  13.863
78391W        W44932  18.666  31.237   1.101
78392W        W44933  44.925  31.284  11.121
78393W        W44934  43.119  16.266  14.759
78394W        W44935  33.812  20.059   1.939
78395W        W44936  35.848  27.677  11.590
78396W        W44937  22.022  43.348  10.404
78397W        W44938  26.896  35.885  13.905
78398W        W44939   9.500  40.582   3.735
78399W        W44940   7.771  12.309   3.005
78400W        W44941  12.246  11.457   1.532
78401W        W44942  22.692  14.234   0.002
78402W        W44943  27.514  43.542  14.715
78403W        W44944  43.929  27.730  12.993
78404W        W44945   1.404  21.577   1.776
78405W        W44946  12.453  20.732   4.121
78406W        W44947  25.840   8.928   2.075
78407W        W44948  29.190   6.770  13.336
78408W        W44949  30.103  15.245  11.828
78409W        W44950  15.849  32.496   2.279
78410W        W44951  18.007  38.613  13.964
78411W        W44952  12.680  28.480  12.327
78412W        W44953  21.675   1.472   3.672
78413W        W44954  34.927  23.618   5.060
78414W        W44955  25.727  24.585  12.463
78415W        W44956   0.181   3.482  13.791
78416W        W44957   0.140  33.865   3.700
78417W        W44958  10.489  12.139  14.336
78418W        W44959  22.046  24.193   3.913
78419W        W44960  15.992  10.254  12.808
78420W        W44961   0.845  26.058  13.340
78421W        W44962  13.872  41.904   4.127
78422W        W44963   1.300  11.566   1.849
78423W        W44964  16.314   9.705  14.504
78424W        W44965  36.066   6.723  14.540
78425W        W44966  24.328  43.983  12.068
78426W        W44967  23.095  34.623  11.626
78427W        W44968  17.613   1.738  10.767
78428W        W44969  26.665   7.582  13.034
78429W        W44970  39.486  20.408  13.791
78430W        W44971   0.970  34.146   1.886
78431W        W44972  35.585  41.962  11.690
78432W        W44973  34.868  43.490   2.188
78433W        W44974  30.829  20.187   1.699
78434W        W44975  33.555  34.887   2.895
78435W        W44976  18.086  10.239   2.431
78436W        W44977   7.662  16.332  11.193
78437W        W44978  41.268  13.576  12.971
78438W        W44979  13.362  35.427  11.902
78439W        W44980  41.075  44.001  12.890
78440W        W44981  41.772   9.621  13.109
78441W        W44982  19.463   5.489   9.686
78442W        W44983  17.637  37.939   3.841
78443W        W44984  36.638  26.182   1.879
78444W        W44985  38.938  12.117   0.809
78445W        W44986  11.064  13.247   1.828
78446W        W44987  31.090   7.675  14.370
78447W        W44988   7.175   2.845  11.751
78448W        W44989  19.172  10.405   0.034
78449W        W44990   4.212  18.772   3.397
78450W        W44991  10.876  40.906   2.879
78451W        W44992  28.454   2.334   0.155
78452W        W44993   5.606   2.882   3.028
78453W        W44994   6.852  18.500   4.043
78454W        W44995   7.357  25.066  13.121
78455W        W44996  18.243  10.324   3.854
78456W        W44997  32.306  25.177   4.050
78457W        W44998  30.745  38.018  14.403
78458W        W44999  36.347  12.950  14.606
78459W        W45000  44.343  40.807  12.142
78460W        W45001  15.028  32.239   2.286
78461W        W45002  42.579  38.524  14.347
78462W        W45003  15.393  13.801  12.533
78463W        W45004  42.078  19.850  14.898
78464W        W45005   9.910  37.907   4.439
78465W        W45006  30.226  31.853  13.540
78466W        W45007  16.352   1.429   0.209
78467W        W45008  11.295  33.419   4.059
78468W        W45009   7.924  14.563   1.266
78469W        W45010  25.254   3.696   4.325
78470W        W45011  39.270  34.343   2.204
78471W        W45012  24.125  38.934   3.999
78472W        W45013  14.090  39.801   3.233
78473W        W45014   7.887   7.352  12.525
78474W        W45015  35.341   5.807   2.814
78475W        W45016  42.815  25.713   4.977
78476W        W45017  41.434  10.767  14.149
78477W        W45018  40.934  23.711   3.680
78478W        W45019  31.699  31.830   3.648
78479W        W45020  30.963  26.935  11.535
78480W        W45021  43.890  30.519  12.002
78481W        W45022  40.480  10.280   2.517
78482W        W45023  18.505  11.274   1.760
78483W        W45024   3.849   8.288  13.032
78484W        W45025  39.010  11.750  12.514
78485W        W45026  11.924  41.809  13.410
78486W        W45027  19.984  10.390  11.572
78487W        W45028  42.050  23.114  10.539
78488W        W45029  18.522  41.559  13.296
78489W        W45030  36.318  29.529   2.140
78490W        W45031  32.484  44.743  14.882
78491W        W45032   9.697  20.658  11.574
78492W        W45033  10.807  24.602   3.560
78493W        W45034   7.865  15.397   0.983
78494W        W45035  44.444   3.878   0.863
78495W        W45036  29.421  17.906  13.401
78496W        W45037  24.689   1.803   2.694
78497W        W45038  15.852  44.069  12.942
78498W        W45039  33.530  33.801   4.512
78499W        W45040  40.714   8.307   0.321
78500W        W45041  17.818  36.997   2.136
78501W        W45042  30.596   4.382  11.835
78502W        W45043   4.679   6.449   9.973
78503W        W45044   9.998  12.247   4.164
78504W        W45045   5.733  36.523  13.823
78505W        W45046  22.837  30.233   4.979
78506W        W45047  23.032   5.153  12.133
78507W        W45048  17.148  39.177  12.021
78508W        W45049   6.760  11.240  13.149
78509W        W45050  19.038  18.637  12.178
78510W        W45051  30.935  32.139   1.968
78511W        W45052  31.677   8.626  13.303
78512W        W45053  43.917  44.998  11.534
78513W        W45054  10.374  36.578  12.002
78514W        W45055  24.257  41.287  14.025
78515W        W45056  43.962   9.188  14.114
78516W        W45057  34.422   3.720   1.290
78517W        W45058   8.746  27.170   2.215
78518W        W45059  37.185  32.431  13.770
78519W        W45060  24.649   0.530   2.688
78520W        W45061  35.724  20.007  11.622
78521W        W45062  36.528  13.728  10.527
78522W        W45063  10.941  28.577   3.588
78523W        W45064  38.264  35.994   4.174
78524W        W45065  41.427  20.215  12.369
78525W        W45066  26.677  14.018  11.592
78526W        W45067  27.117  20.327   1.322
78527W        W45068  40.510   7.068   0.755
78528W        W45069  36.344  26.046   4.773
78529W        W45070   2.100   5.730   3.829
78530W        W45071  30.917  15.632   4.788
78531W        W45072  25.630  43.026   4.066
78532W        W45073  32.560  25.573  14.094
78533W        W45074   3.033  29.975   1.734
78534W        W45075  27.885  29.563  14.210
78535W        W45076  20.170  25.082   1.006
78536W        W45077  34.807  32.638   0.286
78537W        W45078  31.470   6.877   1.259
78538W        W45079  10.982  14.989  13.320
78539W        W45080  30.311  12.138   1.367
78540W        W45081  38.166  19.746  10.796
78541W        W45082  29.213  40.602   1.007
78542W        W45083   9.918  33.042  10.659
78543W        W45084   2.724  36.892  12.378
78544W        W45085  29.528   9.608   4.243
78545W        W45086  34.624  20.555   1.837
78546W        W45087  38.045  32.109   2.268
78547W        W45088  42.957   0.482   0.826
78548W        W45089  40.523   2.432  14.001
78549W        W45090  14.285  17.394  11.418
78550W        W45091  41.529   9.879  10.634
78551W        W45092  27.954  32.560   4.235
78552W        W45093  37.643   4.948   4.021
78553W        W45094  29.154  19.452   4.507
78554W        W45095  30.125  37.939   0.540
78555W        W45096  39.374   7.884   2.272
78556W        W45097  24.079  32.120  11.176
78557W        W45098  27.891  27.888  12.021
78558W        W45099  42.981   5.130  12.464
78559W        W45100  32.065  42.929   2.236
78560W        W45101   9.900  16.529   2.371
78561W        W45102  21.304  17.543  12.477
78562W        W45103  18.330  37.385  11.657
78563W        W45104  34.886  34.837  10.010
78564W        W45105  24.040  31.067   4.683
78565W        W45106   1.152  28.206   3.661
78566W        W45107  28.064   0.740  11.019
78567W        W45108  40.584  29.144   2.168
78568W        W45109   9.335  16.471   1.230
78569W        W45110   0.266   2.927   3.364
78570W        W45111  12.198  12.926   3.173
78571W        W45112  17.126  12.321  11.246
78572W        W45113  24.547  40.183   3.625
78573W        W45114   3.099  42.434   4.628
78574W        W45115  32.547   9.634   3.486
78575W        W45116  30.011  26.160  10.690
78576W        W45117   1.062  15.147   3.623
78577W        W45118  17.530  42.531  11.089
78578W        W45119   9.162   0.387   4.686
78579W        W45120  12.718  16.836   1.954
78580W        W45121  17.698  25.460   1.812
78581W        W45122  13.702   2.047  14.367
78582W        W45123  40.441   0.513   4.316
78583W        W45124  30.848  12.695   0.176
78584W        W45125  31.108  41.297  10.656
78585W        W45126  22.635  43.224   0.303
78586W        W45127  40.582  15.758   0.284
78587W        W45128  17.744  25.544  10.690
78588W        W45129  12.130  14.110  11.580
78589W        W45130  10.822  14.663   1.944
78590W        W45131  30.426  15.735   3.400
78591W        W45132  34.362   4.713   1.317
78592W        W45133  27.527  34.062   2.966
78593W        W45134  19.247   3.411  11.947
78594W        W45135  30.050  16.428   0.119
78595W        W45136   5.857  14.300  11.401
78596W        W45137  22.492  25.920   4.117
78597W        W45138  13.331  26.999   4.261
78598W        W45139  11.225  36.848  12.081
78599W        W45140  34.453  19.302  13.381
78600W        W45141  26.566   1.355  13.006
78601W        W45142   7.271  26.766   2.962
78602W        W45143  13.669  44.789  12.150
78603W        W45144  23.616  11.595   1.889
78604W        W45145  10.202  15.325  13.862
78605W        W45146  24.704  40.993   4.150
78606W        W45147  38.322  16.639   9.876
78607W        W45148  12.142  11.878  12.282
78608W        W45149  11.340   0.846   4.925
78609W        W45150  32.448  32.358   4.756
78610W        W45151  27.181  41.418   3.484
78611W        W45152  35.303  32.055   3.762
78612W        W45153  15.659  21.823  11.167
78613W        W45154  21.897  39.391  11.470
78614W        W45155   5.369  22.857  14.489
78615W        W45156  35.164  15.245  12.838
78616W        W45157  41.763  14.759   1.760
78617W        W45158  37.934   7.914  10.564
78618W        W45159  33.595  33.462   1.858
78619W        W45160  11.304  32.396  11.915
78620W        W45161  29.312  18.811   0.839
78621W        W45162  33.662  16.114  13.759
78622W        W45163  33.541  14.333   4.050
78623W        W45164  32.863  40.647   1.862
78624W        W45165  33.173   4.314  12.855
78625W        W45166   3.323  34.530   2.438
78626W        W45167   8.913  44.273   0.684
78627W        W45168  11.247  40.424  11.932
78628W        W45169  28.088  32.976  11.767
78629W        W45170   9.232  44.229  10.635
78630W        W45171  39.367  28.738   4.211
78631W        W45172  12.097  35.900   3.739
78632W        W45173  20.828  32.066   2.242
78633W        W45174   7.862  30.573   3.870
78634W        W45175  19.748  42.342   0.040
78635W        W45176  23.042  40.771  14.303
78636W        W45177  14.392  36.946   0.908
78637W        W45178  16.230  32.854   2.341
78638W        W45179  24.643   9.608   0.773
78639W        W45180  30.224  39.784  11.225
78640W        W45181   0.854  21.839  11.651
78641W        W45182   3.467  11.084   1.626
78642W        W45183  25.464  28.962  14.032
78643W        W45184  16.507  19.642  12.488
78644W        W45185  37.094  33.729   2.631
78645W        W45186  30.561  12.410   2.285
78646W        W45187  29.568   1.805   3.606
78647W        W45188  14.787  44.313   2.729
78648W        W45189  38.404  33.044   1.668
78649W        W45190   4.932   8.873  13.017
78650W        W45191   5.896  22.480  11.192
78651W        W45192  21.194  29.922  10.914
78652W        W45193  12.402  44.577   0.445
78653W        W45194  19.713  44.239  11.502
78654W        W45195  21.695   0.825   0.864
78655W        W45196  37.362  36.868  11.837
78656W        W45197  36.457  26.438  12.403
78657W        W45198  13.171   7.197  12.443
78658W        W45199   8.946  37.852  12.864
78659W        W45200  17.799  21.068  10.924
78660W        W45201  26.281  20.800   3.828
78661W        W45202  34.442  25.293  13.647
78662W        W45203  33.628  40.127  10.268
78663W        W45204  43.295  41.324   4.987
78664W        W45205  26.071  17.541   4.263
78665W        W45206  28.997  43.101  14.351
78666W        W45207  27.243   1.397  11.711
78667W        W45208  28.961  12.273  13.351
78668W        W45209  35.981  44.478  14.129
78669W        W45210   2.043  22.728   3.732
78670W        W45211   9.902  27.978   2.834
78671W        W45212   0.039   5.876  14.486
78672W        W45213  41.139   8.627  13.441
78673W        W45214  37.630  31.444  12.393
78674W        W45215  33.100  33.722   1.657
78675W        W45216  44.230   9.193   3.643
78676W        W45217  11.068  28.431   3.098
78677W        W45218  43.604  28.248   0.853
78678W        W45219  37.973  21.623  10.820
78679W        W45220   0.836  13.801   0.769
78680W        W45221  34.186  16.752  13.484
78681W        W45222  32.102   6.725  11.601
78682W        W45223  18.256  40.018  11.112
78683W        W45224  40.858  16.338  12.033
78684W        W45225   9.631   7.303  11.945
78685W        W45226  37.354  26.480   3.771
78686W        W45227  16.127  21.214   4.532
78687W        W45228  15.119  12.332  14.102
78688W        W45229   8.089   7.847   2.061
78689W        W45230  34.455  41.541  10.784
78690W        W45231   8.790  34.945   0.378
78691W        W45232  40.144  21.185   5.122
78692W        W45233  11.282  22.036   0.706
78693W        W45234   6.750  13.396   2.758
78694W        W45235  35.120  22.212   2.422
78695W        W45236  20.137  18.732   3.399
78696W        W45237  15.540  31.092  11.994
78697W        W45238   0.821  27.035  12.225
78698W        W45239   4.859   6.976   2.454
78699W        W45240  19.486  19.053  10.579
78700W        W45241   7.937  32.136   0.156
78701W        W45242   0.952   1.959   5.047
78702W        W45243  34.411  14.993   0.137
78703W        W45244  25.655  17.987  12.119
78704W        W45245  36.385  42.094   1.246
78705W        W45246  41.565  33.824   0.883
78706W        W45247  33.383  15.327   4.572
78707W        W45248  12.982  33.692   5.051
78708W        W45249   0.921  27.511  14.523
78709W        W45250   9.133   9.978   0.100
78710W        W45251  25.485  13.145  14.529
78711W        W45252  37.420  26.168   2.433
78712W        W45253  11.313  40.795   4.740
78713W        W45254  12.729  39.393   1.659
78714W        W45255   5.163   8.116  14.878
78715W        W45256   5.177  25.292  12.637
78716W        W45257  28.339  12.568   3.871
78717W        W45258  37.185  10.808   4.837
78718W        W45259   2.673   5.311   0.361
78719W        W45260   0.232  17.277  13.741
78720W        W45261  42.253   9.295   3.575
78721W        W45262  38.705  16.371   0.987
78722W        W45263  21.667  16.696   3.745
78723W        W45264   9.926  11.133   1.212
78724W        W45265  37.109   7.997  13.464
78725W        W45266   5.552   0.711   2.349
78726W        W45267  42.352   0.859   4.883
78727W        W45268  16.890  29.993   3.692
78728W        W45269  14.396  27.031   3.326
78729W        W45270   3.493   4.094   4.089
78730W        W45271  40.727   0.008   3.501
78731W        W45272   2.198   6.738   0.967
78732W        W45273  38.721  43.379  12.482
78733W        W45274  20.098  22.609  11.644
78734W        W45275  29.176   3.806  12.474
78735W        W45276   9.556  33.954   3.197
78736W        W45277  14.703  13.181  14.635
78737W        W45278   3.474  17.106   3.601
78738W        W45279  32.416   5.226   3.335
78739W        W45280  13.559  29.192  13.860
78740W        W45281  38.114  11.654  14.440
78741W        W45282   0.468   5.387   4.132
78742W        W45283  27.634  27.219  11.606
78743W        W45284   2.207  44.941  11.196
78744W        W45285  37.780  14.577   0.759
78745W        W45286  35.842  15.988  12.180
78746W        W45287   4.369  29.118  10.642
78747W        W45288  42.888  37.888  12.199
78748W        W45289  12.382  39.483   0.198
78749W        W45290  39.574  11.239   1.950
78750W        W45291  33.497  26.348  10.233
78751W        W45292   3.551   5.660   3.676
78752W        W45293  20.990   2.341  14.784
78753W        W45294   6.638  41.285  13.875
78754W        W45295   5.704  37.989  11.234
78755W        W45296   7.605  42.405  14.829
78756W        W45297   0.977  11.588  13.791
78757W        W45298   9.817   5.731   2.760
78758W        W45299   0.182  24.964  11.141
78759W        W45300  15.408  24.199   4.623
78760W        W45301   1.375  38.340   2.676
78761W        W45302  24.605  16.115  14.431
78762W        W45303  25.753   2.692   2.916
78763W        W45304   1.916  36.826   0.565
78764W        W45305  35.573   8.053  11.587
78765W        W45306  24.964  23.519   3.618
78766W        W45307  40.981  32.724   2.877
78767W        W45308   5.594  29.881  14.299
78768W        W45309  38.104  15.696  14.196
78769W        W45310  37.077   7.917  14.735
78770W        W45311  17.489  34.866   4.443
78771W        W45312  11.381  39.131  14.916
78772W        W45313  22.832  22.713  10.418
78773W        W45314  34.590  24.677   3.889
78774W        W45315   8.834  10.623   3.335
78775W        W45316  17.489  13.179  10.348
78776W        W45317   5.921  31.289  12.736
78777W        W45318  10.416  36.205   1.435
78778W        W45319  19.203  12.702   4.480
78779W        W45320  12.122  21.216   3.471
78780W        W45321  15.727  33.498  11.212
78781W        W45322   3.226  15.573  13.711
78782W        W45323  29.152  16.202  10.308
78783W        W45324   1.987  40.284   0.197
78784W        W45325  35.389  27.457   4.141
78785W        W45326  44.272  31.922   3.227
78786W        W45327   0.323   7.845   4.956
78787W        W45328   6.347  32.201   9.958
78788W        W45329   2.828  16.756  13.293
78789W        W45330  10.537   6.104  14.905
78790W        W45331  11.262  25.298  13.844
78791W        W45332   6.325  29.000   0.851
78792W        W45333  25.610  12.174   3.792
78793W        W45334  10.156  21.746   2.930
78794W        W45335  29.069  37.940   3.654
78795W        W45336  14.928  12.691  10.696
78796W        W45337  24.440  12.137  10.757
78797W        W45338   7.985   0.314   2.165
78798W        W45339  30.758  18.159   2.567
78799W        W45340  16.708  22.295  11.611
78800W        W45341  40.589  23.239  13.648
78801W        W45342   7.594  44.213   4.120
78802W        W45343  15.759  44.247  10.758
78803W        W45344  11.814  37.618  13.093
78804W        W45345  37.170  27.490   2.893
78805W        W45346  37.122  21.143  11.980
78806W        W45347  24.535  43.863  13.877
78807W        W45348  31.000  26.209   4.816
78808W        W45349   0.119  11.380  14.719
78809W        W45350  39.460   8.956   1.238
78810W        W45351  24.505  14.098   3.191
78811W        W45352  38.980  21.516  12.034
78812W        W45353   3.962  39.112   3.194
78813W        W45354   2.660  28.125   0.482
78814W        W45355  39.390   1.550   1.477
78815W        W45356  13.256  28.649   0.829
78816W        W45357  27.075  14.355   0.508
78817W        W45358   7.741   8.012  14.018
78818W        W45359  38.089  28.377  11.565
78819W        W45360   5.281  44.365   0.755
78820W        W45361  34.036  14.774   3.199
78821W        W45362  13.054  43.544  12.099
78822W        W45363  14.713  33.568   2.432
78823W        W45364   8.990   5.206   0.741
78824W        W45365   6.875   8.796  11.524
78825W        W45366   5.850  20.538   0.273
78826W        W45367  31.530   4.506  11.543
78827W        W45368  33.402   4.938  13.444
78828W        W45369   4.286  20.742  10.729
78829W        W45370  21.996  39.389  11.970
78830W        W45371   9.415   4.344  11.594
78831W        W45372   8.250  12.956  11.483
78832W        W45373   8.825  28.659  10.566
78833W        W45374   1.491  16.890   2.266
78834W        W45375   6.364  23.023   3.567
78835W        W45376  21.717  25.270   3.394
78836W        W45377  32.293  40.726   2.329
78837W        W45378  41.056   2.816  10.984
78838W        W45379  24.730  27.950   4.276
78839W        W45380  29.066  15.328  14.003
78840W        W45381  28.621  16.233  14.351
78841W        W45382  20.298  34.041   3.218
78842W        W45383  22.512   7.963   2.373
78843W        W45384  15.587  34.822  11.014
78844W        W45385  22.237  23.123  11.563
78845W        W45386  27.744  11.786   1.415
78846W        W45387  42.467   2.210   1.689
78847W        W45388  16.414  14.441   5.459
78848W        W45389   5.940  26.050  14.869
78849W        W45390   0.731  34.804   3.938
78850W        W45391  27.467  26.309   2.319
78851W        W45392  24.690  25.427   0.867
78852W        W45393  27.175  28.003  13.502
78853W        W45394  37.375   4.651   2.031
78854W        W45395  15.312  10.690   4.061
78855W        W45396   8.228  40.837  13.014
78856W        W45397  33.269   5.279  10.910
78857W        W45398  28.232  35.291   0.771
78858W        W45399  21.589  13.713   3.225
78859W        W45400  35.900  22.480  11.413
78860W        W45401  24.082  27.102   4.045
78861W        W45402  27.566  42.277   1.274
78862W        W45403  39.035  18.634   2.666
78863W        W45404  30.644  41.386   0.435
78864W        W45405  21.341  30.719   1.112
78865W        W45406  20.925   8.994  12.507
78866W        W45407   2.562  44.473   4.554
78867W        W45408   7.852  32.724  11.912
78868W        W45409  17.737  20.706   1.258
78869W        W45410   5.718  42.828  11.137
78870W        W45411   9.196  40.313   4.053
78871W        W45412  27.578  26.219   1.396
78872W        W45413  20.592  14.186   1.878
78873W        W45414   6.507   3.802  11.111
78874W        W45415  27.210  15.873   3.661
78875W        W45416   3.923  18.722  12.978
78876W        W45417  26.667  37.590  14.328
78877W        W45418  36.350   1.408  10.722
78878W        W45419  39.065  22.895   0.790
78879W        W45420  32.164  26.746   2.237
78880W        W45421  23.596   7.743  12.533
78881W        W45422  39.815   0.176  13.448
78882W        W45423   4.240  37.261  11.713
78883W        W45424  24.784  43.449  13.078
78884W        W45425   2.686  21.992  13.992
78885W        W45426  26.861   4.728   0.703
78886W        W45427  24.770   5.435  13.344
78887W        W45428   3.751  43.755   4.279
78888W        W45429  36.814   9.577   0.610
78889W        W45430   2.337   1.318  13.922
78890W        W45431   3.731  39.415   4.850
78891W        W45432  28.095  10.386  11.979
78892W        W45433   8.457   3.397   2.497
78893W        W45434  31.875  27.923  10.582
78894W        W45435  13.399  17.483  12.944
78895W        W45436  21.713   6.952  14.759
78896W        W45437   4.277  24.490  11.548
78897W        W45438  22.930   6.312  12.445
78898W        W45439  40.550  14.837  12.974
78899W        W45440  44.501  23.203  10.968
78900W        W45441  23.557  42.002  11.582
78901W        W45442  21.748  42.929   0.749
78902W        W45443  12.657   0.783   2.692
78903W        W45444  16.795  30.979  13.847
78904W        W45445  40.819  44.892  13.926
78905W        W45446  17.812  37.564  10.319
78906W        W45447  10.675  13.928   0.460
78907W        W45448   6.909  26.494  12.951
78908W        W45449   1.352  21.772  11.282
78909W        W45450   2.584  12.864   0.643
78910W        W45451  35.290  34.644   0.281
78911W        W45452  15.919  21.345  11.116
78912W        W45453  25.388  34.975   0.967
78913W        W45454   7.785  12.844   2.876
78914W        W45455  42.038  29.567  10.703
78915W        W45456  43.945  17.988  13.840
78916W        W45457  44.465  14.114  10.877
78917W        W45458  35.550   1.753  11.943
78918W        W45459  38.062  40.600  12.014
78919W        W45460   0.579   3.984   4.173
78920W        W45461  25.544  11.865   2.652
78921W        W45462  44.750   9.951  12.476
78922W        W45463  10.193  15.720   3.402
78923W        W45464  33.805  37.602  12.603
78924W        W45465  10.849  18.839  12.123
78925W        W45466   7.135   6.360  11.989
78926W        W45467  23.217   1.030  12.511
78927W        W45468  18.050  23.170   0.308
78928W        W45469  20.189   0.280  11.069
78929W        W45470  10.881  20.232  12.494
78930W        W45471  18.731   2.397   0.604
78931W        W45472  42.761  16.501   3.503
78932W        W45473  31.994   9.758   0.924
78933W        W45474  29.483  33.669  14.748
78934W        W45475  11.184  20.496  13.445
78935W        W45476  44.928  10.914   1.735
78936W        W45477  25.499  42.823  14.250
78937W        W45478  26.053  38.524  12.527
78938W        W45479  11.643  33.437  11.999
78939W        W45480  33.487  12.086   3.607
78940W        W45481  20.010   1.867   2.102
78941W        W45482  14.208  17.108   2.741
78942W        W45483   7.342  33.380  12.101
78943W        W45484  27.312  21.198   2.730
78944W        W45485  43.131  21.955  10.076
78945W        W45486   2.203  15.951   3.552
78946W        W45487  21.640  23.045   3.990
78947W        W45488  18.337   7.910   2.520
78948W        W45489   9.669   8.858  13.602
78949W        W45490  20.223   2.354  11.989
78950W        W45491  31.093  37.456  13.954
78951W        W45492  11.831  31.824  14.532
78952W        W45493  43.041  34.561  14.399
78953W        W45494  17.427  32.070  13.953
78954W        W45495   6.348   9.693   0.281
78955W        W45496   8.007  39.654  11.373
78956W        W45497  13.337   8.315   3.765
78957W        W45498  31.996  16.164  14.931
78958W        W45499  24.594  31.888  10.544
78959W        W45500  23.564  29.865   1.783
78960W        W45501  28.139   3.893   0.467
78961W        W45502   6.518  18.970   0.480
78962W        W45503  12.030   9.634   1.407
78963W        W45504  32.369  26.469  12.464
78964W        W45505  38.762  25.590   1.323
78965W        W45506  38.950  27.868   1.336
78966W        W45507  39.665  22.053   3.317
78967W        W45508  17.057  43.279   1.164
78968W        W45509  35.406  22.033  11.225
78969W        W45510  33.912  26.936  13.424
78970W        W45511   9.177   6.372  13.076
78971W        W45512   3.275  38.816  14.739
78972W        W45513  10.338  29.672   3.205
78973W        W45514  35.998  44.220  11.114
78974W        W45515  16.110  39.874   0.310
78975W        W45516  11.106  18.206  13.826
78976W        W45517  26.708   6.168   4.100
78977W        W45518  27.787  34.436  11.144
78978W        W45519  34.693  14.094   2.689
78979W        W45520  34.659  15.658  14.455
78980W        W45521   0.873  15.257  10.514
78981W        W45522   5.255  38.778   2.681
78982W        W45523  28.505  11.557  13.569
78983W        W45524   0.030  18.497   2.396
78984W        W45525  37.052  27.643  13.530
78985W        W45526  39.101  35.032  13.353
78986W        W45527  36.109  40.547  12.637
78987W        W45528   5.809  36.841   0.490
78988W        W45529  25.511  13.203  11.588
78989W        W45530   4.757  14.609   0.005
78990W        W45531   0.860  33.643   1.849
78991W        W45532   9.905  32.431   2.701
78992W        W45533  27.157   5.124   2.199
78993W        W45534   1.133  37.369  13.484
78994W        W45535  11.135  42.647   3.500
78995W        W45536  18.725   9.031   3.759
78996W        W45537  35.746  28.495   4.360
78997W        W45538  42.466  17.269  11.904
78998W        W45539  44.858   4.268  11.186
78999W        W45540   5.856  16.766   1.618
79000W        W45541  13.852   6.639   3.752
79001W        W45542  25.753   0.798  11.590
79002W        W45543  20.236  43.001  13.913
79003W        W45544  21.108  14.036  11.548
79004W        W45545   3.996  37.577  14.931
79005W        W45546  39.415  26.120  10.683
79006W        W45547  36.541  18.421   3.367
79007W        W45548   6.205   1.739  11.164
79008W        W45549  44.883   7.725  13.054
79009W        W45550  10.903  20.894   3.891
79010W        W45551   3.485  15.948  14.016
79011W        W45552   7.729  24.299  12.938
79012W        W45553  44.171  13.757  13.069
79013W        W45554   9.879   2.080   3.433
79014W        W45555  27.989  38.065  12.715
79015W        W45556  36.891  22.354   2.460
79016W        W45557  11.076  35.434  13.485
79017W        W45558  40.367  16.335   1.451
79018W        W45559   8.860  10.576   2.316
79019W        W45560  13.278  23.330   1.357
79020W        W45561  10.863  37.265   2.827
79021W        W45562  14.708  14.785   4.807
79022W        W45563  35.459   7.088  10.644
79023W        W45564  20.788  23.646   3.715
79024W        W45565  27.920   3.357  13.005
79025W        W45566  38.566  28.265  11.467
79026W        W45567  13.402   0.335  10.755
79027W        W45568   4.492   1.496   2.971
79028W        W45569  29.418  31.505  11.145
79029W        W45570  43.125  40.246   0.069
79030W        W45571  21.351   8.786  12.778
79031W        W45572   3.739  32.093   1.528
79032W        W45573  33.925   4.465   1.418
79033W        W45574  43.914   3.551  12.175
79034W        W45575  29.281  27.577  12.947
79035W        W45576   2.887  36.453  14.924
79036W        W45577  21.215  37.544   3.641
79037W        W45578  41.700   4.514  14.739
79038W        W45579  28.733  29.769  14.145
79039W        W45580  27.637  36.382  12.851
79040W        W45581  39.085   7.726  11.965
79041W        W45582   1.288  10.244  13.417
79042W        W45583  11.403  36.409  11.882
79043W        W45584  28.103  16.646   3.251
79044W        W45585  28.974  28.478   1.434
79045W        W45586   3.312  37.497   1.871
79046W        W45587  25.625   1.606  13.371
79047W        W45588  17.506  24.525   0.338
79048W        W45589  38.627  14.424   4.076
79049W        W45590  35.452  19.211  12.495
79050W        W45591  44.234   5.788   2.710
79051W        W45592  22.304  24.156   0.450
79052W        W45593  26.214  34.364  14.075
79053W        W45594   1.864  19.913   1.636
79054W        W45595  19.610  41.228   3.650
79055W        W45596  22.598  31.716   3.061
79056W        W45597   4.063  22.697   1.761
79057W        W45598  31.814  14.194   3.274
79058W        W45599   9.818  12.400  13.421
79059W        W45600  24.403  36.229  13.522
79060W        W45601  13.082  32.634   4.067
79061W        W45602  22.287  14.507  11.209
79062W        W45603  22.159  38.010  14.292
79063W        W45604  38.182  31.072  12.939
79064W        W45605  42.641  22.707   2.344
79065W        W45606  40.416  40.022   3.202
79066W        W45607  24.929   5.566   3.723
79067W        W45608  34.348  43.680   0.027
79068W        W45609   8.118  21.110   0.738
79069W        W45610   1.705  18.356   0.795
79070W        W45611   8.378  15.360   2.229
79071W        W45612  38.426  15.557   0.867
79072W        W45613  18.547  43.451   1.669
79073W        W45614  11.403  23.954  11.091
79074W        W45615  19.833  33.972  10.602
79075W        W45616   0.489   0.130   4.937
79076W        W45617  24.497  10.802  12.069
79077W        W45618  29.716  37.884  10.967
79078W        W45619  21.600  20.263   2.214
79079W        W45620  42.267  20.610  12.387
79080W        W45621   2.327   8.453   3.337
79081W        W45622  15.892   7.969   0.827
79082W        W45623  11.701  21.550  11.045
79083W        W45624  21.981  11.956   3.725
79084W        W45625  11.758  27.669   4.369
79085W        W45626  14.329  27.045  13.427
79086W        W45627  31.888   1.749  11.039
79087W        W45628  43.503   5.681   1.851
79088W        W45629  10.356  34.580  13.790
79089W        W45630  22.149  34.566   2.318
79090W        W45631  19.206  44.077  12.369
79091W        W45632   8.137  22.205  14.396
79092W        W45633   9.687  37.099  12.043
79093W        W45634  37.905  30.595   3.255
79094W        W45635  40.116  23.470   2.206
79095W        W45636   0.081  21.498  14.952
79096W        W45637  31.059  19.894   4.671
79097W        W45638  34.872  27.330   2.478
79098W        W45639  12.527  11.630   5.196
79099W        W45640   1.299  19.185  11.435
79100W        W45641  10.642  33.021  11.401
79101W        W45642  39.902   0.502  11.546
79102W        W45643  17.161  38.083   0.703
79103W        W45644  17.280  10.293  12.383
79104W        W45645   4.285   0.633  12.929
79105W        W45646  37.299  32.594   2.951
79106W        W45647   1.510  38.082  14.780
79107W        W45648  26.431  22.462  12.455
79108W        W45649  30.464  30.132  12.496
79109W        W45650  21.043  36.482   2.505
79110W        W45651   1.815  22.303   3.985
79111W        W45652  24.612  35.457   3.174
79112W        W45653  10.463  22.427   4.089
79113W        W45654  29.000  35.743  13.724
79114W        W45655  12.829  30.408  10.248
79115W        W45656  32.943  23.813   2.644
79116W        W45657  14.070  36.526  14.964
79117W        W45658  43.259   9.649   4.628
79118W        W45659  18.348  18.592   3.704
79119W        W45660  11.631   4.488  10.356
79120W        W45661  16.530  20.005  13.267
79121W        W45662  16.941  21.123   1.241
79122W        W45663   3.812  23.684   3.638
79123W        W45664  33.936   0.616   9.714
79124W        W45665  43.040  20.672  10.775
79125W        W45666  39.253  10.601   0.732
79126W        W45667  22.433   7.609   9.886
79127W        W45668  31.115  28.340   0.083
79128W        W45669   4.927  37.400   3.220
79129W        W45670  14.181  43.726   3.306
79130W        W45671  11.624   4.224  13.509
79131W        W45672   3.526  39.767   1.760
79132W        W45673  20.658  36.614   0.453
79133W        W45674  27.137  15.352  11.148
79134W        W45675  41.251   4.276  14.476
79135W        W45676  40.943  41.084   0.964
79136W        W45677   9.864  39.790  11.450
79137W        W45678  39.674  11.767   9.887
79138W        W45679  14.165  39.998   1.341
79139W        W45680  14.858  23.487   3.209
79140W        W45681  28.091  11.535   3.020
79141W        W45682  26.974  14.295   5.186
79142W        W45683  20.762  33.660   0.966
79143W        W45684  44.898  13.775   0.815
79144W        W45685   5.938  37.434  13.743
79145W        W45686  14.144  34.932   0.485
79146W        W45687  21.630  26.079  14.359
79147W        W45688  17.101  36.852  14.828
79148W        W45689  30.435  25.355  14.284
79149W        W45690  32.688  38.128   2.843
79150W        W45691  41.546   6.612  11.952
79151W        W45692   9.326  44.048  12.740
79152W        W45693  34.008   6.791  13.711
79153W        W45694  29.278   5.356   2.157
79154W        W45695  26.875  40.437  14.998
79155W        W45696  24.270  12.661   3.588
79156W        W45697  21.690   7.829  12.950
79157W        W45698  10.825  27.390  13.002
79158W        W45699  37.963  19.786   0.272
79159W        W45700  18.763  37.928  14.826
79160W        W45701  29.201  39.153  10.354
79161W        W45702  12.903  29.086  12.914
79162W        W45703  30.342  41.285  13.778
79163W        W45704  12.083   9.962   1.829
79164W        W45705  12.136  32.613  13.037
79165W        W45706  34.990  28.009   0.799
79166W        W45707  17.206  19.179   1.384
79167W        W45708  35.883  18.200   1.386
79168W        W45709   3.512  37.914  14.290
79169W        W45710  25.763  38.076  12.609
79170W        W45711  43.877   3.741   2.475
79171W        W45712  13.117   2.260   2.852
79172W        W45713  27.290  26.101   3.137
79173W        W45714   9.291  18.140  11.563
79174W        W45715   1.505  37.812  10.861
79175W        W45716  15.478  15.592   2.061
79176W        W45717  41.992  39.340  12.964
79177W        W45718  30.065  44.466  13.512
79178W        W45719  41.456  24.802   2.789
79179W        W45720  10.722  27.091  10.448
79180W        W45721  23.794  43.445   4.049
79181W        W45722  35.408  16.079   1.841
79182W        W45723  20.958  35.673  13.314
79183W        W45724  20.327  33.364   3.882
79184W        W45725  24.582  38.962   1.125
79185W        W45726  26.539  34.067   2.786
79186W        W45727  23.349  14.443   3.774
79187W        W45728  20.481  27.766  12.109
79188W        W45729   3.871   1.559   3.598
79189W        W45730  41.837   7.922   0.446
79190W        W45731  39.654  44.148  10.348
79191W        W45732  39.509   0.450   2.279
79192W        W45733  32.880  26.462   4.892
79193W        W45734  40.033   3.644  10.469
79194W        W45735  27.504  20.076   0.424
79195W        W45736   8.969   9.736  14.644
79196W        W45737  34.166  12.802   1.697
79197W        W45738  12.639   2.611  12.845
79198W        W45739   9.077  19.151  11.637
79199W        W45740  26.673  29.251  13.402
79200W        W45741   2.782   4.226   1.740
79201W        W45742  33.443  35.519   2.051
79202W        W45743  44.486  38.125  11.052
79203W        W45744  10.680  21.776   2.726
79204W        W45745  41.709   7.549  11.624
79205W        W45746  42.993  26.187  10.956
79206W        W45747  36.670  17.215   5.078
79207W        W45748  19.789  34.547   0.114
79208W        W45749   1.392  32.107   1.270
79209W        W45750  12.904  18.120  12.441
79210W        W45751  20.721  18.793   0.232
79211W        W45752  23.486  23.541  11.477
79212W        W45753  11.805   9.381   3.821
79213W        W45754  15.625  39.740  14.953
79214W        W45755  16.805  43.336  11.552
79215W        W45756  23.052  18.303  13.203
79216W        W45757  15.129  19.803   4.069
79217W        W45758  18.475  34.587  11.632
79218W        W45759  37.841  26.590   0.009
79219W        W45760  29.550  12.777   1.007
79220W        W45761   4.414   0.023   3.073
79221W        W45762  38.015  34.819   0.783
79222W        W45763  23.292   3.350  14.949
79223W        W45764  15.108   5.791   1.841
79224W        W45765  21.077  27.574   4.635
79225W        W45766  16.340  42.849  12.968
79226W        W45767  21.723   0.071   4.880
79227W        W45768  23.488  24.665   0.894
79228W        W45769   5.404   7.873   1.390
79229W        W45770  34.483  18.773  12.918
79230W        W45771  23.454  12.354   2.351
79231W        W45772   0.454  35.364  13.842
79232W        W45773  19.279   9.799  14.253
79233W        W45774   3.135  44.251  10.612
79234W        W45775   7.197  30.616   4.058
79235W        W45776  28.034  33.504  13.272
79236W        W45777  39.915   6.399   3.753
79237W        W45778  34.705  17.009   2.685
79238W        W45779  23.124  28.132  13.804
79239W        W45780  40.064  36.376  13.431
79240W        W45781  21.203  22.155  12.692
79241W        W45782  23.206  16.313   2.368
79242W        W45783  13.077   3.170   1.917
79243W        W45784  19.024  34.871  14.808
79244W        W45785  40.176   8.192  14.419
79245W        W45786  11.633   6.364   0.911
79246W        W45787  26.684  41.996   0.915
79247W        W45788  27.624  24.988  12.899
79248W        W45789  39.586  35.800   3.725
79249W        W45790   7.118  22.474   2.616
79250W        W45791   2.298  42.024   2.308
79251W        W45792  24.064  13.761   1.106
79252W        W45793  26.980  17.371   2.758
79253W        W45794  44.871  31.600   0.767
79254W        W45795  21.641  39.462   3.580
79255W        W45796  24.678  31.490   1.880
79256W        W45797   7.480  17.191   2.715
79257W        W45798  26.575  18.306   1.062
79258W        W45799  10.589  43.344   0.035
79259W        W45800   2.406  13.793   0.427
79260W        W45801   8.136  31.043   3.590
79261W        W45802  17.302  31.060  14.860
79262W        W45803  29.823   3.622  11.524
79263W        W45804  32.256  35.376  10.633
79264W        W45805  22.258  34.450  12.488
79265W        W45806  42.224  24.267  11.586
79266W        W45807  32.552  43.213   3.635
79267W        W45808  28.488  13.848  10.724
79268W        W45809  13.190  38.915  11.897
79269W        W45810  43.800   9.905   0.880
79270W        W45811   8.314  13.633  13.112
79271W        W45812  28.585  10.380  12.583
79272W        W45813   4.778   7.131  14.563
79273W        W45814  42.527  42.850  12.456
79274W        W45815  37.936  24.875  12.950
79275W        W45816  25.686  10.599   0.450
79276W        W45817  10.322  24.577   1.904
79277W        W45818  29.998  27.674  14.278
79278W        W45819  21.255   9.272   2.715
79279W        W45820  31.387  29.354   3.908
79280W        W45821  33.398  28.197  10.355
79281W        W45822  29.862  28.331   3.620
79282W        W45823  42.416  13.794   3.724
79283W        W45824   4.288  44.507  14.469
79284W        W45825  34.280   2.253  12.945
79285W        W45826  21.635  21.116  11.182
79286W        W45827  14.570  21.464   0.481
79287W        W45828  28.006   3.718   3.969
79288W        W45829  39.796  27.462   0.714
79289W        W45830  24.008  33.256  11.907
79290W        W45831  14.060   7.999  13.339
79291W        W45832  13.782  42.968   3.272
79292W        W45833  25.463  15.830  11.308
79293W        W45834  10.313  14.540   2.650
79294W        W45835  21.575   1.953   1.351
79295W        W45836  33.470   7.795  13.310
79296W        W45837  28.077  37.887  11.585
79297W        W45838  15.888  25.547  12.843
79298W        W45839  12.341  25.253   1.309
79299W        W45840   2.972  13.667  11.306
79300W        W45841   2.262  17.774   0.036
79301W        W45842  39.184  11.249  11.482
79302W        W45843  19.808  13.296  11.662
79303W        W45844  10.233  42.518   0.505
79304W        W45845  37.124   3.217  14.447
79305W        W45846   6.032  43.728   2.214
79306W        W45847   7.302   7.216   4.184
79307W        W45848  29.744  11.569   5.511
79308W        W45849  39.211  30.027   4.781
79309W        W45850   0.259  16.704   0.134
79310W        W45851  22.872  37.307   0.784
79311W        W45852  10.297  30.073   4.842
79312W        W45853   0.358   2.476   3.145
79313W        W45854  10.866  11.477  10.664
79314W        W45855  12.654  43.539  14.392
79315W        W45856  18.627  40.059   1.930
79316W        W45857  21.604  29.872   1.399
79317W        W45858   8.009  26.880  12.036
79318W        W45859  32.991  12.560   1.471
79319W        W45860  11.654  15.772  14.393
79320W        W45861   8.288   6.289  12.890
79321W        W45862  38.780   5.839   2.335
79322W        W45863  29.494  21.653  13.478
79323W        W45864  22.660  28.190  13.630
79324W        W45865   7.616  15.230  14.395
79325W        W45866  22.305  44.848   1.152
79326W        W45867  43.917  32.708   1.729
79327W        W45868  44.497  34.811  11.611
79328W        W45869  40.346  35.677   4.691
79329W        W45870   8.536  36.010  14.813
79330W        W45871   9.123  28.938   2.435
79331W        W45872  14.336  24.327  12.872
79332W        W45873  40.757  44.300   3.242
79333W        W45874   6.422  25.537  14.247
79334W        W45875   8.795  43.684  12.011
79335W        W45876  33.307  24.571   0.898
79336W        W45877  31.249  28.519   1.767
79337W        W45878  33.347   2.494   1.033
79338W        W45879  33.326  24.032   4.300
79339W        W45880  27.574  43.521  10.340
79340W        W45881  23.239  35.095   0.504
79341W        W45882   8.014  31.106   1.793
79342W        W45883  19.119  28.514   3.196
79343W        W45884  19.624  18.179   0.114
79344W        W45885  35.562  24.962  14.552
79345W        W45886  25.971   7.217  12.928
79346W        W45887   5.253  32.257  11.726
79347W        W45888  24.830  33.079   0.461
79348W        W45889  30.519  43.678   1.968
79349W        W45890   4.987  24.762   3.836
79350W        W45891   4.508  34.316   4.275
79351W        W45892  32.990  42.905  12.617
79352W        W45893  13.704   2.809   1.269
79353W        W45894  12.288  20.289   2.394
79354W        W45895  19.012  40.420  11.923
79355W        W45896  31.252  30.491   2.866
79356W        W45897  42.335  30.079   1.746
79357W        W45898   1.334  11.195  11.436
79358W        W45899  43.344   8.003  13.202
79359W        W45900  17.986  29.854  10.962
79360W        W45901  37.019  37.855   4.191
79361W        W45902  22.298  39.034   0.957
79362W        W45903  33.111   4.825  12.868
79363W        W45904  42.419  15.670  11.157
79364W        W45905  26.398  35.506   4.585
79365W        W45906  19.418   7.043   5.522
79366W        W45907  34.796  28.905   3.695
79367W        W45908  38.927  16.702  11.628
79368W        W45909  12.602  21.941   0.839
79369W        W45910  18.157  43.516   1.979
79370W        W45911  24.853  36.953  14.830
79371W        W45912  14.588  42.475   3.385
79372W        W45913  41.354  32.143  11.590
79373W        W45914  22.384  13.697   3.852
79374W        W45915  31.075   3.509  14.718
79375W        W45916   3.215  36.644  14.545
79376W        W45917   2.990  24.508   1.852
79377W        W45918   0.352  19.215  12.566
79378W        W45919  32.024  18.551   2.232
79379W        W45920  27.221   4.360   0.549
79380W        W45921   6.837  17.678   4.700
79381W        W45922  10.594  18.138   1.460
79382W        W45923  29.986  11.144  11.136
79383W        W45924   1.778  42.193  11.138
79384W        W45925  22.149  15.334  13.283
79385W        W45926  35.680  42.404   2.801
79386W        W45927   5.512  21.080   4.683
79387W        W45928   0.475  32.134   1.318
79388W        W45929   8.459  42.990   4.059
79389W        W45930   8.711  43.430  14.932
79390W        W45931  12.450   4.377   1.663
79391W        W45932  12.195  22.266  14.656
79392W        W45933  39.304  11.254  12.467
79393W        W45934  25.201  17.045  10.969
79394W        W45935  15.581  25.585   4.770
79395W        W45936  38.078  28.702   1.217
79396W        W45937  10.298  42.754   2.863
79397W        W45938  23.929  15.248  12.460
79398W        W45939  14.818   8.422  12.619
79399W        W45940   0.490   2.457   1.190
79400W        W45941  33.666  20.500   2.751
79401W        W45942  40.503  35.949   2.835
79402W        W45943  44.331  20.659   4.627
79403W        W45944  38.625  40.852   3.755
79404W        W45945   4.073   3.395  11.182
79405W        W45946  12.207  28.178   1.965
79406W        W45947  36.354  14.573   4.213
79407W        W45948  17.696  21.717  13.771
79408W        W45949  18.802  12.534  14.437
79409W        W45950  19.562  27.596  13.983
79410W        W45951  31.149  38.353  12.825
79411W        W45952  17.491  44.279  12.158
79412W        W45953  39.748  15.754  12.571
79413W        W45954  36.072  23.564   1.795
79414W        W45955  23.743   0.888  12.587
79415W        W45956  13.795  29.877   2.305
79416W        W45957   7.609  31.666  14.441
79417W        W45958   7.654  15.310  11.890
79418W        W45959  41.382  42.332   4.079
79419W        W45960  38.583  40.436  12.044
79420W        W45961  35.980  14.650  13.207
79421W        W45962  34.450  33.170   1.071
79422W        W45963  43.420   4.434   3.968
79423W        W45964  14.869  13.717  12.346
79424W        W45965  16.808  18.824  14.677
79425W        W45966   2.910   2.339  14.596
79426W        W45967  43.850  37.210  10.433
79427W        W45968  44.300  36.195  14.557
79428W        W45969  29.714  10.825  13.594
79429W        W45970   2.210   5.452   4.591
79430W        W45971  22.000  25.815  12.906
79431W        W45972  18.519  21.038  11.621
79432W        W45973  25.383  10.143  12.912
79433W        W45974  20.283  30.160   3.815
79434W        W45975  18.745  43.304   3.737
79435W        W45976  43.055  38.710  14.450
79436W        W45977  20.615  19.005   2.340
79437W        W45978  10.089  30.599  11.540
79438W        W45979   6.190  15.305  14.177
79439W        W45980  34.836  32.569   2.828
79440W        W45981   4.943  29.656   0.903
79441W        W45982   0.445  19.493   3.903
79442W        W45983  32.957  29.783   4.887
79443W        W45984  18.572  35.887   1.763
79444W        W45985  16.310   5.107  11.895
79445W        W45986  30.589  38.415  10.648
79446W        W45987  29.059  33.766   4.666
79447W        W45988  10.678   2.911  10.659
79448W        W45989   4.516  16.623   0.022
79449W        W45990   3.944  34.502   4.190
79450W        W45991  16.381   0.464   3.109
79451W        W45992  40.332  35.875   0.816
79452W        W45993  33.437  15.566  12.550
79453W        W45994  31.558  38.398  14.462
79454W        W45995  26.298  18.782  11.543
79455W        W45996  15.653  23.554  13.334
79456W        W45997  18.681  32.080  10.627
79457W        W45998   3.243  19.705   1.999
79458W        W45999  44.593  41.660  13.063
79459W        W46000  20.314   8.203   1.373
79460W        W46001  17.064  34.322  14.400
79461W        W46002  13.701  14.699  14.733
79462W        W46003  11.405  32.052  11.529
79463W        W46004  31.856   2.336   9.833
79464W        W46005  44.679  23.097  11.978
79465W        W46006  30.951  40.848  13.282
79466W        W46007  32.998  26.993  14.467
79467W        W46008  28.511   6.781   3.225
79468W        W46009  14.324  15.717   1.701
79469W        W46010  27.612  24.625   0.261
79470W        W46011  17.827   6.272  13.822
79471W        W46012  38.950  20.776  11.237
79472W        W46013  35.724   7.200   4.043
79473W        W46014  32.486   0.257  14.882
79474W        W46015   8.269  37.008  14.275
79475W        W46016  41.782   8.278   3.099
79476W        W46017  26.503  34.830   0.366
79477W        W46018  32.699  21.574  13.877
79478W        W46019  17.626  20.745  11.286
79479W        W46020  29.122  11.218   4.607
79480W        W46021  44.258  29.487   4.322
79481W        W46022  21.163  44.144   2.162
79482W        W46023   8.432   2.238  11.838
79483W        W46024  17.211  41.243  12.078
79484W        W46025  15.761  10.123  11.578
79485W        W46026  40.230  23.079  14.590
79486W        W46027  22.590  37.323  11.534
79487W        W46028   4.379  30.940   0.759
79488W        W46029  11.088   2.011   3.729
79489W        W46030  22.107   7.186  13.571
79490W        W46031  36.892   5.178  13.035
79491W        W46032  26.293  39.480   3.239
79492W        W46033  22.373   4.009  13.338
79493W        W46034   2.632  34.867   0.914
79494W        W46035  13.716   3.276  14.989
79495W        W46036  44.761  16.833   0.164
79496W        W46037  41.883  30.010  14.008
79497W        W46038  32.587   6.187   0.931
79498W        W46039  37.431  32.895   2.122
79499W        W46040   5.874  22.602  13.535
79500W        W46041   5.398  28.354   2.844
79501W        W46042  24.668   3.177   4.919
79502W        W46043  29.629   9.384  13.928
79503W        W46044  42.016  23.158   2.194
79504W        W46045   6.692  20.414   0.460
79505W        W46046  36.293  10.695   4.818
79506W        W46047  19.049  11.412  13.015
79507W        W46048  33.350  24.141  11.553
79508W        W46049  23.721  17.266   3.175
79509W        W46050  11.852  22.930   0.256
79510W        W46051   5.417   5.569   0.868
79511W        W46052  33.538  28.705   2.941
79512W        W46053  10.940   3.441   0.749
79513W        W46054  15.165  44.554   2.029
79514W        W46055  16.303  10.673  14.484
79515W        W46056  27.899   2.182  14.467
79516W        W46057  25.247  42.864  14.716
79517W        W46058  30.962   1.663  13.485
79518W        W46059  29.029  30.959   1.034
79519W        W46060  25.775   9.400  12.570
79520W        W46061  20.786  15.160   0.342
79521W        W46062  11.835  43.440  10.766
79522W        W46063  40.929  29.720   3.114
79523W        W46064   2.813  19.170   2.460
79524W        W46065  17.503   6.242   2.812
79525W        W46066  22.242  22.740   5.091
79526W        W46067  10.393  11.209  14.543
79527W        W46068  28.094  38.254  13.998
79528W        W46069  38.239  24.094  13.382
79529W        W46070   9.737  30.828  14.197
79530W        W46071  19.102   0.293  12.964
79531W        W46072  28.033   7.357   0.209
79532W        W46073  21.476  43.086  13.393
79533W        W46074  14.558  43.478  13.330
79534W        W46075  20.556   1.415   4.852
79535W        W46076   7.266   2.071  13.776
79536W        W46077  20.570   0.249  11.469
79537W        W46078  19.851  43.525  11.991
79538W        W46079   8.826  27.647   0.382
79539W        W46080  27.134  19.737   1.590
79540W        W46081  20.079  20.507  12.656
79541W        W46082  40.967  36.002   1.442
79542W        W46083  25.450  44.889  12.926
79543W        W46084  37.016   2.397   4.635
79544W        W46085  34.151  22.923   0.356
79545W        W46086  26.141   7.907  14.949
79546W        W46087  35.592  18.834   2.284
79547W        W46088  25.485  21.194  11.485
79548W        W46089  17.141  18.846   0.881
79549W        W46090   2.437  31.448  11.821
79550W        W46091  24.519  18.044  10.778
79551W        W46092  10.154  19.037   1.760
79552W        W46093  12.938  21.669   2.170
79553W        W46094  37.065  41.156   3.498
79554W        W46095  32.022  17.808  11.997
79555W        W46096  35.625   6.010   5.380
79556W        W46097  27.942  23.984   1.440
79557W        W46098  13.799  19.803   1.836
79558W        W46099  15.202  21.210   3.829
79559W        W46100  10.851   6.357   2.014
79560W        W46101  28.601   9.968  11.608
79561W        W46102  28.921  30.922   4.131
79562W        W46103  32.336  40.250   3.761
79563W        W46104   4.006   8.500   1.318
79564W        W46105  33.868  23.877  13.970
79565W        W46106  41.471  36.503  10.433
79566W        W46107  24.844  37.014  11.720
79567W        W46108   1.323   0.287  12.021
79568W        W46109   0.467   2.815   0.826
79569W        W46110  13.656  14.747   3.594
79570W        W46111   1.304  43.332  13.135
79571W        W46112  11.406  30.903   3.251
79572W        W46113  11.758  34.408   2.687
79573W        W46114   1.685   9.426  14.749
79574W        W46115  40.511  31.425  10.621
79575W        W46116   4.111  30.534   0.510
79576W        W46117   9.645  28.219   1.824
79577W        W46118  19.450  30.122  12.595
79578W        W46119  33.997  30.352  13.488
79579W        W46120  38.780   4.671  14.503
79580W        W46121   7.946   5.875   4.909
79581W        W46122  32.075  35.947   4.280
79582W        W46123   2.768  38.560  12.908
79583W        W46124  40.585  30.628   0.927
79584W        W46125  17.811  31.912  11.783
79585W        W46126  28.638   7.764   0.877
79586W        W46127   9.844  31.909   1.241
79587W        W46128  29.641  32.263   4.557
79588W        W46129  23.552  10.333  13.522
79589W        W46130   6.379  42.966   5.072
79590W        W46131  28.651  39.185   0.985
79591W        W46132  15.609  33.731   1.596
79592W        W46133  27.191  12.230  10.636
79593W        W46134  41.844  11.064   0.312
79594W        W46135  10.176  33.118   1.064
79595W        W46136   9.443  18.631   4.205
79596W        W46137   9.896  17.610  11.026
79597W        W46138  41.783  13.018  11.127
79598W        W46139   4.931  17.635  12.616
79599W        W46140  43.812  19.344   2.947
79600W        W46141   3.923  23.768  13.342
79601W        W46142  21.309  41.002   1.177
79602W        W46143  26.859  44.948   3.650
79603W        W46144   6.994  20.182  13.334
79604W        W46145  25.980  22.691  12.490
79605W        W46146  27.712  34.867  12.422
79606W        W46147  15.243  40.429   1.671
79607W        W46148  11.302   0.529  12.022
79608W        W46149  40.542  36.091   3.713
79609W        W46150  18.678  20.287   0.405
79610W        W46151  26.087  36.534  14.062
79611W        W46152  21.015  23.957  12.477
79612W        W46153  30.691  26.449   1.774
79613W        W46154  41.297  22.639   0.436
79614W        W46155  28.220  35.832   4.481
79615W        W46156  41.970  24.644   4.075
79616W        W46157  43.316  24.028  12.911
79617W        W46158  38.063   8.548   2.643
79618W        W46159   9.403   5.374  14.902
79619W        W46160   6.320  24.742  12.849
79620W        W46161  42.396  24.056  12.966
79621W        W46162  18.044  13.207  11.634
79622W        W46163   3.963  24.075   2.455
79623W        W46164  17.289  24.688  11.096
79624W        W46165  35.327  35.385  11.012
79625W        W46166  10.158  29.095  13.936
79626W        W46167  23.816  44.332   0.874
79627W        W46168  17.154  21.736  12.146
79628W        W46169  28.994  34.428   0.713
79629W        W46170   8.256  43.365  10.665
79630W        W46171  15.168  24.180   4.169
79631W        W46172  22.520  10.030   0.730
79632W        W46173  29.654   1.290  12.730
79633W        W46174  17.893  35.890   3.819
79634W        W46175  13.699  31.143   0.323
79635W        W46176  26.601  31.505   0.871
79636W        W46177   0.923  44.512  12.401
79637W        W46178  42.285  24.530  12.799
79638W        W46179  25.698   3.701  10.719
79639W        W46180  21.643  39.786   1.028
79640W        W46181   6.339   2.040  13.544
79641W        W46182  24.232  17.492  13.473
79642W        W46183   4.373  33.858   1.358
79643W        W46184   5.440   7.160   0.002
79644W        W46185  21.219   0.265  12.132
79645W        W46186  16.735   0.822  14.738
79646W        W46187  25.636   3.757   4.694
79647W        W46188  12.224  14.104  12.467
79648W        W46189  38.441  22.572   0.415
79649W        W46190  12.844   9.290  11.130
79650W        W46191  10.396  13.791   1.360
79651W        W46192   6.962   2.426  12.044
79652W        W46193   2.672  19.225  12.954
79653W        W46194  41.568  17.199   1.817
79654W        W46195  36.890  31.971  10.756
79655W        W46196   2.976   4.114   4.117
79656W        W46197  22.177   8.064  11.882
79657W        W46198  23.682  22.685   4.168
79658W        W46199  16.196  28.198   4.396
79659W        W46200  27.559  25.625   4.557
79660W        W46201  32.117  34.931   2.664
79661W        W46202  15.693  41.427   3.505
79662W        W46203  17.028  16.202   4.625
79663W        W46204  12.874  23.487  13.420
79664W        W46205  41.959  22.117  12.143
79665W        W46206  14.536  15.336   1.977
79666W        W46207  43.812  41.373  13.124
79667W        W46208  12.647  20.328   2.790
79668W        W46209  12.630  34.114  11.255
79669W        W46210  26.988  44.776  11.941
79670W        W46211  33.348   0.834  14.771
79671W        W46212   6.345   9.205   4.178
79672W        W46213  36.450   5.032   2.682
79673W        W46214  39.896  26.662   1.338
79674W        W46215  37.701  24.847  12.512
79675W        W46216  22.608  39.977  14.239
79676W        W46217  41.749  31.506  14.939
79677W        W46218  39.251  16.303  13.988
79678W        W46219   1.379  23.489   2.862
79679W        W46220  10.180   9.030  13.430
79680W        W46221  22.478  39.551  12.094
79681W        W46222   0.463  41.871   2.305
79682W        W46223  41.689  36.579   4.028
79683W        W46224  42.605   1.760   1.398
79684W        W46225  21.360  21.326   2.382
79685W        W46226   0.370  35.764  14.758
79686W        W46227  27.722  16.565  12.082
79687W        W46228   7.462  28.706   1.762
79688W        W46229  38.806  36.359  12.705
79689W        W46230  23.730  22.725  11.938
79690W        W46231  42.529  32.433   3.226
79691W        W46232  32.256  24.636  14.467
79692W        W46233  34.635   3.920   4.361
79693W        W46234  40.426  41.249  14.212
79694W        W46235   0.951  33.126  10.677
79695W        W46236  20.251  39.815   1.283
79696W        W46237  43.156  38.910  11.489
79697W        W46238  39.962  29.233   1.631
79698W        W46239  12.297  36.785  12.087
79699W        W46240  43.982  31.643   1.958
79700W        W46241  13.709  22.509  12.841
79701W        W46242  13.320  17.777  13.347
79702W        W46243  22.752  25.162   0.927
79703W        W46244  14.785   9.700  13.962
79704W        W46245  28.951   4.068   3.695
79705W        W46246   9.579  17.339   4.506
79706W        W46247  14.824  16.859   3.717
79707W        W46248  38.487   2.185  10.560
79708W        W46249  23.086  37.144  14.040
79709W        W46250   1.721   8.777   4.438
79710W        W46251  44.212   3.888  14.877
79711W        W46252  15.344  20.634  14.327
79712W        W46253  19.264  27.706   0.302
79713W        W46254   7.054   1.777  14.184
79714W        W46255  19.190  20.831   2.837
79715W        W46256  11.305  41.106  14.566
79716W        W46257   6.481  31.427  13.820
79717W        W46258   5.702   8.784   0.220
79718W        W46259  29.598  14.301  13.298
79719W        W46260  29.114   9.088  14.307
79720W        W46261  11.553  41.204  10.614
79721W        W46262   6.028  12.358   4.547
79722W        W46263  41.998  22.344   3.546
79723W        W46264   3.868  15.550   2.788
79724W        W46265  22.079  38.928  14.536
79725W        W46266   3.892  17.044  12.258
79726W        W46267  16.953   5.690   9.951
79727W        W46268  25.953  28.149  11.961
79728W        W46269  21.294  13.647   5.080
79729W        W46270   6.700   1.398   0.253
79730W        W46271  15.638   7.555   1.008
79731W        W46272  21.244   0.214  11.015
79732W        W46273  29.643  42.088   4.614
79733W        W46274  23.186  11.901  11.810
79734W        W46275  39.886   2.310  14.799
79735W        W46276  24.167   1.663   2.752
79736W        W46277   5.729  10.203   3.622
79737W        W46278  22.785  19.101  14.255
79738W        W46279  32.987  19.937   2.416
79739W        W46280  33.030  24.857  12.046
79740W        W46281  22.017  10.097   0.199
79741W        W46282  35.137  33.905   1.447
79742W        W46283  41.430   2.514   2.335
79743W        W46284  30.546  36.991   3.206
79744W        W46285  17.636   3.732   4.850
79745W        W46286  35.121  37.263  11.155
79746W        W46287   2.255  35.967  13.402
79747W        W46288   3.189   3.684  14.473
79748W        W46289  15.448   5.737  10.564
79749W        W46290  35.336  34.946   0.924
79750W        W46291  31.974  38.090  11.130
79751W        W46292  39.442  42.025  13.987
79752W        W46293  38.339  21.651   2.223
79753W        W46294  44.122  13.898   3.907
79754W        W46295  43.523  32.983  12.644
79755W        W46296  33.113  26.485  13.876
79756W        W46297  39.506  42.551  10.739
79757W        W46298  24.757   6.753   2.633
79758W        W46299  10.283  29.120  10.521
79759W        W46300  16.532   4.742   3.253
79760W        W46301   1.312  38.790   2.963
79761W        W46302  16.123  34.700   4.085
79762W        W46303  35.543  22.009   1.266
79763W        W46304  40.785   5.616  11.506
79764W        W46305  35.944  29.206   4.672
79765W        W46306  28.393   9.741   3.598
79766W        W46307  39.460  24.228   4.124
79767W        W46308  11.258  30.347  14.885
79768W        W46309  36.123   0.798   2.215
79769W        W46310  42.092   3.408  14.819
79770W        W46311   6.369   8.586  13.445
79771W        W46312  36.434  17.784  13.878
79772W        W46313   3.742  34.164   1.187
79773W        W46314  18.458  29.173   1.861
79774W        W46315  40.281  27.702   0.650
79775W        W46316   3.901  12.890   0.730
79776W        W46317  30.002  23.692   0.789
79777W        W46318  21.047  17.338  13.203
79778W        W46319   1.966  40.490   0.696
79779W        W46320  31.525  32.510   0.659
79780W        W46321   2.766  25.350  13.818
79781W        W46322  36.792  32.453   4.739
79782W        W46323  42.783   9.808   4.711
79783W        W46324   5.675  37.936   4.645
79784W        W46325  13.327  33.107  14.956
79785W        W46326  27.677  30.929   3.529
79786W        W46327  19.442  12.877  13.307
79787W        W46328  35.404   1.333   0.783
79788W        W46329  11.798   3.665   0.192
79789W        W46330  24.507  19.791  11.535
79790W        W46331  31.656  11.355   1.356
79791W        W46332  10.843  32.834  12.621
79792W        W46333  32.085  30.854   0.403
79793W        W46334   9.145  36.020   4.537
79794W        W46335  36.468  21.359  10.171
79795W        W46336  37.415  31.026   2.236
79796W        W46337  21.591  32.106   3.695
79797W        W46338  31.233  27.433   0.577
79798W        W46339  20.125  34.149  14.984
79799W        W46340   4.906  18.530  12.125
79800W        W46341  19.802   9.678   1.116
79801W        W46342   8.345  29.901   3.663
79802W        W46343   5.931  18.997   4.172
79803W        W46344  27.963  36.453   4.582
79804W        W46345  13.274  21.004  13.804
79805W        W46346  19.697   6.484  11.555
79806W        W46347  26.793  35.292  10.946
79807W        W46348  31.244  34.951   2.247
79808W        W46349  41.755  21.586  12.175
79809W        W46350  34.025  12.827  12.018
79810W        W46351  41.715  25.954  14.023
79811W        W46352  29.171  26.426  14.469
79812W        W46353  14.173   2.321  12.045
79813W        W46354  23.965  11.837   4.086
79814W        W46355  17.635  17.154  13.114
79815W        W46356  14.871   2.799   0.356
79816W        W46357  12.049  15.391  14.516
79817W        W46358  27.280  27.185  11.241
79818W        W46359  38.256  30.892  12.007
79819W        W46360  36.082   7.794  10.675
79820W        W46361   3.989  23.400   4.989
79821W        W46362  39.065  36.903   0.528
79822W        W46363  32.114  26.959   4.432
79823W        W46364  27.902  31.072  11.520
79824W        W46365   4.579  10.163   4.837
79825W        W46366  25.120  41.890   0.043
79826W        W46367  32.117  30.585   2.383
79827W        W46368  20.832  36.035  11.532
79828W        W46369  36.501  22.198   0.472
79829W        W46370  20.019  40.751  12.059
79830W        W46371   0.868  39.954  13.123
79831W        W46372   4.547  32.553  12.556
79832W        W46373   1.265  22.411  14.905
79833W        W46374  35.925   9.321  11.611
79834W        W46375  17.916   2.737   2.671
79835W        W46376  35.474   3.201   0.183
79836W        W46377  28.524  41.528   3.704
79837W        W46378  19.345  16.260  12.047
79838W        W46379   9.672  16.227  12.534
79839W        W46380  23.718  32.426   4.570
79840W        W46381  34.858  33.871  14.940
79841W        W46382  23.579  22.901   3.725
79842W        W46383  37.948  26.029   0.765
79843W        W46384  31.715  39.561  13.267
79844W        W46385  31.969  13.314   3.685
79845W        W46386  36.995  42.869   1.570
79846W        W46387  43.818  23.657  10.642
79847W        W46388   8.415  17.294  11.482
79848W        W46389  31.532  14.114  11.983
79849W        W46390   3.849  44.963  13.585
79850W        W46391  44.971   0.004   4.983
79851W        W46392   4.944  41.524  10.579
79852W        W46393   5.905  39.488   3.702
79853W        W46394  44.448  35.647   1.271
79854W        W46395  15.310   0.332  11.940
79855W        W46396  15.211  24.226  14.464
79856W        W46397  36.442   3.862  13.341
79857W        W46398  36.461  17.147  12.683
79858W        W46399   4.362  15.681  14.812
79859W        W46400   4.627  42.755  11.774
79860W        W46401  43.963  31.499   0.809
79861W        W46402  10.311   7.763   3.639
79862W        W46403   0.723   5.968   1.427
79863W        W46404   5.785  37.902   0.477
79864W        W46405  28.706  25.114   2.161
79865W        W46406  42.822   5.372  10.602
79866W        W46407   0.933  43.420  10.495
79867W        W46408  30.986  19.345   4.766
79868W        W46409  25.943   3.248  14.006
79869W        W46410  38.490  37.975  11.873
79870W        W46411  34.354  44.761   2.759
79871W        W46412  29.543  28.956   4.919
79872W        W46413  44.077   8.546  13.561
79873W        W46414  31.525  15.247   0.140
79874W        W46415  30.169  30.582   0.771
79875W        W46416  15.060  41.960   2.404
79876W        W46417  13.019  31.379  13.034
79877W        W46418  44.886  22.105   1.934
79878W        W46419   9.607   4.619  11.986
79879W        W46420  23.018  35.491   3.151
79880W        W46421  44.361  19.522   0.404
79881W        W46422  13.175   6.984   2.289
79882W        W46423  28.467  39.866   0.277
79883W        W46424  15.647  30.652  14.484
79884W        W46425  38.086  10.043  14.144
79885W        W46426  10.674  29.527   3.574
79886W        W46427   0.704  35.573   2.812
79887W        W46428  34.142  24.983  13.380
79888W        W46429  36.471  41.889   3.726
79889W        W46430  16.680  38.854  11.439
79890W        W46431   7.273  38.823   0.241
79891W        W46432   4.743  18.796  14.736
79892W        W46433   7.598  29.412   4.720
79893W        W46434   8.660  27.566  14.363
79894W        W46435  31.046   1.549   4.581
79895W        W46436  32.347  11.082   0.469
79896W        W46437  21.184   3.647   1.747
79897W        W46438  44.294   5.531  12.419
79898W        W46439  12.403  37.528   1.812
79899W        W46440  40.187  29.229  11.246
79900W        W46441  43.738  17.137  13.618
79901W        W46442  15.600  19.462  12.519
79902W        W46443  15.633  23.850  11.611
79903W        W46444  36.044  32.340  10.788
79904W        W46445  43.730  36.660   3.829
79905W        W46446  39.126  38.549   3.832
79906W        W46447  26.740  17.234   3.195
79907W        W46448  42.261  15.883   4.255
79908W        W46449  22.172  23.960  12.904
79909W        W46450  24.962  10.588  12.110
79910W        W46451  24.675  42.866  13.826
79911W        W46452  38.040  18.561   4.519
79912W        W46453  32.027  38.548  12.034
79913W        W46454  35.353   6.277   3.203
79914W        W46455  41.283  25.551  10.953
79915W        W46456  13.840  29.914   3.173
79916W        W46457  38.502  42.911   4.679
79917W        W46458  40.240  18.754   2.168
79918W        W46459   4.641   7.102  12.078
79919W        W46460   4.239  32.477  10.610
79920W        W46461  14.914   3.531  14.935
79921W        W46462   5.851  26.356  13.190
79922W        W46463  30.492  14.496  14.257
79923W        W46464  27.173  19.361  14.359
79924W        W46465  28.129  37.121  11.123
79925W        W46466   0.258  16.549  14.279
79926W        W46467   5.105  43.918   4.549
79927W        W46468  28.528   7.404   4.552
79928W        W46469  13.838  39.115   3.371
79929W        W46470  11.878   7.990   2.838
79930W        W46471  16.757   1.152   3.849
79931W        W46472   8.619   9.626  10.523
79932W        W46473  44.430  13.151   4.337
79933W        W46474  33.976   6.025   0.728
79934W        W46475  25.679  28.591  12.730
79935W        W46476  15.942  35.213   5.398
79936W        W46477  20.704  44.363   0.897
79937W        W46478  20.311  26.955   3.401
79938W        W46479  21.096  39.099  11.628
79939W        W46480   7.444  40.969   3.896
79940W        W46481   0.721  21.370  13.023
79941W        W46482  30.605   0.001   4.119
79942W        W46483  22.671   3.711  10.524
79943W        W46484  44.528  37.431   2.666
79944W        W46485  18.811  24.187   3.884
79945W        W46486  14.408   8.036   0.828
79946W        W46487  38.143  18.711  10.667
79947W        W46488  29.907  31.655   4.179
79948W        W46489  25.664  24.833  14.306
79949W        W46490   1.326  42.022  13.994
79950W        W46491  41.779   5.222   3.251
79951W        W46492  21.056   1.391   4.762
79952W        W46493   6.839  32.785  12.458
79953W        W46494  41.068  14.768  12.996
79954W        W46495  22.683  14.144  12.930
79955W        W46496  32.054  36.512  14.803
79956W        W46497   2.118   2.658  14.873
79957W        W46498  30.835  21.333   2.819
79958W        W46499  22.805   7.020   2.415
79959W        W46500  28.917  38.472   0.425
79960W        W46501  16.507   7.200   2.787
79961W        W46502  42.664   4.346  14.865
79962W        W46503   5.602  12.370   2.433
79963W        W46504   7.624   8.417  11.361
79964W        W46505  18.806  20.715   3.249
79965W        W46506  16.130  30.596  13.302
79966W        W46507   4.300  40.892  11.468
79967W        W46508  10.356  11.234   0.945
79968W        W46509  35.875  40.947  11.587
79969W        W46510  24.710   7.219   1.900
79970W        W46511  19.696   5.253  10.667
79971W        W46512  11.310  16.719  12.978
79972W        W46513  26.498  15.717  14.825
79973W        W46514   3.026  27.223  13.550
79974W        W46515  30.658  25.230  12.100
79975W        W46516  15.106  19.463   1.832
79976W        W46517  13.506  32.248  10.366
79977W        W46518  21.240   0.743   2.411
79978W        W46519  23.063  21.858   1.734
79979W        W46520  10.636  11.018  10.749
79980W        W46521  32.950   2.377  13.432
79981W        W46522   0.164  16.840  10.533
79982W        W46523  41.741  35.373   2.706
79983W        W46524  31.445   2.217  11.942
79984W        W46525  34.109  30.473  11.163
79985W        W46526  33.546  24.771   3.174
79986W        W46527  37.822  22.153   4.077
79987W        W46528  25.190   7.044  12.267
79988W        W46529  19.630  43.290  11.581
79989W        W46530  44.955  17.281  12.387
79990W        W46531  11.887  26.263  10.490
79991W        W46532  34.665  38.536   0.193
79992W        W46533  13.325   3.199  14.032
79993W        W46534   0.759  12.609  14.226
79994W        W46535  19.772  22.891   1.692
79995W        W46536   7.661  27.230  11.908
79996W        W46537  18.108  31.358  13.921
79997W        W46538   0.350  37.106  10.744
79998W        W46539   2.297  39.753  14.386
79999W        W46540  16.348  44.542  11.467
80000W        W46541  24.592  11.473  10.849
80001W        W46542  13.609  28.197   2.757
80002W        W46543  32.806  27.418   3.785
80003W        W46544  18.711  12.757  12.615
80004W        W46545  23.048  36.936  12.969
80005W        W46546  13.370   3.623  11.038
80006W        W46547   1.199  29.060   0.803
80007W        W46548  22.344   7.481   0.333
80008W        W46549  41.946  13.642  12.446
80009W        W46550  30.455  28.155   2.866
80010W        W46551  33.832  41.037   4.084
80011W        W46552  34.364  25.784   4.516
80012W        W46553  23.597  15.715  11.545
80013W        W46554   2.956  39.043   2.214
80014W        W46555  13.365  36.046   3.331
80015W        W46556  27.570  25.808  14.938
80016W        W46557  12.302  38.386  12.005
80017W        W46558  12.393   8.771   5.042
80018W        W46559   0.019   9.883   0.219
80019W        W46560  26.254  10.204  14.494
80020W        W46561  10.128  27.915  12.996
80021W        W46562  34.542  11.218  14.798
80022W        W46563  13.831  38.127  13.970
80023W        W46564  34.472  39.500  14.389
80024W        W46565   8.747   8.351   2.369
80025W        W46566  16.727  17.578  12.101
80026W        W46567  20.853  27.686  13.471
80027W        W46568  39.885   9.222   0.516
80028W        W46569  40.537  22.020   2.773
80029W        W46570  23.046  24.222  13.442
80030W        W46571  20.441  38.549   0.218
80031W        W46572  12.231   0.555  14.099
80032W        W46573  27.125  27.331  12.235
80033W        W46574  16.313  43.839  13.785
80034W        W46575  24.477  27.498  14.070
80035W        W46576  38.986  38.082   2.200
80036W        W46577   7.063   4.213   2.210
80037W        W46578   9.312  12.663   4.221
80038W        W46579   8.981   9.176  14.648
80039W        W46580  23.124  16.044  14.812
80040W        W46581   1.696  26.262   3.131
80041W        W46582  17.246  21.427   2.126
80042W        W46583   0.325  16.813   1.831
80043W        W46584  18.502  11.204   4.334
80044W        W46585  12.059  22.460   1.727
80045W        W46586  27.117  19.075  14.819
80046W        W46587  29.470   6.292  13.162
80047W        W46588  29.082  31.053   4.615
80048W        W46589  41.860  42.097  13.303
80049W        W46590  12.802  12.856  12.894
80050W        W46591  32.598  20.627  13.921
80051W        W46592  22.055  20.956  10.126
80052W        W46593  43.089   3.450  10.250
80053W        W46594   6.623   5.859  11.050
80054W        W46595  10.327  28.324   2.883
80055W        W46596  37.793  26.983   2.625
80056W        W46597  35.572   7.161   1.262
80057W        W46598  36.917  13.358   0.327
80058W        W46599  42.839   2.756  11.516
80059W        W46600   1.855   4.138  10.682
80060W        W46601  43.491  25.623  14.759
80061W        W46602  30.122  35.234   4.793
80062W        W46603  11.256   8.439  11.126
80063W        W46604   1.364   1.738  14.461
80064W        W46605  10.824  12.934   0.392
80065W        W46606  22.448  41.878   4.106
80066W        W46607  12.113  35.941   2.623
80067W        W46608  10.301  10.593   3.580
80068W        W46609  10.873   3.663  14.041
80069W        W46610  16.533  12.053  12.656
80070W        W46611  28.592  36.057  11.961
80071W        W46612   8.526  14.075   4.310
80072W        W46613   1.341   7.096   3.184
80073W        W46614  18.690  17.484   4.401
80074W        W46615  40.074  28.308   2.762
80075W        W46616  24.175   3.279   0.362
80076W        W46617   4.796  42.431   4.590
80077W        W46618  32.076   5.799  10.158
80078W        W46619   0.883  39.401   3.061
80079W        W46620  35.210  36.395  12.070
80080W        W46621  14.161  41.712  11.736
80081W        W46622  33.487  36.349   3.689
80082W        W46623  16.265  38.071   1.489
80083W        W46624   7.372  37.877  10.280
80084W        W46625  43.878  17.360   4.150
80085W        W46626  21.571  21.476  12.475
80086W        W46627  24.429  17.703  13.045
80087W        W46628  18.805  24.214  13.861
80088W        W46629  33.824  21.981   0.433
80089W        W46630  29.917  22.916   5.091
80090W        W46631  17.089  10.237   0.455
80091W        W46632  22.123   1.306   2.889
80092W        W46633  26.512  10.934   2.682
80093W        W46634  25.468   2.010   1.764
80094W        W46635   9.448   9.950  11.422
80095W        W46636   8.643   3.470   3.354
80096W        W46637  40.859   0.339  13.607
80097W        W46638  39.350   3.769   4.651
80098W        W46639  22.493   3.951   3.258
80099W        W46640  41.972   6.900  11.990
80100W        W46641  30.190  22.484   4.129
80101W        W46642  13.256   9.945   0.441
80102W        W46643  35.456   4.202  13.369
80103W        W46644  36.349  17.999   4.165
80104W        W46645  40.950  44.037  11.886
80105W        W46646  24.487  43.264  10.816
80106W        W46647  28.540  30.432  12.475
80107W        W46648   9.811  36.597  12.116
80108W        W46649  10.193  41.546  12.374
80109W        W46650  14.675   6.788   1.205
80110W        W46651  37.005  23.337   2.445
80111W        W46652   4.242   6.278   1.414
80112W        W46653  18.195   1.908   0.867
80113W        W46654  32.662  31.695   2.229
80114W        W46655   8.290  18.239  11.622
80115W        W46656  35.934  43.308  13.449
80116W        W46657  42.352  16.847   1.685
80117W        W46658  26.174   7.521  12.564
80118W        W46659   6.440  24.078  12.584
80119W        W46660  22.498  25.486   2.569
80120W        W46661  19.540  22.116  11.937
80121W        W46662   2.015  41.502  11.615
80122W        W46663   2.651  11.909  13.469
80123W        W46664   8.310   1.116  12.384
80124W        W46665  25.796  39.445   0.774
80125W        W46666  33.617  18.750   4.193
80126W        W46667  16.049  44.992   1.861
80127W        W46668  23.295  25.967  14.734
80128W        W46669  19.218   8.184  12.108
80129W        W46670   9.651  14.551   4.562
80130W        W46671  18.623   6.955   0.758
80131W        W46672  19.068   9.377   4.200
80132W        W46673  26.066   3.483   2.615
80133W        W46674  17.010   0.814  12.339
80134W        W46675  41.838  42.284   2.203
80135W        W46676  16.835  36.411   1.446
80136W        W46677  35.802   6.281   0.332
80137W        W46678   8.809   4.775  13.326
80138W        W46679  11.439  22.791  11.217
80139W        W46680  28.160   7.784   4.597
80140W        W46681  33.112  42.904   4.284
80141W        W46682  29.897  37.539   0.282
80142W        W46683  37.811  19.029   0.877
80143W        W46684  13.618  23.499   4.125
80144W        W46685  40.743   5.483  12.095
80145W        W46686  30.016   2.941   3.051
80146W        W46687   3.224  30.930   1.842
80147W        W46688  36.513  18.193  12.467
80148W        W46689  28.580  36.518   2.573
80149W        W46690  19.109  26.993   1.905
80150W        W46691  25.426  32.599   2.817
80151W        W46692   1.521  25.007   5.448
80152W        W46693  10.148   7.594   3.158
80153W        W46694  41.826  12.938  13.083
80154W        W46695  11.399  18.702   3.896
80155W        W46696  36.057  40.294  13.848
80156W        W46697  27.520  12.387  10.218
80157W        W46698  37.836   1.378   4.825
80158W        W46699  23.188  39.849  14.810
80159W        W46700   9.004  23.077   3.132
80160W        W46701   4.272  29.875  13.992
80161W        W46702  27.098  30.059   0.473
80162W        W46703  29.868   9.227   3.876
80163W        W46704  39.321  42.710   2.820
80164W        W46705  28.192   4.676  14.402
80165W        W46706  34.698  26.891   2.227
80166W        W46707  23.997   2.649   1.939
80167W        W46708   6.581  37.324  12.053
80168W        W46709  26.274  17.753   3.790
80169W        W46710  26.551  21.258   0.430
80170W        W46711  12.339  14.893   3.832
80171W        W46712  18.725   9.138  12.045
80172W        W46713  22.298   4.792  13.406
80173W        W46714  11.268  21.794  14.885
80174W        W46715  21.736   5.303  13.939
80175W        W46716  33.421  17.307  12.034
80176W        W46717  41.171   0.366  11.016
80177W        W46718   4.302  15.859   2.804
80178W        W46719  33.465   8.090  14.453
80179W        W46720  32.476  30.097  14.615
80180W        W46721   9.041  34.891   3.599
80181W        W46722  29.925  35.029  12.465
80182W        W46723  35.080  19.016  14.946
80183W        W46724  10.838  30.483   4.624
80184W        W46725  22.005  29.617   1.158
80185W        W46726  40.523  34.605  11.188
80186W        W46727  10.670  23.419  10.505
80187W        W46728  39.732   2.874  13.895
80188W        W46729  17.446  42.712   0.740
80189W        W46730  15.520  40.338   2.516
80190W        W46731  38.831  20.833  14.776
80191W        W46732  19.726  39.090  14.087
80192W        W46733  34.129  10.918   0.352
80193W        W46734  42.913  12.164   4.804
80194W        W46735  25.752  33.447   2.280
80195W        W46736  14.958  29.337  14.955
80196W        W46737  12.077  13.180  12.483
80197W        W46738  30.295  29.599   2.420
80198W        W46739  22.755   1.743  10.582
80199W        W46740   2.212   9.358   1.256
80200W        W46741  16.161  19.191   1.444
80201W        W46742   1.526  31.202   4.835
80202W        W46743  30.690  29.530   0.735
80203W        W46744  30.893  24.186  13.420
80204W        W46745  10.633   3.374   1.191
80205W        W46746  23.681   5.245  12.594
80206W        W46747  42.438  34.525  10.988
80207W        W46748   6.356  44.619   1.789
80208W        W46749  43.099   3.720  10.705
80209W        W46750   7.003  21.215  13.091
80210W        W46751  12.550   7.231  13.768
80211W        W46752  29.727  34.656   3.684
80212W        W46753  20.598  35.222  12.564
80213W        W46754  21.714  15.023   2.276
80214W        W46755  26.906  15.779  10.151
80215W        W46756  36.026  20.541   4.825
80216W        W46757  18.089  27.008  12.698
80217W        W46758   9.953  15.710   2.192
80218W        W46759  17.853   0.329  13.415
80219W        W46760  36.622  20.152   2.704
80220W        W46761  41.198   5.438  13.889
80221W        W46762  36.073  40.941  13.017
80222W        W46763  42.458  11.132   9.571
80223W        W46764  41.471  24.702  11.599
80224W        W46765   9.782   2.482   4.457
80225W        W46766  42.822   5.642  13.335
80226W        W46767  11.721  40.814   3.207
80227W        W46768   3.904  24.471  11.186
80228W        W46769  12.728  30.960  10.268
80229W        W46770   8.208  24.692   0.406
80230W        W46771  20.460   3.393   0.290
80231W        W46772   3.980  14.084  13.838
80232W        W46773   2.998  15.813   2.456
80233W        W46774   9.637  19.496   4.174
80234W        W46775  32.955  27.150   0.834
80235W        W46776   0.958  37.996  12.783
80236W        W46777  16.362  19.234   4.105
80237W        W46778  10.890   5.860   1.822
80238W        W46779  22.636   2.266  13.945
80239W        W46780   6.259  10.734   4.000
80240W        W46781  28.922   7.330   2.102
80241W        W46782  36.478  35.594  13.063
80242W        W46783  15.243  21.116  14.886
80243W        W46784  35.432  12.844   0.423
80244W        W46785  40.776  18.701  14.991
80245W        W46786  14.743  16.020   2.364
80246W        W46787  33.246   9.720  14.054
80247W        W46788  42.978  16.587  13.869
80248W        W46789   4.727  36.995   0.673
80249W        W46790  22.388  18.780  13.958
80250W        W46791  26.153   5.229   4.513
80251W        W46792  17.218   4.190  11.561
80252W        W46793   3.577   8.912  12.476
80253W        W46794  28.006  39.271  13.550
80254W        W46795  17.281  25.715  13.411
80255W        W46796  26.413   0.025  13.822
80256W        W46797  43.572   0.342  10.716
80257W        W46798  39.540   3.276   3.710
80258W        W46799  18.688  22.970  11.532
80259W        W46800   2.374   4.213  11.448
80260W        W46801  19.389  13.321  12.982
80261W        W46802   4.179  18.235   0.787
80262W        W46803   5.334  26.306  11.340
80263W        W46804  21.584  43.935   1.886
80264W        W46805  27.233  41.359  14.991
80265W        W46806   5.852  39.873  11.387
80266W        W46807  34.185   1.884   4.564
80267W        W46808  22.362  15.671   5.440
80268W        W46809  39.908  19.215   2.579
80269W        W46810  22.286  14.612   3.655
80270W        W46811  20.962  22.524  14.031
80271W        W46812   2.721  11.249   4.803
80272W        W46813   0.083   5.427  11.140
80273W        W46814   7.198  14.064   3.392
80274W        W46815   4.873  41.659  12.563
80275W        W46816  18.353  37.542   4.630
80276W        W46817   8.476  17.162   0.485
80277W        W46818  24.103   7.146   0.379
80278W        W46819  19.399  42.335  14.533
80279W        W46820  24.640   2.276   2.463
80280W        W46821  12.512  44.547   2.167
80281W        W46822  28.095  12.868   3.499
80282W        W46823  15.577  37.327  14.497
80283W        W46824  43.886  26.150   4.826
80284W        W46825  34.362  35.551  13.069
80285W        W46826  10.002   4.679  13.041
80286W        W46827  36.177  20.534   3.525
80287W        W46828  43.295  37.007   3.912
80288W        W46829   5.267   6.002   1.772
80289W        W46830  32.384  20.025   2.286
80290W        W46831  36.846  16.163  13.157
80291W        W46832  44.711   7.677   3.137
80292W        W46833  15.796   3.723   0.776
80293W        W46834  23.211   8.792   1.761
80294W        W46835   4.987  21.996  11.132
80295W        W46836  37.314  22.977  14.415
80296W        W46837  41.901  14.796   3.582
80297W        W46838  18.649  15.548  11.776
80298W        W46839  27.424   7.301  14.430
80299W        W46840  38.393   6.745  11.248
80300W        W46841  38.593   2.143  12.116
80301W        W46842  10.228  27.568  11.211
80302W        W46843  25.968  43.970  13.879
80303W        W46844  43.464  11.777   3.661
80304W        W46845  25.178  11.892  13.492
80305W        W46846  41.262  26.091   3.269
80306W        W46847  29.979  17.568   1.067
80307W        W46848   9.111  23.741   1.906
80308W        W46849  16.324  34.859   1.133
80309W        W46850  13.706   9.178  13.241
80310W        W46851  13.144  34.926   0.981
80311W        W46852  26.785   8.924  14.427
80312W        W46853  11.063  28.205  13.021
80313W        W46854  24.003  17.242  10.746
80314W        W46855  20.018  23.331   4.721
80315W        W46856  32.959   7.327  12.441
80316W        W46857   6.093  16.360  11.601
80317W        W46858  16.855   9.667   3.323
80318W        W46859  23.074  37.167  11.626
80319W        W46860  16.257  17.783  10.445
80320W        W46861  33.019  25.641  11.417
80321W        W46862  25.220  13.676  13.979
80322W        W46863  42.709  31.895  12.084
80323W        W46864  35.265  43.180  13.092
80324W        W46865  43.215  14.599   5.019
80325W        W46866  37.039   0.303   3.889
80326W        W46867  37.785  23.835  13.540
80327W        W46868  33.681  17.587   1.262
80328W        W46869   9.242   3.050  14.043
80329W        W46870  19.536   0.128  11.635
80330W        W46871  41.929  37.111  14.539
80331W        W46872  27.458  24.666  11.342
80332W        W46873  25.465  44.735  13.843
80333W        W46874  22.558  30.887   2.775
80334W        W46875   3.277   0.921  11.096
80335W        W46876  16.564   2.177   2.701
80336W        W46877  31.592  41.824   4.628
80337W        W46878   7.182  38.183   3.141
80338W        W46879  33.523  36.610   2.205
80339W        W46880  13.328  14.816   0.901
80340W        W46881  16.439  28.204  14.331
80341W        W46882  19.721  12.112  13.001
80342W        W46883  29.872  19.498  14.757
80343W        W46884  14.019  13.881  12.453
80344W        W46885  16.203   2.750  14.680
80345W        W46886  15.508  28.697  13.513
80346W        W46887  42.433  20.109   1.601
80347W        W46888   4.409  12.354  14.895
80348W        W46889  16.693   1.639   0.896
80349W        W46890  16.290  27.545  11.921
80350W        W46891  28.095   9.881   0.731
80351W        W46892  26.069   1.849   4.150
80352W        W46893  24.036  32.522  13.542
80353W        W46894  22.535  39.382   1.649
80354W        W46895  25.751  14.305   3.732
80355W        W46896  26.592  11.929   4.593
80356W        W46897  42.461  10.727  11.968
80357W        W46898  29.699  17.843   3.281
80358W        W46899  43.071  44.384   2.177
80359W        W46900  40.440   9.734   3.275
80360W        W46901   8.638  33.132   1.865
80361W        W46902  26.631  42.196  13.898
80362W        W46903  36.365  20.167  10.610
80363W        W46904  19.985  41.674  12.400
80364W        W46905   0.284  39.615  11.190
80365W        W46906  33.917  10.115   2.727
80366W        W46907  43.801  22.732  10.925
80367W        W46908  31.017  33.887   1.447
80368W        W46909  42.969   9.296   2.168
80369W        W46910  22.126  12.765  13.403
80370W        W46911  18.598  28.135  13.485
80371W        W46912  40.833  13.557  12.413
80372W        W46913  33.965  29.205   0.314
80373W        W46914  22.516  34.111   4.168
80374W        W46915  32.585   5.727   3.219
80375W        W46916  21.669   0.921  11.558
80376W        W46917  42.320   4.223   3.123
80377W        W46918  21.915  27.241   2.456
80378W        W46919  37.769  24.319  13.386
80379W        W46920  23.734   5.444  13.075
80380W        W46921   8.830  20.981   4.131
80381W        W46922   6.382  19.130   2.967
80382W        W46923  23.443   5.744  11.675
80383W        W46924  42.745  22.674  11.568
80384W        W46925  16.221  21.443   4.076
80385W        W46926   6.224   7.609   5.100
80386W        W46927  31.817   4.195  13.089
80387W        W46928  10.760  21.700   3.759
80388W        W46929  10.752  26.237   1.271
80389W        W46930  37.019  12.385  10.205
80390W        W46931  35.911   5.592   5.226
80391W        W46932  20.816  22.550   2.206
80392W        W46933  13.350  17.909  14.721
80393W        W46934   2.726   0.777   5.028
80394W        W46935  29.930  19.312  14.220
80395W        W46936  33.218  25.523   0.885
80396W        W46937  16.222   5.289   2.812
80397W        W46938  31.476   3.727  10.048
80398W        W46939  23.728   8.724  13.545
80399W        W46940  10.610   7.778   0.246
80400W        W46941   5.327  28.823  11.107
80401W        W46942  13.631  18.812  12.106
80402W        W46943  10.219   2.781  12.991
80403W        W46944  38.762  39.802  11.495
80404W        W46945  34.541  37.149   3.666
80405W        W46946  38.770  43.594   4.527
80406W        W46947  29.900  19.956   0.015
80407W        W46948  25.561  40.100  13.135
80408W        W46949  26.332   3.992   4.159
80409W        W46950   7.362  27.432  13.193
80410W        W46951  14.588  37.068   1.404
80411W        W46952   0.724  33.371   3.104
80412W        W46953  14.640   0.529  12.464
80413W        W46954  40.236  39.443  13.511
80414W        W46955  34.382   8.341   2.345
80415W        W46956  15.595  12.317  11.167
80416W        W46957  29.420  31.414   4.150
80417W        W46958  13.692  40.257  12.428
80418W        W46959  13.226  32.902   0.480
80419W        W46960  24.227  43.318   1.265
80420W        W46961  31.829  20.141   2.597
80421W        W46962  38.390  43.995   1.737
80422W        W46963  10.174  17.551   0.882
80423W        W46964  41.282  35.724   4.057
80424W        W46965  42.043  10.873   0.763
80425W        W46966  19.802  39.121  12.697
80426W        W46967  36.092   8.038  12.187
80427W        W46968  29.850  14.756   1.889
80428W        W46969  28.402   1.441   4.149
80429W        W46970  10.095  40.076   4.061
80430W        W46971  20.868  21.758   3.517
80431W        W46972  44.106  13.351  14.909
80432W        W46973  40.904  32.801  14.981
80433W        W46974  16.178   9.253   0.695
80434W        W46975  36.856  43.234   1.955
80435W        W46976  34.084  10.433   1.455
80436W        W46977  43.514   2.933  10.373
80437W        W46978   0.646  26.619  11.388
80438W        W46979  28.645  34.375  12.476
80439W        W46980  41.927  38.246   0.411
80440W        W46981   9.129  34.592  12.923
80441W        W46982  18.195   0.400  12.980
80442W        W46983  11.806  14.085   5.098
80443W        W46984   0.932  27.977   2.438
80444W        W46985  11.784  38.447   1.833
80445W        W46986  28.090  16.228   0.213
80446W        W46987  15.587  19.984  12.412
80447W        W46988  36.985  22.714  13.328
80448W        W46989  10.765  20.283   3.630
80449W        W46990  21.224  32.109   4.727
80450W        W46991  10.566  22.978   3.443
80451W        W46992  22.827  28.861  12.476
80452W        W46993   5.870  16.284   4.040
80453W        W46994  20.695  11.283  12.905
80454W        W46995  35.087   8.589  12.132
80455W        W46996  11.631  20.227  12.045
80456W        W46997   9.176  44.961  13.574
80457W        W46998  23.198  18.625   3.640
80458W        W46999  20.552  35.854  14.355
80459W        W47000  10.673   1.539  10.571
80460W        W47001   1.303  43.512   0.662
80461W        W47002  40.895   6.120  14.678
80462W        W47003  28.057  14.087  12.517
80463W        W47004  37.897  12.158   0.399
80464W        W47005  21.727  24.565   4.077
80465W        W47006  17.761  41.335  14.756
80466W        W47007  39.682   1.444   3.836
80467W        W47008  42.057  17.241   0.397
80468W        W47009  31.423  39.036  11.587
80469W        W47010  39.798  17.748  10.234
80470W        W47011   9.370   9.418   2.842
80471W        W47012  33.293  30.444   3.699
80472W        W47013  29.610  38.296  14.064
80473W        W47014   9.889  13.713   4.188
80474W        W47015  40.528  24.650   4.804
80475W        W47016   1.172   6.176   4.351
80476W        W47017  11.705  28.039   1.767
80477W        W47018  17.209  25.473  14.920
80478W        W47019  32.863  27.504   1.852
80479W        W47020  43.527  17.025   1.380
80480W        W47021  28.235  12.399   3.196
80481W        W47022   1.391  19.099  12.822
80482W        W47023  24.428  34.997   3.365
80483W        W47024   8.720  21.341   3.769
80484W        W47025  17.963  11.295  11.599
80485W        W47026  12.277   7.989   2.087
80486W        W47027  20.619  13.670   4.472
80487W        W47028   0.198  17.470  14.523
80488W        W47029  35.265  23.798  11.547
80489W        W47030  10.350  22.150   2.693
80490W        W47031  14.360  14.026   2.165
80491W        W47032  41.876  17.059   5.101
80492W        W47033  33.338  19.621  12.975
80493W        W47034  11.764  38.102   4.813
80494W        W47035  24.444  20.627   3.219
80495W        W47036  44.884  14.113   0.413
80496W        W47037   7.588   6.348  13.338
80497W        W47038   0.151   9.834   0.758
80498W        W47039  30.860  16.511   1.653
80499W        W47040  18.191  38.852   4.589
80500W        W47041  17.194  20.797   4.159
80501W        W47042   4.197  14.828   3.714
80502W        W47043  14.358  44.511  12.509
80503W        W47044  31.642  18.903  13.326
80504W        W47045  21.035  37.139  11.545
80505W        W47046  11.364  29.071  13.400
80506W        W47047  38.321  24.864   0.323
80507W        W47048  28.614  10.302   2.117
80508W        W47049  24.445  27.968   2.265
80509W        W47050   2.630  37.667   2.310
80510W        W47051  17.660  36.379   3.813
80511W        W47052   2.771  38.901   2.655
80512W        W47053  13.624  37.641  14.023
80513W        W47054  41.659  13.959   1.249
80514W        W47055   5.226  13.698  10.762
80515W        W47056  13.348  18.684  12.922
80516W        W47057   4.504  40.523  11.966
80517W        W47058  40.739  14.325   1.317
80518W        W47059  19.679  41.289  10.701
80519W        W47060  12.340   8.408  12.044
80520W        W47061  39.994   9.913  14.887
80521W        W47062  22.593  23.523  14.474
80522W        W47063  35.805   1.070   1.002
80523W        W47064   6.395  43.439   2.476
80524W        W47065  17.837   4.879   1.762
80525W        W47066  10.927  26.346   4.834
80526W        W47067  23.165  13.341  11.594
80527W        W47068  44.463  36.608  12.561
80528W        W47069  20.627  34.121   1.781
80529W        W47070  35.682  22.093  12.077
80530W        W47071  12.783  37.486  13.191
80531W        W47072   3.957  40.042  10.692
80532W        W47073  32.560  18.359   0.480
80533W        W47074  26.986   9.857   4.106
80534W        W47075  44.431   5.301  12.852
80535W        W47076   3.653   8.141   3.303
80536W        W47077  40.424   1.295  12.391
80537W        W47078   9.904  20.262   2.244
80538W        W47079  17.115  28.944  10.613
80539W        W47080  37.603  35.165   1.499
80540W        W47081  40.572  24.858   4.272
80541W        W47082  14.390   2.033  12.404
80542W        W47083  29.463  37.333   3.264
80543W        W47084  44.984  33.996   1.697
80544W        W47085  29.753  12.498  12.098
80545W        W47086  17.703  30.015   2.699
80546W        W47087  30.183  17.746  13.035
80547W        W47088  36.263  30.892  13.756
80548W        W47089   8.824  18.945   1.365
80549W        W47090   0.723  23.189  12.108
80550W        W47091   0.687   4.455  10.949
80551W        W47092   0.413  41.331   2.214
80552W        W47093  14.694   0.165   0.016
80553W        W47094  38.923  18.756   0.796
80554W        W47095   8.436  19.276   4.433
80555W        W47096  27.891  36.041   1.095
80556W        W47097   4.195  40.104  11.987
80557W        W47098   1.036  25.984  12.879
80558W        W47099  33.068   8.780   1.758
80559W        W47100  10.816  39.553   3.914
80560W        W47101  34.584   7.899  10.731
80561W        W47102  27.161   9.623   4.548
80562W        W47103  41.962  42.435   0.720
80563W        W47104  20.226  23.861  10.450
80564W        W47105  35.795  39.719  11.892
80565W        W47106  34.906  39.731  12.554
80566W        W47107  35.581  35.040   3.192
80567W        W47108  17.070  16.720  14.929
80568W        W47109   2.132  11.927   1.633
80569W        W47110   8.898  29.530  11.083
80570W        W47111  37.336   0.666   1.875
80571W        W47112  15.571   4.848  11.578
80572W        W47113   7.416  20.360  12.126
80573W        W47114  17.061   2.838   2.410
80574W        W47115  19.597  29.472  10.599
80575W        W47116  27.099  21.543  13.082
80576W        W47117  28.956  27.758  10.965
80577W        W47118   6.377   5.694  11.907
80578W        W47119  38.770   6.655   3.473
80579W        W47120  43.761   2.204   1.433
80580W        W47121   2.149   4.678  11.677
80581W        W47122  19.036  26.031  14.339
80582W        W47123   8.595  22.129  14.604
80583W        W47124   2.300  25.290  11.651
80584W        W47125  37.093  25.527   3.182
80585W        W47126  24.583  22.984  12.081
80586W        W47127  44.461  34.640   2.058
80587W        W47128  17.139  11.270  12.059
80588W        W47129  14.533  35.518  12.407
80589W        W47130  37.285  17.161   2.245
80590W        W47131   6.285   1.830   2.211
80591W        W47132  20.684   5.427  12.163
80592W        W47133  26.642  12.381  13.812
80593W        W47134  16.032  12.313   4.285
80594W        W47135   5.298  11.253  12.353
80595W        W47136  20.803  14.121   3.741
80596W        W47137  26.864  41.641   4.328
80597W        W47138  26.675  14.722  14.939
80598W        W47139  32.727  38.800   4.044
80599W        W47140   0.489   3.012  11.159
80600W        W47141  35.345  39.288   2.197
80601W        W47142  28.504   1.889  10.907
80602W        W47143  20.918  36.579  11.551
80603W        W47144   3.219  19.186   3.318
80604W        W47145  17.701  13.833   0.511
80605W        W47146  34.294  18.080   3.182
80606W        W47147  27.678  29.411  10.334
80607W        W47148  13.316  26.033   0.557
80608W        W47149   0.294  33.403   3.551
80609W        W47150  37.357  36.904  14.745
80610W        W47151  14.684  34.404   4.067
80611W        W47152   0.521  33.578   4.005
80612W        W47153   6.762   5.001  11.303
80613W        W47154   9.357  18.281   3.738
80614W        W47155  37.628  15.715   4.942
80615W        W47156  40.805   0.830   4.519
80616W        W47157   8.379   0.887   3.305
80617W        W47158   4.276  11.644   0.810
80618W        W47159  16.086  20.807  13.323
80619W        W47160   7.598  30.594  12.459
80620W        W47161  26.632  15.254  11.047
80621W        W47162  32.446   3.677  14.886
80622W        W47163  29.248  21.213  14.422
80623W        W47164   0.050  25.633  14.873
80624W        W47165   0.712  29.033   0.628
80625W        W47166  40.486  44.006  11.621
80626W        W47167  15.417  19.222  11.945
80627W        W47168  41.253   8.985  12.545
80628W        W47169  20.505  40.085  10.787
80629W        W47170  21.173  38.018  10.604
80630W        W47171  44.779  24.841  12.410
80631W        W47172   6.161  24.091   2.841
80632W        W47173  14.207  27.666  11.601
80633W        W47174  37.568  38.816  13.378
80634W        W47175   5.412  11.716  13.105
80635W        W47176   2.912  31.417   2.249
80636W        W47177  18.417  36.659   4.103
80637W        W47178  20.221   3.857  12.738
80638W        W47179  42.265  36.998  13.868
80639W        W47180  40.623  30.982  11.635
80640W        W47181   1.847   1.310   3.759
80641W        W47182  18.642  16.452  11.527
80642W        W47183  34.418  40.493   2.634
80643W        W47184  40.272  28.191   5.079
80644W        W47185  37.337  21.265   0.026
80645W        W47186  28.626  39.251   3.107
80646W        W47187   5.137  30.079  11.578
80647W        W47188   5.162   1.368   3.649
80648W        W47189  14.679   0.901   2.176
80649W        W47190  41.022  14.800   0.405
80650W        W47191  18.745  39.517   1.945
80651W        W47192  26.135   9.701  12.353
80652W        W47193  42.944  26.222  10.409
80653W        W47194  25.198  41.392   4.153
80654W        W47195  14.069  41.081  10.589
80655W        W47196  14.339  15.642  10.522
80656W        W47197   5.918  12.607  12.883
80657W        W47198  33.916  29.369   1.318
80658W        W47199   4.462  44.401  11.119
80659W        W47200  35.661  12.304   1.654
80660W        W47201  37.092   0.449  11.199
80661W        W47202  43.303  10.709  14.942
80662W        W47203  25.793  18.121  11.144
80663W        W47204  14.817   4.140   4.222
80664W        W47205  15.551   2.753  14.058
80665W        W47206  20.283  14.357   3.176
80666W        W47207   9.432  13.200  13.276
80667W        W47208  34.438  31.136  13.573
80668W        W47209  28.948  28.955   3.235
80669W        W47210   9.139  25.577   3.733
80670W        W47211  38.307  28.938  14.796
80671W        W47212  26.651   6.216  14.992
80672W        W47213  36.928  12.145   4.102
80673W        W47214  18.754  10.931  12.481
80674W        W47215   2.419  13.153  13.411
80675W        W47216  37.843  44.950  14.552
80676W        W47217   1.049  38.717  14.834
80677W        W47218  36.444  43.200   4.607
80678W        W47219  40.108   9.702   0.371
80679W        W47220  18.142  38.879  13.062
80680W        W47221  24.691   2.837   4.043
80681W        W47222  17.336  33.961  12.857
80682W        W47223  42.308  10.330  12.914
80683W        W47224  14.272  25.799   4.868
80684W        W47225   4.490  34.561   0.246
80685W        W47226  33.128   0.762  12.542
80686W        W47227  12.353  18.251  11.596
80687W        W47228   2.842  43.554   3.835
80688W        W47229  10.390  26.699  10.473
80689W        W47230  20.777  33.861   4.521
80690W        W47231  23.659   5.165   3.470
80691W        W47232  33.465   9.762   4.344
80692W        W47233  33.048  35.728  12.718
80693W        W47234  30.998  28.869  14.924
80694W        W47235  41.737  13.089   3.146
80695W        W47236  44.430  43.753  12.420
80696W        W47237  37.791  14.274  11.932
80697W        W47238  34.156  29.975  12.098
80698W        W47239   7.744  42.204  11.956
80699W        W47240  18.691  19.568  10.690
80700W        W47241   6.475  17.587  11.879
80701W        W47242   7.787   9.120   0.863
80702W        W47243  11.878   2.266   0.452
80703W        W47244  39.366   6.789   2.583
80704W        W47245  13.535  17.342  14.046
80705W        W47246   3.299  24.927   1.411
80706W        W47247  27.614  21.625   2.651
80707W        W47248   1.358  36.012   4.404
80708W        W47249  42.020  43.054   4.205
80709W        W47250  34.491  39.351  12.496
80710W        W47251  25.472  15.953   2.606
80711W        W47252   7.997  24.047   2.384
80712W        W47253   7.454  20.352   1.205
80713W        W47254  10.103  18.386  11.999
80714W        W47255  13.284  17.029  14.985
80715W        W47256   1.183   2.484  10.724
80716W        W47257  31.549  32.679   3.942
80717W        W47258   0.040  19.839   3.796
80718W        W47259   4.096   9.045  14.505
80719W        W47260  27.276  29.050   0.726
80720W        W47261  27.962  30.932  14.296
80721W        W47262   3.468  20.070   5.047
80722W        W47263  26.422  34.439   4.460
80723W        W47264   1.685  19.711   2.898
80724W        W47265   1.389  29.566   3.672
80725W        W47266  42.780   1.500   0.934
80726W        W47267  35.555  29.695  11.037
80727W        W47268   4.307  40.103   0.844
80728W        W47269  30.009  41.758   4.005
80729W        W47270  22.626   1.546  11.461
80730W        W47271  30.185  16.040  11.124
80731W        W47272  28.894  16.216  13.910
80732W        W47273   4.362  23.252   0.975
80733W        W47274   9.364  30.542  14.822
80734W        W47275  35.969  23.067   3.525
80735W        W47276  34.839  27.143   0.276
80736W        W47277   0.763  32.864   0.108
80737W        W47278  15.943  36.070   4.791
80738W        W47279  11.494  29.121   0.893
80739W        W47280  42.364  40.608  14.301
80740W        W47281  35.451   8.294  12.926
80741W        W47282  29.676  19.772  14.356
80742W        W47283  29.634   0.890  10.697
80743W        W47284  10.118  36.921   0.829
80744W        W47285  42.046  20.075   1.225
80745W        W47286  42.929  22.611   4.169
80746W        W47287   3.909   9.633  14.476
80747W        W47288  25.350   7.123   3.699
80748W        W47289  24.011  21.247   0.850
80749W        W47290  23.805  18.119  12.433
80750W        W47291  21.189   0.724  11.484
80751W        W47292  41.566  33.011  14.327
80752W        W47293  41.926   6.825  11.087
80753W        W47294  20.275  20.179   0.725
80754W        W47295  40.542  23.017  13.198
80755W        W47296  21.876  23.404   1.375
80756W        W47297   1.482  18.872  11.919
80757W        W47298  28.731   5.786  11.126
80758W        W47299  23.484  32.527  13.559
80759W        W47300  41.233  18.717  11.120
80760W        W47301  37.310   7.713   2.380
80761W        W47302   4.640  33.916  11.149
80762W        W47303  29.439  23.963   1.860
80763W        W47304  39.332   9.129   1.806
80764W        W47305  31.917   1.233  12.657
80765W        W47306  43.868  24.446  11.108
80766W        W47307  19.617  43.787   4.661
80767W        W47308   7.435  42.971  11.654
80768W        W47309  21.644  10.766  11.982
80769W        W47310  40.276  14.686  12.558
80770W        W47311  25.661   1.248   1.319
80771W        W47312  19.251   1.511  13.371
80772W        W47313  33.224  33.999   4.128
80773W        W47314  37.511   6.734  13.927
80774W        W47315  15.200  20.049   1.875
80775W        W47316  24.962  40.862  13.641
80776W        W47317   8.343  27.193   4.764
80777W        W47318   0.811   9.471  11.624
80778W        W47319  28.561  39.491   3.578
80779W        W47320  25.527  41.444  13.559
80780W        W47321  44.279  20.070  10.982
80781W        W47322  35.027   9.747   3.234
80782W        W47323  24.827  43.656  10.849
80783W        W47324  31.902  23.175   0.834
80784W        W47325   6.222  23.034  12.465
80785W        W47326  16.954  44.847   1.778
80786W        W47327  33.124  15.223  10.588
80787W        W47328  13.838  25.993  12.652
80788W        W47329  20.718  42.919  11.254
80789W        W47330  35.099  21.018  13.974
80790W        W47331  34.002   0.665  11.114
80791W        W47332  38.450  34.587   0.982
80792W        W47333  31.784   7.243   4.682
80793W        W47334   4.494   4.680   3.219
80794W        W47335  13.872   9.674  13.388
80795W        W47336  15.594  41.358   1.655
80796W        W47337  38.258  19.723   3.685
80797W        W47338  29.541  16.481  11.557
80798W        W47339  20.285  34.705  12.034
80799W        W47340  13.676  32.690   0.250
80800W        W47341  11.887  11.312  13.386
80801W        W47342  25.691  29.108  14.533
80802W        W47343   6.245  19.615   2.872
80803W        W47344  35.453   1.343   2.692
80804W        W47345  28.773  28.776  11.150
80805W        W47346  33.341   5.270   3.709
80806W        W47347   0.794  14.406   2.766
80807W        W47348  21.673  26.573   0.108
80808W        W47349  30.179  12.776   2.327
80809W        W47350  24.710   6.046  12.284
80810W        W47351  19.485   7.192   0.867
80811W        W47352  29.898   9.972   2.305
80812W        W47353  39.105  34.426   0.379
80813W        W47354  34.856  31.435  13.433
80814W        W47355  42.303  40.097   4.163
80815W        W47356  11.610  33.077  11.631
80816W        W47357  11.495  38.741   9.694
80817W        W47358  24.993   2.203   1.717
80818W        W47359  15.295  43.538  12.503
80819W        W47360  15.197  44.767  13.532
80820W        W47361  25.810  38.602   3.060
80821W        W47362  15.171  36.807   3.783
80822W        W47363  36.888  41.680   1.935
80823W        W47364  34.530  38.101   2.204
80824W        W47365   0.937  41.004   4.837
80825W        W47366  34.834  40.564  11.252
80826W        W47367  26.741  15.810  13.965
80827W        W47368  24.553  10.344  12.341
80828W        W47369  26.461  32.045  11.890
80829W        W47370  20.038  41.751  11.365
80830W        W47371  20.638  43.209  13.230
80831W        W47372  33.128   0.742   4.515
80832W        W47373  18.482   4.900   0.166
80833W        W47374   6.627  12.302  10.693
80834W        W47375  10.983   3.759   1.218
80835W        W47376  19.733   9.385  13.661
80836W        W47377  10.677  12.275   1.702
80837W        W47378  41.273  30.404   1.378
80838W        W47379  22.095  16.624   4.636
80839W        W47380  29.792  33.630  14.202
80840W        W47381  28.678   3.439   3.104
80841W        W47382  12.892  16.397  14.863
80842W        W47383  12.684  14.559  11.005
80843W        W47384   0.522  35.386   0.531
80844W        W47385   3.810  20.985   4.010
80845W        W47386  33.960  42.968   2.775
80846W        W47387  35.944  40.956   4.214
80847W        W47388  31.992  44.779   3.367
80848W        W47389  43.364   8.383  10.765
80849W        W47390  37.336  29.741  11.144
80850W        W47391  19.092  44.823   1.808
80851W        W47392  15.705   2.536  12.008
80852W        W47393   3.507  18.635  14.009
80853W        W47394  30.548  44.591   4.597
80854W        W47395  38.105  40.614   2.879
80855W        W47396  18.366  25.058   3.235
80856W        W47397  43.350  14.585   0.751
80857W        W47398  12.360  43.450   1.339
80858W        W47399   5.684  36.614  12.826
80859W        W47400  24.486  22.974  12.981
80860W        W47401  43.377  11.404   4.537
80861W        W47402  24.897   1.983  10.730
80862W        W47403  34.675  15.031   4.161
80863W        W47404  22.907   0.590  12.494
80864W        W47405  11.511  42.560   9.912
80865W        W47406  39.997  25.771   2.607
80866W        W47407   9.309  17.676   3.098
80867W        W47408  35.418  11.706   4.896
80868W        W47409  35.160   8.340  14.762
80869W        W47410   0.423  44.303  12.455
80870W        W47411  43.051   4.534   0.756
80871W        W47412   6.714  23.013   1.769
80872W        W47413  33.934  32.792  14.940
80873W        W47414  43.696  43.344   1.700
80874W        W47415  40.569  15.597  14.801
80875W        W47416   1.963  22.173  11.093
80876W        W47417  17.120   1.930   0.917
80877W        W47418  10.547  41.650   4.973
80878W        W47419  19.197  20.906  10.221
80879W        W47420   0.431  23.035  12.510
80880W        W47421  28.569   1.026  12.124
80881W        W47422  38.427  10.742  12.441
80882W        W47423  21.463  36.521   4.509
80883W        W47424  35.339   1.591  11.489
80884W        W47425  37.608  40.387   0.892
80885W        W47426  43.097  41.799  13.964
80886W        W47427   6.913  15.713   0.257
80887W        W47428   1.663   4.490   3.113
80888W        W47429  15.285  16.514  11.008
80889W        W47430   9.151  39.933  13.814
80890W        W47431  38.863  15.316   1.927
80891W        W47432  28.885  22.015   2.336
80892W        W47433  18.313  35.940  11.951
80893W        W47434  12.756   0.782  13.991
80894W        W47435  39.901  23.197   4.614
80895W        W47436  35.379  36.354   2.636
80896W        W47437  22.629  23.535  12.027
80897W        W47438   5.705  39.617   2.752
80898W        W47439  35.272  35.944  14.627
80899W        W47440   5.168  33.552  13.322
80900W        W47441  27.212  18.260  13.927
80901W        W47442  42.284   2.394  14.282
80902W        W47443  29.624   5.863  11.454
80903W        W47444  40.317  15.151  11.145
80904W        W47445   0.707   2.013   5.496
80905W        W47446  34.869   9.919   2.780
80906W        W47447  17.562  14.664  14.030
80907W        W47448  23.750  18.578   2.191
80908W        W47449  24.404   4.761   0.578
80909W        W47450  24.681  42.020   3.341
80910W        W47451  13.505  19.905   1.414
80911W        W47452  13.437  37.942   4.646
80912W        W47453  37.959   7.382  14.735
80913W        W47454  29.392   8.838   0.321
80914W        W47455  41.956  33.416   0.334
80915W        W47456  27.479  35.532   3.401
80916W        W47457  26.732  23.697   2.280
80917W        W47458  17.328  13.683  11.527
80918W        W47459  11.511  32.046   3.144
80919W        W47460  19.300  27.108  14.856
80920W        W47461   5.109  16.610  11.074
80921W        W47462   1.646   4.244  14.686
80922W        W47463  10.644   0.873   2.230
80923W        W47464  40.770  42.462  11.127
80924W        W47465  23.849  33.225  13.991
80925W        W47466  28.976  44.226   3.607
80926W        W47467  30.532  24.979  14.699
80927W        W47468  32.891  27.845  10.739
80928W        W47469   2.834  16.704   3.964
80929W        W47470   5.468   8.615  11.630
80930W        W47471  17.011  25.408   0.429
80931W        W47472  11.752   7.369   0.399
80932W        W47473  41.322  35.907   2.393
80933W        W47474  38.086  28.819  13.936
80934W        W47475  24.935  36.584  11.406
80935W        W47476  38.825  13.430  13.036
80936W        W47477  35.980   2.220   4.129
80937W        W47478  33.948  16.829   0.655
80938W        W47479   2.487  20.175  14.953
80939W        W47480  29.540   8.922   2.739
80940W        W47481  25.265  17.051  14.120
80941W        W47482  15.914  19.337  13.438
80942W        W47483  36.484  43.253  13.430
80943W        W47484  40.429  15.230   0.204
80944W        W47485  18.592  18.055  13.389
80945W        W47486  16.039  12.474   0.781
80946W        W47487  10.779   1.271   2.674
80947W        W47488  34.745  20.561  13.077
80948W        W47489   4.452  40.761   4.032
80949W        W47490  12.757  30.894   3.289
80950W        W47491  29.018  35.053   3.564
80951W        W47492  24.046  30.667  11.014
80952W        W47493  10.300  43.586  12.328
80953W        W47494  40.472   4.610  12.543
80954W        W47495  15.667  37.657   0.401
80955W        W47496  25.501  18.173  10.733
80956W        W47497  20.237  19.980   2.656
80957W        W47498  22.818  11.642  11.548
80958W        W47499   8.898  25.693   2.327
80959W        W47500  25.182  15.274  14.847
80960W        W47501  41.455  36.720   0.833
80961W        W47502  41.943  10.408   0.990
80962W        W47503   6.947   1.676  12.484
80963W        W47504  39.473  14.064  13.964
80964W        W47505  12.554  34.544  13.495
80965W        W47506  41.242  42.779   0.982
80966W        W47507   4.208  18.625  13.383
80967W        W47508  36.163  19.241   2.348
80968W        W47509  37.951  42.260  13.899
80969W        W47510  31.137  26.646  11.103
80970W        W47511  20.171  20.265   4.244
80971W        W47512  26.486  10.334   0.514
80972W        W47513  41.429   6.486  10.711
80973W        W47514  14.990  37.749   4.199
80974W        W47515  35.597  20.688  10.604
80975W        W47516  44.742  18.534  13.577
80976W        W47517   3.445   9.659  12.080
80977W        W47518  24.232   8.034  11.823
80978W        W47519  21.999  38.328   4.588
80979W        W47520  37.021  43.895  12.948
80980W        W47521   3.375  10.221   4.556
80981W        W47522  37.443  38.766  11.156
80982W        W47523  28.776  38.773   1.251
80983W        W47524  27.315  44.247   2.860
80984W        W47525  41.488  41.527   2.644
80985W        W47526  38.100  22.334  14.739
80986W        W47527  21.489   4.321  13.386
80987W        W47528  14.101  37.372   0.827
80988W        W47529  29.400  13.914  10.655
80989W        W47530  28.780   7.295   4.107
80990W        W47531  21.607   1.438  11.605
80991W        W47532  28.019  28.381   3.594
80992W        W47533  16.707   3.600   3.863
80993W        W47534   7.304  18.417  12.599
80994W        W47535  44.193  37.457  12.130
80995W        W47536   3.873   7.021  12.484
80996W        W47537  29.660   7.408   1.336
80997W        W47538  30.867  39.911   4.635
80998W        W47539  34.804  25.144  14.382
80999W        W47540  38.369  29.349  13.477
81000W        W47541   9.395  10.400  14.889
81001W        W47542  21.176  36.564  13.310
81002W        W47543  14.248  36.119   1.247
81003W        W47544  19.562   7.875   1.293
81004W        W47545  33.417  37.426  13.467
81005W        W47546  44.327  19.106  10.635
81006W        W47547  35.499   4.202  11.532
81007W        W47548   4.418  22.494   3.827
81008W        W47549   4.934  32.550  12.133
81009W        W47550  27.866  36.976   1.869
81010W        W47551  34.485  23.121  14.039
81011W        W47552   8.590  40.452   0.317
81012W        W47553  30.602  41.832  14.540
81013W        W47554  10.418  40.402   0.234
81014W        W47555  39.524  26.691  14.096
81015W        W47556  37.717   9.253   1.935
81016W        W47557  21.824  10.635   4.642
81017W        W47558   2.205  44.905   2.901
81018W        W47559  15.155  44.028   2.141
81019W        W47560  24.459   7.152  14.944
81020W        W47561  26.775  33.544   4.896
81021W        W47562  17.189  18.077  11.221
81022W        W47563  31.972  41.129   2.551
81023W        W47564  11.900  10.796   1.876
81024W        W47565  37.592  29.205   2.242
81025W        W47566  39.260  15.845  12.600
81026W        W47567   3.291  40.252  14.352
81027W        W47568  19.007   3.798  13.917
81028W        W47569  21.236  30.212   1.253
81029W        W47570   0.598  29.354   3.314
81030W        W47571  20.214  32.509  12.533
81031W        W47572  29.487  34.354  13.988
81032W        W47573  36.111  22.267   3.274
81033W        W47574   0.583  41.534  12.899
81034W        W47575  13.467  27.970  11.089
81035W        W47576  41.417  29.143   4.244
81036W        W47577   4.916  19.694  13.870
81037W        W47578   1.711  32.514  14.292
81038W        W47579   6.106  42.329  11.414
81039W        W47580  20.185  29.752   1.789
81040W        W47581  25.620  34.479   1.218
81041W        W47582  18.093  33.175  14.412
81042W        W47583  30.606  14.364  14.988
81043W        W47584  37.286   2.454  10.552
81044W        W47585   0.917  20.230   3.646
81045W        W47586  24.558   1.939  14.630
81046W        W47587  21.227  11.752   3.211
81047W        W47588   2.860  29.956   0.349
81048W        W47589  16.725  35.099  13.282
81049W        W47590  17.264  42.468   0.333
81050W        W47591   4.829  12.390   0.809
81051W        W47592   4.988  38.869   1.032
81052W        W47593  23.591  24.192  14.992
81053W        W47594   8.098  36.442   0.781
81054W        W47595  36.910  24.477   2.455
81055W        W47596  32.098  11.776   2.734
81056W        W47597  17.538  37.516   5.015
81057W        W47598  35.942  34.915  10.685
81058W        W47599  41.774  20.830  14.566
81059W        W47600  24.944  20.886   0.788
81060W        W47601  30.672  41.001  14.608
81061W        W47602  26.917  19.147  12.906
81062W        W47603  42.300   1.048   4.337
81063W        W47604   3.404   7.736  10.943
81064W        W47605  41.845  12.462  10.462
81065W        W47606  11.311  39.300   4.655
81066W        W47607  22.568   3.438  10.066
81067W        W47608  32.969   1.427   2.840
81068W        W47609   9.956   2.777  13.433
81069W        W47610  26.144  22.300   0.955
81070W        W47611  11.581  23.498  10.996
81071W        W47612  39.464  34.705  11.746
81072W        W47613  28.542   9.134   2.874
81073W        W47614  33.502  31.699  11.998
81074W        W47615  11.139  28.060   3.490
81075W        W47616   2.082   7.215   2.727
81076W        W47617  35.673  22.879   3.968
81077W        W47618   0.009  16.823  13.872
81078W        W47619  15.287  40.582   3.922
81079W        W47620  20.035  14.360   2.734
81080W        W47621  37.313  19.568  11.183
81081W        W47622  39.373  41.357  13.006
81082W        W47623   3.689  34.106  12.875
81083W        W47624  11.759  36.430   2.046
81084W        W47625   3.134   6.569   4.926
81085W        W47626   4.208  15.674   1.888
81086W        W47627  43.310  33.468   1.870
81087W        W47628  27.539  20.457  13.477
81088W        W47629  10.351  38.553  12.866
81089W        W47630  10.921  25.250  13.384
81090W        W47631   4.429  32.437   1.796
81091W        W47632   9.870  34.483  13.212
81092W        W47633  38.442  34.933   0.488
81093W        W47634  20.364  37.218   4.767
81094W        W47635  32.641  16.308   1.729
81095W        W47636  35.365  15.713   3.850
81096W        W47637   8.698  40.619   5.129
81097W        W47638   7.370  11.434  11.532
81098W        W47639  26.646  24.071  14.851
81099W        W47640  17.596  36.957   3.095
81100W        W47641   4.416  33.220   1.697
81101W        W47642  36.569   5.426   4.589
81102W        W47643  40.829  20.850   0.106
81103W        W47644   9.628  37.840  14.796
81104W        W47645  44.713  43.341  14.867
81105W        W47646   6.352  37.397  11.374
81106W        W47647   9.736  15.764  14.046
81107W        W47648  25.695   6.413   5.027
81108W        W47649  31.900   3.324  12.026
81109W        W47650  11.151  20.243   0.309
81110W        W47651  19.563  27.473  10.686
81111W        W47652  28.001  38.420  13.526
81112W        W47653   5.957  14.329   4.573
81113W        W47654   0.465   4.173   4.660
81114W        W47655   1.003   4.683  14.798
81115W        W47656  12.907  34.642  11.646
81116W        W47657   7.220   7.869   2.255
81117W        W47658   2.665   8.640  12.692
81118W        W47659  21.276  42.849   4.516
81119W        W47660  25.109  32.187   2.817
81120W        W47661  34.524  38.111  11.984
81121W        W47662  12.334   7.342   3.888
81122W        W47663  43.020  35.728  14.291
81123W        W47664  20.632  12.371   2.285
81124W        W47665   0.823  36.500  12.156
81125W        W47666  37.260   0.434  14.967
81126W        W47667  38.954   9.787   2.154
81127W        W47668  20.672  24.575   3.152
81128W        W47669  17.516  34.540  14.278
81129W        W47670  20.642  28.971   2.256
81130W        W47671  33.629  23.969  12.395
81131W        W47672  32.120  10.203   1.736
81132W        W47673  25.595  15.723  12.410
81133W        W47674  10.643  33.846   1.405
81134W        W47675  38.428  37.857   4.597
81135W        W47676  15.029   0.528  14.249
81136W        W47677   8.862  27.934  14.942
81137W        W47678  38.504  27.568   1.526
81138W        W47679  33.093  25.937  13.925
81139W        W47680  37.171  24.048   2.255
81140W        W47681  14.132  30.404   1.489
81141W        W47682  16.537  21.970  12.891
81142W        W47683   2.255  28.227   1.772
81143W        W47684  15.748  20.811   2.912
81144W        W47685  26.626  34.313   0.777
81145W        W47686  25.503  15.839   3.551
81146W        W47687  32.714  29.788  11.168
81147W        W47688   6.469  17.043   3.679
81148W        W47689  28.565  13.594   2.375
81149W        W47690  17.010   8.774   1.149
81150W        W47691  15.698  16.350  13.545
81151W        W47692  22.502  35.650   0.080
81152W        W47693   7.708  15.803  12.034
81153W        W47694  14.905  23.938   4.538
81154W        W47695  41.301  24.068   3.232
81155W        W47696  39.820  11.230  13.998
81156W        W47697  42.123  15.711   2.641
81157W        W47698   1.376  32.353  11.613
81158W        W47699  17.494  24.564   1.754
81159W        W47700  37.632  31.962  14.518
81160W        W47701  44.439  18.337  12.586
81161W        W47702   3.175  31.923  12.134
81162W        W47703  27.184  38.284  10.492
81163W        W47704  23.057  31.673   2.837
81164W        W47705  26.129   0.421  14.901
81165W        W47706  33.352  26.260   3.235
81166W        W47707  25.092   3.812   3.340
81167W        W47708  25.927  40.982   3.863
81168W        W47709  17.786  19.124   3.113
81169W        W47710  11.701  36.547  11.105
81170W        W47711  33.082   2.618  12.963
81171W        W47712  43.487  29.684  10.720
81172W        W47713  24.504  19.974  12.023
81173W        W47714  35.757  27.112   0.260
81174W        W47715  10.779   3.211   0.308
81175W        W47716  29.524  23.428   1.911
81176W        W47717  13.543  36.418  14.044
81177W        W47718  27.600  40.489   0.777
81178W        W47719  30.534  29.234   2.137
81179W        W47720  33.800   6.341   0.340
81180W        W47721   2.417  20.280  11.139
81181W        W47722  40.461  42.913   0.547
81182W        W47723  20.349  14.295  13.747
81183W        W47724  30.109  19.429   1.906
81184W        W47725  16.278  41.557  11.566
81185W        W47726  19.541   3.830  12.087
81186W        W47727  39.384  10.757  11.789
81187W        W47728  18.602  23.099   2.997
81188W        W47729  24.491   1.231  13.885
81189W        W47730  10.700  35.545  13.092
81190W        W47731  22.041  34.228  10.981
81191W        W47732   6.660  21.150  12.720
81192W        W47733   4.927  14.623   4.172
81193W        W47734  30.090  42.335   4.689
81194W        W47735  19.660  39.182   0.494
81195W        W47736   7.672  41.073  13.803
81196W        W47737  42.407   2.433   1.222
81197W        W47738  24.168  34.995   2.899
81198W        W47739  11.867   1.128   5.009
81199W        W47740  10.426  25.469   4.186
81200W        W47741  35.801  39.842  12.401
81201W        W47742  19.348  20.165   3.680
81202W        W47743  41.421  24.531   0.498
81203W        W47744  26.146  29.968  10.332
81204W        W47745  41.484  11.123  14.496
81205W        W47746  23.319  33.171  11.022
81206W        W47747  19.318   7.372   3.219
81207W        W47748  16.344   4.426  14.226
81208W        W47749  21.105  42.319   2.456
81209W        W47750   9.328  37.686   4.345
81210W        W47751  15.268  38.341   2.250
81211W        W47752  40.408  12.608   4.877
81212W        W47753  28.537  19.523  10.850
81213W        W47754  22.368  22.506   3.674
81214W        W47755  35.354  41.930   0.891
81215W        W47756  17.753  26.190   2.353
81216W        W47757  19.995  16.205   3.148
81217W        W47758  17.140  41.563   2.733
81218W        W47759  19.239   4.298   4.670
81219W        W47760  38.528  27.193  14.938
81220W        W47761  41.888  20.817   4.291
81221W        W47762  11.227  12.422  14.851
81222W        W47763  33.919  30.049  12.541
81223W        W47764  24.711  22.440  12.109
81224W        W47765   4.888  27.124   9.817
81225W        W47766  34.405  41.434  11.305
81226W        W47767  23.207  14.118  12.997
81227W        W47768  20.627  27.203  13.432
81228W        W47769   1.636  27.115  10.534
81229W        W47770  17.365  10.625   2.721
81230W        W47771  39.803  14.277   1.661
81231W        W47772  30.037  17.852   3.678
81232W        W47773  14.368   9.927  14.257
81233W        W47774  43.266  16.664  12.329
81234W        W47775  38.107   7.230   3.289
81235W        W47776  36.355   3.258   0.690
81236W        W47777  15.005   4.349  11.086
81237W        W47778  39.602  20.957   0.785
81238W        W47779  12.420  19.167   1.415
81239W        W47780  25.031  33.177  11.164
81240W        W47781  25.766  20.645   3.831
81241W        W47782  26.151  13.132   3.740
81242W        W47783  22.495  16.500  12.897
81243W        W47784  17.947   2.805   4.123
81244W        W47785  18.718   0.992   1.294
81245W        W47786  33.787  19.593   4.610
81246W        W47787   2.954  36.349  10.723
81247W        W47788  35.986   5.386   2.416
81248W        W47789  25.122  41.032  11.196
81249W        W47790  23.145  32.280   0.184
81250W        W47791   5.146  40.059  14.380
81251W        W47792  16.337  44.045   2.652
81252W        W47793  19.244  36.872  11.524
81253W        W47794  36.657  25.058   1.962
81254W        W47795  29.167  32.710   3.216
81255W        W47796  25.972  31.882   3.244
81256W        W47797  13.432  25.712   1.818
81257W        W47798  44.657  19.677   4.626
81258W        W47799  14.670  29.131  11.091
81259W        W47800  26.921   6.200   2.303
81260W        W47801  15.098  40.415   2.777
81261W        W47802   2.714  20.508   1.694
81262W        W47803  27.943  25.608   0.271
81263W        W47804  20.973  22.315   1.742
81264W        W47805  14.008  21.525  12.863
81265W        W47806   8.746  38.297   2.477
81266W        W47807  14.808  28.015   1.860
81267W        W47808  16.166  32.359  14.037
81268W        W47809   4.783  30.825  12.219
81269W        W47810  31.014  25.889   2.577
81270W        W47811  43.985  44.472  10.287
81271W        W47812  21.087   0.741   1.926
81272W        W47813  10.216  42.069   4.905
81273W        W47814  14.925   1.165  13.337
81274W        W47815  37.657  37.693  12.051
81275W        W47816   5.145  15.540   3.168
81276W        W47817  42.331  32.811  11.290
81277W        W47818  36.167  24.438  11.201
81278W        W47819   3.651   0.043   0.791
81279W        W47820  41.115  33.051   4.167
81280W        W47821  29.905  14.305   1.433
81281W        W47822  37.321  37.316  12.106
81282W        W47823  23.089  44.970   3.222
81283W        W47824  24.137  19.172  10.359
81284W        W47825  17.704   8.703   3.976
81285W        W47826   5.805   7.977  10.501
81286W        W47827  38.887  28.878  14.873
81287W        W47828  17.766   6.863  12.419
81288W        W47829  43.894   0.920  10.800
81289W        W47830  34.997  26.693  11.225
81290W        W47831   0.785  42.030  13.994
81291W        W47832  15.080  38.336   3.182
81292W        W47833  25.415   2.506   1.861
81293W        W47834  22.541  21.150  10.156
81294W        W47835   9.374  30.866   0.718
81295W        W47836  28.090  11.767  15.000
81296W        W47837  14.916  36.860   1.010
81297W        W47838  38.354   5.924   3.624
81298W        W47839  39.264  37.271  14.340
81299W        W47840  24.717  40.057   4.520
81300W        W47841   4.204   8.263  11.251
81301W        W47842  42.781  41.216  11.480
81302W        W47843  18.601   5.822  13.188
81303W        W47844   1.637   1.807  14.005
81304W        W47845   2.228  24.945   2.353
81305W        W47846  41.908   8.870   1.957
81306W        W47847  13.289  23.786   4.542
81307W        W47848  31.662  30.891   3.160
81308W        W47849  34.053  37.893   2.359
81309W        W47850  10.883  28.296  14.742
81310W        W47851  44.178  33.363   1.683
81311W        W47852  32.983  24.720  13.221
81312W        W47853  19.718  32.692  14.281
81313W        W47854  33.089  12.599  12.626
81314W        W47855  24.204  19.552  11.913
81315W        W47856  24.536  34.060   3.301
81316W        W47857   9.505  39.549  11.165
81317W        W47858   6.870   4.392   0.015
81318W        W47859  16.223  42.390  14.724
81319W        W47860  41.712  36.897   4.429
81320W        W47861  30.593   7.190   1.178
81321W        W47862  23.716   6.259   0.543
81322W        W47863  15.630  42.744  14.994
81323W        W47864  35.905   2.370   0.269
81324W        W47865  24.783  11.284   1.250
81325W        W47866  10.332   4.863  11.518
81326W        W47867  28.102  16.187   3.552
81327W        W47868  43.010  25.101  14.938
81328W        W47869  14.706  20.471   3.681
81329W        W47870  38.781  24.030  13.353
81330W        W47871  40.073  19.810  14.429
81331W        W47872  41.805  42.001   0.943
81332W        W47873  12.678  11.238   0.257
81333W        W47874  42.907   7.488  13.716
81334W        W47875  44.268  38.056   0.397
81335W        W47876  19.202   1.779  13.834
81336W        W47877  16.200  21.853  14.022
81337W        W47878  26.542  30.536  13.558
81338W        W47879  13.332  13.199   0.320
81339W        W47880   0.053  31.720  14.390
81340W        W47881  34.519  34.927  10.959
81341W        W47882  17.927  37.386  13.414
81342W        W47883  39.316   6.271   4.886
81343W        W47884  12.338  41.290   3.702
81344W        W47885   3.016  20.487   3.146
81345W        W47886  36.136  22.962   0.195
81346W        W47887  14.972  34.773   0.855
81347W        W47888   7.436  10.302  11.606
81348W        W47889  35.443  24.957  12.195
81349W        W47890  29.568  25.512   0.789
81350W        W47891   2.320  12.916  14.297
81351W        W47892   7.759  33.059   1.720
81352W        W47893   0.221  18.057   0.249
81353W        W47894  27.611   3.227   1.451
81354W        W47895   2.514  31.416  12.354
81355W        W47896   6.649  10.087  11.894
81356W        W47897  29.665  14.796  11.544
81357W        W47898  17.484   8.270  14.380
81358W        W47899  16.355  22.365  14.188
81359W        W47900  21.265  20.690  11.502
81360W        W47901  25.409  36.643  11.019
81361W        W47902  41.910  19.220  11.000
81362W        W47903  20.168  12.150   2.260
81363W        W47904  41.555  37.940   2.362
81364W        W47905  13.010  37.229  11.767
81365W        W47906  33.387   8.804   1.352
81366W        W47907  32.163  27.785   0.909
81367W        W47908  13.702   4.253   0.053
81368W        W47909   5.909  21.625  13.429
81369W        W47910  24.827  14.754   4.647
81370W        W47911  36.916  27.075   2.736
81371W        W47912  29.407  28.068  11.104
81372W        W47913  30.052  34.048   2.524
81373W        W47914  28.657  37.952   3.989
81374W        W47915   4.700  33.443  13.507
81375W        W47916  34.822  17.258  14.234
81376W        W47917   6.864   4.303   3.591
81377W        W47918   3.401  13.351   3.841
81378W        W47919  28.552  34.347   1.950
81379W        W47920  13.626  24.242  11.146
81380W        W47921  38.087   4.365  11.135
81381W        W47922   6.695  32.916  14.457
81382W        W47923  37.848  36.993  11.769
81383W        W47924  27.668  15.039   1.239
81384W        W47925  18.303   6.435   0.008
81385W        W47926  18.083  37.256   0.727
81386W        W47927  40.806  19.722  12.946
81387W        W47928   4.554   9.093  11.743
81388W        W47929   4.474  23.938  13.400
81389W        W47930  24.540   9.159  14.333
81390W        W47931   1.730   8.103   0.958
81391W        W47932   9.815   4.230   0.752
81392W        W47933   8.506   5.400   3.579
81393W        W47934   8.778  41.358   5.561
81394W        W47935  28.165  18.537   3.796
81395W        W47936  33.047  19.648  13.430
81396W        W47937  28.177   0.464   3.809
81397W        W47938  15.903  14.074  11.114
81398W        W47939  34.567  42.248  12.532
81399W        W47940  26.652  39.862  10.899
81400W        W47941  23.577  30.601  12.159
81401W        W47942   7.921  23.978   4.240
81402W        W47943  21.708   4.968   0.015
81403W        W47944   9.899  29.186   1.230
81404W        W47945  37.284  18.568   2.884
81405W        W47946  26.285  41.467   2.735
81406W        W47947  37.787   4.661   3.610
81407W        W47948  31.188  40.316   4.624
81408W        W47949   4.369  31.600   1.471
81409W        W47950  42.318   1.272  11.909
81410W        W47951  20.955  15.535   3.224
81411W        W47952  28.117  24.960  11.173
81412W        W47953  35.455  11.362   1.246
81413W        W47954  25.030   9.964   3.985
81414W        W47955  35.544  22.073   2.722
81415W        W47956  22.872  32.969  13.949
81416W        W47957   2.695  26.598   3.794
81417W        W47958  21.982  37.516   2.340
81418W        W47959  42.485  10.250   0.935
81419W        W47960  16.152  13.233   4.537
81420W        W47961  32.660   5.756  11.989
81421W        W47962  29.489  22.071   0.299
81422W        W47963  23.403  17.031  13.095
81423W        W47964  14.172  26.193  14.476
81424W        W47965   3.909  26.462   0.993
81425W        W47966  22.554   3.681  12.981
81426W        W47967  32.559  36.572   1.273
81427W        W47968  41.018   8.818  11.965
81428W        W47969   0.561   4.227   9.711
81429W        W47970  22.112  25.027   5.099
81430W        W47971  41.263  23.770  12.450
81431W        W47972  25.457  18.504  11.137
81432W        W47973  11.611  35.808   3.673
81433W        W47974  25.480   1.149  13.153
81434W        W47975   2.507  30.038   4.143
81435W        W47976   3.772  11.479   2.795
81436W        W47977  37.555  23.656   1.501
81437W        W47978  40.652  39.913  10.742
81438W        W47979   2.405   1.181   4.923
81439W        W47980  19.283   0.504  13.421
81440W        W47981  12.349  20.432  12.897
81441W        W47982  25.706   2.358   1.448
81442W        W47983  28.531  24.586   4.966
81443W        W47984  10.872  44.909  12.870
81444W        W47985  44.431  12.139   3.268
81445W        W47986  15.933  41.670  11.967
81446W        W47987   7.299   3.265  10.563
81447W        W47988   8.759  34.970   2.331
81448W        W47989  19.412  33.070  13.977
81449W        W47990  41.972  28.919  14.849
81450W        W47991  29.595  25.222  12.224
81451W        W47992   3.399  23.614   1.775
81452W        W47993  18.317  43.467  14.500
81453W        W47994  10.310  26.599  10.959
81454W        W47995  10.180  34.016   1.599
81455W        W47996  34.123  28.047  12.001
81456W        W47997  17.031  13.288   3.297
81457W        W47998  30.490  41.541  12.547
81458W        W47999  13.707   2.881  13.261
81459W        W48000  30.503  25.718  13.885
81460W        W48001  34.231   6.503  14.073
81461W        W48002  30.937  35.810  14.808
81462W        W48003  23.464  44.674  14.965
81463W        W48004  17.042   3.676  14.255
81464W        W48005   1.852  18.099   2.230
81465W        W48006  43.395  19.655   4.915
81466W        W48007  27.022  23.099   3.164
81467W        W48008  35.901  25.448  14.023
81468W        W48009  11.123   0.813  10.581
81469W        W48010  39.869  29.915   3.749
81470W        W48011  43.605  19.588  11.472
81471W        W48012  38.004  44.795  10.839
81472W        W48013  27.089  37.101   0.378
81473W        W48014  27.550  21.123  11.002
81474W        W48015  32.927  27.010   1.707
81475W        W48016  17.222  11.257  13.077
81476W        W48017  42.879  34.485  13.548
81477W        W48018  18.798  13.604  11.658
81478W        W48019  14.078  10.163  13.876
81479W        W48020   4.804  37.317   3.739
81480W        W48021  30.296  39.453  13.393
81481W        W48022   7.911  43.393   4.131
81482W        W48023  37.351  21.147  13.408
81483W        W48024  18.654  10.574  12.865
81484W        W48025  26.263  35.594  12.371
81485W        W48026  36.877  15.308  14.253
81486W        W48027   0.937  23.446   3.207
81487W        W48028  11.480   5.667  14.829
81488W        W48029  35.813  24.568   2.955
81489W        W48030  15.768  14.670  14.369
81490W        W48031  30.162  21.342  12.816
81491W        W48032  23.209  23.273   2.375
81492W        W48033  18.485  32.981  11.446
81493W        W48034  13.123  36.387  11.394
81494W        W48035  23.475  28.979   0.392
81495W        W48036  18.076   5.111   3.409
81496W        W48037  32.999  40.970   0.604
81497W        W48038  13.066  21.713   3.004
81498W        W48039  35.064  21.264  12.174
81499W        W48040   6.232  25.566  14.715
81500W        W48041  20.676   5.856   1.170
81501W        W48042  25.541  18.552  12.002
81502W        W48043  35.682  41.929  14.480
81503W        W48044  38.443  24.852   0.827
81504W        W48045  11.625  13.222   0.882
81505W        W48046  35.909  29.445  13.989
81506W        W48047  11.307   5.726   1.549
81507W        W48048  38.123  27.580  10.455
81508W        W48049  35.587  14.340  11.552
81509W        W48050  23.378  35.418   1.805
81510W        W48051  37.622  30.814   0.956
81511W        W48052  28.361  43.273   0.332
81512W        W48053  10.120  29.657   4.612
81513W        W48054   4.025  21.220   2.244
81514W        W48055  31.582   5.217   0.082
81515W        W48056  40.258  30.426   2.664
81516W        W48057  42.283  12.753  13.269
81517W        W48058  26.123  39.446  10.732
81518W        W48059   9.919  10.335  14.878
81519W        W48060   8.290  18.287  14.605
81520W        W48061   1.121   7.868   3.646
81521W        W48062   3.750  13.174   2.171
81522W        W48063  31.238  34.020  14.471
81523W        W48064  34.480  38.589  14.410
81524W        W48065   8.235  29.692   1.666
81525W        W48066  43.868   3.209  13.467
81526W        W48067   9.816   0.393  10.901
81527W        W48068  29.045  14.334  12.050
81528W        W48069  42.911  39.012   1.725
81529W        W48070  28.970  33.459  12.874
81530W        W48071  30.595   9.133  12.950
81531W        W48072  22.892  19.841  12.577
81532W        W48073  13.951  34.545  10.584
81533W        W48074   2.252  24.271  11.525
81534W        W48075   0.467   3.654  14.384
81535W        W48076  22.820  17.821   4.047
81536W        W48077  10.444   4.156  12.025
81537W        W48078  41.432  43.050   3.608
81538W        W48079  25.015  33.204   3.780
81539W        W48080  35.148  24.606   0.211
81540W        W48081  37.378   3.103  12.889
81541W        W48082   7.476  20.757   1.527
81542W        W48083   4.275  37.192   4.981
81543W        W48084   8.867  35.151   0.854
81544W        W48085  29.393  11.252  12.137
81545W        W48086   5.251  26.293   0.966
81546W        W48087  15.893  31.951  13.780
81547W        W48088  10.215  41.927   2.422
81548W        W48089  35.500  12.246  10.696
81549W        W48090  26.991  16.424   4.482
81550W        W48091  12.793  20.551  11.554
81551W        W48092  40.400  23.644   3.707
81552W        W48093   1.963  36.590   3.837
81553W        W48094   2.392  18.429  10.302
81554W        W48095  22.592  13.309   1.739
81555W        W48096  19.210  26.610  11.426
81556W        W48097  17.878  42.999   2.654
81557W        W48098  12.717  13.933  12.488
81558W        W48099  15.167  31.151   5.039
81559W        W48100  22.988  10.617  12.951
81560W        W48101  12.958  18.833  13.904
81561W        W48102  34.320  43.826   1.516
81562W        W48103  41.403  37.467  11.240
81563W        W48104   0.846  30.574   1.710
81564W        W48105  41.924  28.214  10.648
81565W        W48106  33.184  41.979   2.400
81566W        W48107  43.020  38.465  14.889
81567W        W48108  31.573  40.107   4.156
81568W        W48109  20.719  40.128  13.738
81569W        W48110   2.070   4.850   3.803
81570W        W48111  41.285  19.558  11.573
81571W        W48112  25.654  28.640   2.227
81572W        W48113   1.246  13.772  14.555
81573W        W48114  16.107  31.190  12.569
81574W        W48115  42.979  25.544  12.657
81575W        W48116   6.741  39.606   3.284
81576W        W48117   5.334  21.679  14.510
81577W        W48118  12.377  33.474   1.271
81578W        W48119  40.430  25.050   0.061
81579W        W48120  35.616   9.276  11.192
81580W        W48121   3.545  14.763  13.585
81581W        W48122  21.694   4.147   0.365
81582W        W48123  35.016  14.585   1.802
81583W        W48124  17.155  39.066   3.064
81584W        W48125  16.725  12.374   0.191
81585W        W48126   1.996  34.869   4.115
81586W        W48127   6.192  19.415  14.882
81587W        W48128  20.108   0.675   0.455
81588W        W48129   7.793  38.858  14.964
81589W        W48130  34.344  30.726   1.239
81590W        W48131  31.084  32.004  11.130
81591W        W48132  37.824  32.578   1.334
81592W        W48133  24.058  39.074   0.430
81593W        W48134  21.016  10.652  13.098
81594W        W48135  25.521  38.510  10.826
81595W        W48136  22.130  22.683  13.908
81596W        W48137  32.501   1.022  14.395
81597W        W48138  31.480   0.551  11.579
81598W        W48139  36.917  15.273  13.361
81599W        W48140  29.182  33.858   2.338
81600W        W48141   1.422   6.602  11.547
81601W        W48142  17.811  23.287   2.364
81602W        W48143  34.410  32.413   3.732
81603W        W48144  35.069  28.882   1.729
81604W        W48145   2.430  11.323   2.371
81605W        W48146  36.985   8.834   0.880
81606W        W48147  25.482  10.590   3.243
81607W        W48148  10.452  36.784  13.388
81608W        W48149   2.753   8.767  14.005
81609W        W48150  32.447  37.673   2.738
81610W        W48151  35.871  44.058   2.772
81611W        W48152   5.411  42.490  14.296
81612W        W48153  33.561  19.483  11.082
81613W        W48154  44.932   4.709  14.700
81614W        W48155  31.666  30.974  12.552
81615W        W48156  21.997  26.212   1.327
81616W        W48157  17.299  13.020   1.854
81617W        W48158  38.086  13.331   9.562
81618W        W48159  40.863  25.052   4.670
81619W        W48160  24.545  12.229   3.714
81620W        W48161  39.311   4.171  12.450
81621W        W48162  40.512  30.851  12.501
81622W        W48163  42.557  20.013   1.104
81623W        W48164  11.870  20.751  10.792
81624W        W48165   8.212  38.333  14.044
81625W        W48166  20.390  28.512   0.497
81626W        W48167   2.976   9.846  14.447
81627W        W48168  30.791  25.296   4.362
81628W        W48169  17.402   6.342   0.336
81629W        W48170  20.266   2.554  13.459
81630W        W48171  23.281   5.159  13.035
81631W        W48172  32.367   0.800  12.940
81632W        W48173  12.790   9.233   2.873
81633W        W48174   2.496  15.410  13.461
81634W        W48175   2.769  35.363   3.760
81635W        W48176  26.995  41.777  14.490
81636W        W48177  43.542   9.990  10.862
81637W        W48178  44.026   4.348  11.489
81638W        W48179  26.257  30.791   4.136
81639W        W48180  18.582   4.143  14.801
81640W        W48181  41.006  33.497   3.286
81641W        W48182   3.467  30.475  14.864
81642W        W48183  44.903  34.594  12.266
81643W        W48184  31.895   0.457   2.855
81644W        W48185  43.500  35.835  13.396
81645W        W48186  15.264   5.307   3.606
81646W        W48187  11.353  40.030   9.878
81647W        W48188  38.436  27.673   1.009
81648W        W48189   0.532  16.518   4.928
81649W        W48190  44.854  22.064   4.251
81650W        W48191  43.678  37.122   3.584
81651W        W48192  33.802  42.501  12.365
81652W        W48193  20.652  37.936  12.113
81653W        W48194   2.945   1.403   3.342
81654W        W48195  44.933  26.670   0.804
81655W        W48196  24.374   5.284   2.595
81656W        W48197  40.929   7.777  11.880
81657W        W48198  44.367   7.715  14.835
81658W        W48199  30.471   9.341   3.226
81659W        W48200  41.838  28.424  13.367
81660W        W48201   6.196  30.136  13.474
81661W        W48202  29.092  24.543   2.259
81662W        W48203  35.131  39.396  12.979
81663W        W48204  12.241  25.632  14.108
81664W        W48205  41.844  28.718  10.463
81665W        W48206  22.574  12.084  11.523
81666W        W48207  33.609  35.872   1.631
81667W        W48208  37.346  24.036  12.532
81668W        W48209  19.747  36.691   1.422
81669W        W48210   5.337  38.613   9.679
81670W        W48211  35.221  27.638   2.830
81671W        W48212  42.910  32.997   0.122
81672W        W48213   0.724  23.931  11.705
81673W        W48214  12.428  12.629  11.680
81674W        W48215  41.338  38.888  11.253
81675W        W48216   5.683   5.844  13.055
81676W        W48217  25.672   8.346  13.316
81677W        W48218  30.968  40.649   1.764
81678W        W48219   9.620  28.745   1.691
81679W        W48220  20.599  17.119  13.103
81680W        W48221  30.979  24.998   2.173
81681W        W48222  40.420  20.956   2.701
81682W        W48223  28.145  21.035  14.812
81683W        W48224  37.101  28.175  13.596
81684W        W48225   7.434  37.461  12.471
81685W        W48226  13.969  26.070   3.186
81686W        W48227  14.296  30.551   0.888
81687W        W48228  27.716   8.824   3.617
81688W        W48229  27.275  17.757   0.800
81689W        W48230  37.928   2.333  12.298
81690W        W48231  35.868  17.139  10.632
81691W        W48232   2.228  10.284  12.682
81692W        W48233   3.101  18.295  13.049
81693W        W48234  10.310   9.599  11.618
81694W        W48235  44.333  41.038   0.889
81695W        W48236  33.187  34.071   3.256
81696W        W48237  29.997  34.921   1.989
81697W        W48238  24.971  23.248   2.252
81698W        W48239   8.871   2.708  11.103
81699W        W48240  10.723  15.647  12.853
81700W        W48241   0.767  44.023   2.386
81701W        W48242  41.734  18.592  11.165
81702W        W48243  16.062  43.967   2.216
81703W        W48244  11.915   4.810   3.405
81704W        W48245  42.842   0.301   9.650
81705W        W48246  22.499  42.802  14.946
81706W        W48247  41.934  31.059   1.830
81707W        W48248  35.876  36.095  10.726
81708W        W48249   0.839  34.602   2.887
81709W        W48250  44.254  44.301   4.733
81710W        W48251  19.166  16.754  13.376
81711W        W48252  34.818   0.861   3.210
81712W        W48253  30.907  27.682  10.368
81713W        W48254   9.696  24.166   2.737
81714W        W48255  15.836  17.464  14.471
81715W        W48256  21.611  14.779  12.355
81716W        W48257  23.015  25.993   1.233
81717W        W48258  38.072  33.083   3.915
81718W        W48259  41.173  42.400  12.435
81719W        W48260  28.180   1.233   2.757
81720W        W48261  41.497  33.920   4.528
81721W        W48262  39.466   2.339   0.536
81722W        W48263  22.704  14.274  14.465
81723W        W48264  20.996   3.702  11.017
81724W        W48265  19.319  34.707  10.777
81725W        W48266  26.399  42.831  12.438
81726W        W48267  12.152  13.367  13.325
81727W        W48268  24.992  41.933  14.511
81728W        W48269  40.039  23.433   0.874
81729W        W48270   4.323  14.951   3.176
81730W        W48271  22.266  44.032   0.290
81731W        W48272  44.816   9.666  12.897
81732W        W48273  24.137  37.360   1.883
81733W        W48274  16.608  10.023   3.615
81734W        W48275  12.164  41.261  14.507
81735W        W48276  35.071  38.734   2.739
81736W        W48277  36.377  15.975  13.973
81737W        W48278  43.744   3.972   2.036
81738W        W48279   4.734  36.774   3.578
81739W        W48280  13.164  43.004   1.027
81740W        W48281  23.992  41.948   1.205
81741W        W48282   8.398  12.102  12.953
81742W        W48283  38.366  18.010   2.331
81743W        W48284  37.734  15.236   0.422
81744W        W48285   6.647  21.270  14.065
81745W        W48286  17.881  26.697   0.803
81746W        W48287  37.603  19.180  14.643
81747W        W48288  13.700  37.728  13.477
81748W        W48289  23.992  24.379   4.456
81749W        W48290  40.240  10.759  11.498
81750W        W48291  25.299  11.223   4.740
81751W        W48292  19.420  32.139  14.920
81752W        W48293  26.498   6.353  14.278
81753W        W48294  33.785  16.850  10.673
81754W        W48295   4.507  25.250  14.825
81755W        W48296  16.508  19.948   4.942
81756W        W48297   5.015  19.200  14.583
81757W        W48298  15.330   8.586   2.311
81758W        W48299  13.806   1.495  13.496
81759W        W48300  14.481  38.743   0.892
81760W        W48301  34.537  28.739  14.362
81761W        W48302  11.222  12.865  12.064
81762W        W48303  41.881  41.595   4.188
81763W        W48304  27.965  14.354  11.150
81764W        W48305  31.245   3.595   2.896
81765W        W48306   1.698   1.835  10.338
81766W        W48307  15.285   9.681   1.668
81767W        W48308  32.195  40.270   4.698
81768W        W48309  27.578  14.625   4.716
81769W        W48310   3.329   9.180   2.625
81770W        W48311  36.582  23.502  12.118
81771W        W48312  40.138  35.102   3.697
81772W        W48313  17.288   3.768   0.127
81773W        W48314  43.872  17.320  14.494
81774W        W48315  25.776   6.418  11.156
81775W        W48316  41.763  15.506  11.729
81776W        W48317   9.238   1.311  14.752
81777W        W48318  16.662  18.363   0.988
81778W        W48319  40.852  34.826   4.124
81779W        W48320  43.280  37.623  11.931
81780W        W48321  37.938  12.061   1.397
81781W        W48322  32.927  29.988  11.576
81782W        W48323  16.804  10.592  13.079
81783W        W48324  26.143  35.017   0.052
81784W        W48325  19.757  39.372   3.284
81785W        W48326  43.432  11.664  14.816
81786W        W48327  11.493  14.143   0.872
81787W        W48328  27.909   8.840  12.911
81788W        W48329  36.474  38.496   3.809
81789W        W48330  22.955  36.023   0.419
81790W        W48331  34.602  11.844  12.565
81791W        W48332   0.807   9.709  13.019
81792W        W48333  12.188  16.606  11.673
81793W        W48334  43.534  12.432   1.434
81794W        W48335  41.528  33.582   3.244
81795W        W48336  30.227  38.745   0.061
81796W        W48337   5.012   9.149  13.479
81797W        W48338   6.199  39.774   0.387
81798W        W48339  24.231  38.907  13.126
81799W        W48340  43.314  44.500   1.535
81800W        W48341  38.393   6.304  11.539
81801W        W48342  41.085  10.677  12.320
81802W        W48343  43.250  39.886  14.743
81803W        W48344   9.267  39.860   3.119
81804W        W48345  27.503   7.089  11.444
81805W        W48346  35.072  15.295  12.324
81806W        W48347   1.935  33.631   2.631
81807W        W48348   8.308  33.925  10.558
81808W        W48349  26.927  11.959  11.066
81809W        W48350  19.027  13.818  14.497
81810W        W48351  12.217  37.942   4.064
81811W        W48352  40.847  37.877   2.737
81812W        W48353   0.978   7.822  12.840
81813W        W48354   7.517  41.202  14.277
81814W        W48355  15.617  30.168  12.164
81815W        W48356  25.742  12.555   2.163
81816W        W48357  10.827  42.093  10.063
81817W        W48358  11.417  19.111   4.638
81818W        W48359  30.967  11.797  14.827
81819W        W48360  29.138  30.458  14.464
81820W        W48361  17.689  30.134  10.672
81821W        W48362  20.791  25.235   0.974
81822W        W48363  28.355   1.468  11.158
81823W        W48364  28.471  42.473   3.406
81824W        W48365  37.733  14.326  13.048
81825W        W48366   4.808  31.599  10.653
81826W        W48367  38.165  41.250   0.886
81827W        W48368  16.222  25.698  10.585
81828W        W48369  18.405  26.568   5.212
81829W        W48370  29.409   0.371  12.008
81830W        W48371  37.820  39.971   0.657
81831W        W48372  13.741  23.284   3.650
81832W        W48373   5.162  11.311   0.810
81833W        W48374  20.093  10.739   2.490
81834W        W48375  14.720  31.682   1.317
81835W        W48376  23.326   5.573  10.358
81836W        W48377  10.477  41.269  11.996
81837W        W48378   1.266  27.667  13.758
81838W        W48379  17.612  26.910   3.754
81839W        W48380  25.537  13.822   3.843
81840W        W48381  36.536  39.485   0.248
81841W        W48382  39.050   0.727   4.193
81842W        W48383  37.545  42.428  13.636
81843W        W48384  18.325  28.257   2.421
81844W        W48385   9.365  10.419   2.121
81845W        W48386   5.145  20.297  11.933
81846W        W48387  37.430   8.848   3.239
81847W        W48388  33.959   7.330   3.680
81848W        W48389   5.391  34.465  12.496
81849W        W48390  27.015  32.479  12.072
81850W        W48391  35.858  16.354   1.899
81851W        W48392  10.244   4.687   3.307
81852W        W48393  31.103  31.720  14.777
81853W        W48394  41.713  32.551  14.221
81854W        W48395  11.186  19.091  13.288
81855W        W48396  43.371   0.689   4.557
81856W        W48397   2.226  29.214  14.313
81857W        W48398   7.177  33.385   2.845
81858W        W48399  13.848   0.764  10.677
81859W        W48400  32.472  39.938   0.978
81860W        W48401  12.298  28.577  10.555
81861W        W48402  27.180  39.084  14.298
81862W        W48403  30.069  38.536   3.294
81863W        W48404  21.170  15.061   0.743
81864W        W48405  13.075  19.671  11.883
81865W        W48406  35.612  22.547  11.002
81866W        W48407  35.369  32.504   4.593
81867W        W48408  12.449  33.396  12.522
81868W        W48409  12.931  35.391  13.766
81869W        W48410   1.163  20.131   0.335
81870W        W48411  25.089  44.076  11.857
81871W        W48412  18.107  40.520   5.009
81872W        W48413   8.932  42.806  13.739
81873W        W48414   0.477  30.385  11.234
81874W        W48415  23.052   7.336  10.655
81875W        W48416  28.881  32.380  14.864
81876W        W48417   6.288   7.674  11.907
81877W        W48418  15.840   1.165   3.955
81878W        W48419  40.334  39.835   4.170
81879W        W48420  41.611  12.877   4.377
81880W        W48421  33.086  39.003  11.173
81881W        W48422  21.544  10.549   1.998
81882W        W48423   3.509  19.588   3.233
81883W        W48424  18.033  23.004   1.341
81884W        W48425   3.433  37.579  14.967
81885W        W48426  13.147  16.632   2.190
81886W        W48427  20.677   9.221  12.910
81887W        W48428  30.140  23.316  11.158
81888W        W48429  17.072  24.190  11.012
81889W        W48430  35.349   6.205  12.944
81890W        W48431  34.903  34.584   2.690
81891W        W48432  32.862  25.427  14.485
81892W        W48433   2.275  18.834  14.640
81893W        W48434  32.962  37.306   9.984
81894W        W48435   6.700  22.628  13.763
81895W        W48436  27.748  26.070   3.339
81896W        W48437  11.092  18.644  13.541
81897W        W48438   1.448  23.276  12.361
81898W        W48439  36.061  25.510   0.386
81899W        W48440  40.678  23.898  10.906
81900W        W48441  15.049   0.012   0.719
81901W        W48442   5.950   7.124   2.345
81902W        W48443   9.027  43.417  14.512
81903W        W48444  32.152   2.188  13.957
81904W        W48445  44.062  42.364   2.853
81905W        W48446   9.734  36.790  13.859
81906W        W48447  21.436   1.216   1.957
81907W        W48448  13.310  16.265   0.405
81908W        W48449  27.967  34.393   2.691
81909W        W48450  19.567  12.352   2.877
81910W        W48451  16.058  28.977   1.667
81911W        W48452  40.615   1.726  13.008
81912W        W48453  44.677   8.568  12.027
81913W        W48454  37.105  25.083   1.202
81914W        W48455   2.319  17.023   3.175
81915W        W48456  18.616  42.887  14.446
81916W        W48457  18.800  37.050   4.256
81917W        W48458  38.032   0.489   0.401
81918W        W48459  28.202  32.079   2.213
81919W        W48460  44.527  21.054   4.323
81920W        W48461  28.500  41.801  13.447
81921W        W48462  26.584   2.778   0.303
81922W        W48463  31.555  11.620  12.136
81923W        W48464  33.037  26.431  10.844
81924W        W48465  21.821  13.753  14.184
81925W        W48466   4.298  40.250  13.972
81926W        W48467  12.358  40.966   2.096
81927W        W48468  20.550   5.384   2.513
81928W        W48469  19.250  32.983   1.163
81929W        W48470   9.826  14.599  11.721
81930W        W48471  19.317   7.844   0.174
81931W        W48472  23.700  20.651  14.010
81932W        W48473  39.456  26.490   5.053
81933W        W48474  39.609   5.126  14.730
81934W        W48475   7.632   0.963   3.673
81935W        W48476   1.817  26.229  12.472
81936W        W48477   1.301  43.925  11.617
81937W        W48478  24.083  25.707   0.863
81938W        W48479  16.511  10.229  10.646
81939W        W48480  43.064   8.306   3.720
81940W        W48481  16.400  16.307   1.423
81941W        W48482   4.794   7.549  14.241
81942W        W48483  24.731   2.480  10.649
81943W        W48484  13.005   2.918  12.203
81944W        W48485  14.642  19.221   2.748
81945W        W48486   0.790  22.667  14.812
81946W        W48487   4.013  41.228  11.736
81947W        W48488   3.774   7.639   2.411
81948W        W48489  20.178  22.504   1.027
81949W        W48490  42.469  13.608  13.232
81950W        W48491   3.847  42.910   2.209
81951W        W48492  36.623   7.776  13.525
81952W        W48493  23.537   7.428   3.766
81953W        W48494  28.478  44.307  12.552
81954W        W48495   1.482  40.426   0.881
81955W        W48496  32.084  28.277   0.825
81956W        W48497   7.859  17.773  12.953
81957W        W48498  16.073   2.314   2.797
81958W        W48499   4.866  28.975   2.597
81959W        W48500   9.196  36.978  13.872
81960W        W48501  35.247  16.839  14.215
81961W        W48502  38.082   9.362   2.297
81962W        W48503  34.166  34.859   2.347
81963W        W48504  40.348   8.968  14.676
81964W        W48505  15.140  17.808  10.528
81965W        W48506   1.649   0.970   4.468
81966W        W48507   9.286   2.326  10.693
81967W        W48508  16.553  15.667  12.550
81968W        W48509  18.856  14.828   1.223
81969W        W48510   2.483  16.172  10.870
81970W        W48511   1.992  29.735   2.425
81971W        W48512   1.848  21.284   4.070
81972W        W48513  39.151  23.759  12.498
81973W        W48514  29.019  22.827  13.989
81974W        W48515  42.979  27.433  10.653
81975W        W48516   9.053  26.521  14.723
81976W        W48517  17.643  44.250  12.641
81977W        W48518  44.933  13.683  12.382
81978W        W48519  21.115  24.632   4.786
81979W        W48520  36.594  43.983   2.384
81980W        W48521  38.474  18.787  12.029
81981W        W48522  37.055   2.005  13.861
81982W        W48523   9.564   3.096   3.354
81983W        W48524  11.223  43.331  11.933
81984W        W48525   5.263  44.897   0.733
81985W        W48526  43.235  33.337  13.526
81986W        W48527  19.336  24.202  12.044
81987W        W48528  43.257   5.390  13.242
81988W        W48529  12.459  35.275  14.784
81989W        W48530  30.022  29.639  10.790
81990W        W48531  15.217  24.587   3.850
81991W        W48532  26.640  36.824   4.145
81992W        W48533   4.450  35.916   0.352
81993W        W48534  33.510   3.092  11.560
81994W        W48535   7.431  30.815  14.371
81995W        W48536  14.331  39.628   0.936
81996W        W48537  11.364  31.739   1.847
81997W        W48538  17.098  42.517   2.867
81998W        W48539   9.489  44.408   4.294
81999W        W48540   0.265  11.288  10.357
82000W        W48541   9.926  22.213  13.855
82001W        W48542  21.905  44.303   1.666
82002W        W48543  22.492  23.117  14.798
82003W        W48544  34.061  30.624   3.311
82004W        W48545  43.350  39.886   3.554
82005W        W48546  35.115  11.923   2.229
82006W        W48547  14.653  18.093  14.482
82007W        W48548  30.716  27.114  13.913
82008W        W48549  11.407  10.893   1.817
82009W        W48550  35.179  11.722   2.686
82010W        W48551  20.702  12.103  10.798
82011W        W48552  24.076  30.783   3.391
82012W        W48553   5.267   7.151  12.506
82013W        W48554  36.331  29.540  12.956
82014W        W48555  13.037  19.784   0.679
82015W        W48556   9.970  14.326   2.964
82016W        W48557  39.089  11.138  11.980
82017W        W48558  19.229  32.398  12.422
82018W        W48559  17.669   5.505  11.152
82019W        W48560  10.226  29.307  11.321
82020W        W48561  30.073   9.848  11.146
82021W        W48562  37.802  36.871   1.010
82022W        W48563  28.294  30.573  14.429
82023W        W48564  19.600  29.133  12.350
82024W        W48565  31.088   0.060  12.902
82025W        W48566   2.078  27.961   1.352
82026W        W48567  11.858   0.553   1.889
82027W        W48568  37.024  37.787  14.679
82028W        W48569  23.205  10.142  11.106
82029W        W48570  10.964  21.164   2.346
82030W        W48571  21.537   1.567  14.032
82031W        W48572  14.026   8.841   2.833
82032W        W48573  28.619   3.316  12.364
82033W        W48574  43.298  43.750  12.996
82034W        W48575  34.005  21.123  11.430
82035W        W48576  44.885  11.632  14.351
82036W        W48577  36.240  11.621  14.288
82037W        W48578  28.064  39.746   4.662
82038W        W48579  22.171  29.346   2.155
82039W        W48580  13.256  37.030   3.782
82040W        W48581  39.252  23.727  13.995
82041W        W48582  26.976   3.047   1.201
82042W        W48583  40.831  18.279   3.300
82043W        W48584  28.509  35.286  14.902
82044W        W48585  43.315   7.317  11.051
82045W        W48586   5.770  19.531  12.351
82046W        W48587  10.335  33.116  14.960
82047W        W48588  14.387  42.359   1.303
82048W        W48589   6.760  44.883   0.685
82049W        W48590  14.299   8.424  11.031
82050W        W48591  12.951  20.152  13.983
82051W        W48592  14.355  44.010   4.214
82052W        W48593  23.453  14.144   3.377
82053W        W48594  23.169  26.140   2.653
82054W        W48595   4.838  33.789  10.696
82055W        W48596  21.046  33.441   2.159
82056W        W48597  44.956   0.732   1.418
82057W        W48598  18.526  12.099   4.912
82058W        W48599  10.079   0.073  12.449
82059W        W48600  13.607  10.274   0.919
82060W        W48601  22.726  27.218  13.517
82061W        W48602   9.910  20.140  14.490
82062W        W48603  39.473  26.837  13.610
82063W        W48604   0.257  10.810  11.147
82064W        W48605  35.028  41.382  12.629
82065W        W48606  29.140  34.388  13.563
82066W        W48607  10.693   6.401  14.002
82067W        W48608  24.997   2.249   3.952
82068W        W48609  10.316  34.587   2.293
82069W        W48610  30.855  36.524  10.796
82070W        W48611   3.223  41.089   0.733
82071W        W48612  25.688  44.365   1.983
82072W        W48613  17.286  21.302   4.148
82073W        W48614   4.397   4.936  14.926
82074W        W48615  30.389  28.030   0.745
82075W        W48616   6.820  38.502  14.052
82076W        W48617  28.620  42.008   3.591
82077W        W48618   2.636  40.615  11.082
82078W        W48619   1.398  24.565   1.973
82079W        W48620  26.139  15.724   4.650
82080W        W48621  37.362   3.202   4.590
82081W        W48622  40.285  23.570  10.765
82082W        W48623   9.776  19.941   2.791
82083W        W48624   4.190   3.891  11.015
82084W        W48625  11.254  32.348   2.728
82085W        W48626  11.792  18.807  13.847
82086W        W48627  19.780  27.116  12.984
82087W        W48628  35.920  31.905  14.733
82088W        W48629  35.596  16.620  11.363
82089W        W48630  19.524   9.280   0.908
82090W        W48631  27.131  22.266  10.098
82091W        W48632  16.364  17.110   0.589
82092W        W48633   5.858  25.304   0.403
82093W        W48634  44.774   7.201   2.884
82094W        W48635  21.271  36.708  13.879
82095W        W48636  30.911  43.561  13.035
82096W        W48637   4.380  22.193  13.025
82097W        W48638  37.578   9.242  13.870
82098W        W48639  17.177  38.374  12.406
82099W        W48640  25.721  36.492   1.228
82100W        W48641  19.577  36.928  12.606
82101W        W48642  37.470  28.485  10.705
82102W        W48643  17.606  35.471   3.688
82103W        W48644  18.628  14.083  14.262
82104W        W48645   5.296  42.094   2.797
82105W        W48646  33.435  20.680   3.208
82106W        W48647  19.479  22.199   2.914
82107W        W48648  17.712  18.504  13.562
82108W        W48649  27.660  11.316  11.139
82109W        W48650  39.617  32.486  11.450
82110W        W48651  12.781   9.744   2.568
82111W        W48652  10.837  22.726   3.856
82112W        W48653  37.053  13.568  12.158
82113W        W48654   8.252  25.677   1.878
82114W        W48655  43.362  41.277  12.911
82115W        W48656  22.556  22.498  12.119
82116W        W48657  38.612  43.649   0.945
82117W        W48658   5.304  21.943   3.684
82118W        W48659   2.256   9.861  10.409
82119W        W48660  14.761  10.539  14.579
82120W        W48661  19.424  14.167  14.666
82121W        W48662  21.008  33.810   0.500
82122W        W48663  22.461  26.462  12.484
82123W        W48664  26.220  14.245  11.583
82124W        W48665  36.292  39.841   1.498
82125W        W48666  34.214   0.742   2.370
82126W        W48667  40.964  28.584   4.612
82127W        W48668  43.356  34.151   4.092
82128W        W48669  21.774  39.856   2.814
82129W        W48670  23.021  28.703  14.574
82130W        W48671   4.619   2.762  10.189
82131W        W48672  30.662   4.794  10.555
82132W        W48673  39.788  36.319  13.882
82133W        W48674  19.118   0.971  14.920
82134W        W48675  25.196   7.940   0.750
82135W        W48676  33.118   9.852  13.073
82136W        W48677  21.091  34.597   0.860
82137W        W48678   3.367  44.526  14.554
82138W        W48679  41.860   7.442   0.240
82139W        W48680  23.917  28.629  14.843
82140W        W48681  24.184  27.620   2.827
82141W        W48682  44.442  35.467  10.662
82142W        W48683   4.913  25.621   2.826
82143W        W48684  33.888   3.837  13.084
82144W        W48685   1.670  20.139   0.304
82145W        W48686  32.726   0.307  12.076
82146W        W48687  23.776  16.658  11.532
82147W        W48688  10.269  20.655   2.315
82148W        W48689   5.155  28.981   1.730
82149W        W48690  23.934   4.326   4.524
82150W        W48691  12.114  16.186  12.636
82151W        W48692  34.301   2.671  10.861
82152W        W48693   9.878  22.525   1.309
82153W        W48694  30.606  29.627   0.194
82154W        W48695   6.787  13.752  13.477
82155W        W48696  39.581  36.419  14.811
82156W        W48697  18.279  14.628   1.512
82157W        W48698  38.475  17.448  10.398
82158W        W48699  24.516  16.309   4.572
82159W        W48700  36.678   2.240  12.013
82160W        W48701  37.104  17.076   4.196
82161W        W48702  28.513  35.794  14.926
82162W        W48703  23.228  39.969   3.159
82163W        W48704  26.641  42.553  10.665
82164W        W48705   0.839   5.095   1.843
82165W        W48706  25.142  34.218  11.017
82166W        W48707  28.248  16.118   2.244
82167W        W48708   3.786  15.727   3.687
82168W        W48709  39.306  36.817   0.041
82169W        W48710   2.616  13.723   3.696
82170W        W48711  26.974  24.561   2.790
82171W        W48712  43.537  14.656  12.901
82172W        W48713  15.351  11.115   2.657
82173W        W48714  34.664  17.143   3.965
82174W        W48715  37.482   9.362   4.865
82175W        W48716   9.884  22.250   1.767
82176W        W48717  32.311  39.867  12.052
82177W        W48718   1.835  32.430  14.861
82178W        W48719  29.740  22.463   3.903
82179W        W48720  13.684   4.188   3.355
82180W        W48721  33.394  32.190  11.981
82181W        W48722  32.515  33.315  11.251
82182W        W48723  43.136  33.954  12.426
82183W        W48724  32.432  20.757  12.810
82184W        W48725  34.410  13.776   3.806
82185W        W48726   7.643  19.106  13.768
82186W        W48727   8.622  32.999   4.480
82187W        W48728  27.502  21.468   2.162
82188W        W48729   8.122  30.404  11.503
82189W        W48730   5.631  13.306  11.560
82190W        W48731  22.565  39.525   2.648
82191W        W48732  17.703   0.193   0.957
82192W        W48733  15.132  10.386  10.387
82193W        W48734  15.358  44.654  11.609
82194W        W48735   8.977   3.935   1.146
82195W        W48736  35.478   4.814   2.392
82196W        W48737   6.412   3.125  14.511
82197W        W48738   0.971  26.963  14.423
82198W        W48739   9.774  11.359   4.489
82199W        W48740  25.149  27.191   2.586
82200W        W48741  28.657  31.515  12.371
82201W        W48742  21.675  24.805   4.894
82202W        W48743   7.994  25.720  13.880
82203W        W48744  37.420  22.726   2.013
82204W        W48745  24.161  37.743  13.481
82205W        W48746  20.521   8.353   4.655
82206W        W48747  36.971   2.279   5.607
82207W        W48748  40.096  39.025   3.204
82208W        W48749  15.996   3.694   5.221
82209W        W48750   5.010  10.720   4.590
82210W        W48751  33.755  16.696   0.203
82211W        W48752   7.677  17.093  10.295
82212W        W48753  16.565  20.662  11.687
82213W        W48754  22.809  18.887   1.845
82214W        W48755  16.145  11.160  14.603
82215W        W48756  41.066  37.301   0.080
82216W        W48757  11.866  35.150  10.732
82217W        W48758  23.935  19.869  12.781
82218W        W48759  12.600  16.054  12.571
82219W        W48760   1.381  16.602  11.539
82220W        W48761  13.398  30.976  13.057
82221W        W48762  16.649  18.740  10.761
82222W        W48763   4.220  15.362  12.959
82223W        W48764  17.368  29.047   2.802
82224W        W48765  33.623  24.506   2.691
82225W        W48766  15.758   0.301  10.692
82226W        W48767   9.802  44.502  13.453
82227W        W48768   1.790  21.687  11.953
82228W        W48769   5.903  12.898  13.331
82229W        W48770  22.677  18.530   0.262
82230W        W48771  42.239   4.452   1.075
82231W        W48772   3.534  21.259   3.473
82232W        W48773   1.431   6.405  10.666
82233W        W48774   4.544  12.719  13.112
82234W        W48775  20.786  32.286   4.414
82235W        W48776  25.675  28.217   4.154
82236W        W48777  28.496  34.780  14.813
82237W        W48778  42.503  44.041  11.368
82238W        W48779  42.033  38.124  11.913
82239W        W48780  42.281   4.933   2.804
82240W        W48781  18.674  29.034  12.516
82241W        W48782   9.406  17.851  11.966
82242W        W48783  10.434   9.741   0.653
82243W        W48784  27.517   9.686  14.863
82244W        W48785  12.029  24.088  12.814
82245W        W48786   5.880  41.453  14.289
82246W        W48787  25.730  26.704   3.984
82247W        W48788  36.993  35.789   3.930
82248W        W48789  17.220  32.391  13.572
82249W        W48790  16.837  33.090   1.179
82250W        W48791   6.675  30.577   2.864
82251W        W48792   4.298  26.513   1.380
82252W        W48793  32.988  13.071   0.287
82253W        W48794   9.137  13.667   3.340
82254W        W48795   1.395  30.594  10.430
82255W        W48796  17.727  21.552  11.053
82256W        W48797  37.180   5.653  13.062
82257W        W48798   3.804  43.674  10.612
82258W        W48799  44.972  38.578   4.493
82259W        W48800  23.670  24.809  13.627
82260W        W48801   2.620  25.188   2.106
82261W        W48802  32.521   8.598   1.826
82262W        W48803  23.991  12.577   1.703
82263W        W48804  34.019  36.489   2.996
82264W        W48805   4.796  22.608   9.919
82265W        W48806  18.103  15.730  11.835
82266W        W48807  20.798   3.263  11.231
82267W        W48808  15.197  30.205  11.491
82268W        W48809   3.751  14.772   1.953
82269W        W48810   7.286  42.820  13.598
82270W        W48811  31.564   3.688   5.308
82271W        W48812  26.114  30.358  10.686
82272W        W48813  43.371   0.829   0.936
82273W        W48814  28.503  42.046   0.902
82274W        W48815  44.501  21.018  12.858
82275W        W48816  18.090  29.565   4.350
82276W        W48817  20.781  23.711   1.698
82277W        W48818  29.483  40.603   3.790
82278W        W48819  44.735  20.715  12.032
82279W        W48820   6.243  38.772   0.303
82280W        W48821  10.720  44.193   3.901
82281W        W48822  43.703   1.315  11.442
82282W        W48823  21.694  14.318  12.988
82283W        W48824  14.086  18.252   2.112
82284W        W48825  21.686   9.917  11.678
82285W        W48826  38.711  28.656   2.614
82286W        W48827  14.953  23.713   0.882
82287W        W48828  26.128  39.454   1.218
82288W        W48829  32.876  16.201  13.369
82289W        W48830   2.864  30.125   2.219
82290W        W48831   8.898  15.065   4.566
82291W        W48832   2.856   7.804  12.506
82292W        W48833  13.781  39.285  13.493
82293W        W48834   8.020   9.348  10.686
82294W        W48835  36.309  23.108  10.905
82295W        W48836   6.648  41.357  14.774
82296W        W48837   4.324  43.808   2.396
82297W        W48838   5.635  14.341   1.889
82298W        W48839  40.561  18.123   3.694
82299W        W48840  23.143  36.624  13.954
82300W        W48841   3.091  29.368  12.837
82301W        W48842  13.921  38.523   0.223
82302W        W48843  20.294   4.290  13.923
82303W        W48844  34.908   1.484  12.978
82304W        W48845  23.954   6.283  12.348
82305W        W48846   6.380  40.578   2.659
82306W        W48847  16.810  13.286  13.438
82307W        W48848  15.716  24.922   1.859
82308W        W48849   0.689  22.682   4.517
82309W        W48850  27.497  37.642   4.164
82310W        W48851  40.264   3.030   3.990
82311W        W48852   7.033  28.430  11.123
82312W        W48853  35.636  19.363   2.401
82313W        W48854  13.291  17.640   4.570
82314W        W48855   3.861   9.205   4.784
82315W        W48856  35.620  11.169  11.601
82316W        W48857  34.004  27.142  12.332
82317W        W48858   2.856  15.357   3.965
82318W        W48859  11.527  25.069   0.066
82319W        W48860  43.507   6.470   0.835
82320W        W48861  17.714  19.524  13.316
82321W        W48862  10.992  23.462  11.745
82322W        W48863  27.897  38.514  12.497
82323W        W48864   0.317  35.697   1.598
82324W        W48865   4.462   3.776   1.271
82325W        W48866  15.172  29.954   0.763
82326W        W48867  12.138   6.898  13.855
82327W        W48868   9.883  18.513   0.931
82328W        W48869  14.945  27.017  12.767
82329W        W48870  32.495  40.218  11.098
82330W        W48871   3.602  12.309  10.880
82331W        W48872   1.464  41.529  13.843
82332W        W48873  37.115  22.739  13.980
82333W        W48874   4.246  31.363   2.639
82334W        W48875  32.930   7.331   2.961
82335W        W48876   8.427   6.498  12.442
82336W        W48877  16.345  43.037   3.007
82337W        W48878   8.975   8.144   0.144
82338W        W48879   3.363   6.675   0.444
82339W        W48880  15.165  13.463   3.870
82340W        W48881  34.349   3.916   1.770
82341W        W48882  28.655  33.350  14.987
82342W        W48883  11.224  31.226  12.729
82343W        W48884  44.049   6.269  10.431
82344W        W48885   7.880  22.441  11.159
82345W        W48886  26.044  39.051   1.523
82346W        W48887  22.392  32.522  11.791
82347W        W48888  32.167  18.615   1.261
82348W        W48889  23.365  15.365   2.806
82349W        W48890  35.571  22.009  14.847
82350W        W48891  31.049  12.567  13.780
82351W        W48892   4.290  29.904   4.185
82352W        W48893   7.873  35.426   3.951
82353W        W48894  19.251   3.448  12.853
82354W        W48895  28.518  18.156   4.752
82355W        W48896  14.166  12.251  10.608
82356W        W48897  21.285  22.071   3.618
82357W        W48898  28.621  23.587   1.443
82358W        W48899  32.406  24.089  12.941
82359W        W48900  44.875  16.222   1.390
82360W        W48901  33.492  43.236   4.110
82361W        W48902  37.113  10.799   1.126
82362W        W48903  44.382   9.930  11.120
82363W        W48904  13.705  12.992  14.101
82364W        W48905   0.810  28.193   3.284
82365W        W48906  31.825  20.093  11.683
82366W        W48907  34.317  37.815  10.670
82367W        W48908  11.352   8.163   2.319
82368W        W48909  37.167   5.143   4.008
82369W        W48910  36.521  43.812   0.277
82370W        W48911   3.555  23.610   0.854
82371W        W48912   1.853   8.026   2.468
82372W        W48913  44.629  13.056  14.063
82373W        W48914  36.595  24.349  11.947
82374W        W48915  26.345   6.792  12.032
82375W        W48916  36.049   4.390  12.982
82376W        W48917  18.076  12.107  10.731
82377W        W48918  14.575  41.021   2.303
82378W        W48919  35.334  27.802  14.867
82379W        W48920  10.952  32.376  14.446
82380W        W48921  30.833   9.376  14.815
82381W        W48922  28.553  31.593   1.468
82382W        W48923  11.755  38.282   0.278
82383W        W48924   4.790  11.168  12.446
82384W        W48925   4.838  23.952   9.835
82385W        W48926   4.125  27.236   2.389
82386W        W48927  11.288  22.790   3.565
82387W        W48928   7.114  17.202   4.471
82388W        W48929  23.701  31.902   1.732
82389W        W48930  34.429  29.749   2.471
82390W        W48931   7.937  22.040   0.539
82391W        W48932  39.453   4.466   0.482
82392W        W48933  39.890  35.820  14.019
82393W        W48934  25.249  42.188   3.220
82394W        W48935  32.541  24.866   1.264
82395W        W48936  35.873   0.769   4.079
82396W        W48937  34.406  30.250  14.021
82397W        W48938  28.866   8.246   1.781
82398W        W48939  24.258  33.050  13.728
82399W        W48940  18.987  40.166   3.200
82400W        W48941  29.013  21.807  10.848
82401W        W48942   6.223  35.969   4.559
82402W        W48943  36.218  16.625  10.989
82403W        W48944  32.501  23.320   4.536
82404W        W48945   4.869  12.117  13.669
82405W        W48946  12.876  10.203   4.409
82406W        W48947  13.150  38.851   0.829
82407W        W48948   8.788  31.165  10.521
82408W        W48949   1.051   8.450  14.068
82409W        W48950  28.570  35.703   3.840
82410W        W48951  13.264  16.048   2.862
82411W        W48952  35.518   4.826   1.302
82412W        W48953  43.978  28.122  14.940
82413W        W48954  13.238   4.494   4.672
82414W        W48955  11.203  28.753   4.161
82415W        W48956  42.460  30.405  12.921
82416W        W48957  29.271  26.993  13.441
82417W        W48958  16.149  42.801  13.967
82418W        W48959  10.724  18.617  11.543
82419W        W48960   7.052   0.430  10.753
82420W        W48961  40.096  34.192   0.541
82421W        W48962  31.921   1.302  11.270
82422W        W48963  21.793  24.472  10.754
82423W        W48964  30.932   1.505   1.358
82424W        W48965   8.554  35.398   1.204
82425W        W48966   4.489  22.681  11.726
82426W        W48967  12.385   0.351   2.807
82427W        W48968  40.134   3.815   1.857
82428W        W48969  30.864  32.388   5.083
82429W        W48970   2.449   4.125   4.110
82430W        W48971  42.865  41.521   3.322
82431W        W48972   3.187   3.902   1.802
82432W        W48973  24.192  34.507   0.008
82433W        W48974  30.238  41.126  13.288
82434W        W48975   7.652  20.268   3.837
82435W        W48976   6.951  24.028  14.340
82436W        W48977  40.166   0.947  10.386
82437W        W48978  13.971   7.280  14.257
82438W        W48979  16.191   9.627   2.445
82439W        W48980  12.582  22.469   1.756
82440W        W48981   3.010  17.193   3.811
82441W        W48982  42.818  40.504   3.174
82442W        W48983  36.501  14.820   2.688
82443W        W48984  19.610  30.035   2.677
82444W        W48985  12.595   8.249  12.481
82445W        W48986   2.282  32.624   1.290
82446W        W48987  39.455  37.495  11.971
82447W        W48988  35.565  13.094   0.876
82448W        W48989   7.598   7.737   1.926
82449W        W48990   1.243   5.894   1.310
82450W        W48991  39.508   4.544   1.496
82451W        W48992   3.781   3.333  12.144
82452W        W48993  28.154  30.779  12.428
82453W        W48994  28.376   6.818  11.648
82454W        W48995   2.800  32.608  12.658
82455W        W48996   8.936  38.530   0.443
82456W        W48997  11.421  10.268   4.484
82457W        W48998  27.056   9.764  13.384
82458W        W48999   7.657   8.545   0.194
82459W        W49000  34.510  40.331   3.265
82460W        W49001   0.423  24.258   1.250
82461W        W49002  42.074  43.009   3.690
82462W        W49003  17.741  37.520  10.832
82463W        W49004  21.221  38.501  10.784
82464W        W49005  28.092  39.353   2.294
82465W        W49006  20.883   2.276  14.266
82466W        W49007  15.850  10.303  13.301
82467W        W49008  44.382  11.614   4.680
82468W        W49009  27.605  29.856   3.697
82469W        W49010  28.523  21.156  10.827
82470W        W49011  27.370  44.317  14.395
82471W        W49012  33.777  14.345   2.344
82472W        W49013  15.355  21.711   4.568
82473W        W49014  15.169   4.885  14.019
82474W        W49015   8.142  40.849  13.851
82475W        W49016  31.451   0.447  10.519
82476W        W49017  28.974  22.542  14.410
82477W        W49018  40.774   3.463   2.909
82478W        W49019  35.064   6.739  10.662
82479W        W49020   6.167  29.172  12.830
82480W        W49021  35.778  25.947  11.897
82481W        W49022  34.593  37.666  10.263
82482W        W49023  10.734  15.831  14.851
82483W        W49024  14.767   7.290   0.890
82484W        W49025   8.905  16.897   0.408
82485W        W49026  35.418   9.195  12.415
82486W        W49027   3.795  28.509  11.619
82487W        W49028  13.058  27.014   4.700
82488W        W49029  42.850  20.231  13.559
82489W        W49030  39.110  41.297   3.913
82490W        W49031  13.794  14.225   4.767
82491W        W49032  29.940  40.974  14.891
82492W        W49033  38.360  33.563  11.534
82493W        W49034  23.991  11.216  11.553
82494W        W49035  11.303  32.054   2.286
82495W        W49036  23.578  43.502   0.804
82496W        W49037  19.949  42.915   4.235
82497W        W49038   4.909  16.294   0.176
82498W        W49039  14.918  43.875  11.963
82499W        W49040  16.026   3.610   2.803
82500W        W49041   5.329  21.777   0.483
82501W        W49042  43.247   9.925   3.308
82502W        W49043  24.110  26.057  11.213
82503W        W49044  26.558   4.234   3.760
82504W        W49045  37.667  42.858   4.353
82505W        W49046  15.142  12.872   1.415
82506W        W49047  33.292   6.291   0.265
82507W        W49048  35.628  10.065   2.347
82508W        W49049   7.141  43.915  13.899
82509W        W49050  10.362   5.379  13.902
82510W        W49051  27.109  43.506   2.384
82511W        W49052  31.421  44.923  10.550
82512W        W49053  37.948  20.735   0.286
82513W        W49054  36.344  23.989  14.901
82514W        W49055  39.955  23.616   4.951
82515W        W49056   9.221  31.364   2.507
82516W        W49057   5.651  41.907   0.468
82517W        W49058   9.687  33.951  12.477
82518W        W49059   0.882  42.848  10.179
82519W        W49060  30.389  24.527   1.669
82520W        W49061  28.019  26.533   1.394
82521W        W49062  15.127  32.718   4.032
82522W        W49063  10.387  21.937  13.772
82523W        W49064  44.281   3.121  14.350
82524W        W49065   1.361  18.723   0.082
82525W        W49066  41.398   0.818  11.193
82526W        W49067  29.566  42.376  13.859
82527W        W49068   5.778  30.359   3.339
82528W        W49069   8.802  11.850  14.887
82529W        W49070  14.340  42.337  13.306
82530W        W49071   5.934  23.064  13.797
82531W        W49072  10.365  23.209   2.035
82532W        W49073  10.969  35.887   5.039
82533W        W49074  25.356   2.827   2.260
82534W        W49075  23.646  40.269  12.191
82535W        W49076  28.114  12.170  10.770
82536W        W49077  38.910  32.563  11.925
82537W        W49078   5.438  23.485   0.377
82538W        W49079  32.041  36.349  12.928
82539W        W49080   7.986  29.101  14.929
82540W        W49081  13.374  29.422  10.941
82541W        W49082   0.533   6.847  12.919
82542W        W49083  28.485  27.740   2.145
82543W        W49084  33.393  11.882  10.942
82544W        W49085  31.512  36.458   4.859
82545W        W49086   5.939  24.366   2.454
82546W        W49087  32.945  18.570  14.820
82547W        W49088  27.186   1.821  13.349
82548W        W49089  42.278  39.426   2.740
82549W        W49090  26.065  23.931  13.711
82550W        W49091  13.884  14.485  13.328
82551W        W49092  30.598  27.037  11.879
82552W        W49093  43.367  17.722   4.753
82553W        W49094  33.483   0.684  10.966
82554W        W49095  28.661   8.624  11.096
82555W        W49096  19.094  16.339  12.881
82556W        W49097  11.834   5.756  11.440
82557W        W49098  32.664  23.653   0.873
82558W        W49099   7.193  26.031  13.901
82559W        W49100  38.125  21.807   2.671
82560W        W49101  19.878  35.464   1.826
82561W        W49102  35.419  21.713   2.363
82562W        W49103  13.496  21.452  12.851
82563W        W49104  40.040  14.118  11.917
82564W        W49105  42.655  42.396   4.045
82565W        W49106  31.108  10.159   1.785
82566W        W49107  31.910  36.890   0.125
82567W        W49108   8.233  22.247  11.493
82568W        W49109  21.671   8.918  14.018
82569W        W49110  15.608  29.065  11.576
82570W        W49111  21.083   1.470   4.178
82571W        W49112  30.904   6.619   2.371
82572W        W49113  10.433  27.674  13.409
82573W        W49114  15.824  12.427  14.440
82574W        W49115  28.145  43.890  10.347
82575W        W49116  25.353  11.026  11.295
82576W        W49117  33.474  37.319  14.395
82577W        W49118  18.754  25.660   4.605
82578W        W49119  33.791  14.609  10.723
82579W        W49120  14.271   9.097  12.496
82580W        W49121   1.120  22.926   1.455
82581W        W49122  37.823  11.658   0.414
82582W        W49123  23.234  43.898  13.767
82583W        W49124  18.876  20.282  11.077
82584W        W49125  10.350   2.485   2.690
82585W        W49126  27.078  30.572  13.687
82586W        W49127  10.415  21.053  14.380
82587W        W49128  21.157  31.192  11.859
82588W        W49129  20.080   2.688   2.145
82589W        W49130   2.503  30.473  12.559
82590W        W49131   5.872  28.699   0.783
82591W        W49132  22.105  21.939   3.103
82592W        W49133  27.629  18.732   2.609
82593W        W49134  41.437  25.067  13.092
82594W        W49135  29.914  11.314  11.984
82595W        W49136  13.752   4.276   4.355
82596W        W49137  43.978  29.128   2.597
82597W        W49138  14.542  36.561   3.132
82598W        W49139  21.633  19.114  11.474
82599W        W49140  12.791  31.073   1.911
82600W        W49141  15.149   9.186   0.746
82601W        W49142  20.660  15.133  14.398
82602W        W49143  18.055  33.561  12.648
82603W        W49144   8.200  26.414  12.021
82604W        W49145   9.702  10.749   1.875
82605W        W49146  16.231   1.834   2.933
82606W        W49147  21.447  17.654  11.579
82607W        W49148  38.541  29.568  10.499
82608W        W49149  29.932  37.675  10.529
82609W        W49150  34.997   5.628  14.344
82610W        W49151  43.496  27.227   3.726
82611W        W49152  16.657  14.298   1.750
82612W        W49153  11.573   6.462   3.655
82613W        W49154  38.039   3.697   2.891
82614W        W49155  33.046  20.814   1.436
82615W        W49156  37.834   4.299  14.432
82616W        W49157  35.845  24.755  12.418
82617W        W49158  24.374   9.464   2.361
82618W        W49159   7.732  19.566   2.648
82619W        W49160  18.136   1.776  12.637
82620W        W49161   9.775  13.351  12.140
82621W        W49162   5.938   8.788  14.206
82622W        W49163   5.876  38.980  12.895
82623W        W49164  34.182  41.108   2.833
82624W        W49165  19.614   2.318   4.598
82625W        W49166   7.484  23.065   4.581
82626W        W49167  43.230  41.544   2.462
82627W        W49168   6.744  20.086  11.459
82628W        W49169  12.112   8.706   3.600
82629W        W49170  41.881   6.787   0.588
82630W        W49171   7.800  11.826  14.818
82631W        W49172  25.244  16.529  11.714
82632W        W49173  31.126  27.132  13.588
82633W        W49174  13.128  24.915  12.951
82634W        W49175   8.738  36.123  10.743
82635W        W49176   6.706  19.901   0.473
82636W        W49177  30.877   4.460   4.338
82637W        W49178  31.469  41.057   4.244
82638W        W49179  28.262  40.383   0.340
82639W        W49180  44.984  16.771   3.656
82640W        W49181  21.407  22.088   0.756
82641W        W49182   0.294   2.927   2.355
82642W        W49183  36.881  26.989  10.682
82643W        W49184   0.784   6.939   3.628
82644W        W49185   4.350  10.768   2.806
82645W        W49186   8.847  26.500   1.800
82646W        W49187  42.873  11.604   2.803
82647W        W49188  33.863  37.766   1.493
82648W        W49189  18.448  29.154   0.217
82649W        W49190  35.926  17.663  10.672
82650W        W49191  17.104  26.902   3.603
82651W        W49192   9.234  29.847   2.138
82652W        W49193   9.241   1.863   3.807
82653W        W49194   2.940  14.483  12.595
82654W        W49195   1.915  44.662  10.863
82655W        W49196  21.996  26.663  11.605
82656W        W49197  25.532  43.731  13.716
82657W        W49198  10.917   7.886  10.714
82658W        W49199  29.375  28.977  12.905
82659W        W49200  17.667  38.227   1.573
82660W        W49201  26.931  44.968  13.888
82661W        W49202  10.635  38.395   4.085
82662W        W49203   7.320  31.210   0.699
82663W        W49204  27.113   1.292   2.898
82664W        W49205  14.825  16.381   0.516
82665W        W49206   7.858  41.481  10.852
82666W        W49207   9.389  10.337   0.411
82667W        W49208  14.758   4.388   1.247
82668W        W49209  17.614  29.469  14.816
82669W        W49210   5.767   5.405  14.941
82670W        W49211   0.781  19.033   3.288
82671W        W49212  23.600  40.261  13.550
82672W        W49213   5.754   3.212   0.993
82673W        W49214  32.901   8.827   0.289
82674W        W49215  23.497  42.836   2.380
82675W        W49216  37.043   3.880   2.776
82676W        W49217  40.970  11.122  11.146
82677W        W49218  29.025  21.836  13.639
82678W        W49219  19.891   8.550  10.289
82679W        W49220  12.836  13.049   2.774
82680W        W49221  39.617   1.845  14.856
82681W        W49222  34.608  13.307   4.722
82682W        W49223  37.373  23.407  11.700
82683W        W49224  31.155  43.419   1.527
82684W        W49225  18.267   9.728   0.250
82685W        W49226  42.954   4.194   2.591
82686W        W49227  41.012  19.258  13.054
82687W        W49228   0.350  29.899  12.061
82688W        W49229  21.165  34.292  13.305
82689W        W49230   0.507  20.033  10.506
82690W        W49231   0.407  30.712   2.328
82691W        W49232   7.850   3.022   9.990
82692W        W49233   5.452  26.772   0.464
82693W        W49234   0.443  25.262   2.498
82694W        W49235  24.574   8.245  14.490
82695W        W49236   7.964  44.451  10.243
82696W        W49237  28.209  24.601  13.817
82697W        W49238   1.905  19.745   3.718
82698W        W49239  24.195  22.780   0.010
82699W        W49240   8.634  12.918   4.928
82700W        W49241  12.677  36.284  14.587
82701W        W49242  31.913  19.149   0.398
82702W        W49243  10.592  10.269  11.267
82703W        W49244  39.631  12.054  13.669
82704W        W49245  23.618   1.164  11.068
82705W        W49246  19.158   2.286   4.295
82706W        W49247  25.378  42.656  12.557
82707W        W49248   0.240  43.340   4.837
82708W        W49249   0.348  34.359  12.086
82709W        W49250  16.072  19.597   1.806
82710W        W49251   3.517  41.038  12.416
82711W        W49252  10.706  15.260   2.224
82712W        W49253  31.744  13.289  12.531
82713W        W49254  34.655   1.023   2.376
82714W        W49255  28.616  24.266   3.822
82715W        W49256  36.256  30.109   1.084
82716W        W49257  42.860  22.428   2.710
82717W        W49258  18.475  11.532  14.505
82718W        W49259  10.798  21.676   1.164
82719W        W49260  14.723  27.844  10.690
82720W        W49261  39.859   6.218  13.100
82721W        W49262  11.433   2.942  13.872
82722W        W49263  16.178  12.672  12.417
82723W        W49264  28.612  30.729   4.518
82724W        W49265  13.857  38.608   2.284
82725W        W49266  18.326  12.084  12.898
82726W        W49267   5.823  44.062  14.313
82727W        W49268   2.477   8.078   4.314
82728W        W49269  39.106   2.960   3.232
82729W        W49270  30.169  30.895  14.416
82730W        W49271  29.656   8.661  11.995
82731W        W49272  11.180  24.170  10.645
82732W        W49273   8.876  36.967   2.355
82733W        W49274  25.129   1.374   1.320
82734W        W49275  19.023  19.923   0.327
82735W        W49276  14.777  37.308  11.595
82736W        W49277  21.302  26.144   2.642
82737W        W49278  33.889  38.397   3.863
82738W        W49279   4.063  12.402  13.321
82739W        W49280  36.395  41.921  13.845
82740W        W49281  32.885  10.374   2.328
82741W        W49282  38.835   8.736   3.338
82742W        W49283  21.026  33.318   0.696
82743W        W49284  30.614  42.791  11.215
82744W        W49285  30.718  11.323  14.793
82745W        W49286  13.381  37.152  11.006
82746W        W49287  25.112  33.783  13.390
82747W        W49288  37.960   3.431  11.221
82748W        W49289   3.351  34.922   1.457
82749W        W49290  28.377  44.928   1.173
82750W        W49291  24.263  16.906   3.383
82751W        W49292  35.565  40.939   2.273
82752W        W49293  26.487  13.803  11.994
82753W        W49294  30.448  26.396   0.909
82754W        W49295  22.570  29.690   2.295
82755W        W49296  14.622  38.117   3.158
82756W        W49297   7.116   4.924   1.516
82757W        W49298  31.562  13.325   1.735
82758W        W49299  19.699  39.014   4.192
82759W        W49300  42.983  11.891   2.379
82760W        W49301  34.448  35.305   0.919
82761W        W49302  10.131  23.909   2.777
82762W        W49303  36.269  30.871  12.089
82763W        W49304   7.346  13.109  14.914
82764W        W49305  23.593  14.502   2.720
82765W        W49306  17.221   2.923  11.995
82766W        W49307   7.811  15.536   4.107
82767W        W49308  18.225  20.824   2.882
82768W        W49309  18.129  22.729   4.552
82769W        W49310  10.726   4.663   0.262
82770W        W49311  44.101  12.713  10.013
82771W        W49312  37.668   2.452  13.377
82772W        W49313  36.904  36.529   0.757
82773W        W49314   1.553  25.703  10.986
82774W        W49315  14.370  33.087  11.115
82775W        W49316  23.926  23.310   0.750
82776W        W49317  26.982   9.393   4.995
82777W        W49318   4.746  20.482   2.086
82778W        W49319  17.310  13.864   2.316
82779W        W49320  24.036   1.161   3.779
82780W        W49321  41.949  18.004   2.764
82781W        W49322   7.457   7.957  11.568
82782W        W49323  36.702  15.123   0.090
82783W        W49324  12.996  28.023   0.765
82784W        W49325   5.510  37.354  13.411
82785W        W49326  12.848  28.043   4.354
82786W        W49327  16.140  34.997  14.412
82787W        W49328  37.530  38.207  12.037
82788W        W49329  29.109  21.297   0.873
82789W        W49330  39.640  22.620   0.010
82790W        W49331   9.789  35.134  14.439
82791W        W49332  36.496  44.228  11.264
82792W        W49333  26.170  11.816  13.464
82793W        W49334  36.003  36.130  11.637
82794W        W49335   0.743   7.310  12.129
82795W        W49336  43.037  36.144  12.440
82796W        W49337  20.153  33.317   4.439
82797W        W49338  29.595  42.846   3.630
82798W        W49339  16.275  37.375  11.389
82799W        W49340  42.505  25.510  10.659
82800W        W49341   4.251  17.758   3.788
82801W        W49342  16.975  42.859   0.550
82802W        W49343  12.687  33.836   4.498
82803W        W49344   9.582  38.186   3.140
82804W        W49345  22.193   6.223  12.088
82805W        W49346  37.108  42.866  11.477
82806W        W49347  32.339  42.732   3.692
82807W        W49348   1.497  12.044  11.228
82808W        W49349  18.068  34.534   1.660
82809W        W49350  13.317  30.583   2.581
82810W        W49351  42.944  39.804   0.249
82811W        W49352  31.801  25.113   4.228
82812W        W49353  21.184  27.609  14.247
82813W        W49354  24.287  21.166  13.488
82814W        W49355  29.601  33.212   3.557
82815W        W49356   1.635  32.939  13.986
82816W        W49357  23.758   9.875   0.044
82817W        W49358  12.682  17.600  13.513
82818W        W49359  21.662  11.534   1.729
82819W        W49360  20.517  31.897  12.978
82820W        W49361  38.866  16.153  14.705
82821W        W49362  36.517  42.786  14.983
82822W        W49363  16.925  26.229   1.227
82823W        W49364  10.125  14.511  14.326
82824W        W49365  33.410  40.969  13.764
82825W        W49366  32.904  23.505   2.218
82826W        W49367  34.638   8.805   2.322
82827W        W49368  17.801  40.666   3.860
82828W        W49369  17.954  35.019  12.055
82829W        W49370   8.713   8.846   5.356
82830W        W49371  42.415  22.759  14.055
82831W        W49372  38.551   3.903   4.870
82832W        W49373  32.576  15.321   0.330
82833W        W49374  12.083  15.625  10.668
82834W        W49375  28.946   4.988  12.157
82835W        W49376  25.966   0.104   2.174
82836W        W49377  30.050  26.591  14.963
82837W        W49378  39.566  19.301  12.865
82838W        W49379   2.455  19.024  10.426
82839W        W49380  11.984  33.856  13.917
82840W        W49381   1.252  19.064   3.989
82841W        W49382  22.972  32.459  11.649
82842W        W49383   2.982  20.658   2.672
82843W        W49384  31.492  10.354   5.054
82844W        W49385  32.493  42.382   3.357
82845W        W49386  39.077  29.815   0.337
82846W        W49387  44.806  32.660   2.790
82847W        W49388  22.143   5.616  14.292
82848W        W49389  28.463  31.393   3.245
82849W        W49390  10.679  30.561  13.897
82850W        W49391  35.218   6.319  10.347
82851W        W49392  26.488  32.684  12.903
82852W        W49393  16.157  43.506   3.276
82853W        W49394   5.016  28.091   3.161
82854W        W49395   8.363   9.203   4.422
82855W        W49396  43.996   7.554  11.497
82856W        W49397  26.768  25.738  11.151
82857W        W49398  43.002  15.751   2.667
82858W        W49399  24.723  29.398  12.950
82859W        W49400  15.190  34.411   1.611
82860W        W49401  38.341  16.166  12.938
82861W        W49402  19.766  11.324   1.852
82862W        W49403  28.690  29.023   4.357
82863W        W49404   4.232  36.876   0.440
82864W        W49405  37.870  14.601   3.212
82865W        W49406  33.083  13.925  14.926
82866W        W49407   1.739  35.382  11.536
82867W        W49408   8.256   9.191   0.390
82868W        W49409   7.759  13.321   0.708
82869W        W49410  41.784  36.123   3.267
82870W        W49411  36.576  44.689  14.711
82871W        W49412  33.347  39.015   2.100
82872W        W49413  15.230  22.601  13.373
82873W        W49414  31.641  25.262   0.951
82874W        W49415  27.084  44.964   0.534
82875W        W49416  26.604  19.419  12.132
82876W        W49417   7.750  18.645  12.377
82877W        W49418  26.717  38.373   4.252
82878W        W49419  33.789   5.281  11.114
82879W        W49420  19.175   2.358   3.782
82880W        W49421  19.754  38.945   0.946
82881W        W49422  18.764  17.266   3.718
82882W        W49423   0.854  30.520   3.545
82883W        W49424  11.866  11.784   2.706
82884W        W49425   2.978  24.165  14.745
82885W        W49426  21.217  12.169  10.780
82886W        W49427   9.897  34.599  10.674
82887W        W49428  26.657  16.232  13.611
82888W        W49429  30.411  29.185   0.435
82889W        W49430  34.985  11.198   4.380
82890W        W49431  19.146  30.176  10.911
82891W        W49432  17.130  17.431  13.881
82892W        W49433  26.995  26.069  13.325
82893W        W49434  11.276  10.659   3.973
82894W        W49435  26.873  25.473  14.357
82895W        W49436  16.706  22.793  14.856
82896W        W49437  25.175   1.973   2.605
82897W        W49438  25.245  17.244   3.091
82898W        W49439  13.845  37.473  11.669
82899W        W49440  14.673  15.039   4.163
82900W        W49441  29.599  37.967   0.426
82901W        W49442  30.506  16.636   3.673
82902W        W49443  43.634  13.294  14.696
82903W        W49444  13.100   6.704  11.603
82904W        W49445  28.110  26.213   1.000
82905W        W49446   3.946  17.796  13.001
82906W        W49447  41.759  39.385  12.504
82907W        W49448  35.919  34.444  11.007
82908W        W49449  21.612  12.649   3.269
82909W        W49450  36.767  21.934   0.860
82910W        W49451  34.823   7.631   4.091
82911W        W49452  10.573  37.017  10.724
82912W        W49453  42.410  41.540  10.713
82913W        W49454   2.292  35.425   0.095
82914W        W49455  41.401  11.934   4.193
82915W        W49456   2.017  44.626  14.275
82916W        W49457  25.622   3.370  13.023
82917W        W49458  37.352  25.493  12.079
82918W        W49459   9.359  24.961   2.372
82919W        W49460  17.239  24.426  11.964
82920W        W49461  41.881  10.783  12.479
82921W        W49462  28.686  30.169  13.779
82922W        W49463  26.233  15.229  12.964
82923W        W49464   4.157  30.016  10.616
82924W        W49465   5.440  16.223  11.167
82925W        W49466   6.404  29.125   4.867
82926W        W49467  15.829  39.669  11.949
82927W        W49468  23.225  44.628  12.637
82928W        W49469  40.470  16.056  12.231
82929W        W49470  36.778  19.340   3.718
82930W        W49471   2.839  28.395  14.369
82931W        W49472  25.131  31.221  13.363
82932W        W49473  33.657  37.556  12.101
82933W        W49474  36.996  31.644  12.941
82934W        W49475  16.257  38.306   4.181
82935W        W49476   2.006  29.190   3.249
82936W        W49477  30.425  41.900   0.421
82937W        W49478   9.594  41.509  14.874
82938W        W49479   8.370   2.323  14.998
82939W        W49480  19.531  40.625  14.122
82940W        W49481  38.254  25.610   1.287
82941W        W49482  22.570  25.737  13.063
82942W        W49483  34.078   8.271  11.330
82943W        W49484   8.117  37.303  11.146
82944W        W49485  44.274  13.315  12.818
82945W        W49486  27.274  29.072   1.760
82946W        W49487  19.394   4.364  11.886
82947W        W49488  12.917  31.615   4.133
82948W        W49489  37.547   3.138   1.663
82949W        W49490  27.451  35.984  13.206
82950W        W49491  25.464  20.322  10.672
82951W        W49492   2.613  13.401   0.754
82952W        W49493  20.115  25.240   1.956
82953W        W49494  39.273   3.481  13.425
82954W        W49495  32.537  41.397   0.985
82955W        W49496  42.696   4.370   2.122
82956W        W49497   9.789  22.977  11.081
82957W        W49498  15.326   6.409   1.690
82958W        W49499  29.373  14.048   0.294
82959W        W49500   2.183   3.879  11.840
82960W        W49501   8.389  20.512  12.707
82961W        W49502  26.198  18.850   4.667
82962W        W49503  25.209  35.815   3.894
82963W        W49504   8.243  18.437  12.501
82964W        W49505   6.948  20.599  11.036
82965W        W49506   6.827  35.051   0.470
82966W        W49507  13.768  29.790  14.952
82967W        W49508   5.892  22.667   0.249
82968W        W49509  22.586   4.270  10.459
82969W        W49510  14.646  16.315   2.799
82970W        W49511  24.945   6.880   3.956
82971W        W49512  40.331  41.547  12.003
82972W        W49513  17.811   4.507  11.195
82973W        W49514   5.635   6.323   0.678
82974W        W49515   4.782  29.000   3.574
82975W        W49516  20.669  37.847  14.648
82976W        W49517  22.169  42.305   1.280
82977W        W49518  39.316   4.450   3.244
82978W        W49519   9.250  11.888  12.980
82979W        W49520  31.999  23.642  13.597
82980W        W49521   0.928   1.331   4.021
82981W        W49522  26.071  20.829  10.606
82982W        W49523  21.645  35.920  12.822
82983W        W49524  13.620  37.962   2.832
82984W        W49525  44.794  19.675  11.476
82985W        W49526  28.682  25.020   0.730
82986W        W49527  41.379  41.062   2.864
82987W        W49528  26.035  38.670   1.879
82988W        W49529  27.214  30.004   1.294
82989W        W49530  10.562  10.534  11.734
82990W        W49531  27.675  38.923   1.797
82991W        W49532  32.991   7.243  13.892
82992W        W49533  36.968   9.900   1.838
82993W        W49534  20.119  33.398  13.619
82994W        W49535  29.971  18.786   3.941
82995W        W49536  23.491   1.680   0.057
82996W        W49537   5.231  22.083   2.294
82997W        W49538   5.169   6.420  11.900
82998W        W49539  43.018  32.830  14.662
82999W        W49540  43.099  35.970  13.033
83000W        W49541  25.039  26.053  13.336
83001W        W49542   3.409  14.734   4.163
83002W        W49543  12.527  38.949  11.358
83003W        W49544  35.534  42.027  10.716
83004W        W49545  35.151  36.469  11.561
83005W        W49546   6.965  27.078  11.724
83006W        W49547   8.185  25.979   2.280
83007W        W49548  10.863  20.336   4.557
83008W        W49549   8.959  43.331  12.639
83009W        W49550  19.465  24.228  10.623
83010W        W49551   4.335  29.394   4.232
83011W        W49552  35.309  22.996  12.953
83012W        W49553   3.472  23.799  12.569
83013W        W49554  29.257  35.984   3.577
83014W        W49555  32.857  35.654   4.287
83015W        W49556   8.376  10.746   3.143
83016W        W49557   1.983   4.505   1.169
83017W        W49558  15.579   6.482  13.520
83018W        W49559   3.305  30.711  13.225
83019W        W49560  19.660  16.079   2.172
83020W        W49561  43.043  18.943   0.251
83021W        W49562  34.989  23.582   2.286
83022W        W49563   1.387  29.856   1.906
83023W        W49564  22.220  11.313  14.237
83024W        W49565   6.908  36.898  12.917
83025W        W49566  29.976   5.786   3.192
83026W        W49567  32.063  43.841   9.826
83027W        W49568  38.051  27.953  14.748
83028W        W49569  33.112  31.040  14.900
83029W        W49570  22.141  36.885   4.598
83030W        W49571  23.497  12.681  12.009
83031W        W49572  10.387  16.571  10.730
83032W        W49573  15.180  43.950   3.748
83033W        W49574  11.075   6.669   1.470
83034W        W49575  19.584  39.588  10.798
83035W        W49576  17.838   9.818  12.615
83036W        W49577  29.671  25.309   2.202
83037W        W49578   1.099  29.742   4.594
83038W        W49579  11.249  26.177   1.791
83039W        W49580  28.898  37.916  10.603
83040W        W49581  17.609  44.207  14.919
83041W        W49582   3.586   3.094  14.351
83042W        W49583  40.522  32.760   2.589
83043W        W49584   3.248  33.397   3.057
83044W        W49585  42.854  37.912   5.027
83045W        W49586   6.166  17.764   2.786
83046W        W49587  28.846  22.170   3.075
83047W        W49588  21.123  11.567   3.708
83048W        W49589   1.418  31.087   1.456
83049W        W49590   5.793  18.339   2.155
83050W        W49591   9.310  30.686  12.104
83051W        W49592  26.185  11.177  14.572
83052W        W49593   0.066  39.386  14.100
83053W        W49594   1.506  25.660  11.496
83054W        W49595  31.403  18.777   4.642
83055W        W49596   2.475  18.675  13.792
83056W        W49597  26.045  38.244  13.005
83057W        W49598  23.701  16.536   1.424
83058W        W49599  37.231   7.780   4.379
83059W        W49600  25.611  43.059   0.956
83060W        W49601  25.034   4.686   2.351
83061W        W49602   5.915   4.781   0.775
83062W        W49603  33.829  20.771   0.943
83063W        W49604   3.326  37.101  14.770
83064W        W49605   3.120   3.615  11.775
83065W        W49606  17.394  43.270  12.052
83066W        W49607   7.863  14.526  14.951
83067W        W49608  23.694  22.167   4.119
83068W        W49609   5.246  23.532   2.882
83069W        W49610  18.113  16.586   3.277
83070W        W49611  35.936   8.924   4.731
83071W        W49612  15.699  39.688   4.961
83072W        W49613  22.462  23.072   4.775
83073W        W49614   8.646   3.510  14.294
83074W        W49615  34.002  35.422  13.847
83075W        W49616   1.871  22.353  14.040
83076W        W49617  14.640  33.519   0.539
83077W        W49618  31.129  20.151  13.545
83078W        W49619  13.773  37.500   1.419
83079W        W49620  28.115  15.448   4.758
83080W        W49621  12.832  14.347   1.745
83081W        W49622  37.630  13.057   2.381
83082W        W49623  30.992  18.991   4.408
83083W        W49624  43.597  44.890  13.504
83084W        W49625  11.302  40.821  11.585
83085W        W49626  12.765  43.866   0.834
83086W        W49627  24.147  39.574   0.457
83087W        W49628   4.226  37.653  10.138
83088W        W49629  35.893  20.252   2.732
83089W        W49630   1.928  16.851   0.681
83090W        W49631  20.896  30.567   1.422
83091W        W49632  12.867  12.639   0.700
83092W        W49633  21.357  43.243   4.179
83093W        W49634  25.619  38.503   0.923
83094W        W49635   0.303  17.971  14.317
83095W        W49636   3.853  39.064   0.367
83096W        W49637  32.389  20.518   0.314
83097W        W49638  33.708  44.866   3.638
83098W        W49639   9.635  31.453   1.235
83099W        W49640  39.496  25.718  14.483
83100W        W49641  44.293   7.424   4.676
83101W        W49642  11.655  22.288  11.951
83102W        W49643  21.603  23.640  11.051
83103W        W49644   8.857  31.058   2.154
83104W        W49645  11.357  13.265   5.038
83105W        W49646  31.398   5.829  11.885
83106W        W49647  34.884  36.807   4.027
83107W        W49648  41.766  26.650   3.546
83108W        W49649  21.835  30.566   2.344
83109W        W49650   2.923  39.733  13.937
83110W        W49651  13.060  41.994  11.246
83111W        W49652   5.735   4.494   0.268
83112W        W49653  10.878  23.669   4.150
83113W        W49654  22.487   4.107   4.913
83114W        W49655  43.043  19.932   0.355
83115W        W49656   6.672  18.641   4.505
83116W        W49657  41.763   7.816  14.879
83117W        W49658   9.661  36.675  10.727
83118W        W49659   8.228  13.843   3.679
83119W        W49660  39.577   3.287   4.579
83120W        W49661  25.779  42.735   1.301
83121W        W49662  21.326   6.178  11.860
83122W        W49663   4.257  24.044   4.569
83123W        W49664   1.276  19.744   4.855
83124W        W49665  14.010   5.841  10.322
83125W        W49666  27.648   6.161   1.366
83126W        W49667  15.569  23.914   1.994
83127W        W49668   3.291  42.049   0.978
83128W        W49669  34.575  11.248   3.105
83129W        W49670  20.492  32.841   2.742
83130W        W49671  13.796   6.908  11.956
83131W        W49672  23.489  10.245   0.956
83132W        W49673  13.500  24.934  11.463
83133W        W49674  14.804  33.585   1.549
83134W        W49675  13.109  42.493   0.752
83135W        W49676   8.732  28.690   1.770
83136W        W49677  10.238  22.285   0.878
83137W        W49678   4.293  18.446   1.435
83138W        W49679  34.518  23.057   0.044
83139W        W49680  42.472  34.811  14.786
83140W        W49681  32.559  32.988  10.655
83141W        W49682  15.438  43.718   1.792
83142W        W49683  28.693  37.515  12.994
83143W        W49684  18.729  12.925  14.778
83144W        W49685  28.979  43.442  11.012
83145W        W49686   7.135   7.914   3.612
83146W        W49687   4.506   0.451   1.829
83147W        W49688  29.449  30.718   1.192
83148W        W49689  37.988  44.417   0.956
83149W        W49690  24.532  39.080   3.574
83150W        W49691  36.441   0.184  13.633
83151W        W49692  25.110   5.412   4.623
83152W        W49693  11.771   0.897  12.436
83153W        W49694  20.749   3.876  13.335
83154W        W49695  34.441  11.584  10.966
83155W        W49696  39.784  22.611  13.402
83156W        W49697   3.810   1.858   2.235
83157W        W49698  14.796  19.797   1.017
83158W        W49699  13.086  34.935   2.788
83159W        W49700  22.181  35.296  13.652
83160W        W49701  37.058  40.209  12.101
83161W        W49702   8.432  16.649   0.385
83162W        W49703  14.840  38.138  12.599
83163W        W49704  31.994  21.016   3.706
83164W        W49705  29.377  19.442   4.040
83165W        W49706   9.316  29.755   4.932
83166W        W49707   2.538  32.972   0.212
83167W        W49708   4.491  17.541  14.742
83168W        W49709  11.334  40.386   0.413
83169W        W49710  42.300   1.290   2.907
83170W        W49711  36.701  29.933  12.054
83171W        W49712  39.500  37.761   0.099
83172W        W49713   0.970  40.125   1.781
83173W        W49714  29.178   5.343   4.548
83174W        W49715  15.724   0.742   0.792
83175W        W49716  18.832  38.114  12.921
83176W        W49717  23.711  23.693  14.876
83177W        W49718  40.968  22.313   3.800
83178W        W49719  20.828  27.208  14.402
83179W        W49720   5.882  43.998   2.621
83180W        W49721  39.602  42.446   0.327
83181W        W49722  36.884  37.761  14.203
83182W        W49723  16.088  11.889  13.880
83183W        W49724   6.813  30.956  10.719
83184W        W49725  40.479  18.210   1.763
83185W        W49726   2.468  42.925   3.277
83186W        W49727  41.015   2.817   1.236
83187W        W49728  17.719  24.110  14.475
83188W        W49729  30.318  24.035   3.242
83189W        W49730  12.761  34.568  10.363
83190W        W49731   1.167  29.952  14.170
83191W        W49732  14.064   5.821  12.636
83192W        W49733  24.662  39.501  12.014
83193W        W49734   0.838  40.807  10.629
83194W        W49735   1.020   9.496   0.793
83195W        W49736  40.580  30.331  12.508
83196W        W49737  28.870  37.032  14.541
83197W        W49738   2.948  11.781  13.031
83198W        W49739  21.777  33.006  12.890
83199W        W49740  33.928  18.757  12.921
83200W        W49741  17.311   4.326  10.564
83201W        W49742  16.208  13.410  12.987
83202W        W49743   7.773   4.940  11.423
83203W        W49744  31.168  14.571  13.236
83204W        W49745  26.296   5.869   3.182
83205W        W49746  23.318  31.687  13.423
83206W        W49747  32.451  39.366   0.940
83207W        W49748  43.429  17.833  13.993
83208W        W49749   3.223  44.871   1.752
83209W        W49750  30.185  12.055  12.877
83210W        W49751   1.731   1.423  14.700
83211W        W49752   1.909  24.244  10.100
83212W        W49753  22.505  36.852   3.176
83213W        W49754  44.302   9.678  12.948
83214W        W49755  42.292   7.317   4.050
83215W        W49756   1.844  31.677  11.165
83216W        W49757  26.587  39.087  14.261
83217W        W49758  44.879  14.838   4.136
83218W        W49759  12.339  11.968   4.645
83219W        W49760  17.826  34.905  12.988
83220W        W49761  17.141  17.265  13.024
83221W        W49762  26.662  23.726  12.077
83222W        W49763  18.825  14.468   1.597
83223W        W49764   5.986  26.683  13.907
83224W        W49765  20.321  38.543   4.974
83225W        W49766   8.881  35.145  11.723
83226W        W49767  14.747  23.499   2.448
83227W        W49768  35.122  24.063  11.131
83228W        W49769  42.923   9.154   3.167
83229W        W49770  28.550  32.921  12.593
83230W        W49771  11.203   4.748   3.374
83231W        W49772  13.181  43.752   3.632
83232W        W49773  43.680  26.203  13.942
83233W        W49774  27.900   9.501  11.843
83234W        W49775  40.540  22.042   3.667
83235W        W49776   4.909  24.599   1.839
83236W        W49777  10.915  12.647  12.403
83237W        W49778  24.651  38.622  11.094
83238W        W49779   6.165  37.563   1.799
83239W        W49780  19.322  17.641  10.945
83240W        W49781  43.338  42.063   1.544
83241W        W49782  39.211  19.030  11.558
83242W        W49783  36.102  19.743   4.196
83243W        W49784  31.433  24.525  12.173
83244W        W49785  28.854   5.230  14.378
83245W        W49786   7.929   2.948  11.696
83246W        W49787   8.939  13.152   0.139
83247W        W49788  24.670  29.445   2.786
83248W        W49789  12.230   9.852   0.687
83249W        W49790  37.379  26.193   4.300
83250W        W49791   6.832  10.461   9.904
83251W        W49792   9.183  37.579  11.024
83252W        W49793   8.361   9.712   1.271
83253W        W49794  10.903  25.263   4.079
83254W        W49795  36.060   6.678  12.488
83255W        W49796  31.011   9.963  13.974
83256W        W49797  38.821  27.046  11.241
83257W        W49798   8.755   3.684  14.760
83258W        W49799  14.902  37.927   1.760
83259W        W49800   7.380  40.569  13.030
83260W        W49801   0.136  13.327  12.885
83261W        W49802   1.735  43.898  10.614
83262W        W49803  21.290  21.181  10.607
83263W        W49804  44.142  44.091   1.074
83264W        W49805  18.990   6.492  10.723
83265W        W49806  29.446   7.158  10.127
83266W        W49807   7.937  23.720  11.552
83267W        W49808  36.916  26.632  13.914
83268W        W49809  24.482  42.835   0.357
83269W        W49810  20.020  44.032  10.678
83270W        W49811  13.499   7.388   0.202
83271W        W49812   1.131  31.353   0.821
83272W        W49813   1.312   7.599  11.640
83273W        W49814  18.152  31.982   0.245
83274W        W49815   5.979  37.796   4.251
83275W        W49816  33.609   2.753   3.158
83276W        W49817  22.989  35.651  12.590
83277W        W49818  27.910  37.115   0.885
83278W        W49819  31.644  30.592  13.453
83279W        W49820  19.657  31.606   2.613
83280W        W49821  40.751  14.335  13.085
83281W        W49822   2.310  11.914   1.149
83282W        W49823  36.666  30.594  12.949
83283W        W49824  40.572  39.856  14.321
83284W        W49825   3.215   6.603  14.956
83285W        W49826  30.724  34.820   5.141
83286W        W49827  17.554  20.147   2.004
83287W        W49828  39.217  42.787   4.101
83288W        W49829  25.143   3.349   1.722
83289W        W49830  26.073  17.244  10.663
83290W        W49831  36.116  17.170  14.879
83291W        W49832  34.982  39.471   0.409
83292W        W49833   9.622  31.000  14.677
83293W        W49834  43.824  23.449  11.128
83294W        W49835   9.682  23.639   4.929
83295W        W49836  15.949  36.601   3.315
83296W        W49837  25.420  28.390   1.770
83297W        W49838  28.568  28.761   1.219
83298W        W49839  24.446  35.860  13.955
83299W        W49840   6.265  20.064  10.620
83300W        W49841   6.373  33.445  12.162
83301W        W49842  13.401   6.514  12.023
83302W        W49843  28.248  36.561   2.142
83303W        W49844  42.531  24.471   2.367
83304W        W49845  10.046  19.554  10.742
83305W        W49846  11.445  13.385   0.023
83306W        W49847  27.015   1.464  11.209
83307W        W49848  10.370   1.652   1.813
83308W        W49849  33.630  12.071   5.187
83309W        W49850  38.939  32.851  11.483
83310W        W49851  17.270  22.681  12.970
83311W        W49852  20.108  42.048   1.731
83312W        W49853  21.600  30.618  11.530
83313W        W49854   0.227  24.504  13.423
83314W        W49855  16.106  28.732   2.804
83315W        W49856  15.351  23.415   3.080
83316W        W49857  11.573  20.261  10.760
83317W        W49858  16.291  20.326   2.310
83318W        W49859   0.703  33.595   4.494
83319W        W49860  40.576   6.917  12.901
83320W        W49861  39.343  34.511   0.826
83321W        W49862  31.840  22.058  12.048
83322W        W49863   7.747  15.043   0.001
83323W        W49864   6.336  32.173  13.156
83324W        W49865  38.794  36.123   3.580
83325W        W49866  19.180  38.904  11.489
83326W        W49867   5.218  36.439   1.212
83327W        W49868   5.464  26.698  14.478
83328W        W49869  11.320   9.866   3.530
83329W        W49870  10.241  19.602   0.570
83330W        W49871  30.041  44.895   3.737
83331W        W49872  14.513  24.451  14.075
83332W        W49873  43.585   0.753  12.989
83333W        W49874   4.467  23.547  12.392
83334W        W49875   5.145  29.870  14.038
83335W        W49876  31.511  29.096  11.095
83336W        W49877  13.840  17.289   1.938
83337W        W49878  41.208  38.246   2.581
83338W        W49879  27.081   0.829   3.626
83339W        W49880   9.211  12.288   3.424
83340W        W49881  33.997   2.355  14.352
83341W        W49882  34.280  39.392  12.019
83342W        W49883  24.117  20.706  10.559
83343W        W49884  42.459  38.951   2.898
83344W        W49885   4.233  35.807   1.169
83345W        W49886   1.102  22.669  13.737
83346W        W49887  16.103  28.998  14.943
83347W        W49888  35.345  20.204  10.625
83348W        W49889  13.053  15.831   1.258
83349W        W49890  31.852  14.082  12.399
83350W        W49891  30.150  14.645   2.845
83351W        W49892  34.900  24.213  11.574
83352W        W49893  18.834  28.172  13.966
83353W        W49894  39.957  39.505   4.203
83354W        W49895  25.036  37.385   4.659
83355W        W49896   3.444  38.567  13.666
83356W        W49897  15.127  27.378   4.830
83357W        W49898  23.995  16.331   1.855
83358W        W49899  43.826  43.669  11.255
83359W        W49900   0.970  23.666   1.066
83360W        W49901  44.166  21.035   3.566
83361W        W49902   3.675  12.509  14.158
83362W        W49903  36.578   5.248   3.180
83363W        W49904  18.171  30.778  13.233
83364W        W49905   3.529  42.567  11.576
83365W        W49906  44.372   9.450   0.377
83366W        W49907  40.051  15.527  14.696
83367W        W49908  11.673   6.760  14.587
83368W        W49909   7.783  34.575  11.673
83369W        W49910  16.501  35.759   5.163
83370W        W49911   0.951  17.140  12.100
83371W        W49912  44.688  44.497  11.982
83372W        W49913  35.855  13.289  12.036
83373W        W49914  39.463  40.937  10.697
83374W        W49915  34.202   6.364   4.251
83375W        W49916  12.687  16.221   1.307
83376W        W49917  41.810  23.851   9.904
83377W        W49918  16.599  24.044  14.034
83378W        W49919  12.063  35.398   1.259
83379W        W49920  25.932  29.090   1.842
83380W        W49921   4.175  22.104  12.546
83381W        W49922   2.426   0.856   0.279
83382W        W49923  10.909  28.757   1.709
83383W        W49924   1.461   3.384  12.175
83384W        W49925  23.280  11.530  13.198
83385W        W49926  31.859  20.506   0.361
83386W        W49927  12.161  38.819   2.773
83387W        W49928  16.166   3.917  13.997
83388W        W49929   9.270  11.859  13.955
83389W        W49930  18.024  42.836   3.904
83390W        W49931  34.436  21.765   4.223
83391W        W49932  18.602   0.200  14.929
83392W        W49933  26.521   7.426  14.337
83393W        W49934  33.115  38.825  10.683
83394W        W49935  30.876   4.682   0.377
83395W        W49936  17.857   5.759  14.354
83396W        W49937  18.309  28.661   0.421
83397W        W49938  17.207   8.719  10.577
83398W        W49939   4.952  43.132  11.571
83399W        W49940   7.328  17.128  14.038
83400W        W49941  33.108  43.318   0.359
83401W        W49942   8.659  37.397   0.037
83402W        W49943  13.406  16.495  14.939
83403W        W49944  40.464  24.954   1.335
83404W        W49945  23.411  15.399   2.276
83405W        W49946  16.534  22.564   3.661
83406W        W49947  23.405  44.583  14.040
83407W        W49948  30.236  38.004  14.388
83408W        W49949  28.437  23.279   2.403
83409W        W49950  28.995  13.892   3.785
83410W        W49951  27.212  24.008   0.769
83411W        W49952  35.706  27.734   4.795
83412W        W49953   3.678  22.833   1.300
83413W        W49954   6.228   1.970  11.609
83414W        W49955  19.261  31.570   0.375
83415W        W49956   2.221  11.408  14.409
83416W        W49957  16.563  35.010   1.574
83417W        W49958  44.065  39.401   4.578
83418W        W49959  29.318  15.250   2.738
83419W        W49960  23.220  35.292   2.705
83420W        W49961   2.309  43.972   4.520
83421W        W49962  24.574  41.283  12.926
83422W        W49963  37.466  32.232  12.597
83423W        W49964  13.468  20.644  11.167
83424W        W49965  22.463  36.357   3.075
83425W        W49966  30.895  33.269  11.588
83426W        W49967  42.987   4.260   3.656
83427W        W49968  29.198  19.970   3.251
83428W        W49969   7.227  16.292  10.934
83429W        W49970  33.497  35.816  10.675
83430W        W49971  42.888  33.449   1.290
83431W        W49972  10.120   1.728   4.540
83432W        W49973   2.014  21.074   5.048
83433W        W49974  17.804  37.230  14.406
83434W        W49975  17.499   6.787  11.920
83435W        W49976  36.580  15.497  13.834
83436W        W49977  34.650  34.070   0.399
83437W        W49978  42.496  25.735  14.906
83438W        W49979   2.505  39.564   2.264
83439W        W49980  13.108  30.875   3.893
83440W        W49981  16.232  43.973  13.272
83441W        W49982  20.806  13.669   2.689
83442W        W49983  22.279   3.708   3.673
83443W        W49984  39.157  39.912   3.649
83444W        W49985  32.410  29.253  13.934
83445W        W49986  24.519  13.176  12.921
83446W        W49987  38.210  25.246   4.691
83447W        W49988   5.204   2.717  14.836
83448W        W49989  31.444  29.987   3.286
83449W        W49990   3.259  29.122   5.046
83450W        W49991   2.702   3.689   1.796
83451W        W49992   1.441  22.184  10.429
83452W        W49993  18.856  32.960  11.063
83453W        W49994  16.472  12.739   0.747
83454W        W49995  44.855   0.489   0.462
83455W        W49996   4.772   4.322  13.806
83456W        W49997  19.950   6.701  12.860
83457W        W49998  38.968  41.482   0.603
83458W        W49999   4.890  23.640   1.643
83459W        W50000  14.512  31.850  14.846
83460W        W50001   6.730   0.840   0.978
83461W        W50002   8.679  37.397  10.281
83462W        W50003  27.062  26.168  10.434
83463W        W50004   4.671  37.397   4.643
83464W        W50005  10.847   8.111  11.182
83465W        W50006  12.567  22.028  11.597
83466W        W50007  10.083  39.817  10.941
83467W        W50008   9.087  25.624  13.351
83468W        W50009  12.699  21.750  13.000
83469W        W50010  33.904  38.028   1.038
83470W        W50011  15.864  32.884   3.566
83471W        W50012   6.697   1.505   4.215
83472W        W50013   4.185  22.433  13.571
83473W        W50014  19.350  36.091   4.671
83474W        W50015   0.289  10.379  10.356
83475W        W50016  34.639   5.135   1.285
83476W        W50017   2.172  18.145   0.915
83477W        W50018  18.207  12.553   3.177
83478W        W50019  12.902  14.001   2.694
83479W        W50020  12.913  30.999  13.341
83480W        W50021  11.264  43.376  10.960
83481W        W50022  21.004  35.542  10.624
83482W        W50023  25.039   4.408  10.673
83483W        W50024  22.470  39.429   4.238
83484W        W50025   7.575  40.968  14.742
83485W        W50026  34.661   4.770   1.746
83486W        W50027  41.503  28.671  14.857
83487W        W50028  24.225  43.482  13.697
83488W        W50029  18.468  12.708  13.540
83489W        W50030  26.987  33.653  14.335
83490W        W50031  12.848  23.304   0.251
83491W        W50032  11.805  10.360   3.974
83492W        W50033  32.448  34.551   0.543
83493W        W50034   1.978  11.181  11.553
83494W        W50035   9.312  30.105   0.208
83495W        W50036  31.113  16.253   5.064
83496W        W50037  36.585  24.610   4.735
83497W        W50038   9.158   4.811   2.226
83498W        W50039  14.657  43.298  11.969
83499W        W50040  44.984  15.856  13.004
83500W        W50041   3.234  18.802  10.815
83501W        W50042  33.045   0.272  14.404
83502W        W50043  13.348  36.485   2.805
83503W        W50044  15.987  37.715  11.149
83504W        W50045   7.726  15.327  12.927
83505W        W50046  39.152   9.087   3.623
83506W        W50047  34.007  36.065   2.708
83507W        W50048   3.724  23.728   2.158
83508W        W50049  17.569  38.338   3.499
83509W        W50050  22.619  29.459   4.485
83510W        W50051  21.552  14.793   2.729
83511W        W50052  20.024   1.967   3.669
83512W        W50053  19.006  44.937   0.832
83513W        W50054   5.006  23.127  11.208
83514W        W50055  41.984  44.022  13.435
83515W        W50056  39.247  34.165   4.399
83516W        W50057  21.421  14.645  11.886
83517W        W50058   3.691  37.409  14.552
83518W        W50059   9.171  22.964  12.041
83519W        W50060  19.849   2.025  11.140
83520W        W50061   6.231  31.001   3.556
83521W        W50062  17.158  12.881  10.677
83522W        W50063  42.325  15.234  13.917
83523W        W50064  15.614  35.677   4.679
83524W        W50065  44.523  19.992   3.654
83525W        W50066  38.908   6.985  12.540
83526W        W50067   5.316  44.985   3.249
83527W        W50068  38.507  29.626   0.296
83528W        W50069  16.962   7.396  13.753
83529W        W50070  35.588  11.844   1.415
83530W        W50071  20.328  13.960  14.733
83531W        W50072  20.267  22.172  11.456
83532W        W50073   8.586  12.311  13.452
83533W        W50074  44.704  15.045  14.864
83534W        W50075  33.352   9.032   4.904
83535W        W50076  31.473   3.407   0.459
83536W        W50077  34.551   4.961  13.918
83537W        W50078  16.713  17.894   0.037
83538W        W50079  15.394   6.937  10.722
83539W        W50080   4.731  44.976   1.805
83540W        W50081   9.015  22.305  13.489
83541W        W50082  33.606  25.666  12.902
83542W        W50083  27.098  26.850  11.592
83543W        W50084  38.073  22.074  12.965
83544W        W50085  28.047  26.407   3.088
83545W        W50086   6.032   3.104   3.358
83546W        W50087  14.175  37.042  13.129
83547W        W50088   3.793   6.021   1.253
83548W        W50089  42.277  14.750   3.231
83549W        W50090   1.993  44.954  11.673
83550W        W50091  12.614  12.232  12.935
83551W        W50092  44.204  43.805   3.218
83552W        W50093  34.481  23.464  14.696
83553W        W50094  16.735  18.082  14.512
83554W        W50095  32.992  38.804  14.525
83555W        W50096  16.599   9.380  14.784
83556W        W50097   7.902  42.494  11.154
83557W        W50098  22.276  19.232  14.270
83558W        W50099  33.230  27.057   3.658
83559W        W50100  18.288   8.810  12.051
83560W        W50101  24.547   4.481  13.353
83561W        W50102  11.903  25.486   4.110
83562W        W50103  11.115  33.487   3.065
83563W        W50104  44.523  14.410   1.014
83564W        W50105  16.699  34.460   1.424
83565W        W50106  26.108  44.565   0.276
83566W        W50107  39.402  18.436   0.382
83567W        W50108   3.169  39.353   1.541
83568W        W50109   3.063   1.224   9.899
83569W        W50110  20.659  28.173  13.410
83570W        W50111   4.190  38.408   4.296
83571W        W50112  25.009  19.331  14.953
83572W        W50113   9.203   3.450   3.190
83573W        W50114  31.493   9.694  13.953
83574W        W50115  31.499  25.355  14.644
83575W        W50116  13.841   8.163   4.146
83576W        W50117   7.654  24.263   9.775
83577W        W50118   1.410   8.827  13.325
83578W        W50119   1.207   2.543   0.046
83579W        W50120  13.776  14.993  13.299
83580W        W50121  31.480   4.661   4.563
83581W        W50122   2.323  26.668  13.472
83582W        W50123   4.748  24.733   2.324
83583W        W50124  36.538  23.452  13.875
83584W        W50125  17.328  19.896   2.464
83585W        W50126  19.037  10.960   0.819
83586W        W50127  24.847  27.630   2.318
83587W        W50128  27.044  15.081   0.012
83588W        W50129  12.001  37.146  13.060
83589W        W50130  10.124  29.607   1.922
83590W        W50131  22.652  35.298  11.193
83591W        W50132  27.336  31.587   2.466
83592W        W50133  17.391   6.537  13.954
83593W        W50134   1.856  39.145   2.788
83594W        W50135  41.668  38.797  12.509
83595W        W50136   4.303  11.318   0.292
83596W        W50137  12.730  44.382   0.120
83597W        W50138   3.926  42.861   3.246
83598W        W50139   9.248   9.196   1.071
83599W        W50140  26.623  30.536  10.646
83600W        W50141  36.347  30.006   4.485
83601W        W50142  16.077  25.209  14.554
83602W        W50143  16.171  27.665   0.481
83603W        W50144  36.931   7.117   3.366
83604W        W50145  11.176  36.390  14.684
83605W        W50146  16.051   6.625  11.165
83606W        W50147  15.065  33.197  13.796
83607W        W50148  44.924  43.308   1.997
83608W        W50149  29.529  43.495   4.134
83609W        W50150   9.077  42.340  13.879
83610W        W50151  24.983   1.672   0.887
83611W        W50152   3.510  31.860   3.926
83612W        W50153  35.083  37.185   3.735
83613W        W50154  36.241   6.840   4.013
83614W        W50155  16.179   4.727  12.629
83615W        W50156  29.717  39.851  11.225
83616W        W50157  43.666  24.103  12.542
83617W        W50158  12.249  10.224   4.872
83618W        W50159   5.253  27.756   0.203
83619W        W50160  14.584  43.536  12.819
83620W        W50161  13.332  37.372   9.807
83621W        W50162  33.168  10.167   4.261
83622W        W50163   9.398  40.516  12.526
83623W        W50164   9.698   2.743   0.774
83624W        W50165  27.974  35.250  13.812
83625W        W50166   6.039  12.436   1.227
83626W        W50167  12.504  32.709   2.757
83627W        W50168  21.917  32.990   2.646
83628W        W50169  24.173   8.993  11.581
83629W        W50170  42.291  28.109  12.470
83630W        W50171   7.983  29.726  10.905
83631W        W50172   0.124  24.258   0.425
83632W        W50173   9.212  26.909  11.751
83633W        W50174  23.033   2.222   1.751
83634W        W50175   1.284   5.108   2.821
83635W        W50176  24.988  30.100  12.690
83636W        W50177  41.561  28.978  11.171
83637W        W50178   5.919  30.161   3.874
83638W        W50179  36.615  36.535   3.307
83639W        W50180   0.988  13.887   2.727
83640W        W50181  31.580  36.440   0.067
83641W        W50182  42.955  36.852  11.427
83642W        W50183   9.643  43.908   3.108
83643W        W50184  33.974   6.403  12.385
83644W        W50185   4.010   4.299   2.842
83645W        W50186  33.447  28.887  13.023
83646W        W50187  27.566  13.319   1.717
83647W        W50188   6.354  12.763   2.379
83648W        W50189  20.062  16.320   1.193
83649W        W50190   4.732  27.911   1.607
83650W        W50191  17.776   2.027   0.513
83651W        W50192  34.291  26.180  13.190
83652W        W50193  41.770  41.390   3.715
83653W        W50194  12.906   0.979   3.097
83654W        W50195  25.954  42.817  13.323
83655W        W50196  17.686  21.184   2.268
83656W        W50197  27.680  33.117   3.199
83657W        W50198  27.911  32.131   1.744
83658W        W50199  38.017  17.714   2.902
83659W        W50200  40.314  23.676   1.767
83660W        W50201  35.046   2.482   1.253
83661W        W50202   6.498  16.650  10.481
83662W        W50203  41.573  21.241  14.864
83663W        W50204  30.853  44.101   0.799
83664W        W50205  12.538   7.403  11.898
83665W        W50206   7.752  37.819  13.154
83666W        W50207   2.644  18.260   0.764
83667W        W50208  37.911  25.446   4.315
83668W        W50209  32.266  22.607   4.184
83669W        W50210  21.578  38.282   1.762
83670W        W50211  39.661  29.911  11.003
83671W        W50212  36.301   3.491   4.596
83672W        W50213  26.995   3.901   2.754
83673W        W50214  41.996   3.240   4.597
83674W        W50215  43.272  25.443   0.384
83675W        W50216  37.710   1.570  11.008
83676W        W50217  11.398   3.663  14.824
83677W        W50218   5.679  20.668  13.362
83678W        W50219  41.453   1.949   0.509
83679W        W50220  17.471   3.719  10.753
83680W        W50221  29.270   7.471  14.946
83681W        W50222  16.970  34.046   4.129
83682W        W50223  16.736  14.691   5.061
83683W        W50224  37.746  28.316  13.528
83684W        W50225  36.499   1.906  10.651
83685W        W50226  42.073  19.664  11.265
83686W        W50227  22.103  11.281   3.073
83687W        W50228  25.709  43.540   1.457
83688W        W50229  26.971  34.418   3.087
83689W        W50230  42.791  38.758   4.619
83690W        W50231  24.956  35.246  11.782
83691W        W50232  21.251  41.531  11.664
83692W        W50233   0.817  24.197  12.693
83693W        W50234   7.332   5.338  12.552
83694W        W50235  16.201  28.034  12.502
83695W        W50236  30.095  28.969   1.360
83696W        W50237  10.274  33.769   3.071
83697W        W50238  11.974  42.833   3.935
83698W        W50239  31.348  44.581  11.306
83699W        W50240  42.903   7.775   2.878
83700W        W50241  35.031  21.466   1.007
83701W        W50242  44.032   5.200   1.530
83702W        W50243  10.475  14.804  10.525
83703W        W50244  35.562  15.279  14.069
83704W        W50245  28.475  26.278   1.370
83705W        W50246  13.940  21.461   2.156
83706W        W50247   4.368  22.955  10.068
83707W        W50248  31.658  36.014   3.478
83708W        W50249  19.325  40.910  11.529
83709W        W50250  32.910   2.929  14.767
83710W        W50251   9.388  31.742  11.193
83711W        W50252  19.352  27.916   4.083
83712W        W50253  26.450  14.781   2.403
83713W        W50254  16.531  39.629   0.093
83714W        W50255  31.360  32.958   0.827
83715W        W50256  35.526   3.845   2.917
83716W        W50257  41.926  21.945  12.615
83717W        W50258  32.917  12.065  11.932
83718W        W50259   9.862  21.564   4.524
83719W        W50260  10.044  11.160   3.516
83720W        W50261  10.415  29.382  14.556
83721W        W50262  38.022  13.377   2.393
83722W        W50263   9.718  13.912   0.711
83723W        W50264  37.800  38.953   1.411
83724W        W50265  44.370   2.870   2.484
83725W        W50266   1.907  25.763  10.623
83726W        W50267  36.573  44.840  14.019
83727W        W50268  30.429  35.595  10.761
83728W        W50269   8.437  27.722   1.323
83729W        W50270  36.258  44.386  10.048
83730W        W50271  10.259  20.515  12.335
83731W        W50272  18.988   8.562   4.569
83732W        W50273  37.199  35.307   1.207
83733W        W50274   9.942  42.079  13.797
83734W        W50275  15.739  43.779  12.519
83735W        W50276  22.414  13.298   3.106
83736W        W50277  30.218  10.308  12.960
83737W        W50278  43.525  23.732  14.120
83738W        W50279  29.132  12.610   3.126
83739W        W50280  13.854   1.916   1.165
83740W        W50281  28.339  29.110   3.972
83741W        W50282  12.214  11.948   1.361
83742W        W50283  34.851  19.265  10.402
83743W        W50284  18.810  26.703  12.126
83744W        W50285  16.287  15.921  11.564
83745W        W50286  15.346   2.173  13.406
83746W        W50287  42.700  20.735  13.850
83747W        W50288  26.201  17.604  13.407
83748W        W50289  41.274  14.290  12.256
83749W        W50290  43.403  43.071   1.362
83750W        W50291  25.019  10.380  12.592
83751W        W50292   2.516  29.998  12.821
83752W        W50293  29.412  16.301   2.806
83753W        W50294  41.295  37.836  14.454
83754W        W50295   4.436   7.819  12.394
83755W        W50296  27.122  41.110  12.874
83756W        W50297  32.513  13.342   3.624
83757W        W50298   6.664  23.875   4.514
83758W        W50299  28.953  20.066  12.835
83759W        W50300   7.299  36.092   1.950
83760W        W50301  43.453   1.796   3.067
83761W        W50302  36.823  40.924  14.152
83762W        W50303  23.617  28.039  13.607
83763W        W50304  17.125  31.563   3.647
83764W        W50305  28.371  39.084   0.014
83765W        W50306  25.895  23.280   0.714
83766W        W50307  23.673   7.393  10.166
83767W        W50308  17.992  20.210   1.767
83768W        W50309  27.956  26.307  13.080
83769W        W50310  43.752  17.447   0.209
83770W        W50311   3.117  28.122  13.178
83771W        W50312  44.998  44.830   3.490
83772W        W50313  36.569  17.543  11.256
83773W        W50314  30.952  29.153   3.670
83774W        W50315  38.704   9.253  14.439
83775W        W50316  29.432  23.902  14.594
83776W        W50317   2.169  11.582  12.337
83777W        W50318  23.994  14.714  13.056
83778W        W50319  12.150   3.959  12.037
83779W        W50320  11.570   1.854  11.478
83780W        W50321  41.566  14.228  14.860
83781W        W50322  11.235  41.806   1.033
83782W        W50323  13.383  34.025  11.983
83783W        W50324  27.403  30.634  11.085
83784W        W50325  25.943  26.989   3.579
83785W        W50326  13.354  23.400   3.336
83786W        W50327  14.076  29.673  12.512
83787W        W50328  15.417   0.354  13.298
83788W        W50329  20.251  11.181   2.705
83789W        W50330  31.033  39.082   1.855
83790W        W50331   7.669  42.756   4.649
83791W        W50332  13.826  32.791  14.327
83792W        W50333  41.827  22.801  12.844
83793W        W50334  14.620   7.905  12.081
83794W        W50335  35.079  34.467  10.348
83795W        W50336   0.762  19.123   4.166
83796W        W50337  44.834   0.820  14.285
83797W        W50338  18.267  39.382  11.559
83798W        W50339  38.114  43.664   1.412
83799W        W50340  36.084  21.155   4.152
83800W        W50341  24.418  41.181  12.435
83801W        W50342  41.046   1.284  13.606
83802W        W50343  37.479  36.974   5.150
83803W        W50344   4.344  17.192   4.613
83804W        W50345  27.862  16.771  10.937
83805W        W50346  24.546  24.689   1.376
83806W        W50347  39.465  28.512   0.047
83807W        W50348  44.688  42.962   3.053
83808W        W50349  40.868  33.081  14.541
83809W        W50350  30.187  34.365  13.339
83810W        W50351  17.796   5.400   4.105
83811W        W50352  42.334  13.299  14.004
83812W        W50353  14.730  27.234  12.339
83813W        W50354  12.168   7.135  11.644
83814W        W50355   0.409   2.426  10.178
83815W        W50356  44.539  32.374  12.917
83816W        W50357  30.159   4.713   3.312
83817W        W50358   7.539   8.674   1.108
83818W        W50359   2.401  29.062  10.742
83819W        W50360  22.444  15.652   0.300
83820W        W50361  25.785  16.120   0.830
83821W        W50362  23.008  27.778  10.982
83822W        W50363  21.547  18.254  10.560
83823W        W50364  23.747  27.023   1.330
83824W        W50365  15.716  38.224  13.988
83825W        W50366  20.747  34.374  12.990
83826W        W50367   9.579  10.242   1.709
83827W        W50368  32.527  38.192   3.342
83828W        W50369  25.097  28.006  14.103
83829W        W50370   7.274  24.533  13.803
83830W        W50371   6.608  19.738   4.571
83831W        W50372  19.251  24.042   4.132
83832W        W50373  26.677   5.507   3.234
83833W        W50374  31.412  10.299  11.669
83834W        W50375   4.190  36.611  13.395
83835W        W50376  41.619  44.830   1.213
83836W        W50377  38.605   9.407   2.225
83837W        W50378  20.017  36.104  13.861
83838W        W50379   4.891   7.196  12.937
83839W        W50380  11.239  17.945  12.077
83840W        W50381  14.277   8.183   3.700
83841W        W50382  15.737  17.788   0.249
83842W        W50383  27.841  27.259   2.682
83843W        W50384  15.318  29.172   2.877
83844W        W50385  14.557  25.622   1.848
83845W        W50386  39.584  10.570   4.061
83846W        W50387  42.205  36.934   3.436
83847W        W50388   4.963   8.722   3.660
83848W        W50389  33.402  13.312   1.887
83849W        W50390  21.259  33.640  14.909
83850W        W50391  30.427  14.345   1.579
83851W        W50392  44.025   0.259  14.373
83852W        W50393   4.276  41.837   3.329
83853W        W50394  23.081   7.321  13.548
83854W        W50395  34.518  22.096   1.187
83855W        W50396   3.468  15.349  12.466
83856W        W50397   4.743  17.704   4.553
83857W        W50398  27.596  20.424   2.231
83858W        W50399  29.204  19.789   2.370
83859W        W50400  12.674  39.998  11.225
83860W        W50401   8.388   0.378  13.265
83861W        W50402  18.671   8.048  14.928
83862W        W50403   6.553  31.937  10.619
83863W        W50404  42.696  10.832  12.416
83864W        W50405  20.579  24.519  12.608
83865W        W50406  26.990  39.941  11.973
83866W        W50407  44.450  42.507   1.958
83867W        W50408  20.763  23.280   0.002
83868W        W50409  28.646  12.495   1.027
83869W        W50410  41.783  31.473   2.154
83870W        W50411  33.975  34.594   1.368
83871W        W50412  27.631   2.417   0.946
83872W        W50413  14.499  41.285   2.784
83873W        W50414  38.921  23.981  10.742
83874W        W50415  17.788  10.226  13.823
83875W        W50416  41.943  37.809   3.133
83876W        W50417  29.941  40.464   2.174
83877W        W50418  28.732  30.427  11.595
83878W        W50419  10.581  18.666  13.402
83879W        W50420  39.986  10.631  14.371
83880W        W50421  11.329  21.557   0.889
83881W        W50422   7.917  39.958  14.845
83882W        W50423  30.060  43.786  12.854
83883W        W50424  41.776  21.210  10.755
83884W        W50425  36.431  24.471   3.678
83885W        W50426  17.588   8.606   0.341
83886W        W50427  40.093  11.844  10.676
83887W        W50428  27.859  14.158  14.851
83888W        W50429   6.183  33.804   1.169
83889W        W50430   7.747  25.960   3.667
83890W        W50431  18.221  15.077  13.416
83891W        W50432  41.483  23.283  11.620
83892W        W50433  24.060  25.888  10.719
83893W        W50434  33.141  28.353   3.114
83894W        W50435   1.267  29.499   4.162
83895W        W50436  17.563  14.152  13.149
83896W        W50437  12.635  25.540   3.631
83897W        W50438   6.814  43.424   3.568
83898W        W50439  30.417  19.767  13.858
83899W        W50440  12.160  10.612   3.612
83900W        W50441  12.753   3.219   2.312
83901W        W50442   8.995  24.642  13.990
83902W        W50443  21.305  19.465  11.219
83903W        W50444  12.538  15.737   3.108
83904W        W50445  39.380   6.698   0.219
83905W        W50446  31.053  31.341  12.408
83906W        W50447   8.772  38.354   1.967
83907W        W50448   5.679  12.012   2.092
83908W        W50449  32.032  26.575  14.371
83909W        W50450  10.486  11.452  11.036
83910W        W50451   1.364  43.178   1.319
83911W        W50452   3.243  38.865  12.891
83912W        W50453   7.968  32.968  13.673
83913W        W50454   3.776  41.975  12.535
83914W        W50455  21.955  41.439   3.685
83915W        W50456  44.301  12.538   1.062
83916W        W50457   5.419   2.174  12.852
83917W        W50458  12.692   8.776   4.640
83918W        W50459  25.047  32.022   2.319
83919W        W50460  25.242   0.788   3.755
83920W        W50461  38.421  35.404   0.255
83921W        W50462  26.221  23.068   1.724
83922W        W50463  27.136  13.332   3.506
83923W        W50464  13.331   1.248   2.893
83924W        W50465  28.919   7.791   0.434
83925W        W50466   4.767  39.405   4.736
83926W        W50467  29.871  16.209  13.419
83927W        W50468  13.852  10.127   2.290
83928W        W50469  25.167  33.623  12.828
83929W        W50470  35.413  16.592   1.736
83930W        W50471  29.470  33.095   2.723
83931W        W50472  38.368  44.408  14.187
83932W        W50473  35.406  43.291  11.999
83933W        W50474  32.124  27.442  12.935
83934W        W50475  21.542  37.975  14.936
83935W        W50476  14.304  23.226   2.377
83936W        W50477  22.915  35.374  14.118
83937W        W50478  22.234  16.013  12.561
83938W        W50479  25.432  15.076   3.006
83939W        W50480  23.056   0.721  13.362
83940W        W50481  23.510  24.709  11.719
83941W        W50482  15.706  17.347  14.986
83942W        W50483  10.595  35.871   1.813
83943W        W50484   6.143  43.905   4.470
83944W        W50485  14.564   5.786  10.692
83945W        W50486  36.929  36.343  13.851
83946W        W50487   9.164   0.710  10.703
83947W        W50488  30.608  38.402  13.962
83948W        W50489  23.087  39.007  10.600
83949W        W50490  24.354  17.130  11.113
83950W        W50491  10.818  38.066  12.800
83951W        W50492  41.952   5.166  12.540
83952W        W50493  13.768  14.568  11.570
83953W        W50494  24.860  36.428  13.455
83954W        W50495   2.307  30.513  10.497
83955W        W50496   6.367  13.706  10.788
83956W        W50497  26.549  32.450   1.867
83957W        W50498  24.190   9.840  14.762
83958W        W50499  30.794   4.139   3.909
83959W        W50500  35.729  14.347   1.324
83960W        W50501  12.251  37.958  14.218
83961W        W50502  43.810  25.650  14.303
83962W        W50503  23.861  39.353  12.485
83963W        W50504  10.833  26.040   3.803
83964W        W50505  36.373  27.912  13.811
83965W        W50506  18.651   2.032   2.703
83966W        W50507  18.499   2.860   1.790
83967W        W50508  21.612  41.849   4.812
83968W        W50509   5.687  36.713  14.840
83969W        W50510  10.733  27.447  12.096
83970W        W50511  28.465  42.959   3.246
83971W        W50512  44.273  43.244   3.868
83972W        W50513  17.298  12.539   3.638
83973W        W50514   1.590  32.901   3.772
83974W        W50515   1.898  10.344   3.157
83975W        W50516  13.370  14.023   2.956
83976W        W50517  13.110  11.920  10.627
83977W        W50518  13.736  44.478   2.739
83978W        W50519   9.254  19.559  10.950
83979W        W50520  14.086  36.494   2.149
83980W        W50521  43.303  10.111  12.381
83981W        W50522  19.476   4.383  11.367
83982W        W50523  24.509  37.500  11.750
83983W        W50524   8.715  38.258  13.979
83984W        W50525  12.432  23.047  11.646
83985W        W50526  23.189   0.461  12.898
83986W        W50527   8.829  37.366  12.003
83987W        W50528  44.792  18.935  10.405
83988W        W50529  43.482  25.949   0.343
83989W        W50530  24.234  31.276   3.372
83990W        W50531  41.859  13.233  10.654
83991W        W50532  19.010  42.693   0.477
83992W        W50533  21.072  20.069   4.502
83993W        W50534  23.144  42.321  11.628
83994W        W50535  26.494  19.189   2.152
83995W        W50536  30.639  13.822  12.930
83996W        W50537  17.680  34.648   0.790
83997W        W50538  24.241  44.336   1.840
83998W        W50539  37.525   3.769  10.262
83999W        W50540  39.564  25.487   2.577
84000W        W50541  12.037  11.703   5.029
84001W        W50542  12.734  11.161   3.191
84002W        W50543  38.305  10.264   2.151
84003W        W50544   3.959  12.887   1.769
84004W        W50545  14.212  21.569   1.737
84005W        W50546  11.728  42.528   2.698
84006W        W50547  41.800  23.971   4.565
84007W        W50548  42.887   7.148  14.978
84008W        W50549  39.673   9.659   4.111
84009W        W50550  44.051  10.810   0.532
84010W        W50551  34.043  19.696  11.069
84011W        W50552  31.512  34.438  11.919
84012W        W50553  16.008  28.403  14.103
84013W        W50554  39.044  34.505   1.673
84014W        W50555   2.467  16.598   4.622
84015W        W50556  25.997   8.297   4.506
84016W        W50557  19.527   4.627   1.221
84017W        W50558  11.931  41.002  12.847
84018W        W50559   9.921  42.642   3.743
84019W        W50560  35.562   5.196   3.661
84020W        W50561  34.535   3.958  13.718
84021W        W50562  40.195   7.240  11.010
84022W        W50563   7.637  38.051   1.829
84023W        W50564  37.551  35.581   2.793
84024W        W50565   3.257  13.135  12.999
84025W        W50566  18.806  42.396  13.823
84026W        W50567  33.583  32.964   1.696
84027W        W50568  42.677  25.467   1.245
84028W        W50569  32.021  27.747  14.968
84029W        W50570  37.517  28.477   4.593
84030W        W50571  18.076  24.302  11.361
84031W        W50572  32.838  42.904   5.144
84032W        W50573   2.399  31.093   2.903
84033W        W50574  16.094  17.220   4.663
84034W        W50575  44.393  35.459   2.653
84035W        W50576   7.446   6.805  13.549
84036W        W50577  20.082  23.286   0.256
84037W        W50578  40.911  16.300  14.427
84038W        W50579  24.730   8.879  11.585
84039W        W50580   3.392   5.982   1.984
84040W        W50581  44.809  31.915   2.372
84041W        W50582  37.936  21.309   2.251
84042W        W50583  12.107  31.381  13.298
84043W        W50584  10.371  39.333   3.159
84044W        W50585  12.061   4.897  14.884
84045W        W50586  29.066   6.434   1.673
84046W        W50587  36.524  18.675  13.746
84047W        W50588  12.877  20.415  12.877
84048W        W50589  22.562  24.697  11.166
84049W        W50590  36.965  17.091  12.086
84050W        W50591  44.379  10.431   0.352
84051W        W50592  42.513  14.127  12.793
84052W        W50593  28.456  40.908  12.467
84053W        W50594  44.471  13.941  12.223
84054W        W50595   9.680   2.809  13.880
84055W        W50596   6.224  27.579   4.387
84056W        W50597  42.011  24.737  14.332
84057W        W50598   3.677  44.309  10.658
84058W        W50599  17.161   7.234   4.668
84059W        W50600  23.731  40.358   1.285
84060W        W50601  39.020   4.458   0.187
84061W        W50602  12.164   1.238   4.133
84062W        W50603  29.104  42.030   3.884
84063W        W50604   7.776  11.381  14.026
84064W        W50605  32.943  41.998   1.508
84065W        W50606   1.259   3.855  10.377
84066W        W50607   7.160  19.299  12.881
84067W        W50608  31.087  33.080  12.531
84068W        W50609  41.064  34.263   1.263
84069W        W50610  37.211  41.514  12.375
84070W        W50611  16.921  19.840  13.906
84071W        W50612   0.391  39.745   1.358
84072W        W50613  23.193  29.095  14.237
84073W        W50614  39.041   6.458  14.877
84074W        W50615  34.083   8.370   0.703
84075W        W50616  43.676  14.798  10.122
84076W        W50617  17.100  41.490  12.527
84077W        W50618  41.354  15.769   4.392
84078W        W50619  12.015  12.445   1.245
84079W        W50620   9.618   7.668   3.179
84080W        W50621  16.091   9.340   1.711
84081W        W50622  43.690  13.341  12.073
84082W        W50623  25.093  15.118  14.338
84083W        W50624  17.682  44.070   1.697
84084W        W50625   3.290  23.702   0.368
84085W        W50626  20.821  42.667  12.568
84086W        W50627  27.087   7.517  12.171
84087W        W50628  15.186  38.953  12.817
84088W        W50629   5.364   9.855   0.331
84089W        W50630  14.171   1.903  13.330
84090W        W50631  17.090   1.899   3.359
84091W        W50632   6.793   9.075  14.055
84092W        W50633  34.770  42.801  14.874
84093W        W50634  33.499  44.169   1.361
84094W        W50635  26.964  34.455  10.794
84095W        W50636   8.713  26.615   3.976
84096W        W50637  13.195  35.252   2.390
84097W        W50638  30.061   2.493   3.297
84098W        W50639   7.727  26.523   5.059
84099W        W50640  19.204  32.675   3.593
84100W        W50641  31.399  21.014  14.962
84101W        W50642  31.642  15.333  12.957
84102W        W50643  31.686  19.946  12.569
84103W        W50644  25.276  10.769  11.749
84104W        W50645  43.538   4.181  11.601
84105W        W50646  21.147  25.676   4.483
84106W        W50647   3.034   6.227   4.139
84107W        W50648  36.117  12.813  13.273
84108W        W50649   3.039   9.321   4.958
84109W        W50650  20.695  20.622  13.790
84110W        W50651  37.437   3.756  10.774
84111W        W50652  34.084  25.836   2.866
84112W        W50653  42.587   2.701   0.430
84113W        W50654   2.389  24.445  12.518
84114W        W50655  11.685  32.492  13.918
84115W        W50656   3.225  28.102  14.533
84116W        W50657  19.610  42.536  12.100
84117W        W50658  43.217  15.105  12.719
84118W        W50659  17.794  41.886   2.779
84119W        W50660  15.265   6.842  13.044
84120W        W50661  43.891  14.583  13.439
84121W        W50662  36.151  29.039  12.973
84122W        W50663  15.054  35.140  11.157
84123W        W50664  32.590  18.520  11.636
84124W        W50665  13.425  29.877  10.699
84125W        W50666   5.458  36.844  13.476
84126W        W50667  20.527  27.236  12.476
84127W        W50668  30.265  22.503   0.228
84128W        W50669  36.622  34.112   1.194
84129W        W50670  35.151   6.905  14.144
84130W        W50671  43.932  37.685  14.008
84131W        W50672  11.368  31.476   3.302
84132W        W50673  40.946  15.766  14.472
84133W        W50674  22.233  35.849   4.381
84134W        W50675  40.163  26.456   4.471
84135W        W50676  18.892   9.087   4.595
84136W        W50677  18.193  43.788  12.825
84137W        W50678  44.423  21.534  12.982
84138W        W50679  32.330  16.951  11.122
84139W        W50680  34.678  19.184   2.186
84140W        W50681  41.988  38.864   5.402
84141W        W50682  32.159  44.428   0.639
84142W        W50683  11.630  34.850  13.921
84143W        W50684   1.330   9.798  13.152
84144W        W50685   3.809  19.362  11.613
84145W        W50686  27.970   8.445  13.671
84146W        W50687  40.372   6.782   2.327
84147W        W50688  31.224  14.330  10.500
84148W        W50689  31.619  23.649   0.838
84149W        W50690  36.400  11.092  14.919
84150W        W50691   3.117  28.575   4.328
84151W        W50692  33.197   9.397  12.421
84152W        W50693  44.411  44.385  14.113
84153W        W50694  38.404  23.206   4.841
84154W        W50695  31.671  26.468   1.321
84155W        W50696  26.577  28.721  10.913
84156W        W50697  44.354   2.658  11.438
84157W        W50698   4.290  21.215   4.081
84158W        W50699  19.947  24.430  11.235
84159W        W50700  22.248  24.207  13.924
84160W        W50701  43.026  24.194   2.611
84161W        W50702  27.763   8.450  11.160
84162W        W50703  24.594  23.073   1.898
84163W        W50704  13.209  41.064   3.224
84164W        W50705  22.144   0.465  12.881
84165W        W50706  12.592  44.353  12.020
84166W        W50707  12.798  26.576   3.647
84167W        W50708  43.296  34.723  11.200
84168W        W50709  40.732  44.324  11.147
84169W        W50710  12.465  15.186   1.336
84170W        W50711  34.660  13.149   0.432
84171W        W50712  23.499  30.641   4.516
84172W        W50713   7.962  36.547   3.324
84173W        W50714  25.765  20.743  11.434
84174W        W50715   7.954  36.023  11.822
84175W        W50716  21.169  19.858  13.030
84176W        W50717  21.094   2.988  13.573
84177W        W50718  12.650  24.024  14.546
84178W        W50719  29.947  18.401  11.624
84179W        W50720  31.904   9.378  12.071
84180W        W50721   2.525  21.173  12.030
84181W        W50722  40.730  25.186  14.300
84182W        W50723  16.637  16.608   2.722
84183W        W50724   8.263  38.834   4.503
84184W        W50725  41.655  10.920   3.944
84185W        W50726   0.941  17.640  13.872
84186W        W50727   2.870   2.703   1.665
84187W        W50728  29.587  30.832   3.207
84188W        W50729  15.706  14.069   4.429
84189W        W50730   7.953  41.561   4.190
84190W        W50731  17.120  23.265  11.039
84191W        W50732  40.207  23.419  10.289
84192W        W50733  30.153   5.768   0.781
84193W        W50734  27.612  34.299   3.839
84194W        W50735  37.419   4.250   1.478
84195W        W50736  17.227  40.367   0.263
84196W        W50737  22.477  18.097   3.749
84197W        W50738   9.800  15.555  13.040
84198W        W50739   6.151  39.489  12.853
84199W        W50740  42.420  34.333   3.269
84200W        W50741  13.137   5.359  13.257
84201W        W50742   3.942  14.100  13.068
84202W        W50743  10.349  31.424   1.654
84203W        W50744   6.664  40.301  13.971
84204W        W50745  10.662  38.324  13.868
84205W        W50746  44.983  15.835   1.771
84206W        W50747   6.695  17.124  10.678
84207W        W50748  44.286  26.020  12.546
84208W        W50749   4.355  37.055   2.502
84209W        W50750  43.326  38.133  11.997
84210W        W50751   0.293  20.955   0.854
84211W        W50752   4.993  12.711  13.418
84212W        W50753  10.854  33.192  14.810
84213W        W50754  41.605  16.564   0.951
84214W        W50755  36.071  13.073  10.642
84215W        W50756  22.157  28.624   2.855
84216W        W50757  18.726  22.620   1.696
84217W        W50758  37.918  37.853  10.515
84218W        W50759  35.343   0.360  10.976
84219W        W50760  14.254  33.908   2.399
84220W        W50761  21.523   2.244  12.991
84221W        W50762  14.097  22.620   4.645
84222W        W50763  39.781  25.017   1.887
84223W        W50764  44.464  33.632   2.383
84224W        W50765  18.466   8.842   1.749
84225W        W50766  19.512   7.225  11.081
84226W        W50767  41.463  37.417  12.927
84227W        W50768  28.694   6.011  13.169
84228W        W50769  17.031  25.173  12.665
84229W        W50770  43.419  10.186   0.662
84230W        W50771  20.665   1.355  13.849
84231W        W50772  13.237   0.270  11.239
84232W        W50773  24.287  29.604  13.110
84233W        W50774  42.916   8.948  11.072
84234W        W50775  23.640   3.513  11.802
84235W        W50776  26.012  43.965   3.153
84236W        W50777  27.651   5.683   2.573
84237W        W50778  18.526  31.596  11.417
84238W        W50779   5.458   1.517  13.583
84239W        W50780  13.841   6.917   0.817
84240W        W50781   3.858   5.710  10.285
84241W        W50782  25.670  42.215   3.640
84242W        W50783  22.619   7.433  13.839
84243W        W50784   3.666   4.886   5.031
84244W        W50785   9.406  30.168   1.150
84245W        W50786  13.397  35.123   3.242
84246W        W50787  11.141   5.751  12.689
84247W        W50788  16.564  17.214  10.035
84248W        W50789  34.353  21.082   2.768
84249W        W50790  40.589  15.332   4.577
84250W        W50791  42.430  28.949  12.409
84251W        W50792  43.110   5.988  14.125
84252W        W50793   7.568   1.713   4.620
84253W        W50794  26.618  11.410   3.447
84254W        W50795  25.885  38.478   2.560
84255W        W50796  36.131  29.201  11.644
84256W        W50797   8.240  16.984  13.944
84257W        W50798   6.414  42.495   3.756
84258W        W50799  30.663  32.041  12.432
84259W        W50800  10.369  30.851  13.486
84260W        W50801  44.314  19.138   0.071
84261W        W50802  33.892  10.782  10.608
84262W        W50803  30.521  16.001   2.430
84263W        W50804   3.022  31.868   2.865
84264W        W50805   4.046   4.180  12.639
84265W        W50806   4.378  26.675  13.935
84266W        W50807  43.009   1.902  14.927
84267W        W50808   5.570   0.255   2.615
84268W        W50809  17.334  32.685   1.794
84269W        W50810  11.838  41.728   3.172
84270W        W50811   1.329  39.610   3.246
84271W        W50812   5.905   8.659  13.696
84272W        W50813  32.016  38.891  13.513
84273W        W50814   8.688   4.662  12.488
84274W        W50815  19.106  38.853  13.447
84275W        W50816  25.925  13.700  14.411
84276W        W50817  13.294  19.196   3.040
84277W        W50818   7.040  22.446  12.586
84278W        W50819   1.794   1.810   3.986
84279W        W50820  14.853  28.489  14.769
84280W        W50821   2.044  42.499  11.495
84281W        W50822  25.600  17.073  13.151
84282W        W50823  35.976  28.731   3.639
84283W        W50824  28.976  23.565   3.716
84284W        W50825  29.779  17.718  12.448
84285W        W50826  10.250  30.700   3.433
84286W        W50827  28.238  25.254  12.094
84287W        W50828  27.737  20.956  13.485
84288W        W50829  21.988  23.001   1.082
84289W        W50830  33.633  22.879  13.829
84290W        W50831  13.368  10.320   1.418
84291W        W50832  14.075  23.475  12.440
84292W        W50833  36.981  20.274  13.902
84293W        W50834  12.669  20.544   3.693
84294W        W50835  36.930  35.844   1.862
84295W        W50836  30.149  22.483  11.570
84296W        W50837  42.250   1.500  10.499
84297W        W50838  32.627  34.523   2.689
84298W        W50839  19.552  12.867  11.681
84299W        W50840   6.157  20.623   0.959
84300W        W50841  41.395   7.986   0.195
84301W        W50842  10.989   1.153   1.919
84302W        W50843  26.613   1.541  12.514
84303W        W50844  30.938  31.592   0.246
84304W        W50845  12.675  34.170   3.567
84305W        W50846  19.450  30.181   1.430
84306W        W50847  16.428  34.098   1.745
84307W        W50848  40.813  32.397  14.655
84308W        W50849  29.388  31.212   1.419
84309W        W50850   8.406  42.325   1.152
84310W        W50851  17.731  27.687   2.502
84311W        W50852  36.366   5.418   1.387
84312W        W50853   4.423  37.102  13.403
84313W        W50854  34.449  37.689   0.286
84314W        W50855  33.529  11.814  13.000
84315W        W50856  23.723  42.973  10.665
84316W        W50857   7.900  39.286  13.071
84317W        W50858   8.736  34.382  14.151
84318W        W50859  32.204  25.110  14.932
84319W        W50860   7.243  41.092   0.958
84320W        W50861   5.442   0.742  13.852
84321W        W50862  14.370  19.614  11.482
84322W        W50863  23.710  12.694  14.509
84323W        W50864  41.800  10.130  13.073
84324W        W50865  16.395   3.277  13.060
84325W        W50866   7.031  26.348  12.129
84326W        W50867  26.051   2.112   2.375
84327W        W50868  27.676  33.144   2.315
84328W        W50869  27.672   6.823  12.447
84329W        W50870  22.197  21.608   1.373
84330W        W50871  38.730  20.994   2.675
84331W        W50872  35.261  29.819   3.653
84332W        W50873   2.817  13.377   1.236
84333W        W50874   1.195  39.116   3.353
84334W        W50875  11.702  11.351   0.734
84335W        W50876  14.124  31.813  14.476
84336W        W50877  22.190   2.452  10.667
84337W        W50878   2.041  25.444   9.807
84338W        W50879   5.250  21.512   2.286
84339W        W50880  31.090   7.928  12.973
84340W        W50881  17.200  36.531  10.244
84341W        W50882  12.585  44.063  14.334
84342W        W50883   1.381  44.669   1.335
84343W        W50884   3.638  43.444  14.856
84344W        W50885  27.025  15.155   3.242
84345W        W50886  11.181  18.610   0.486
84346W        W50887  12.797  31.565   1.691
84347W        W50888  43.327   2.564   1.442
84348W        W50889   4.778  29.809   9.854
84349W        W50890  39.530  43.279  11.415
84350W        W50891  38.717  22.559   4.657
84351W        W50892  33.767  28.597   0.942
84352W        W50893  35.147   3.876  11.346
84353W        W50894  13.053  28.490   0.390
84354W        W50895  22.019  18.920  11.952
84355W        W50896  11.362  12.931   3.400
84356W        W50897  15.118  18.987   2.673
84357W        W50898  12.248  24.258   3.974
84358W        W50899  24.456   3.217  10.261
84359W        W50900  39.545   7.142   2.227
84360W        W50901  16.700  16.734   1.393
84361W        W50902   4.420  26.983   9.636
84362W        W50903  30.579  21.034   0.296
84363W        W50904  21.061   6.622   1.718
84364W        W50905  12.932  20.093   4.447
84365W        W50906  17.672  11.022   2.735
84366W        W50907  29.674  19.608   2.614
84367W        W50908   7.479  39.412   1.686
84368W        W50909  38.968  14.785  11.408
84369W        W50910  21.113   8.755  10.663
84370W        W50911  29.484  29.719   4.162
84371W        W50912  43.679  24.491   3.726
84372W        W50913  26.190  37.200   1.292
84373W        W50914  20.457  25.245  14.255
84374W        W50915  30.391  26.577   4.250
84375W        W50916   2.510  13.984  14.864
84376W        W50917   3.732  34.879  11.026
84377W        W50918  18.957  30.428  10.478
84378W        W50919   2.155   8.698  12.545
84379W        W50920  28.581  12.435  14.559
84380W        W50921  34.970  10.610  13.482
84381W        W50922  42.691  16.185   4.470
84382W        W50923  12.410   4.815  10.549
84383W        W50924   7.849  13.888  13.842
84384W        W50925  21.832  11.615  11.073
84385W        W50926   1.209   1.235   3.568
84386W        W50927  27.626  40.468  10.370
84387W        W50928  11.136  26.210  10.850
84388W        W50929  43.087   9.743  13.295
84389W        W50930   1.243  33.887  11.938
84390W        W50931  38.217   1.470  11.009
84391W        W50932  37.365  28.693   2.097
84392W        W50933   3.381   7.834   1.264
84393W        W50934  35.742  39.893   0.206
84394W        W50935  31.616  34.400   0.190
84395W        W50936  38.159   5.407   3.242
84396W        W50937  37.444  18.450  12.797
84397W        W50938  36.103  20.143   0.094
84398W        W50939  41.938  23.904   2.825
84399W        W50940  36.410  41.232   4.336
84400W        W50941   9.362  39.068  11.290
84401W        W50942   5.751   1.755   2.231
84402W        W50943  41.012  11.101   4.522
84403W        W50944  14.568  41.882  13.476
84404W        W50945  15.836  27.120   2.148
84405W        W50946  17.501   4.957   3.205
84406W        W50947   4.692  42.629  12.263
84407W        W50948   5.731  32.838   2.711
84408W        W50949  38.397  16.809   5.086
84409W        W50950  23.013   8.348  14.404
84410W        W50951   4.691  40.523   1.736
84411W        W50952  12.648  28.959   3.298
84412W        W50953  28.111  21.633  13.968
84413W        W50954  20.482  32.614  14.964
84414W        W50955  27.993  44.504   3.418
84415W        W50956  42.677  12.823  12.911
84416W        W50957  37.484  25.041  11.246
84417W        W50958  42.809  15.070  13.787
84418W        W50959  29.640  11.845   4.139
84419W        W50960   6.785  37.016   3.381
84420W        W50961  27.679  41.994   3.182
84421W        W50962  17.520  25.474   0.326
84422W        W50963  19.403  38.785  12.694
84423W        W50964  29.730  13.298  13.605
84424W        W50965  12.708  36.805   2.879
84425W        W50966   7.295   2.441  14.907
84426W        W50967   6.387  10.285   4.249
84427W        W50968  11.780  14.149  11.162
84428W        W50969  38.941  23.118  12.900
84429W        W50970   3.378  40.880   1.675
84430W        W50971  16.848  20.960  12.016
84431W        W50972  24.376  19.742  13.410
84432W        W50973  37.545  36.913   3.606
84433W        W50974  21.231  26.619   1.682
84434W        W50975  36.350  42.920   0.939
84435W        W50976  43.434  42.747   4.684
84436W        W50977   4.912  33.493   4.094
84437W        W50978  37.783  37.369   4.354
84438W        W50979  34.113   9.171   2.915
84439W        W50980  40.540  15.811  13.056
84440W        W50981  22.083  44.307   4.542
84441W        W50982  42.492  18.614  10.628
84442W        W50983  19.779  25.559   4.929
84443W        W50984   6.727  40.110   3.194
84444W        W50985  34.153  17.832  10.838
84445W        W50986  11.529  31.104   4.519
84446W        W50987  18.528   6.198  14.553
84447W        W50988  18.492  33.715  12.022
84448W        W50989   9.520   9.726  14.526
84449W        W50990  42.082   9.842   2.233
84450W        W50991  27.780  21.959  11.081
84451W        W50992   0.695  40.835   2.918
84452W        W50993  22.639  23.448  12.695
84453W        W50994  38.536  43.331   0.186
84454W        W50995  32.954  22.615   0.633
84455W        W50996  15.294  44.126   4.236
84456W        W50997   0.735  20.688   4.745
84457W        W50998  42.264  20.986  14.382
84458W        W50999  37.320  27.704  14.016
84459W        W51000  20.273  13.936  12.984
84460W        W51001  33.510  33.138  12.140
84461W        W51002  19.869   7.576  12.491
84462W        W51003  21.053  25.143   1.882
84463W        W51004  21.415  24.818   2.788
84464W        W51005  13.232  13.859  10.490
84465W        W51006  38.478  19.364   2.779
84466W        W51007  43.286   9.067   4.871
84467W        W51008  27.340   8.939   0.349
84468W        W51009  38.866  26.003   0.193
84469W        W51010  25.232  24.421  14.695
84470W        W51011   9.287  31.348   4.166
84471W        W51012  11.832  36.343  13.233
84472W        W51013  15.566  43.314  14.025
84473W        W51014  15.241  24.669   2.632
84474W        W51015  41.525  43.522  11.783
84475W        W51016   4.838   2.766   9.693
84476W        W51017  33.596  41.764   2.598
84477W        W51018  30.169   0.998  10.731
84478W        W51019  26.562  43.028   0.901
84479W        W51020  42.347   1.142  13.744
84480W        W51021  22.282   0.566  14.521
84481W        W51022  41.811  11.795   3.583
84482W        W51023  36.438  24.669   2.233
84483W        W51024   5.587  11.653   3.641
84484W        W51025   1.387  40.741   1.367
84485W        W51026  29.362  17.391  12.475
84486W        W51027  34.522   6.825  13.380
84487W        W51028   0.417  30.707  10.783
84488W        W51029  19.933  43.954  14.755
84489W        W51030  22.173  28.846   2.323
84490W        W51031  43.557  38.802   1.237
84491W        W51032  14.468  36.594  13.135
84492W        W51033   6.089  35.289  11.586
84493W        W51034  18.329  14.079   2.188
84494W        W51035   1.396  24.025   2.785
84495W        W51036   9.174  21.074   3.713
84496W        W51037  25.478  28.691  11.304
84497W        W51038  19.457  41.320   1.367
84498W        W51039  16.067  33.064  11.163
84499W        W51040  29.366  20.131   3.734
84500W        W51041   1.771  11.157   1.410
84501W        W51042  31.974  23.720   2.604
84502W        W51043   6.176  20.754  12.465
84503W        W51044  38.351   0.347   3.632
84504W        W51045  43.478  30.680  11.712
84505W        W51046  26.545   1.516  10.967
84506W        W51047  28.444  17.191   4.875
84507W        W51048  20.217   2.408   3.422
84508W        W51049  25.107  25.440   2.865
84509W        W51050  15.425  26.265  11.581
84510W        W51051  33.478  18.560  14.939
84511W        W51052  24.208  18.750  13.907
84512W        W51053  36.882  40.949   0.823
84513W        W51054  42.530  11.160   1.897
84514W        W51055  11.709  16.320   1.203
84515W        W51056  22.718  15.609   3.820
84516W        W51057  39.348  26.646   4.160
84517W        W51058  34.882   9.670   0.459
84518W        W51059  26.685  24.995   1.166
84519W        W51060   8.282  41.789  14.051
84520W        W51061   8.834   2.215   0.688
84521W        W51062  22.087   1.810   2.221
84522W        W51063  40.388  16.553  11.941
84523W        W51064  15.221  15.064  13.448
84524W        W51065  38.313  25.770  12.986
84525W        W51066  43.659  39.992   1.306
84526W        W51067   5.791  21.165   4.233
84527W        W51068  33.540   7.698   3.581
84528W        W51069  44.248  35.534   4.060
84529W        W51070   2.947  18.621  13.990
84530W        W51071  26.023  10.316  11.644
84531W        W51072  11.411  40.208  10.936
84532W        W51073  38.451  23.044   2.373
84533W        W51074   2.821  33.174  14.747
84534W        W51075  15.039  35.592  10.915
84535W        W51076  27.150  32.981   0.952
84536W        W51077  39.584  23.574  14.979
84537W        W51078  31.357  33.114   4.160
84538W        W51079  36.465  21.626   2.279
84539W        W51080  30.651  15.596  12.359
84540W        W51081  26.306  22.484   4.936
84541W        W51082  17.050  25.543   2.755
84542W        W51083  36.399  27.573   0.910
84543W        W51084  28.401   3.389   4.518
84544W        W51085  32.724  37.501  11.060
84545W        W51086  31.501   1.817   1.734
84546W        W51087   9.764   5.322   4.602
84547W        W51088  13.048   5.695  12.446
84548W        W51089  17.543  39.355   2.246
84549W        W51090  12.415  37.006   0.221
84550W        W51091  16.597   7.654  11.826
84551W        W51092  25.154  31.007  12.879
84552W        W51093  24.104  11.902   4.570
84553W        W51094  28.583   6.193   0.488
84554W        W51095  31.372  16.685   5.119
84555W        W51096  14.328   4.708   2.832
84556W        W51097  41.889  44.200  10.207
84557W        W51098  33.216  15.525   4.126
84558W        W51099   9.934  40.632  13.341
84559W        W51100  44.961  25.138   1.841
84560W        W51101   7.054  32.586  10.961
84561W        W51102  37.087  24.676   4.963
84562W        W51103   4.064  18.743  12.012
84563W        W51104  32.843   3.475   1.988
84564W        W51105   4.327   6.315  10.650
84565W        W51106  37.286  43.558  13.793
84566W        W51107  39.238  14.378  12.142
84567W        W51108  18.629  18.616  14.992
84568W        W51109   9.461  30.841   1.804
84569W        W51110  39.520  33.452  14.515
84570W        W51111  11.713   9.471   0.624
84571W        W51112  36.610  22.474  13.020
84572W        W51113  38.422   9.437   2.723
84573W        W51114  17.791  13.747   1.412
84574W        W51115   1.957  34.485   4.464
84575W        W51116  37.130  20.175   4.560
84576W        W51117  12.848  16.707   3.782
84577W        W51118   8.540  22.139  14.083
84578W        W51119  32.245  28.151   2.256
84579W        W51120  26.216   3.487   4.161
84580W        W51121  41.410  30.378   4.871
84581W        W51122  20.830   8.146   1.275
84582W        W51123  15.126  19.535   0.726
84583W        W51124  42.879   8.003  13.784
84584W        W51125  30.827  14.768   0.690
84585W        W51126  18.734  30.908  14.477
84586W        W51127  30.484   7.392   4.591
84587W        W51128  43.265  21.018  14.768
84588W        W51129  34.646   0.210  13.974
84589W        W51130  43.436  29.745   2.765
84590W        W51131  10.858  11.330  14.709
84591W        W51132  24.077  17.747   3.473
84592W        W51133  35.347  18.103  14.333
84593W        W51134  26.997  16.797  11.629
84594W        W51135  26.004   2.977  11.504
84595W        W51136   7.265  34.605  12.666
84596W        W51137  24.010  44.914  13.795
84597W        W51138  32.371  11.902  12.400
84598W        W51139  20.060  17.504  11.993
84599W        W51140  12.531  39.669  12.150
84600W        W51141   9.345  10.566   0.892
84601W        W51142  24.742   1.444   4.144
84602W        W51143  39.397  33.349   3.312
84603W        W51144  32.091  23.222  14.299
84604W        W51145  17.399   6.356   3.317
84605W        W51146  37.152   9.816  13.337
84606W        W51147  38.600   3.371   0.342
84607W        W51148  30.908  39.048  11.648
84608W        W51149  26.073  21.233  14.831
84609W        W51150   1.868  23.942   4.604
84610W        W51151   1.448  44.484  12.384
84611W        W51152  20.985  21.602  10.669
84612W        W51153   6.179  35.547  14.986
84613W        W51154  28.239  33.494  11.543
84614W        W51155   0.284  10.909   3.189
84615W        W51156  32.699   7.578   0.742
84616W        W51157  43.735  21.669   0.322
84617W        W51158  33.924  18.249   4.270
84618W        W51159   7.626  36.862   3.084
84619W        W51160   4.320  14.390   2.300
84620W        W51161  44.777   3.003   3.611
84621W        W51162  38.443  24.832   3.836
84622W        W51163  38.366  33.159   3.057
84623W        W51164  20.484  14.320  13.259
84624W        W51165   3.964  14.678  12.393
84625W        W51166   4.000  22.697  14.502
84626W        W51167  16.794  42.824  11.557
84627W        W51168   9.729  43.004  12.028
84628W        W51169  21.211   7.880  11.718
84629W        W51170  12.534   6.650  13.601
84630W        W51171  41.401  31.313  12.033
84631W        W51172  14.661  37.580  13.474
84632W        W51173  44.575  26.286   3.680
84633W        W51174  15.620  32.829  11.062
84634W        W51175   0.195  30.435   5.141
84635W        W51176   6.684  36.315  10.979
84636W        W51177  10.221  36.071  13.881
84637W        W51178  33.018  37.382   1.458
84638W        W51179  43.509  39.768  12.775
84639W        W51180  26.211  28.641  14.364
84640W        W51181  44.854  27.384   1.978
84641W        W51182  22.005  18.161   1.887
84642W        W51183  36.100  22.086  14.900
84643W        W51184  38.782  17.208  13.916
84644W        W51185  16.249  36.619   0.879
84645W        W51186   0.623  17.137   4.653
84646W        W51187   7.189   7.420   3.722
84647W        W51188  31.194  20.592   0.967
84648W        W51189  12.564  16.054  10.580
84649W        W51190  41.557  18.287   1.179
84650W        W51191   3.341  10.120  13.428
84651W        W51192  43.232   9.150   3.590
84652W        W51193   8.675  18.228  12.884
84653W        W51194  17.034  30.408  10.285
84654W        W51195  22.643  21.322   1.346
84655W        W51196  11.615  30.469  10.670
84656W        W51197   3.875  10.476   2.846
84657W        W51198  17.807  43.350  14.461
84658W        W51199  41.943  12.999   3.614
84659W        W51200  29.963   5.515  14.953
84660W        W51201  43.970  31.544   0.274
84661W        W51202  20.921  12.549   3.784
84662W        W51203  37.693  37.820  12.921
84663W        W51204  28.848   8.480   4.313
84664W        W51205  37.401  36.468   0.911
84665W        W51206  16.279  31.511   1.856
84666W        W51207  32.660  10.586  11.595
84667W        W51208  37.485  28.119   2.802
84668W        W51209  41.299  18.981   3.709
84669W        W51210   4.236   3.816   3.591
84670W        W51211  38.457  30.806  13.338
84671W        W51212  26.110  38.305   4.900
84672W        W51213  43.431  36.850   2.998
84673W        W51214   8.468  11.594   0.590
84674W        W51215   8.075  20.202   0.401
84675W        W51216  24.949  10.822  14.366
84676W        W51217  13.648  19.733  13.490
84677W        W51218   8.894   6.749   0.279
84678W        W51219  32.570  30.906   1.752
84679W        W51220  41.178   6.253  12.018
84680W        W51221  43.600   6.651   1.766
84681W        W51222   9.360   2.197   0.278
84682W        W51223  10.910  34.895  10.674
84683W        W51224  14.311  33.660   3.980
84684W        W51225  36.847  30.593  12.455
84685W        W51226  28.532  38.894   4.741
84686W        W51227   0.890  43.944   0.389
84687W        W51228  12.229  37.284  12.132
84688W        W51229  22.180   5.930  14.708
84689W        W51230  15.833  19.086  13.889
84690W        W51231   8.867  43.921   1.863
84691W        W51232  43.412  26.713   3.738
84692W        W51233  13.439   2.691  11.001
84693W        W51234   8.414   5.185   1.669
84694W        W51235  21.752  12.226   0.779
84695W        W51236  22.157  24.626   4.769
84696W        W51237   3.194  23.013   3.285
84697W        W51238  30.948  31.309   4.879
84698W        W51239  30.482  10.184  13.845
84699W        W51240   1.583   3.312  10.205
84700W        W51241  21.011  14.823  13.509
84701W        W51242  34.448  35.151  13.810
84702W        W51243  10.380  18.815  11.938
84703W        W51244   7.974   5.807  11.562
84704W        W51245  36.366   5.909  10.879
84705W        W51246  11.798  30.945   0.405
84706W        W51247  29.237   1.851   2.281
84707W        W51248   1.245  43.351   3.488
84708W        W51249  20.090  41.250  12.019
84709W        W51250  37.204   9.043  13.522
84710W        W51251  31.606  35.970   4.058
84711W        W51252  33.396  30.562   2.732
84712W        W51253   6.376  34.284   1.391
84713W        W51254  39.969  30.217   4.184
84714W        W51255  19.023  19.117  11.490
84715W        W51256  21.176  10.239   0.750
84716W        W51257   7.469  33.952   4.546
84717W        W51258  15.177  30.675  11.684
84718W        W51259  35.119   5.406   1.878
84719W        W51260  41.733  23.991  12.441
84720W        W51261   6.584   3.847  12.143
84721W        W51262  33.328  33.375   0.884
84722W        W51263   1.183  25.109   4.712
84723W        W51264  42.372   6.141   1.328
84724W        W51265  25.987  26.670  11.324
84725W        W51266  39.870  36.909  11.466
84726W        W51267  25.712  38.089   1.302
84727W        W51268   7.109   4.301  13.413
84728W        W51269  26.652   9.396  14.314
84729W        W51270  21.967  26.864  12.946
84730W        W51271  27.605  37.738  12.881
84731W        W51272   6.795  34.412   1.074
84732W        W51273  15.625  16.668   3.075
84733W        W51274  15.827   4.719   3.641
84734W        W51275   3.770  42.203  14.319
84735W        W51276   8.184  17.433  12.356
84736W        W51277  37.529   2.749  11.541
84737W        W51278  42.911  12.659  14.934
84738W        W51279   8.883  11.068  10.394
84739W        W51280  27.988   7.248   1.716
84740W        W51281   1.014   3.140  12.588
84741W        W51282  25.945  41.726  14.333
84742W        W51283  20.280  35.470   0.785
84743W        W51284  38.599  15.135   3.089
84744W        W51285  44.027   7.865   4.801
84745W        W51286  36.500   4.963  10.699
84746W        W51287  29.707  38.720  14.968
84747W        W51288  15.896  20.291  12.087
84748W        W51289  16.740  17.738   4.602
84749W        W51290  19.326  44.947   3.504
84750W        W51291  25.689   8.143  14.776
84751W        W51292  37.641   8.888  13.243
84752W        W51293   7.747  32.549   1.505
84753W        W51294  17.357  36.941   4.170
84754W        W51295  32.395  25.033   2.242
84755W        W51296  35.055  42.025   0.302
84756W        W51297  22.738   4.492  13.384
84757W        W51298  13.369   8.682  10.718
84758W        W51299   1.509  27.468   2.795
84759W        W51300  18.671   4.308   2.471
84760W        W51301  43.717  32.163  12.063
84761W        W51302  21.025  18.786   4.155
84762W        W51303   4.068  29.014  14.479
84763W        W51304   8.701   7.950   2.725
84764W        W51305  11.094  22.974  11.934
84765W        W51306  43.048  29.629  14.293
84766W        W51307   2.984  38.343  11.146
84767W        W51308  12.343   5.975   4.213
84768W        W51309  28.991  20.293   0.278
84769W        W51310  26.447  25.787   0.420
84770W        W51311  35.810   0.922   0.135
84771W        W51312   7.972  10.771   0.416
84772W        W51313  13.721  12.405  12.519
84773W        W51314  24.601  36.596   3.639
84774W        W51315  40.752   6.255  10.911
84775W        W51316  34.853  29.176  11.372
84776W        W51317  41.525  21.688   2.245
84777W        W51318  27.098  35.349   3.768
84778W        W51319  11.070  13.218   2.711
84779W        W51320  12.177  43.184   4.237
84780W        W51321   9.634  38.081  13.418
84781W        W51322  39.942  11.871  14.882
84782W        W51323  28.709  42.474   2.692
84783W        W51324  42.229  44.409  11.111
84784W        W51325  42.095  43.861   4.506
84785W        W51326  44.451  31.815  13.403
84786W        W51327  21.485  44.000   1.341
84787W        W51328  37.109  29.577  12.517
84788W        W51329  25.982  38.558  11.059
84789W        W51330  31.577  29.121   2.721
84790W        W51331  21.627  26.469  13.977
84791W        W51332  36.103  10.111  14.312
84792W        W51333  39.415  43.331   0.451
84793W        W51334  32.401  15.147   3.604
84794W        W51335   2.300  19.946  10.745
84795W        W51336  29.668  24.027   0.033
84796W        W51337  14.628  26.622   4.350
84797W        W51338  11.282  38.425   2.748
84798W        W51339  29.424  12.515   3.706
84799W        W51340  13.290  11.899  11.640
84800W        W51341  37.311  43.270   2.242
84801W        W51342  40.861  10.602   2.680
84802W        W51343  24.479  12.833   1.839
84803W        W51344  43.428   7.909   1.180
84804W        W51345  23.550  23.232  11.954
84805W        W51346  15.197  15.666  12.431
84806W        W51347   7.804   3.018   0.895
84807W        W51348  36.089  19.730  10.691
84808W        W51349  40.997  18.146   1.871
84809W        W51350  29.705  32.557   4.103
84810W        W51351   9.565  15.071  11.900
84811W        W51352  14.548  10.304   1.141
84812W        W51353  24.091   7.632  11.502
84813W        W51354  44.148  36.919   3.578
84814W        W51355  29.652  10.127   0.539
84815W        W51356  39.067   4.508   1.214
84816W        W51357  43.337   7.146  12.988
84817W        W51358   7.288  21.305   0.673
84818W        W51359  31.891  44.419   2.708
84819W        W51360  32.624   6.783  13.847
84820W        W51361  12.177   6.121   1.419
84821W        W51362   5.261  29.607   1.308
84822W        W51363  14.680   4.791  11.225
84823W        W51364   6.225  37.321   2.284
84824W        W51365  37.816  39.235  13.091
84825W        W51366  16.850  22.782   3.312
84826W        W51367  23.465   9.721  12.120
84827W        W51368  42.990   3.748  11.723
84828W        W51369  44.503  39.440  12.903
84829W        W51370  20.289  42.238  11.807
84830W        W51371  17.176  31.083   0.892
84831W        W51372  44.203  44.817  14.926
84832W        W51373   4.488   0.907  11.557
84833W        W51374  39.783  27.087  11.217
84834W        W51375  34.911  15.737   4.646
84835W        W51376  44.878  40.423   0.999
84836W        W51377  22.324  10.793   4.553
84837W        W51378  27.546  25.116  10.668
84838W        W51379  30.071  24.562  14.493
84839W        W51380  39.578  17.622  12.478
84840W        W51381   1.834  42.687  14.387
84841W        W51382  44.238  13.149  11.178
84842W        W51383  27.766  26.765   2.827
84843W        W51384  43.257  15.008   3.711
84844W        W51385  27.277  35.586   1.202
84845W        W51386  31.437   2.950   1.369
84846W        W51387  31.158  16.132   1.407
84847W        W51388  25.540  20.423  13.492
84848W        W51389  14.149  37.092  14.523
84849W        W51390   9.270   7.828  14.879
84850W        W51391  10.798  39.594  13.006
84851W        W51392   3.906   2.155   1.031
84852W        W51393  44.077  24.671   0.536
84853W        W51394  38.828  13.573  14.374
84854W        W51395  27.262  43.136  11.218
84855W        W51396   4.223   2.296  13.416
84856W        W51397  29.177   3.389  14.200
84857W        W51398  23.006   7.768   4.136
84858W        W51399  31.959  12.673   0.780
84859W        W51400  19.324  43.979   3.216
84860W        W51401  20.638  15.516  13.638
84861W        W51402  41.267  29.472   1.491
84862W        W51403  22.796  24.951   1.426
84863W        W51404  21.995   8.433   2.193
84864W        W51405  10.436   2.960   2.850
84865W        W51406   1.218  40.544  14.900
84866W        W51407  16.535   4.166   2.349
84867W        W51408  13.729  35.362   4.709
84868W        W51409  34.518  31.591   2.400
84869W        W51410  27.239  21.480  11.651
84870W        W51411  20.962  20.034  13.485
84871W        W51412  30.768  41.967   0.019
84872W        W51413  39.803  20.487  12.542
84873W        W51414  21.221  10.794  11.711
84874W        W51415   0.292  30.992   4.096
84875W        W51416  13.112  26.824   0.847
84876W        W51417   2.201   1.938   3.053
84877W        W51418  23.175  32.419   0.665
84878W        W51419  27.489   3.222   9.997
84879W        W51420   5.392  22.767  13.519
84880W        W51421  40.977  26.011   1.678
84881W        W51422  17.752   5.202   1.323
84882W        W51423  13.168   8.786   3.935
84883W        W51424  37.084  40.926  11.546
84884W        W51425  31.455  41.345  14.511
84885W        W51426  14.529   3.677  14.618
84886W        W51427  25.635  39.813  14.521
84887W        W51428   4.663  38.368  10.624
84888W        W51429  36.355  40.519   3.555
84889W        W51430  31.664  28.727  12.733
84890W        W51431   7.747  21.403   0.932
84891W        W51432   3.439  25.127  11.593
84892W        W51433   5.637  30.986  13.542
84893W        W51434  26.709  12.067  10.602
84894W        W51435  23.265  14.835   3.462
84895W        W51436   0.764  41.595  10.285
84896W        W51437  23.734  21.133  12.653
84897W        W51438   2.705  34.406   0.645
84898W        W51439   3.893  21.935   0.857
84899W        W51440  30.267  39.993  12.575
84900W        W51441  15.624  20.741  12.058
84901W        W51442  32.153   6.252  10.966
84902W        W51443  41.181  36.641   4.088
84903W        W51444  37.511  33.644   4.589
84904W        W51445  33.584  14.782   4.366
84905W        W51446  27.176  37.913  11.004
84906W        W51447  25.168   4.217   3.677
84907W        W51448  33.055  14.193   0.372
84908W        W51449  12.824  26.527  12.412
84909W        W51450  18.193  32.076   2.303
84910W        W51451  42.311  16.771   5.047
84911W        W51452  18.746  38.764  14.283
84912W        W51453  43.771  38.666  12.108
84913W        W51454  21.535  39.235  13.117
84914W        W51455  25.619  44.747  10.808
84915W        W51456  11.898  34.647  10.684
84916W        W51457  23.973  18.726  14.795
84917W        W51458  38.357  44.875   4.992
84918W        W51459  27.774  24.279  11.566
84919W        W51460  41.098  27.103  14.554
84920W        W51461   4.797  16.214   4.502
84921W        W51462  39.124  19.365  13.920
84922W        W51463  26.578   8.177  14.807
84923W        W51464  18.645  14.865  12.538
84924W        W51465   1.890  12.670   3.218
84925W        W51466   6.812   1.494  10.050
84926W        W51467   3.769   4.300  12.222
84927W        W51468  37.892  33.360   0.867
84928W        W51469  24.070  35.854   2.679
84929W        W51470  13.758  30.085   4.652
84930W        W51471   4.826  35.514  12.148
84931W        W51472   3.442   7.691   0.740
84932W        W51473  44.358   0.920   0.410
84933W        W51474  32.070   0.865   4.575
84934W        W51475  16.598   3.683   4.704
84935W        W51476  44.770   6.292   4.169
84936W        W51477   2.007  21.710   2.261
84937W        W51478  41.384  44.497  10.862
84938W        W51479  34.868   5.936  10.260
84939W        W51480  17.825  31.548   2.705
84940W        W51481  14.610   4.240   3.247
84941W        W51482  34.500  43.900  13.385
84942W        W51483  27.241  27.905   1.813
84943W        W51484   1.029   3.804  13.804
84944W        W51485  20.513  25.243  13.373
84945W        W51486  21.698   4.968  11.601
84946W        W51487  18.929  35.520  13.399
84947W        W51488  30.042  38.359  12.795
84948W        W51489  22.673  32.495   1.935
84949W        W51490  19.484  20.595   4.602
84950W        W51491   6.484  15.010  13.224
84951W        W51492  26.445  14.864  11.941
84952W        W51493  38.395  30.126   4.187
84953W        W51494  33.830  27.006  14.858
84954W        W51495  17.810  30.739   5.465
84955W        W51496   8.288  28.077   2.259
84956W        W51497  44.189  41.452   2.793
84957W        W51498  40.353  13.948  13.112
84958W        W51499  18.958  36.400  14.785
84959W        W51500  19.018  24.735   2.374
84960W        W51501  39.288  24.266  14.252
84961W        W51502  42.110   8.021   3.399
84962W        W51503  27.619  39.538  12.363
84963W        W51504   1.474  30.587   1.331
84964W        W51505  26.162  41.206   0.027
84965W        W51506  28.880  14.313   2.662
84966W        W51507  29.500   3.340   0.726
84967W        W51508   8.368  38.849   3.987
84968W        W51509  20.272  22.389  13.164
84969W        W51510  15.395  43.117  13.042
84970W        W51511  17.316   5.831  11.040
84971W        W51512  28.562  25.248   2.647
84972W        W51513  25.004  14.260   2.587
84973W        W51514  40.279  28.275  14.665
84974W        W51515  10.241  43.733  13.437
84975W        W51516   0.475   3.229   0.350
84976W        W51517   1.729   5.232   3.659
84977W        W51518   9.237   4.802  12.335
84978W        W51519  10.999  12.656  12.908
84979W        W51520  41.261   0.338  11.856
84980W        W51521  28.894  33.044  12.190
84981W        W51522  16.579  16.682   0.347
84982W        W51523  37.776   0.030   1.799
84983W        W51524  23.999   9.146  14.378
84984W        W51525  16.613  22.551   2.411
84985W        W51526  36.953  29.093  12.527
84986W        W51527  24.691  44.848  13.405
84987W        W51528  34.719  20.233   1.188
84988W        W51529  33.949  32.099  13.343
84989W        W51530  33.966  36.532   2.481
84990W        W51531  20.139  17.986   2.801
84991W        W51532  15.681  33.671  10.687
84992W        W51533   5.369  29.687  12.926
84993W        W51534  15.857  13.260   4.070
84994W        W51535  38.980  26.375  10.544
84995W        W51536  31.163   4.698   0.868
84996W        W51537  39.013  34.077   3.407
84997W        W51538  11.740   5.203  14.288
84998W        W51539   8.504   2.008  11.334
84999W        W51540   2.115  37.444   4.409
85000W        W51541   1.785  24.010  10.545
85001W        W51542  40.908  39.429   4.955
85002W        W51543   9.601  32.479   4.343
85003W        W51544   4.193   0.788   2.781
85004W        W51545  33.510  42.486   3.436
85005W        W51546   1.731  13.881  13.445
85006W        W51547  20.555  18.630  13.273
85007W        W51548  13.086  26.945   2.878
85008W        W51549   4.271  25.133  14.306
85009W        W51550  22.322  38.944  11.184
85010W        W51551   9.798  42.950  13.491
85011W        W51552   4.835   6.930  10.734
85012W        W51553   0.934  29.584   1.945
85013W        W51554  33.672  12.507   5.580
85014W        W51555  19.735  14.791   2.108
85015W        W51556  28.455  14.366  10.682
85016W        W51557  28.753   5.752   2.820
85017W        W51558   3.812  11.712  11.550
85018W        W51559  28.210  19.849  10.611
85019W        W51560  36.754   5.295  13.516
85020W        W51561  30.499  16.657  14.131
85021W        W51562  35.036  30.061   1.318
85022W        W51563  13.825  30.267  11.099
85023W        W51564  42.498  42.530   1.478
85024W        W51565   2.315  16.763   2.292
85025W        W51566  33.009   7.246   2.399
85026W        W51567   8.266  44.303   1.759
85027W        W51568  41.350  16.758  10.912
85028W        W51569  25.761  41.983   3.180
85029W        W51570  39.087   2.459  13.529
85030W        W51571   2.799   6.865  13.464
85031W        W51572  33.594  14.075  14.925
85032W        W51573  34.065   4.682   0.206
85033W        W51574   3.515   7.362  10.096
85034W        W51575  17.598  28.449  10.901
85035W        W51576  10.340  29.375   1.467
85036W        W51577  33.104  13.976  12.051
85037W        W51578  22.291  26.352   2.790
85038W        W51579  18.512  13.674   0.848
85039W        W51580  18.167  31.013  10.383
85040W        W51581  13.531  39.903  10.685
85041W        W51582  30.372   6.797  13.939
85042W        W51583  27.140   3.791  10.706
85043W        W51584   6.001  44.788   2.139
85044W        W51585  13.578  13.821  12.767
85045W        W51586  14.346  34.511  14.366
85046W        W51587  18.742  22.014  12.450
85047W        W51588  38.840  20.934  13.411
85048W        W51589  25.143   9.725   4.530
85049W        W51590  33.984  26.310   4.394
85050W        W51591  39.912   6.211   1.436
85051W        W51592  38.009  33.993  10.598
85052W        W51593  20.612  22.243   0.858
85053W        W51594  44.037  33.493  13.331
85054W        W51595   9.767   0.038   1.165
85055W        W51596  22.210  30.741  10.521
85056W        W51597  20.734  23.405  12.113
85057W        W51598   7.400  19.230   0.457
85058W        W51599   0.043  38.656   3.992
85059W        W51600  39.328  41.364   3.150
85060W        W51601  42.768  34.135  14.499
85061W        W51602   3.904  43.973   2.726
85062W        W51603   0.882  41.004   1.223
85063W        W51604  43.151   5.823   2.257
85064W        W51605  32.356  19.446   5.016
85065W        W51606  34.070  24.715   3.701
85066W        W51607  29.988  44.584  12.353
85067W        W51608  11.195  42.779   1.978
85068W        W51609  39.871  30.120   2.776
85069W        W51610   3.384  10.330   2.149
85070W        W51611  38.448  15.863  13.831
85071W        W51612  39.812  24.293  12.094
85072W        W51613  28.548  33.877  14.964
85073W        W51614   7.375  24.011  10.603
85074W        W51615  11.072  23.980   2.830
85075W        W51616  27.798  12.190   9.801
85076W        W51617  33.881   5.520   0.570
85077W        W51618  20.971  12.384  11.214
85078W        W51619  24.988  38.991   3.236
85079W        W51620  40.017  16.014   1.620
85080W        W51621  21.056   5.250  13.404
85081W        W51622  43.191  39.487  13.497
85082W        W51623   3.510  26.254   2.674
85083W        W51624   9.342  43.254   1.833
85084W        W51625  21.531  20.322   0.188
85085W        W51626  37.386  31.004  14.577
85086W        W51627  31.099  38.267  10.623
85087W        W51628  43.516  36.438   0.819
85088W        W51629   4.334   6.798   2.347
85089W        W51630  28.725   4.285   0.848
85090W        W51631   7.155  23.506   4.441
85091W        W51632  21.612  38.030   3.695
85092W        W51633  36.821  16.229  10.787
85093W        W51634   5.892   4.973  13.833
85094W        W51635   7.241  38.007  13.955
85095W        W51636   8.712  13.691  13.828
85096W        W51637  11.878  37.919  11.040
85097W        W51638  30.591   0.887  12.394
85098W        W51639   1.476  42.854   0.320
85099W        W51640  12.055  42.365  12.008
85100W        W51641  22.673   3.421  11.515
85101W        W51642  22.363   7.915   9.448
85102W        W51643  37.626   2.448   3.629
85103W        W51644  44.604  12.274  14.920
85104W        W51645  32.976  25.689  13.478
85105W        W51646  23.417   9.929   2.264
85106W        W51647  26.566  20.999  10.479
85107W        W51648  37.597   8.354   0.715
85108W        W51649  25.777   5.749   3.208
85109W        W51650  11.618   1.680   1.326
85110W        W51651  19.581  44.242  12.934
85111W        W51652  23.941   3.188  10.446
85112W        W51653  28.600  39.971  11.350
85113W        W51654  24.009   1.277   2.408
85114W        W51655  36.077   1.206  11.129
85115W        W51656  14.085  27.489  11.140
85116W        W51657   6.613  32.594  13.320
85117W        W51658  23.494  17.157   0.919
85118W        W51659  11.151  32.254  12.911
85119W        W51660  34.420   3.814   2.820
85120W        W51661  31.534  29.184  14.187
85121W        W51662  35.594  30.412   0.275
85122W        W51663  36.460  28.145   2.159
85123W        W51664  37.067   8.406   1.644
85124W        W51665  37.804  14.681   1.639
85125W        W51666  26.791  43.965   3.556
85126W        W51667  23.946  43.710   3.011
85127W        W51668  43.032  38.838  12.661
85128W        W51669   2.267  30.366   1.875
85129W        W51670  40.095  24.673   4.513
85130W        W51671  43.450   2.227  14.751
85131W        W51672   4.163  33.237   2.175
85132W        W51673  16.175  35.889  14.472
85133W        W51674  39.749  44.963  14.885
85134W        W51675  44.469  13.487   0.745
85135W        W51676  21.263  22.728   1.931
85136W        W51677  44.868   4.850   4.839
85137W        W51678  24.528   0.190  12.109
85138W        W51679  17.483  12.320  11.613
85139W        W51680   3.954   6.290  13.423
85140W        W51681  14.177   6.481  11.061
85141W        W51682  39.148  30.023   2.368
85142W        W51683  33.112  26.433  13.099
85143W        W51684  24.422   0.568   2.174
85144W        W51685  44.732  19.084   4.133
85145W        W51686  27.470  30.199  11.386
85146W        W51687  23.614  36.316  13.033
85147W        W51688  44.736  26.963  14.016
85148W        W51689  38.506  12.905   4.593
85149W        W51690  12.414  40.538  11.828
85150W        W51691  43.920  18.500  13.994
85151W        W51692  33.609  27.518   0.758
85152W        W51693   1.432  31.602   1.344
85153W        W51694  23.491  28.623  14.420
85154W        W51695  19.198   0.044   3.026
85155W        W51696  36.210  26.925   0.408
85156W        W51697  12.301  13.243   1.181
85157W        W51698  35.294  21.645   2.872
85158W        W51699   6.341  26.962  14.748
85159W        W51700  32.978  22.042  13.898
85160W        W51701   8.499  41.573  11.995
85161W        W51702  38.486  14.334   2.746
85162W        W51703   2.438  41.832  11.720
85163W        W51704   5.937  12.726   1.658
85164W        W51705  30.003  35.877  10.588
85165W        W51706  21.557  38.855   3.195
85166W        W51707  28.122  22.674  10.632
85167W        W51708  38.920  29.834  10.777
85168W        W51709  35.012  10.229   4.174
85169W        W51710  34.733  27.930  11.072
85170W        W51711  39.902  19.802   2.395
85171W        W51712  25.128   4.223   0.622
85172W        W51713  37.455   1.232  12.400
85173W        W51714  15.178  32.607  10.959
85174W        W51715  28.355  40.446   1.252
85175W        W51716  34.422  28.599  13.333
85176W        W51717  26.018  40.998  11.118
85177W        W51718  26.282  43.013  13.885
85178W        W51719   3.968  40.457  11.173
85179W        W51720  41.154  41.476  13.515
85180W        W51721   6.493  18.295  11.089
85181W        W51722  12.067  21.795  14.867
85182W        W51723   6.620  18.928   2.204
85183W        W51724   7.624   3.709  12.027
85184W        W51725  12.613   5.390   0.412
85185W        W51726   0.741  13.525  12.143
85186W        W51727  33.923  13.984  10.105
85187W        W51728  15.212  29.734  13.462
85188W        W51729  10.263   4.809  12.525
85189W        W51730  22.968   4.987   0.019
85190W        W51731   9.804   1.207  14.043
85191W        W51732  39.391   0.490  12.531
85192W        W51733  33.432   4.741   0.439
85193W        W51734  18.138  18.917  11.087
85194W        W51735   6.620  19.333  11.958
85195W        W51736  44.512  42.749  12.488
85196W        W51737  28.409  31.118  11.506
85197W        W51738   5.976  39.413  10.008
85198W        W51739  21.290   4.930   0.434
85199W        W51740   4.152   9.256   3.807
85200W        W51741  21.803  27.968  13.990
85201W        W51742   5.504   4.280  11.461
85202W        W51743   6.259  26.579   3.228
85203W        W51744  20.613   3.202  13.143
85204W        W51745  14.163  16.641  14.373
85205W        W51746   1.945   5.156  10.613
85206W        W51747   0.855  30.709  13.946
85207W        W51748  13.530   9.595   1.630
85208W        W51749   0.852  16.597   3.266
85209W        W51750  38.621  13.181  12.663
85210W        W51751   2.222  15.087   3.336
85211W        W51752  28.572   0.357  10.699
85212W        W51753   2.180   6.231   3.738
85213W        W51754  28.929   7.910  10.743
85214W        W51755  42.778   5.892  10.687
85215W        W51756   0.379  16.137  12.603
85216W        W51757  44.831  11.116   0.055
85217W        W51758  39.963  31.038   1.289
85218W        W51759  41.952  39.079  11.308
85219W        W51760  30.887  26.127  11.995
85220W        W51761  15.055  42.605   3.567
85221W        W51762  20.867  25.883   2.781
85222W        W51763  37.168   3.964  13.859
85223W        W51764  25.547  34.614   4.249
85224W        W51765  32.460  31.002  14.060
85225W        W51766  25.138   0.973  10.982
85226W        W51767  10.780  18.726   0.867
85227W        W51768   8.838   5.658  13.245
85228W        W51769  39.914  17.881   2.324
85229W        W51770  17.764  18.675  12.516
85230W        W51771  20.515  21.189  13.100
85231W        W51772  38.619  40.590   2.872
85232W        W51773  14.770   5.452   3.681
85233W        W51774  42.336  23.173  14.353
85234W        W51775   4.151  26.229  12.661
85235W        W51776   8.276  36.446  10.107
85236W        W51777  44.849  29.100  12.053
85237W        W51778   4.823  39.771   0.449
85238W        W51779  13.534  37.771   0.063
85239W        W51780   5.950  43.488   3.734
85240W        W51781   6.851  43.367   1.727
85241W        W51782  43.027   7.200  14.113
85242W        W51783  16.252   8.250   4.451
85243W        W51784   5.054  34.054   2.708
85244W        W51785  23.001  41.287  14.373
85245W        W51786  36.644  11.730  10.315
85246W        W51787  35.463  22.644  14.541
85247W        W51788   7.946   4.906   0.663
85248W        W51789  18.229  40.498  12.379
85249W        W51790  33.697   3.936   4.735
85250W        W51791  20.459  44.985  13.785
85251W        W51792  37.805  24.523   1.326
85252W        W51793  26.246  25.191   2.422
85253W        W51794  31.414   8.230   1.894
85254W        W51795   5.762  21.413  14.354
85255W        W51796  40.500   2.777  12.488
85256W        W51797   5.665   9.074   0.662
85257W        W51798  43.897  41.870  10.411
85258W        W51799  40.484  20.100   4.060
85259W        W51800  20.611  43.395   1.210
85260W        W51801  31.184  39.291   2.291
85261W        W51802  26.092   7.238   1.328
85262W        W51803   6.452  29.601  12.924
85263W        W51804  35.915   3.616   4.998
85264W        W51805  31.547  34.364  12.443
85265W        W51806  32.038   2.441   1.419
85266W        W51807   6.152   1.000  12.113
85267W        W51808  27.418  39.894   0.322
85268W        W51809  43.078  40.675   4.069
85269W        W51810  40.462  32.606  10.981
85270W        W51811   7.395  35.993  10.061
85271W        W51812   2.963   4.229  13.357
85272W        W51813  18.701  28.753  11.996
85273W        W51814  29.467  44.396  14.396
85274W        W51815  11.392  36.927   4.935
85275W        W51816   6.781   4.695   3.934
85276W        W51817  23.173  41.905  14.021
85277W        W51818  36.133  11.108  12.880
85278W        W51819  25.737  22.000   0.869
85279W        W51820   5.765  23.459   1.650
85280W        W51821  18.749  14.335  13.810
85281W        W51822  36.863  23.748  12.931
85282W        W51823  13.087   3.446  13.363
85283W        W51824   9.259   8.238   1.194
85284W        W51825  35.944  31.368  14.750
85285W        W51826  19.618  27.888  14.438
85286W        W51827  42.677  24.294   0.820
85287W        W51828  43.473  31.508   4.295
85288W        W51829   4.500  23.524   4.920
85289W        W51830   1.800  10.256   4.062
85290W        W51831   6.425  42.460   1.399
85291W        W51832  34.915  21.776   1.430
85292W        W51833  27.002  16.318  11.461
85293W        W51834   5.376  31.995  12.626
85294W        W51835  10.185  20.623  13.906
85295W        W51836  20.121  41.026  10.683
85296W        W51837  39.577  25.578   4.442
85297W        W51838   0.712  10.699  10.917
85298W        W51839  10.140  11.350   3.028
85299W        W51840  24.526  21.785   2.224
85300W        W51841   7.302  38.801  13.392
85301W        W51842  29.865   8.513  12.425
85302W        W51843  29.525   4.527  10.624
85303W        W51844  23.639  44.456  14.520
85304W        W51845  17.310  17.821   1.594
85305W        W51846  13.692   1.346   3.246
85306W        W51847  20.051  38.839   0.378
85307W        W51848  27.826  27.985   2.920
85308W        W51849   7.417  30.460   0.022
85309W        W51850   8.629   8.201  13.643
85310W        W51851  41.050  14.195  14.927
85311W        W51852  38.128  15.073   3.332
85312W        W51853  26.153   4.143   1.222
85313W        W51854   4.206  29.513   1.912
85314W        W51855  37.424  18.049   3.198
85315W        W51856   9.677  32.986  13.002
85316W        W51857  15.896  12.147   0.390
85317W        W51858  39.838   0.721   0.062
85318W        W51859  23.249  34.853  10.693
85319W        W51860  26.976  27.729  12.507
85320W        W51861   5.680   8.347   0.525
85321W        W51862   4.376  38.730  10.822
85322W        W51863  38.797  16.887   2.388
85323W        W51864   9.693  40.978  13.009
85324W        W51865  38.546  30.929   0.669
85325W        W51866  39.187  24.655   2.769
85326W        W51867   2.170  18.999  14.124
85327W        W51868  43.271  38.443  10.808
85328W        W51869  28.630   9.349   2.406
85329W        W51870   5.259  19.034  14.072
85330W        W51871  10.649  35.892  10.735
85331W        W51872   2.457  11.413  13.435
85332W        W51873   8.216  27.440  13.111
85333W        W51874  13.325  18.846  14.818
85334W        W51875  37.426  41.570   0.452
85335W        W51876  43.646   8.187   2.252
85336W        W51877  18.107  15.580   3.127
85337W        W51878  35.163  10.705   4.558
85338W        W51879  36.312  13.325   2.002
85339W        W51880  11.309  12.070  13.551
85340W        W51881  13.085   8.224  10.698
85341W        W51882  36.084   2.771   1.136
85342W        W51883   6.727  25.433   0.441
85343W        W51884  39.563  44.743  13.276
85344W        W51885  17.793  33.055   4.367
85345W        W51886  31.559  17.703   1.309
85346W        W51887  22.138   5.922   1.633
85347W        W51888  13.537  37.864  11.500
85348W        W51889  27.840  23.693  10.720
85349W        W51890  31.815   4.763   0.292
85350W        W51891  41.813  30.570  10.758
85351W        W51892  14.805  28.537  12.962
85352W        W51893  29.642  41.918  10.670
85353W        W51894  43.857   8.946   3.325
85354W        W51895   8.697  12.244  12.524
85355W        W51896   8.028  42.463  10.668
85356W        W51897   8.717   0.740  13.040
85357W        W51898  26.597  36.927   0.425
85358W        W51899  40.000  31.340   4.607
85359W        W51900  28.017  31.621   2.372
85360W        W51901  34.950   3.780  12.282
85361W        W51902  18.333  17.086  11.904
85362W        W51903  28.708   7.693  12.046
85363W        W51904  39.017   0.947  13.982
85364W        W51905  25.738  32.422  12.316
85365W        W51906  42.734  34.958   2.752
85366W        W51907   3.279   5.207  13.367
85367W        W51908  21.448  39.023   2.709
85368W        W51909   0.366  41.841  11.083
85369W        W51910  33.981  41.266  14.376
85370W        W51911  19.703  35.697   0.478
85371W        W51912  20.087  19.622  13.999
85372W        W51913  23.011  19.702   2.739
85373W        W51914  37.404  17.338   4.642
85374W        W51915  23.668  37.634   4.231
85375W        W51916   7.293  28.003  10.479
85376W        W51917  16.768  32.614  12.394
85377W        W51918  15.182  22.105   3.828
85378W        W51919  26.934  34.697  12.968
85379W        W51920  30.729  31.618  12.735
85380W        W51921  12.659  21.756  14.397
85381W        W51922  23.601  18.641   1.173
85382W        W51923  30.003  33.382  12.043
85383W        W51924  18.635  15.735   2.329
85384W        W51925   5.930  37.571  13.245
85385W        W51926  36.555  43.357  14.289
85386W        W51927  42.421  42.925  10.694
85387W        W51928  20.063   1.116  14.541
85388W        W51929   6.321  44.174   1.504
85389W        W51930   3.447  30.032   3.511
85390W        W51931   8.610   5.920   1.349
85391W        W51932  26.044  24.439   2.719
85392W        W51933  30.360  36.660  10.820
85393W        W51934  31.614  42.867  13.379
85394W        W51935  21.449  24.427   3.640
85395W        W51936  22.719  26.707  14.366
85396W        W51937  28.715  28.949  12.084
85397W        W51938  37.355   8.927  11.599
85398W        W51939  25.940  44.510  13.871
85399W        W51940   9.746   8.131  11.410
85400W        W51941   1.058   3.131  13.107
85401W        W51942  40.285   4.175   4.161
85402W        W51943   0.384  25.131  10.626
85403W        W51944  16.519   2.758  13.046
85404W        W51945  29.057  38.877  12.791
85405W        W51946   7.686  34.642   1.897
85406W        W51947  31.023  13.300  11.172
85407W        W51948   6.787  37.841  13.260
85408W        W51949  15.848  30.125  14.473
85409W        W51950  21.171  32.935   1.996
85410W        W51951   7.761  20.236  10.684
85411W        W51952  17.023   7.743  12.125
85412W        W51953  22.573  32.962   1.688
85413W        W51954  20.758  25.262  11.917
85414W        W51955  22.738  32.273   4.262
85415W        W51956  22.259  16.383   4.191
85416W        W51957   1.871  11.938  12.993
85417W        W51958  25.155  44.331  11.435
85418W        W51959  24.171  15.556  13.394
85419W        W51960  38.827   2.285   1.305
85420W        W51961  31.605  13.539   0.739
85421W        W51962  44.389   5.844   3.692
85422W        W51963  27.400  10.686   4.865
85423W        W51964  25.660  31.314   3.649
85424W        W51965   5.239  43.976  13.488
85425W        W51966  35.855  21.121  10.756
85426W        W51967  40.624  22.699  11.928
85427W        W51968  14.772  43.077   1.506
85428W        W51969  13.306   5.011   3.890
85429W        W51970  17.782  15.733  14.748
85430W        W51971   3.261  40.792  14.358
85431W        W51972  16.725  40.030  11.134
85432W        W51973   3.743   1.865  14.848
85433W        W51974   8.761  21.732  10.736
85434W        W51975  20.867  21.066   0.807
85435W        W51976  15.744   3.421   4.352
85436W        W51977  10.909  19.548  13.292
85437W        W51978  41.511  37.977   2.891
85438W        W51979  44.794  31.402   2.417
85439W        W51980  27.024  43.286   0.871
85440W        W51981  28.310  25.747   4.160
85441W        W51982  44.753   6.740  10.671
85442W        W51983   7.246  26.397  13.434
85443W        W51984  44.815  35.677   2.833
85444W        W51985  33.545  38.986  13.502
85445W        W51986   5.364   4.411   3.782
85446W        W51987   2.348  32.117   1.233
85447W        W51988  43.599  11.809  11.995
85448W        W51989  40.046  12.326  13.507
85449W        W51990  18.606  14.756  14.758
85450W        W51991  37.453  11.924  13.268
85451W        W51992  43.821   9.416  12.160
85452W        W51993  11.763   3.315   2.281
85453W        W51994  35.427  34.966   2.708
85454W        W51995  16.528   1.574  12.051
85455W        W51996  19.261  33.561  14.438
85456W        W51997  30.297  20.005  11.590
85457W        W51998  12.721  43.498   2.956
85458W        W51999  32.533  35.658   3.001
85459W        W52000  14.755  13.234   0.210
85460W        W52001  32.348  32.498  11.154
85461W        W52002  24.530  40.683   3.765
85462W        W52003   1.527  14.875   4.681
85463W        W52004   1.448  40.381   1.768
85464W        W52005  35.351   0.475  14.386
85465W        W52006  18.015   0.383   2.891
85466W        W52007  34.625  40.231   4.495
85467W        W52008  12.350   3.960  13.038
85468W        W52009  28.070   0.499  10.577
85469W        W52010   0.485  34.924  14.164
85470W        W52011  11.202  36.850  14.483
85471W        W52012  42.288  31.834   4.906
85472W        W52013   8.672  32.270  10.761
85473W        W52014  43.491  20.734   1.928
85474W        W52015  14.556  13.770  13.325
85475W        W52016  12.318  23.473  12.039
85476W        W52017   1.363  11.891  10.668
85477W        W52018   1.402  12.705   4.025
85478W        W52019  28.058   8.017  11.941
85479W        W52020  43.965   6.877   2.081
85480W        W52021  10.457  33.848  11.623
85481W        W52022  30.251  27.021   3.310
85482W        W52023  13.506  43.226   3.905
85483W        W52024   7.719  13.792   2.646
85484W        W52025   2.994   9.356  11.732
85485W        W52026  42.939  21.833  11.488
85486W        W52027  31.123  43.804   2.738
85487W        W52028  15.740  43.737   4.105
85488W        W52029  27.943  20.839  10.227
85489W        W52030  34.975  41.752   2.180
85490W        W52031  29.355   0.559  10.315
85491W        W52032   2.430   7.893   0.320
85492W        W52033  25.191  44.489   2.159
85493W        W52034  42.762  41.032   4.252
85494W        W52035   1.880  39.548   0.984
85495W        W52036  24.293   7.142  11.419
85496W        W52037   0.011  26.028   1.397
85497W        W52038  35.844  36.868  13.935
85498W        W52039  16.861  10.123   4.791
85499W        W52040  38.483   7.621   1.481
85500W        W52041   9.295  27.443  10.937
85501W        W52042  31.144   4.005   4.247
85502W        W52043  10.892  21.471  13.786
85503W        W52044  40.108  29.503   3.379
85504W        W52045  30.838  43.830  11.825
85505W        W52046   7.271   5.868   4.182
85506W        W52047   2.910  33.489  12.928
85507W        W52048  13.603  20.659   2.140
85508W        W52049  41.505   2.542  14.795
85509W        W52050  23.663  39.018   4.764
85510W        W52051  38.609  20.467   0.587
85511W        W52052   9.691  16.081   4.171
85512W        W52053  18.276  22.199   4.614
85513W        W52054   8.982  23.905   3.208
85514W        W52055  36.733   1.967   4.444
85515W        W52056  25.358  26.751  10.253
85516W        W52057  31.108  27.722   3.313
85517W        W52058  31.833  28.995   5.074
85518W        W52059  20.435   3.347   3.637
85519W        W52060  38.896  44.483   4.749
85520W        W52061  40.752  21.490  12.444
85521W        W52062  34.384  19.042  12.492
85522W        W52063  40.896  18.067  12.194
85523W        W52064  32.164  20.661   0.935
85524W        W52065  31.065  23.717   3.121
85525W        W52066  33.183  42.915  10.587
85526W        W52067  42.185  28.945  11.807
85527W        W52068   5.572   4.957  12.943
85528W        W52069   8.902  22.497  11.161
85529W        W52070  43.458  37.381  12.745
85530W        W52071   1.622  15.358   4.938
85531W        W52072  30.613  22.101   1.795
85532W        W52073  24.077  22.054  14.496
85533W        W52074  41.883  13.146   4.732
85534W        W52075  36.166  24.212   2.225
85535W        W52076  44.186  26.696   4.522
85536W        W52077  20.450  28.219   3.694
85537W        W52078  24.947  37.708  13.890
85538W        W52079   6.284   0.267  14.599
85539W        W52080  13.589  42.212   0.805
85540W        W52081  26.179   6.984   2.798
85541W        W52082   4.643  43.551  11.448
85542W        W52083  20.405  42.376  14.371
85543W        W52084  16.618  32.164  12.176
85544W        W52085  39.996  20.310  14.509
85545W        W52086  21.822  23.552  10.607
85546W        W52087  33.813   7.074   0.799
85547W        W52088  12.686  43.689   3.682
85548W        W52089  42.577  11.880   1.343
85549W        W52090   1.462  19.780  14.436
85550W        W52091   2.756   9.340  13.460
85551W        W52092  17.214  16.461  12.528
85552W        W52093  26.927  14.640  14.405
85553W        W52094  40.419   2.953   4.469
85554W        W52095   8.148   9.274  13.520
85555W        W52096  41.998   7.125  10.661
85556W        W52097  22.674  41.305  12.576
85557W        W52098  16.263  11.250  13.175
85558W        W52099  42.085  38.589  12.166
85559W        W52100  16.868   9.302  12.099
85560W        W52101  13.662  27.442   1.477
85561W        W52102   9.039  21.997  11.113
85562W        W52103  30.138  23.831  12.236
85563W        W52104  38.452  22.463   1.855
85564W        W52105  22.620  33.100  10.152
85565W        W52106  18.123  39.839   2.870
85566W        W52107  31.372  38.367   4.372
85567W        W52108   7.879  11.885  11.251
85568W        W52109  24.476  13.687   4.906
85569W        W52110  26.628  16.629  13.963
85570W        W52111   3.428  22.724   0.860
85571W        W52112   2.871  33.548   1.926
85572W        W52113  44.844   4.455   1.726
85573W        W52114  23.052  32.994  14.452
85574W        W52115  14.090   9.979   0.993
85575W        W52116   1.433  38.395  12.492
85576W        W52117  13.559  31.449  14.317
85577W        W52118  34.391   8.272  14.608
85578W        W52119  31.521   6.166   0.150
85579W        W52120  18.381  39.500   0.309
85580W        W52121  34.914  34.030  11.599
85581W        W52122   0.339  42.516  13.007
85582W        W52123  32.580   6.490  11.088
85583W        W52124  34.602  32.672   0.968
85584W        W52125  31.464  11.206  13.545
85585W        W52126   9.098  27.165  11.322
85586W        W52127  23.027  38.250  12.530
85587W        W52128  23.380  26.943  11.912
85588W        W52129  37.193  35.314   3.700
85589W        W52130  16.137   0.940   1.966
85590W        W52131   0.411  13.853   1.961
85591W        W52132  11.335  32.030   0.796
85592W        W52133  23.627  43.985   0.412
85593W        W52134  26.990  38.581  11.965
85594W        W52135  24.019  21.050  14.003
85595W        W52136  44.390   6.770   0.672
85596W        W52137  33.604  27.150   4.024
85597W        W52138  44.900   5.465   1.489
85598W        W52139  34.172  13.131   0.312
85599W        W52140  20.202  44.422   4.834
85600W        W52141   9.997  34.352  14.075
85601W        W52142   0.426  40.141   1.706
85602W        W52143  27.512   7.596  12.691
85603W        W52144  29.328  40.403  14.399
85604W        W52145  13.930  27.788   1.747
85605W        W52146  22.437   1.990   0.990
85606W        W52147  41.827  27.062  13.143
85607W        W52148  33.988  15.620   3.627
85608W        W52149   0.184  27.167   2.371
85609W        W52150  40.492  16.181   2.946
85610W        W52151  17.329  17.889   1.081
85611W        W52152  30.527  28.911  14.359
85612W        W52153  35.032  31.421   2.316
85613W        W52154  30.032  20.468  14.962
85614W        W52155  41.109  28.088   1.855
85615W        W52156  10.530   6.224   1.066
85616W        W52157  42.483   2.965  11.114
85617W        W52158  15.179  16.661  13.720
85618W        W52159  23.684   1.340  12.825
85619W        W52160  37.036  37.984  11.193
85620W        W52161  44.868  42.585   3.833
85621W        W52162   3.561  23.942  10.245
85622W        W52163   3.738  43.726  14.401
85623W        W52164  37.779   2.971  11.121
85624W        W52165  44.486  36.412  13.818
85625W        W52166  34.664   7.523   0.886
85626W        W52167  25.996  21.249  11.488
85627W        W52168  13.593  21.966  14.044
85628W        W52169  11.439  14.162   0.104
85629W        W52170  44.719  27.481  13.967
85630W        W52171  39.962  31.831  12.751
85631W        W52172   1.468  19.694   1.959
85632W        W52173   4.886  28.810   1.154
85633W        W52174   6.221  36.967  11.897
85634W        W52175   6.833  15.226  14.976
85635W        W52176  36.404  42.515   2.310
85636W        W52177  17.687  17.324   0.400
85637W        W52178   2.287  23.177   3.596
85638W        W52179  34.050  43.425  10.743
85639W        W52180  34.862   0.503  13.027
85640W        W52181  22.180  15.850   2.375
85641W        W52182  38.580  33.464  14.474
85642W        W52183  15.572  43.265  10.633
85643W        W52184  10.151   1.036   2.248
85644W        W52185  31.634   6.442   1.064
85645W        W52186  43.721  26.422   0.374
85646W        W52187   7.178  28.522   3.512
85647W        W52188  14.571  28.892  13.886
85648W        W52189   4.227   0.254  10.745
85649W        W52190  25.632   2.808  14.734
85650W        W52191  19.044  20.507   0.728
85651W        W52192  34.231  40.937  12.939
85652W        W52193  15.057  34.852   5.084
85653W        W52194  11.277   7.698   4.550
85654W        W52195  34.783  15.190   0.481
85655W        W52196  25.576   9.691  12.138
85656W        W52197  42.427  30.991  14.885
85657W        W52198  40.859   7.243   4.993
85658W        W52199  26.225  44.308   4.621
85659W        W52200   6.264   6.231   2.342
85660W        W52201  28.160   3.543  13.410
85661W        W52202   7.652  16.205   0.694
85662W        W52203  36.583   0.789   4.577
85663W        W52204   9.198  28.167   1.316
85664W        W52205   3.936   0.793   9.751
85665W        W52206  41.858  11.862   1.735
85666W        W52207  35.329  31.322   2.822
85667W        W52208  44.476  16.755  13.866
85668W        W52209  42.752   2.744  14.340
85669W        W52210  19.224   8.657  11.881
85670W        W52211   1.954  29.681  10.325
85671W        W52212   5.825  22.814  14.769
85672W        W52213  11.033  28.247   1.857
85673W        W52214  35.098   0.465  13.925
85674W        W52215  16.908  23.711  14.997
85675W        W52216   8.856  17.150  11.247
85676W        W52217  27.464   1.658   2.693
85677W        W52218  13.216  33.922  12.459
85678W        W52219  37.813   3.288   3.107
85679W        W52220  35.023   9.468   3.682
85680W        W52221   3.418   2.437   1.728
85681W        W52222  31.765   7.282   1.971
85682W        W52223  12.601  33.474   2.682
85683W        W52224  28.645  29.742   4.633
85684W        W52225   5.820  43.609   0.780
85685W        W52226  11.812   6.696  11.574
85686W        W52227  38.892  44.400  12.608
85687W        W52228  17.346  44.233  14.411
85688W        W52229  11.618  44.594  12.182
85689W        W52230  27.017  22.665   0.986
85690W        W52231  33.902  36.289  13.475
85691W        W52232  13.694  35.290  14.356
85692W        W52233   1.839   9.732   2.623
85693W        W52234  32.593  41.599   4.425
85694W        W52235  24.990  29.149  10.682
85695W        W52236  29.523  22.625   2.383
85696W        W52237   2.646  26.142  10.645
85697W        W52238  17.538   2.841  12.989
85698W        W52239  34.352   2.296  11.196
85699W        W52240  19.321  38.495   3.265
85700W        W52241  11.120   7.784   0.241
85701W        W52242   6.649  15.697   2.743
85702W        W52243  27.169  11.443  11.034
85703W        W52244   8.122   0.793   3.745
85704W        W52245  29.679  41.364   5.006
85705W        W52246  25.948  13.630  13.323
85706W        W52247  26.131  17.385  11.696
85707W        W52248  44.449  13.364  14.465
85708W        W52249  44.966   8.428  11.499
85709W        W52250  34.093  36.933  12.835
85710W        W52251  36.127  43.233   3.932
85711W        W52252  42.198   8.112   1.978
85712W        W52253   6.650  38.057  14.265
85713W        W52254  19.601  16.222  13.945
85714W        W52255  14.234  25.930   0.500
85715W        W52256  21.062  37.632   0.795
85716W        W52257  15.035  34.123  11.255
85717W        W52258  10.835   0.822   4.128
85718W        W52259   5.867  22.367  12.051
85719W        W52260  19.043   3.899  11.998
85720W        W52261   0.317  14.328  11.969
85721W        W52262   6.367  18.366  13.289
85722W        W52263   1.323  33.819  14.300
85723W        W52264  36.334  36.868  12.470
85724W        W52265  25.669  29.847   4.848
85725W        W52266   7.362  39.905   1.788
85726W        W52267  16.224  22.614  10.945
85727W        W52268   0.492   4.861  13.520
85728W        W52269  23.564  13.762  12.952
85729W        W52270  34.427  37.063   2.289
85730W        W52271   0.411  25.724   2.241
85731W        W52272  30.635  20.660  10.746
85732W        W52273   8.336   3.701  12.701
85733W        W52274  20.097  33.398   0.956
85734W        W52275   0.290  15.375  13.540
85735W        W52276  35.156  25.151   1.824
85736W        W52277  23.061  37.157   2.421
85737W        W52278   1.427  38.788  14.486
85738W        W52279  32.104  15.583  13.563
85739W        W52280  20.801  12.715   0.022
85740W        W52281  28.391  30.075  11.513
85741W        W52282  14.035  40.753  11.606
85742W        W52283  44.467  19.969  11.885
85743W        W52284  34.644  42.061   1.919
85744W        W52285  43.416  44.021  11.447
85745W        W52286  43.422  17.323  12.988
85746W        W52287   2.354  28.717  11.675
85747W        W52288   4.929  42.756  14.087
85748W        W52289  41.958   8.303  13.851
85749W        W52290  28.670  31.321  13.630
85750W        W52291  11.693  38.079   1.492
85751W        W52292  41.370  17.204   4.253
85752W        W52293   0.320  34.817   4.586
85753W        W52294  42.299  14.262  14.288
85754W        W52295  40.800  20.227   3.667
85755W        W52296  17.538  20.164  12.477
85756W        W52297  12.739   2.419   4.230
85757W        W52298  40.515  35.714   1.282
85758W        W52299  23.559  28.051  11.660
85759W        W52300   8.824   0.724   4.233
85760W        W52301  19.200  43.456   4.585
85761W        W52302  27.819  32.988   0.000
85762W        W52303  22.537   3.884  11.177
85763W        W52304  20.809  41.488   2.806
85764W        W52305  23.607  35.907  13.331
85765W        W52306  33.692   1.404   0.330
85766W        W52307   9.444  43.558  12.612
85767W        W52308  28.030  20.852  14.318
85768W        W52309  44.349  26.570   2.850
85769W        W52310  37.168  42.893   0.622
85770W        W52311  15.096   0.869   4.347
85771W        W52312  21.228  40.071   3.179
85772W        W52313  41.305  17.053  12.940
85773W        W52314  34.731  24.870  10.341
85774W        W52315   9.776   2.271  13.381
85775W        W52316  21.942   1.187   1.871
85776W        W52317  18.463  35.018  12.110
85777W        W52318  16.543  14.534   4.600
85778W        W52319   8.502   9.221  14.464
85779W        W52320  15.877  34.320  11.565
85780W        W52321  34.567  17.517  10.731
85781W        W52322  19.623  26.745  10.242
85782W        W52323  33.077   8.197  10.988
85783W        W52324  35.170  40.454  12.479
85784W        W52325  26.641  14.253  13.278
85785W        W52326  14.255  13.835   3.528
85786W        W52327   5.835  32.106  11.139
85787W        W52328   7.925  10.641  13.639
85788W        W52329  16.517  42.939   4.215
85789W        W52330  41.460  29.003   1.591
85790W        W52331   4.852   1.787  12.106
85791W        W52332   0.578   5.874   2.226
85792W        W52333   7.445  25.114   0.127
85793W        W52334  43.315  10.271  14.641
85794W        W52335  41.825  10.750  13.823
85795W        W52336  15.746  27.818  12.529
85796W        W52337  19.187  10.899   4.872
85797W        W52338  41.045  18.246  13.650
85798W        W52339  13.554  13.758   3.440
85799W        W52340   2.904  34.421  13.887
85800W        W52341   1.767  23.448  13.041
85801W        W52342  44.192   3.734  12.605
85802W        W52343  35.338  44.566  10.354
85803W        W52344  40.102  16.264   4.490
85804W        W52345  31.478   9.312  11.637
85805W        W52346   8.450  22.489  12.935
85806W        W52347  40.430  20.812   3.200
85807W        W52348  32.614  37.832   4.219
85808W        W52349  21.721  10.254  13.632
85809W        W52350   4.491  44.456  12.033
85810W        W52351  12.046  43.420   1.785
85811W        W52352  20.427  10.836   0.962
85812W        W52353  15.938  27.041  12.582
85813W        W52354  28.544   0.021  11.973
85814W        W52355   5.121  42.252  11.372
85815W        W52356  22.651  15.719  14.827
85816W        W52357  37.804   6.545   0.885
85817W        W52358   2.259  26.479  14.506
85818W        W52359  26.586  23.848  12.978
85819W        W52360  38.275  28.448  13.608
85820W        W52361  41.458   0.237   4.964
85821W        W52362   7.488  22.556   4.157
85822W        W52363  19.820  41.691   3.588
85823W        W52364  18.091   8.402  11.295
85824W        W52365   4.900  30.971   1.828
85825W        W52366   7.054  18.291   1.467
85826W        W52367   9.762  21.820   4.072
85827W        W52368  36.465  33.089  14.014
85828W        W52369  10.901  41.884   0.357
85829W        W52370  38.550  14.849   3.684
85830W        W52371  18.068  40.902   2.199
85831W        W52372  37.525  14.783   4.767
85832W        W52373  24.653  16.710  13.981
85833W        W52374  35.488  37.863   3.062
85834W        W52375  25.719  10.444   4.641
85835W        W52376  21.682   4.438   3.184
85836W        W52377  41.304  32.355   3.680
85837W        W52378  19.948   3.422   2.830
85838W        W52379   8.696  36.718  14.376
85839W        W52380  22.570  36.625  10.514
85840W        W52381  40.683  39.530   2.906
85841W        W52382  10.805  42.403  12.413
85842W        W52383  34.380  19.616   3.630
85843W        W52384  26.267  10.440   0.004
85844W        W52385  28.336  21.057   2.772
85845W        W52386  18.999   4.778   3.192
85846W        W52387  28.355  44.235  14.850
85847W        W52388   8.741  42.382  12.358
85848W        W52389   8.613  15.502  11.965
85849W        W52390  16.719  13.380   3.697
85850W        W52391  23.061  39.857   0.934
85851W        W52392  44.972  36.173   2.785
85852W        W52393   6.269  28.215  11.952
85853W        W52394   7.494  16.358   0.233
85854W        W52395   9.794  26.998  13.372
85855W        W52396   1.780  10.403  12.920
85856W        W52397  26.130  22.956   0.364
85857W        W52398  18.997  30.600  14.805
85858W        W52399  38.662  12.025  11.059
85859W        W52400  34.642  42.749  12.465
85860W        W52401  21.632  42.338  14.050
85861W        W52402  12.092  33.069   1.408
85862W        W52403  26.639  25.038   2.118
85863W        W52404  13.210  43.893   5.057
85864W        W52405  32.236  38.836  11.297
85865W        W52406  23.422  34.557  12.970
85866W        W52407  29.465  17.598   0.472
85867W        W52408   7.682   0.684   4.520
85868W        W52409  39.064  19.258   1.370
85869W        W52410  44.839   8.820   0.507
85870W        W52411   7.685  41.792   0.547
85871W        W52412   2.199   2.860  14.383
85872W        W52413  10.676   2.846   2.402
85873W        W52414  28.429  27.588   3.742
85874W        W52415  25.088  25.775   1.794
85875W        W52416  25.200  31.395   3.404
85876W        W52417  13.658  17.209  12.134
85877W        W52418  15.274  24.601  13.368
85878W        W52419  36.135  10.394   3.190
85879W        W52420  39.070  14.607  12.789
85880W        W52421  40.544   7.390   5.378
85881W        W52422  42.528   9.644   2.615
85882W        W52423  36.404   6.442   1.429
85883W        W52424  36.778  15.514   5.463
85884W        W52425  19.801  44.287   0.920
85885W        W52426  12.584   7.280   2.658
85886W        W52427   3.747  38.360   2.345
85887W        W52428   1.895  15.824   4.937
85888W        W52429   4.165  24.044   3.730
85889W        W52430  39.522  35.509   4.135
85890W        W52431   7.677  38.866  14.441
85891W        W52432  29.431  28.012   3.835
85892W        W52433  37.036  10.317  13.357
85893W        W52434  24.067  33.891   4.947
85894W        W52435  41.694  23.692   0.360
85895W        W52436   5.892   0.314   1.306
85896W        W52437   2.818   8.960  13.100
85897W        W52438  40.379  10.644  10.608
85898W        W52439  22.056   9.845  14.758
85899W        W52440  21.267  30.938  12.294
85900W        W52441   0.016  14.669   3.288
85901W        W52442  27.340  41.536   4.510
85902W        W52443  41.536  17.205   0.316
85903W        W52444  44.957  19.043   2.305
85904W        W52445  17.356  26.553  11.918
85905W        W52446  13.908  11.229   3.896
85906W        W52447  41.220  43.903   3.890
85907W        W52448  36.771  27.723   4.154
85908W        W52449  43.846   2.056   0.038
85909W        W52450  38.469  19.521  10.406
85910W        W52451  10.428  24.709  11.114
85911W        W52452  40.442  14.350  11.689
85912W        W52453   0.395  26.997  12.497
85913W        W52454   3.361  18.586  11.264
85914W        W52455  18.581  11.804   1.250
85915W        W52456  42.037  20.537   1.591
85916W        W52457  12.721   1.917  12.456
85917W        W52458  27.429  42.221   0.404
85918W        W52459  20.460  13.209   0.268
85919W        W52460   7.182  35.408   0.712
85920W        W52461  36.721  44.568  10.274
85921W        W52462  13.092   6.142   2.581
85922W        W52463  38.315  10.338  13.743
85923W        W52464  42.944  40.949  12.928
85924W        W52465  32.315  21.682   3.236
85925W        W52466  13.626  22.188   2.671
85926W        W52467  15.082  14.724   4.131
85927W        W52468  26.087   3.456   0.250
85928W        W52469   7.321  43.795   2.621
85929W        W52470  15.871  11.214   3.716
85930W        W52471   5.407   1.392  11.747
85931W        W52472  19.855  37.459  12.451
85932W        W52473  37.022   7.276   2.366
85933W        W52474  28.158  20.286   1.175
85934W        W52475  24.988   2.338  11.090
85935W        W52476  23.960   6.920  13.540
85936W        W52477  25.838  13.655   0.371
85937W        W52478  36.894  36.679  11.626
85938W        W52479  36.512  17.548   1.791
85939W        W52480  19.351  26.879   4.187
85940W        W52481  28.935   7.599  11.443
85941W        W52482  43.242  13.743   4.188
85942W        W52483  44.845   8.912   1.904
85943W        W52484  18.576   6.804  12.829
85944W        W52485  43.256   4.889   4.160
85945W        W52486   5.703  10.343  12.824
85946W        W52487   6.974  10.329  10.442
85947W        W52488   7.515  31.001   1.817
85948W        W52489  33.104  19.339   1.661
85949W        W52490  34.440  30.622  13.486
85950W        W52491   4.644   0.466   2.726
85951W        W52492  44.940  37.107  14.885
85952W        W52493  27.876  14.077  11.644
85953W        W52494  33.412  18.253  11.538
85954W        W52495  33.185  37.971   2.122
85955W        W52496  10.559  25.491  10.784
85956W        W52497  31.936   9.414  13.068
85957W        W52498  40.771   0.517  10.709
85958W        W52499   5.338  29.190   0.249
85959W        W52500  22.896  40.584  14.779
85960W        W52501  30.010   3.516   0.038
85961W        W52502  41.147  42.977   2.249
85962W        W52503  14.838  32.918  12.491
85963W        W52504  25.139  11.057  12.186
85964W        W52505  13.264  37.856   3.240
85965W        W52506  41.266  42.917  13.043
85966W        W52507  20.481  33.834   3.667
85967W        W52508  20.546  23.567  11.196
85968W        W52509   3.051   4.287  11.030
85969W        W52510  42.104  24.696   2.203
85970W        W52511  12.825  36.353   0.417
85971W        W52512   4.204  39.279   1.282
85972W        W52513  10.207   9.744   4.559
85973W        W52514  19.329  17.581   0.403
85974W        W52515   8.499   3.359  12.065
85975W        W52516  38.605  40.814   1.590
85976W        W52517   4.502  10.628   4.616
85977W        W52518  13.284  33.536   0.243
85978W        W52519   6.896  38.768  14.827
85979W        W52520  26.822  13.863   1.835
85980W        W52521  24.286  39.655  12.382
85981W        W52522   1.703  10.800   2.422
85982W        W52523  36.062  41.783   0.384
85983W        W52524  15.400  22.288  14.417
85984W        W52525  19.641   2.896  13.495
85985W        W52526  35.922  14.809  14.589
85986W        W52527   3.509  34.399  11.096
85987W        W52528  26.632  35.428   3.293
85988W        W52529   7.816  35.401  10.475
85989W        W52530  32.184   1.500   0.399
85990W        W52531  31.586  37.608  11.523
85991W        W52532  37.356  25.034   0.484
85992W        W52533  28.729  32.595   2.784
85993W        W52534  24.547  19.773  10.756
85994W        W52535  10.776  12.856   3.300
85995W        W52536  14.275   0.969   1.682
85996W        W52537  15.560  19.275   2.768
85997W        W52538  27.970  11.123  12.926
85998W        W52539  40.322  43.828  13.422
85999W        W52540  11.850  30.128   2.268
86000W        W52541  17.355   9.683   3.471
86001W        W52542  43.532  18.294  14.284
86002W        W52543   4.048  31.753  14.866
86003W        W52544  28.184  24.944   1.268
86004W        W52545  24.546  41.994  10.548
86005W        W52546  31.915   4.697  10.263
86006W        W52547  35.840  39.362  12.259
86007W        W52548  40.076  12.389  10.706
86008W        W52549  14.547   7.762   3.445
86009W        W52550  17.783  37.835   0.010
86010W        W52551  29.905  38.764   2.870
86011W        W52552   7.065  44.799  13.254
86012W        W52553  25.108  15.183   1.712
86013W        W52554  13.628  40.602  11.177
86014W        W52555  24.779  24.581   3.203
86015W        W52556  22.139   3.805  13.817
86016W        W52557   7.959  30.719  14.339
86017W        W52558   3.213  41.361   1.703
86018W        W52559   7.886  44.499  11.286
86019W        W52560  26.760  13.941  10.825
86020W        W52561   0.662  14.907   2.731
86021W        W52562  11.835  27.035  12.899
86022W        W52563  39.986  27.032  12.553
86023W        W52564  34.293   5.829  11.717
86024W        W52565   0.808  20.324  13.098
86025W        W52566  41.460  40.726  12.395
86026W        W52567   0.817  21.862  13.166
86027W        W52568  16.222  15.404  11.639
86028W        W52569   5.302  28.739   0.475
86029W        W52570  16.751   5.193   3.713
86030W        W52571  44.333  20.186  12.854
86031W        W52572  32.115   2.850  14.409
86032W        W52573  10.191  13.976   1.788
86033W        W52574   9.193   6.524   3.475
86034W        W52575  16.543   2.867   4.162
86035W        W52576  32.686  39.328   2.261
86036W        W52577  21.133  25.679  12.397
86037W        W52578  36.696  16.766  10.737
86038W        W52579  26.015  32.634  11.962
86039W        W52580  35.468  19.048  14.305
86040W        W52581  39.133  29.030  12.643
86041W        W52582  39.258  29.150  10.376
86042W        W52583   9.154  20.090  12.556
86043W        W52584   5.341  41.550  14.293
86044W        W52585  16.741  41.572  14.563
86045W        W52586  14.965  37.407  11.135
86046W        W52587  23.657  33.131   3.818
86047W        W52588  30.049  43.932  14.884
86048W        W52589  26.607  24.720  11.123
86049W        W52590  40.024  14.206  14.937
86050W        W52591  38.586   5.480  12.970
86051W        W52592   1.705  23.268  14.085
86052W        W52593   6.715   3.390  13.547
86053W        W52594  13.025  28.621   2.246
86054W        W52595  14.619  33.641  13.004
86055W        W52596  23.142  35.581   1.369
86056W        W52597  28.693  27.401   1.780
86057W        W52598  39.588  38.453  11.912
86058W        W52599   1.422  35.589  11.137
86059W        W52600  29.022   9.063   3.205
86060W        W52601  44.404   7.136   2.415
86061W        W52602  17.879  37.000   4.064
86062W        W52603  19.099  28.500  14.923
86063W        W52604  35.627   6.178   4.094
86064W        W52605  21.714  31.355  14.343
86065W        W52606  16.912  38.720   0.752
86066W        W52607  30.517  32.436   2.653
86067W        W52608  10.101  35.562  14.415
86068W        W52609  42.432  22.883  11.203
86069W        W52610  11.112  19.083   4.143
86070W        W52611  28.195   9.384  11.008
86071W        W52612  16.094  14.298   4.651
86072W        W52613  18.684   2.452   2.415
86073W        W52614   2.994   0.730   4.577
86074W        W52615  24.135  11.705   1.737
86075W        W52616  25.431  44.817   4.678
86076W        W52617   3.050   8.507  13.049
86077W        W52618  26.149  23.481  12.032
86078W        W52619  34.041  27.595  12.605
86079W        W52620  44.346   1.869   4.488
86080W        W52621   9.340  25.934   2.179
86081W        W52622  13.459  17.678  11.987
86082W        W52623   9.044  24.919  14.422
86083W        W52624  19.898  28.600   0.371
86084W        W52625  41.511  39.727   3.259
86085W        W52626  20.682  21.483   4.417
86086W        W52627  25.333   1.953  13.959
86087W        W52628   7.227  19.916  12.629
86088W        W52629   6.760  30.071   2.850
86089W        W52630   3.859  17.592  13.492
86090W        W52631  34.502  16.167  13.676
86091W        W52632  18.991  34.369  14.782
86092W        W52633  26.602  33.331   0.981
86093W        W52634  28.095  33.395   3.360
86094W        W52635   8.620  33.382  14.944
86095W        W52636  21.830  18.104  13.670
86096W        W52637  27.294   5.771   0.490
86097W        W52638  14.153  44.209   2.200
86098W        W52639  22.916  19.208   2.868
86099W        W52640   2.230  28.114  12.598
86100W        W52641  42.486  42.044  10.631
86101W        W52642   8.422  18.672  12.913
86102W        W52643   6.797   0.035   4.069
86103W        W52644  32.984  19.473   3.395
86104W        W52645  22.401   7.647  14.257
86105W        W52646  36.989  44.384  12.104
86106W        W52647  15.599  35.857  14.853
86107W        W52648   5.107   1.145   2.333
86108W        W52649  44.208   6.033   1.256
86109W        W52650  37.401  44.000   0.295
86110W        W52651  37.706  32.770   4.778
86111W        W52652   7.490   7.147  11.263
86112W        W52653  27.051   8.863   1.891
86113W        W52654  42.876   8.265   4.731
86114W        W52655  12.940   5.381   3.741
86115W        W52656  23.578  23.622   1.386
86116W        W52657  15.103  16.816   4.191
86117W        W52658  25.944  23.621  12.472
86118W        W52659   5.913  33.010   1.676
86119W        W52660  25.098  16.336   3.324
86120W        W52661  17.832  20.801  14.083
86121W        W52662  41.021  23.526  11.190
86122W        W52663  25.157  44.993   2.399
86123W        W52664  18.704  27.057   2.207
86124W        W52665  42.388  24.928   0.319
86125W        W52666  43.283  27.755   4.137
86126W        W52667  29.554  25.490   4.617
86127W        W52668   5.605  41.642  14.724
86128W        W52669  17.572  27.124   0.842
86129W        W52670  41.992  42.381  14.252
86130W        W52671   1.727  15.290   1.451
86131W        W52672   4.485  10.386   3.218
86132W        W52673  15.043   3.896   4.723
86133W        W52674  40.353  37.604  10.387
86134W        W52675  31.679   7.841  13.647
86135W        W52676  19.540  15.060  14.417
86136W        W52677  14.871   3.637   4.147
86137W        W52678  28.436  17.529  11.346
86138W        W52679  25.560  37.382   3.566
86139W        W52680  44.949  37.619   1.757
86140W        W52681  22.222   0.418   4.719
86141W        W52682  37.474  18.362  10.762
86142W        W52683   0.627   4.825  14.003
86143W        W52684   2.831   5.461   3.790
86144W        W52685   4.818   0.935   4.445
86145W        W52686  27.117  18.232   3.376
86146W        W52687   3.925  12.829   3.433
86147W        W52688   4.462  39.253  11.668
86148W        W52689  36.238  19.880   2.878
86149W        W52690  19.010   0.512   0.797
86150W        W52691   6.770  13.167  13.782
86151W        W52692  33.942  36.421   1.451
86152W        W52693  23.021  33.830   3.635
86153W        W52694   4.682  43.947  10.977
86154W        W52695  21.669  10.233   0.994
86155W        W52696  18.273  31.581   2.418
86156W        W52697   3.667  27.418  14.815
86157W        W52698  44.474   4.654  12.707
86158W        W52699  25.308  36.764  11.725
86159W        W52700   7.303   1.940  12.749
86160W        W52701  32.065  36.330   1.327
86161W        W52702  31.474  14.718   0.067
86162W        W52703   7.796  42.994  10.039
86163W        W52704  20.549  24.752   3.626
86164W        W52705  18.835  32.336   0.008
86165W        W52706  37.009   1.436   0.521
86166W        W52707  18.015  17.085  14.073
86167W        W52708  36.968  14.619   4.938
86168W        W52709  31.628   5.819  14.786
86169W        W52710  11.271  22.914  13.133
86170W        W52711  39.010  43.230  13.982
86171W        W52712  39.186  11.556  14.253
86172W        W52713  34.004  11.213   1.418
86173W        W52714  40.056   0.813  12.979
86174W        W52715  33.621   9.054  11.050
86175W        W52716  18.317  43.784   1.253
86176W        W52717  19.203  13.168   1.025
86177W        W52718  35.595  44.983   3.798
86178W        W52719  39.636   4.188  11.981
86179W        W52720  41.309   9.903  13.989
86180W        W52721   2.427   0.501  14.397
86181W        W52722  33.440  29.196   2.090
86182W        W52723  39.097  26.619   3.578
86183W        W52724  42.061   2.766   0.415
86184W        W52725  34.989  20.151  12.744
86185W        W52726  11.527  40.783  14.233
86186W        W52727  44.873   6.086   2.246
86187W        W52728  17.360  41.171  11.169
86188W        W52729  33.101  38.850   1.377
86189W        W52730  42.504  29.633  14.288
86190W        W52731  27.160  40.727   0.815
86191W        W52732   1.746  11.136   2.828
86192W        W52733  27.942  43.006  13.536
86193W        W52734   7.172  30.395  12.717
86194W        W52735  35.994  39.489   0.422
86195W        W52736  31.785  39.949  11.945
86196W        W52737  36.090   1.541  13.309
86197W        W52738   8.175  31.670  11.422
86198W        W52739  24.209  31.693   1.722
86199W        W52740  10.335  12.115   0.281
86200W        W52741  16.342  30.617  11.971
86201W        W52742  40.410  17.546  12.258
86202W        W52743   9.898  29.987  13.474
86203W        W52744   9.337  10.235  11.862
86204W        W52745  36.426   4.149   3.629
86205W        W52746  11.128  17.091  11.576
86206W        W52747  44.469  39.854   1.542
86207W        W52748  15.560  40.485   1.231
86208W        W52749  28.556  13.916   2.815
86209W        W52750  40.897  34.376   3.880
86210W        W52751  16.942  13.117  13.904
86211W        W52752   4.907  20.130   4.408
86212W        W52753   5.457  21.229   0.835
86213W        W52754  10.442  44.318  11.142
86214W        W52755   5.117  27.521   5.062
86215W        W52756  14.087  44.293  12.034
86216W        W52757  33.432  13.543  14.935
86217W        W52758  28.962  27.296   0.721
86218W        W52759  12.371  11.924  13.290
86219W        W52760  44.553  14.697   1.537
86220W        W52761   4.675  31.542  11.203
86221W        W52762  35.067  16.226  12.515
86222W        W52763  33.624  42.671   0.686
86223W        W52764  42.688  39.444  13.443
86224W        W52765  33.988  17.296  14.862
86225W        W52766  20.537  19.052   3.269
86226W        W52767   4.792  27.672   4.085
86227W        W52768  10.795  16.778   2.963
86228W        W52769  18.573  39.999   0.332
86229W        W52770   1.379  40.895  11.748
86230W        W52771   4.803  18.239   3.801
86231W        W52772  15.035   7.828  11.082
86232W        W52773   2.956  26.621   0.858
86233W        W52774   0.421  44.683  11.532
86234W        W52775  23.504  23.132   1.973
86235W        W52776   2.744  18.666   2.316
86236W        W52777  43.371   3.939   3.833
86237W        W52778  41.023  17.503  12.952
86238W        W52779  28.893  12.527   1.757
86239W        W52780   9.327   8.760   0.733
86240W        W52781  25.630  20.238  12.615
86241W        W52782  44.444  27.900   0.943
86242W        W52783   5.796  15.905   2.682
86243W        W52784   2.085   1.726  10.667
86244W        W52785  11.244  39.306   2.213
86245W        W52786  44.004  27.150  14.438
86246W        W52787  12.767  14.359  14.951
86247W        W52788  21.502  42.886  11.597
86248W        W52789   3.645  26.034   0.848
86249W        W52790  22.802   7.976   9.788
86250W        W52791  23.238  30.436   3.306
86251W        W52792  24.665  16.951  12.441
86252W        W52793  27.980  32.045   2.705
86253W        W52794  33.110  32.886   0.940
86254W        W52795  35.161  22.658  10.791
86255W        W52796  34.048   2.264  11.623
86256W        W52797  10.412  12.858  12.277
86257W        W52798  31.681  12.827  11.652
86258W        W52799   6.895  41.550   1.495
86259W        W52800  12.448  15.014  14.482
86260W        W52801   2.973  27.648  12.454
86261W        W52802  19.963  35.344  11.326
86262W        W52803  42.350  25.687  14.420
86263W        W52804   1.930  36.464   2.390
86264W        W52805  23.279  43.590   1.253
86265W        W52806  37.835  44.916   3.277
86266W        W52807   8.222   6.678   1.974
86267W        W52808  44.754   1.167  13.896
86268W        W52809   2.791  28.032   3.242
86269W        W52810  23.203   3.952  12.596
86270W        W52811  38.589   7.903   2.465
86271W        W52812  12.832   0.982   1.767
86272W        W52813  20.869  33.941   2.294
86273W        W52814  13.225  35.591   1.979
86274W        W52815   6.837  12.728   3.316
86275W        W52816  11.381   2.222   0.556
86276W        W52817  16.086  33.811  14.820
86277W        W52818  27.076  21.594   2.479
86278W        W52819   6.822   3.865   0.057
86279W        W52820   3.050  35.946  13.972
86280W        W52821  14.229  21.623   3.043
86281W        W52822  21.521  35.290   3.539
86282W        W52823  35.744  31.034  13.815
86283W        W52824  29.112  10.624  11.902
86284W        W52825  21.657   0.753   1.857
86285W        W52826  23.049  41.799  12.402
86286W        W52827  19.798  15.511  14.367
86287W        W52828  23.519  12.440  10.584
86288W        W52829  43.662  30.425   0.917
86289W        W52830  37.712  42.813  13.342
86290W        W52831  26.130   8.142   4.042
86291W        W52832  13.400  32.942   1.896
86292W        W52833   4.564  18.908  11.943
86293W        W52834  19.676  38.475   3.796
86294W        W52835  43.031  40.524  12.634
86295W        W52836  44.311  37.575   1.822
86296W        W52837  10.859   2.420  10.743
86297W        W52838   8.999  37.561  12.442
86298W        W52839  13.266  42.980   0.022
86299W        W52840  26.233  42.839   3.331
86300W        W52841  33.177  28.064   3.905
86301W        W52842  16.041  42.337   1.256
86302W        W52843  36.536   8.584  14.951
86303W        W52844   6.246  44.972  11.852
86304W        W52845  41.787  16.288   1.999
86305W        W52846   2.034  32.691   3.910
86306W        W52847   2.205   0.458  10.533
86307W        W52848  13.854  13.189  11.522
86308W        W52849   7.013  13.189   3.145
86309W        W52850  10.052   3.160   3.147
86310W        W52851  35.505  35.358   1.790
86311W        W52852   6.139  21.399  12.989
86312W        W52853  40.493  21.214  10.016
86313W        W52854  21.325  21.961  14.774
86314W        W52855  32.089   0.691  14.309
86315W        W52856  34.634  42.909   4.667
86316W        W52857  19.228  42.202  13.420
86317W        W52858   3.849  17.647  14.010
86318W        W52859  10.583   7.773   2.207
86319W        W52860  23.036  14.352   4.177
86320W        W52861  10.370  19.713  11.948
86321W        W52862   2.175  38.048   0.288
86322W        W52863  24.886  32.633   0.988
86323W        W52864  12.847  37.061   0.905
86324W        W52865  25.640  43.070   1.642
86325W        W52866   9.121  13.648   4.702
86326W        W52867  25.342  12.614  12.085
86327W        W52868  41.421  32.441  13.431
86328W        W52869   8.481  14.666  11.154
86329W        W52870  42.447  10.760   3.224
86330W        W52871  22.079   2.245  13.085
86331W        W52872  30.713  34.980   2.292
86332W        W52873  11.287  33.576  10.976
86333W        W52874  36.622  41.813  14.317
86334W        W52875  29.713  43.574   0.783
86335W        W52876  12.378  11.411  13.154
86336W        W52877   7.857  32.513  12.868
86337W        W52878  30.150  22.884  13.372
86338W        W52879  13.559  19.694  12.072
86339W        W52880  38.397  25.194   3.030
86340W        W52881  39.565  23.928   3.727
86341W        W52882   6.109  29.443   4.591
86342W        W52883  24.740  16.869  12.949
86343W        W52884  16.124  16.121   3.168
86344W        W52885  30.870  36.622  11.537
86345W        W52886  35.363  14.246  11.086
86346W        W52887  16.440  20.294   3.432
86347W        W52888  42.037  42.619   2.907
86348W        W52889   1.685  26.222   4.939
86349W        W52890   5.369  30.685   2.151
86350W        W52891  36.042   2.770  11.468
86351W        W52892   5.774  20.558   3.125
86352W        W52893  35.216  36.041   4.031
86353W        W52894  24.775   5.848   3.203
86354W        W52895   3.253   2.466  12.496
86355W        W52896  10.858  19.732  11.765
86356W        W52897  43.647  38.296   0.707
86357W        W52898   0.604   1.192   0.516
86358W        W52899  16.241  35.841  11.986
86359W        W52900  17.219   4.909   2.765
86360W        W52901  31.004   4.838  13.946
86361W        W52902  23.933  43.914  12.379
86362W        W52903  13.663  32.407  14.805
86363W        W52904  40.502   6.111   4.218
86364W        W52905   3.954   7.406   0.432
86365W        W52906  35.298  29.972   2.691
86366W        W52907  44.760   4.293   3.140
86367W        W52908  42.414  30.478   3.356
86368W        W52909  42.870  25.949   1.199
86369W        W52910  15.911   1.213  13.586
86370W        W52911  16.882  29.053   1.352
86371W        W52912  19.216   6.341  12.405
86372W        W52913  42.469  16.786   2.190
86373W        W52914  29.671  30.722  11.592
86374W        W52915  30.549  22.653  13.077
86375W        W52916  38.371  15.335  13.442
86376W        W52917  36.772   6.285   3.359
86377W        W52918   2.819  12.160   2.535
86378W        W52919  43.938   8.781   3.825
86379W        W52920   2.299  22.455  11.885
86380W        W52921  31.087   8.579   4.164
86381W        W52922  13.435   5.437   3.630
86382W        W52923  41.396  19.620  13.408
86383W        W52924  23.086   7.848  10.634
86384W        W52925  38.409  14.855  14.370
86385W        W52926  19.184  23.045   4.098
86386W        W52927  12.520  10.767   0.420
86387W        W52928   9.924  28.499   0.442
86388W        W52929   5.633  42.098  10.068
86389W        W52930  20.188  20.688  13.956
86390W        W52931   2.339  26.246  12.835
86391W        W52932  26.406   9.552  10.552
86392W        W52933   2.598  39.763   3.716
86393W        W52934  23.770  22.275  14.854
86394W        W52935   7.599  15.624   4.589
86395W        W52936  26.107   5.454  11.507
86396W        W52937  19.944  43.430   0.975
86397W        W52938  39.579  35.398  12.886
86398W        W52939   2.192   8.463   4.085
86399W        W52940   4.017  38.427   3.828
86400W        W52941  39.077   2.983  13.535
86401W        W52942  16.000  22.658   1.522
86402W        W52943  15.353  29.692  14.912
86403W        W52944  30.574  12.705   1.852
86404W        W52945   3.480  41.757  13.528
86405W        W52946   7.351  28.332  13.502
86406W        W52947  27.953  16.367   2.605
86407W        W52948  31.598   4.594   9.607
86408W        W52949  41.488   3.041   4.556
86409W        W52950  28.357  13.757   1.926
86410W        W52951   7.398  35.858   0.920
86411W        W52952  37.152  38.695   0.276
86412W        W52953   3.408  43.944   5.047
86413W        W52954  29.950   0.346   3.496
86414W        W52955  18.546   3.517   1.565
86415W        W52956  23.899  40.610   3.160
86416W        W52957  25.422   2.893   1.518
86417W        W52958  44.098  18.523  11.492
86418W        W52959  19.850   0.828   3.842
86419W        W52960  14.349  25.203  10.681
86420W        W52961  29.060  12.180  14.768
86421W        W52962  10.145  32.634   4.070
86422W        W52963  41.889  14.264   0.304
86423W        W52964   7.957  25.702   3.231
86424W        W52965  10.534  39.558   5.206
86425W        W52966  41.876  43.224  11.518
86426W        W52967  42.263   1.427  11.016
86427W        W52968  19.007  12.629  10.093
86428W        W52969   9.470  19.623   1.723
86429W        W52970   3.832  41.875   0.682
86430W        W52971   9.121   4.352  12.530
86431W        W52972   8.069  10.248   1.926
86432W        W52973  27.569  37.858   0.440
86433W        W52974  40.466  11.546   1.002
86434W        W52975  37.634  19.050   0.169
86435W        W52976  12.155   7.649  11.659
86436W        W52977  18.818  14.319  11.168
86437W        W52978  28.496  33.490   4.218
86438W        W52979  20.152  19.804   3.511
86439W        W52980   0.748  18.279   3.809
86440W        W52981  20.711   4.924  11.433
86441W        W52982   4.355  15.371   2.644
86442W        W52983  31.125  28.541  10.660
86443W        W52984   2.063  12.248   4.287
86444W        W52985  29.958   9.240   2.834
86445W        W52986  28.505  13.633   1.038
86446W        W52987   0.962   1.933  11.519
86447W        W52988  22.504  27.429   0.559
86448W        W52989  44.860   2.710   4.599
86449W        W52990   6.196  10.209   1.833
86450W        W52991  10.325  43.499  14.031
86451W        W52992  16.245  40.095  12.923
86452W        W52993  28.445  40.488  13.906
86453W        W52994  25.698  18.055  14.987
86454W        W52995  41.346  37.233   0.784
86455W        W52996  32.390  14.290   1.961
86456W        W52997   9.222  14.729   0.866
86457W        W52998   7.449  19.167  14.942
86458W        W52999   0.957   4.801  12.517
86459W        W53000  14.786   7.592  12.984
86460W        W53001   9.741  30.261  12.425
86461W        W53002  11.311   7.102   1.340
86462W        W53003  25.761  27.451   3.728
86463W        W53004  36.133  43.092   1.829
86464W        W53005  41.375  13.411   2.617
86465W        W53006  31.876  23.928   4.557
86466W        W53007   4.824  24.628   3.250
86467W        W53008   1.722  29.073   0.732
86468W        W53009  19.030  36.676   0.666
86469W        W53010  25.175  35.940   0.660
86470W        W53011  40.909  10.655  13.420
86471W        W53012   7.162  15.018  11.048
86472W        W53013  36.132  22.266   2.381
86473W        W53014  41.323  23.491  10.766
86474W        W53015   4.189  17.071   1.718
86475W        W53016  10.236   0.193  10.642
86476W        W53017  36.733  11.896   1.494
86477W        W53018   8.130  28.985  14.426
86478W        W53019  15.510   3.012   4.104
86479W        W53020   9.132  19.341   2.624
86480W        W53021  15.779   0.538  11.988
86481W        W53022  37.315   6.943   4.939
86482W        W53023  11.443  44.038  12.986
86483W        W53024  42.535  28.521   1.255
86484W        W53025  38.739  36.084  13.400
86485W        W53026  44.463  15.749  13.819
86486W        W53027   6.461  27.064   3.203
86487W        W53028  13.913  37.649   1.916
86488W        W53029  40.015  24.303  12.598
86489W        W53030  30.933  28.950  12.364
86490W        W53031  14.872  33.094  13.297
86491W        W53032  10.125  26.134  12.992
86492W        W53033  20.066  22.899   3.710
86493W        W53034  35.454  37.187   1.363
86494W        W53035  21.350  37.508  13.582
86495W        W53036  33.983  34.472   0.089
86496W        W53037  37.106  13.989  12.464
86497W        W53038  13.290  34.929   4.631
86498W        W53039  28.831  26.744  12.121
86499W        W53040  13.116  34.458  14.732
86500W        W53041   9.095  40.974  13.931
86501W        W53042  34.155  38.367  13.867
86502W        W53043   9.804  11.882  13.628
86503W        W53044   0.578   1.514  12.678
86504W        W53045  31.531   7.140   0.321
86505W        W53046  38.861  36.368   4.036
86506W        W53047  33.129   4.988   1.902
86507W        W53048  27.206  34.495   4.081
86508W        W53049  43.354   5.958  11.004
86509W        W53050  21.573  17.564   3.946
86510W        W53051  22.550  26.903  13.889
86511W        W53052   2.317   7.507  11.223
86512W        W53053  30.266  18.828  13.892
86513W        W53054  27.287   7.806   2.683
86514W        W53055  40.872  14.075  11.508
86515W        W53056  29.174  35.388  13.372
86516W        W53057  13.680   7.469   3.551
86517W        W53058  12.571   6.178   3.806
86518W        W53059   4.865  44.040   4.983
86519W        W53060  25.186  12.235   0.453
86520W        W53061  29.977  30.431   0.318
86521W        W53062  31.703  23.230   1.300
86522W        W53063   6.354  12.766  11.675
86523W        W53064   5.103  37.349  12.538
86524W        W53065   9.860   1.520  12.112
86525W        W53066   5.399  32.047  10.249
86526W        W53067   2.397  35.540  13.072
86527W        W53068  27.717  18.661   1.701
86528W        W53069  31.925  27.529  11.616
86529W        W53070  13.677  41.280   3.296
86530W        W53071  31.876  24.526  13.462
86531W        W53072  30.100   3.555   1.341
86532W        W53073  41.666  14.807   2.582
86533W        W53074  35.454   0.435  13.534
86534W        W53075  24.469  23.420   0.866
86535W        W53076   7.872   4.669  14.721
86536W        W53077   5.452  32.377   9.533
86537W        W53078  16.098  31.006   3.392
86538W        W53079   7.740  40.971  10.820
86539W        W53080  20.853  10.433  11.819
86540W        W53081  41.370  41.584   2.165
86541W        W53082   0.915  25.031  10.600
86542W        W53083  32.362  35.540   4.188
86543W        W53084  29.649  32.884   3.168
86544W        W53085   5.784  12.178  14.858
86545W        W53086   7.361  14.495  13.715
86546W        W53087  28.620  15.185   1.419
86547W        W53088   8.902  15.692   1.866
86548W        W53089  23.542  44.472  13.026
86549W        W53090   9.236  40.896   2.633
86550W        W53091  31.643  25.493  12.739
86551W        W53092  11.175  22.704  12.633
86552W        W53093  37.571  38.056   3.210
86553W        W53094  15.313  15.835  14.211
86554W        W53095  42.849  11.385  11.678
86555W        W53096  34.955  31.088   4.688
86556W        W53097  11.935  22.507  12.702
86557W        W53098   8.242  12.656  12.858
86558W        W53099  39.549   1.906   3.644
86559W        W53100  44.876  43.465   2.523
86560W        W53101   2.448  41.035  14.922
86561W        W53102  18.992  23.964  11.196
86562W        W53103  41.531  14.525   2.181
86563W        W53104   1.427  23.440   3.377
86564W        W53105   1.436  37.896  12.996
86565W        W53106  38.252   4.744  13.588
86566W        W53107  17.994   0.849  13.103
86567W        W53108   4.848   0.967   3.580
86568W        W53109  22.518  23.027   4.261
86569W        W53110  29.547  28.012   0.745
86570W        W53111  27.955  24.071   4.368
86571W        W53112  41.841  41.072   4.135
86572W        W53113  25.785  11.609  10.624
86573W        W53114  42.301  34.163  14.277
86574W        W53115  11.467  15.043   2.385
86575W        W53116  10.099  35.022  12.136
86576W        W53117  11.348  20.819   2.213
86577W        W53118   5.237   2.645   2.210
86578W        W53119  20.850  29.132   4.461
86579W        W53120  23.017  29.144   0.964
86580W        W53121  14.009  35.410   1.341
86581W        W53122  24.603   1.437   1.145
86582W        W53123  34.664  41.639   3.276
86583W        W53124  24.924  38.403   3.761
86584W        W53125  25.208   7.841  14.006
86585W        W53126   3.782  43.475  13.899
86586W        W53127  42.698  19.567   2.813
86587W        W53128  28.448   7.157  12.489
86588W        W53129  35.658   1.798   0.762
86589W        W53130  33.830  14.226  13.771
86590W        W53131  40.157   0.930   2.421
86591W        W53132   3.397  30.331  14.004
86592W        W53133  35.390  30.432   1.186
86593W        W53134  43.883  12.840  11.004
86594W        W53135  11.407  17.645  10.972
86595W        W53136   3.856   7.899   3.922
86596W        W53137  30.111  41.385   4.745
86597W        W53138  18.081  23.440   1.645
86598W        W53139  34.426   3.251   2.185
86599W        W53140  44.792  38.330   2.132
86600W        W53141   8.436   6.899   2.385
86601W        W53142  37.311  29.328  12.010
86602W        W53143  22.639   2.960   1.808
86603W        W53144  19.270  33.102   2.227
86604W        W53145  43.973  21.262  12.002
86605W        W53146  17.001  15.430  12.508
86606W        W53147   0.665  41.663   1.874
86607W        W53148  10.390  15.383  12.540
86608W        W53149   2.996  10.791   3.772
86609W        W53150  28.685   1.132   3.109
86610W        W53151  14.522   8.750   2.714
86611W        W53152  10.867  28.940  12.544
86612W        W53153  44.558  38.924  10.621
86613W        W53154   0.528  21.475  12.458
86614W        W53155  43.853  28.397   3.836
86615W        W53156   7.212   1.703   9.759
86616W        W53157  40.125  37.406  12.596
86617W        W53158  19.382  35.799   3.684
86618W        W53159  24.346  25.653   2.310
86619W        W53160  19.004  43.896  14.972
86620W        W53161  15.488  39.328  12.691
86621W        W53162  11.706  24.641   3.308
86622W        W53163  37.298   7.206  13.897
86623W        W53164  28.879  11.302   4.160
86624W        W53165  17.132   0.262  11.055
86625W        W53166  29.049  32.972  12.670
86626W        W53167   4.361  28.079   1.258
86627W        W53168   8.182  32.203   0.594
86628W        W53169   1.399  13.631  13.086
86629W        W53170  18.736   6.125  12.276
86630W        W53171   3.291  37.957   1.212
86631W        W53172  42.860  15.700   4.550
86632W        W53173  25.860   1.767   2.000
86633W        W53174  34.866  35.969   0.963
86634W        W53175   4.729  32.820   1.555
86635W        W53176  36.424   2.233  10.262
86636W        W53177  10.371  12.667   1.906
86637W        W53178  17.579   8.952  10.300
86638W        W53179  33.828  16.801   4.173
86639W        W53180   1.175  35.844  12.425
86640W        W53181  23.620  32.378   1.403
86641W        W53182  39.995  14.881  14.521
86642W        W53183   5.703  38.964   9.836
86643W        W53184  21.271   4.778  13.481
86644W        W53185  36.451  19.123  13.474
86645W        W53186  16.134  41.386   3.766
86646W        W53187   3.766  28.604  10.241
86647W        W53188   0.690  20.355  11.296
86648W        W53189  33.845  14.801  13.050
86649W        W53190  18.251  40.898   3.180
86650W        W53191   1.258   1.195  12.144
86651W        W53192  22.573  33.769   1.028
86652W        W53193  10.602  24.119  11.833
86653W        W53194  37.275  17.830   0.430
86654W        W53195   6.200  33.934  12.089
86655W        W53196  38.789  10.768   2.854
86656W        W53197  34.875  42.536   3.428
86657W        W53198  18.201  25.566   3.199
86658W        W53199  16.070  20.733  11.817
86659W        W53200   5.808   5.228   1.014
86660W        W53201   1.297   8.436  12.956
86661W        W53202   1.875   0.919   0.293
86662W        W53203  15.301  42.940  13.741
86663W        W53204  18.706  19.496  12.414
86664W        W53205  36.844  26.790   4.135
86665W        W53206  38.222  12.719   3.189
86666W        W53207  26.268  25.032  12.893
86667W        W53208  26.493  18.445  11.858
86668W        W53209  23.483  42.511  10.661
86669W        W53210  15.443  41.477   2.547
86670W        W53211  23.984  10.556  11.196
86671W        W53212   1.027  36.563   2.850
86672W        W53213  11.698  15.109   1.189
86673W        W53214  41.049  13.104  12.457
86674W        W53215  21.832  44.477  10.694
86675W        W53216  27.646   7.093   2.309
86676W        W53217  10.678  36.020  12.882
86677W        W53218  33.520  26.969  12.141
86678W        W53219  29.941   6.863  12.916
86679W        W53220  30.185  19.205   4.211
86680W        W53221   9.577   4.886  13.948
86681W        W53222  31.282  31.039   1.279
86682W        W53223  32.875   9.499   2.134
86683W        W53224  32.508  14.640   1.098
86684W        W53225  44.337  36.526  11.562
86685W        W53226  37.049  24.731  12.917
86686W        W53227  27.141  22.377   4.590
86687W        W53228  13.593   5.749   3.248
86688W        W53229  31.657  37.098   3.170
86689W        W53230  37.995  35.482  14.925
86690W        W53231  20.111  42.630  12.070
86691W        W53232  42.499  13.975   9.891
86692W        W53233  23.228  42.076  14.843
86693W        W53234  44.831  36.120  13.040
86694W        W53235   5.264   7.992   3.972
86695W        W53236  21.047  17.584   0.221
86696W        W53237  31.118   0.002  11.126
86697W        W53238  10.195  24.751  12.961
86698W        W53239  33.870  21.575  12.756
86699W        W53240  17.271   7.208  12.916
86700W        W53241  42.943   8.201   3.196
86701W        W53242  27.824  32.287   4.690
86702W        W53243  14.654   8.187  14.050
86703W        W53244   4.254  30.438   1.016
86704W        W53245  34.781  39.791   4.848
86705W        W53246  23.128  28.189   0.821
86706W        W53247   0.792   5.476   3.719
86707W        W53248  26.914   7.841  11.819
86708W        W53249  23.665  11.157  12.330
86709W        W53250  34.287  13.310  14.840
86710W        W53251  15.763  29.700  13.532
86711W        W53252  41.972  15.281   4.860
86712W        W53253  20.152  25.292   2.503
86713W        W53254  19.282  25.655   1.139
86714W        W53255  11.637  44.935  13.985
86715W        W53256  20.528  44.088   2.784
86716W        W53257   8.941   6.857  13.488
86717W        W53258  14.451  18.759  13.778
86718W        W53259   4.711  25.275   0.313
86719W        W53260  34.484  20.086  12.654
86720W        W53261   9.069  27.367   3.788
86721W        W53262  16.835  20.354  13.017
86722W        W53263  20.317   1.196   2.338
86723W        W53264   4.931  33.590  14.343
86724W        W53265  23.363  12.790  10.928
86725W        W53266  36.843  12.302   0.280
86726W        W53267  28.620   4.972  10.845
86727W        W53268  39.997  31.197  10.790
86728W        W53269   1.921   4.317   1.634
86729W        W53270  16.694  40.738  11.542
86730W        W53271  30.225   3.776   4.817
86731W        W53272  34.635  28.207   0.329
86732W        W53273  37.502  25.964   0.008
86733W        W53274  10.729  25.215  13.868
86734W        W53275  44.308  27.704  11.950
86735W        W53276   0.521  14.659   3.167
86736W        W53277  12.170  39.374   2.163
86737W        W53278  10.767  42.855  10.963
86738W        W53279   1.248  16.245   4.328
86739W        W53280  35.054  24.189   2.063
86740W        W53281  27.879  37.801  10.648
86741W        W53282  27.008  15.458   1.482
86742W        W53283  37.536   4.815  10.614
86743W        W53284  21.318  21.277   0.209
86744W        W53285  40.979  43.032  14.006
86745W        W53286  37.826   1.926   0.429
86746W        W53287   6.403  18.860  11.566
86747W        W53288  15.281   2.540  14.876
86748W        W53289  33.405  12.196  11.760
86749W        W53290  33.311   1.361  10.728
86750W        W53291  34.828  30.571   1.269
86751W        W53292  29.157   0.494  14.562
86752W        W53293  44.965  19.020  11.381
86753W        W53294  33.480   5.663   3.398
86754W        W53295  37.831   8.690  14.359
86755W        W53296  14.098  12.091  12.379
86756W        W53297  14.272  43.294  14.522
86757W        W53298  13.335  34.495  12.947
86758W        W53299  13.094   0.371   2.177
86759W        W53300  25.487  29.074  12.721
86760W        W53301  27.550   2.661   2.688
86761W        W53302  22.307  41.585  11.059
86762W        W53303  25.569  13.743   4.360
86763W        W53304  38.002  36.429  14.431
86764W        W53305  41.541   8.445  10.776
86765W        W53306   6.392  34.254  11.652
86766W        W53307  26.765  27.199  11.223
86767W        W53308   9.688  12.224  10.693
86768W        W53309  28.721   7.432  12.871
86769W        W53310  31.321  20.167   1.868
86770W        W53311  25.480  30.368   4.090
86771W        W53312   8.828  31.411   3.919
86772W        W53313  44.324  39.875  12.127
86773W        W53314  29.898  21.021   1.190
86774W        W53315  39.354   5.340   0.428
86775W        W53316  39.963  37.426   0.970
86776W        W53317  21.734  16.207  12.490
86777W        W53318  16.782  34.092  13.655
86778W        W53319  15.670  23.708   3.346
86779W        W53320   9.890   1.309  11.657
86780W        W53321  29.110  10.163   1.965
86781W        W53322  23.491  38.321   1.297
86782W        W53323  27.447  29.182  12.614
86783W        W53324  42.983  22.690  14.775
86784W        W53325   1.843  22.466  10.665
86785W        W53326  41.929  13.849   3.196
86786W        W53327  22.779  38.880   0.931
86787W        W53328  33.138  39.491  10.374
86788W        W53329   8.791  14.436   0.047
86789W        W53330  44.321  28.977   4.429
86790W        W53331  23.381  37.584   2.571
86791W        W53332  29.158  42.137  11.400
86792W        W53333  42.089   5.437   3.744
86793W        W53334  40.654   7.021  14.916
86794W        W53335  13.874  38.118   2.122
86795W        W53336  43.915  41.432  11.638
86796W        W53337  10.964   0.220  12.329
86797W        W53338   8.678  24.677   2.229
86798W        W53339  27.509   5.886  14.528
86799W        W53340  11.408  29.617  12.111
86800W        W53341  21.454  16.319  12.905
86801W        W53342  22.613  15.569   2.441
86802W        W53343  30.892  10.256  11.627
86803W        W53344   9.851   2.010  11.924
86804W        W53345  24.275   5.996   4.074
86805W        W53346  42.607  42.887  14.531
86806W        W53347   3.939  26.865  11.347
86807W        W53348  35.337  32.900   1.474
86808W        W53349  32.626  28.282  14.297
86809W        W53350  27.442   4.397   1.071
86810W        W53351  30.479   6.275  12.265
86811W        W53352  15.745  21.049   4.217
86812W        W53353   7.469  24.650  11.981
86813W        W53354  29.738   0.308   0.594
86814W        W53355  27.531  38.632   4.049
86815W        W53356  44.051  10.316   3.131
86816W        W53357  29.923  29.383   1.115
86817W        W53358  28.059   4.431  12.959
86818W        W53359   9.170  19.360  12.082
86819W        W53360  36.535   1.696  12.998
86820W        W53361  44.340  21.557  11.682
86821W        W53362  25.136   0.826  13.412
86822W        W53363  11.343  37.482  12.418
86823W        W53364  31.936   1.918   2.289
86824W        W53365  37.381  43.820  13.333
86825W        W53366  40.336  32.435   1.316
86826W        W53367   1.908  42.176  14.223
86827W        W53368  10.352   5.606  14.407
86828W        W53369  32.502  18.284   3.674
86829W        W53370   2.535  30.525   2.284
86830W        W53371   5.651  17.556  14.906
86831W        W53372  30.206   0.556  12.572
86832W        W53373  39.819  37.215  12.213
86833W        W53374   6.274  17.601   4.578
86834W        W53375  33.503   8.386  14.015
86835W        W53376  21.273  28.901  11.086
86836W        W53377  37.169   2.814   5.551
86837W        W53378  14.014  31.960  12.300
86838W        W53379  31.905  26.231  11.151
86839W        W53380   7.770  27.686   0.049
86840W        W53381  15.145  12.014   0.941
86841W        W53382  11.831  20.707  14.322
86842W        W53383  20.723  26.027   3.248
86843W        W53384  21.068  40.596  10.797
86844W        W53385   0.769  30.086   4.840
86845W        W53386  25.272   1.312  13.603
86846W        W53387  29.867   1.966  12.928
86847W        W53388  26.575  11.724   1.818
86848W        W53389  33.142  34.345  12.474
86849W        W53390  12.187  43.324  13.233
86850W        W53391  38.864  30.440   3.563
86851W        W53392  13.523  13.261  11.117
86852W        W53393  22.181  43.785  14.829
86853W        W53394   8.208  37.627   0.027
86854W        W53395  31.229  17.565  13.072
86855W        W53396  29.669  22.435  10.992
86856W        W53397  14.115   6.169   1.632
86857W        W53398   2.863  28.335  11.956
86858W        W53399  15.183   6.723   3.338
86859W        W53400  28.997  34.746   3.155
86860W        W53401  11.598  25.638  11.585
86861W        W53402  18.639   1.393   1.628
86862W        W53403  18.241  31.105   2.178
86863W        W53404  38.841  34.972   2.943
86864W        W53405  18.133  19.779  13.459
86865W        W53406  30.994  25.743   1.385
86866W        W53407   6.958  13.153   0.721
86867W        W53408  30.152  32.535   1.783
86868W        W53409  39.499   8.732  11.137
86869W        W53410  33.430  25.238   1.494
86870W        W53411  39.962  34.082   3.903
86871W        W53412  40.950  15.099   3.380
86872W        W53413  28.702  37.826   1.835
86873W        W53414  23.486  18.166   1.855
86874W        W53415  24.895   2.376   2.893
86875W        W53416  15.569  29.068  10.314
86876W        W53417   3.983  23.594   1.155
86877W        W53418  26.196   2.464  13.047
86878W        W53419  29.411  16.624   3.826
86879W        W53420  41.403  27.411   1.926
86880W        W53421   4.144  38.840  11.748
86881W        W53422  32.456   6.182  10.142
86882W        W53423  26.208  20.466   0.486
86883W        W53424  33.326   3.655   1.958
86884W        W53425  23.555  29.621   2.256
86885W        W53426   0.411  42.928   2.670
86886W        W53427  13.604   9.494   3.956
86887W        W53428  25.444   7.221  13.524
86888W        W53429  29.254  28.886   4.047
86889W        W53430  10.873  43.249   4.273
86890W        W53431  24.569  36.111   3.841
86891W        W53432  14.814   4.950   3.688
86892W        W53433  26.221  41.202   0.958
86893W        W53434  18.749  40.861  12.718
86894W        W53435  36.529  21.722  13.662
86895W        W53436  18.172  20.991   4.227
86896W        W53437  16.592   4.535  12.908
86897W        W53438  42.128  36.158  12.019
86898W        W53439  39.451  12.153  11.575
86899W        W53440  27.164  44.738  13.461
86900W        W53441  32.683  26.969  11.635
86901W        W53442  22.499   4.861  12.041
86902W        W53443  13.298  11.847   3.406
86903W        W53444   4.953  23.975  13.611
86904W        W53445  28.418  12.627  13.297
86905W        W53446   2.770  22.445  11.635
86906W        W53447  33.349  29.331   0.236
86907W        W53448  36.324  20.863   4.517
86908W        W53449  20.191   3.432   4.883
86909W        W53450  11.671  20.729  13.384
86910W        W53451  32.044   8.974   2.424
86911W        W53452  20.219   3.998  13.249
86912W        W53453   1.462   5.084  13.785
86913W        W53454  33.597  42.589  10.555
86914W        W53455  21.970  17.595  10.765
86915W        W53456   2.993   8.865   1.551
86916W        W53457  20.285   2.908  10.626
86917W        W53458  10.463  19.254   4.599
86918W        W53459   8.287   3.828  11.492
86919W        W53460  32.449  25.949  12.424
86920W        W53461  36.941   3.537  14.082
86921W        W53462   3.958  28.460  13.000
86922W        W53463  21.692  21.355   4.577
86923W        W53464  27.016  40.609  13.000
86924W        W53465  11.824  15.077   3.784
86925W        W53466   3.956   3.299   1.911
86926W        W53467  25.493  34.528   0.211
86927W        W53468  30.524  39.040   1.779
86928W        W53469  28.083  21.798   1.391
86929W        W53470   1.202   5.261  12.515
86930W        W53471  10.902   8.305   1.716
86931W        W53472  15.009   0.973  14.564
86932W        W53473  42.257   7.278   1.424
86933W        W53474  42.110   6.198  11.442
86934W        W53475  12.886  29.866   2.193
86935W        W53476  11.244  13.379  13.403
86936W        W53477   7.858  36.497  12.033
86937W        W53478  26.919  40.908  14.287
86938W        W53479  17.404  38.947   0.853
86939W        W53480  29.666  14.670  13.645
86940W        W53481  10.617  37.544   2.438
86941W        W53482  44.351   9.325   2.193
86942W        W53483   0.816  15.694   0.817
86943W        W53484  18.188  44.233  12.562
86944W        W53485  16.320  18.827  13.422
86945W        W53486  35.999  31.062  12.498
86946W        W53487  40.948  26.265   0.643
86947W        W53488  27.445  27.229   1.139
86948W        W53489  16.205  14.520   1.283
86949W        W53490  23.513  10.712   0.712
86950W        W53491  28.965  12.073  10.194
86951W        W53492  32.042  27.620  12.441
86952W        W53493  41.806  17.611  12.472
86953W        W53494  16.573  10.803  13.913
86954W        W53495  19.498  18.069  14.341
86955W        W53496  33.909  11.570  12.058
86956W        W53497  27.155  33.035  13.039
86957W        W53498   0.738  29.424  13.363
86958W        W53499   7.743  13.565   1.173
86959W        W53500   3.581   1.257  10.047
86960W        W53501  34.665  10.938   4.054
86961W        W53502  42.398  43.398   4.454
86962W        W53503  29.449  23.610   5.035
86963W        W53504  13.427  15.706  12.446
86964W        W53505  34.467  24.409   2.429
86965W        W53506  41.432  41.209  12.178
86966W        W53507  32.661  32.031   0.066
86967W        W53508  33.454  20.227  10.701
86968W        W53509  30.967  27.922   2.833
86969W        W53510  40.273   9.766  13.035
86970W        W53511  23.982  42.095  14.397
86971W        W53512  34.442   2.303   4.394
86972W        W53513  38.537   3.875  12.119
86973W        W53514  34.337  13.843  14.393
86974W        W53515  17.077  38.581   3.310
86975W        W53516  39.116  42.037   2.871
86976W        W53517  17.195  17.751   4.844
86977W        W53518   4.950  20.405  14.823
86978W        W53519  44.446   3.442   3.289
86979W        W53520  36.946  16.138   2.428
86980W        W53521  19.301  12.528   4.016
86981W        W53522  36.635  42.994   4.179
86982W        W53523   6.649  31.193  11.139
86983W        W53524  17.828   0.550   4.199
86984W        W53525  43.379  40.379   4.381
86985W        W53526  15.296  32.220  10.631
86986W        W53527  21.612   6.965   1.123
86987W        W53528   4.445  33.485   0.996
86988W        W53529   0.788  25.435  12.029
86989W        W53530  18.242  12.658  14.005
86990W        W53531  21.145  31.182  11.035
86991W        W53532  33.029  40.475  14.768
86992W        W53533  18.782  19.656   3.245
86993W        W53534  42.649  19.806  14.974
86994W        W53535  37.394  38.739  14.717
86995W        W53536  42.246  23.631   1.814
86996W        W53537  35.039  18.970  14.000
86997W        W53538   1.258  30.349   1.944
86998W        W53539   8.397   3.196  13.920
86999W        W53540  41.996  42.729  11.573
87000W        W53541  33.121  13.287   5.483
87001W        W53542  22.526  32.843   0.710
87002W        W53543  16.244  23.068  10.569
87003W        W53544   1.294  30.274   2.733
87004W        W53545  26.880  23.925   4.895
87005W        W53546   0.761   7.169  13.962
87006W        W53547  28.149  15.111   1.634
87007W        W53548  39.043   8.806   1.481
87008W        W53549  26.194  10.762   0.423
87009W        W53550  22.977  40.883  12.537
87010W        W53551   7.677  35.643  13.349
87011W        W53552   1.769  31.449  13.015
87012W        W53553   8.631  36.332   2.766
87013W        W53554  28.393  22.212   1.428
87014W        W53555  23.553  29.558  14.277
87015W        W53556  43.039   9.318  11.661
87016W        W53557   2.978  22.490   0.930
87017W        W53558   5.291  35.582   3.289
87018W        W53559  22.331   1.794   4.520
87019W        W53560  43.022   0.909  10.803
87020W        W53561  24.643  15.666   4.040
87021W        W53562  16.898   6.722  11.167
87022W        W53563  20.671  44.597  12.085
87023W        W53564  41.869  12.788  13.559
87024W        W53565   8.801  10.925  13.495
87025W        W53566  44.978  42.669  11.151
87026W        W53567  11.116  10.725  13.455
87027W        W53568  27.378  27.981  11.964
87028W        W53569  19.779  21.118   4.535
87029W        W53570  29.229  42.813   2.809
87030W        W53571  31.356  28.102   1.444
87031W        W53572  40.216   0.270   0.235
87032W        W53573  27.238  42.049   4.142
87033W        W53574  30.540  42.611  12.678
87034W        W53575  41.999  26.626   2.088
87035W        W53576  28.073  25.481   1.297
87036W        W53577  43.408  28.521   2.119
87037W        W53578  20.576  18.806   3.707
87038W        W53579  37.962  21.476   0.978
87039W        W53580   5.128  16.738   3.640
87040W        W53581  26.182  25.000  11.147
87041W        W53582  22.668   6.669  11.599
87042W        W53583  33.024  13.466  11.994
87043W        W53584  14.185   8.335  14.858
87044W        W53585  37.204  23.744   1.108
87045W        W53586  15.787   5.818   1.527
87046W        W53587   8.269  36.078  12.596
87047W        W53588  12.009  32.152   3.236
87048W        W53589  25.744  35.354  12.161
87049W        W53590  42.781  32.928  12.359
87050W        W53591   2.921  25.517  12.849
87051W        W53592  12.765  42.923  12.844
87052W        W53593  18.828  21.052  14.423
87053W        W53594   9.613  20.957   0.794
87054W        W53595  28.419  27.982  11.961
87055W        W53596  36.302   4.302   3.155
87056W        W53597  15.388  17.189  12.499
87057W        W53598  40.619   9.679   0.268
87058W        W53599   6.772  10.040   4.570
87059W        W53600  38.377  24.480   1.819
87060W        W53601  20.653  37.863   3.568
87061W        W53602  20.717   1.508   2.193
87062W        W53603  25.828  22.117  14.806
87063W        W53604  10.231  16.652   4.542
87064W        W53605   4.794   7.740   2.804
87065W        W53606  24.999  29.662  11.313
87066W        W53607  28.643  29.571   1.883
87067W        W53608  20.481  35.393  14.606
87068W        W53609  19.751  43.530   3.730
87069W        W53610   6.855   7.545   1.165
87070W        W53611   9.808  16.218   3.693
87071W        W53612  12.617  32.111   5.016
87072W        W53613  31.532  14.914  13.864
87073W        W53614   1.200  13.082  13.014
87074W        W53615  26.754  32.653   2.390
87075W        W53616   8.339   3.968  14.938
87076W        W53617  15.640  40.957   2.441
87077W        W53618   7.904  27.794  13.898
87078W        W53619  35.627  18.346   3.245
87079W        W53620  11.970  17.947  10.710
87080W        W53621   0.885  43.215   0.842
87081W        W53622   3.275  14.104  12.415
87082W        W53623  25.563  30.255   1.232
87083W        W53624  26.930  28.090   1.442
87084W        W53625  10.073  35.260  13.607
87085W        W53626  27.931  16.630   0.561
87086W        W53627   5.314  26.094  13.338
87087W        W53628  27.764  40.872  12.993
87088W        W53629  32.572  12.673   1.193
87089W        W53630  10.800  35.868  13.529
87090W        W53631  19.721  44.447  10.603
87091W        W53632  36.797  39.941   1.364
87092W        W53633  23.174  43.754   0.245
87093W        W53634   1.608  20.495   2.366
87094W        W53635  24.264  35.364  13.633
87095W        W53636  40.796  24.122   3.360
87096W        W53637  39.828  42.634  12.542
87097W        W53638  11.726  43.226   3.287
87098W        W53639  35.512  44.486   4.040
87099W        W53640  23.998  21.571  14.322
87100W        W53641  38.477  43.548   3.659
87101W        W53642  19.766   0.851   2.323
87102W        W53643  35.333  43.777   0.926
87103W        W53644   1.801  25.449  11.834
87104W        W53645   1.287  27.651  12.767
87105W        W53646  10.632   8.375   3.722
87106W        W53647  21.892  19.568  12.558
87107W        W53648  28.195   1.522  11.678
87108W        W53649  38.430  30.120  10.667
87109W        W53650  14.691  44.458   2.228
87110W        W53651  33.920   8.359  14.336
87111W        W53652   8.388   4.311   3.913
87112W        W53653  38.067  25.705  14.923
87113W        W53654  27.972  13.253   3.177
87114W        W53655  33.548   5.755   0.922
87115W        W53656  15.811  30.046   3.026
87116W        W53657  43.355  28.052  14.991
87117W        W53658  16.533  25.086  12.888
87118W        W53659  14.427   9.505  13.388
87119W        W53660   2.274  19.053  12.323
87120W        W53661   6.473  40.487  13.498
87121W        W53662   3.445  21.029  11.234
87122W        W53663  25.638  29.934   2.869
87123W        W53664  14.964   3.971  14.620
87124W        W53665  37.366  42.427   0.008
87125W        W53666  42.918   4.781   3.726
87126W        W53667  33.591  27.175   1.261
87127W        W53668  37.626  16.561  10.412
87128W        W53669   4.024  30.057   2.879
87129W        W53670  41.812   8.736   2.883
87130W        W53671  23.211  44.255   1.734
87131W        W53672   4.047  27.583  10.001
87132W        W53673  13.309  11.433  10.886
87133W        W53674  35.351  22.047  13.373
87134W        W53675  24.226  24.592  11.123
87135W        W53676  20.290  38.589  11.848
87136W        W53677  29.365  41.946   0.248
87137W        W53678   9.627   9.920  15.000
87138W        W53679   7.418  25.000  13.621
87139W        W53680  12.322  10.180  11.654
87140W        W53681  37.271   1.703  14.444
87141W        W53682  23.191  18.759   0.330
87142W        W53683  20.539  19.622  11.954
87143W        W53684   4.633  38.601  12.773
87144W        W53685  32.880  19.845  14.854
87145W        W53686  23.752  20.861   2.092
87146W        W53687  30.481  43.226   2.279
87147W        W53688   6.445  35.796   0.547
87148W        W53689  41.495  43.748  14.098
87149W        W53690   9.815  11.623  12.133
87150W        W53691  29.188  43.007  11.307
87151W        W53692  36.922  15.343  10.145
87152W        W53693  28.586  15.694   0.454
87153W        W53694  15.848   1.274   1.697
87154W        W53695  32.687  23.263   3.603
87155W        W53696  24.472  30.487  14.910
87156W        W53697  36.825  29.429  12.109
87157W        W53698   1.426  24.901   3.305
87158W        W53699   0.665  33.025   3.523
87159W        W53700  43.750  42.307   4.127
87160W        W53701  20.596  19.307   1.898
87161W        W53702  10.416  21.485  11.446
87162W        W53703  38.949  36.857   3.124
87163W        W53704  28.143  14.283   3.258
87164W        W53705  30.757  10.350  14.258
87165W        W53706  35.169  23.112   1.890
87166W        W53707  25.070  39.816   2.047
87167W        W53708  22.587  21.138   2.842
87168W        W53709   9.851  12.752   4.182
87169W        W53710  39.911  18.078  12.557
87170W        W53711   5.558  24.108   1.269
87171W        W53712   7.114   6.264   4.867
87172W        W53713  31.922  33.169   4.773
87173W        W53714  40.427  41.497   2.146
87174W        W53715   6.183  23.211   3.109
87175W        W53716  26.027  30.413   3.178
87176W        W53717  41.867  37.245   4.819
87177W        W53718   3.410  43.006  14.708
87178W        W53719  24.693   6.270   2.892
87179W        W53720  35.942  17.908  13.921
87180W        W53721  15.029  25.758  12.528
87181W        W53722  18.748  28.916   2.826
87182W        W53723  31.642  33.262   2.594
87183W        W53724  21.518  42.498   3.193
87184W        W53725  44.223  23.977   1.918
87185W        W53726   6.935  28.560  12.088
87186W        W53727  37.511  37.428   4.823
87187W        W53728  13.170  35.118  14.116
87188W        W53729  34.420  15.218  11.160
87189W        W53730  19.201   5.809  11.227
87190W        W53731   0.728  25.504  14.332
87191W        W53732  29.621  43.004   4.555
87192W        W53733  39.215  12.778   5.414
87193W        W53734  17.816   7.288   3.709
87194W        W53735   1.071  31.432  12.076
87195W        W53736  27.997  26.557  11.049
87196W        W53737  35.740   3.200  11.467
87197W        W53738   6.266  29.668   2.225
87198W        W53739  19.965  27.643  13.043
87199W        W53740   5.724   2.386  14.399
87200W        W53741  44.411  31.763   0.928
87201W        W53742  14.794  11.847   2.796
87202W        W53743  15.081   1.524  14.781
87203W        W53744  39.939  19.662   0.313
87204W        W53745   3.970  32.204   0.297
87205W        W53746  41.446  42.661   4.976
87206W        W53747  36.127  11.623  11.610
87207W        W53748  16.751  25.306   0.900
87208W        W53749  42.709  10.703   4.568
87209W        W53750  24.296   0.441  11.550
87210W        W53751  24.989  22.073   0.383
87211W        W53752   5.110   5.701   1.305
87212W        W53753   9.638  37.401   0.668
87213W        W53754   2.163   5.004   2.009
87214W        W53755  39.978  41.859  13.549
87215W        W53756  23.058  14.771   1.479
87216W        W53757  29.527  36.898   0.503
87217W        W53758   3.349  16.019   2.110
87218W        W53759  28.378  31.137  14.024
87219W        W53760  17.873   8.621   3.485
87220W        W53761  17.509  20.283   1.491
87221W        W53762   3.926  16.999   3.387
87222W        W53763   7.800   9.363  13.896
87223W        W53764  40.079  41.341  11.602
87224W        W53765  35.971  22.753   2.307
87225W        W53766  26.163   4.073  12.058
87226W        W53767  25.001  18.149  10.623
87227W        W53768  19.566  36.339   1.931
87228W        W53769  15.046  10.711  13.462
87229W        W53770  14.605   9.849   3.551
87230W        W53771  12.628  23.130  14.291
87231W        W53772  30.030   7.481  13.303
87232W        W53773  13.282   7.429  13.326
87233W        W53774   4.754  30.294   1.490
87234W        W53775   0.823  26.931  11.738
87235W        W53776  43.779  33.762  11.132
87236W        W53777  44.457   3.095  13.837
87237W        W53778   4.149  22.619   2.726
87238W        W53779  12.185   4.547  13.597
87239W        W53780  33.032  41.444  13.402
87240W        W53781  12.084  34.956   3.615
87241W        W53782  31.591  34.820  11.041
87242W        W53783   6.339  33.754   1.645
87243W        W53784  23.972   0.395   0.016
87244W        W53785  33.828  34.946  11.575
87245W        W53786  37.892  14.204   1.816
87246W        W53787   2.918  14.848  14.348
87247W        W53788  24.995   1.732  14.397
87248W        W53789   2.889  22.197   1.354
87249W        W53790  20.293   7.801   2.052
87250W        W53791  22.821  29.667   5.002
87251W        W53792  23.792  20.785  11.417
87252W        W53793  24.924  43.979   3.765
87253W        W53794   7.807  35.261   4.422
87254W        W53795   2.905   7.867   2.788
87255W        W53796  13.738  20.517   3.978
87256W        W53797  35.092  12.917  11.046
87257W        W53798  40.021  20.073  14.973
87258W        W53799  30.014  11.663  10.007
87259W        W53800   1.857  12.278   2.804
87260W        W53801   5.549  12.391  11.493
87261W        W53802  26.540  26.106   4.564
87262W        W53803  27.772  11.623  14.301
87263W        W53804  36.053   4.084  10.844
87264W        W53805  26.347   0.072   3.571
87265W        W53806   7.204   8.920   3.667
87266W        W53807  27.126  14.670  12.516
87267W        W53808  26.497   5.858  14.637
87268W        W53809  38.481  10.150  12.451
87269W        W53810  11.006  25.202  12.566
87270W        W53811  13.044  44.064  12.125
87271W        W53812  40.606  31.890  10.286
87272W        W53813  30.344  21.756  11.292
87273W        W53814  18.337  13.274  14.814
87274W        W53815  10.402  40.354  13.390
87275W        W53816  13.059   3.410  10.668
87276W        W53817  39.900  12.250  12.605
87277W        W53818   3.391  33.139   4.072
87278W        W53819  17.981  35.773   2.830
87279W        W53820  35.101   0.477   4.525
87280W        W53821  18.281  42.734  11.897
87281W        W53822  11.535  21.168  12.537
87282W        W53823   5.328  31.639   3.788
87283W        W53824   3.466  20.174   1.883
87284W        W53825   6.494  10.923   4.427
87285W        W53826  27.424   7.636  10.710
87286W        W53827  42.702  22.556   1.824
87287W        W53828   1.369  36.500   1.625
87288W        W53829  42.454  43.045   1.334
87289W        W53830  24.297  24.479  14.734
87290W        W53831  37.982  41.494   0.440
87291W        W53832  36.594  12.732  11.965
87292W        W53833  31.326   8.489  11.040
87293W        W53834  31.436  41.561  10.990
87294W        W53835  38.850  12.236  12.561
87295W        W53836   4.247  11.009  11.457
87296W        W53837  29.975   9.602   1.872
87297W        W53838  18.239  20.750   3.374
87298W        W53839  14.619  36.580  14.904
87299W        W53840  35.941  42.428   4.168
87300W        W53841   7.254  17.917  12.462
87301W        W53842  40.101  21.823  12.888
87302W        W53843  44.805  21.164  14.679
87303W        W53844  17.287  43.823   1.904
87304W        W53845  17.524  15.045  11.678
87305W        W53846  36.056  26.817   0.900
87306W        W53847   4.301   8.966   1.963
87307W        W53848   4.220  27.730   2.335
87308W        W53849  12.756  11.125   2.234
87309W        W53850  29.915  10.027  11.750
87310W        W53851   0.233  23.487  14.404
87311W        W53852  26.974  40.744   4.876
87312W        W53853  40.354  18.069  10.411
87313W        W53854  19.238  27.843   3.312
87314W        W53855  16.727  11.207   2.688
87315W        W53856  30.009   3.814  13.356
87316W        W53857  31.112  30.132   3.686
87317W        W53858  23.211  25.529  12.294
87318W        W53859   2.260  26.588  12.457
87319W        W53860  44.047  21.980  11.535
87320W        W53861  37.552   0.509   4.070
87321W        W53862  20.278  37.280  10.724
87322W        W53863  37.049  39.467   1.537
87323W        W53864  30.116   1.207   0.260
87324W        W53865  13.518  36.771  12.865
87325W        W53866  11.206  11.305   0.922
87326W        W53867  29.395  15.306  12.577
87327W        W53868  29.106  15.245  10.828
87328W        W53869  18.340  15.746  12.733
87329W        W53870   0.272  35.086  14.588
87330W        W53871  22.181  20.072   1.488
87331W        W53872  39.928  11.685   2.172
87332W        W53873  35.072  36.480   0.903
87333W        W53874  20.679  34.444   2.173
87334W        W53875  21.553  17.496   3.068
87335W        W53876  41.853   3.482  12.589
87336W        W53877  27.186  14.776   2.806
87337W        W53878  29.883  34.417  12.922
87338W        W53879  42.530  22.582   0.046
87339W        W53880  39.417   5.257  11.428
87340W        W53881   2.619  10.242  12.102
87341W        W53882  30.100  33.080  12.459
87342W        W53883  12.492  32.100  13.928
87343W        W53884  10.502   2.947  13.401
87344W        W53885  34.032  30.660   4.326
87345W        W53886   6.676  34.109  12.085
87346W        W53887  27.252  25.176  14.546
87347W        W53888  25.988  17.780  13.845
87348W        W53889  31.008  42.259   4.752
87349W        W53890  27.955  37.441   0.438
87350W        W53891  25.244  12.823   2.861
87351W        W53892  40.799  34.098   1.689
87352W        W53893  17.878   6.509   3.174
87353W        W53894  10.871  10.733   2.804
87354W        W53895  19.105  25.481  13.439
87355W        W53896  34.634  17.084   0.518
87356W        W53897  21.814  34.155   2.185
87357W        W53898   2.757  37.997  13.946
87358W        W53899  38.571  13.346  13.454
87359W        W53900  24.065  44.451  12.266
87360W        W53901  27.808  23.104   2.705
87361W        W53902  19.018  25.908   3.734
87362W        W53903  33.614  12.524   0.789
87363W        W53904  29.414  26.272   2.422
87364W        W53905  30.968   8.699  14.395
87365W        W53906  31.559  42.376   1.899
87366W        W53907  40.733   7.617  14.911
87367W        W53908  39.999  11.555  11.081
87368W        W53909   5.699  16.172  10.725
87369W        W53910  42.719   8.525  12.021
87370W        W53911   1.538  20.603   3.318
87371W        W53912  21.411  30.746  11.062
87372W        W53913  42.793  29.758   0.917
87373W        W53914  30.989  23.633   5.157
87374W        W53915  10.060  24.333  11.185
87375W        W53916  39.980   0.250   2.299
87376W        W53917  40.287  43.821   2.662
87377W        W53918  27.908  39.092  14.771
87378W        W53919   6.636   2.771   1.414
87379W        W53920  34.673  23.402  13.050
87380W        W53921  18.031   4.870  12.782
87381W        W53922  17.268  26.238  13.476
87382W        W53923  17.483  19.608   1.984
87383W        W53924  30.898  14.628  11.628
87384W        W53925  40.415  33.459   3.221
87385W        W53926  26.171  27.028  12.523
87386W        W53927   8.968  12.264   4.274
87387W        W53928  37.043  29.690  10.722
87388W        W53929  18.165  30.222   2.754
87389W        W53930  10.725   8.097  13.004
87390W        W53931  25.898   2.484  13.457
87391W        W53932   9.742  12.669   1.218
87392W        W53933  39.469  30.181   0.330
87393W        W53934  24.677   9.783   4.311
87394W        W53935  44.238  11.237   0.269
87395W        W53936   8.360  39.091  14.581
87396W        W53937  40.771   3.927   3.117
87397W        W53938   9.109  39.505   0.191
87398W        W53939  32.472  20.465   2.595
87399W        W53940   7.186   2.892  12.273
87400W        W53941  33.922  28.278   4.577
87401W        W53942   1.569  40.052  14.953
87402W        W53943  32.936  17.163  14.775
87403W        W53944  31.551  33.428   4.529
87404W        W53945  27.555  39.534   3.019
87405W        W53946  19.126   1.578   3.334
87406W        W53947   3.290  11.816   2.307
87407W        W53948  36.623  12.265  12.809
87408W        W53949  16.296  24.528  11.315
87409W        W53950  14.786  15.596   3.249
87410W        W53951   8.909  13.150  13.826
87411W        W53952  39.394  26.271  13.818
87412W        W53953  13.098  34.464   0.751
87413W        W53954  22.132  38.871   4.680
87414W        W53955   4.402   2.570  13.917
87415W        W53956  16.138   5.836   2.847
87416W        W53957   0.478  33.430  13.755
87417W        W53958   6.116  41.488  14.757
87418W        W53959  41.005  19.567   1.910
87419W        W53960   7.492  13.327  11.164
87420W        W53961  17.479   7.830   1.495
87421W        W53962  24.221  42.930  10.509
87422W        W53963  28.000  43.446  13.291
87423W        W53964  40.424  17.370  13.913
87424W        W53965  28.493  28.055   4.037
87425W        W53966  12.456   1.544   4.679
87426W        W53967   7.182  28.389   1.462
87427W        W53968  15.028  19.282   4.067
87428W        W53969  18.951   4.803   4.668
87429W        W53970  32.897   6.885  12.152
87430W        W53971  44.903  35.915   1.322
87431W        W53972   0.895  10.838   4.917
87432W        W53973  32.838  31.730   2.894
87433W        W53974  18.839   4.306  10.365
87434W        W53975  40.779  16.682   5.367
87435W        W53976  43.264  14.714  11.383
87436W        W53977  22.187  32.864   4.153
87437W        W53978   3.457  40.566   2.744
87438W        W53979  16.184   1.894  12.962
87439W        W53980  44.811  10.234   0.608
87440W        W53981   1.039  41.055  12.546
87441W        W53982  16.038  33.474  10.383
87442W        W53983  42.343  21.030   2.152
87443W        W53984  28.964  23.301   2.633
87444W        W53985  19.024   2.177  10.727
87445W        W53986  25.457  23.427  10.698
87446W        W53987  22.823   9.304  11.203
87447W        W53988  31.434  18.107  10.713
87448W        W53989  16.719  28.463  13.009
87449W        W53990  16.515   5.035  12.982
87450W        W53991   5.457  11.115   3.749
87451W        W53992  18.163  25.282   0.930
87452W        W53993  21.534  14.679  11.087
87453W        W53994  43.428  31.160  11.932
87454W        W53995  19.848  11.531   4.107
87455W        W53996  18.293  37.102   4.347
87456W        W53997  38.871  37.085   0.090
87457W        W53998  29.449   7.138  13.638
87458W        W53999   8.180   4.279   1.008
87459W        W54000   3.149  18.377   0.713
87460W        W54001  40.110   3.518   0.016
87461W        W54002   9.199   5.299  12.462
87462W        W54003  20.360  10.366  11.947
87463W        W54004  11.748  39.475  12.897
87464W        W54005  41.709  41.538  12.467
87465W        W54006   0.895  29.334   1.474
87466W        W54007   4.248  24.688   3.276
87467W        W54008  10.404  34.769  10.520
87468W        W54009  21.864  31.866   2.251
87469W        W54010   3.236  33.519   2.566
87470W        W54011  29.461  29.218   2.455
87471W        W54012  25.005  39.939   3.598
87472W        W54013  11.818  27.919  11.636
87473W        W54014   8.592  37.528   3.688
87474W        W54015  16.363  14.134  12.585
87475W        W54016  13.360   9.852   1.171
87476W        W54017  34.357  17.605   3.748
87477W        W54018  30.128  25.240  13.618
87478W        W54019  30.113  25.169  12.300
87479W        W54020  13.090  13.239   4.411
87480W        W54021  36.921  21.552  14.454
87481W        W54022  33.689   8.200  11.652
87482W        W54023  35.076  30.931   2.447
87483W        W54024  39.679  32.067  12.029
87484W        W54025  31.827  24.946  14.610
87485W        W54026  19.953  23.612  13.653
87486W        W54027  25.147  25.192   0.861
87487W        W54028  39.481   6.398  10.729
87488W        W54029  23.312   3.241   4.119
87489W        W54030   1.557  24.606  13.819
87490W        W54031  25.029  30.917  14.308
87491W        W54032   1.188  15.189   0.774
87492W        W54033  14.858  22.299  11.078
87493W        W54034  44.382  22.058  14.927
87494W        W54035  12.659   5.372   2.875
87495W        W54036   3.760   2.645   1.008
87496W        W54037  15.223  26.397   4.546
87497W        W54038  41.169  25.487   4.587
87498W        W54039  35.210   1.208   4.144
87499W        W54040  35.351   0.903   3.343
87500W        W54041  16.082  14.236  11.612
87501W        W54042  32.192  44.850  11.054
87502W        W54043  41.584  21.741  14.148
87503W        W54044   6.801   1.922  12.029
87504W        W54045  14.301  17.647  14.480
87505W        W54046   6.859   7.541  13.882
87506W        W54047  39.750  30.097   1.820
87507W        W54048   8.853  23.065   1.262
87508W        W54049   6.309  24.097   0.427
87509W        W54050  43.281  16.619   0.481
87510W        W54051  38.808  13.887   3.704
87511W        W54052  23.495  18.218   3.346
87512W        W54053  10.352   8.116  12.628
87513W        W54054  32.390  12.431  12.552
87514W        W54055  14.276  11.230   3.547
87515W        W54056  26.274  22.226   0.058
87516W        W54057  38.926  39.856   1.698
87517W        W54058  10.283   3.270   9.862
87518W        W54059  42.928   5.648  14.715
87519W        W54060  23.220  44.497  11.642
87520W        W54061  33.842  32.164  10.803
87521W        W54062  20.969  31.383  12.307
87522W        W54063  44.887   5.905   3.869
87523W        W54064  24.279  20.764  13.093
87524W        W54065   9.861  20.697  12.609
87525W        W54066  30.712  12.048   4.001
87526W        W54067  27.042  44.178   4.922
87527W        W54068  32.970   4.565  12.445
87528W        W54069  19.197  44.674   0.402
87529W        W54070  13.826  36.335  10.738
87530W        W54071   9.586   4.250   0.271
87531W        W54072  44.397  36.855  11.183
87532W        W54073  34.579  33.550   0.283
87533W        W54074  15.662  42.818  14.082
87534W        W54075  36.151  40.479  10.862
87535W        W54076  21.156  44.869   1.690
87536W        W54077  14.146  10.892   3.162
87537W        W54078  25.233  27.548   0.832
87538W        W54079  21.755  12.237  13.911
87539W        W54080   1.370   8.138  12.532
87540W        W54081  44.307  40.996  11.045
87541W        W54082  20.281   1.507   3.679
87542W        W54083  20.117  40.500   1.723
87543W        W54084  39.514  12.969   1.911
87544W        W54085  17.651  36.970   0.815
87545W        W54086  11.354  40.915   4.239
87546W        W54087   1.307  24.668   3.743
87547W        W54088  23.026  12.325   0.807
87548W        W54089  28.433  28.392  11.213
87549W        W54090  24.938  26.402  10.896
87550W        W54091  41.611  21.268   4.258
87551W        W54092  31.812  32.200   0.964
87552W        W54093  33.543  18.280  13.565
87553W        W54094  29.659  23.428   3.216
87554W        W54095   0.530   3.672   4.658
87555W        W54096  17.396  26.039   1.467
87556W        W54097  35.325   9.490   4.132
87557W        W54098  23.597  28.013   0.695
87558W        W54099  33.499  12.259  11.271
87559W        W54100  32.811   1.583  10.655
87560W        W54101  22.260  14.158  10.816
87561W        W54102   0.303  33.677   1.440
87562W        W54103   5.545  12.545   1.957
87563W        W54104  13.053  28.091  12.904
87564W        W54105  29.207  36.311   4.128
87565W        W54106  33.388  19.896   4.535
87566W        W54107   8.724  10.228  11.150
87567W        W54108  22.608  29.674  14.843
87568W        W54109  12.576  19.269   4.291
87569W        W54110  11.367  15.243  10.977
87570W        W54111   0.574   3.343  14.823
87571W        W54112  38.265  28.453   2.472
87572W        W54113  29.058  39.532   0.898
87573W        W54114   1.526   3.457   1.371
87574W        W54115  12.585  31.637   3.697
87575W        W54116  32.892  13.336  11.497
87576W        W54117  12.129   1.450   1.290
87577W        W54118  43.579  11.146  14.800
87578W        W54119  37.543  24.099   1.881
87579W        W54120  19.933  18.481  13.437
87580W        W54121  19.302  25.045   0.361
87581W        W54122  31.048  14.928  14.074
87582W        W54123  39.311  27.515  12.939
87583W        W54124  15.612  21.516  14.913
87584W        W54125  30.103  24.789  14.964
87585W        W54126   7.244  10.743  14.358
87586W        W54127   1.841   6.300  12.469
87587W        W54128  44.314   7.298  11.849
87588W        W54129  32.378  32.442  12.414
87589W        W54130  15.602   7.834   3.825
87590W        W54131  29.522  12.089   0.507
87591W        W54132  13.370  16.677   3.642
87592W        W54133  42.853  16.312  11.556
87593W        W54134  34.142  38.133   2.829
87594W        W54135  17.039   1.496  12.024
87595W        W54136  21.544  24.457   4.543
87596W        W54137  27.099  29.739   4.664
87597W        W54138  25.685  42.387  13.511
87598W        W54139  24.252  32.617   0.283
87599W        W54140  23.631  33.398   1.256
87600W        W54141  33.605  17.602  14.708
87601W        W54142  43.232  12.581  14.007
87602W        W54143  12.169  35.914   1.712
87603W        W54144  13.360  29.010   2.374
87604W        W54145  28.577  16.122  13.453
87605W        W54146  20.339  22.783   4.572
87606W        W54147  21.580  19.263   3.646
87607W        W54148  44.608   1.334  14.381
87608W        W54149  13.204   6.425   3.309
87609W        W54150  25.726  29.003   4.374
87610W        W54151  25.936  25.731   4.838
87611W        W54152  19.073  15.703   4.554
87612W        W54153  41.730  38.326  10.731
87613W        W54154  18.627  25.735  11.030
87614W        W54155  39.095  35.431  13.024
87615W        W54156  16.668  12.665   1.203
87616W        W54157  34.619  44.881   2.326
87617W        W54158  23.731  11.795  14.865
87618W        W54159  16.284   2.371   0.476
87619W        W54160   1.829  32.870   1.294
87620W        W54161  18.537   8.611   1.301
87621W        W54162  43.260  18.200   2.902
87622W        W54163   5.597  44.660  13.479
87623W        W54164   5.680  43.033  14.448
87624W        W54165  32.532   8.839  12.114
87625W        W54166   2.947  16.329   2.322
87626W        W54167   6.348  41.916  12.595
87627W        W54168  43.735  36.962  12.508
87628W        W54169   2.864  20.998   1.789
87629W        W54170  34.378  31.725  12.184
87630W        W54171   3.225  12.877  11.651
87631W        W54172  30.455   8.905  14.326
87632W        W54173  38.806  40.141   4.438
87633W        W54174  21.587  38.361  12.540
87634W        W54175  43.799  12.801   4.672
87635W        W54176  17.065  36.066  11.170
87636W        W54177   6.513   1.357   4.693
87637W        W54178  33.431  44.509   3.280
87638W        W54179  15.387  17.524   3.428
87639W        W54180  43.544   3.115  14.242
87640W        W54181  35.157  26.898   2.466
87641W        W54182  13.762  19.706  14.977
87642W        W54183   5.185  11.239   0.281
87643W        W54184  15.510   0.630  14.447
87644W        W54185  39.532  28.759  14.186
87645W        W54186  24.206  36.642  14.365
87646W        W54187  44.770  12.284   1.945
87647W        W54188   4.008   0.420  13.383
87648W        W54189  32.433  33.160  11.954
87649W        W54190  40.530  25.967  10.703
87650W        W54191  27.672  26.976   4.429
87651W        W54192  38.563  34.707  13.473
87652W        W54193  42.903   6.026   3.148
87653W        W54194  31.872  43.811   1.919
87654W        W54195   9.708   9.876   4.128
87655W        W54196  23.101  36.092   2.328
87656W        W54197  21.745  14.186   4.685
87657W        W54198  17.055  22.037  10.767
87658W        W54199  12.629  29.683   5.054
87659W        W54200   1.629   4.146   1.030
87660W        W54201   8.653  44.698  11.224
87661W        W54202   2.984  39.959   0.379
87662W        W54203   3.195   0.277   9.817
87663W        W54204  22.519   6.833  11.146
87664W        W54205   1.318  32.013   3.308
87665W        W54206  33.501  21.363  14.773
87666W        W54207   6.495  40.648  10.724
87667W        W54208  31.495  21.623  10.756
87668W        W54209  20.084  43.372   5.014
87669W        W54210  26.515  23.495   1.837
87670W        W54211   7.869  24.985   1.704
87671W        W54212  41.779   5.850  11.627
87672W        W54213   7.764  12.380  12.876
87673W        W54214  32.695   1.746  11.159
87674W        W54215   9.007  40.578   3.608
87675W        W54216  21.988  44.759  11.625
87676W        W54217  19.674   0.784   3.294
87677W        W54218  14.633  39.881  13.152
87678W        W54219  38.490  27.144  10.425
87679W        W54220  29.933  16.147  14.316
87680W        W54221  11.767  19.816   1.357
87681W        W54222  38.350   0.728   1.882
87682W        W54223   6.524  38.570   1.609
87683W        W54224  15.331  35.849  12.267
87684W        W54225   3.447  34.116   3.379
87685W        W54226  14.895   3.478  11.397
87686W        W54227  36.878  10.385   0.871
87687W        W54228  38.582  25.445  14.401
87688W        W54229  25.105  24.913  14.799
87689W        W54230  26.322   0.402  12.121
87690W        W54231  27.532   9.194  11.700
87691W        W54232   0.771  36.136   0.945
87692W        W54233  44.050  39.631  10.888
87693W        W54234   1.910  38.823  14.690
87694W        W54235   1.378   3.159  13.506
87695W        W54236  25.864  26.022   2.534
87696W        W54237  37.576  30.498  14.691
87697W        W54238  42.377  41.373   0.674
87698W        W54239  28.416  40.569   4.540
87699W        W54240  35.957  10.290  13.819
87700W        W54241   5.926  38.149  10.244
87701W        W54242  31.094  17.242   2.375
87702W        W54243   0.548  36.657   1.021
87703W        W54244  28.142  24.426   1.256
87704W        W54245   5.489  33.620  12.898
87705W        W54246  14.746   1.890   0.557
87706W        W54247  35.181  40.457   1.993
87707W        W54248  14.249  15.149   0.282
87708W        W54249  40.077   9.621   2.218
87709W        W54250  26.615  17.700  10.888
87710W        W54251  40.853  11.661  14.748
87711W        W54252  44.786  42.186   4.230
87712W        W54253   7.742  31.144  13.102
87713W        W54254  11.719  19.719  13.294
87714W        W54255  11.135  14.220  13.636
87715W        W54256  19.949  28.305  11.561
87716W        W54257  24.122  41.544  12.628
87717W        W54258  24.775  42.690  14.918
87718W        W54259  22.542  28.914   2.709
87719W        W54260  37.616  34.483   0.897
87720W        W54261  37.478   5.932   3.805
87721W        W54262  27.663  31.564   2.872
87722W        W54263  28.026   7.241   4.653
87723W        W54264  10.120  30.187   3.208
87724W        W54265  28.050  33.865  14.788
87725W        W54266  11.716   8.303  13.134
87726W        W54267  14.949  43.279   4.757
87727W        W54268  29.170  11.872  14.247
87728W        W54269  16.701   1.738  13.819
87729W        W54270   9.390  27.806   3.021
87730W        W54271  12.122   9.839  11.998
87731W        W54272  15.288  29.580   3.220
87732W        W54273  44.973  33.446  12.387
87733W        W54274   9.317  11.000  11.413
87734W        W54275  10.014  15.220   2.763
87735W        W54276  10.686   6.142  11.238
87736W        W54277  30.684  19.343   4.179
87737W        W54278  12.365  32.532  10.183
87738W        W54279   2.214  17.584   4.050
87739W        W54280  29.072  23.432   1.214
87740W        W54281  36.292  35.782  13.958
87741W        W54282  33.794  22.874   4.126
87742W        W54283  15.433  21.190  11.231
87743W        W54284   5.194  26.174  12.390
87744W        W54285   6.081   5.379  11.515
87745W        W54286  17.852  23.855   2.452
87746W        W54287  40.394  20.472  13.778
87747W        W54288  44.317   9.240   4.553
87748W        W54289  18.007  35.845   1.784
87749W        W54290   1.924  40.578  14.327
87750W        W54291  39.734  31.147   1.804
87751W        W54292  29.853  19.168   2.873
87752W        W54293  22.517  11.081  13.031
87753W        W54294  39.420  28.507   0.560
87754W        W54295   7.112  30.003  11.459
87755W        W54296  40.957  43.789  10.389
87756W        W54297  25.200  20.658   2.286
87757W        W54298  42.307  11.582   1.705
87758W        W54299   5.010  10.359   0.920
87759W        W54300  36.358  24.674  14.444
87760W        W54301  21.644  21.681  13.881
87761W        W54302  19.413  25.247  14.912
87762W        W54303  36.818  31.452   1.658
87763W        W54304  23.401  22.651  11.543
87764W        W54305  40.026  28.143   0.514
87765W        W54306   5.193  30.188   2.270
87766W        W54307  20.281   5.245  13.912
87767W        W54308  41.268  30.519   0.275
87768W        W54309  44.734  36.920   1.311
87769W        W54310  44.862  10.762   4.290
87770W        W54311   4.326   4.419   5.298
87771W        W54312  18.460  44.097   4.208
87772W        W54313  43.518  16.291   4.271
87773W        W54314  34.029  14.212   1.906
87774W        W54315  32.088  42.421   0.053
87775W        W54316  40.893  11.920  11.592
87776W        W54317   6.729  41.718  11.661
87777W        W54318  12.243  44.861   0.833
87778W        W54319  42.187  39.319  13.436
87779W        W54320   5.712   3.946   1.800
87780W        W54321  18.744   9.789   0.032
87781W        W54322  37.843  21.313   4.241
87782W        W54323  28.885  20.250   1.749
87783W        W54324  43.848  42.805  12.998
87784W        W54325   6.574  30.439  10.697
87785W        W54326  20.751  42.349  13.849
87786W        W54327   4.234  43.926  14.509
87787W        W54328  26.171  20.069   3.241
87788W        W54329   3.499  10.293   3.162
87789W        W54330  34.117  16.893   1.830
87790W        W54331  23.032  42.719   1.111
87791W        W54332   1.079  14.086   3.548
87792W        W54333  44.775   2.392  11.583
87793W        W54334  27.548   9.644  13.952
87794W        W54335  22.880  26.484  13.889
87795W        W54336  21.322  37.949  13.288
87796W        W54337  44.702  24.000   3.268
87797W        W54338  35.115  24.736  12.917
87798W        W54339  13.890  23.028   2.136
87799W        W54340   0.564  34.537  12.536
87800W        W54341  30.931  31.202  14.913
87801W        W54342  14.118  30.372  14.578
87802W        W54343  40.866  20.063   1.923
87803W        W54344  33.847   2.713   1.820
87804W        W54345  11.748  44.815   4.159
87805W        W54346  41.290  12.911   3.981
87806W        W54347  30.950  11.380  13.750
87807W        W54348  19.304  33.288  10.752
87808W        W54349  26.596   8.687  14.844
87809W        W54350  14.945  30.159   5.534
87810W        W54351  16.032  14.189   5.155
87811W        W54352  15.589  42.653  13.159
87812W        W54353  44.052  23.138  13.044
87813W        W54354  43.024   5.688   3.539
87814W        W54355  37.234  17.035   0.760
87815W        W54356   6.671  20.683   0.895
87816W        W54357  38.095  21.553  14.448
87817W        W54358   6.905  11.983   1.802
87818W        W54359   1.816  28.827   3.605
87819W        W54360  42.265  15.244  12.989
87820W        W54361   8.254  38.407  11.688
87821W        W54362   6.698  18.108   4.404
87822W        W54363  32.601  20.042   4.198
87823W        W54364  14.638  10.414  13.382
87824W        W54365  16.249   0.936   1.458
87825W        W54366  27.992  21.181  10.623
87826W        W54367  41.543  29.799  14.612
87827W        W54368  26.936  10.366   3.961
87828W        W54369  40.217   9.565  14.450
87829W        W54370  14.072   9.682   2.750
87830W        W54371  16.052  10.152  13.861
87831W        W54372  21.678  21.014  11.683
87832W        W54373  19.298   3.930  13.040
87833W        W54374   7.676  34.875  10.457
87834W        W54375  27.574   4.416   1.616
87835W        W54376   9.662   1.168   0.838
87836W        W54377   3.291   3.921  10.736
87837W        W54378  26.753   2.952  11.067
87838W        W54379   3.041   6.903  10.607
87839W        W54380  11.853  20.246  11.611
87840W        W54381  40.568   1.019   2.077
87841W        W54382  27.054  38.321  12.420
87842W        W54383  19.242   7.259  14.562
87843W        W54384  26.826  30.940  13.442
87844W        W54385  12.167  17.274   0.927
87845W        W54386  41.772  37.262  10.854
87846W        W54387   8.471  20.947   4.508
87847W        W54388   4.318  13.243   1.934
87848W        W54389  15.920   9.402  11.100
87849W        W54390  36.895  26.026  10.670
87850W        W54391  28.232  22.841  12.389
87851W        W54392  26.172  33.529  13.761
87852W        W54393  22.478  34.477   2.712
87853W        W54394  33.086  43.710   2.194
87854W        W54395  40.125  14.838  11.580
87855W        W54396  23.769  28.545  12.382
87856W        W54397  20.449   6.513  12.931
87857W        W54398   0.247   2.869   1.846
87858W        W54399  10.712  34.687  12.113
87859W        W54400  28.516  15.179   3.814
87860W        W54401  11.373  31.597  12.349
87861W        W54402   6.255  15.838   2.463
87862W        W54403  23.484  41.973  14.417
87863W        W54404  32.606   3.745  13.476
87864W        W54405  42.853  22.819  13.283
87865W        W54406   9.663  42.024  12.865
87866W        W54407  25.616  38.431   0.004
87867W        W54408  37.337  14.810  14.387
87868W        W54409  35.449  21.210   0.334
87869W        W54410  26.941  39.552   0.012
87870W        W54411  39.696   8.376  14.345
87871W        W54412   7.565   5.410  10.803
87872W        W54413  10.624  11.839   3.211
87873W        W54414  29.486   7.287  12.189
87874W        W54415  10.897  22.312  14.409
87875W        W54416  11.164  15.180   4.348
87876W        W54417  10.168  27.968   3.821
87877W        W54418   9.628  26.725   0.429
87878W        W54419  44.558  22.293  14.455
87879W        W54420  33.429  37.578   4.402
87880W        W54421  10.629  16.503  13.388
87881W        W54422  11.381  40.070  10.432
87882W        W54423   5.649  18.873  11.151
87883W        W54424   9.157  14.601   4.690
87884W        W54425  39.527  41.725   2.693
87885W        W54426  32.228   3.825  10.599
87886W        W54427  44.234  28.532   4.167
87887W        W54428  25.926   1.304  12.050
87888W        W54429  36.353  29.496   4.586
87889W        W54430   3.442   3.904  12.102
87890W        W54431  37.552  31.356   0.933
87891W        W54432   3.777  22.729   2.198
87892W        W54433  37.356   5.285   1.602
87893W        W54434  41.044  25.165   4.173
87894W        W54435  22.557  26.672  12.022
87895W        W54436  34.398  44.163   4.275
87896W        W54437  15.484  38.466   0.025
87897W        W54438  18.955  30.945   4.605
87898W        W54439  21.605  17.072  10.167
87899W        W54440  34.373  25.126   0.166
87900W        W54441  23.894   4.822  13.878
87901W        W54442  29.512   9.799  14.190
87902W        W54443  25.754  12.188   4.385
87903W        W54444   4.306  38.047   3.479
87904W        W54445  23.201  17.799   0.198
87905W        W54446  24.149  11.688  13.974
87906W        W54447  29.670  19.072   4.281
87907W        W54448  40.551  18.656   3.098
87908W        W54449  13.189  13.726  13.131
87909W        W54450  41.604  20.367   1.326
87910W        W54451  28.754  42.972   9.841
87911W        W54452   5.943  17.280  13.478
87912W        W54453  12.212  40.423   4.311
87913W        W54454  17.077  15.337  11.627
87914W        W54455  19.628  19.535   3.440
87915W        W54456  24.136   5.840   0.850
87916W        W54457  27.343  16.600  10.714
87917W        W54458  32.219  42.386   2.928
87918W        W54459  34.633  17.571   1.390
87919W        W54460  28.411  19.167   2.734
87920W        W54461  35.794  39.810   1.623
87921W        W54462  32.522  42.587   4.878
87922W        W54463   7.337   7.353   2.625
87923W        W54464  13.566  13.782   1.034
87924W        W54465  22.083  37.047  11.481
87925W        W54466  44.456  44.666  12.467
87926W        W54467  10.900  38.256   5.298
87927W        W54468  14.521  19.261   0.918
87928W        W54469  42.769  13.583  14.917
87929W        W54470  22.557  22.089   3.332
87930W        W54471   0.757  21.147   0.711
87931W        W54472   6.170  19.660   1.741
87932W        W54473   1.797  29.462  13.457
87933W        W54474  29.577  42.425   2.111
87934W        W54475  17.400  10.118   3.885
87935W        W54476  29.242   2.925   0.960
87936W        W54477   8.734  42.220   3.355
87937W        W54478  31.660  37.736   0.224
87938W        W54479  15.094  36.828  12.055
87939W        W54480  29.114   9.375  13.853
87940W        W54481  40.154  43.148   2.359
87941W        W54482  23.141   6.149   4.098
87942W        W54483  10.765  44.619   4.273
87943W        W54484  10.253   8.632  12.572
87944W        W54485   4.999  15.651  10.249
87945W        W54486  29.497  16.344  12.081
87946W        W54487  31.595  37.786   0.754
87947W        W54488  10.081   3.944  13.442
87948W        W54489  37.605  25.373  12.516
87949W        W54490  26.575  33.472  11.985
87950W        W54491  21.316   4.704   4.748
87951W        W54492   1.222  12.291   1.773
87952W        W54493   3.368  15.670   0.881
87953W        W54494  35.593   0.713   1.330
87954W        W54495   8.833  21.086  13.562
87955W        W54496  33.911  10.526  12.126
87956W        W54497   5.685  40.972   0.336
87957W        W54498  36.314  27.450  14.069
87958W        W54499  35.705  20.795   3.492
87959W        W54500   5.195  32.645  14.466
87960W        W54501   3.353  30.549  11.829
87961W        W54502  32.725  15.646   4.152
87962W        W54503  31.800  28.563   2.948
87963W        W54504  15.485   2.931  14.574
87964W        W54505   2.144   1.272   2.052
87965W        W54506   1.857   5.396   2.157
87966W        W54507  36.827  37.456  12.046
87967W        W54508   2.674  16.042  12.143
87968W        W54509  22.955  44.905  11.466
87969W        W54510  21.746  39.655  13.366
87970W        W54511  38.489  16.543  11.863
87971W        W54512  17.295   4.281   4.138
87972W        W54513  38.782  14.358   0.348
87973W        W54514  29.096  39.919  13.939
87974W        W54515  17.203   9.644  11.154
87975W        W54516   6.352  30.448   0.731
87976W        W54517  29.249   4.265   0.894
87977W        W54518  10.159  20.329   0.450
87978W        W54519  16.499  25.421  11.986
87979W        W54520  36.649  25.305   5.011
87980W        W54521  21.208  28.512   1.717
87981W        W54522  16.499  23.017  11.274
87982W        W54523  36.352  39.512   2.846
87983W        W54524  27.964  40.974   3.034
87984W        W54525   6.437   2.859   5.010
87985W        W54526  26.094  29.752  13.810
87986W        W54527   4.125  11.159   3.717
87987W        W54528  27.489  36.702   0.045
87988W        W54529   6.958   1.152  12.459
87989W        W54530   4.425  41.560   2.834
87990W        W54531  44.324  16.888  13.369
87991W        W54532  30.939  43.607   0.721
87992W        W54533  24.372  36.709  10.860
87993W        W54534  42.714  15.966  14.915
87994W        W54535   7.619  30.353  14.543
87995W        W54536   2.139  34.067   5.037
87996W        W54537  37.140  18.960  12.046
87997W        W54538  22.993  32.489  10.498
87998W        W54539  24.667   4.668  11.251
87999W        W54540  42.294   1.317  12.815
88000W        W54541  35.529  26.960  14.053
88001W        W54542  29.163  42.028  10.896
88002W        W54543  18.109  13.648  13.487
88003W        W54544   0.760  22.660  13.338
88004W        W54545   6.968  35.430  13.906
88005W        W54546  28.951  25.638  11.200
88006W        W54547   0.726  21.181   0.188
88007W        W54548  19.292  21.346   2.751
88008W        W54549  25.753  20.911  14.572
88009W        W54550   9.325  20.280  11.526
88010W        W54551  24.686  27.570  12.083
88011W        W54552   5.700   6.806   2.004
88012W        W54553  19.664  32.353   1.603
88013W        W54554  32.413   7.348   0.372
88014W        W54555  26.109   8.239  13.068
88015W        W54556  26.676   3.948  10.467
88016W        W54557   1.302  43.074  10.398
88017W        W54558  43.990  32.143  12.520
88018W        W54559   0.222  33.432  10.760
88019W        W54560  32.044  22.560  12.029
88020W        W54561  23.093  39.907   1.877
88021W        W54562  37.491  34.671   1.366
88022W        W54563  35.436  34.754  11.523
88023W        W54564  17.182  34.750   2.838
88024W        W54565  31.472  44.846   4.539
88025W        W54566  22.852  11.240   1.311
88026W        W54567  11.953  30.018  14.936
88027W        W54568   7.429  30.474  13.665
88028W        W54569  31.965   0.003   1.441
88029W        W54570  18.548  37.872   1.324
88030W        W54571  28.473  10.413   1.597
88031W        W54572  16.553   5.412   1.894
88032W        W54573  42.001  32.434   2.233
88033W        W54574  30.549  24.424  14.659
88034W        W54575  36.886  13.127  12.948
88035W        W54576   8.293  13.169   4.397
88036W        W54577  23.623  16.043   1.592
88037W        W54578  13.318  44.377   4.866
88038W        W54579  22.697  35.824  13.814
88039W        W54580  11.844  10.036   2.296
88040W        W54581  25.540   3.882   3.794
88041W        W54582  26.007   6.901  10.306
88042W        W54583  10.169  25.708  13.306
88043W        W54584  13.305   0.404   4.796
88044W        W54585  11.693  19.539   0.755
88045W        W54586   7.270  25.544   1.210
88046W        W54587  32.948   5.715   4.498
88047W        W54588  32.504  23.857   3.361
88048W        W54589  32.367   8.440   4.136
88049W        W54590   5.360   0.679   0.207
88050W        W54591   5.525  10.482   4.494
88051W        W54592  39.585  30.686   3.079
88052W        W54593  27.083  44.765  14.392
88053W        W54594  10.360   1.819   1.314
88054W        W54595  20.807  19.308  11.111
88055W        W54596  15.107  17.077  13.435
88056W        W54597  20.835   4.285   0.599
88057W        W54598   7.173  42.749   4.462
88058W        W54599  31.424  24.234  14.989
88059W        W54600  16.608  24.179  13.421
88060W        W54601  11.146  28.953  14.344
88061W        W54602   6.772  19.561  11.460
88062W        W54603  27.096   1.797   3.236
88063W        W54604  29.431  22.098   1.445
88064W        W54605  37.528  19.590   1.887
88065W        W54606  15.215   3.782  11.862
88066W        W54607  10.583  31.869   2.260
88067W        W54608  39.505  18.016   1.012
88068W        W54609  27.924  25.696  12.048
88069W        W54610  26.107  39.591  14.373
88070W        W54611   6.428   7.448   4.648
88071W        W54612  25.036   2.788  11.553
88072W        W54613   3.737  39.026  11.507
88073W        W54614  35.161   4.385   2.342
88074W        W54615  27.876  36.467   0.337
88075W        W54616   7.819  19.769   0.589
88076W        W54617  27.394  30.223  13.898
88077W        W54618  18.373   1.710   1.312
88078W        W54619  25.110  16.129  10.935
88079W        W54620   5.661   2.919   5.428
88080W        W54621   9.300   0.378  11.614
88081W        W54622  13.056  33.212  11.617
88082W        W54623  18.075   4.244  13.925
88083W        W54624  26.226  41.733   0.898
88084W        W54625  29.171  37.479  13.279
88085W        W54626  35.662  21.549  12.634
88086W        W54627  23.954  27.444  12.567
88087W        W54628   6.441  17.343  13.430
88088W        W54629  25.724  18.854   0.379
88089W        W54630   1.852   7.345  14.779
88090W        W54631  34.977  14.587   0.836
88091W        W54632  22.002  43.421   1.656
88092W        W54633  29.455  35.376   0.635
88093W        W54634  19.460  28.983  11.451
88094W        W54635   8.758  43.755  11.112
88095W        W54636  42.019  18.350  12.527
88096W        W54637  36.096   1.946  12.033
88097W        W54638   9.087  19.726   2.184
88098W        W54639  43.388  14.160  10.669
88099W        W54640   1.912  40.852   3.214
88100W        W54641  15.551  12.159   2.247
88101W        W54642  41.518  40.856  14.813
88102W        W54643  16.052  14.805   3.760
88103W        W54644   3.882  13.354   3.642
88104W        W54645  40.338  20.491   3.602
88105W        W54646  31.104  33.475  11.988
88106W        W54647  27.071   8.898  13.986
88107W        W54648  42.427  32.124  12.525
88108W        W54649  38.239   2.507   3.235
88109W        W54650  37.870  26.610  14.039
88110W        W54651  33.032  42.843  11.648
88111W        W54652  16.715  40.992  12.863
88112W        W54653  29.392  24.590  13.008
88113W        W54654   1.410   5.734  10.715
88114W        W54655   4.557  32.963  13.699
88115W        W54656   1.024  34.267  13.547
88116W        W54657   5.929  38.843   3.254
88117W        W54658  39.958  33.630  13.281
88118W        W54659  21.240   9.828  12.617
88119W        W54660  32.492   8.312  12.014
88120W        W54661  35.003  18.820   1.409
88121W        W54662   7.771  30.338  14.047
88122W        W54663  39.809  12.357   0.807
88123W        W54664  30.007  31.153   3.276
88124W        W54665  16.973  35.914   1.746
88125W        W54666   9.171  33.757  10.642
88126W        W54667   5.183  17.188   1.857
88127W        W54668  10.524  39.591  10.151
88128W        W54669  30.014   2.187  11.874
88129W        W54670  16.274  40.859   1.644
88130W        W54671  20.770   2.228   1.755
88131W        W54672   1.744  25.557  14.344
88132W        W54673  30.336  17.082  14.457
88133W        W54674  20.803  23.970   0.437
88134W        W54675  36.941  43.735  10.415
88135W        W54676   5.533  32.159   0.860
88136W        W54677  27.929  42.931   0.928
88137W        W54678  34.070  24.789   2.746
88138W        W54679  23.186  38.975  12.111
88139W        W54680  10.852  17.087   4.207
88140W        W54681  43.956  29.635  12.469
88141W        W54682  21.492   7.020   2.358
88142W        W54683  44.078  29.610   0.824
88143W        W54684  10.769  32.909   3.823
88144W        W54685   8.407   4.366  10.609
88145W        W54686  26.690   7.784   3.422
88146W        W54687  39.847  15.299  14.257
88147W        W54688  10.628   7.665  11.082
88148W        W54689  29.756  44.506  13.944
88149W        W54690  18.560  34.490   4.964
88150W        W54691  11.694  40.953   1.612
88151W        W54692  42.266  27.681   2.670
88152W        W54693  36.156  32.653  11.478
88153W        W54694   7.791  16.126  13.473
88154W        W54695   5.398  34.098  14.013
88155W        W54696  37.946  22.159   3.580
88156W        W54697   8.420   2.155   0.957
88157W        W54698  16.694  10.157  11.458
88158W        W54699  39.818   3.340   1.285
88159W        W54700  27.592  39.401   1.590
88160W        W54701   3.672  12.087  14.440
88161W        W54702  11.371  33.778   2.690
88162W        W54703  39.021  11.189  10.980
88163W        W54704  30.833   0.536  12.852
88164W        W54705  29.362   1.403   3.867
88165W        W54706  31.190  42.948   1.785
88166W        W54707   6.850  31.904  14.724
88167W        W54708   9.341  29.763  11.715
88168W        W54709   5.229   4.258  11.877
88169W        W54710   8.306  40.450   5.537
88170W        W54711  38.338   0.350  13.544
88171W        W54712  16.451  18.912   3.270
88172W        W54713  15.893  23.979   4.581
88173W        W54714  41.419  26.697   1.466
88174W        W54715  18.153  29.758  11.613
88175W        W54716   3.532  18.518   4.967
88176W        W54717  12.091  19.971  12.921
88177W        W54718  18.601  12.269  12.500
88178W        W54719  40.923  31.547  11.907
88179W        W54720  29.080  17.135   2.916
88180W        W54721  41.324  38.500   4.675
88181W        W54722  12.135  39.337   2.684
88182W        W54723  33.865   6.170   5.031
88183W        W54724  30.841  15.752  12.859
88184W        W54725   5.761  29.338  12.455
88185W        W54726   1.524   0.321   3.171
88186W        W54727   6.393  43.308   1.506
88187W        W54728  12.622  28.079   1.650
88188W        W54729   1.487  27.036  14.444
88189W        W54730  21.759  35.585   2.256
88190W        W54731  41.907  11.154   2.734
88191W        W54732  26.705  29.931   0.146
88192W        W54733  32.932  19.768  11.173
88193W        W54734  27.369  30.523   0.385
88194W        W54735  26.468  40.003   1.945
88195W        W54736  37.589  33.460  11.264
88196W        W54737   0.923   5.025  12.993
88197W        W54738  35.807  10.580  12.853
88198W        W54739  42.949  40.105   2.779
88199W        W54740  37.438  18.856  13.761
88200W        W54741  13.889  36.276  14.510
88201W        W54742  31.096  35.804   0.760
88202W        W54743  25.464  27.399   4.557
88203W        W54744   6.772  44.905   1.675
88204W        W54745  32.663   6.811  13.324
88205W        W54746   7.405   8.191  13.032
88206W        W54747  22.909   3.286  12.123
88207W        W54748  10.028  34.168   3.260
88208W        W54749   0.327  21.544   2.354
88209W        W54750  16.637   4.021  12.942
88210W        W54751  12.524  15.608  14.347
88211W        W54752   4.409   5.716  11.888
88212W        W54753  18.851  16.026   0.543
88213W        W54754   2.326  32.530  11.841
88214W        W54755   0.986  16.345  10.555
88215W        W54756  35.992  44.449  14.645
88216W        W54757   7.304  37.656  12.942
88217W        W54758  32.714  12.053  13.911
88218W        W54759   0.028  21.552   1.900
88219W        W54760  12.372  35.430  11.588
88220W        W54761   7.377  31.435  11.460
88221W        W54762  31.716  36.512   2.097
88222W        W54763  19.653   3.007   1.470
88223W        W54764  34.364  33.577  14.810
88224W        W54765  37.043  25.704  13.391
88225W        W54766  13.380  34.449  11.541
88226W        W54767  44.798   1.710  14.070
88227W        W54768  37.601  41.526   1.716
88228W        W54769  38.581  27.169   4.248
88229W        W54770  33.607   3.418  12.927
88230W        W54771  41.999  20.579   1.071
88231W        W54772  39.177  37.983  10.289
88232W        W54773  41.270  39.956  14.923
88233W        W54774  17.164   4.967  13.743
88234W        W54775  12.384  35.662  12.896
88235W        W54776  13.132   8.121   4.716
88236W        W54777  33.049  15.775   4.533
88237W        W54778  37.536   4.927  12.809
88238W        W54779  13.869  31.504  12.524
88239W        W54780   1.845  38.057  12.605
88240W        W54781  38.013   5.418  13.930
88241W        W54782  37.570  33.948  11.125
88242W        W54783  42.496  30.696  10.437
88243W        W54784  39.478   9.662  13.738
88244W        W54785  22.815  37.335  11.057
88245W        W54786  12.642   6.894   3.211
88246W        W54787  19.666  44.398  13.871
88247W        W54788  15.147  39.401  13.779
88248W        W54789  16.276  31.438  14.364
88249W        W54790  28.368  11.690  10.746
88250W        W54791  28.436   6.685   1.311
88251W        W54792  17.147  29.257  14.000
88252W        W54793  30.340  42.876   0.316
88253W        W54794  27.894  40.634   1.169
88254W        W54795  21.149  19.266   1.814
88255W        W54796   4.646   3.229  12.599
88256W        W54797  34.553  24.521  12.063
88257W        W54798  18.800  34.827  13.042
88258W        W54799   5.473  21.521   3.990
88259W        W54800  30.516  10.100  11.112
88260W        W54801   9.235  37.153  12.284
88261W        W54802  36.652   6.293  10.038
88262W        W54803  33.667  18.704  10.645
88263W        W54804   4.985  12.751   2.581
88264W        W54805  39.397  23.998  11.995
88265W        W54806   8.394   2.518   4.014
88266W        W54807  34.565  23.557   0.190
88267W        W54808  17.154  22.307   2.303
88268W        W54809  31.854  17.230   4.017
88269W        W54810   4.156  40.842   3.049
88270W        W54811  27.218   0.362  10.667
88271W        W54812  32.405  39.905   0.080
88272W        W54813  43.692   8.210  13.561
88273W        W54814   8.084  30.278  12.460
88274W        W54815  39.597   5.404   1.405
88275W        W54816  27.523  18.469   2.157
88276W        W54817  33.132  33.575  11.996
88277W        W54818   9.920  33.016  12.541
88278W        W54819  24.273  24.669   3.179
88279W        W54820   7.949  39.296   1.904
88280W        W54821  38.868  24.610  14.552
88281W        W54822   2.368  34.811   1.912
88282W        W54823  17.111   6.180  10.148
88283W        W54824   8.542   9.389  12.043
88284W        W54825  23.187   8.259  12.762
88285W        W54826  10.821  39.564  12.445
88286W        W54827  20.085  15.365  10.402
88287W        W54828  16.238   8.398   4.969
88288W        W54829  19.399  12.727  10.420
88289W        W54830  39.700  25.064   4.508
88290W        W54831  12.168  20.743   3.691
88291W        W54832  14.986   5.727   0.456
88292W        W54833   1.555  23.041   4.197
88293W        W54834  23.111  42.907   3.717
88294W        W54835  14.999  31.394  14.790
88295W        W54836   1.409   9.760  12.193
88296W        W54837  10.779  36.970  13.988
88297W        W54838  16.499  23.536   2.206
88298W        W54839  11.256  37.063   0.003
88299W        W54840  15.774  40.398   4.676
88300W        W54841  22.192  39.767  13.992
88301W        W54842  39.270   2.827   3.715
88302W        W54843  44.313  18.620   2.919
88303W        W54844  22.044  38.552  12.373
88304W        W54845  33.500  19.499   1.191
88305W        W54846  34.342  19.867  11.443
88306W        W54847  11.376   9.603   3.991
88307W        W54848  32.837   6.859   2.714
88308W        W54849  35.919  30.122   3.136
88309W        W54850  20.439  15.065  13.938
88310W        W54851  27.719  33.438  10.549
88311W        W54852  25.210  33.387  10.686
88312W        W54853  23.709  17.109   0.422
88313W        W54854  34.521   5.649   1.351
88314W        W54855  32.622  17.218   4.539
88315W        W54856   5.972  11.154   4.510
88316W        W54857  25.638  42.523   3.217
88317W        W54858  10.843  14.258   4.821
88318W        W54859  40.725  33.539   0.974
88319W        W54860  42.138  13.308   9.839
88320W        W54861  40.503  10.839  11.072
88321W        W54862  40.330  22.554  14.503
88322W        W54863  44.241  31.124   0.446
88323W        W54864  34.581   2.043   1.591
88324W        W54865  21.147  35.124   5.056
88325W        W54866  33.462   6.392  11.647
88326W        W54867  41.561  34.479   4.478
88327W        W54868  40.453   3.856  10.732
88328W        W54869  26.419  38.593  14.343
88329W        W54870  22.245  18.331   4.746
88330W        W54871  40.338  39.412   1.424
88331W        W54872  31.035  14.755   5.102
88332W        W54873  23.621   7.937   4.965
88333W        W54874  42.858  17.351  10.690
88334W        W54875  34.977  29.000   0.400
88335W        W54876   4.408   1.175   4.690
88336W        W54877  12.882   9.654  12.386
88337W        W54878   5.509  14.119   0.002
88338W        W54879   9.317  41.570   9.860
88339W        W54880  19.846  37.670   3.297
88340W        W54881  20.792  25.638  11.560
88341W        W54882  44.957  11.324   4.154
88342W        W54883  29.162  26.506   2.842
88343W        W54884  15.022  38.750   0.064
88344W        W54885  39.608  43.704   1.078
88345W        W54886  17.789   9.556   3.759
88346W        W54887  24.642   8.078   0.893
88347W        W54888  16.248  15.166  13.822
88348W        W54889  37.149  37.754  13.773
88349W        W54890  16.233  24.676  12.322
88350W        W54891  14.756  26.640   0.780
88351W        W54892  37.962  13.423  12.123
88352W        W54893  15.093  41.807  14.404
88353W        W54894  20.092   5.937   3.655
88354W        W54895  39.408  25.708   3.043
88355W        W54896  30.416   5.444  11.260
88356W        W54897  31.135  40.452  14.944
88357W        W54898  25.030  36.786   0.838
88358W        W54899  23.941  12.744  10.690
88359W        W54900   8.183   2.929  14.318
88360W        W54901  28.629  12.415   0.495
88361W        W54902  17.052   0.748  10.894
88362W        W54903  23.467  38.533   3.649
88363W        W54904  27.432  15.514   4.164
88364W        W54905  36.844  15.552   3.216
88365W        W54906  18.727  12.333   1.016
88366W        W54907  32.830  26.293  12.626
88367W        W54908  23.572  34.011  11.999
88368W        W54909  14.128  22.452  12.154
88369W        W54910  44.831  39.911   4.715
88370W        W54911   5.727   6.820   1.447
88371W        W54912  27.965   9.007  11.965
88372W        W54913  20.240   8.203   3.910
88373W        W54914  40.298  36.913  12.609
88374W        W54915  19.334  22.277   2.416
88375W        W54916  34.504  14.626  12.092
88376W        W54917  12.626   2.472   1.020
88377W        W54918  31.437  14.123  13.399
88378W        W54919  16.925  40.580  13.112
88379W        W54920  38.557  18.140   0.438
88380W        W54921  15.054  22.051  12.664
88381W        W54922  42.670  22.150   4.100
88382W        W54923  21.663  32.070   0.409
88383W        W54924  36.579  34.468  13.987
88384W        W54925  25.246   4.417  13.962
88385W        W54926   0.128  17.308   2.728
88386W        W54927   6.197  26.849  11.959
88387W        W54928  19.703   0.822  13.586
88388W        W54929  28.632   6.856   0.857
88389W        W54930  13.506  14.111  10.114
88390W        W54931  44.608  27.004   3.013
88391W        W54932   2.352  10.731  12.068
88392W        W54933   7.291  10.880   4.640
88393W        W54934  26.135  39.959   4.810
88394W        W54935  32.156  14.679  13.441
88395W        W54936  40.481  28.657   4.861
88396W        W54937   0.440  44.268   1.318
88397W        W54938  30.483  31.949   2.848
88398W        W54939  30.994   0.386   2.096
88399W        W54940   2.950   6.797   2.784
88400W        W54941  21.888  22.769   3.621
88401W        W54942  11.238   3.513   2.753
88402W        W54943  21.733  12.842  14.408
88403W        W54944   4.375   8.987  13.903
88404W        W54945  32.708  26.131  10.549
88405W        W54946  29.903  10.709  12.854
88406W        W54947  23.409   7.864   5.450
88407W        W54948  38.792  15.482   1.425
88408W        W54949  20.537  25.730   2.414
88409W        W54950  11.667  15.616   5.152
88410W        W54951  15.302  19.656  12.957
88411W        W54952  31.104  33.584   3.216
88412W        W54953  41.366   1.027   3.242
88413W        W54954  16.145  29.159   2.135
88414W        W54955  12.479   2.966   2.662
88415W        W54956  18.759  35.336   3.075
88416W        W54957  24.261  36.108   1.208
88417W        W54958  39.816  16.577  11.159
88418W        W54959  24.011   7.717   1.388
88419W        W54960   8.175  28.130   3.268
88420W        W54961   3.891   4.478  14.495
88421W        W54962   8.199  12.693   2.601
88422W        W54963   1.881  29.445   2.828
88423W        W54964  41.493  15.261  12.480
88424W        W54965  24.784  36.326   2.727
88425W        W54966   3.289  18.162  12.597
88426W        W54967   8.108  31.090  13.988
88427W        W54968   7.402  15.145  12.532
88428W        W54969  40.744   3.395  10.621
88429W        W54970   3.354  10.276  12.806
88430W        W54971  15.871  19.147  12.155
88431W        W54972  39.689  22.709  11.982
88432W        W54973   3.066  23.914  12.286
88433W        W54974  44.994  37.847   2.234
88434W        W54975  27.202  33.471   0.732
88435W        W54976  32.827   4.297   3.089
88436W        W54977   1.383  11.285  12.434
88437W        W54978  28.252  23.707   2.141
88438W        W54979  36.445  16.466   4.185
88439W        W54980  38.527  38.252   0.435
88440W        W54981  13.393  35.336   3.711
88441W        W54982  25.519  27.275  13.332
88442W        W54983  44.729  39.298  11.403
88443W        W54984  13.873   5.875   1.269
88444W        W54985  35.778  40.309   1.440
88445W        W54986  44.453  39.269   3.791
88446W        W54987   1.366  30.337   0.449
88447W        W54988  37.475  14.247  14.765
88448W        W54989  18.995   8.906   1.698
88449W        W54990   6.118  26.538   1.843
88450W        W54991  19.820  10.214  10.721
88451W        W54992  18.572  34.301   0.534
88452W        W54993   7.829  34.441  14.612
88453W        W54994  14.819  16.550  12.613
88454W        W54995   6.424  28.447  14.985
88455W        W54996  12.572  32.775  11.039
88456W        W54997  26.685   6.982   4.374
88457W        W54998  27.795   7.839   2.701
88458W        W54999   6.464   0.702   1.817
88459W        W55000   1.300  37.394   2.168
88460W        W55001  41.539  16.620   0.005
88461W        W55002  39.606   3.833   1.860
88462W        W55003  26.140  24.644  14.987
88463W        W55004  15.315  26.107   4.112
88464W        W55005   2.296  27.181   3.131
88465W        W55006  34.736  29.707  12.648
88466W        W55007   7.107   9.924   3.855
88467W        W55008  26.573  34.122   1.266
88468W        W55009  30.872  19.156  13.058
88469W        W55010  16.218   1.887   3.449
88470W        W55011   1.514  20.543  12.653
88471W        W55012  14.594   3.357   2.856
88472W        W55013  42.929  18.957   3.798
88473W        W55014  23.854  27.012  12.812
88474W        W55015  29.114  26.221  10.619
88475W        W55016  26.861  18.143   1.922
88476W        W55017  28.608  39.807   1.750
88477W        W55018  12.518  23.240  11.156
88478W        W55019  17.719   0.185  12.935
88479W        W55020  29.836  19.102  12.797
88480W        W55021  13.343  29.081  11.966
88481W        W55022  24.662  18.548  10.716
88482W        W55023   5.828  34.527   3.143
88483W        W55024  36.636  35.450   3.145
88484W        W55025   5.941  16.897  12.442
88485W        W55026  30.924  19.831  13.972
88486W        W55027   7.219   1.676  10.310
88487W        W55028  43.963  30.111   2.390
88488W        W55029  23.717  26.754   4.242
88489W        W55030  38.843  27.074   2.694
88490W        W55031  37.629  14.867   2.470
88491W        W55032  43.823  40.282   4.092
88492W        W55033   6.708  29.058  12.105
88493W        W55034  19.845   3.667  13.069
88494W        W55035  41.451  40.824   4.382
88495W        W55036  20.856  37.435  14.363
88496W        W55037  24.880  31.735   2.750
88497W        W55038   7.643  42.030   3.168
88498W        W55039  33.637  32.929  11.272
88499W        W55040  20.479  28.709  14.270
88500W        W55041   2.825  40.313  13.986
88501W        W55042  11.433  29.527  13.102
88502W        W55043   7.058  37.039   3.879
88503W        W55044  33.017  33.541  13.825
88504W        W55045  18.763  34.502   2.847
88505W        W55046  29.490  16.617   0.705
88506W        W55047   7.811  12.123   1.537
88507W        W55048  41.386   9.168  12.081
88508W        W55049   5.056  11.270   4.743
88509W        W55050   1.732  32.605   1.736
88510W        W55051  37.561  35.007   0.974
88511W        W55052  21.627   8.736   0.104
88512W        W55053  16.966   3.701  11.578
88513W        W55054  23.476  41.893   0.263
88514W        W55055  17.177   3.786   2.257
88515W        W55056  18.799  25.871   1.458
88516W        W55057  35.022  23.546  13.415
88517W        W55058  25.288  33.319  13.234
88518W        W55059  24.622  24.023  11.688
88519W        W55060   3.409   6.846  11.869
88520W        W55061  35.461  13.425  13.464
88521W        W55062  42.534  26.061  10.742
88522W        W55063  24.169  40.178  12.466
88523W        W55064   3.420  38.903   1.436
88524W        W55065   5.664  13.671  14.410
88525W        W55066  12.174   7.405  13.436
88526W        W55067  15.887   6.029   4.197
88527W        W55068  12.317  12.689  12.896
88528W        W55069  22.599   3.475   1.770
88529W        W55070  36.767  26.007  12.434
88530W        W55071  18.346  18.288  10.914
88531W        W55072  28.023   1.204  14.637
88532W        W55073  14.390   9.416   0.385
88533W        W55074   8.313  17.606  13.947
88534W        W55075  35.449  28.101   4.527
88535W        W55076  37.090  15.079   3.287
88536W        W55077  13.389  25.569   0.798
88537W        W55078  30.337  36.465   3.289
88538W        W55079  27.912  44.345  10.504
88539W        W55080  40.038  19.215   4.199
88540W        W55081   6.207  23.505   4.315
88541W        W55082  17.848  31.672  10.385
88542W        W55083  26.562  16.158  12.621
88543W        W55084  14.425  11.946  10.956
88544W        W55085  21.137  16.278   4.430
88545W        W55086  24.147   2.403   2.372
88546W        W55087  24.150   6.898  14.067
88547W        W55088  31.862   9.399  10.653
88548W        W55089  26.169   4.473   2.764
88549W        W55090  41.897  31.200   0.326
88550W        W55091  36.092  17.486  11.121
88551W        W55092   0.936   3.970   4.542
88552W        W55093  21.022  17.023   0.934
88553W        W55094  24.092  14.482  12.595
88554W        W55095  26.212  30.431   0.939
88555W        W55096  15.590  31.432  13.820
88556W        W55097  37.350   8.848   4.669
88557W        W55098  23.028  29.573  14.455
88558W        W55099   4.786   5.777   4.008
88559W        W55100   1.526  13.779   2.859
88560W        W55101  13.095   5.751   1.741
88561W        W55102  20.764  21.252   2.680
88562W        W55103  24.217   3.986  12.742
88563W        W55104   9.327  22.782  11.181
88564W        W55105  42.347  24.572  13.802
88565W        W55106  44.308  35.926  10.365
88566W        W55107  19.844  40.500   9.809
88567W        W55108  37.062  29.075   4.351
88568W        W55109  24.730   4.407  12.887
88569W        W55110  40.445  27.402  13.335
88570W        W55111  12.289   5.963   3.399
88571W        W55112   3.258  28.647  12.021
88572W        W55113  35.639  39.241   3.358
88573W        W55114  34.134   0.536   0.208
88574W        W55115  12.217  13.820  11.110
88575W        W55116  21.247  36.335   1.154
88576W        W55117   2.168  13.607  13.367
88577W        W55118  40.063  12.127  13.967
88578W        W55119  33.038  18.303  10.685
88579W        W55120  35.401  31.209  11.170
88580W        W55121  24.193  23.173   4.837
88581W        W55122   2.286   4.006   1.828
88582W        W55123  40.810  27.079  12.090
88583W        W55124   9.221   8.675   4.740
88584W        W55125   7.649  32.377   0.506
88585W        W55126   0.180  34.575   0.449
88586W        W55127  42.081   4.011  11.461
88587W        W55128  18.690   6.353  13.273
88588W        W55129  12.893  41.863  10.748
88589W        W55130  13.114   3.805   0.530
88590W        W55131  19.271   8.379   4.165
88591W        W55132   4.465   2.507  13.002
88592W        W55133  14.677  19.377  14.542
88593W        W55134  10.121  25.612   1.905
88594W        W55135  41.078  16.166   4.634
88595W        W55136  16.031   8.576   4.120
88596W        W55137  31.662  37.614  10.379
88597W        W55138  39.140  29.331  14.801
88598W        W55139   8.366  28.344  13.214
88599W        W55140  10.876  33.635  13.039
88600W        W55141  14.112  10.875   1.403
88601W        W55142  33.962  36.464   1.962
88602W        W55143   6.452   0.324   0.064
88603W        W55144  33.660  26.854   1.792
88604W        W55145  30.264  11.066  11.573
88605W        W55146  37.417  39.114   4.631
88606W        W55147  11.198  12.316   2.790
88607W        W55148  36.502  41.719   4.208
88608W        W55149  41.057  39.330  11.191
88609W        W55150   0.985  12.652  12.095
88610W        W55151  37.475  40.132  11.463
88611W        W55152  40.807  42.733   1.308
88612W        W55153  27.467   0.791  14.733
88613W        W55154  23.928  36.841   4.249
88614W        W55155  16.214   4.209  11.868
88615W        W55156   8.441  42.024   0.694
88616W        W55157  25.456  32.812  12.520
88617W        W55158   9.630  19.106   1.749
88618W        W55159  26.097  40.717  10.690
88619W        W55160  33.307  10.105  11.256
88620W        W55161   5.212  20.313  11.419
88621W        W55162   6.731  21.718   4.587
88622W        W55163  27.204  38.404   4.365
88623W        W55164  42.101  19.547   3.689
88624W        W55165   6.794  36.227   3.794
88625W        W55166  39.751   6.453   4.599
88626W        W55167  24.509  15.059   3.441
88627W        W55168  32.050  22.525  12.574
88628W        W55169  43.214  16.241  11.200
88629W        W55170  21.641  20.853   4.703
88630W        W55171  13.765  12.696  13.432
88631W        W55172   2.986  38.840   1.735
88632W        W55173  10.891  26.303   4.305
88633W        W55174  30.929  31.450   4.375
88634W        W55175  31.617  15.553   3.781
88635W        W55176   7.172   7.243  13.280
88636W        W55177  39.830  25.617   2.130
88637W        W55178  39.192  25.238  11.179
88638W        W55179  11.639  14.288  13.762
88639W        W55180  16.341   2.475  13.459
88640W        W55181  43.115  15.002   2.229
88641W        W55182   5.361  35.788  10.646
88642W        W55183  40.751  35.852   4.416
88643W        W55184  14.656  21.154  14.090
88644W        W55185  30.945  15.331   9.733
88645W        W55186  37.543  33.002  11.532
88646W        W55187  15.152   5.807   3.675
88647W        W55188   4.886  42.106  13.582
88648W        W55189  10.937  24.428   0.765
88649W        W55190   5.777  14.169  10.916
88650W        W55191   1.736  36.868  14.564
88651W        W55192  31.556   5.706  12.806
88652W        W55193  16.227   0.439  12.883
88653W        W55194   2.867  34.569  14.771
88654W        W55195  40.040  19.162   1.258
88655W        W55196   2.393  35.115   2.353
88656W        W55197  22.684  23.927   2.882
88657W        W55198  11.259  34.921   0.792
88658W        W55199  40.723   4.963   5.046
88659W        W55200  15.741  27.988  13.025
88660W        W55201  23.986  42.380   2.737
88661W        W55202  32.427   5.386  11.176
88662W        W55203  41.085  39.521  14.220
88663W        W55204   5.221   7.463  13.911
88664W        W55205  27.662  40.069  14.877
88665W        W55206  35.828  23.216  14.896
88666W        W55207  34.823  20.636   4.148
88667W        W55208  16.168  30.983   1.865
88668W        W55209  12.034  14.158   0.831
88669W        W55210  34.025  14.332   0.744
88670W        W55211   6.970  10.338   1.204
88671W        W55212  23.372  13.095   3.330
88672W        W55213   7.672  32.876   3.094
88673W        W55214  29.456  35.081  11.590
88674W        W55215  26.062  44.035   0.285
88675W        W55216   3.775   9.231  14.145
88676W        W55217  39.343  10.340   0.118
88677W        W55218   2.863  15.628   2.947
88678W        W55219  18.836   5.206   1.359
88679W        W55220  33.400   9.497   2.146
88680W        W55221  40.183  43.151   3.195
88681W        W55222   8.712  28.497  11.519
88682W        W55223  38.551   0.492  11.006
88683W        W55224  22.219  33.874  10.581
88684W        W55225  36.319  30.615   0.860
88685W        W55226  35.506  26.532   0.325
88686W        W55227  17.869  23.768  10.865
88687W        W55228   9.165  35.256   2.188
88688W        W55229  40.708  26.462  14.245
88689W        W55230  37.263  22.431  14.404
88690W        W55231  24.172  13.264  13.977
88691W        W55232  44.842  10.275  11.683
88692W        W55233  26.553  33.516   4.463
88693W        W55234  39.786  38.388   0.759
88694W        W55235  43.254  26.533  11.225
88695W        W55236   8.634  37.485   4.611
88696W        W55237  35.984   0.338   2.397
88697W        W55238   7.119  14.111  10.495
88698W        W55239  31.972  21.548   1.216
88699W        W55240  26.031  40.870   4.426
88700W        W55241  12.264  19.527   1.881
88701W        W55242  41.910  21.271  13.578
88702W        W55243  20.538  39.472   1.003
88703W        W55244  33.071  44.941  10.624
88704W        W55245  35.404  40.295  13.022
88705W        W55246  17.949  25.273   1.405
88706W        W55247  18.561   8.301   2.747
88707W        W55248  28.894  32.531   4.463
88708W        W55249  17.177  28.955   0.933
88709W        W55250   9.233   3.255   2.597
88710W        W55251   6.753   7.726  13.344
88711W        W55252  30.563  19.683   1.182
88712W        W55253  29.499  14.965   1.114
88713W        W55254   5.405  26.135   2.913
88714W        W55255  42.221  34.611  13.950
88715W        W55256  39.717  27.659  13.840
88716W        W55257  17.159  38.376   4.314
88717W        W55258  34.987  35.449  11.828
88718W        W55259  42.303   1.991   4.049
88719W        W55260  43.929  43.813  12.180
88720W        W55261  27.245  30.072  14.410
88721W        W55262  21.736   3.376  10.814
88722W        W55263  28.044  36.666  10.228
88723W        W55264   4.018  22.128   3.840
88724W        W55265  38.659  37.908   1.841
88725W        W55266   9.465  27.350  14.398
88726W        W55267   8.268  11.669   3.842
88727W        W55268   4.880  22.688  13.367
88728W        W55269  16.822  16.160   0.352
88729W        W55270   6.751  17.317  14.435
88730W        W55271  15.756  33.397   1.177
88731W        W55272   6.248   4.651   1.714
88732W        W55273   6.888  43.976   2.373
88733W        W55274  35.932  36.573  12.508
88734W        W55275  28.062  14.610  12.483
88735W        W55276  17.779   8.923   2.202
88736W        W55277  13.441  23.264  13.941
88737W        W55278  42.443  36.337   2.120
88738W        W55279  21.629  34.625  14.595
88739W        W55280   5.770   9.687   3.325
88740W        W55281  10.615  30.857  14.340
88741W        W55282  42.393   3.488  11.282
88742W        W55283  39.529   2.473   1.036
88743W        W55284  35.858  33.776   3.680
88744W        W55285  17.148   8.973   4.189
88745W        W55286  33.844  40.884  13.393
88746W        W55287  38.136  43.942   3.557
88747W        W55288   4.403  21.254  10.600
88748W        W55289  28.461  20.436  12.076
88749W        W55290  26.009  21.508  13.916
88750W        W55291  34.045  41.361  12.735
88751W        W55292  13.022   7.440  12.008
88752W        W55293  28.586  24.703   3.393
88753W        W55294  35.149  26.626  10.192
88754W        W55295  12.399  22.557   2.805
88755W        W55296  23.962  13.591  10.964
88756W        W55297  30.507   2.241  11.573
88757W        W55298  14.707  29.937  13.532
88758W        W55299  20.193  14.861  13.116
88759W        W55300  41.479  28.454  11.206
88760W        W55301  42.970  30.953  14.038
88761W        W55302  12.156  19.307   3.470
88762W        W55303  17.750  30.062  11.690
88763W        W55304   3.410   9.358   3.127
88764W        W55305  17.562  34.001  10.705
88765W        W55306  40.405  10.678  12.697
88766W        W55307   7.713  41.208  11.995
88767W        W55308  20.017  30.144   2.152
88768W        W55309  33.401  37.780  10.596
88769W        W55310  21.841  13.188  14.019
88770W        W55311   3.816  27.007  11.877
88771W        W55312   7.244   6.787  11.690
88772W        W55313  14.165  43.307   2.561
88773W        W55314  18.478  24.640   4.575
88774W        W55315  44.242  12.860  11.607
88775W        W55316  10.372  13.288   1.266
88776W        W55317  29.530  19.678  10.782
88777W        W55318  14.698   6.150   0.407
88778W        W55319  37.570  42.355   1.017
88779W        W55320  13.175  21.482  12.395
88780W        W55321  30.264  11.607   5.543
88781W        W55322  37.824  17.972  10.618
88782W        W55323  23.521  35.651   0.969
88783W        W55324  38.724  21.993  11.897
88784W        W55325  39.245  21.219   4.376
88785W        W55326  20.349  32.191  13.805
88786W        W55327   9.217  35.047  12.585
88787W        W55328  12.857  14.644  11.893
88788W        W55329  10.873  20.570   3.168
88789W        W55330  39.338  43.009   1.447
88790W        W55331  18.772  37.024   3.732
88791W        W55332   7.651  25.604   4.056
88792W        W55333   7.803  23.188  14.455
88793W        W55334  37.401  36.037   4.163
88794W        W55335  37.442  24.316  14.761
88795W        W55336  43.959  30.652   2.375
88796W        W55337  27.878  24.024   3.441
88797W        W55338   9.402  32.809  10.706
88798W        W55339  44.382  37.939  13.859
88799W        W55340  40.951   9.931   3.224
88800W        W55341  31.146  29.148  13.474
88801W        W55342  18.086  22.484  10.683
88802W        W55343  35.066  26.278  11.536
88803W        W55344  11.728  42.518   0.926
88804W        W55345  44.350  13.629  11.037
88805W        W55346  11.560  40.512  14.894
88806W        W55347  33.166  32.712   1.954
88807W        W55348  29.566  21.993  10.222
88808W        W55349   4.043   2.484  12.069
88809W        W55350  40.933  20.216  14.359
88810W        W55351  15.600  11.582  11.379
88811W        W55352  21.471  19.638  11.677
88812W        W55353  28.148  11.265  14.231
88813W        W55354  32.855   4.609   0.397
88814W        W55355  36.059  21.722   4.094
88815W        W55356  16.023  20.594   3.662
88816W        W55357   2.764  35.856   2.449
88817W        W55358   0.420  12.064  13.434
88818W        W55359  36.905  32.977   4.812
88819W        W55360  37.015  30.360   3.209
88820W        W55361  15.166  25.007   1.222
88821W        W55362   3.520   6.890  10.381
88822W        W55363   5.292  16.357  13.896
88823W        W55364  42.135   9.646   0.449
88824W        W55365  20.868   7.580   1.352
88825W        W55366   7.422  37.965  12.549
88826W        W55367   9.381  28.688   2.950
88827W        W55368  44.672  26.197  12.066
88828W        W55369  21.877  33.612  13.564
88829W        W55370   9.698  21.818   3.144
88830W        W55371   3.460  31.409  13.982
88831W        W55372  25.704   0.026  11.234
88832W        W55373  13.202  38.777   2.846
88833W        W55374  41.863   2.943  14.901
88834W        W55375  39.957  16.531   1.763
88835W        W55376  26.713   6.950  12.363
88836W        W55377   9.301  34.793   0.496
88837W        W55378  24.169  10.761   2.591
88838W        W55379  22.837  15.247  14.055
88839W        W55380  19.844  11.460   2.849
88840W        W55381  25.667  11.636  14.255
88841W        W55382  21.080   8.726  11.676
88842W        W55383  20.730  26.138  11.728
88843W        W55384  20.137  37.025   3.433
88844W        W55385  30.428  25.501  10.646
88845W        W55386  25.770  25.460  13.445
88846W        W55387  22.033  24.572  11.208
88847W        W55388  28.628   5.352   1.377
88848W        W55389  42.037  32.951   4.325
88849W        W55390  11.149  34.566   3.222
88850W        W55391   0.175   1.501  11.755
88851W        W55392  24.476  39.655   3.602
88852W        W55393   5.211   9.723   4.195
88853W        W55394  21.161   6.112   1.873
88854W        W55395   1.726   4.958   1.276
88855W        W55396  41.728  10.477  10.590
88856W        W55397  35.470  14.998   3.411
88857W        W55398   8.130  36.360   1.361
88858W        W55399  23.536  36.880   2.247
88859W        W55400  42.872  22.720   3.155
88860W        W55401  41.810   1.251  11.920
88861W        W55402  34.575  39.208   1.374
88862W        W55403  23.253  41.073   1.770
88863W        W55404  15.954  20.511   1.003
88864W        W55405   1.195  11.387   4.568
88865W        W55406   0.470  24.054   2.630
88866W        W55407  19.252  14.609   3.247
88867W        W55408  39.020  27.367   4.008
88868W        W55409  32.942  37.972  11.733
88869W        W55410  22.720  34.056  13.604
88870W        W55411  41.547   9.196  13.346
88871W        W55412  21.182   0.666  10.752
88872W        W55413  34.055   1.340   1.816
88873W        W55414   1.042  11.801   3.719
88874W        W55415  39.287   4.977   1.347
88875W        W55416  33.861   1.955  13.021
88876W        W55417  13.283   3.250   1.335
88877W        W55418  11.771  33.444  12.830
88878W        W55419  12.317  35.014  13.324
88879W        W55420  22.615  17.596   4.483
88880W        W55421  28.897  14.328   3.563
88881W        W55422  16.755  18.968   2.874
88882W        W55423  22.114  19.592  13.836
88883W        W55424  41.276  26.418   9.960
88884W        W55425  24.292   5.440  11.775
88885W        W55426  23.623  34.845   1.426
88886W        W55427   0.056  38.798  10.561
88887W        W55428   9.791  43.415   3.189
88888W        W55429  44.276  38.990   3.313
88889W        W55430  29.650  18.865  14.251
88890W        W55431  19.326   3.911   1.848
88891W        W55432  35.844  23.042  14.424
88892W        W55433  39.701  11.040  12.133
88893W        W55434  23.085  19.784   4.943
88894W        W55435  36.541  31.122  12.441
88895W        W55436  12.361  33.125   3.007
88896W        W55437  31.546   6.021   2.161
88897W        W55438  23.401  34.108  12.459
88898W        W55439  33.251  13.883  10.635
88899W        W55440  40.343  37.949   1.416
88900W        W55441  11.912   5.383  14.770
88901W        W55442  21.311  41.880  11.128
88902W        W55443   7.117  30.139  13.447
88903W        W55444   9.584  14.351  11.298
88904W        W55445  14.103  11.659   1.832
88905W        W55446   9.310   7.372   1.804
88906W        W55447  44.661   1.034  12.641
88907W        W55448  23.622   3.820  13.901
88908W        W55449  26.894  18.184   4.321
88909W        W55450  23.070   8.159  11.032
88910W        W55451   4.827  15.577  13.807
88911W        W55452  30.625   1.562  13.065
88912W        W55453  17.445  34.424  12.502
88913W        W55454  23.258  19.974  11.003
88914W        W55455  23.102  44.248   2.947
88915W        W55456  36.961   3.732  13.426
88916W        W55457  35.033  43.459   4.603
88917W        W55458  33.478  31.255   0.303
88918W        W55459  24.631  32.665   4.571
88919W        W55460   5.750  44.703   4.260
88920W        W55461  21.579  32.162   3.144
88921W        W55462  19.047  23.431  13.514
88922W        W55463  39.919  30.438  13.217
88923W        W55464  39.238  31.369  14.797
88924W        W55465  12.238  39.249   1.144
88925W        W55466  40.746   1.125  14.320
88926W        W55467  28.533   6.206  11.385
88927W        W55468  26.952  30.886   3.111
88928W        W55469   8.945  17.411   0.455
88929W        W55470  23.078  33.609   0.157
88930W        W55471  43.445   9.135   1.975
88931W        W55472  41.466   4.780   3.590
88932W        W55473  19.763  21.523   1.951
88933W        W55474  17.501  18.176  10.710
88934W        W55475  33.656  20.677  11.573
88935W        W55476  38.853  36.069   0.240
88936W        W55477  21.769  33.561  12.157
88937W        W55478  43.235  13.411  11.126
88938W        W55479  23.048  16.270  13.239
88939W        W55480  14.788   3.629   2.438
88940W        W55481  26.520  30.176   0.571
88941W        W55482  18.040   4.782  13.810
88942W        W55483  39.378   8.383   4.497
88943W        W55484  26.831   7.722  11.316
88944W        W55485  39.068  26.131  13.427
88945W        W55486  39.402  30.550  13.262
88946W        W55487   8.625   2.281  12.910
88947W        W55488  42.802  35.025  14.423
88948W        W55489  39.987  14.847  12.951
88949W        W55490  22.643  27.192   3.536
88950W        W55491  34.810  25.205   2.250
88951W        W55492  10.105  28.373  14.074
88952W        W55493  12.604  23.531   3.782
88953W        W55494   8.346  20.523  14.001
88954W        W55495  35.636   3.291  13.376
88955W        W55496   5.363  40.617   2.955
88956W        W55497  10.043  39.767   3.659
88957W        W55498  41.037  11.101  10.263
88958W        W55499  42.024  37.486   1.824
88959W        W55500  20.128  30.185   4.323
88960W        W55501  27.595  29.675  12.605
88961W        W55502  38.648  30.038   2.475
88962W        W55503  13.871   6.620   2.817
88963W        W55504  42.932  23.598  12.099
88964W        W55505   4.271  43.538  10.443
88965W        W55506  33.668  13.084   2.848
88966W        W55507  31.721  25.217   0.087
88967W        W55508  16.238  11.359  11.045
88968W        W55509   0.981  24.656  12.349
88969W        W55510  13.335  12.713  12.660
88970W        W55511  36.652   6.675   0.284
88971W        W55512  36.174  15.438   4.161
88972W        W55513   0.301  27.518   2.716
88973W        W55514  26.785   8.711  10.646
88974W        W55515  43.928  33.253   3.065
88975W        W55516  38.726  26.949  13.100
88976W        W55517   4.949  22.578  14.282
88977W        W55518   0.426   3.362  13.341
88978W        W55519  39.886  24.224   0.448
88979W        W55520  37.319  41.024  12.395
88980W        W55521  25.728   7.148   4.175
88981W        W55522  14.108   4.510  14.841
88982W        W55523  33.451  39.486  11.927
88983W        W55524   8.122  10.965  11.555
88984W        W55525  22.276   3.303   0.031
88985W        W55526  26.215  16.503  13.583
88986W        W55527  27.024  37.599   0.391
88987W        W55528  27.736  30.158   4.744
88988W        W55529  19.039  27.040   0.734
88989W        W55530  17.054   1.954   2.331
88990W        W55531   1.667   8.658  12.360
88991W        W55532  32.049   2.477  13.530
88992W        W55533  37.380   1.107   4.910
88993W        W55534  25.284  22.665   3.185
88994W        W55535  35.728  14.757  12.362
88995W        W55536  29.887  18.320   3.201
88996W        W55537   8.047  13.691   4.544
88997W        W55538  18.672  40.364  12.607
88998W        W55539  27.099  40.951   3.281
88999W        W55540   4.846  27.492  10.161
89000W        W55541  42.841  14.128   0.451
89001W        W55542  14.679  42.577  13.000
89002W        W55543  37.193  41.594   4.201
89003W        W55544  16.041  11.332  11.535
89004W        W55545  28.364   4.341  14.820
89005W        W55546  35.864  13.361  13.964
89006W        W55547  33.552  22.274  12.901
89007W        W55548  13.764  31.629  12.018
89008W        W55549   7.494  37.457   0.339
89009W        W55550  21.665  10.211   3.927
89010W        W55551   0.826  33.143   1.797
89011W        W55552  24.510   4.918  12.942
89012W        W55553   6.401  38.023  10.018
89013W        W55554  26.388  32.062   3.568
89014W        W55555  21.171  37.513  10.615
89015W        W55556  44.461   2.739  12.419
89016W        W55557  38.994   5.390   3.182
89017W        W55558  31.448  18.664   1.767
89018W        W55559  41.868   0.423  12.883
89019W        W55560   8.339  23.539  10.636
89020W        W55561  38.618  20.045   0.287
89021W        W55562  20.153  20.247  10.741
89022W        W55563  21.565  30.629   3.606
89023W        W55564  23.703  29.731  12.318
89024W        W55565   1.285  41.227  12.112
89025W        W55566  27.223  38.893  11.602
89026W        W55567  27.493  42.447  12.104
89027W        W55568  35.159  10.121   0.451
89028W        W55569   6.774  16.730   1.182
89029W        W55570  34.325  21.613   2.886
89030W        W55571   8.639  18.236   3.181
89031W        W55572   8.614  19.090  11.964
89032W        W55573   3.733  22.994  14.807
89033W        W55574   9.263  14.097  10.967
89034W        W55575   7.446  21.062   4.799
89035W        W55576  18.946  34.383  11.624
89036W        W55577  12.756   2.446  13.985
89037W        W55578  20.071  38.620   4.095
89038W        W55579  34.281  22.073   2.635
89039W        W55580  27.948  22.001   0.431
89040W        W55581  34.416  27.738   3.256
89041W        W55582   4.035  21.770  11.191
89042W        W55583  32.937  23.665   3.150
89043W        W55584   1.391   5.554  11.634
89044W        W55585  14.179  30.177  12.558
89045W        W55586  27.864   8.048   1.721
89046W        W55587  35.261  42.439  13.616
89047W        W55588  26.973  15.548   2.377
89048W        W55589  26.655  35.924  14.390
89049W        W55590  13.166  18.990   1.010
89050W        W55591  20.262  19.882   1.426
89051W        W55592  38.371  22.025  14.430
89052W        W55593  31.442  16.035  11.489
89053W        W55594   3.316  38.796  11.268
89054W        W55595   2.932   8.684   1.075
89055W        W55596   3.684   3.858   0.885
89056W        W55597  27.002  17.988  13.467
89057W        W55598  39.286  25.730   0.375
89058W        W55599  29.562  39.171   3.669
89059W        W55600   1.730   5.299  13.355
89060W        W55601  16.195  12.401  10.321
89061W        W55602  41.259  15.356  12.917
89062W        W55603   5.756  26.449  11.823
89063W        W55604  31.052  37.836  11.047
89064W        W55605   2.161   4.456  11.046
89065W        W55606  29.905  35.950   1.361
89066W        W55607  42.968   8.694  10.641
89067W        W55608  34.243  44.732  11.145
89068W        W55609  19.496  31.303   3.291
89069W        W55610   0.503  31.374   0.207
89070W        W55611  35.953  34.688   3.310
89071W        W55612  30.158  26.305   2.912
89072W        W55613  27.486  36.075   1.982
89073W        W55614  21.536  41.800  13.773
89074W        W55615   7.360  29.640  12.112
89075W        W55616  28.324   8.411  13.084
89076W        W55617  41.585   8.963   0.971
89077W        W55618  37.599  12.379   0.759
89078W        W55619  39.243  20.293   4.616
89079W        W55620  19.294  21.234  10.665
89080W        W55621  20.981   3.465   0.433
89081W        W55622   3.088   7.769  14.442
89082W        W55623   7.284  10.196  13.619
89083W        W55624  13.742  25.430  14.514
89084W        W55625  44.254  26.062   0.739
89085W        W55626  18.769  31.577   2.642
89086W        W55627  35.232  14.784  12.566
89087W        W55628  28.185   0.715  14.766
89088W        W55629  11.716  29.782   1.357
89089W        W55630  24.749  43.759   4.186
89090W        W55631  36.641  10.341  10.360
89091W        W55632  11.854  40.744   2.119
89092W        W55633   7.369  21.519  13.456
89093W        W55634  32.802  41.608   2.349
89094W        W55635  44.660  34.484   0.357
89095W        W55636  30.670  22.260  13.450
89096W        W55637  17.967  23.182  12.563
89097W        W55638  33.519   4.452   4.559
89098W        W55639  25.286   4.980  10.087
89099W        W55640  25.169  31.265   0.928
89100W        W55641  24.213  39.344  12.862
89101W        W55642  27.239   3.831  14.368
89102W        W55643  11.365   7.074   0.571
89103W        W55644  28.009   3.799  10.475
89104W        W55645  17.340  18.156  12.933
89105W        W55646   7.826   1.316  14.454
89106W        W55647  38.506  21.492   5.001
89107W        W55648  23.182  20.244  12.364
89108W        W55649  26.942  36.400  13.960
89109W        W55650  19.158  30.605   0.301
89110W        W55651   2.985  22.498   1.795
89111W        W55652  30.347  13.468   1.396
89112W        W55653  15.618  13.350  12.465
89113W        W55654  19.328   7.709  14.314
89114W        W55655  29.952  25.224   4.860
89115W        W55656  32.854  31.450  12.559
89116W        W55657   6.436  17.168   2.630
89117W        W55658   2.335  26.823   2.763
89118W        W55659   8.706  22.110   3.292
89119W        W55660  19.090  27.881  13.055
89120W        W55661  40.205   1.429   4.715
89121W        W55662  12.055  33.919  14.820
89122W        W55663   0.687  38.635   3.764
89123W        W55664  38.404  17.949   1.296
89124W        W55665  28.221  41.379   1.923
89125W        W55666   6.613  31.816  11.593
89126W        W55667  32.119  34.854  12.934
89127W        W55668  36.030  44.003  14.924
89128W        W55669  39.073   3.997  11.941
89129W        W55670  40.533  10.205  12.847
89130W        W55671  18.897  17.234  10.578
89131W        W55672  31.900  41.584   2.836
89132W        W55673  42.383  28.931  13.464
89133W        W55674  11.755  10.860   3.823
89134W        W55675  28.878  39.255  14.785
89135W        W55676  41.404  27.188  13.907
89136W        W55677  24.304  41.569   2.222
89137W        W55678  40.194   8.449   3.253
89138W        W55679  37.470  25.953  14.048
89139W        W55680  23.465  36.591   3.171
89140W        W55681  36.074  39.961   0.628
89141W        W55682  30.929  24.199   1.215
89142W        W55683  39.417   1.446   4.279
89143W        W55684   6.845  26.551  11.424
89144W        W55685  43.790   6.905   3.471
89145W        W55686  16.329  37.842   1.963
89146W        W55687  18.005  20.255   1.263
89147W        W55688  28.180  43.692  12.039
89148W        W55689   5.879  10.377   4.074
89149W        W55690  13.248  27.615  10.756
89150W        W55691  29.307  39.056  14.970
89151W        W55692  17.114  13.247  11.647
89152W        W55693  41.791  11.616   4.092
89153W        W55694  41.839  30.247  14.479
89154W        W55695  10.573   7.608  13.014
89155W        W55696  21.219  17.148   0.459
89156W        W55697  28.484  21.071  14.150
89157W        W55698  27.762  42.291  13.076
89158W        W55699  38.493   1.497   1.486
89159W        W55700  44.835   0.030  12.568
89160W        W55701   5.803   0.211   3.106
89161W        W55702  25.939  11.095   4.069
89162W        W55703  29.181   7.712  14.450
89163W        W55704  37.028  24.689   4.419
89164W        W55705  21.300  34.365  13.859
89165W        W55706  13.386   5.948   0.454
89166W        W55707  42.665   2.326  13.261
89167W        W55708  18.321  42.322   3.172
89168W        W55709  22.776  36.082  14.913
89169W        W55710  30.396  15.896   4.268
89170W        W55711  29.399  40.090   3.765
89171W        W55712   5.767   8.125   2.264
89172W        W55713  34.383  17.970   4.101
89173W        W55714  36.043   5.857   0.203
89174W        W55715   9.611  32.010   2.636
89175W        W55716   1.963  14.729  14.283
89176W        W55717  26.198   9.412  11.074
89177W        W55718  31.875  17.169  14.652
89178W        W55719   5.398  15.529  14.934
89179W        W55720   7.687  42.489   4.181
89180W        W55721  34.603  42.553  13.967
89181W        W55722  14.768   8.458   3.644
89182W        W55723  34.065  18.304   1.883
89183W        W55724  35.424  22.583  12.101
89184W        W55725   9.030  13.557   3.818
89185W        W55726  35.422  14.766   4.415
89186W        W55727  13.691  12.044   0.964
89187W        W55728  11.283   0.986  12.277
89188W        W55729  25.180  11.009   4.154
89189W        W55730  19.512  40.564  12.135
89190W        W55731  35.093  44.940  13.869
89191W        W55732   6.298  28.897  13.299
89192W        W55733   5.764  24.492   1.542
89193W        W55734  22.684  42.328   1.404
89194W        W55735   7.776  23.766  12.988
89195W        W55736  38.535  21.829  12.993
89196W        W55737   7.807   0.985   4.142
89197W        W55738   9.580  40.987  14.828
89198W        W55739  14.108   2.431   0.006
89199W        W55740   6.945  25.372   2.738
89200W        W55741  18.783  27.643  13.487
89201W        W55742  42.102  30.550  14.938
89202W        W55743   5.828   6.297   2.037
89203W        W55744  12.283   9.914   3.123
89204W        W55745  10.731  16.821  13.806
89205W        W55746  12.525   4.502  13.069
89206W        W55747   1.169  28.402   1.812
89207W        W55748  31.636  17.989  13.840
89208W        W55749  44.180   2.728   4.244
89209W        W55750  41.862  30.469   2.332
89210W        W55751  25.423  11.195  10.552
89211W        W55752  29.114  27.852  13.352
89212W        W55753  37.335  17.149   3.758
89213W        W55754  39.331  12.348  13.385
89214W        W55755  25.727  24.529   1.352
89215W        W55756  42.438  22.242  13.877
89216W        W55757  19.965  38.322   1.435
89217W        W55758  31.019  14.344  11.209
89218W        W55759  43.539  27.117  11.626
89219W        W55760  34.874  27.686  12.568
89220W        W55761  26.156  10.729   1.334
89221W        W55762  31.558   0.983   2.047
89222W        W55763  18.287   4.255   2.897
89223W        W55764   8.480  19.018  11.070
89224W        W55765   2.052  25.117  10.256
89225W        W55766  38.973   3.261  11.177
89226W        W55767  41.522  35.633  13.397
89227W        W55768  10.429  24.740   2.769
89228W        W55769  27.471  10.609   1.089
89229W        W55770  11.628  34.033  12.511
89230W        W55771   7.887  27.507   0.592
89231W        W55772   0.266  35.766   2.589
89232W        W55773  38.107  16.739   1.458
89233W        W55774  36.521   6.980  12.368
89234W        W55775   9.560   6.875   3.639
89235W        W55776   9.794  17.527   1.315
89236W        W55777  32.986  11.132   1.680
89237W        W55778   8.819   9.244   3.056
89238W        W55779  10.802  41.156  13.679
89239W        W55780   3.926   3.633  13.382
89240W        W55781  20.696  27.751   2.789
89241W        W55782   8.730  18.789   0.152
89242W        W55783  20.230  29.016   0.514
89243W        W55784  15.189  34.070  11.745
89244W        W55785  34.061   4.274  12.443
89245W        W55786  20.745   0.885   4.120
89246W        W55787  11.952   3.684  12.452
89247W        W55788   0.786  28.506  13.339
89248W        W55789  35.516  29.153  14.534
89249W        W55790  25.233  32.425   0.644
89250W        W55791   4.083   1.696   1.252
89251W        W55792  41.023   9.183  13.526
89252W        W55793  24.764  31.614  11.700
89253W        W55794  41.397  28.523  11.687
89254W        W55795   7.294  21.526   2.269
89255W        W55796  26.058  40.852   1.430
89256W        W55797  34.350  25.224  12.418
89257W        W55798  34.789  27.245  11.849
89258W        W55799  41.649  44.430  14.383
89259W        W55800  19.927  41.998   2.226
89260W        W55801  13.044  15.828   0.401
89261W        W55802   0.249   4.294   3.246
89262W        W55803  38.277  19.186  14.309
89263W        W55804   7.405  22.097   2.891
89264W        W55805  37.905  43.099   4.774
89265W        W55806  44.981  39.008   4.780
89266W        W55807   8.659  38.495  12.532
89267W        W55808  13.259   6.751  11.125
89268W        W55809  31.883  26.607  13.849
89269W        W55810   8.375   4.967   3.335
89270W        W55811  16.203  11.299   2.777
89271W        W55812  25.899  17.032  13.582
89272W        W55813  10.814  29.154   4.890
89273W        W55814  41.618  17.693  11.892
89274W        W55815  39.742   5.903   3.837
89275W        W55816  27.665  35.370  12.542
89276W        W55817  13.839  36.702  13.286
89277W        W55818  24.997  37.474  11.507
89278W        W55819  25.497  10.838   2.777
89279W        W55820  32.373   4.434  11.391
89280W        W55821  20.619   5.877   4.950
89281W        W55822  42.279  43.919   3.303
89282W        W55823  15.024  38.162  13.105
89283W        W55824  24.053  43.709   0.313
89284W        W55825  44.154  42.513  11.012
89285W        W55826  25.288   9.940  13.381
89286W        W55827  44.949  29.747   2.196
89287W        W55828  40.842  44.187   4.612
89288W        W55829  25.187   0.675   1.297
89289W        W55830  27.109  23.816  14.786
89290W        W55831  30.491   8.464   2.756
89291W        W55832  30.683  10.903  14.273
89292W        W55833  16.068  42.965   3.987
89293W        W55834  15.183  39.457  14.824
89294W        W55835  41.811  32.083  12.922
89295W        W55836  36.878  23.034  10.664
89296W        W55837  15.596  13.311  14.210
89297W        W55838  36.731  32.870  14.418
89298W        W55839  12.941   6.934   2.774
89299W        W55840   3.334  31.587  11.747
89300W        W55841   5.022   7.321   4.718
89301W        W55842   0.309   2.040  10.961
89302W        W55843   9.803  32.127   1.698
89303W        W55844  15.756  35.303  11.094
89304W        W55845  34.391  43.776   0.970
89305W        W55846  20.272   7.665  13.601
89306W        W55847  38.762  15.648  13.481
89307W        W55848  25.620  32.664   0.892
89308W        W55849  20.867   5.128  12.945
89309W        W55850  18.875  41.269  12.443
89310W        W55851  19.687  13.123  10.593
89311W        W55852   3.788  44.119   4.645
89312W        W55853  21.078  21.238  14.198
89313W        W55854   8.315  18.254  10.714
89314W        W55855  26.109  19.749   3.657
89315W        W55856  38.636  26.891   0.349
89316W        W55857  34.388   0.286  13.141
89317W        W55858  31.367   0.645  12.081
89318W        W55859   5.201   2.410  14.403
89319W        W55860  44.568  38.555   4.151
89320W        W55861  22.294  14.479  13.843
89321W        W55862  28.362  29.593  14.443
89322W        W55863   3.162   9.235  12.198
89323W        W55864  11.298  19.299  14.766
89324W        W55865  40.074   7.640  10.726
89325W        W55866  40.590  32.976   4.149
89326W        W55867   6.216  30.999  14.948
89327W        W55868  13.287  33.670  11.626
89328W        W55869  32.391  18.086  11.392
89329W        W55870   4.590  23.081  12.135
89330W        W55871   8.650  41.532  12.472
89331W        W55872  10.800  17.836  14.816
89332W        W55873  28.802  17.721  12.625
89333W        W55874  43.822   1.353  13.146
89334W        W55875  16.007  37.733   4.903
89335W        W55876   2.664  28.047   2.579
89336W        W55877  13.609  18.278   0.451
89337W        W55878  24.265  22.671   4.663
89338W        W55879   2.339   5.279   3.701
89339W        W55880  24.196   0.471  13.036
89340W        W55881  24.245   2.341   1.464
89341W        W55882   3.384  35.987   0.745
89342W        W55883   2.531   0.646  13.166
89343W        W55884   8.388  35.134  13.031
89344W        W55885  20.778  40.615   0.513
89345W        W55886  37.821  19.790  13.766
89346W        W55887  34.646   1.796   3.644
89347W        W55888   2.972  38.011   2.178
89348W        W55889  19.800   8.320   0.825
89349W        W55890  40.487  25.041  13.018
89350W        W55891  10.887  32.160  11.577
89351W        W55892   2.439  37.318   3.585
89352W        W55893  28.587  32.398   3.236
89353W        W55894  41.485  22.202  12.551
89354W        W55895  23.976  16.319  12.340
89355W        W55896   7.241  23.253   0.061
89356W        W55897  21.235  12.867  13.485
89357W        W55898  18.921  26.222  11.249
89358W        W55899  14.608  25.227   3.281
89359W        W55900  25.738   6.469  10.225
89360W        W55901  25.143  21.960   2.759
89361W        W55902  34.158   2.852   0.547
89362W        W55903  16.078  36.564  12.534
89363W        W55904   6.670  11.217   1.263
89364W        W55905   4.770  31.120   3.303
89365W        W55906   7.111  14.665   2.152
89366W        W55907  32.005   3.739  12.385
89367W        W55908  23.224  12.662   3.600
89368W        W55909  20.301  30.563   1.980
89369W        W55910  24.180  43.852   2.165
89370W        W55911   9.155  21.449   0.111
89371W        W55912  20.127  30.141  11.829
89372W        W55913   0.848  30.373  14.879
89373W        W55914  28.703  13.766   1.531
89374W        W55915   1.794  16.577   0.247
89375W        W55916  35.608   3.953   2.425
89376W        W55917  36.724  41.434  13.993
89377W        W55918   1.284  32.930  11.019
89378W        W55919  43.272  43.428  10.594
89379W        W55920  19.730  37.601  10.787
89380W        W55921   3.956   5.931   3.478
89381W        W55922  36.751  23.429  11.605
89382W        W55923  42.835   6.789   2.430
89383W        W55924  42.797  21.738  10.869
89384W        W55925   5.771  38.867  10.781
89385W        W55926  20.174  22.584   1.541
89386W        W55927  13.218   0.212   3.073
89387W        W55928  10.533   1.790  14.214
89388W        W55929  11.841   3.956  14.771
89389W        W55930  21.163   6.191  12.350
89390W        W55931   5.345  40.337  14.932
89391W        W55932  28.456  19.166   3.917
89392W        W55933  22.209  39.830  14.523
89393W        W55934  17.791   6.906   4.091
89394W        W55935  33.584  35.515  12.046
89395W        W55936  23.707  42.245  12.939
89396W        W55937  12.776  44.894   2.893
89397W        W55938  30.913  14.874  12.084
89398W        W55939  19.798  35.597  12.156
89399W        W55940  22.535  43.283  13.446
89400W        W55941  34.283  44.788  12.963
89401W        W55942  44.304  21.085  13.329
89402W        W55943  12.127  24.492  10.675
89403W        W55944  24.265   5.319   0.877
89404W        W55945  42.738  42.104   2.666
89405W        W55946  25.556  39.645   2.135
89406W        W55947  23.453  23.129   3.287
89407W        W55948  34.743  41.524  13.479
89408W        W55949   1.462  38.797   0.872
89409W        W55950  37.782   6.771   4.765
89410W        W55951  14.588  43.190  10.901
89411W        W55952  32.037  32.039  13.479
89412W        W55953  43.759  24.961  11.154
89413W        W55954  26.259  36.905  13.164
89414W        W55955  16.469  13.337  13.861
89415W        W55956  23.783  14.317  10.513
89416W        W55957  14.872  13.398   9.978
89417W        W55958   0.394  18.491   1.793
89418W        W55959  30.766  23.604  13.473
89419W        W55960  29.054  36.615  12.822
89420W        W55961  44.676  43.428   4.904
89421W        W55962  31.379  15.575   4.244
89422W        W55963  11.122  27.789   0.293
89423W        W55964  40.105   8.888   2.690
89424W        W55965  37.573  27.723   3.160
89425W        W55966  42.328  35.836  11.104
89426W        W55967  10.197  31.010  12.217
89427W        W55968  15.696  34.407  12.042
89428W        W55969  24.930  14.937  10.711
89429W        W55970  38.186  44.034  11.107
89430W        W55971   4.557   6.735   2.818
89431W        W55972  18.951  22.816  11.945
89432W        W55973  14.724  38.294  12.081
89433W        W55974  23.806  34.678   0.969
89434W        W55975   8.282   8.940   1.785
89435W        W55976  33.098  16.710  14.593
89436W        W55977  24.962  35.407   1.796
89437W        W55978  37.539  22.582  13.078
89438W        W55979  25.448  21.760   4.151
89439W        W55980  22.643  14.828   1.804
89440W        W55981  25.732   2.910  13.685
89441W        W55982  19.857  15.245  12.617
89442W        W55983  23.071   9.896  11.848
89443W        W55984  12.982  30.771   9.865
89444W        W55985  42.584  24.003  10.688
89445W        W55986  31.883  43.258   0.865
89446W        W55987   1.653   6.645  14.866
89447W        W55988  36.089   1.360  14.774
89448W        W55989  35.958  24.061   3.837
89449W        W55990   7.705  32.562  14.985
89450W        W55991  11.110  16.840  14.926
89451W        W55992  31.381  31.017  13.574
89452W        W55993  12.727  11.619  13.504
89453W        W55994  19.543   1.696  12.977
89454W        W55995   9.642  35.983   1.754
89455W        W55996  44.515  26.098   0.248
89456W        W55997  33.549  42.014   4.726
89457W        W55998  35.293  22.689   3.623
89458W        W55999   3.558   3.678  13.016
89459W        W56000  24.531  16.521   3.623
89460W        W56001  41.811  25.536   2.720
89461W        W56002  41.944  40.057   4.567
89462W        W56003  28.827   8.919   2.183
89463W        W56004  35.273   5.042  12.862
89464W        W56005   5.151  18.372  11.356
89465W        W56006   2.935  34.847  10.617
89466W        W56007  36.649  20.757   4.100
89467W        W56008  37.539  43.358   5.079
89468W        W56009  27.425   6.674  10.700
89469W        W56010  36.788  30.152  10.750
89470W        W56011  17.878  42.791   3.141
89471W        W56012  11.745  43.029   0.846
89472W        W56013   9.054  22.548  10.402
89473W        W56014  10.086  18.020  11.332
89474W        W56015  25.640   2.423  13.004
89475W        W56016   1.408  36.453  13.511
89476W        W56017  34.542  30.515   4.240
89477W        W56018  17.406  23.622   2.323
89478W        W56019   5.011  29.478   1.756
89479W        W56020  19.320  18.659  12.623
89480W        W56021  33.671  11.808   4.430
89481W        W56022  41.845  28.833   4.841
89482W        W56023  10.391  42.970  14.005
89483W        W56024  30.943  26.231   1.255
89484W        W56025  34.176   5.291   4.612
89485W        W56026  23.027   4.796   0.497
89486W        W56027   4.132  14.218   0.923
89487W        W56028  29.984  18.220   0.784
89488W        W56029  20.248  24.007  11.216
89489W        W56030  15.776  29.881  10.694
89490W        W56031  12.179  29.738   3.452
89491W        W56032   6.615  15.745  10.767
89492W        W56033  38.621  19.531  10.933
89493W        W56034  41.948   7.419  12.066
89494W        W56035  15.689   7.001  11.143
89495W        W56036  20.118  26.949  13.334
89496W        W56037  23.488  34.265   0.779
89497W        W56038  11.237  30.995  11.214
89498W        W56039  35.067   4.914   2.070
89499W        W56040  37.884  24.699  13.855
89500W        W56041  33.502  13.794  11.080
89501W        W56042  36.535   2.879  13.652
89502W        W56043  27.539  41.236   1.296
89503W        W56044  25.504  11.095   0.451
89504W        W56045   5.807  28.068   2.785
89505W        W56046  25.014  18.202  12.898
89506W        W56047  15.993  18.140   4.694
89507W        W56048  37.331   0.220  13.336
89508W        W56049  29.944  29.489   4.018
89509W        W56050  26.169  29.640  10.729
89510W        W56051   9.870  21.976  14.450
89511W        W56052  18.706  44.603   4.346
89512W        W56053   6.348  15.986  12.947
89513W        W56054  39.322   6.693   2.059
89514W        W56055  32.320   1.490  14.522
89515W        W56056  31.102  20.453  12.450
89516W        W56057  39.349  26.981  13.135
89517W        W56058   3.428  21.947   4.660
89518W        W56059   6.340  10.936   3.522
89519W        W56060  22.252  33.037  12.656
89520W        W56061  19.580  11.881  14.365
89521W        W56062  35.284   1.180   0.262
89522W        W56063  30.180  11.782  12.008
89523W        W56064   9.570  44.919   2.724
89524W        W56065  30.198  19.316  13.742
89525W        W56066  22.945   0.433   3.046
89526W        W56067  14.646  14.277   3.473
89527W        W56068  21.017  24.671   0.774
89528W        W56069   5.492  14.025   2.700
89529W        W56070   0.692   7.252   0.779
89530W        W56071   4.291  14.701  14.808
89531W        W56072  23.670  20.501   1.742
89532W        W56073  19.208  37.131  12.040
89533W        W56074  21.909  13.118   0.725
89534W        W56075  43.444  20.148  12.449
89535W        W56076  30.434  15.344  11.277
89536W        W56077  34.493  14.280   0.101
89537W        W56078  41.493  12.809  14.758
89538W        W56079  27.570   7.433  11.809
89539W        W56080  34.025  42.013   3.798
89540W        W56081  20.539  17.644   2.851
89541W        W56082  22.636  14.567  11.700
89542W        W56083  26.894  35.966   1.151
89543W        W56084  42.498  37.779  13.707
89544W        W56085  15.858  12.322   1.296
89545W        W56086  30.073  13.308  11.878
89546W        W56087   1.031  38.094   3.221
89547W        W56088  14.313  11.132   2.725
89548W        W56089  23.705  38.649   4.106
89549W        W56090   2.745  42.248   2.436
89550W        W56091  38.914   8.332   4.225
89551W        W56092   3.499  44.962   1.304
89552W        W56093   6.340  34.079   3.649
89553W        W56094  34.483  31.163   2.124
89554W        W56095  37.904   7.333   0.962
89555W        W56096  44.903  10.134  13.629
89556W        W56097  26.642   1.059   1.001
89557W        W56098  16.869  19.361   3.188
89558W        W56099  10.252  38.749   4.208
89559W        W56100  38.038  15.096   2.215
89560W        W56101  15.450   0.550   4.120
89561W        W56102  12.416  13.217  12.865
89562W        W56103   5.931  28.689  13.987
89563W        W56104   0.868  23.166   1.036
89564W        W56105  11.162   2.224   2.816
89565W        W56106  31.594  19.493   2.686
89566W        W56107   8.868  32.763  10.761
89567W        W56108  14.207  19.723  12.295
89568W        W56109   2.114  17.326  11.606
89569W        W56110   1.802  43.305  12.379
89570W        W56111  42.761  37.070  12.198
89571W        W56112   2.206  30.045   1.482
89572W        W56113   8.766   2.108  13.370
89573W        W56114  20.445  36.496  11.672
89574W        W56115  16.142  18.698  10.573
89575W        W56116  35.664  11.694  10.816
89576W        W56117   7.153  15.198  11.913
89577W        W56118   3.871   5.490  11.532
89578W        W56119  11.748  19.188   0.013
89579W        W56120  20.013  18.915  10.543
89580W        W56121  18.703  31.740   1.184
89581W        W56122  24.182  18.147   2.698
89582W        W56123  43.299  44.774  14.763
89583W        W56124  35.647  16.859   3.163
89584W        W56125   6.928   9.071  10.764
89585W        W56126  26.210   2.313  13.834
89586W        W56127  41.408   7.630  12.103
89587W        W56128  22.599  24.443   2.856
89588W        W56129   7.883  33.417  12.959
89589W        W56130  10.261  36.061   2.427
89590W        W56131   1.272   3.855   4.174
89591W        W56132  28.310   0.246  12.445
89592W        W56133   9.152  31.829   2.791
89593W        W56134  30.962  26.915   1.787
89594W        W56135  38.406  41.507  11.750
89595W        W56136   2.775  34.976  13.801
89596W        W56137  25.582   8.622  11.171
89597W        W56138  43.950  15.863   1.735
89598W        W56139  22.247  30.192   0.503
89599W        W56140  15.453  13.244  13.685
89600W        W56141  43.478  37.899  11.557
89601W        W56142  34.822  32.414  11.059
89602W        W56143  13.794  33.716   2.931
89603W        W56144  21.048  34.092   0.936
89604W        W56145  28.115  19.797  12.372
89605W        W56146  18.607   9.356  14.755
89606W        W56147  13.492  18.494  11.763
89607W        W56148  32.773  27.697  12.065
89608W        W56149  16.661   2.109   3.542
89609W        W56150  22.049  13.610  11.089
89610W        W56151  40.974   4.800   1.352
89611W        W56152  25.205   8.482  13.469
89612W        W56153  44.584   7.025   9.952
89613W        W56154  29.844  27.146  13.437
89614W        W56155  42.292  35.462  11.492
89615W        W56156  21.116   5.742  12.579
89616W        W56157  33.541  11.231  12.571
89617W        W56158  33.966  20.236  11.396
89618W        W56159  27.038  19.743   0.531
89619W        W56160  14.618  42.393  14.831
89620W        W56161  29.106  16.734  11.462
89621W        W56162  10.096  23.489   3.726
89622W        W56163  16.459  30.837  12.405
89623W        W56164  43.974  37.552  11.409
89624W        W56165  20.612  24.483   4.056
89625W        W56166  12.188  38.256   1.430
89626W        W56167  36.987  25.725   2.716
89627W        W56168  34.616  10.590  10.983
89628W        W56169  42.934  28.445   0.862
89629W        W56170   7.867  40.736   4.101
89630W        W56171  21.119  40.334   3.861
89631W        W56172  15.834  21.254   0.748
89632W        W56173  21.177   8.602  13.741
89633W        W56174  18.241  12.786  11.433
89634W        W56175  25.367   6.614   1.112
89635W        W56176  23.306   8.933   2.265
89636W        W56177  23.627  32.878  10.656
89637W        W56178   9.104  14.210  11.447
89638W        W56179   4.729  32.127  11.859
89639W        W56180  25.068  17.054   4.506
89640W        W56181  33.923  43.797   3.078
89641W        W56182  37.412  33.960  13.475
89642W        W56183  10.346  11.357   4.742
89643W        W56184  26.922  20.606   0.030
89644W        W56185  44.295  21.473   4.532
89645W        W56186  20.800  28.141   3.335
89646W        W56187   0.331  37.920  12.871
89647W        W56188  34.638  20.762  10.993
89648W        W56189   2.344  43.018   3.902
89649W        W56190  31.541   4.304  12.018
89650W        W56191  29.533   9.351  14.482
89651W        W56192  26.600  39.020   4.597
89652W        W56193  39.790  28.731  12.047
89653W        W56194  40.246  35.979   3.292
89654W        W56195  34.643  11.082   2.104
89655W        W56196  36.780   3.732   3.635
89656W        W56197  42.401   7.286   0.054
89657W        W56198   7.330  26.095  12.980
89658W        W56199  30.084  36.585  12.140
89659W        W56200   2.007  44.514  14.798
89660W        W56201  23.190  33.529   4.560
89661W        W56202   4.701   3.273   0.156
89662W        W56203  22.231  16.027   0.966
89663W        W56204  35.148  40.113   2.387
89664W        W56205   1.218  35.331  11.554
89665W        W56206  34.803  28.077   1.281
89666W        W56207  28.944   5.292  11.198
89667W        W56208  18.300  38.771   4.080
89668W        W56209   2.035  43.300  11.886
89669W        W56210  43.758  38.454   2.827
89670W        W56211  33.277  20.182   2.882
89671W        W56212  11.468  20.445   3.158
89672W        W56213  37.419  19.688   0.905
89673W        W56214   8.509  12.722  12.402
89674W        W56215   3.341  11.239   2.643
89675W        W56216  24.756  23.637   2.515
89676W        W56217  44.154  14.125  10.440
89677W        W56218  19.802  12.635  10.762
89678W        W56219  19.048  29.525  13.426
89679W        W56220   0.331  34.147   1.241
89680W        W56221  23.993  30.162   1.807
89681W        W56222  43.294  19.667  11.875
89682W        W56223  14.517  23.756   4.116
89683W        W56224  19.985  17.859  11.634
89684W        W56225  42.868  42.452   0.224
89685W        W56226  17.062  23.594   0.488
89686W        W56227  12.316  42.477   3.744
89687W        W56228  23.183  33.870   4.949
89688W        W56229   3.568  12.374  13.597
89689W        W56230  40.750   8.390   3.234
89690W        W56231  42.348   0.324   1.528
89691W        W56232   7.010  33.071   2.413
89692W        W56233   2.881  18.774  13.059
89693W        W56234  34.846  36.271  13.021
89694W        W56235   5.196  44.003   3.315
89695W        W56236   5.241  23.736   3.857
89696W        W56237  12.433   7.103  11.045
89697W        W56238  12.783  16.265  13.020
89698W        W56239  15.818   3.889  12.637
89699W        W56240  32.123   9.378   3.746
89700W        W56241  25.517   0.289   1.075
89701W        W56242  40.316  30.744   0.491
89702W        W56243  22.751   7.326   5.084
89703W        W56244  18.642  18.629   0.941
89704W        W56245  18.344   7.689  12.362
89705W        W56246  26.194  24.336  12.368
89706W        W56247  24.421  28.538  14.048
89707W        W56248  16.358   9.289  12.111
89708W        W56249  26.319  29.026   0.964
89709W        W56250  21.973  11.718   0.857
89710W        W56251  11.715  32.619   4.011
89711W        W56252  16.968  25.973  13.790
89712W        W56253   3.950   7.514   1.499
89713W        W56254   1.399  28.925   4.360
89714W        W56255  44.533  25.663  14.920
89715W        W56256  19.874   3.798   1.331
89716W        W56257  28.146  19.353  14.508
89717W        W56258   0.917  24.731  14.651
89718W        W56259  42.263  36.049  14.160
89719W        W56260  37.157  43.037   3.315
89720W        W56261  12.705  27.332   2.959
89721W        W56262   6.790  26.027  10.162
89722W        W56263  25.870  25.571  14.566
89723W        W56264  11.281   5.817  11.724
89724W        W56265  22.767   1.944  13.524
89725W        W56266  41.431  41.742   4.863
89726W        W56267   9.309  38.505   3.841
89727W        W56268  24.180  40.077   1.234
89728W        W56269  33.567  12.007   0.773
89729W        W56270  26.129  13.278   1.172
89730W        W56271  34.068  18.910  11.597
89731W        W56272   1.716  36.328  13.074
89732W        W56273  33.314  10.306   2.650
89733W        W56274   1.059  23.486  14.173
89734W        W56275   8.463  43.390   2.740
89735W        W56276   5.411  19.407   3.045
89736W        W56277  43.493  17.623   0.636
89737W        W56278  38.746   4.205  14.297
89738W        W56279  11.694  38.064   3.228
89739W        W56280  29.165  22.407   1.135
89740W        W56281  18.000  20.302   3.047
89741W        W56282  31.324  35.524  11.520
89742W        W56283  21.978   4.057   4.909
89743W        W56284  16.657  15.702  10.911
89744W        W56285  22.681  29.978  14.335
89745W        W56286  38.354  12.718   0.969
89746W        W56287  11.366   2.823  12.837
89747W        W56288  13.903  11.462   2.684
89748W        W56289   6.475  39.356   2.016
89749W        W56290   8.039  16.122  14.384
89750W        W56291   2.285  37.129  12.275
89751W        W56292  29.322  16.230  14.932
89752W        W56293  20.121  34.892  11.149
89753W        W56294  40.779  20.767   2.316
89754W        W56295  33.429  29.557   1.199
89755W        W56296  10.840  43.999  12.507
89756W        W56297  43.356  33.640   4.106
89757W        W56298  35.313  33.371  13.631
89758W        W56299  28.271  12.030  12.977
89759W        W56300   1.335  24.248  10.625
89760W        W56301  39.989  20.191   1.003
89761W        W56302   7.171  19.812   2.845
89762W        W56303  22.382  21.622  12.743
89763W        W56304  36.450  23.606  11.215
89764W        W56305  26.428  15.729  11.029
89765W        W56306  31.689  16.539  12.245
89766W        W56307  15.643  30.537  13.120
89767W        W56308   3.960  36.308   3.047
89768W        W56309  23.462  25.631   3.284
89769W        W56310  13.309  32.386  11.479
89770W        W56311  21.521  39.538   2.006
89771W        W56312  22.228  20.355  13.112
89772W        W56313   9.475   1.701   0.345
89773W        W56314  22.083  13.861  13.728
89774W        W56315  22.577  40.784   1.468
89775W        W56316  23.124  16.618  12.345
89776W        W56317  20.699   2.375   3.177
89777W        W56318   6.327  16.313   4.296
89778W        W56319  23.462  20.681   3.584
89779W        W56320  35.305  37.331   1.859
89780W        W56321   5.299  20.243  10.417
89781W        W56322  24.263  44.999  10.721
89782W        W56323   3.677  38.003  13.797
89783W        W56324  20.015  31.998   2.678
89784W        W56325   8.404  33.454   2.744
89785W        W56326   8.880  17.129  13.593
89786W        W56327  28.612  40.111   2.168
89787W        W56328   6.771   1.644   5.577
89788W        W56329  33.494  34.862  13.344
89789W        W56330   5.326  42.958  13.451
89790W        W56331   0.723   2.162   4.621
89791W        W56332  18.095  30.196  11.329
89792W        W56333  37.989  28.664  13.232
89793W        W56334  23.168  27.774   2.131
89794W        W56335  11.128  39.460  11.590
89795W        W56336  10.200  37.075  11.910
89796W        W56337  36.628  29.645   0.968
89797W        W56338  29.375  16.336  13.480
89798W        W56339   9.872  19.314  14.593
89799W        W56340  10.581  14.624   1.028
89800W        W56341  43.475  17.991  14.729
89801W        W56342  27.499  42.068  10.428
89802W        W56343   8.406  23.003   2.895
89803W        W56344  15.879  20.503   1.552
89804W        W56345   9.703   6.843   4.246
89805W        W56346  23.852   3.773  14.361
89806W        W56347  21.256  21.250  11.513
89807W        W56348  34.944  22.099  11.517
89808W        W56349   5.615  13.680  11.963
89809W        W56350  21.583  43.398  12.546
89810W        W56351  16.702  28.128   1.782
89811W        W56352   8.264  20.718  13.171
89812W        W56353  31.434   1.945   3.736
89813W        W56354   9.680  43.740  11.522
89814W        W56355  34.439   8.007   0.878
89815W        W56356   8.753  28.943  13.822
89816W        W56357  19.746  32.013   2.037
89817W        W56358   4.051   2.188  12.946
89818W        W56359  22.084   7.701  14.957
89819W        W56360   8.283  26.750  13.889
89820W        W56361  28.111  40.476  12.094
89821W        W56362  15.859  26.071   4.125
89822W        W56363  20.165  16.677  12.469
89823W        W56364   9.260   7.118   1.293
89824W        W56365  34.568  17.771  11.172
89825W        W56366   3.765  25.725   0.425
89826W        W56367  28.375  18.247   0.004
89827W        W56368  42.444  40.881  10.575
89828W        W56369  43.469   5.426   2.322
89829W        W56370  41.582   3.550   4.587
89830W        W56371  21.185  11.616  14.088
89831W        W56372  14.695  20.219   3.163
89832W        W56373  24.551  29.436  14.017
89833W        W56374  15.673  23.636  14.778
89834W        W56375  25.626   0.432  14.542
89835W        W56376  41.908  21.848   3.633
89836W        W56377  33.399  30.226  11.008
89837W        W56378  11.075  36.978  10.729
89838W        W56379  37.504   1.924   3.671
89839W        W56380  29.543  20.425  11.651
89840W        W56381  12.589  24.985   1.678
89841W        W56382  31.495  23.177   1.803
89842W        W56383   9.402  43.823   1.812
89843W        W56384   8.070  44.772   1.848
89844W        W56385  33.798  34.474  13.458
89845W        W56386  13.763  41.928  12.491
89846W        W56387   2.837  33.913   3.934
89847W        W56388   0.685  15.169   0.832
89848W        W56389  13.283   7.004  11.973
89849W        W56390   1.317  18.194  12.491
89850W        W56391  16.269  44.497   3.361
89851W        W56392  36.345  10.647  12.763
89852W        W56393  26.092   8.001   2.715
89853W        W56394  13.356   1.192  13.507
89854W        W56395  37.696  23.839   2.889
89855W        W56396  16.719  30.430   0.393
89856W        W56397  16.774  11.398   1.661
89857W        W56398  19.161  15.607   0.590
89858W        W56399  26.265  17.791   1.786
89859W        W56400  27.521  33.386   1.735
89860W        W56401  19.094  40.491  12.883
89861W        W56402  37.464   4.466  11.383
89862W        W56403  28.902   3.073   3.654
89863W        W56404   0.912  35.974  11.998
89864W        W56405  31.466   3.928   1.319
89865W        W56406  30.143  20.146   0.929
89866W        W56407  12.462   9.197  14.102
89867W        W56408  36.455  37.968  14.024
89868W        W56409  29.827  16.068  14.818
89869W        W56410  40.807  31.049  14.328
89870W        W56411   9.811  44.372   3.386
89871W        W56412  16.381  26.486  14.544
89872W        W56413  33.069  34.353  14.217
89873W        W56414  15.171  18.198   1.292
89874W        W56415  32.700  19.093  14.976
89875W        W56416  12.232  30.896  11.519
89876W        W56417  37.594  21.435   1.371
89877W        W56418  31.187   5.716  14.462
89878W        W56419   5.889   2.753  12.282
89879W        W56420   9.993  15.552  11.518
89880W        W56421  22.808  30.116   3.730
89881W        W56422  34.082  35.786  13.441
89882W        W56423  22.039  17.012   5.000
89883W        W56424   4.834   8.003   2.300
89884W        W56425  33.494  13.857  12.997
89885W        W56426  29.595  43.266  13.382
89886W        W56427   7.039  39.263  13.390
89887W        W56428  28.161  11.200   0.741
89888W        W56429  35.040  31.630  11.097
89889W        W56430  24.760  34.153   2.852
89890W        W56431  19.089  24.993  13.609
89891W        W56432  41.860   1.795   5.011
89892W        W56433  23.960   8.632   4.487
89893W        W56434  22.659  20.415   3.836
89894W        W56435   4.366  41.863  10.706
89895W        W56436  23.124  20.064  14.357
89896W        W56437  26.098  43.294   3.512
89897W        W56438  37.418  32.314  14.864
89898W        W56439  12.180   3.910  11.521
89899W        W56440  33.454  26.203   1.184
89900W        W56441   9.333  23.054  12.894
89901W        W56442   4.390  43.823   3.383
89902W        W56443  24.598  24.750  13.330
89903W        W56444  30.189  10.635   1.030
89904W        W56445  16.150  40.530  12.427
89905W        W56446  23.266   2.989   4.570
89906W        W56447  22.725  24.459  13.823
89907W        W56448  30.003  19.226   4.690
89908W        W56449   1.957  26.006   2.731
89909W        W56450  39.532  38.996   3.308
89910W        W56451  18.148  22.568   1.014
89911W        W56452   7.247  43.273   4.465
89912W        W56453  40.064  42.327   4.913
89913W        W56454  34.532   4.850  11.881
89914W        W56455  35.893  11.773   4.081
89915W        W56456  35.008  11.909  13.809
89916W        W56457  22.552  21.589  10.613
89917W        W56458   1.263  36.503  13.984
89918W        W56459   0.774   5.428  14.319
89919W        W56460   1.417  35.941   5.739
89920W        W56461   3.660  15.390  10.140
89921W        W56462  25.581  32.900  13.045
89922W        W56463  29.972  13.243   3.222
89923W        W56464  30.905  15.301  10.600
89924W        W56465  24.399   7.806  13.226
89925W        W56466   9.148  27.522   4.266
89926W        W56467  44.580  10.349   3.338
89927W        W56468  44.789  44.544   4.130
89928W        W56469  36.579  12.744   1.389
89929W        W56470  18.725  44.941   0.374
89930W        W56471  11.856  23.815  11.371
89931W        W56472  22.715  18.219  12.182
89932W        W56473  44.557  27.159  13.570
89933W        W56474  18.150   6.455   2.409
89934W        W56475  11.746  43.759   2.088
89935W        W56476  16.557   5.924   1.922
89936W        W56477  26.575  17.384   1.451
89937W        W56478   9.071  11.733   0.861
89938W        W56479  35.829  19.472  12.240
89939W        W56480  42.976   7.980  14.652
89940W        W56481  21.389  16.844  11.012
89941W        W56482  12.328  17.161   1.883
89942W        W56483  23.566  31.426  11.089
89943W        W56484  42.681  40.348   1.924
89944W        W56485  44.046  42.985   0.649
89945W        W56486  39.329  27.415  11.988
89946W        W56487   6.976  37.940  10.693
89947W        W56488  23.715  10.321   0.328
89948W        W56489   7.954  43.383  12.421
89949W        W56490   0.619   0.561   3.189
89950W        W56491  44.886  37.559   0.853
89951W        W56492  29.207  29.514   0.595
89952W        W56493  43.223  29.677  12.907
89953W        W56494  32.709  40.605   0.868
89954W        W56495  35.287   8.238  13.878
89955W        W56496  27.272  13.683  12.231
89956W        W56497  15.784   1.039  14.342
89957W        W56498  15.188   3.906  11.364
89958W        W56499  34.552  28.299  11.404
89959W        W56500  37.011  25.473   1.865
89960W        W56501   0.189  12.325  14.029
89961W        W56502   9.339  15.863   1.684
89962W        W56503  24.031  41.658   3.901
89963W        W56504  27.178  39.815   2.034
89964W        W56505  10.500  26.502   4.586
89965W        W56506   4.716  40.386   3.626
89966W        W56507  13.227  13.785   4.604
89967W        W56508  43.623  14.253  12.575
89968W        W56509   1.316   3.941   1.379
89969W        W56510   4.248  17.910  13.813
89970W        W56511   8.849   8.176  14.647
89971W        W56512  10.058   0.829   1.783
89972W        W56513  29.984   0.440  14.905
89973W        W56514  38.843  42.119  14.829
89974W        W56515  17.127   1.000  11.879
89975W        W56516  18.768   6.896  11.934
89976W        W56517   4.215   4.099   0.396
89977W        W56518   1.179  34.428   4.274
89978W        W56519  10.356  40.896  13.518
89979W        W56520  41.549  31.895   3.732
89980W        W56521   4.158   7.422   4.742
89981W        W56522  20.183  23.377   3.527
89982W        W56523  12.300  34.391  10.523
89983W        W56524  28.063  32.590  11.297
89984W        W56525  19.813  29.177   2.153
89985W        W56526   4.339  28.004  10.613
89986W        W56527  19.083  38.008   2.265
89987W        W56528  24.804  10.170  11.173
89988W        W56529  15.116  23.486   4.606
89989W        W56530  15.351  42.337  13.528
89990W        W56531  40.450  40.884  10.460
89991W        W56532  19.010  27.663   3.754
89992W        W56533  30.244  28.334   1.771
89993W        W56534   0.501  34.041  13.063
89994W        W56535  29.359  30.020   1.666
89995W        W56536  34.335   9.360  10.713
89996W        W56537   7.939  14.669  11.152
89997W        W56538  35.735  30.846   1.133
89998W        W56539  26.519  36.096  10.386
89999W        W56540  44.184  15.151  14.941
90000W        W56541  40.969  33.855   4.497
90001W        W56542  38.724  14.974   1.555
90002W        W56543  36.886  26.341  11.068
90003W        W56544  41.040  17.814   2.256
90004W        W56545  35.074   1.600   3.441
90005W        W56546  18.169  39.010  10.672
90006W        W56547  42.308  16.237   2.098
90007W        W56548  20.210  42.431  11.352
90008W        W56549   2.393  15.600  10.250
90009W        W56550   0.103  32.921   2.285
90010W        W56551   2.759  32.786   3.269
90011W        W56552  40.445  19.420  14.391
90012W        W56553  35.010  14.062   1.814
90013W        W56554  36.521  29.134   0.943
90014W        W56555  27.200  39.695   0.780
90015W        W56556  24.255  30.551   2.778
90016W        W56557  16.629  35.165  14.250
90017W        W56558  29.599  27.336   0.172
90018W        W56559  37.660  36.477  12.020
90019W        W56560  35.911   4.966   3.383
90020W        W56561  26.510  12.113  14.255
90021W        W56562  12.440  27.956  11.153
90022W        W56563   9.151   7.430   3.296
90023W        W56564  35.476  23.503   2.731
90024W        W56565  41.801  40.525   3.831
90025W        W56566  27.862  38.361  11.462
90026W        W56567  17.942  41.588   1.180
90027W        W56568  31.838  32.395  12.552
90028W        W56569  38.673  27.920  11.110
90029W        W56570  22.746  34.863   0.482
90030W        W56571  32.600  20.522  13.262
90031W        W56572  14.121  19.738  13.292
90032W        W56573   5.808  22.832  10.449
90033W        W56574   8.979  41.379  12.063
90034W        W56575  43.819  44.853  13.016
90035W        W56576  34.549  32.056   0.007
90036W        W56577   0.309  11.917   4.304
90037W        W56578  29.610  16.510  14.491
90038W        W56579  18.155  11.295   3.517
90039W        W56580   1.977   5.452   5.077
90040W        W56581  14.115   7.983   3.264
90041W        W56582   7.345  44.091   1.655
90042W        W56583  31.461  14.189   3.645
90043W        W56584  44.957  33.520  13.812
90044W        W56585   7.712  10.259  13.337
90045W        W56586   2.127   1.379  12.740
90046W        W56587  29.567  32.882  13.789
90047W        W56588   8.307   3.293   2.991
90048W        W56589  19.985  28.939   1.361
90049W        W56590  27.099  40.501   4.134
90050W        W56591  27.531  29.256   4.492
90051W        W56592  38.959   3.502  12.010
90052W        W56593  44.265  43.780   2.516
90053W        W56594  10.298  25.050   3.245
90054W        W56595  40.931   4.328  12.460
90055W        W56596  23.136  11.173  12.368
90056W        W56597  17.695   0.180   4.585
90057W        W56598  43.021  19.244  13.708
90058W        W56599  26.953  14.144  11.997
90059W        W56600  43.302  43.222   0.874
90060W        W56601  17.239   2.965   4.829
90061W        W56602  33.920  43.395   3.813
90062W        W56603  25.303  17.696   2.747
90063W        W56604  22.809  36.595   2.767
90064W        W56605  22.199  14.540  14.341
90065W        W56606  36.560  41.926  12.988
90066W        W56607  30.726   1.781  11.694
90067W        W56608  27.240  25.124  12.130
90068W        W56609   8.617  25.399  11.456
90069W        W56610   7.594  12.233   4.743
90070W        W56611  42.946  29.670   4.555
90071W        W56612   6.730  23.189  12.457
90072W        W56613  43.734  29.376  12.063
90073W        W56614   5.276   5.261  14.862
90074W        W56615  42.558   3.261  14.617
90075W        W56616  11.883  13.724  12.408
90076W        W56617  41.362  31.010   3.426
90077W        W56618  32.179  19.457   1.432
90078W        W56619  14.733  35.135   3.168
90079W        W56620  19.680  15.606  13.240
90080W        W56621  11.161  34.139   2.312
90081W        W56622   6.783  35.483  11.898
90082W        W56623   9.861  11.633   1.368
90083W        W56624  35.838  34.967   1.832
90084W        W56625  31.453  23.944  14.498
90085W        W56626  27.028   7.802   2.259
90086W        W56627  34.012  16.134   1.347
90087W        W56628   9.285   3.393   4.595
90088W        W56629  43.478   6.757  12.030
90089W        W56630  31.467  23.629   2.783
90090W        W56631  22.282  42.381   4.124
90091W        W56632  30.185  27.632   4.054
90092W        W56633  12.094   8.154  11.644
90093W        W56634  39.723  21.864  11.945
90094W        W56635  43.561  36.188  11.570
90095W        W56636   1.728   1.054   1.826
90096W        W56637   2.773  11.626   1.246
90097W        W56638  26.112  11.565  14.895
90098W        W56639  34.948   0.202   4.133
90099W        W56640  18.274   7.663  11.462
90100W        W56641  42.368  40.085  14.357
90101W        W56642  36.423  11.806  12.943
90102W        W56643  41.497   9.622   1.346
90103W        W56644  21.182  31.171   0.375
90104W        W56645  22.505  35.490   3.010
90105W        W56646   1.977   7.777  14.491
90106W        W56647  40.087  24.093   3.782
90107W        W56648  32.641  36.829   0.830
90108W        W56649  23.949   9.871   4.960
90109W        W56650   9.697  26.073  10.783
90110W        W56651  44.229  16.071  10.396
90111W        W56652   2.503  11.252  12.542
90112W        W56653  12.111   8.172   4.917
90113W        W56654  36.061  14.874  11.008
90114W        W56655  29.989  21.570   4.177
90115W        W56656  27.566  32.415   1.987
90116W        W56657   3.469   0.827   3.849
90117W        W56658  42.048  25.160   3.929
90118W        W56659  14.155   9.074   5.241
90119W        W56660   6.696  27.654  14.229
90120W        W56661  43.219   1.270   1.753
90121W        W56662  32.963  30.904  13.955
90122W        W56663   3.281  36.591   4.829
90123W        W56664  44.892  34.887   1.397
90124W        W56665  26.478  37.337  12.930
90125W        W56666  16.227  43.966  10.789
90126W        W56667  22.598   7.586  10.733
90127W        W56668  23.318  22.199  13.516
90128W        W56669   8.411   0.801  14.064
90129W        W56670  16.313   7.224   3.681
90130W        W56671   5.779   4.914   2.201
90131W        W56672  30.934  36.533   1.927
90132W        W56673   8.969  23.435  11.997
90133W        W56674  42.990  33.019   1.564
90134W        W56675  35.869  35.086   0.999
90135W        W56676   5.240  36.577  13.083
90136W        W56677  31.371   8.149  10.651
90137W        W56678  20.670   7.293   4.691
90138W        W56679  13.009  34.114  11.633
90139W        W56680  18.169   7.941   1.974
90140W        W56681  21.707  39.440  12.674
90141W        W56682  14.336  25.053   0.272
90142W        W56683  32.182  33.470  11.622
90143W        W56684  44.807  15.121  11.160
90144W        W56685  37.743   1.896   5.555
90145W        W56686  17.812  32.677  10.359
90146W        W56687  43.697  23.989   1.854
90147W        W56688  26.687   4.481  10.376
90148W        W56689  40.364   0.198   0.730
90149W        W56690  43.551  40.113   2.173
90150W        W56691   8.902   8.774  11.427
90151W        W56692   3.462  15.459  14.173
90152W        W56693  32.630  28.968  11.479
90153W        W56694  10.845  36.781  14.874
90154W        W56695   2.045  20.339   4.876
90155W        W56696  40.021  38.674   4.884
90156W        W56697  10.715  44.863   2.149
90157W        W56698   2.479  29.924  13.766
90158W        W56699  20.240  17.216   2.240
90159W        W56700  34.048  41.176  13.830
90160W        W56701  21.116  22.179   1.243
90161W        W56702  38.366  22.725  10.739
90162W        W56703   7.740  31.359   2.155
90163W        W56704  40.727  37.341  13.396
90164W        W56705  35.509   6.726   3.393
90165W        W56706  23.158  27.803  12.416
90166W        W56707   2.305   0.355   0.777
90167W        W56708  42.221   7.478  12.552
90168W        W56709   7.410  15.598   3.181
90169W        W56710   9.658  11.152  10.721
90170W        W56711  11.993  14.740  14.461
90171W        W56712   5.319  29.125   2.215
90172W        W56713   7.850   7.118  12.968
90173W        W56714  42.917  16.244  10.781
90174W        W56715  37.059  22.547   2.914
90175W        W56716  25.082  23.076  13.476
90176W        W56717  28.549  17.362  13.562
90177W        W56718   7.888  38.272   2.699
90178W        W56719  39.451   0.451   0.851
90179W        W56720  35.495   8.886  14.689
90180W        W56721   9.351  15.752   0.898
90181W        W56722  41.338  23.136   0.492
90182W        W56723   0.302  42.331  12.024
90183W        W56724  38.898  35.851   3.143
90184W        W56725  29.038  23.399   4.211
90185W        W56726  30.775  35.583   9.776
90186W        W56727  23.994  36.853   1.729
90187W        W56728  30.543   2.777  10.679
90188W        W56729  25.773   2.878   1.947
90189W        W56730   4.284  13.956   0.130
90190W        W56731   3.097  14.323   1.565
90191W        W56732  22.159   7.965   0.423
90192W        W56733  20.788  22.233  11.453
90193W        W56734  13.262  32.449   4.506
90194W        W56735  14.671  25.200  11.853
90195W        W56736  12.943  26.466   5.022
90196W        W56737  26.782  43.876  12.035
90197W        W56738   7.090  34.899  13.038
90198W        W56739   7.697   0.177  12.060
90199W        W56740   9.504  26.441   3.833
90200W        W56741  11.675   7.854   1.264
90201W        W56742  26.521  26.214  14.098
90202W        W56743  40.282  39.494   2.331
90203W        W56744  17.845  35.963   0.460
90204W        W56745  24.149  37.946  11.510
90205W        W56746  26.411  41.944  11.464
90206W        W56747  34.353  28.040   2.806
90207W        W56748  40.441  43.527  14.954
90208W        W56749  17.211  42.584   1.948
90209W        W56750  44.620  36.567   2.779
90210W        W56751   5.180  37.916  11.241
90211W        W56752   6.784   5.956  11.539
90212W        W56753  43.478   8.441   4.051
90213W        W56754  28.388  16.834   0.849
90214W        W56755  23.071  42.618  13.011
90215W        W56756  37.331  38.934   3.227
90216W        W56757  41.267   2.409   3.230
90217W        W56758  29.520  38.242   0.856
90218W        W56759  43.115  40.865  11.323
90219W        W56760   4.724  15.649   1.889
90220W        W56761  30.425  26.433  13.618
90221W        W56762  37.943  36.483   3.615
90222W        W56763  15.386  38.822   5.048
90223W        W56764  37.100   8.724   4.207
90224W        W56765  30.922  14.657   1.198
90225W        W56766  10.787  17.738  13.131
90226W        W56767  28.001  43.462  11.094
90227W        W56768   1.945  21.165   4.555
90228W        W56769  36.854  42.527   4.164
90229W        W56770  38.488  18.490   3.220
90230W        W56771  20.348  16.886   1.720
90231W        W56772  26.109  34.374   1.385
90232W        W56773  16.764  21.774   3.243
90233W        W56774  26.695   3.807   4.549
90234W        W56775  39.392  38.021   2.737
90235W        W56776  12.160  31.073  10.218
90236W        W56777  25.107  14.638  14.545
90237W        W56778  15.328  30.612  12.162
90238W        W56779   8.227  28.501   0.429
90239W        W56780  29.752  28.117  12.357
90240W        W56781  34.414  11.671  12.071
90241W        W56782  25.473   5.798  12.877
90242W        W56783  38.439  40.248   0.480
90243W        W56784  13.107  10.736   2.235
90244W        W56785  34.181  22.833  10.467
90245W        W56786   0.993  44.816  13.121
90246W        W56787  28.996  32.040   2.589
90247W        W56788  34.699  44.539  11.159
90248W        W56789   9.227  19.606   4.523
90249W        W56790  30.767  39.981  12.053
90250W        W56791   2.467   9.790  11.841
90251W        W56792  36.800   8.714  11.044
90252W        W56793  38.595   2.245   0.488
90253W        W56794  31.425  29.548  14.538
90254W        W56795   8.797  15.676  14.002
90255W        W56796  37.041  12.915  10.367
90256W        W56797   8.476  44.299   3.949
90257W        W56798   6.468  24.194   4.113
90258W        W56799  19.107  30.207   1.003
90259W        W56800  15.362  40.521   0.753
90260W        W56801  38.491  14.335  12.720
90261W        W56802  25.708  40.302   4.784
90262W        W56803  34.730   7.278  12.621
90263W        W56804  29.771  29.197  11.587
90264W        W56805  20.707  44.431  12.561
90265W        W56806  22.438   1.670   2.660
90266W        W56807   3.370  12.734  11.120
90267W        W56808  28.975  17.526  11.157
90268W        W56809  34.359  20.260  14.892
90269W        W56810   6.079  23.995   5.334
90270W        W56811  40.976  12.432  10.721
90271W        W56812  20.557  27.199   2.263
90272W        W56813  35.831  26.940  12.829
90273W        W56814   8.627  18.557  11.891
90274W        W56815  27.370  34.666   5.088
90275W        W56816   5.191  14.810   2.574
90276W        W56817  15.360  28.043  14.323
90277W        W56818   0.326   0.752  11.196
90278W        W56819   8.154  28.371   3.735
90279W        W56820   4.744  44.360   0.727
90280W        W56821   6.318   5.502  12.641
90281W        W56822  37.079  26.576   4.549
90282W        W56823   6.994  29.673   0.982
90283W        W56824  22.021  38.066   3.256
90284W        W56825  30.427  40.465   2.839
90285W        W56826  11.644  34.373  11.033
90286W        W56827  32.380  12.788   0.344
90287W        W56828  30.778  30.708   1.933
90288W        W56829  11.444   3.740  12.548
90289W        W56830  31.517  28.901  13.210
90290W        W56831  34.533   1.164   1.480
90291W        W56832  28.088  24.484  12.478
90292W        W56833  24.009  11.394   4.383
90293W        W56834  31.741   4.210   3.827
90294W        W56835  38.654  38.891   4.674
90295W        W56836  38.049  16.254  12.000
90296W        W56837  13.663   6.759   2.364
90297W        W56838  36.828  29.871   3.139
90298W        W56839  42.873  10.774  14.570
90299W        W56840  20.479  31.375  12.957
90300W        W56841   2.203  26.038   3.182
90301W        W56842  19.317  15.108  10.721
90302W        W56843  44.549  26.270  14.379
90303W        W56844  12.911  35.605  12.852
90304W        W56845  23.719  20.997   0.337
90305W        W56846  44.958  30.033   4.889
90306W        W56847  34.551  42.861  11.967
90307W        W56848  31.888  24.205  10.963
90308W        W56849  17.720  43.785   3.067
90309W        W56850  14.308  10.731  12.660
90310W        W56851  17.178  29.687  14.982
90311W        W56852  28.661  31.399   0.004
90312W        W56853  39.339   2.435  13.069
90313W        W56854  33.677  10.823   2.322
90314W        W56855  13.666  21.496  14.285
90315W        W56856  44.097  23.556   4.566
90316W        W56857  27.066  14.363   1.771
90317W        W56858   8.611   1.816   0.017
90318W        W56859  28.065  22.295   0.941
90319W        W56860  14.562   5.885  12.590
90320W        W56861   0.935   7.463   4.107
90321W        W56862  22.462  39.577   2.128
90322W        W56863  32.506  11.647   3.657
90323W        W56864  37.626  34.395  13.259
90324W        W56865  12.854   7.407  10.968
90325W        W56866   0.084  29.522  14.247
90326W        W56867   3.377  23.023  11.459
90327W        W56868  33.589   9.918   2.385
90328W        W56869   4.674  26.624  14.919
90329W        W56870  43.900   0.977   2.652
90330W        W56871  31.739  10.114  14.490
90331W        W56872  43.023   5.888  12.856
90332W        W56873   2.934  13.697   0.451
90333W        W56874  17.028  18.315   2.278
90334W        W56875  44.815  32.194  14.378
90335W        W56876  41.519  32.133   1.390
90336W        W56877  28.658  42.208  10.837
90337W        W56878  25.865   7.751  10.254
90338W        W56879   1.426  38.992   1.911
90339W        W56880  28.672  40.279   3.258
90340W        W56881  39.731  17.575  11.132
90341W        W56882  17.298  29.715   1.843
90342W        W56883  25.798   1.217   4.632
90343W        W56884   6.687  27.154   4.630
90344W        W56885   3.824   5.877   0.298
90345W        W56886   4.837  30.685   0.857
90346W        W56887  26.628  34.088   3.293
90347W        W56888  24.900   2.701   0.943
90348W        W56889  27.894  43.873   1.851
90349W        W56890  18.182  27.080  12.165
90350W        W56891  25.197  29.400   1.387
90351W        W56892  23.128  44.478  10.738
90352W        W56893  13.581  31.830   1.208
90353W        W56894  31.916   0.362  11.293
90354W        W56895  40.775  17.259  10.720
90355W        W56896  22.288  31.186   0.333
90356W        W56897  43.434  16.126   2.974
90357W        W56898  28.718   4.145   4.145
90358W        W56899  24.007   7.435  14.955
90359W        W56900   1.826  34.574   0.760
90360W        W56901  16.694  13.533  14.289
90361W        W56902  11.024  16.837  13.387
90362W        W56903  18.242  27.077   1.422
90363W        W56904   3.952  41.179   3.758
90364W        W56905  31.182  28.134   4.615
90365W        W56906  14.765   6.338  12.491
90366W        W56907   5.559   9.851  12.789
90367W        W56908  19.605   3.498   1.662
90368W        W56909  37.769  38.050   4.537
90369W        W56910  18.236  37.494  10.708
90370W        W56911  27.709  27.416  11.092
90371W        W56912  30.447   0.680  14.984
90372W        W56913  14.721  42.753  10.300
90373W        W56914  30.517  10.752   9.722
90374W        W56915   1.463  32.866   0.848
90375W        W56916  44.128  39.363  11.404
90376W        W56917  39.044  25.538  12.776
90377W        W56918  11.812  13.718  11.439
90378W        W56919   9.841  39.655   0.164
90379W        W56920   8.055  21.521   3.326
90380W        W56921  23.189   2.375  10.584
90381W        W56922  38.586  18.302   0.949
90382W        W56923  10.348  35.544  13.962
90383W        W56924  14.882  24.025   3.778
90384W        W56925  32.078  33.165  10.528
90385W        W56926   8.492  39.788  11.206
90386W        W56927  24.706  28.711  10.660
90387W        W56928   5.898  18.151  13.156
90388W        W56929  22.321  40.345   1.404
90389W        W56930  28.997  11.263  11.212
90390W        W56931   3.878  39.105  11.030
90391W        W56932  42.549  35.923  10.655
90392W        W56933   6.224  28.020   1.828
90393W        W56934  42.365  15.528   4.612
90394W        W56935  10.056   7.726   0.281
90395W        W56936  32.692  35.929  12.374
90396W        W56937  40.559  43.856  14.256
90397W        W56938   1.401   7.625  12.550
90398W        W56939   3.391  36.804   2.901
90399W        W56940  24.257  34.720  14.543
90400W        W56941  44.611  32.178   2.782
90401W        W56942  32.507  12.428   0.726
90402W        W56943   7.718   7.203   0.935
90403W        W56944  35.965  43.063   4.811
90404W        W56945  11.172  26.618   0.902
90405W        W56946  41.306  28.224   4.128
90406W        W56947  41.804  38.991  14.411
90407W        W56948  29.438   3.808  12.947
90408W        W56949   4.094  35.590   3.964
90409W        W56950  17.269   3.869  11.186
90410W        W56951  31.632   7.949   0.001
90411W        W56952  19.376  26.060  12.158
90412W        W56953   4.252  42.882  12.423
90413W        W56954  17.940  33.444  13.758
90414W        W56955  13.678  29.435   3.273
90415W        W56956  15.091  37.631  13.001
90416W        W56957  35.276   7.228  14.605
90417W        W56958  38.797  41.328  10.917
90418W        W56959  21.570  18.205  14.553
90419W        W56960  44.808  37.423  10.924
90420W        W56961   7.972  22.453   4.133
90421W        W56962  14.699  11.600   2.260
90422W        W56963  35.902  41.993  14.954
90423W        W56964  39.315  28.904   3.149
90424W        W56965  33.398   8.837  12.123
90425W        W56966  31.481  34.713   3.701
90426W        W56967  18.096  37.590  11.193
90427W        W56968  39.955   3.854   1.300
90428W        W56969  23.614   1.830   4.005
90429W        W56970  22.049  24.768   1.409
90430W        W56971  44.267  42.105   1.685
90431W        W56972  26.582  18.932  13.259
90432W        W56973  17.997   6.690  12.001
90433W        W56974   0.897  11.307   1.550
90434W        W56975   6.390  23.914  13.469
90435W        W56976  31.374  24.941  14.324
90436W        W56977   1.364   8.065  13.892
90437W        W56978   8.266  21.578   3.828
90438W        W56979   5.482  32.589   3.560
90439W        W56980  24.979   1.908   3.128
90440W        W56981  19.560   9.601  12.824
90441W        W56982  18.885  40.025   2.418
90442W        W56983  39.892  13.891   2.784
90443W        W56984  20.325  13.287   3.678
90444W        W56985  17.185  29.361  11.583
90445W        W56986  28.483  40.112  11.999
90446W        W56987  29.016  31.541  13.323
90447W        W56988  44.362  13.676   4.349
90448W        W56989  34.945  44.281   1.695
90449W        W56990  16.638   0.885  11.176
90450W        W56991  10.757   9.711   1.912
90451W        W56992  25.164   9.362   2.171
90452W        W56993  26.918   5.654   2.276
90453W        W56994   1.804  39.411  14.982
90454W        W56995  12.727  31.505  11.128
90455W        W56996   7.650  43.269   1.324
90456W        W56997   0.760   4.987  11.628
90457W        W56998  28.372  10.172  13.456
90458W        W56999  16.006   7.277  12.505
90459W        W57000  33.854   9.480  10.870
90460W        W57001  10.230   5.634  10.763
90461W        W57002  15.737  16.635   2.573
90462W        W57003  12.369  18.728  13.935
90463W        W57004   8.149  32.353  10.784
90464W        W57005  36.499   2.889  11.198
90465W        W57006  43.638  43.680  13.537
90466W        W57007  37.562  24.666   0.156
90467W        W57008  24.663  24.790  14.502
90468W        W57009  17.098  26.251  10.980
90469W        W57010  17.803  26.235   2.921
90470W        W57011  38.980  34.865  11.610
90471W        W57012  14.242  40.525  14.807
90472W        W57013   7.819  22.249  10.676
90473W        W57014  22.007  24.261   4.438
90474W        W57015   5.626  44.862  14.856
90475W        W57016  10.187  23.105  11.920
90476W        W57017   4.561  30.699  10.477
90477W        W57018  38.993  30.288   0.509
90478W        W57019  23.602  12.842  12.493
90479W        W57020  43.584  41.784  14.140
90480W        W57021  13.693  23.006  10.637
90481W        W57022   9.349  20.469  10.724
90482W        W57023  17.915  16.237   4.126
90483W        W57024  13.150  20.504  13.311
90484W        W57025  24.796  42.010   1.656
90485W        W57026  17.171  24.229   1.202
90486W        W57027  13.265  42.291   3.826
90487W        W57028   1.196  19.248  14.240
90488W        W57029  31.171  17.127  13.368
90489W        W57030  34.141  23.921  14.452
90490W        W57031  28.691  41.571   3.199
90491W        W57032  31.934   4.720   2.182
90492W        W57033  15.770  17.605  10.397
90493W        W57034  35.936  27.393   2.375
90494W        W57035  19.183  11.327   4.059
90495W        W57036  21.727   3.840  14.370
90496W        W57037  12.984  44.613  14.369
90497W        W57038  44.507  29.823   4.680
90498W        W57039  34.563   8.678   3.680
90499W        W57040  40.336  25.112   4.699
90500W        W57041  44.225  20.704   4.115
90501W        W57042  38.964  31.121   0.368
90502W        W57043  43.322  34.911  12.521
90503W        W57044   8.006  25.123   5.008
90504W        W57045  24.037   8.309  13.457
90505W        W57046  18.788  25.955   4.186
90506W        W57047  36.629  44.369  13.766
90507W        W57048  28.618  11.884   0.410
90508W        W57049  36.069  30.601   4.401
90509W        W57050  12.883   9.309  11.976
90510W        W57051   9.287  17.756  14.061
90511W        W57052  30.415   4.583   2.171
90512W        W57053  24.040   2.968  14.960
90513W        W57054  42.013  42.373  11.965
90514W        W57055  17.470  40.593  12.645
90515W        W57056  31.169  36.209   3.224
90516W        W57057  43.662  39.546  11.192
90517W        W57058   4.129  24.231  11.955
90518W        W57059  34.674  33.544  12.196
90519W        W57060  22.299  12.765   1.366
90520W        W57061  19.307  24.726  12.054
90521W        W57062   8.204  22.585  10.605
90522W        W57063  20.998  22.419  11.909
90523W        W57064  17.621  33.975  11.989
90524W        W57065   3.927  20.941   0.584
90525W        W57066   7.426  34.448   3.603
90526W        W57067  31.611  11.743  11.627
90527W        W57068   8.647  14.146   2.287
90528W        W57069  31.691  39.172  12.558
90529W        W57070  17.002  14.108  11.509
90530W        W57071   7.978  29.666   2.255
90531W        W57072  41.004  36.534   2.317
90532W        W57073   4.744  27.044   0.509
90533W        W57074  29.641  25.413   3.699
90534W        W57075   0.948  17.686   0.240
90535W        W57076  16.583   0.701   1.822
90536W        W57077  36.411  12.340   4.413
90537W        W57078  44.112  35.826   4.853
90538W        W57079  24.645  21.711  14.456
90539W        W57080  30.495   8.376  14.332
90540W        W57081  18.526  28.977  11.562
90541W        W57082  42.002   3.457   0.792
90542W        W57083  16.971  16.647  13.501
90543W        W57084  27.001  30.999  12.935
90544W        W57085  20.459  37.379   2.205
90545W        W57086  32.893  32.235   2.855
90546W        W57087  25.103  15.660  11.631
90547W        W57088  44.114   4.204   2.306
90548W        W57089  41.733  30.768  14.417
90549W        W57090   0.888  37.045   2.985
90550W        W57091   5.915  42.249  13.400
90551W        W57092   5.497  39.047  13.882
90552W        W57093  42.783  33.747   0.838
90553W        W57094  15.404  30.171  14.749
90554W        W57095  42.484  32.951   2.457
90555W        W57096  30.462   8.707  10.749
90556W        W57097  37.264  12.184  11.962
90557W        W57098   2.734  36.918   0.966
90558W        W57099   2.255  25.598  10.266
90559W        W57100  39.894   1.446   3.171
90560W        W57101   6.326   2.477  13.277
90561W        W57102   3.907  13.772   0.464
90562W        W57103  26.164  41.797  10.646
90563W        W57104  36.922  17.382  12.524
90564W        W57105  17.495  42.066   3.779
90565W        W57106  29.923  11.599   3.267
90566W        W57107   9.581   9.092   2.130
90567W        W57108  32.835   3.333  14.440
90568W        W57109  21.796  19.527   0.711
90569W        W57110   0.341   5.344  11.586
90570W        W57111  35.285  17.358   3.160
90571W        W57112  15.701   5.932  13.426
90572W        W57113   9.634   9.041  12.077
90573W        W57114  44.923  25.225  13.327
90574W        W57115  20.507  16.008   1.915
90575W        W57116  32.373  31.131  11.187
90576W        W57117  29.682  28.945  10.967
90577W        W57118  17.192   6.329  14.477
90578W        W57119  15.837   8.822   3.307
90579W        W57120  11.635  20.312  13.985
90580W        W57121   9.032   5.742   2.390
90581W        W57122  12.307  28.189  11.579
90582W        W57123  15.694  24.460  14.126
90583W        W57124  13.351  25.165  12.571
90584W        W57125  20.975   1.493  12.946
90585W        W57126  22.510  10.097   3.363
90586W        W57127  17.592   4.708  14.995
90587W        W57128   8.319  21.509  11.069
90588W        W57129   3.751  42.032   1.711
90589W        W57130  40.431  34.379  14.473
90590W        W57131  14.373  22.220  13.432
90591W        W57132  24.160  26.987   3.514
90592W        W57133  26.588   5.617   1.891
90593W        W57134  20.552  38.713  13.533
90594W        W57135  43.581  16.388  13.018
90595W        W57136  27.120  33.229  11.690
90596W        W57137  28.084  29.241  11.578
90597W        W57138  37.958  21.285  11.581
90598W        W57139  21.569   0.430  11.355
90599W        W57140  18.087  20.810   4.703
90600W        W57141   9.466  31.460  14.859
90601W        W57142  15.353  29.441   0.729
90602W        W57143  17.754  33.183  10.286
90603W        W57144  42.587   0.896   2.746
90604W        W57145  33.184   1.289   2.258
90605W        W57146   3.291  11.710  10.344
90606W        W57147  11.662   4.748   0.729
90607W        W57148  35.402  18.675   2.750
90608W        W57149  26.147  16.015  14.472
90609W        W57150  37.894  18.320   2.324
90610W        W57151  39.136  20.624  10.788
90611W        W57152  22.526  11.570   3.121
90612W        W57153   4.166  34.897  13.907
90613W        W57154  30.562   1.875   1.351
90614W        W57155  29.215   8.807   4.536
90615W        W57156  42.499  26.845   3.682
90616W        W57157   4.009  39.591  10.971
90617W        W57158   5.210  37.189  13.773
90618W        W57159   7.255  20.200  13.788
90619W        W57160  27.014  12.530  12.615
90620W        W57161  10.811  29.469  12.401
90621W        W57162   4.599  25.965   3.499
90622W        W57163   4.239   7.930  14.895
90623W        W57164  37.531  15.219   2.120
90624W        W57165   6.174  16.635   3.834
90625W        W57166  12.509  23.665  12.488
90626W        W57167  13.101  30.596   5.048
90627W        W57168  16.261  26.059  10.953
90628W        W57169  26.661  17.084  12.569
90629W        W57170  19.568  41.907  13.791
90630W        W57171  43.745   0.928  13.458
90631W        W57172   1.333  18.836  14.574
90632W        W57173  27.232  17.751   1.844
90633W        W57174  12.427  44.004  14.895
90634W        W57175  11.137  19.513   4.499
90635W        W57176   6.698  16.598   4.706
90636W        W57177   1.947  40.529   1.784
90637W        W57178  12.923  23.298  13.893
90638W        W57179  11.957   6.429  11.984
90639W        W57180  34.184  16.682  10.961
90640W        W57181  12.805   2.128   2.430
90641W        W57182   4.820   6.157  13.026
90642W        W57183  44.954  29.020  14.129
90643W        W57184  16.185  40.496   4.374
90644W        W57185  16.757   5.946   2.870
90645W        W57186   9.323  37.062   2.597
90646W        W57187   2.194  37.629   2.051
90647W        W57188  12.316  41.199   0.903
90648W        W57189  38.474   1.215   3.325
90649W        W57190  30.473  43.094  12.447
90650W        W57191  36.267  21.691  10.947
90651W        W57192  42.900  39.564   2.765
90652W        W57193   1.265  37.231   0.665
90653W        W57194  25.100   4.954   2.890
90654W        W57195  29.947   0.791   2.735
90655W        W57196  36.512   7.702  14.998
90656W        W57197  38.464  25.682   3.219
90657W        W57198  34.556   4.078   5.350
90658W        W57199  40.939   7.813   0.393
90659W        W57200  27.948  19.808  11.487
90660W        W57201  12.091  16.376   3.633
90661W        W57202  26.712  37.485   4.519
90662W        W57203  16.294  34.206   2.245
90663W        W57204  21.231  39.711  11.130
90664W        W57205  17.825  19.764   4.695
90665W        W57206   4.915  34.075   3.578
90666W        W57207   4.842  13.330   4.684
90667W        W57208  33.862  43.952  12.965
90668W        W57209   3.189  18.852   2.592
90669W        W57210  35.497  41.926   1.402
90670W        W57211  24.485  31.429  13.923
90671W        W57212  42.685  26.594  10.126
90672W        W57213   1.830  31.351   3.562
90673W        W57214  20.813  32.409  13.877
90674W        W57215  44.504  26.228  11.064
90675W        W57216  15.468  23.790   4.334
90676W        W57217  41.645  20.612   2.661
90677W        W57218  25.278  31.907  14.866
90678W        W57219  26.205  43.774  13.435
90679W        W57220  21.515  32.813   2.913
90680W        W57221  29.455  16.596   1.806
90681W        W57222  43.472  29.872   2.267
90682W        W57223   8.349   7.321  12.761
90683W        W57224  15.391  20.817   2.169
90684W        W57225  34.886   4.693   0.659
90685W        W57226  30.595  19.552   1.676
90686W        W57227  43.977   0.864  11.317
90687W        W57228  18.074  38.020   1.230
90688W        W57229  30.596  32.949  12.472
90689W        W57230  18.301  41.282  14.798
90690W        W57231   3.704   6.214   0.781
90691W        W57232  44.252  31.079  10.586
90692W        W57233   8.221  39.942   3.264
90693W        W57234  12.235  35.689   2.180
90694W        W57235  26.673  27.569  12.901
90695W        W57236  39.954   0.293  12.935
90696W        W57237  38.300  27.202   3.413
90697W        W57238  44.542  34.062  10.260
90698W        W57239  39.984  15.087  13.811
90699W        W57240  27.711  18.682   3.506
90700W        W57241   7.135  16.712  13.801
90701W        W57242  38.498   3.443  11.100
90702W        W57243  44.354  14.178   0.198
90703W        W57244  31.601  18.807  14.498
90704W        W57245  13.035  14.190   2.230
90705W        W57246  30.629  34.544   4.283
90706W        W57247   6.919  38.746   0.662
90707W        W57248   4.247  11.663   3.902
90708W        W57249  16.218  23.162   1.527
90709W        W57250  20.671  30.131  12.666
90710W        W57251   4.415  35.287  14.789
90711W        W57252   1.361  38.297   1.124
90712W        W57253  12.870  20.969   3.897
90713W        W57254  15.609  10.989  12.581
90714W        W57255   7.764  17.599   4.720
90715W        W57256  10.928  13.780  14.346
90716W        W57257   4.074   7.678  12.043
90717W        W57258  37.933  28.223   1.367
90718W        W57259  40.054  26.887  10.793
90719W        W57260   0.301  23.071   2.103
90720W        W57261  26.105  22.178   4.237
90721W        W57262  21.733  36.563   0.431
90722W        W57263  37.567  35.362  11.449
90723W        W57264  20.209   8.640   4.187
90724W        W57265  15.291  25.629  14.333
90725W        W57266  35.811   9.473  12.616
90726W        W57267   5.154  43.472  13.377
90727W        W57268  20.012   3.884   0.714
90728W        W57269  39.843  38.052   0.360
90729W        W57270  39.958   4.426  13.664
90730W        W57271   1.422  37.811   3.464
90731W        W57272  20.150  14.818   3.395
90732W        W57273  35.441  13.232   1.843
90733W        W57274  35.028  11.658  14.303
90734W        W57275  25.377  24.962  12.505
90735W        W57276   9.378  29.904  12.376
90736W        W57277  30.077  43.305   0.494
90737W        W57278  28.881  40.863   4.365
90738W        W57279   2.195  35.138  11.144
90739W        W57280  42.408  34.236   1.571
90740W        W57281   5.672  40.304  12.555
90741W        W57282   6.193  40.961  12.696
90742W        W57283   6.341  40.513   0.880
90743W        W57284  20.294  43.379   2.210
90744W        W57285  20.708  41.434  13.513
90745W        W57286  44.240  21.564   3.539
90746W        W57287  13.771  17.766   2.884
90747W        W57288  27.723  28.364   2.392
90748W        W57289  19.157  25.985  10.850
90749W        W57290   9.234  32.337   2.464
90750W        W57291  28.521  35.158   1.181
90751W        W57292  27.920  38.520   1.175
90752W        W57293   6.901  39.278   0.718
90753W        W57294   9.817  41.272  11.470
90754W        W57295  19.157  12.623  11.898
90755W        W57296  13.700  12.001  11.251
90756W        W57297  21.248  33.192  12.208
90757W        W57298   9.571  29.315   0.538
90758W        W57299  19.118  13.589  12.626
90759W        W57300  43.201  26.344   1.191
90760W        W57301  32.120  26.217   4.043
90761W        W57302  25.511  44.839   3.718
90762W        W57303   6.190  42.080   4.554
90763W        W57304  43.913  28.808  11.565
90764W        W57305  30.360  21.966   4.083
90765W        W57306  26.032  39.817  12.082
90766W        W57307  31.429   0.088   2.198
90767W        W57308  34.632  35.988   0.437
90768W        W57309  42.009  34.290  11.164
90769W        W57310  25.777   3.774  14.319
90770W        W57311  15.293  29.208   4.136
90771W        W57312  34.936  43.859   3.769
90772W        W57313   4.722   6.247   2.722
90773W        W57314  32.943  27.418  11.666
90774W        W57315  44.966   8.069   2.355
90775W        W57316  33.591  23.188   3.334
90776W        W57317  29.670   7.631   3.185
90777W        W57318  15.884   2.120  13.344
90778W        W57319  38.049   2.798  12.454
90779W        W57320  21.164  43.407   0.346
90780W        W57321  31.042   1.356  12.414
90781W        W57322  33.482   5.804   4.415
90782W        W57323  25.770  19.734  12.216
90783W        W57324  14.795  35.965  11.446
90784W        W57325   8.701   3.158   0.966
90785W        W57326  15.945  16.710   4.724
90786W        W57327  21.796  40.467  12.422
90787W        W57328  26.048  34.502   3.441
90788W        W57329  22.019  31.916  12.896
90789W        W57330  20.262  10.672  13.285
90790W        W57331  44.026  31.065  13.481
90791W        W57332   5.388   5.114  13.981
90792W        W57333  32.085  39.458  13.777
90793W        W57334  13.374  10.460   0.468
90794W        W57335  12.659  39.833   2.285
90795W        W57336  26.344   1.508   1.912
90796W        W57337  40.464  37.497   1.171
90797W        W57338  33.583   1.837  14.840
90798W        W57339  27.459  28.142   1.406
90799W        W57340  36.927  35.312  12.105
90800W        W57341  28.218  31.565   0.210
90801W        W57342  23.713   0.510   4.211
90802W        W57343  42.594  42.530  10.409
90803W        W57344  31.425   1.075   2.565
90804W        W57345   9.261  24.915  12.076
90805W        W57346  17.588   1.597  12.959
90806W        W57347  44.343  34.988   0.050
90807W        W57348   3.912  15.244  14.349
90808W        W57349  32.092   5.212   0.222
90809W        W57350  22.112  22.292  14.340
90810W        W57351  20.413   2.670   4.288
90811W        W57352  34.335  36.903  14.908
90812W        W57353  26.171   1.521   3.291
90813W        W57354   1.303  30.631   2.380
90814W        W57355   1.224  41.092  14.866
90815W        W57356  29.958  12.940   1.898
90816W        W57357   1.422  29.564  11.537
90817W        W57358  30.068  14.268   3.504
90818W        W57359  18.143  44.086  11.533
90819W        W57360  13.727  41.595  14.370
90820W        W57361   0.828  39.791  10.764
90821W        W57362  43.987  27.030  11.318
90822W        W57363   1.883  34.101   0.903
90823W        W57364  28.168   4.515   2.862
90824W        W57365  44.635  40.186  14.965
90825W        W57366   8.827   1.177   2.422
90826W        W57367  30.485  15.145  12.150
90827W        W57368  15.589  36.862  14.252
90828W        W57369  31.570  12.821  13.832
90829W        W57370   8.958  15.935  14.424
90830W        W57371  26.150  37.003  11.243
90831W        W57372   0.564  42.507   0.757
90832W        W57373  36.004  21.069   2.745
90833W        W57374  18.765  18.099   3.167
90834W        W57375  30.604  22.007   3.646
90835W        W57376  35.364  43.933  14.366
90836W        W57377  25.646  15.314   1.056
90837W        W57378  19.487  30.387  12.090
90838W        W57379  21.835  43.008  11.226
90839W        W57380  29.389  34.832  13.769
90840W        W57381   9.412  13.982   0.314
90841W        W57382  30.889  23.425  12.537
90842W        W57383  33.921  15.867   1.766
90843W        W57384  36.511  35.018   9.877
90844W        W57385   2.492   8.552   2.870
90845W        W57386  34.153  36.733  13.314
90846W        W57387  23.240  36.555  10.949
90847W        W57388  10.243  39.448  11.274
90848W        W57389  37.022  39.374  11.643
90849W        W57390  42.486  33.160   4.133
90850W        W57391  16.299   2.856  10.921
90851W        W57392  14.591   6.277   3.302
90852W        W57393   5.714  19.548  11.811
90853W        W57394   0.339  31.886   1.805
90854W        W57395   4.863   6.174   3.637
90855W        W57396  32.204  38.665  13.035
90856W        W57397  20.519  13.707   2.142
90857W        W57398  38.328  14.527  12.167
90858W        W57399  24.783  24.733   4.127
90859W        W57400  13.187  13.357  12.056
90860W        W57401  41.794  19.085   3.573
90861W        W57402  19.748   8.828   4.321
90862W        W57403  29.791  31.605  14.495
90863W        W57404  33.101  20.278   0.142
90864W        W57405  13.389  13.219  12.520
90865W        W57406  16.044  33.410  13.948
90866W        W57407  37.236  37.406   4.407
90867W        W57408   7.903  24.519   4.198
90868W        W57409  37.136  33.328  12.176
90869W        W57410  18.811  39.615  14.198
90870W        W57411  13.786  12.511   0.740
90871W        W57412  21.260  24.773  13.397
90872W        W57413  11.285  37.175  10.289
90873W        W57414  30.560   6.098  13.596
90874W        W57415  10.894  24.048  11.037
90875W        W57416  21.677  12.104   4.575
90876W        W57417  18.244  31.514   0.946
90877W        W57418   1.492  25.538  13.877
90878W        W57419  44.092  38.861  12.453
90879W        W57420  38.028  41.984  12.545
90880W        W57421  27.093  34.122  11.583
90881W        W57422  25.597  38.213  14.529
90882W        W57423  39.836   8.096   2.352
90883W        W57424  18.529  33.062   1.069
90884W        W57425   4.929  27.540   1.894
90885W        W57426  28.134  39.244   0.879
90886W        W57427  43.408  31.689  12.009
90887W        W57428  18.555  42.932   4.057
90888W        W57429  24.009  26.027  12.513
90889W        W57430  11.086  30.079   4.322
90890W        W57431   8.419   0.122  12.501
90891W        W57432  44.804  16.199   4.938
90892W        W57433  11.799  36.206  12.169
90893W        W57434  39.076  21.180   2.342
90894W        W57435  44.533  14.576  13.797
90895W        W57436   2.001  27.534  11.673
90896W        W57437   7.351  30.874  12.845
90897W        W57438   4.271   2.301   2.235
90898W        W57439  13.699  36.292   3.718
90899W        W57440  33.621  33.130  12.642
90900W        W57441  38.138  17.753  12.089
90901W        W57442   9.416  25.630   3.295
90902W        W57443  11.903   6.211  12.909
90903W        W57444  31.357  18.186   3.945
90904W        W57445  41.932  35.661  11.954
90905W        W57446  24.452  33.278  11.649
90906W        W57447  21.578  44.085  10.903
90907W        W57448   9.071  21.116   5.082
90908W        W57449   1.484  18.365   2.610
90909W        W57450  12.867  22.639  13.352
90910W        W57451  14.662  18.040  11.566
90911W        W57452  33.852  16.247  12.183
90912W        W57453  28.688  21.934  11.420
90913W        W57454  33.668   3.339  13.797
90914W        W57455  39.815  15.954   2.476
90915W        W57456  41.670   8.705  13.518
90916W        W57457  11.096  14.192  11.436
90917W        W57458   5.150  27.599   3.296
90918W        W57459  29.246  42.711  14.108
90919W        W57460  23.503  14.143   1.010
90920W        W57461   6.927   9.818  12.794
90921W        W57462  30.869   2.955  11.537
90922W        W57463  30.470  31.581   2.070
90923W        W57464  19.211  38.492  10.733
90924W        W57465  16.667   1.685  13.075
90925W        W57466  43.482  15.557   3.865
90926W        W57467  24.397  20.079  11.128
90927W        W57468  35.605  21.582  13.490
90928W        W57469   4.843   6.019   2.226
90929W        W57470  10.202  23.779   0.799
90930W        W57471  37.649  23.305   4.094
90931W        W57472  26.763   5.710   2.775
90932W        W57473  39.631  11.256  13.005
90933W        W57474  41.765  39.940  14.746
90934W        W57475  15.990  40.320   2.715
90935W        W57476  35.839   7.888  12.994
90936W        W57477  17.774  27.732   4.692
90937W        W57478  38.503   7.797   3.783
90938W        W57479  30.701  26.750   2.221
90939W        W57480   8.633  44.367   4.703
90940W        W57481  37.447   0.745   4.545
90941W        W57482  23.654  25.165  10.944
90942W        W57483  28.036  44.138  11.815
90943W        W57484   2.717  23.918   3.896
90944W        W57485   5.661  35.664  14.948
90945W        W57486  36.130  15.434  12.915
90946W        W57487  11.202  39.519  12.096
90947W        W57488  14.783   5.376   1.325
90948W        W57489   8.165  37.448   9.855
90949W        W57490  18.740   9.014   1.038
90950W        W57491  23.737  39.413  13.830
90951W        W57492  13.524  22.566   4.771
90952W        W57493   9.479  23.383  12.113
90953W        W57494   8.467  26.540   3.519
90954W        W57495   9.376   1.196   1.289
90955W        W57496  22.280  42.503  11.554
90956W        W57497   1.510  44.983   3.829
90957W        W57498  28.363   2.766   1.440
90958W        W57499  13.806   1.222   0.747
90959W        W57500  44.870  17.647  11.049
90960W        W57501  28.721  22.616   1.334
90961W        W57502  21.176   0.769   4.835
90962W        W57503   2.813  34.460   5.050
90963W        W57504  43.711  40.326  14.982
90964W        W57505  24.078  10.156  12.462
90965W        W57506  25.613   8.631   3.226
90966W        W57507  15.373  30.658   4.100
90967W        W57508   4.894  33.299   1.391
90968W        W57509  13.204  19.708   4.703
90969W        W57510   9.646  25.420   3.734
90970W        W57511  19.630  35.354   3.175
90971W        W57512  20.536  19.564   3.264
90972W        W57513  15.081  28.258   0.170
90973W        W57514  41.259  18.641   4.563
90974W        W57515  19.585  38.969  12.241
90975W        W57516  27.400  40.009  13.601
90976W        W57517   0.112  35.390  11.260
90977W        W57518  24.122  32.074  10.174
90978W        W57519  27.086  10.595  12.355
90979W        W57520  12.405  17.228  14.755
90980W        W57521  32.149  12.724   2.650
90981W        W57522  29.995  33.508   2.187
90982W        W57523  13.624   8.838  11.143
90983W        W57524  35.523  39.556  10.758
90984W        W57525  19.681  30.431   4.653
90985W        W57526  20.957  32.275  11.863
90986W        W57527  33.634  25.794   3.209
90987W        W57528  26.270  25.499  13.607
90988W        W57529  25.575  28.559  10.814
90989W        W57530  22.232  20.212  11.984
90990W        W57531  23.381  24.010  14.568
90991W        W57532  12.052  21.153  14.010
90992W        W57533  42.525  32.449   2.243
90993W        W57534  29.856  17.651  13.409
90994W        W57535   8.706  15.583   2.885
90995W        W57536  26.938   2.449   4.327
90996W        W57537  21.758  37.828  13.551
90997W        W57538   3.848  26.008  12.319
90998W        W57539   4.636  27.021   2.853
90999W        W57540  30.611   3.931   3.260
91000W        W57541  43.293  36.129  11.121
91001W        W57542   9.437  29.950   1.623
91002W        W57543  27.500   2.891  10.563
91003W        W57544   0.627  31.382   0.960
91004W        W57545  36.277  39.051   3.673
91005W        W57546  20.376  38.521  14.699
91006W        W57547   7.874  27.039   3.568
91007W        W57548   6.486   7.815   4.292
91008W        W57549  37.026   9.572  10.802
91009W        W57550  25.960  31.085   1.440
91010W        W57551  10.327  36.833   4.161
91011W        W57552  30.708  39.753  13.314
91012W        W57553  36.286   4.972  11.161
91013W        W57554  26.332  14.916  10.769
91014W        W57555   3.458  44.684   2.217
91015W        W57556   9.432   0.431  13.427
91016W        W57557  10.762  27.944  11.889
91017W        W57558  37.794   6.723   1.391
91018W        W57559  22.208  10.327  13.761
91019W        W57560  18.568  15.690   0.273
91020W        W57561   1.907   3.362  11.430
91021W        W57562  34.188  16.406   4.240
91022W        W57563  16.125   1.546  11.385
91023W        W57564  19.569  23.633   4.645
91024W        W57565  36.615   1.404  14.756
91025W        W57566  15.216  20.672   0.338
91026W        W57567  41.455  36.861  14.478
91027W        W57568   8.379  16.013  12.065
91028W        W57569  33.130  31.877   3.292
91029W        W57570  30.000  25.814  11.610
91030W        W57571  36.707  30.625  13.822
91031W        W57572  16.338  19.403   3.264
91032W        W57573  12.664  27.554   2.359
91033W        W57574  10.369  35.356   2.743
91034W        W57575   3.492  17.671   4.932
91035W        W57576  17.218   3.160  11.528
91036W        W57577  10.143  15.527  14.344
91037W        W57578   6.724   2.196   2.170
91038W        W57579  42.837   1.257   1.394
91039W        W57580   9.253  38.995   2.815
91040W        W57581   7.461  16.762  10.652
91041W        W57582   7.201  16.943  12.098
91042W        W57583  30.444  23.401   0.876
91043W        W57584  18.749  21.539  12.103
91044W        W57585  15.328  32.462   4.454
91045W        W57586  36.448   5.944   4.654
91046W        W57587  15.614  14.140  10.652
91047W        W57588  37.474  33.482   1.877
91048W        W57589  24.879  19.062  11.649
91049W        W57590   0.747  36.920   1.429
91050W        W57591  18.527  18.779   1.918
91051W        W57592  42.176   7.046   1.885
91052W        W57593  31.225  19.684   3.845
91053W        W57594   1.586  43.038   3.753
91054W        W57595  26.839   7.755   4.725
91055W        W57596  33.367  43.878   0.388
91056W        W57597  44.511  15.624  12.997
91057W        W57598  27.039   6.720   4.651
91058W        W57599   0.400  30.627   1.411
91059W        W57600  42.209  10.407   2.847
91060W        W57601  21.318  30.516  14.086
91061W        W57602  31.497  36.263   2.812
91062W        W57603  11.830  27.680   3.257
91063W        W57604  18.242  32.602  12.570
91064W        W57605  23.034  35.152  11.621
91065W        W57606  18.942  40.556  11.434
91066W        W57607   1.790  26.967   3.672
91067W        W57608   1.933  39.000  12.899
91068W        W57609  34.127  20.585  10.575
91069W        W57610  13.252  31.953  13.047
91070W        W57611  13.397  40.436  12.831
91071W        W57612   0.463  12.136  14.419
91072W        W57613  24.842  19.965  13.551
91073W        W57614  15.111   6.259   4.176
91074W        W57615  23.977  34.911  12.482
91075W        W57616  33.805  42.223   2.503
91076W        W57617  21.822   2.919   4.645
91077W        W57618  30.439  27.702   1.154
91078W        W57619  11.913  42.618   1.408
91079W        W57620  26.498  31.844  10.928
91080W        W57621  23.206  29.405   1.441
91081W        W57622   3.249  14.883  11.708
91082W        W57623  32.041  19.019   1.761
91083W        W57624  32.950  17.837   1.800
91084W        W57625  34.255  12.151  11.992
91085W        W57626  13.526   0.221   3.804
91086W        W57627  26.120  43.505  12.944
91087W        W57628  39.486  21.131   2.654
91088W        W57629   5.853  34.978   0.378
91089W        W57630  40.310  13.063   0.790
91090W        W57631  20.478   1.134  12.976
91091W        W57632  16.312  42.076  10.725
91092W        W57633   9.194  35.962   1.478
91093W        W57634  10.155  36.005  12.971
91094W        W57635  29.823  32.988  10.611
91095W        W57636  11.233   8.188  12.955
91096W        W57637  32.115  10.945  11.151
91097W        W57638  19.653   1.468  10.775
91098W        W57639  38.239   8.742   0.198
91099W        W57640  10.303  15.946   4.920
91100W        W57641   2.817  31.464  14.442
91101W        W57642  30.711  35.052  12.935
91102W        W57643  15.086  37.821   3.239
91103W        W57644  38.482   6.561  12.004
91104W        W57645  21.990   3.929   3.297
91105W        W57646  36.189  41.454  13.889
91106W        W57647  43.828  16.135  13.534
91107W        W57648  24.724   5.749   9.885
91108W        W57649   0.850   8.715  11.261
91109W        W57650  17.255  27.076  10.641
91110W        W57651   8.334  32.959  12.010
91111W        W57652   6.292  26.355  12.075
91112W        W57653  29.244  37.080  12.957
91113W        W57654   4.959  16.098  12.918
91114W        W57655  17.307  36.606   1.328
91115W        W57656   3.089   3.180  14.329
91116W        W57657  33.424  10.542  14.691
91117W        W57658   3.372  15.053   2.293
91118W        W57659  40.856  29.428  14.324
91119W        W57660  20.768  24.874  12.285
91120W        W57661  26.184  39.699  11.616
91121W        W57662  11.508  36.914  11.656
91122W        W57663   1.491  13.859   4.784
91123W        W57664  14.888   9.303  12.050
91124W        W57665  41.098   1.493   0.807
91125W        W57666  41.471   6.615  14.437
91126W        W57667   3.424  13.869  11.538
91127W        W57668   7.412  37.724   5.311
91128W        W57669  10.683  33.099   1.901
91129W        W57670  41.348  21.100  14.432
91130W        W57671   2.504  22.477  14.725
91131W        W57672  36.487  23.610  10.264
91132W        W57673  27.447  14.586  14.447
91133W        W57674   1.991   4.509  13.417
91134W        W57675  32.604  12.556  13.788
91135W        W57676   7.864  42.069  11.452
91136W        W57677  24.719  40.543  13.979
91137W        W57678   5.057   5.707   3.569
91138W        W57679  15.162  26.926   0.537
91139W        W57680   4.708   2.877   2.765
91140W        W57681   0.747  31.865  12.045
91141W        W57682  24.160  13.487  13.512
91142W        W57683  27.963  11.761   1.981
91143W        W57684   0.807  31.979   3.477
91144W        W57685  30.919  31.858   1.057
91145W        W57686  39.580  40.764  14.868
91146W        W57687   1.893   6.045  13.918
91147W        W57688  21.106  43.929   1.663
91148W        W57689  17.492  24.034  11.629
91149W        W57690  25.336  35.431  12.761
91150W        W57691  32.683  14.750  13.370
91151W        W57692  27.125  22.689  10.707
91152W        W57693  25.127  12.751   0.396
91153W        W57694  11.093   9.802  14.273
91154W        W57695  25.605  35.746  14.420
91155W        W57696   0.962   1.063  13.717
91156W        W57697  43.129   7.751  14.177
91157W        W57698  29.959  31.625   1.993
91158W        W57699  35.565  17.187  13.991
91159W        W57700  39.643  25.423  13.329
91160W        W57701  44.198  10.934   1.460
91161W        W57702  42.844  24.148  13.467
91162W        W57703   0.506   5.007  12.634
91163W        W57704  29.622  23.033  14.960
91164W        W57705  37.443   3.412  13.959
91165W        W57706  27.600  42.534   1.724
91166W        W57707  27.978   7.656   1.380
91167W        W57708  40.877  23.561   2.640
91168W        W57709  13.564   3.666  11.972
91169W        W57710  37.835  12.650  13.439
91170W        W57711  10.228  15.870  12.948
91171W        W57712  27.934   0.362  11.997
91172W        W57713  35.832  38.782   3.713
91173W        W57714  25.074  19.196  13.976
91174W        W57715  40.860  22.467  11.531
91175W        W57716   3.895  17.234  11.337
91176W        W57717  10.573  37.352   4.081
91177W        W57718  36.540  24.271   0.297
91178W        W57719  40.722  16.703   1.394
91179W        W57720  37.356   0.572   3.581
91180W        W57721  24.176  12.815  14.269
91181W        W57722  27.518  11.108   0.899
91182W        W57723  39.268   9.352   0.308
91183W        W57724  33.038  14.244   4.688
91184W        W57725  38.347   8.682  10.719
91185W        W57726   9.582  27.504   4.566
91186W        W57727   8.259  38.033  12.348
91187W        W57728  25.381   9.189   3.805
91188W        W57729   8.796  32.469   4.561
91189W        W57730  25.052  35.131   1.363
91190W        W57731  41.093  37.646   0.469
91191W        W57732  37.409  26.144  14.527
91192W        W57733  17.150  35.127   0.413
91193W        W57734   7.970  19.443   3.625
91194W        W57735  34.505   8.641   1.848
91195W        W57736   7.803   2.309  14.796
91196W        W57737  10.263  31.035  10.421
91197W        W57738  15.487   7.370   2.732
91198W        W57739   0.447  39.031   0.326
91199W        W57740  19.109  28.780   0.802
91200W        W57741   6.839  14.308   4.607
91201W        W57742   9.535   8.733  14.559
91202W        W57743  44.833  37.398  11.464
91203W        W57744  31.956  20.059   0.662
91204W        W57745  34.033  22.043  12.931
91205W        W57746   3.348  30.976   3.414
91206W        W57747   0.923  26.756   3.002
91207W        W57748  33.572  34.108  13.733
91208W        W57749   8.732   4.365   1.289
91209W        W57750  20.298  34.172  10.651
91210W        W57751   8.440   6.424  14.375
91211W        W57752  21.206  12.349   4.726
91212W        W57753  17.024  31.689  10.169
91213W        W57754  41.589  20.041   3.307
91214W        W57755  38.899  38.349   1.730
91215W        W57756  10.729   5.212  11.596
91216W        W57757  28.236   4.075  13.492
91217W        W57758  16.736  17.211   0.250
91218W        W57759   9.908  33.979   2.786
91219W        W57760  36.810  28.037   3.687
91220W        W57761   4.804   4.270   1.683
91221W        W57762  41.061  44.340   4.147
91222W        W57763  44.767  22.563   1.688
91223W        W57764  10.217  21.041  12.233
91224W        W57765   6.120  20.579  10.757
91225W        W57766  32.418  40.830  13.538
91226W        W57767  39.623   8.173   3.665
91227W        W57768  42.901  22.155  12.502
91228W        W57769  34.552  15.139  12.197
91229W        W57770  32.513   1.380  10.164
91230W        W57771  34.513  41.576   1.945
91231W        W57772  32.768  44.482  10.170
91232W        W57773   9.834  16.873   0.390
91233W        W57774  13.349  43.823   3.145
91234W        W57775   5.438  14.142   3.630
91235W        W57776  23.499  11.104   1.880
91236W        W57777   0.609  21.952  14.261
91237W        W57778   8.721   6.614   4.158
91238W        W57779  44.053  37.452   0.035
91239W        W57780   6.855  41.896   0.855
91240W        W57781   5.811  21.903   0.750
91241W        W57782   3.981  32.900   1.783
91242W        W57783  30.376   1.349   2.041
91243W        W57784   0.322  10.326  13.884
91244W        W57785  19.033  29.859   1.380
91245W        W57786  36.569  39.118  10.722
91246W        W57787   1.675  21.032  10.181
91247W        W57788  31.465  43.163   1.193
91248W        W57789  13.607  12.243   3.253
91249W        W57790   8.820   7.748  11.569
91250W        W57791   5.371  25.774   1.835
91251W        W57792  15.373  27.484  14.864
91252W        W57793  11.295   3.054  11.881
91253W        W57794   1.262  13.314  10.688
91254W        W57795  12.780   6.153   3.344
91255W        W57796  17.600  42.543   2.778
91256W        W57797  17.170  28.490   4.817
91257W        W57798  22.596  10.037   4.179
91258W        W57799  10.820  34.136  12.970
91259W        W57800  43.951  10.365  10.674
91260W        W57801  15.062  26.904   2.057
91261W        W57802   8.864  25.029  12.839
91262W        W57803  40.693   8.426  13.603
91263W        W57804  21.175  37.337   4.676
91264W        W57805  40.290   7.262   4.164
91265W        W57806  37.106  41.435  11.499
91266W        W57807   7.332  36.516   2.694
91267W        W57808  10.803  39.080  12.880
91268W        W57809  28.981  12.069  13.810
91269W        W57810  26.702  13.370  12.217
91270W        W57811  18.082  19.920  14.330
91271W        W57812  11.204  13.551  12.908
91272W        W57813  35.421  13.528  12.958
91273W        W57814  37.864  42.375   4.198
91274W        W57815  24.576  10.175  14.889
91275W        W57816  17.089  28.492  10.830
91276W        W57817   3.020  12.683  12.927
91277W        W57818  37.116  16.624  11.060
91278W        W57819  25.200  42.170  12.898
91279W        W57820  10.898  22.710   1.343
91280W        W57821  31.716  43.265  11.390
91281W        W57822   0.067  14.122  14.932
91282W        W57823  25.713  23.617   1.280
91283W        W57824  16.471  34.639  12.388
91284W        W57825  11.326   1.960  12.880
91285W        W57826   8.676  38.261  11.996
91286W        W57827  42.787  39.916  13.974
91287W        W57828   2.211   5.133   0.265
91288W        W57829  17.487  29.033  13.072
91289W        W57830  18.777  37.134  13.026
91290W        W57831  24.959  40.851   2.355
91291W        W57832  24.996   1.409   2.429
91292W        W57833   3.745  27.791   4.014
91293W        W57834  29.663  27.564   4.057
91294W        W57835  16.451   6.731  10.877
91295W        W57836  11.209  43.605   3.074
91296W        W57837  37.522  31.749  12.803
91297W        W57838  17.241  44.939  13.903
91298W        W57839   4.162  27.612  14.053
91299W        W57840  13.672   3.441  12.544
91300W        W57841  14.402  22.273  11.545
91301W        W57842  18.687   2.514   2.938
91302W        W57843  27.099  33.490  13.316
91303W        W57844  15.359  17.328  10.552
91304W        W57845  25.934  15.764  12.893
91305W        W57846  16.540  41.010  11.117
91306W        W57847   2.656  17.175  11.528
91307W        W57848  22.017  38.724   0.459
91308W        W57849   4.160  44.656   4.730
91309W        W57850   1.732  31.907  12.025
91310W        W57851  38.538  42.059   2.554
91311W        W57852  21.003  29.118   3.457
91312W        W57853  27.215   0.799  14.264
91313W        W57854  22.722  19.450   5.139
91314W        W57855  16.295  22.020   2.814
91315W        W57856  19.311  38.835   3.900
91316W        W57857  38.099  42.000   0.356
91317W        W57858   2.708  39.109   1.393
91318W        W57859  38.242  32.211   2.778
91319W        W57860   9.653  40.011   1.706
91320W        W57861  25.093  36.640  13.902
91321W        W57862   9.202   2.354  12.966
91322W        W57863  26.450  23.944  10.688
91323W        W57864  39.003  20.570  13.018
91324W        W57865  16.715  35.117  12.365
91325W        W57866  15.332   4.468  14.393
91326W        W57867  23.782   9.049  10.969
91327W        W57868   0.797  32.343  14.988
91328W        W57869  38.131  40.063   2.728
91329W        W57870  43.359   7.023  13.514
91330W        W57871  25.150  40.661   1.870
91331W        W57872  18.807  14.126   0.753
91332W        W57873  44.167  44.003  10.070
91333W        W57874  39.909  34.535  12.646
91334W        W57875   6.298  11.578  13.981
91335W        W57876  11.749  44.407  12.643
91336W        W57877  39.672  12.956   1.420
91337W        W57878   2.756  29.832   0.850
91338W        W57879  24.503  27.541  13.480
91339W        W57880  10.222   5.395   2.743
91340W        W57881   4.724  24.618  12.850
91341W        W57882   9.422  20.622   3.709
91342W        W57883  14.679   6.659   4.209
91343W        W57884  25.067   2.337   2.205
91344W        W57885   3.796  23.617  11.629
91345W        W57886  20.190  18.617   4.993
91346W        W57887  34.761  16.462  11.639
91347W        W57888  12.614  40.485   4.697
91348W        W57889  41.293   3.368  10.626
91349W        W57890  34.534  34.456  12.126
91350W        W57891  43.642   7.485   0.720
91351W        W57892  41.728  37.452  13.384
91352W        W57893  12.368  40.912   1.326
91353W        W57894  41.374   5.810   4.762
91354W        W57895  32.887  37.372   0.935
91355W        W57896  34.197   3.367  13.904
91356W        W57897   2.290  26.042  12.352
91357W        W57898  18.430   0.373  11.179
91358W        W57899  12.655  14.661   3.488
91359W        W57900  40.718  24.175   4.952
91360W        W57901  15.288  22.536   4.135
91361W        W57902   8.764  14.275  14.548
91362W        W57903   5.091  32.425  12.601
91363W        W57904   7.109  16.073   0.808
91364W        W57905  37.394  40.487  12.884
91365W        W57906  11.316  36.979  11.174
91366W        W57907  34.682  36.087   2.374
91367W        W57908  43.201  34.084  14.242
91368W        W57909  27.356   5.435  11.182
91369W        W57910   4.614   5.174   3.233
91370W        W57911  42.279  23.967   0.692
91371W        W57912  16.689  27.714  10.878
91372W        W57913   7.072  30.556   3.190
91373W        W57914  34.630  38.043  13.281
91374W        W57915   2.279  26.580   1.506
91375W        W57916  43.366  11.809   2.707
91376W        W57917  31.340  32.404   2.175
91377W        W57918   2.455   5.827   1.498
91378W        W57919  34.615  24.187  13.352
91379W        W57920  17.610   6.293  11.532
91380W        W57921  26.464  26.683   0.298
91381W        W57922  18.888  12.756   0.264
91382W        W57923  19.205  20.066  11.976
91383W        W57924  17.722  30.727  12.462
91384W        W57925  19.567  31.693   1.655
91385W        W57926   9.443  15.637   2.140
91386W        W57927  28.456  42.326   4.283
91387W        W57928  44.040   3.404  13.014
91388W        W57929  33.635  31.322   3.856
91389W        W57930  31.442  31.192  14.055
91390W        W57931  20.320  17.262   4.049
91391W        W57932  14.572  34.420   0.823
91392W        W57933  21.487  12.015  11.185
91393W        W57934  15.111   1.181   2.804
91394W        W57935   7.397   6.730   0.947
91395W        W57936  41.601  29.386  10.471
91396W        W57937  30.437   8.278   4.228
91397W        W57938  40.283  41.597   0.397
91398W        W57939  20.037   4.887   3.745
91399W        W57940  37.371  16.174  13.079
91400W        W57941  21.686  13.608   3.740
91401W        W57942  31.885   0.410  13.600
91402W        W57943   6.077  13.328   1.354
91403W        W57944  21.495  43.123  12.053
91404W        W57945  32.926   7.227  14.431
91405W        W57946   3.924  12.411   0.506
91406W        W57947  32.229   5.493  12.003
91407W        W57948  31.039  22.228   4.585
91408W        W57949  20.259  25.561   1.183
91409W        W57950  40.387  33.217  11.569
91410W        W57951   2.540  13.806   2.712
91411W        W57952  37.259   5.762  14.251
91412W        W57953  26.075   5.423  12.493
91413W        W57954   4.644  30.150  13.399
91414W        W57955   1.796  39.069   1.184
91415W        W57956  12.133  44.526   3.830
91416W        W57957  28.111   8.674  10.253
91417W        W57958   0.940   9.942   4.532
91418W        W57959   1.804  21.405  10.623
91419W        W57960  35.650  30.307  12.994
91420W        W57961  27.683   7.488  13.165
91421W        W57962  21.006  36.590  14.795
91422W        W57963  11.281   8.407  13.418
91423W        W57964  18.127   8.086  11.683
91424W        W57965  34.549  31.118   3.109
91425W        W57966   6.414  10.380   4.754
91426W        W57967  35.687   1.580  10.294
91427W        W57968  26.219  18.642   0.416
91428W        W57969  38.458   4.122   2.271
91429W        W57970  29.773  23.268  13.482
91430W        W57971  39.487  18.367   1.827
91431W        W57972   3.387  35.810  12.808
91432W        W57973   1.462  42.808  13.316
91433W        W57974   5.742  23.991   1.756
91434W        W57975  21.502  26.256  10.904
91435W        W57976  24.233   4.495  12.039
91436W        W57977   9.575  18.359  11.992
91437W        W57978   3.237  13.406   4.653
91438W        W57979  10.574  25.772  14.976
91439W        W57980  17.695  20.851  11.771
91440W        W57981  12.395  23.178   2.301
91441W        W57982   8.127  20.092  12.524
91442W        W57983  18.536  43.661  14.949
91443W        W57984  11.463   4.398  13.061
91444W        W57985   4.799  39.574   2.812
91445W        W57986  11.804  31.454  11.169
91446W        W57987  40.415  20.316  12.027
91447W        W57988  23.378  26.527  13.970
91448W        W57989   5.904  22.631   4.245
91449W        W57990  34.439  35.619  14.071
91450W        W57991  13.317  33.090  14.025
91451W        W57992  37.336  39.095  14.331
91452W        W57993  35.284  26.063  13.387
91453W        W57994  41.420  12.803  13.795
91454W        W57995  43.847   1.359   3.643
91455W        W57996  28.664  27.967   3.043
91456W        W57997  17.593  43.695  14.867
91457W        W57998  44.269  26.094  14.803
91458W        W57999  14.363   7.674  11.630
91459W        W58000  30.561  20.636   1.647
91460W        W58001  35.014   6.551   0.979
91461W        W58002  33.813   5.324   1.884
91462W        W58003  32.964  33.307  12.541
91463W        W58004  36.499   5.727   1.864
91464W        W58005   1.480  22.571  14.464
91465W        W58006  42.779  10.315  12.493
91466W        W58007  10.850   6.660   4.216
91467W        W58008   1.181   5.122   0.038
91468W        W58009  40.021   2.890  13.457
91469W        W58010  36.833   1.871   9.688
91470W        W58011  26.592  43.551   0.891
91471W        W58012  14.886  27.603  13.814
91472W        W58013  41.361  43.489  14.759
91473W        W58014  21.625  22.515  14.291
91474W        W58015  13.207  36.382  11.941
91475W        W58016  23.441  24.518  14.581
91476W        W58017  33.210   1.218   0.377
91477W        W58018  30.093   4.303  13.445
91478W        W58019  21.446   3.306  12.321
91479W        W58020  20.673   1.315  12.533
91480W        W58021   3.947  14.629  10.847
91481W        W58022   7.122  37.610  11.135
91482W        W58023   7.639  24.473   0.824
91483W        W58024  29.579  29.146   1.439
91484W        W58025  16.030  34.878  12.176
91485W        W58026  28.396   0.552   0.220
91486W        W58027  18.732  44.031  11.242
91487W        W58028  33.743  41.121  12.391
91488W        W58029  13.215  39.861   2.248
91489W        W58030  16.477  26.194  11.728
91490W        W58031  38.875   7.813   4.148
91491W        W58032  28.600   1.732  14.367
91492W        W58033   8.428  27.378   3.777
91493W        W58034   6.578   2.409  10.711
91494W        W58035  20.017  31.124  13.005
91495W        W58036   4.380  23.085  13.119
91496W        W58037  20.496  12.165  14.426
91497W        W58038  22.512  14.410   1.040
91498W        W58039  26.228  24.559   0.502
91499W        W58040  17.135  13.835  14.584
91500W        W58041  31.650  34.147  13.288
91501W        W58042  41.501  27.990   3.665
91502W        W58043   3.749   0.806  10.226
91503W        W58044  22.663  35.873  12.907
91504W        W58045  11.226  33.101   3.661
91505W        W58046  23.524  40.381  13.026
91506W        W58047   8.912  28.968  12.442
91507W        W58048  27.969  13.076  10.772
91508W        W58049  29.847  11.556  14.898
91509W        W58050  28.497   2.856   0.335
91510W        W58051  15.708  22.423  12.597
91511W        W58052   5.438  40.191  12.109
91512W        W58053  42.417   8.768   2.821
91513W        W58054  11.203  34.512   1.932
91514W        W58055  11.058   8.908   1.716
91515W        W58056  42.524   0.170  13.559
91516W        W58057  44.738  22.760  13.664
91517W        W58058   9.816  32.224  14.448
91518W        W58059  31.374   5.469   1.310
91519W        W58060  25.541   7.590   4.432
91520W        W58061  44.355  20.249  13.364
91521W        W58062  42.000  25.688  10.703
91522W        W58063  39.288  19.757   4.554
91523W        W58064   3.744  13.814  13.465
91524W        W58065  38.870  10.495  11.203
91525W        W58066  23.620   7.912  10.199
91526W        W58067  31.983  32.182   4.542
91527W        W58068   2.843  23.267   4.670
91528W        W58069   3.476  33.868  12.451
91529W        W58070  37.495  34.079  10.647
91530W        W58071  38.531   3.625  12.675
91531W        W58072  19.772   4.302  13.841
91532W        W58073   2.217  34.870   2.787
91533W        W58074   8.421  28.099  11.113
91534W        W58075  30.041  30.608   3.263
91535W        W58076  27.395  18.292  14.936
91536W        W58077  31.567   0.652   4.632
91537W        W58078  36.445  13.621  11.017
91538W        W58079  21.658   2.689   0.290
91539W        W58080   6.680   0.190  12.414
91540W        W58081  39.581  21.070  11.857
91541W        W58082   8.277  19.568   5.106
91542W        W58083  21.487  16.817  13.744
91543W        W58084   4.749  12.358   2.824
91544W        W58085  34.680  24.712   0.035
91545W        W58086  37.887  22.160  14.291
91546W        W58087  37.879  12.191   1.930
91547W        W58088   4.409  34.578   0.806
91548W        W58089  16.034   8.728   2.798
91549W        W58090  40.357  41.211  12.962
91550W        W58091  17.201   5.471   3.599
91551W        W58092  22.085   0.252  12.411
91552W        W58093  34.061  28.942  11.863
91553W        W58094  33.106   5.000  11.599
91554W        W58095  28.481  14.762  13.382
91555W        W58096  18.853  36.350   0.311
91556W        W58097  27.002  40.157   3.676
91557W        W58098   3.608  31.054   5.077
91558W        W58099  21.269  13.013  12.939
91559W        W58100  40.356   3.773   2.776
91560W        W58101   2.835  41.950   4.594
91561W        W58102  31.396  27.617   1.607
91562W        W58103  26.606  15.412   0.254
91563W        W58104  30.408  44.684   1.353
91564W        W58105  26.686   3.404   1.432
91565W        W58106  26.189  22.900   2.587
91566W        W58107  42.438  10.039  14.726
91567W        W58108  44.302  14.248   1.436
91568W        W58109   3.846  28.693   0.340
91569W        W58110  43.737  16.716   0.254
91570W        W58111  10.135  26.305   1.358
91571W        W58112   4.666  21.574   4.584
91572W        W58113  33.168  29.812  12.405
91573W        W58114  12.768  38.022  12.149
91574W        W58115  14.301   3.825  11.939
91575W        W58116  36.104  14.221   3.675
91576W        W58117  25.607  11.270   0.942
91577W        W58118  33.378   3.218   0.200
91578W        W58119  40.192  15.073   5.267
91579W        W58120   4.942  31.289   4.879
91580W        W58121  21.651   7.947  14.815
91581W        W58122  16.205  32.539   1.913
91582W        W58123   6.935  42.548  13.351
91583W        W58124  14.594  43.357   0.336
91584W        W58125  31.566  34.183   3.694
91585W        W58126   8.807  13.240   4.534
91586W        W58127  41.926  24.135   4.102
91587W        W58128  13.500  33.372   4.573
91588W        W58129  19.798  27.463  11.608
91589W        W58130  38.410  24.726  13.837
91590W        W58131  37.890  40.422  12.464
91591W        W58132  36.179   2.440  12.099
91592W        W58133  36.027   5.757  10.509
91593W        W58134  23.248  20.651  13.132
91594W        W58135  33.085  36.062  14.939
91595W        W58136  14.640  33.424   1.096
91596W        W58137  10.786  30.609   1.685
91597W        W58138  36.933  25.274  12.999
91598W        W58139   9.865  12.909  13.355
91599W        W58140  25.439  41.309   4.702
91600W        W58141  39.014  16.321  10.964
91601W        W58142   6.931   1.313  11.091
91602W        W58143  16.641  11.216  14.752
91603W        W58144  26.733  11.251  13.873
91604W        W58145  34.714   4.214   0.004
91605W        W58146   9.086  15.049   3.790
91606W        W58147   6.443   3.465   3.220
91607W        W58148  19.631  44.439   1.383
91608W        W58149  28.171  44.437  11.428
91609W        W58150   7.333  24.462  14.318
91610W        W58151  40.144  29.727  11.106
91611W        W58152   5.952  30.874  14.429
91612W        W58153   9.175   7.317  12.789
91613W        W58154  27.365  11.939   4.181
91614W        W58155  26.260  31.684  13.027
91615W        W58156   2.781  21.644   2.619
91616W        W58157  31.821  35.347  11.582
91617W        W58158  22.691  29.616   3.643
91618W        W58159  12.175   7.932  12.100
91619W        W58160  18.664  19.994  14.962
91620W        W58161   4.438   8.658  14.380
91621W        W58162  39.564  33.623  12.525
91622W        W58163  19.334   7.567   4.500
91623W        W58164  11.824  31.450   1.859
91624W        W58165  41.541  12.878   0.260
91625W        W58166   7.702  33.065  14.566
91626W        W58167  42.379  31.274  11.721
91627W        W58168  38.481  33.664   3.134
91628W        W58169  11.628  42.854   2.295
91629W        W58170  11.518  22.334  12.448
91630W        W58171  31.419  19.118  12.924
91631W        W58172  36.008   7.490  13.925
91632W        W58173  31.368  37.295   1.688
91633W        W58174  42.245  17.474  14.970
91634W        W58175  19.054  36.998   1.246
91635W        W58176  13.908  32.673  11.441
91636W        W58177   9.817   6.884  10.711
91637W        W58178  10.635  42.313   0.235
91638W        W58179  11.411  36.441  12.408
91639W        W58180   3.173  27.732   3.384
91640W        W58181   7.917   6.469  12.428
91641W        W58182  12.968  32.451  11.087
91642W        W58183  35.526  13.346   1.325
91643W        W58184  43.978  43.455   2.860
91644W        W58185  18.832  24.472   1.300
91645W        W58186  37.867   5.489   1.848
91646W        W58187  16.834  44.341   1.751
91647W        W58188  31.142   9.670   2.211
91648W        W58189   8.351  25.244   4.660
91649W        W58190  30.885   7.626   3.812
91650W        W58191   3.188   0.229  13.983
91651W        W58192   7.937  35.001   0.808
91652W        W58193  29.154  43.510   2.342
91653W        W58194  34.935  18.045  13.978
91654W        W58195  42.822   1.248  11.834
91655W        W58196  39.874  38.373  13.850
91656W        W58197  18.008  28.840  12.610
91657W        W58198  34.938  21.273   1.485
91658W        W58199  15.503  29.655   5.086
91659W        W58200  23.214  15.649   3.702
91660W        W58201  37.316  10.877  12.465
91661W        W58202  27.499   7.105  12.821
91662W        W58203  11.369  16.522   4.711
91663W        W58204  26.456  27.069  12.935
91664W        W58205  39.514  44.248  13.426
91665W        W58206  39.084  23.350  14.861
91666W        W58207   0.735  17.973   0.932
91667W        W58208   1.811   7.400   4.133
91668W        W58209   6.175  22.584  10.759
91669W        W58210  43.289  30.613   1.218
91670W        W58211  19.639  16.022   1.191
91671W        W58212   5.493  38.497   3.914
91672W        W58213  23.924  37.132  14.337
91673W        W58214  19.218  35.748  10.690
91674W        W58215   9.938  24.604  14.396
91675W        W58216   0.271  33.226  12.863
91676W        W58217   1.822  37.359  12.216
91677W        W58218  30.670  34.160  13.422
91678W        W58219  42.924  39.857  11.486
91679W        W58220  27.987   9.385  14.078
91680W        W58221  20.099  29.854  13.334
91681W        W58222  36.126   8.140   3.155
91682W        W58223  37.389  23.619   1.997
91683W        W58224  34.896  42.835  13.019
91684W        W58225  24.108  26.386  10.792
91685W        W58226  44.941  16.583  14.737
91686W        W58227  22.634  35.587   3.509
91687W        W58228  31.865  15.378  14.454
91688W        W58229   3.071   9.408  12.967
91689W        W58230  10.891  16.727  12.355
91690W        W58231  31.073  44.366   4.655
91691W        W58232  44.807   9.125   2.358
91692W        W58233   5.428   9.890  11.034
91693W        W58234  25.960   2.068  11.593
91694W        W58235  13.328  10.358  10.514
91695W        W58236  19.641  30.908   4.955
91696W        W58237  26.727   0.479   4.331
91697W        W58238   2.276   2.988  12.124
91698W        W58239  16.115  24.328   1.414
91699W        W58240  37.077  44.507   2.257
91700W        W58241  24.995  32.527  12.029
91701W        W58242  32.905   3.978   4.432
91702W        W58243  27.243  20.313  12.494
91703W        W58244  23.098  12.741  12.335
91704W        W58245  16.655  38.522   1.409
91705W        W58246   1.438  30.507  12.699
91706W        W58247  27.219  37.498  11.703
91707W        W58248  43.134  29.040  11.047
91708W        W58249  16.234  19.277  11.598
91709W        W58250  41.390  34.489   3.991
91710W        W58251   1.498   0.204   1.450
91711W        W58252  31.387  30.509  10.907
91712W        W58253   4.222  36.002  10.624
91713W        W58254   1.582  14.145  13.009
91714W        W58255  44.755  33.600  11.950
91715W        W58256  43.057   4.817  13.927
91716W        W58257  39.803  31.514   0.508
91717W        W58258  11.733  33.619  14.536
91718W        W58259  12.539  36.361   3.090
91719W        W58260  30.361  19.659  14.839
91720W        W58261  35.951  31.890   3.169
91721W        W58262   0.522  28.944  13.483
91722W        W58263  21.894  21.228  14.037
91723W        W58264  24.729  21.018   3.007
91724W        W58265  35.497  39.243   0.757
91725W        W58266  41.689  20.148  14.255
91726W        W58267  36.077  18.575  14.461
91727W        W58268   5.759   1.974  11.119
91728W        W58269  38.099   0.569   2.327
91729W        W58270  40.000  36.701  14.501
91730W        W58271  15.903   5.435  13.536
91731W        W58272  38.495  42.780   0.444
91732W        W58273  19.510  34.478  13.312
91733W        W58274  10.623  35.576  14.421
91734W        W58275  29.533  23.534  14.961
91735W        W58276  24.156  44.277  11.305
91736W        W58277  40.035  10.958  12.937
91737W        W58278   4.890  23.052  10.180
91738W        W58279   0.309  41.271  11.139
91739W        W58280  32.873  39.632   1.838
91740W        W58281  43.258  20.634   4.430
91741W        W58282   6.625  17.556   3.722
91742W        W58283   1.866   1.391   4.269
91743W        W58284  12.075  12.661   2.415
91744W        W58285  25.932  10.792   0.868
91745W        W58286  11.127  34.418  12.673
91746W        W58287  13.608  38.164   0.397
91747W        W58288  24.281  18.306   4.157
91748W        W58289  40.966  22.902   0.805
91749W        W58290   3.186  36.205  12.006
91750W        W58291  36.668  17.812  13.419
91751W        W58292   0.451  18.299  11.651
91752W        W58293  27.668  32.151   4.103
91753W        W58294  37.703  12.773  11.268
91754W        W58295   1.898  28.308   9.564
91755W        W58296  15.586  39.333   2.435
91756W        W58297  18.904  42.498   2.311
91757W        W58298  28.493  30.594   4.014
91758W        W58299  34.451  15.684   3.397
91759W        W58300  25.896  15.567  14.344
91760W        W58301  44.570  38.860   5.041
91761W        W58302  28.650  32.612   0.287
91762W        W58303  38.973   0.267   1.420
91763W        W58304   9.726  18.159   2.538
91764W        W58305  36.360  18.125   1.176
91765W        W58306  25.821  30.608   4.407
91766W        W58307  41.955  37.737   4.671
91767W        W58308  16.777  35.988  13.753
91768W        W58309  29.964  14.033  13.029
91769W        W58310   7.173  43.426  11.730
91770W        W58311  19.539   0.652  12.957
91771W        W58312   4.237  32.168  13.356
91772W        W58313   1.920  14.069   3.607
91773W        W58314  16.620  42.050  11.135
91774W        W58315  33.461   2.548   2.698
91775W        W58316   5.971   2.593   9.801
91776W        W58317  31.944  44.882  12.563
91777W        W58318   3.204  35.068  12.192
91778W        W58319  42.550  12.493   4.570
91779W        W58320  35.322  19.635  11.591
91780W        W58321  35.395  34.152  14.931
91781W        W58322   0.750   0.491   2.269
91782W        W58323  35.247  42.232  12.448
91783W        W58324  10.272  11.760   1.030
91784W        W58325  11.805  30.515   1.903
91785W        W58326   3.364  17.816  13.907
91786W        W58327  12.538   8.378  11.567
91787W        W58328   2.680   9.727   1.695
91788W        W58329  32.865  14.659  12.893
91789W        W58330   6.332   1.444  12.325
91790W        W58331   4.130   3.284  12.538
91791W        W58332  38.776   0.577   5.124
91792W        W58333  39.519  42.835   1.913
91793W        W58334  11.255  44.810   1.768
91794W        W58335  31.425  40.608  11.194
91795W        W58336  11.844  13.379   0.375
91796W        W58337  15.614  30.373   2.626
91797W        W58338  11.671  43.054   1.817
91798W        W58339  14.381  37.896  12.525
91799W        W58340  22.093  44.907  10.774
91800W        W58341  17.097  21.829  13.773
91801W        W58342   7.660  37.907   9.860
91802W        W58343  38.415  19.237   3.658
91803W        W58344   4.754  13.028   2.174
91804W        W58345  13.688  39.247  12.651
91805W        W58346  18.947  14.701   2.052
91806W        W58347  11.930  31.298  11.666
91807W        W58348   4.785  38.568   2.859
91808W        W58349  25.947   3.813   0.872
91809W        W58350   4.759  43.028  12.593
91810W        W58351  20.032  13.393  11.214
91811W        W58352  38.946  15.738   2.256
91812W        W58353  34.061  24.438  14.477
91813W        W58354  37.778  16.101  11.553
91814W        W58355  28.445  23.564  11.492
91815W        W58356   0.357  38.515  14.858
91816W        W58357   3.411   5.194  13.898
91817W        W58358  14.678  36.597   3.636
91818W        W58359   5.632   5.266  13.429
91819W        W58360   6.375  35.308   0.399
91820W        W58361  33.910  32.247  11.824
91821W        W58362   0.892  23.739   0.548
91822W        W58363  22.687  23.947  13.980
91823W        W58364  38.780  33.383   3.468
91824W        W58365  41.399  42.537   3.560
91825W        W58366   3.132  44.872  12.831
91826W        W58367  38.052   4.228   3.745
91827W        W58368  12.667  43.300  13.924
91828W        W58369   4.851  16.629  13.920
91829W        W58370  43.936  32.440   0.737
91830W        W58371   8.292   7.078   4.373
91831W        W58372   9.242  40.946  10.812
91832W        W58373  23.062  41.833  11.483
91833W        W58374  42.807  12.257   1.698
91834W        W58375  35.109  11.701   3.174
91835W        W58376   9.822  26.992  14.279
91836W        W58377  25.127  22.365  10.229
91837W        W58378  27.190   5.401   2.645
91838W        W58379  36.078  39.243  12.691
91839W        W58380  39.915   6.824  11.077
91840W        W58381  42.588  14.788  12.024
91841W        W58382  44.041  38.893  10.559
91842W        W58383   5.663  18.260   1.292
91843W        W58384  34.980  18.679  13.057
91844W        W58385  20.297  38.040  11.761
91845W        W58386   2.804  25.495   3.439
91846W        W58387   6.564  10.758  14.039
91847W        W58388  14.614  18.374   0.373
91848W        W58389  23.716  18.534   3.750
91849W        W58390  17.859  41.401   4.405
91850W        W58391  44.237  37.923  12.404
91851W        W58392   3.385  43.595   3.213
91852W        W58393  31.686  18.211  12.084
91853W        W58394   7.023  10.563  13.917
91854W        W58395  25.505  10.811  14.993
91855W        W58396   7.149  10.882  12.371
91856W        W58397   2.142  24.720   4.645
91857W        W58398  21.072   2.253  10.702
91858W        W58399  26.506  18.009  11.602
91859W        W58400   7.886  16.779  11.100
91860W        W58401   0.887   1.817   1.867
91861W        W58402  12.757  22.174  12.055
91862W        W58403  43.262  25.567   2.832
91863W        W58404  23.182  15.003   0.864
91864W        W58405  11.071  32.361   4.167
91865W        W58406  12.385  16.738  11.180
91866W        W58407  37.445  18.588   3.832
91867W        W58408   3.852   7.584  14.824
91868W        W58409  38.403  34.827   2.300
91869W        W58410   4.512  13.282  14.862
91870W        W58411  43.984  13.770   0.876
91871W        W58412  28.358   8.674   4.194
91872W        W58413  41.320  18.100  11.888
91873W        W58414  36.472  29.582   2.737
91874W        W58415  11.809  34.868  11.160
91875W        W58416  10.614   3.339  12.387
91876W        W58417  43.850  37.731  10.553
91877W        W58418  17.732  34.377  12.945
91878W        W58419  43.339  39.917   3.044
91879W        W58420   6.280  19.320   3.911
91880W        W58421  43.284  18.278   3.473
91881W        W58422  36.134  24.815   4.988
91882W        W58423  28.519  29.518  13.161
91883W        W58424  22.689   7.597   0.694
91884W        W58425  15.539  17.800  13.387
91885W        W58426  33.951   9.144  14.900
91886W        W58427  19.124  37.481   4.201
91887W        W58428  31.441  28.556  11.067
91888W        W58429  23.407  19.772  12.461
91889W        W58430   9.458  38.190   4.476
91890W        W58431   5.116  26.769   1.735
91891W        W58432   0.458  33.190   1.391
91892W        W58433  11.850  42.874  13.389
91893W        W58434  19.688  29.869   1.792
91894W        W58435  43.126  22.317  11.661
91895W        W58436  42.875   5.226  13.654
91896W        W58437  41.064   7.455  13.775
91897W        W58438  39.498  35.298   4.631
91898W        W58439  20.683   2.261   0.857
91899W        W58440  32.605  27.990  12.437
91900W        W58441   7.675  40.220  14.233
91901W        W58442  14.024  13.837   3.036
91902W        W58443  12.746   7.110   3.670
91903W        W58444   5.186  11.712   4.506
91904W        W58445  25.561   4.092   2.644
91905W        W58446  27.310  30.837  13.304
91906W        W58447  30.668  27.441   4.158
91907W        W58448   9.640  39.862   1.215
91908W        W58449  34.944  35.605   4.694
91909W        W58450  36.776  12.268  12.024
91910W        W58451  40.914  24.745   2.206
91911W        W58452  34.790  13.837  10.791
91912W        W58453  20.020  25.617   2.894
91913W        W58454  35.853  32.768   4.558
91914W        W58455  27.893  10.283  13.585
91915W        W58456  19.106  13.311   0.328
91916W        W58457  39.470  41.610   2.199
91917W        W58458  38.574  25.241  13.880
91918W        W58459  19.779  22.098  12.403
91919W        W58460  13.084  42.146   0.256
91920W        W58461   9.229   6.727   4.036
91921W        W58462  36.849  23.748   4.848
91922W        W58463  14.620  30.479  14.451
91923W        W58464   0.909   1.751   2.735
91924W        W58465  32.619  39.095   1.360
91925W        W58466  19.831  22.143   2.536
91926W        W58467   0.427  43.240   3.285
91927W        W58468  32.584  31.422  13.246
91928W        W58469  25.777  44.228  13.467
91929W        W58470  22.550  37.051  14.278
91930W        W58471   3.410  18.132  12.084
91931W        W58472  15.627   3.731   2.169
91932W        W58473  15.109  34.174  10.751
91933W        W58474  31.912   7.464  14.405
91934W        W58475  16.957  43.548   4.708
91935W        W58476  40.523  38.497  14.300
91936W        W58477  17.074  15.083  13.804
91937W        W58478  24.706  42.160  14.896
91938W        W58479  20.843  13.731   1.754
91939W        W58480  25.218  34.660   1.488
91940W        W58481  10.442  28.005  11.015
91941W        W58482   2.769  33.434   0.220
91942W        W58483  33.320  24.934   4.202
91943W        W58484   3.945   3.367   3.697
91944W        W58485  23.071  33.910   1.130
91945W        W58486  32.676  12.784   2.820
91946W        W58487  42.620  19.609   1.868
91947W        W58488  19.023  43.714   4.162
91948W        W58489  33.374   3.412   0.690
91949W        W58490   4.726  35.033   0.142
91950W        W58491  39.830  13.213  13.069
91951W        W58492  34.344   7.501  12.053
91952W        W58493   0.764  39.892  12.092
91953W        W58494  25.166  44.097   2.949
91954W        W58495  13.803  22.466   1.010
91955W        W58496   4.694  13.106   0.325
91956W        W58497  16.153  42.870  14.952
91957W        W58498  14.609   5.240   2.332
91958W        W58499   8.698  40.940  12.122
91959W        W58500  16.368  12.435   3.276
91960W        W58501  41.396  16.499   1.745
91961W        W58502  22.275  17.813   4.154
91962W        W58503  34.158   7.340  14.849
91963W        W58504  10.150   2.256  13.027
91964W        W58505  15.349   1.627   4.021
91965W        W58506   2.764  24.298   2.281
91966W        W58507   7.745  14.369  12.085
91967W        W58508  33.677  27.615  13.394
91968W        W58509   8.631  11.229  13.863
91969W        W58510   8.188  18.974   2.960
91970W        W58511  33.451   5.867  11.642
91971W        W58512  36.798  16.554   0.205
91972W        W58513   1.796  37.438   2.350
91973W        W58514  18.503  21.657  14.957
91974W        W58515  24.248  31.701   4.725
91975W        W58516  27.059   5.228  14.026
91976W        W58517  28.204  21.650  10.544
91977W        W58518  15.706  37.354  10.110
91978W        W58519  35.729  28.677  12.480
91979W        W58520  21.003  15.932   3.539
91980W        W58521  14.340   1.469   4.805
91981W        W58522   2.942   8.679   2.495
91982W        W58523  42.949  18.717   3.326
91983W        W58524  15.889  17.263   1.880
91984W        W58525  28.207  38.793  13.823
91985W        W58526  11.320  20.113   3.819
91986W        W58527   7.968   6.652  14.269
91987W        W58528  42.827  27.354  13.867
91988W        W58529  31.563  31.411  12.331
91989W        W58530  21.592  25.771  10.736
91990W        W58531  18.461  29.880  11.154
91991W        W58532  31.885  24.647   2.221
91992W        W58533  34.023   4.795  12.534
91993W        W58534  21.211  32.810   3.344
91994W        W58535  24.961  30.479   4.404
91995W        W58536  13.142  23.207  14.351
91996W        W58537  23.761  43.002   4.382
91997W        W58538  14.597  34.366  11.169
91998W        W58539   4.335   7.248   1.742
91999W        W58540  35.028  10.271  10.825
92000W        W58541  33.798  26.504   3.269
92001W        W58542   7.155  25.687   4.158
92002W        W58543   1.724  10.119  12.489
92003W        W58544  35.826  26.643  14.478
92004W        W58545  36.845  22.511   4.780
92005W        W58546   7.111   3.888   3.762
92006W        W58547  18.621  10.262   0.236
92007W        W58548  17.170   0.889  12.826
92008W        W58549  18.182   0.221   2.195
92009W        W58550  14.651  37.926   0.344
92010W        W58551  26.447  32.033   0.505
92011W        W58552   4.288  18.276   2.059
92012W        W58553  14.287  44.821  13.472
92013W        W58554  39.871   6.226   1.950
92014W        W58555  35.436   2.521  14.415
92015W        W58556  33.573  10.425   1.622
92016W        W58557  32.861  24.084  10.628
92017W        W58558  30.833  32.263   0.588
92018W        W58559  41.335   0.445   2.465
92019W        W58560  40.947  19.260  13.576
92020W        W58561  10.863   7.379  12.609
92021W        W58562   9.573  15.028   2.994
92022W        W58563   9.176  28.904  12.013
92023W        W58564  20.097  13.265   3.187
92024W        W58565   0.216  41.837  11.905
92025W        W58566  22.743  42.750   9.934
92026W        W58567  33.180  15.979  11.063
92027W        W58568  10.151  30.170  14.981
92028W        W58569  10.266  33.234  13.822
92029W        W58570  22.211  25.091  10.423
92030W        W58571  30.638  39.820  13.837
92031W        W58572  34.332  44.805   4.619
92032W        W58573  29.900  11.843  13.440
92033W        W58574   6.715  24.559   3.247
92034W        W58575  19.003  21.076   2.414
92035W        W58576   1.295  16.876  13.377
92036W        W58577  10.177   8.387   4.474
92037W        W58578   2.046   1.492  14.302
92038W        W58579  11.811  44.504  11.295
92039W        W58580  42.264  30.707   3.795
92040W        W58581  10.844  34.029   3.697
92041W        W58582   6.166  23.340  12.046
92042W        W58583  13.075  10.075   3.531
92043W        W58584   2.227  44.468   0.268
92044W        W58585  41.815  10.150  10.968
92045W        W58586  32.559  10.974  14.846
92046W        W58587   2.683  35.799  14.311
92047W        W58588  44.555  31.089   1.413
92048W        W58589  10.290  40.489  14.325
92049W        W58590  40.795  28.579   0.355
92050W        W58591  36.893  27.246  11.134
92051W        W58592   4.988  22.230   2.768
92052W        W58593  14.198   8.152   4.593
92053W        W58594  27.055   1.292   3.409
92054W        W58595  11.256  32.698   0.244
92055W        W58596  37.129  35.854   2.832
92056W        W58597   0.831  20.738  10.966
92057W        W58598  36.257   6.232  12.038
92058W        W58599  41.963  30.302  11.176
92059W        W58600  37.862  18.013   5.157
92060W        W58601  31.638  38.676  12.668
92061W        W58602  17.105  44.728  11.049
92062W        W58603  20.171  29.519  14.807
92063W        W58604  34.598  14.258  10.581
92064W        W58605   9.120  30.185  13.783
92065W        W58606   7.524  22.810   3.246
92066W        W58607   9.368   5.691  10.895
92067W        W58608  15.331   5.618   1.337
92068W        W58609  35.098  10.281   3.165
92069W        W58610   1.872  22.525   0.462
92070W        W58611  26.466  39.489   3.717
92071W        W58612  19.498  35.151  11.216
92072W        W58613   6.538  18.663  13.971
92073W        W58614  16.317   3.628   0.834
92074W        W58615  32.429  32.843  14.966
92075W        W58616  41.466  12.657   1.742
92076W        W58617   9.310  17.797   4.562
92077W        W58618   0.483  39.102   2.688
92078W        W58619  39.085  17.969  14.478
92079W        W58620  42.414  10.265   3.305
92080W        W58621  33.615  10.829   0.296
92081W        W58622  37.905  36.332   3.125
92082W        W58623  34.953  42.072   3.213
92083W        W58624   5.366  28.977  11.592
92084W        W58625  44.761  20.572   0.908
92085W        W58626  19.897  12.754  10.268
92086W        W58627  19.270  15.725  13.563
92087W        W58628  23.079   5.777   3.108
92088W        W58629  20.683  32.709  11.770
92089W        W58630   3.967  35.673  12.059
92090W        W58631  10.283  30.147  11.361
92091W        W58632  20.000  34.299  13.294
92092W        W58633  35.371   1.961  13.571
92093W        W58634   9.255  36.174   2.076
92094W        W58635  29.276  13.316  12.693
92095W        W58636  31.023  11.587  10.607
92096W        W58637  31.910   7.400   9.848
92097W        W58638   0.292  12.029  10.395
92098W        W58639  13.041  39.794  12.036
92099W        W58640  27.622  39.029  12.929
92100W        W58641  32.675  34.917   1.259
92101W        W58642  38.375  25.880   0.316
92102W        W58643   2.446  13.429  14.326
92103W        W58644  34.475  27.724   2.401
92104W        W58645   5.404  31.102   3.087
92105W        W58646  39.698  26.881   1.978
92106W        W58647   2.121  14.192  12.968
92107W        W58648  30.857  26.765  10.668
92108W        W58649  37.541   4.703   0.571
92109W        W58650  39.948  10.456   1.841
92110W        W58651  29.618  42.252  11.644
92111W        W58652   8.640   1.355   3.277
92112W        W58653  13.542  22.934   3.166
92113W        W58654  44.775   8.092  11.822
92114W        W58655  21.468  36.587   0.008
92115W        W58656  40.299  12.710   3.137
92116W        W58657  34.105  11.604  14.742
92117W        W58658  44.547  44.810   3.223
92118W        W58659  30.131  19.705   4.612
92119W        W58660   4.131  25.085   1.150
92120W        W58661   5.799  43.676  11.666
92121W        W58662  37.241  19.226  11.609
92122W        W58663  20.199   5.841   3.141
92123W        W58664  11.015  22.199  12.536
92124W        W58665  20.111  24.590   0.799
92125W        W58666   5.889  40.411  14.468
92126W        W58667  10.464  20.942   3.171
92127W        W58668  31.608  33.518  12.010
92128W        W58669  13.479  39.990   4.401
92129W        W58670   9.124  31.485  12.505
92130W        W58671  16.755  22.243  12.494
92131W        W58672   9.848   1.766  11.450
92132W        W58673  28.499  25.100  12.810
92133W        W58674  19.240  15.542   2.791
92134W        W58675  27.026  39.930   1.218
92135W        W58676  15.638  20.524  11.598
92136W        W58677  16.702   0.678   3.645
92137W        W58678  44.683   1.379  11.735
92138W        W58679   0.605  12.672  10.369
92139W        W58680  25.866   7.453   0.860
92140W        W58681  44.693  42.884   4.955
92141W        W58682  20.947  24.471  13.683
92142W        W58683  26.220  14.699   3.753
92143W        W58684  12.640  39.472   3.641
92144W        W58685  44.374  32.197   2.303
92145W        W58686  10.740   9.680   4.667
92146W        W58687  42.940  24.578  12.158
92147W        W58688  38.862   8.868  12.532
92148W        W58689  42.795  30.034   3.604
92149W        W58690   5.172  29.034  14.755
92150W        W58691  21.486  34.367  14.999
92151W        W58692  33.670   6.313   2.735
92152W        W58693  19.228  10.031   1.819
92153W        W58694  20.065  17.484   2.695
92154W        W58695   5.613   6.735  12.582
92155W        W58696  17.549  15.209  13.973
92156W        W58697   3.934  14.172  11.676
92157W        W58698   8.221  32.193  13.875
92158W        W58699   1.514  23.283  11.452
92159W        W58700   2.568  12.348   0.425
92160W        W58701   3.016  26.785   1.344
92161W        W58702  27.429  31.969   4.531
92162W        W58703  41.398  39.896  14.391
92163W        W58704  43.268  31.130   5.057
92164W        W58705   7.286  19.638   1.856
92165W        W58706   2.263  39.345   0.209
92166W        W58707  31.577   1.841   3.261
92167W        W58708  23.097  35.808   2.761
92168W        W58709   1.918  28.431   2.794
92169W        W58710  15.678   6.235  11.815
92170W        W58711  35.434  30.456  13.491
92171W        W58712   4.194   2.967   2.768
92172W        W58713  33.571  20.545   1.712
92173W        W58714  10.450  18.654  12.896
92174W        W58715  16.179  40.989   4.587
92175W        W58716   5.422   4.692  14.798
92176W        W58717  23.976  12.160  12.594
92177W        W58718  21.058   2.831  12.538
92178W        W58719  11.163   4.504   3.853
92179W        W58720  43.467   9.449  10.942
92180W        W58721   2.566  32.642  11.384
92181W        W58722  18.971   9.602  11.986
92182W        W58723   2.270  42.795   1.805
92183W        W58724   6.983  42.103  11.950
92184W        W58725  21.543  24.009  10.698
92185W        W58726  31.456  43.456   4.708
92186W        W58727  35.236   4.183  14.884
92187W        W58728  30.940   2.713  14.328
92188W        W58729  25.235  22.590  14.775
92189W        W58730  38.338  11.949  13.161
92190W        W58731  26.301  10.772  10.371
92191W        W58732  31.029  12.914  11.986
92192W        W58733  31.190  44.838  13.397
92193W        W58734  33.925  22.525   3.741
92194W        W58735   8.886  10.204   3.662
92195W        W58736  37.094  11.195  12.837
92196W        W58737  32.412   4.900   2.331
92197W        W58738  40.430  35.036   0.472
92198W        W58739  32.012  36.436   0.368
92199W        W58740  23.091  15.081  14.562
92200W        W58741   7.463  34.680  13.353
92201W        W58742  32.580  30.945   4.564
92202W        W58743   1.992  15.645   1.167
92203W        W58744  15.139  16.253   1.695
92204W        W58745  39.350  27.615   0.978
92205W        W58746   3.928  12.901   4.370
92206W        W58747   2.009  20.802   4.190
92207W        W58748  37.915  34.147   0.295
92208W        W58749  37.502  42.894   0.216
92209W        W58750  26.516  16.992  14.295
92210W        W58751  10.288  38.893   1.325
92211W        W58752   5.696  16.645   4.917
92212W        W58753  19.097  41.140   3.747
92213W        W58754  29.483  43.483  13.968
92214W        W58755  17.979  24.034  14.026
92215W        W58756   3.165  43.547   2.221
92216W        W58757  27.928  25.548  13.813
92217W        W58758  20.180  34.106  12.831
92218W        W58759  43.887  21.499  11.439
92219W        W58760  41.493  30.405  12.600
92220W        W58761  28.064  38.062  11.073
92221W        W58762  33.937  10.740  13.133
92222W        W58763  40.576  23.280  11.106
92223W        W58764  36.890   7.151   2.851
92224W        W58765  29.475  34.075  11.635
92225W        W58766  24.992  16.861   0.067
92226W        W58767  23.467   8.728  11.267
92227W        W58768  12.668  29.050  14.923
92228W        W58769  43.882   3.045  14.674
92229W        W58770  25.755   8.179   3.688
92230W        W58771   3.091  16.827  10.352
92231W        W58772  31.196  26.612   2.172
92232W        W58773  23.255  32.849  11.457
92233W        W58774  33.015  30.631   1.444
92234W        W58775  22.029  13.446   2.448
92235W        W58776  24.214  11.128   1.172
92236W        W58777  19.856  39.345  11.169
92237W        W58778   3.960  21.435   0.752
92238W        W58779   7.893  25.183   2.180
92239W        W58780   3.881  12.365   3.213
92240W        W58781  10.823  24.462  14.074
92241W        W58782  17.535   4.687  12.975
92242W        W58783  37.634  23.509  11.194
92243W        W58784  24.426   4.861  11.735
92244W        W58785  24.161  22.200  12.872
92245W        W58786   9.809  41.472   1.603
92246W        W58787   5.281  30.069   4.176
92247W        W58788  21.725   4.650   0.434
92248W        W58789  36.932  16.681   2.109
92249W        W58790  43.017   2.957  11.084
92250W        W58791  33.952  18.627  11.174
92251W        W58792   8.555  25.040  11.099
92252W        W58793  15.836   3.091  13.767
92253W        W58794  34.489  39.574   2.701
92254W        W58795   5.247  41.597   1.739
92255W        W58796  29.599   2.175  14.944
92256W        W58797  22.125  30.505  10.979
92257W        W58798   3.179  10.612   4.235
92258W        W58799  33.250  37.865   1.608
92259W        W58800  43.661  20.630   4.756
92260W        W58801  28.453   2.656  13.585
92261W        W58802   6.347  27.725  12.064
92262W        W58803  44.012  15.048   3.181
92263W        W58804   9.586  43.755   0.925
92264W        W58805  20.378  43.616   3.343
92265W        W58806  20.097  39.402   2.170
92266W        W58807  38.951   0.194  13.137
92267W        W58808  34.416   6.333  13.075
92268W        W58809  12.855   6.266  14.327
92269W        W58810  13.254  30.819   0.442
92270W        W58811  16.678  16.218  12.130
92271W        W58812  42.545  19.618  11.463
92272W        W58813  42.859  30.189  12.562
92273W        W58814  19.167  20.658   0.247
92274W        W58815  16.108  19.806  13.498
92275W        W58816  22.553  24.357  11.562
92276W        W58817  15.118   6.882   1.461
92277W        W58818  30.937  36.444   4.088
92278W        W58819  40.965   9.785  12.390
92279W        W58820  23.042   6.898   0.944
92280W        W58821  15.669  14.590   1.260
92281W        W58822  42.990  22.654   4.743
92282W        W58823  20.247  31.526   4.565
92283W        W58824  38.829  34.887  10.747
92284W        W58825  30.445  31.217   4.024
92285W        W58826   1.435  33.427   3.670
92286W        W58827  43.627  16.200  14.936
92287W        W58828  14.388   5.405  12.661
92288W        W58829  42.911  22.019  13.932
92289W        W58830  27.548  22.729   4.652
92290W        W58831  23.025   4.744   0.991
92291W        W58832  38.430  36.033  12.949
92292W        W58833   0.046   3.374   2.226
92293W        W58834  15.044   3.442   3.109
92294W        W58835  14.417   4.583   3.647
92295W        W58836  28.943  33.919   0.495
92296W        W58837  35.966  43.539   3.556
92297W        W58838  19.622   1.409  11.706
92298W        W58839   7.627  25.254  11.014
92299W        W58840  13.849   4.962  12.580
92300W        W58841  24.865  25.688   1.306
92301W        W58842  12.778   7.176   1.624
92302W        W58843  14.686  39.968   1.371
92303W        W58844  15.126  26.098   1.444
92304W        W58845   7.252  27.941  14.479
92305W        W58846   3.692  25.554  13.461
92306W        W58847  14.062   2.409   3.365
92307W        W58848  33.626  22.657   4.556
92308W        W58849  16.391  16.903  11.577
92309W        W58850  13.070   5.352   4.663
92310W        W58851  31.075  41.387   1.209
92311W        W58852  38.069  15.635  12.728
92312W        W58853  32.047  34.086  12.449
92313W        W58854  36.394   4.419   4.278
92314W        W58855  29.481  42.985  12.756
92315W        W58856  39.036  43.462   0.096
92316W        W58857  37.659   2.506  10.926
92317W        W58858  23.171   8.321   2.862
92318W        W58859  28.155  42.455   0.855
92319W        W58860  22.314  24.929   0.795
92320W        W58861  35.869  36.857   1.292
92321W        W58862  29.739  40.118  14.272
92322W        W58863  11.700  22.763   3.200
92323W        W58864  10.878  42.003  13.385
92324W        W58865  26.985  41.726   1.803
92325W        W58866  23.700  41.697  14.797
92326W        W58867  27.652  22.611   2.745
92327W        W58868   7.728  16.810  13.976
92328W        W58869  40.915  38.113   4.690
92329W        W58870  21.470  15.801  10.691
92330W        W58871   4.885  38.335   0.543
92331W        W58872  29.650  43.560   1.711
92332W        W58873  34.580   1.451   1.931
92333W        W58874  13.858  34.182  14.369
92334W        W58875  31.084  14.159  12.924
92335W        W58876  28.626  13.555  11.980
92336W        W58877  10.170  26.697   4.221
92337W        W58878  30.946  30.740   3.219
92338W        W58879  43.486  34.962  14.045
92339W        W58880  38.329  18.857  13.897
92340W        W58881  22.409  44.790   0.293
92341W        W58882  16.540  35.532   3.683
92342W        W58883  27.943  13.575  12.429
92343W        W58884  18.358  14.894   2.774
92344W        W58885  28.102  44.283   9.994
92345W        W58886  18.965  23.719  13.940
92346W        W58887  26.592  23.712  11.142
92347W        W58888  26.157  30.086   3.580
92348W        W58889   8.283   7.468   3.191
92349W        W58890  40.892  11.849   0.754
92350W        W58891  11.113  16.610   0.371
92351W        W58892  44.403   1.960   1.187
92352W        W58893  29.652   1.373   3.341
92353W        W58894  20.935   5.698   2.815
92354W        W58895  10.941  34.933   1.781
92355W        W58896  15.311  14.615  10.574
92356W        W58897  41.542  25.571   0.687
92357W        W58898  42.829  25.522  14.544
92358W        W58899  39.820  26.483  12.543
92359W        W58900  38.925  39.087  14.964
92360W        W58901  32.653  16.536   2.874
92361W        W58902  27.131  25.125  13.589
92362W        W58903  21.560  31.537   0.375
92363W        W58904  29.639  18.751  11.056
92364W        W58905   6.327   6.280   3.749
92365W        W58906  37.230  41.635   3.361
92366W        W58907  30.141   7.866   3.240
92367W        W58908  11.930  10.300   0.095
92368W        W58909   1.675  11.189   4.605
92369W        W58910  40.179  39.745   2.782
92370W        W58911  42.081  22.631   4.302
92371W        W58912  31.527   5.053   3.667
92372W        W58913  37.909  26.149  14.722
92373W        W58914  20.375  39.400  14.840
92374W        W58915   1.601  31.357  12.110
92375W        W58916  21.598  13.319   4.161
92376W        W58917   3.385   1.388  13.237
92377W        W58918  40.345  19.967   3.568
92378W        W58919  20.084   6.147  10.645
92379W        W58920  25.204  14.410  12.091
92380W        W58921  14.251  41.144   3.241
92381W        W58922   7.321  20.336   4.272
92382W        W58923  42.274  12.387  12.043
92383W        W58924  43.004   5.584  11.038
92384W        W58925   0.972  21.081  13.421
92385W        W58926  17.013  18.067  12.469
92386W        W58927  38.832  25.701  12.315
92387W        W58928  40.504  11.353  11.179
92388W        W58929   7.958   2.911  10.668
92389W        W58930   4.321   4.379   4.252
92390W        W58931  21.679  44.350   2.154
92391W        W58932   5.475   1.942  13.306
92392W        W58933  33.528  30.561  13.410
92393W        W58934  32.620  23.795  14.963
92394W        W58935  29.045   9.793   1.268
92395W        W58936  41.098  28.002  10.608
92396W        W58937  12.143  20.166   1.440
92397W        W58938  18.424   1.422   0.857
92398W        W58939  18.025  40.446  10.953
92399W        W58940  13.092  35.985   2.896
92400W        W58941  22.405  18.656  14.797
92401W        W58942  39.393   6.366  12.235
92402W        W58943  31.445  22.603   0.849
92403W        W58944  33.839   6.190  10.520
92404W        W58945   9.426  32.957  13.451
92405W        W58946   2.293  12.987   3.198
92406W        W58947   4.956   8.404   1.045
92407W        W58948  32.545  16.286   0.692
92408W        W58949  23.266  38.049  12.013
92409W        W58950  38.504  37.794  14.779
92410W        W58951  33.138  39.596  12.844
92411W        W58952  39.083  41.952  13.129
92412W        W58953   5.365  28.190   0.992
92413W        W58954   8.938  12.184   1.152
92414W        W58955   3.477  10.638   3.796
92415W        W58956  38.900  30.034   4.366
92416W        W58957  38.335  13.773   3.565
92417W        W58958  14.386  28.514   4.097
92418W        W58959  39.787  36.933   3.314
92419W        W58960  20.274   7.300   3.846
92420W        W58961   5.324  33.915   9.566
92421W        W58962  40.514  26.691  11.006
92422W        W58963   1.288  12.362  14.956
92423W        W58964  42.843  25.059  11.471
92424W        W58965   9.338   7.366  10.994
92425W        W58966  12.433  41.720   4.071
92426W        W58967  14.305   6.677   0.866
92427W        W58968   5.308  39.032   4.044
92428W        W58969  36.011  42.572   1.943
92429W        W58970  29.024  21.148  10.623
92430W        W58971  18.994  35.630   1.957
92431W        W58972  18.101  14.336   3.594
92432W        W58973  13.696  36.893  14.794
92433W        W58974  44.517  15.554  11.195
92434W        W58975  11.165   1.691  13.482
92435W        W58976  44.408  19.028  12.044
92436W        W58977  44.875  10.688  14.737
92437W        W58978  28.987  17.064  13.546
92438W        W58979   4.189  29.511  14.369
92439W        W58980  28.018  18.170  10.630
92440W        W58981  10.795  12.901   4.149
92441W        W58982  27.891  18.036  14.884
92442W        W58983   8.836  12.904   1.797
92443W        W58984  16.211   5.615   0.528
92444W        W58985  16.162   0.938   0.945
92445W        W58986  12.235  31.513  13.846
92446W        W58987  21.922  33.692   1.923
92447W        W58988  18.700  17.054   0.431
92448W        W58989  34.094  14.717   2.174
92449W        W58990   1.696   1.117  14.290
92450W        W58991  26.462  17.762   3.221
92451W        W58992  13.670  16.333  11.937
92452W        W58993  26.507  36.441   1.721
92453W        W58994   6.693  29.660   1.397
92454W        W58995  33.055  43.867   1.107
92455W        W58996  13.731  24.176   3.181
92456W        W58997  23.565  39.012  14.896
92457W        W58998  35.870  41.542  12.508
92458W        W58999  31.551  24.077   1.389
92459W        W59000  24.034  17.742  13.860
92460W        W59001  30.095  14.820  13.402
92461W        W59002  34.318   1.935   3.304
92462W        W59003  27.090   4.525   1.435
92463W        W59004  17.036  21.305   3.325
92464W        W59005   1.368  18.347  13.556
92465W        W59006   9.540  11.822   4.592
92466W        W59007  27.303  36.883  13.094
92467W        W59008   9.337  39.540   3.515
92468W        W59009  37.575  40.880  10.890
92469W        W59010  24.161  11.251  12.811
92470W        W59011   2.681  24.525   5.244
92471W        W59012  29.994  37.292  14.468
92472W        W59013   2.902  20.619   2.170
92473W        W59014  30.621  44.861  13.245
92474W        W59015  42.756  33.553  12.653
92475W        W59016  31.284   8.898   1.380
92476W        W59017  11.538  17.669   0.403
92477W        W59018  36.560  32.373  10.666
92478W        W59019  37.006  13.200  14.812
92479W        W59020   1.375  42.962   2.696
92480W        W59021   4.606  36.400  14.305
92481W        W59022  35.247  13.683  10.618
92482W        W59023  29.062  12.801   1.222
92483W        W59024  41.958  24.639  10.691
92484W        W59025  40.745  14.756   3.041
92485W        W59026  22.997  36.932   3.138
92486W        W59027  18.071  32.943   9.935
92487W        W59028  11.786  30.948   3.642
92488W        W59029   7.924  33.720  10.283
92489W        W59030  19.053  31.830  10.341
92490W        W59031  30.135  31.660   0.662
92491W        W59032  41.575  10.009   3.813
92492W        W59033   0.147   5.672   0.388
92493W        W59034  37.374  12.984  11.621
92494W        W59035  30.217  41.618   2.401
92495W        W59036  25.627  33.697  10.760
92496W        W59037  41.079   8.506  12.411
92497W        W59038  10.899  21.518   0.138
92498W        W59039  37.659   2.132   9.778
92499W        W59040   4.140  12.660  14.322
92500W        W59041   4.521  21.295   2.109
92501W        W59042  17.027  27.692   4.187
92502W        W59043  15.822  44.861  14.989
92503W        W59044  24.394   4.615   4.828
92504W        W59045  41.375  36.192   4.240
92505W        W59046  24.893   4.350   4.678
92506W        W59047   7.431  14.858   1.235
92507W        W59048  42.597  33.007   1.957
92508W        W59049  20.816  22.919  11.976
92509W        W59050  42.713  20.396  11.053
92510W        W59051   1.783  30.897  14.851
92511W        W59052  18.823  43.437  14.575
92512W        W59053  39.549   4.257  13.956
92513W        W59054   6.089   5.860   1.378
92514W        W59055  44.254  27.426  13.251
92515W        W59056  10.142  16.669  14.892
92516W        W59057  21.123  30.877   3.335
92517W        W59058  44.180  25.209   5.151
92518W        W59059  43.893  26.474  13.544
92519W        W59060  43.813  23.985  12.042
92520W        W59061  24.311  21.641   0.479
92521W        W59062  28.691   2.351  10.740
92522W        W59063   4.560   8.426   4.964
92523W        W59064   1.039  10.219   1.336
92524W        W59065  42.286  28.974  14.406
92525W        W59066  19.335  44.844   2.274
92526W        W59067  33.139  39.878   1.447
92527W        W59068   6.615   1.433  12.810
92528W        W59069  22.243  34.998   1.625
92529W        W59070  29.787  26.082   3.199
92530W        W59071  19.747  37.263  11.611
92531W        W59072  41.055   0.727  12.161
92532W        W59073  19.329  17.465   2.167
92533W        W59074  38.469   4.666  14.968
92534W        W59075  18.692  28.973   2.326
92535W        W59076  25.675  21.281  12.443
92536W        W59077  24.559  27.687  10.696
92537W        W59078  29.435   7.534   4.973
92538W        W59079   6.400   6.286   1.299
92539W        W59080  42.841   8.015  12.023
92540W        W59081   3.198   1.663  13.994
92541W        W59082   9.475  41.326  12.147
92542W        W59083   4.217  15.070   4.523
92543W        W59084  30.846  26.059  11.188
92544W        W59085  39.641  12.598  13.733
92545W        W59086  40.849  33.204   2.727
92546W        W59087  16.517  27.992   1.296
92547W        W59088  12.399  16.653   2.851
92548W        W59089  17.019   3.461   2.677
92549W        W59090  27.927   1.629   2.973
92550W        W59091  18.653   7.805   2.142
92551W        W59092  24.691   7.807  13.975
92552W        W59093  36.817  31.494   0.243
92553W        W59094  36.448  12.873  14.089
92554W        W59095  39.855  21.997   1.708
92555W        W59096   2.946  20.098   1.863
92556W        W59097  39.566  13.821   3.174
92557W        W59098  28.870  24.920   4.185
92558W        W59099  40.251  23.998   4.781
92559W        W59100  43.968  18.830  11.864
92560W        W59101  15.284  31.152  10.687
92561W        W59102  43.223  42.959  11.138
92562W        W59103  13.100   7.353  10.496
92563W        W59104  31.483   5.455  14.082
92564W        W59105  12.703  18.524   4.614
92565W        W59106   9.173   3.537   1.688
92566W        W59107  33.975  12.515  14.266
92567W        W59108  23.946  14.002   3.366
92568W        W59109  26.467  24.779   2.757
92569W        W59110  30.514  44.718   2.697
92570W        W59111  20.708  14.619  13.979
92571W        W59112   1.923  44.274  12.327
92572W        W59113  14.671   6.193  14.902
92573W        W59114  41.311  19.772  12.927
92574W        W59115   5.816  34.073  10.432
92575W        W59116  30.095  22.420   1.291
92576W        W59117  22.017  18.295  12.807
92577W        W59118  23.143  16.768   4.226
92578W        W59119  10.694  11.449   0.168
92579W        W59120   7.923  24.465   1.776
92580W        W59121  37.331  31.265  12.838
92581W        W59122  39.963  23.981   0.002
92582W        W59123   4.634  36.242   1.206
92583W        W59124  28.187  31.954  14.304
92584W        W59125  28.915  32.143   0.317
92585W        W59126  24.668  11.337  12.637
92586W        W59127  33.669  12.856   1.794
92587W        W59128  31.959  24.139  14.404
92588W        W59129  44.027  25.601   0.649
92589W        W59130  19.014  12.205  11.606
92590W        W59131  17.256  41.409  13.491
92591W        W59132  15.286  19.264   1.305
92592W        W59133  17.845   3.975   1.776
92593W        W59134  25.847   1.880  13.767
92594W        W59135  19.276   6.200   4.694
92595W        W59136  33.737  18.132   4.779
92596W        W59137  42.862  13.015   3.835
92597W        W59138  34.936  11.359  11.057
92598W        W59139   4.751  17.237   1.208
92599W        W59140  18.023  17.784  14.724
92600W        W59141  32.407  20.385  14.399
92601W        W59142  36.924  14.682   2.961
92602W        W59143  24.659  44.378   4.609
92603W        W59144  35.710   9.747   4.383
92604W        W59145  12.272  27.695  12.314
92605W        W59146  19.109  23.601   0.257
92606W        W59147  11.700  16.536  10.078
92607W        W59148   1.583  18.191  13.104
92608W        W59149  35.857   0.375  14.380
92609W        W59150   3.387   4.519  11.954
92610W        W59151  39.957  18.532   0.422
92611W        W59152  11.315  34.271  13.127
92612W        W59153  24.961  44.967  11.927
92613W        W59154  25.766   6.608  14.785
92614W        W59155  22.139  25.624   2.208
92615W        W59156  22.083   5.937  11.284
92616W        W59157   9.256   7.264  12.290
92617W        W59158   2.226   4.109   3.628
92618W        W59159  39.132   2.455  12.155
92619W        W59160  26.154  12.197   1.981
92620W        W59161  38.189  30.087   5.097
92621W        W59162  37.398  20.814   1.964
92622W        W59163  43.448   5.820   3.273
92623W        W59164  36.002  28.070   1.186
92624W        W59165  17.523  40.408   3.203
92625W        W59166  37.346   9.653  14.800
92626W        W59167  37.114  31.568   3.568
92627W        W59168  16.216  41.708   2.738
92628W        W59169  18.184  38.284   0.812
92629W        W59170  25.571  25.337  14.192
92630W        W59171  10.371  17.242  11.885
92631W        W59172  41.977   6.088   2.272
92632W        W59173  11.088  43.443   0.180
92633W        W59174  39.844  22.750   3.312
92634W        W59175  31.742  22.446   2.205
92635W        W59176  36.309   5.506   2.810
92636W        W59177  24.922  44.481  12.563
92637W        W59178  28.015  23.132   1.312
92638W        W59179   9.633  16.639  14.948
92639W        W59180  32.599   1.668  13.442
92640W        W59181  11.660  36.468   0.705
92641W        W59182   8.871  37.008   4.722
92642W        W59183  42.301  20.956  13.352
92643W        W59184  41.826  22.370   1.706
92644W        W59185  16.317   3.299   3.964
92645W        W59186  26.108  27.419   3.336
92646W        W59187  30.364   9.297   3.721
92647W        W59188  27.006   0.304  14.345
92648W        W59189   7.745  31.654  12.008
92649W        W59190  30.114  31.424  13.291
92650W        W59191  15.309   1.799  13.970
92651W        W59192   9.515  21.466   2.789
92652W        W59193  43.714  31.615   1.289
92653W        W59194  41.721  24.311  14.317
92654W        W59195  13.815  10.686   0.316
92655W        W59196  25.158  13.345   2.902
92656W        W59197  41.355   2.202  12.454
92657W        W59198  33.815  23.503   2.990
92658W        W59199  10.805  30.391  12.897
92659W        W59200   5.190   8.843   3.211
92660W        W59201  24.760  34.995   4.320
92661W        W59202  25.523  36.904  13.770
92662W        W59203   8.117   0.709   2.801
92663W        W59204  36.123   0.760   1.363
92664W        W59205  28.489  13.300   3.290
92665W        W59206  36.044   3.764   0.675
92666W        W59207  31.814  35.868  14.496
92667W        W59208   7.548  32.174  13.097
92668W        W59209   8.182  14.298  10.929
92669W        W59210  42.541  32.051   2.584
92670W        W59211  12.874  35.412   3.759
92671W        W59212  35.191  23.654  14.276
92672W        W59213   1.274  42.887  11.402
92673W        W59214  16.273   0.060  11.501
92674W        W59215  33.554  34.838  10.712
92675W        W59216   6.469  17.286  12.613
92676W        W59217  41.099  26.318  12.464
92677W        W59218   4.320  40.936  10.411
92678W        W59219  35.927  37.521  14.604
92679W        W59220  43.267   1.354   0.815
92680W        W59221  10.660  15.512   2.777
92681W        W59222   4.405   2.915  11.164
92682W        W59223  41.087  17.102   4.686
92683W        W59224  13.247   1.855  14.574
92684W        W59225  15.114  10.824   2.271
92685W        W59226  44.183  39.113   0.363
92686W        W59227   1.972  31.635  13.961
92687W        W59228  35.616   3.702  11.528
92688W        W59229  10.398  32.428  11.487
92689W        W59230  37.611  36.931  12.283
92690W        W59231  12.413   9.077  12.855
92691W        W59232  11.616  17.166  14.236
92692W        W59233  29.968  10.158  13.949
92693W        W59234  17.014  39.401   2.274
92694W        W59235  27.494  44.003   4.717
92695W        W59236   4.440   5.269   0.900
92696W        W59237  11.289   8.827   2.590
92697W        W59238  28.400  44.485  10.580
92698W        W59239  38.928   2.962  10.280
92699W        W59240  25.148  17.780  11.972
92700W        W59241  18.757   3.797   4.132
92701W        W59242  19.247   3.207  14.283
92702W        W59243  10.121  28.863   3.694
92703W        W59244  24.031  15.812   0.425
92704W        W59245  38.708  44.786  12.900
92705W        W59246  11.451  40.281  12.439
92706W        W59247  37.332  19.205  12.467
92707W        W59248  24.399  42.454  11.198
92708W        W59249  35.424   2.251  11.766
92709W        W59250   2.786  35.631   2.904
92710W        W59251   2.491  41.990   2.824
92711W        W59252   0.212  31.547  13.923
92712W        W59253  25.193  33.130   4.257
92713W        W59254  25.739   1.391   0.016
92714W        W59255   7.266  26.475  11.699
92715W        W59256  42.202  30.746  11.033
92716W        W59257  26.240   1.573  11.635
92717W        W59258   1.390  33.426  11.174
92718W        W59259  35.846  12.783   4.292
92719W        W59260  37.986  37.069  10.944
92720W        W59261  23.513  24.877   2.787
92721W        W59262   0.822  29.095   2.119
92722W        W59263  22.167   2.784   3.696
92723W        W59264   4.681  29.355  11.624
92724W        W59265   8.183  26.227  14.076
92725W        W59266  42.970   6.906  14.531
92726W        W59267  36.989   4.426  11.196
92727W        W59268  18.261  25.493  10.737
92728W        W59269  27.125   6.194  11.552
92729W        W59270  33.043   0.024   2.864
92730W        W59271  17.596  26.915  14.873
92731W        W59272  32.668   7.306  10.977
92732W        W59273  23.551   2.399  14.294
92733W        W59274  31.610   2.227  13.335
92734W        W59275  31.159  44.418   5.145
92735W        W59276  33.106  32.202  11.523
92736W        W59277  32.362  26.444  14.822
92737W        W59278  22.501  25.874  11.729
92738W        W59279  13.283  18.387   3.600
92739W        W59280  11.016  39.242   5.651
92740W        W59281  28.095  17.153  10.658
92741W        W59282  15.571   7.750  13.346
92742W        W59283  36.673  40.831  10.862
92743W        W59284  38.525  13.242   9.882
92744W        W59285  20.143  40.755  14.472
92745W        W59286  43.329   6.776   3.214
92746W        W59287  10.707   0.342   2.343
92747W        W59288  39.511  23.800  11.370
92748W        W59289  16.315  10.600   1.695
92749W        W59290   2.508  15.876  14.983
92750W        W59291  34.458  37.173  14.482
92751W        W59292  22.058   7.947  14.503
92752W        W59293  31.115  40.321  12.153
92753W        W59294  39.443   1.037  13.260
92754W        W59295   1.966  36.389   3.351
92755W        W59296  37.339   4.095  11.762
92756W        W59297  42.305  26.511  11.429
92757W        W59298  40.370  43.465  10.877
92758W        W59299  14.231  27.639  10.665
92759W        W59300  43.278  17.656   0.124
92760W        W59301   2.725  16.526   3.112
92761W        W59302   1.322  17.173  12.454
92762W        W59303   4.009  43.820   1.190
92763W        W59304  32.042  44.809   0.971
92764W        W59305  26.164  30.966   0.940
92765W        W59306  27.493  32.735   4.079
92766W        W59307  12.170   0.205  13.677
92767W        W59308  20.167   9.696  13.559
92768W        W59309  19.312  10.200   3.295
92769W        W59310  26.519  30.173  13.936
92770W        W59311   5.052  35.905   1.213
92771W        W59312  23.239  29.359  11.069
92772W        W59313  19.095  11.521   3.134
92773W        W59314   9.697   8.596   4.566
92774W        W59315  28.450   5.366  12.905
92775W        W59316  44.259  42.339   4.283
92776W        W59317  26.033  13.049   4.243
92777W        W59318   2.798  26.409   0.413
92778W        W59319  43.018  22.068   3.657
92779W        W59320  14.971  44.530   4.171
92780W        W59321  41.526  38.807   1.748
92781W        W59322  33.070  34.054  13.821
92782W        W59323   0.284  28.824   0.411
92783W        W59324  27.202  21.710  12.510
92784W        W59325  32.933   1.808   0.725
92785W        W59326  44.324  34.534   2.549
92786W        W59327   3.427  10.083  14.324
92787W        W59328  15.550  19.116  13.005
92788W        W59329  39.957  15.865  10.273
92789W        W59330  20.186  43.731   0.499
92790W        W59331  21.563  35.087  13.376
92791W        W59332  19.550   9.057  12.716
92792W        W59333  44.071   3.200   4.388
92793W        W59334  42.927   1.457  13.763
92794W        W59335  22.241   3.207   5.331
92795W        W59336   7.293   9.934   1.035
92796W        W59337   4.434  42.079   2.904
92797W        W59338  44.197   8.028  13.510
92798W        W59339  31.465  18.258  11.631
92799W        W59340   8.315  35.398  14.212
92800W        W59341  20.453  29.406   0.231
92801W        W59342  24.213  18.661  12.851
92802W        W59343   8.961  42.946  14.726
92803W        W59344  44.035   7.258  10.522
92804W        W59345   2.183  19.973  11.546
92805W        W59346  43.894  28.119  14.405
92806W        W59347  26.963   4.272  10.752
92807W        W59348  13.559  36.394  14.893
92808W        W59349  31.344   9.711   2.706
92809W        W59350   1.394  35.678  11.912
92810W        W59351  30.082  40.489   1.256
92811W        W59352  35.922  22.481  13.397
92812W        W59353  30.731  43.785  12.309
92813W        W59354  29.633   4.841  11.051
92814W        W59355  22.920   7.470   9.796
92815W        W59356   8.716  11.575   3.302
92816W        W59357  24.999  27.506   4.176
92817W        W59358   1.434  17.300   3.303
92818W        W59359  28.147  13.828  12.022
92819W        W59360  18.934  19.293   1.144
92820W        W59361  18.317   8.102  12.693
92821W        W59362  44.986   3.806  12.917
92822W        W59363   2.276  20.227   1.650
92823W        W59364   7.820  15.258   0.471
92824W        W59365  29.558   6.669  10.881
92825W        W59366  42.618  17.053   4.645
92826W        W59367  11.293  27.636  13.314
92827W        W59368   7.075  27.374   1.201
92828W        W59369   3.493   0.346  13.501
92829W        W59370  18.776   8.493   0.832
92830W        W59371   6.178  11.259   2.685
92831W        W59372  12.737   1.876   0.412
92832W        W59373   6.469  35.627  11.529
92833W        W59374   5.185  43.003   2.430
92834W        W59375  14.286  43.159   2.060
92835W        W59376  25.132  19.549   2.843
92836W        W59377  11.695   6.126   4.070
92837W        W59378  37.775  16.792  12.565
92838W        W59379  39.517  20.357  14.298
92839W        W59380  24.336  12.767   2.652
92840W        W59381   1.227  12.335  10.922
92841W        W59382  39.406  37.044   2.959
92842W        W59383  35.360   3.486   2.559
92843W        W59384  34.965  43.248  12.657
92844W        W59385   2.494  26.443  14.960
92845W        W59386   1.652  43.356   0.309
92846W        W59387   3.867  31.602   1.257
92847W        W59388  35.108  27.466  11.192
92848W        W59389  30.411  22.153   2.300
92849W        W59390  35.899   6.996   0.839
92850W        W59391  23.513  29.928  10.587
92851W        W59392  18.651   2.932   2.275
92852W        W59393  20.059  27.804  11.340
92853W        W59394  40.968  32.859   2.344
92854W        W59395  31.367  39.048   3.185
92855W        W59396  13.590  37.405   0.920
92856W        W59397  43.977  33.762  12.266
92857W        W59398  25.723  33.429  13.490
92858W        W59399  10.744   8.271   5.129
92859W        W59400  12.122  39.436  10.519
92860W        W59401  37.662  26.636  11.211
92861W        W59402  28.636  10.842   4.219
92862W        W59403  33.912  37.643  14.550
92863W        W59404  25.175  22.137   3.860
92864W        W59405   5.219  38.006   3.163
92865W        W59406  20.658   7.933   3.360
92866W        W59407  36.047   1.463  13.833
92867W        W59408  15.772   4.978   4.099
92868W        W59409  42.367  21.661   3.385
92869W        W59410  39.924  38.852  14.027
92870W        W59411   5.886   6.142  13.411
92871W        W59412  43.975  15.398   4.051
92872W        W59413  43.187  10.917   4.553
92873W        W59414   1.350  14.676   0.707
92874W        W59415   9.449  24.461   2.414
92875W        W59416  21.714  21.651   2.903
92876W        W59417   4.686   1.250  13.906
92877W        W59418  21.505  29.026  12.208
92878W        W59419  20.108  37.006  12.512
92879W        W59420  12.088   0.328  11.198
92880W        W59421   2.816  10.353   3.996
92881W        W59422  25.077  38.783  13.866
92882W        W59423  16.523  14.930   3.548
92883W        W59424  18.962  30.110  14.660
92884W        W59425   1.996  26.930  14.518
92885W        W59426  32.990   7.976   4.720
92886W        W59427  16.310  17.259  12.013
92887W        W59428   9.452  34.388   1.284
92888W        W59429  34.902  21.743   2.277
92889W        W59430  21.147  36.982  10.660
92890W        W59431  14.539  13.920  11.484
92891W        W59432  27.414  12.897   4.369
92892W        W59433   3.445   1.787  14.423
92893W        W59434  21.980  24.256  12.528
92894W        W59435  43.455  17.460   2.305
92895W        W59436  33.034  21.517   3.335
92896W        W59437  43.018  29.267   2.312
92897W        W59438  27.726  41.778  13.088
92898W        W59439  38.610  38.364   4.730
92899W        W59440   9.438  15.553  11.585
92900W        W59441  29.629  25.024  14.842
92901W        W59442  16.315  40.450   0.839
92902W        W59443  31.506   3.177   4.869
92903W        W59444  10.212  34.835   1.294
92904W        W59445   2.945  30.423   3.239
92905W        W59446   0.926  32.337   3.117
92906W        W59447  31.162  24.697  11.760
92907W        W59448  44.466  24.871   0.263
92908W        W59449  40.599  43.415   0.433
92909W        W59450  20.261   3.148   4.092
92910W        W59451  36.591  33.870  12.026
92911W        W59452  42.391  13.615   1.801
92912W        W59453  18.707  15.648   0.858
92913W        W59454  16.486  37.849  11.119
92914W        W59455  27.169  12.717  11.726
92915W        W59456  42.288  25.664   2.859
92916W        W59457  36.313  30.080   9.776
92917W        W59458  32.378  29.096  14.411
92918W        W59459  33.153  39.155  12.202
92919W        W59460  14.206  34.843   5.059
92920W        W59461   7.279  29.978  13.001
92921W        W59462   1.776  11.389  12.014
92922W        W59463   8.741   1.818  13.798
92923W        W59464   9.176  37.441  10.504
92924W        W59465  41.860  23.516  10.930
92925W        W59466   0.678  42.205   1.958
92926W        W59467   8.062  12.604   0.270
92927W        W59468  21.484  37.862  12.423
92928W        W59469  42.886  42.367   4.518
92929W        W59470  16.266  11.192  12.135
92930W        W59471  37.592  40.947   1.347
92931W        W59472   6.135  36.573  12.598
92932W        W59473  13.328   5.828  14.942
92933W        W59474   3.507  42.113   2.711
92934W        W59475  11.485  27.402   0.274
92935W        W59476  20.153  22.090   4.049
92936W        W59477  39.583  17.519  10.633
92937W        W59478  28.561  32.488  10.627
92938W        W59479   3.285  23.969   2.234
92939W        W59480   7.287  43.192   3.516
92940W        W59481  11.223  35.643   0.488
92941W        W59482   7.741  23.802  12.056
92942W        W59483   9.631   1.817  13.584
92943W        W59484  39.806  40.545  14.427
92944W        W59485  28.071   7.470   4.195
92945W        W59486  21.536  16.013  11.562
92946W        W59487  16.546   7.683  13.676
92947W        W59488   6.663   2.989  12.965
92948W        W59489  30.127  30.406   4.904
92949W        W59490  21.457  40.963   2.222
92950W        W59491  13.433   7.899   2.163
92951W        W59492   4.172  19.142  14.035
92952W        W59493   8.678  31.953  13.825
92953W        W59494  28.942  15.833  11.966
92954W        W59495  28.064   7.985   2.272
92955W        W59496  31.723  43.905  14.287
92956W        W59497  24.439  33.059   1.879
92957W        W59498   4.440  13.421  12.037
92958W        W59499  30.114  10.188   0.302
92959W        W59500  42.086  35.977   1.891
92960W        W59501  27.179  29.955  11.985
92961W        W59502  15.035  28.820  13.342
92962W        W59503  23.197  16.721  13.482
92963W        W59504  44.772  34.564  13.938
92964W        W59505  35.406   6.269   1.222
92965W        W59506  19.094  31.009   3.145
92966W        W59507  31.912  32.116  12.984
92967W        W59508  42.956  27.182   0.908
92968W        W59509  21.781   6.489   1.251
92969W        W59510  13.218  41.571   3.229
92970W        W59511  37.364  32.195  10.764
92971W        W59512   0.852  15.956   4.078
92972W        W59513  29.036  38.133   4.286
92973W        W59514  11.360  18.650   4.405
92974W        W59515  30.066  43.371   1.996
92975W        W59516  25.709  18.053   0.893
92976W        W59517   8.544   8.279  11.923
92977W        W59518  28.703  30.595   0.264
92978W        W59519   6.915  17.588  10.453
92979W        W59520  39.725  26.185  14.427
92980W        W59521  27.265   4.027   1.389
92981W        W59522  35.026   6.795  11.695
92982W        W59523  43.080  19.781  13.270
92983W        W59524  19.060  39.311   3.802
92984W        W59525  28.030  28.366  11.930
92985W        W59526   0.911  40.730  11.572
92986W        W59527  25.970   2.806   1.385
92987W        W59528  37.512   8.923   2.724
92988W        W59529   5.233  15.666   1.856
92989W        W59530  27.538  43.454   4.616
92990W        W59531   5.300  11.114   1.301
92991W        W59532  16.371  41.367  13.594
92992W        W59533  17.262   8.356   1.776
92993W        W59534  36.679  15.656   4.966
92994W        W59535  11.404  30.575  12.087
92995W        W59536  11.478  29.093  12.715
92996W        W59537  10.579  26.079   2.934
92997W        W59538  40.717  10.220   4.991
92998W        W59539  26.316  30.001  14.717
92999W        W59540  32.007  11.473  11.912
93000W        W59541  12.147  32.681   0.481
93001W        W59542  22.141   1.782   3.536
93002W        W59543   6.282   0.889  13.522
93003W        W59544  22.015   4.541   4.048
93004W        W59545  37.057  28.084   1.278
93005W        W59546  32.165  20.589   1.452
93006W        W59547  38.847  35.572   0.522
93007W        W59548  26.477  14.278  13.755
93008W        W59549  18.015   6.207  10.699
93009W        W59550  17.721  26.193  11.930
93010W        W59551  35.661  25.471  11.833
93011W        W59552  32.991  30.134   2.772
93012W        W59553  12.327  38.719  13.855
93013W        W59554  13.326  14.118   1.394
93014W        W59555   3.715  25.238   3.277
93015W        W59556  36.907  35.335  12.963
93016W        W59557   6.048  10.004  12.624
93017W        W59558  19.064  10.742   3.412
93018W        W59559  17.529  28.777   4.551
93019W        W59560   8.654   4.657   3.648
93020W        W59561  10.768  43.321   1.400
93021W        W59562   1.891  16.771  10.654
93022W        W59563  32.355   2.496  12.025
93023W        W59564  34.014   7.882   0.579
93024W        W59565  21.165  27.666  10.492
93025W        W59566  39.006  25.831  11.406
93026W        W59567   8.769  29.230  12.015
93027W        W59568  28.226  35.111  11.196
93028W        W59569  18.141  30.343  10.837
93029W        W59570  38.790   1.048   4.750
93030W        W59571  10.740  37.043   2.368
93031W        W59572  33.417  32.018   4.095
93032W        W59573  16.623  17.693  13.321
93033W        W59574  29.720   9.255   0.472
93034W        W59575  39.003  17.323  11.056
93035W        W59576  29.241  36.888  12.013
93036W        W59577  20.315   1.787   4.631
93037W        W59578  10.521  14.140  13.524
93038W        W59579  32.125   5.129  12.383
93039W        W59580  38.679  29.501  13.910
93040W        W59581   4.897   1.915   0.245
93041W        W59582  12.095   8.375  14.784
93042W        W59583  14.716  32.947   0.946
93043W        W59584  40.512  26.509   0.558
93044W        W59585  28.517   2.826  12.468
93045W        W59586  32.339  14.852  11.745
93046W        W59587  18.442   9.402   1.747
93047W        W59588  22.599  17.232  14.355
93048W        W59589   2.458  34.051  13.072
93049W        W59590  34.453   5.060  12.374
93050W        W59591  32.403   5.959   1.348
93051W        W59592  15.069  15.013  10.831
93052W        W59593  21.264  10.583   2.436
93053W        W59594   2.494  22.922   9.796
93054W        W59595  34.518  41.834   2.410
93055W        W59596  29.388  40.459   2.872
93056W        W59597   3.338  44.344  11.110
93057W        W59598  38.892  29.266   0.273
93058W        W59599  19.235   6.847   1.863
93059W        W59600  10.657  44.462  11.657
93060W        W59601  31.641  25.198   4.728
93061W        W59602  13.830  37.119   4.890
93062W        W59603  10.889  21.223  14.252
93063W        W59604  12.258   4.236   0.735
93064W        W59605  16.272  27.240   0.221
93065W        W59606   7.517   4.211  14.356
93066W        W59607  24.919  26.805   1.831
93067W        W59608  28.693   8.674   3.805
93068W        W59609  36.301   0.984  11.526
93069W        W59610  37.904  10.184   0.496
93070W        W59611   2.023  18.741  10.505
93071W        W59612  26.721  20.161  14.746
93072W        W59613  42.037  16.530   2.902
93073W        W59614  44.348  12.657  13.126
93074W        W59615   8.331  15.083  12.558
93075W        W59616  30.939  17.926  11.225
93076W        W59617  27.063  39.727  10.610
93077W        W59618  14.655   9.712   4.693
93078W        W59619  27.100  24.707   4.269
93079W        W59620  30.021   6.383  13.087
93080W        W59621  26.947  44.948  14.877
93081W        W59622  42.774  10.642  14.075
93082W        W59623  32.657  15.566   3.398
93083W        W59624  37.987  38.449   2.005
93084W        W59625   7.595  42.489  11.550
93085W        W59626   2.673  23.018  14.769
93086W        W59627  28.474  10.316   4.191
93087W        W59628  19.462  23.071   3.140
93088W        W59629  33.108  12.430  13.811
93089W        W59630  41.746  23.551  10.425
93090W        W59631  28.884  38.316   1.948
93091W        W59632   4.026  36.536   1.851
93092W        W59633  35.118  21.128  11.535
93093W        W59634   7.958  29.967  13.737
93094W        W59635  22.367  44.271   9.944
93095W        W59636  15.555   3.618   3.077
93096W        W59637  26.067  19.787  10.482
93097W        W59638  17.347   0.905   5.041
93098W        W59639  29.055  35.826   4.252
93099W        W59640  43.156  43.466   1.696
93100W        W59641   7.752  13.844   0.718
93101W        W59642  40.966  19.978  12.518
93102W        W59643  17.391  22.171   1.404
93103W        W59644  37.768  43.398   1.980
93104W        W59645  17.496  21.216   3.130
93105W        W59646  25.606  35.478   3.430
93106W        W59647  14.088  43.916   0.851
93107W        W59648  40.887  34.544  12.561
93108W        W59649  37.418  15.727  11.434
93109W        W59650   8.866  39.016   0.244
93110W        W59651  10.328  16.375  12.996
93111W        W59652   2.400  25.747  11.442
93112W        W59653  24.216  29.233  13.485
93113W        W59654  10.622  17.053  11.455
93114W        W59655   7.024  18.824   1.536
93115W        W59656  11.302   4.912  14.278
93116W        W59657  32.926  39.490   2.701
93117W        W59658  26.520  41.738  11.012
93118W        W59659  28.586  38.282  11.596
93119W        W59660  15.876  10.234   4.700
93120W        W59661  43.464  19.623   2.295
93121W        W59662  28.771  23.137   4.578
93122W        W59663  15.898  30.911   2.414
93123W        W59664  44.439  22.183   1.463
93124W        W59665  11.597  18.857  10.686
93125W        W59666  34.880   0.808  12.534
93126W        W59667  12.302  17.984   1.729
93127W        W59668  36.012  40.172  12.053
93128W        W59669  18.881   1.152   0.823
93129W        W59670   9.662  18.749   4.753
93130W        W59671  25.622  38.053  10.567
93131W        W59672  21.803  29.619   2.423
93132W        W59673  43.950  26.712   0.814
93133W        W59674  21.626  18.655  14.321
93134W        W59675  23.681  24.027  13.017
93135W        W59676  17.252  21.540  10.809
93136W        W59677   3.966  43.864  12.877
93137W        W59678  37.723  20.042  14.424
93138W        W59679  38.372  30.378  14.826
93139W        W59680  21.992  12.671   3.644
93140W        W59681   9.034  36.226  11.573
93141W        W59682  38.348   3.475   4.659
93142W        W59683  36.960  25.968  14.202
93143W        W59684  44.207  15.466   5.037
93144W        W59685  22.215  35.584  10.101
93145W        W59686  40.266  37.526   2.197
93146W        W59687   0.994  44.828   0.753
93147W        W59688  25.020  19.103   3.076
93148W        W59689  18.640  22.480  12.174
93149W        W59690   3.730  22.153  13.648
93150W        W59691  35.933  32.187  11.570
93151W        W59692  15.312  28.900   0.618
93152W        W59693  19.411  34.982  11.977
93153W        W59694  38.057   9.246  12.308
93154W        W59695   0.362  36.963   3.017
93155W        W59696   9.552  33.435  13.301
93156W        W59697   9.259  34.891   3.108
93157W        W59698  27.685  13.609  11.927
93158W        W59699  37.552  38.317  13.122
93159W        W59700  44.348  26.986   1.093
93160W        W59701  21.178  43.040   1.905
93161W        W59702  43.464   1.568   4.426
93162W        W59703  32.792   5.979  12.506
93163W        W59704  36.147  24.429  12.160
93164W        W59705  38.070  23.735   0.849
93165W        W59706  24.795  17.119  14.282
93166W        W59707  30.798  20.962  11.131
93167W        W59708  36.791  30.845  12.011
93168W        W59709  27.956   3.749  12.579
93169W        W59710  24.601  22.473  13.012
93170W        W59711  44.449  43.534   2.090
93171W        W59712  15.839  37.476   3.728
93172W        W59713  41.536  42.324   3.106
93173W        W59714  24.737  29.598   1.333
93174W        W59715   9.333  36.988   3.628
93175W        W59716  18.315   5.808  12.354
93176W        W59717   7.193  36.465  10.076
93177W        W59718  19.255  13.122  14.856
93178W        W59719   3.900  36.646  11.632
93179W        W59720  22.154  30.228  10.542
93180W        W59721   5.324  13.378   4.496
93181W        W59722  32.958   4.894   3.590
93182W        W59723  36.052   9.348   2.620
93183W        W59724   0.755   9.261  11.168
93184W        W59725   3.896   0.798   1.268
93185W        W59726   3.320  33.413   0.414
93186W        W59727   2.362  35.970   1.291
93187W        W59728  21.196   3.829   1.241
93188W        W59729   0.296  29.031   0.954
93189W        W59730  40.509  34.475   0.432
93190W        W59731  34.284  44.757  14.898
93191W        W59732  36.359  10.204   1.019
93192W        W59733  23.028  21.788  14.341
93193W        W59734  43.995   3.283   2.239
93194W        W59735  24.190  11.560   4.993
93195W        W59736  31.097  25.918  12.636
93196W        W59737  35.004  18.274   1.905
93197W        W59738  19.187  19.065   2.817
93198W        W59739   9.253  10.378   3.138
93199W        W59740  38.845  17.259  14.981
93200W        W59741  36.558   3.283  14.410
93201W        W59742  43.851  22.166  12.293
93202W        W59743  22.817  43.018  14.076
93203W        W59744  44.787   2.080   0.866
93204W        W59745  15.506  36.477  10.680
93205W        W59746  33.901  31.422  14.928
93206W        W59747   9.425  43.082   4.275
93207W        W59748   6.553  44.744  13.277
93208W        W59749  26.493  30.040  10.734
93209W        W59750  16.036  14.207  13.869
93210W        W59751   4.849  23.496  13.848
93211W        W59752   1.498  30.539  14.069
93212W        W59753   0.461   5.329  12.085
93213W        W59754  26.713   3.386  11.800
93214W        W59755  30.436  18.218   4.055
93215W        W59756  26.494  11.955   0.754
93216W        W59757  13.640  19.636   2.365
93217W        W59758  28.358  17.680   4.699
93218W        W59759  32.117   9.739  14.504
93219W        W59760  21.057  40.769   4.149
93220W        W59761  30.417  31.074  14.881
93221W        W59762  32.842  39.852  13.193
93222W        W59763  38.497  11.392   2.944
93223W        W59764   5.982  42.900  14.882
93224W        W59765  33.541  24.480   4.134
93225W        W59766  31.457   9.820   4.206
93226W        W59767  18.062  29.458   1.540
93227W        W59768   7.842   6.594  12.952
93228W        W59769  33.829  18.568  14.537
93229W        W59770   0.402  12.489   2.296
93230W        W59771   1.613  28.823   2.617
93231W        W59772  35.519  41.988  13.612
93232W        W59773  14.803  16.802   1.001
93233W        W59774   3.928  44.818  10.580
93234W        W59775  39.547  39.068  11.747
93235W        W59776  36.097  25.932  13.020
93236W        W59777  14.366  17.995  14.920
93237W        W59778  44.440  31.920   3.708
93238W        W59779   0.781  32.505  12.654
93239W        W59780   2.311  41.518  13.527
93240W        W59781  14.930  17.111  14.457
93241W        W59782  19.298   5.638   1.279
93242W        W59783   7.948  27.321   4.442
93243W        W59784  37.914   8.359   4.125
93244W        W59785  42.219  30.450   2.879
93245W        W59786  22.959   5.664   2.209
93246W        W59787  17.692   9.671   2.738
93247W        W59788  17.771   6.573   1.579
93248W        W59789   4.790  23.521   4.064
93249W        W59790   2.715  16.691   2.605
93250W        W59791  19.770   5.267   0.359
93251W        W59792  20.791  38.004  11.573
93252W        W59793  38.715   1.264  14.237
93253W        W59794  17.995   5.833  11.602
93254W        W59795  38.362  20.088   4.585
93255W        W59796  30.428  35.996   1.388
93256W        W59797  23.419  44.515   2.151
93257W        W59798   3.677  35.516   0.326
93258W        W59799  35.069   8.761   0.966
93259W        W59800  26.638  16.859  10.291
93260W        W59801  23.559   2.299  12.799
93261W        W59802  37.878  22.536   4.879
93262W        W59803  25.693  10.297  10.883
93263W        W59804  32.691  26.138  11.464
93264W        W59805   0.842  43.012   1.420
93265W        W59806  35.765  10.226   3.627
93266W        W59807  16.812  37.510  14.475
93267W        W59808  25.573   9.117  10.751
93268W        W59809  39.373  36.711   4.780
93269W        W59810  41.379  42.974  10.708
93270W        W59811  26.942  15.033   2.376
93271W        W59812   4.045  25.600   2.375
93272W        W59813  24.252  44.746   2.461
93273W        W59814  20.956  12.813   3.046
93274W        W59815   7.814  38.247   3.533
93275W        W59816  27.040   3.761  11.609
93276W        W59817  25.134  23.688   1.214
93277W        W59818  12.162   5.828  14.668
93278W        W59819  26.489   5.841  14.121
93279W        W59820   9.565  35.393   2.483
93280W        W59821  37.299  34.523  11.886
93281W        W59822  36.277   1.242  12.921
93282W        W59823  16.054  23.101  11.037
93283W        W59824  31.846  39.036  13.035
93284W        W59825  29.359   1.946  13.007
93285W        W59826  32.237  36.466   2.178
93286W        W59827  23.307   6.375   3.186
93287W        W59828  10.103   1.906   2.188
93288W        W59829   3.939  23.589   1.691
93289W        W59830  25.600   5.683  13.363
93290W        W59831   4.669  14.128   4.045
93291W        W59832  14.731  14.226  13.537
93292W        W59833  28.761  41.059   3.119
93293W        W59834  14.215   5.115  13.589
93294W        W59835  40.288   0.279   3.635
93295W        W59836  24.684  16.755   1.763
93296W        W59837  15.554  23.669  12.784
93297W        W59838  32.569  43.850  13.352
93298W        W59839  29.081   3.739   3.016
93299W        W59840   9.429  43.447   0.458
93300W        W59841  12.334  29.539  12.281
93301W        W59842  20.571   7.431   0.420
93302W        W59843  39.634   6.648   1.622
93303W        W59844  35.313   2.966   2.643
93304W        W59845  35.102  34.835   3.394
93305W        W59846  43.664  43.419  13.988
93306W        W59847  15.198  15.341  14.301
93307W        W59848  22.246  17.832   1.509
93308W        W59849  23.534  44.315   3.995
93309W        W59850   1.752  14.336   0.713
93310W        W59851  26.265  24.785   4.473
93311W        W59852  12.998  10.397   3.134
93312W        W59853  12.992  42.180   2.211
93313W        W59854  31.136  25.173  11.035
93314W        W59855  12.645  14.097  10.728
93315W        W59856  39.318   1.025   1.418
93316W        W59857  32.993  42.999  14.899
93317W        W59858  36.434  14.497  13.370
93318W        W59859  44.000  37.005  11.481
93319W        W59860   1.254   2.071  14.847
93320W        W59861   1.302  24.412  14.805
93321W        W59862  12.749   6.717  11.157
93322W        W59863  35.605  40.747   0.571
93323W        W59864   8.252  41.099   3.661
93324W        W59865  31.978  33.581  12.635
93325W        W59866   0.061  25.328  11.534
93326W        W59867  14.719  20.282   1.815
93327W        W59868  25.718  29.596  12.043
93328W        W59869  17.162  38.476   1.514
93329W        W59870   4.092  43.357  13.251
93330W        W59871  25.775   1.654   3.639
93331W        W59872  36.446  17.679  10.783
93332W        W59873   9.188  40.797  12.131
93333W        W59874   9.580   9.073   4.381
93334W        W59875   8.097   3.495   2.121
93335W        W59876  27.381  11.752  12.750
93336W        W59877  13.022   5.434   1.326
93337W        W59878  41.303  20.489   3.627
93338W        W59879  33.948  19.510   0.820
93339W        W59880   5.003   4.362  12.316
93340W        W59881  30.384  41.577  10.982
93341W        W59882  19.062  39.924  10.711
93342W        W59883  41.335  30.144   0.921
93343W        W59884  15.317   3.747  13.481
93344W        W59885  18.386  33.061   1.766
93345W        W59886  44.773   1.809   0.419
93346W        W59887   0.711  28.348   1.549
93347W        W59888   7.927   2.157  11.019
93348W        W59889   2.783  12.690  14.757
93349W        W59890  23.453  22.136  10.783
93350W        W59891  26.155   8.702   3.303
93351W        W59892  30.660  31.492   2.555
93352W        W59893  16.175  34.587  13.496
93353W        W59894  34.140   9.110  11.104
93354W        W59895  17.785  40.368   2.204
93355W        W59896   0.334  39.880   4.086
93356W        W59897  13.637  41.295  14.819
93357W        W59898  28.376  26.921  11.096
93358W        W59899  17.455  36.938  12.078
93359W        W59900  12.884   0.790  14.875
93360W        W59901  19.524  21.691  14.780
93361W        W59902  36.107  33.616   4.162
93362W        W59903  16.636  36.880   1.289
93363W        W59904  17.094  20.945  12.532
93364W        W59905  33.266  28.690   0.879
93365W        W59906  38.589  25.642  14.888
93366W        W59907  22.558  28.402  11.540
93367W        W59908  11.707  12.898  14.834
93368W        W59909  10.904  22.522  10.382
93369W        W59910  35.846  42.854   0.028
93370W        W59911   2.826   6.104   3.332
93371W        W59912  11.868  35.299  14.056
93372W        W59913  16.205  29.239  14.058
93373W        W59914  27.680  21.197  14.651
93374W        W59915  42.473  28.081   4.322
93375W        W59916  12.362  32.224  14.507
93376W        W59917  43.051  27.949  13.058
93377W        W59918  15.613  30.627   1.256
93378W        W59919  28.544   1.822   3.851
93379W        W59920  24.560  43.858   0.395
93380W        W59921  23.992   1.725  12.932
93381W        W59922  36.848  19.039   1.772
93382W        W59923  29.584  25.750   4.144
93383W        W59924  32.732  13.180   3.186
93384W        W59925  37.107  32.044  14.504
93385W        W59926  15.377  21.633  14.091
93386W        W59927  11.882  24.534  14.515
93387W        W59928  12.413  27.600  14.689
93388W        W59929  22.428   9.404  13.574
93389W        W59930  30.018  24.734   0.921
93390W        W59931  34.787  28.476   0.930
93391W        W59932  43.291  34.876  13.550
93392W        W59933  28.535  23.236   3.395
93393W        W59934  23.457  15.956  13.894
93394W        W59935  13.707  30.634   0.264
93395W        W59936   0.429  21.128  13.942
93396W        W59937  42.845  18.348  13.566
93397W        W59938  34.154  32.623   4.165
93398W        W59939  43.778  42.506  10.653
93399W        W59940  20.046  31.660  12.950
93400W        W59941  34.813  18.767   1.910
93401W        W59942  30.998  32.150  12.040
93402W        W59943  13.956  36.272   0.424
93403W        W59944   1.988   5.602   0.231
93404W        W59945  34.467  25.376  13.081
93405W        W59946  36.352   6.748   0.865
93406W        W59947   5.343  42.585   2.903
93407W        W59948   9.852  37.842  13.878
93408W        W59949  40.965  15.663   4.708
93409W        W59950  17.339  14.526  11.605
93410W        W59951  41.829  17.684   1.697
93411W        W59952  17.633  29.579  13.275
93412W        W59953   4.377  18.370  11.102
93413W        W59954  22.288  19.308  12.875
93414W        W59955  28.231  42.849  13.977
93415W        W59956  14.383  36.484   4.324
93416W        W59957  28.624  38.846  13.053
93417W        W59958  14.115  35.878   3.705
93418W        W59959  36.181  40.434   4.986
93419W        W59960  24.041  28.296   3.170
93420W        W59961  39.308  14.354  14.415
93421W        W59962  13.942  13.439   3.335
93422W        W59963  20.165  37.462  12.867
93423W        W59964   3.203   9.863  12.509
93424W        W59965  35.367  38.651  13.254
93425W        W59966  23.273  19.120  14.075
93426W        W59967  18.550  30.466  13.555
93427W        W59968  11.759  31.606   0.001
93428W        W59969  12.643  21.762   3.309
93429W        W59970   6.938  40.685  12.746
93430W        W59971  10.627  33.509   0.180
93431W        W59972  10.439   7.617  13.527
93432W        W59973  37.967  44.135  11.560
93433W        W59974  26.643  12.929  10.869
93434W        W59975   2.992   2.254   1.921
93435W        W59976  24.252  34.528  13.898
93436W        W59977  39.809  24.765  14.531
93437W        W59978  37.786  20.328  11.564
93438W        W59979   0.924  16.167  13.393
93439W        W59980  12.448   9.094   3.564
93440W        W59981  31.489  37.766  13.826
93441W        W59982  25.502   0.539  11.220
93442W        W59983   3.708   9.530   2.702
93443W        W59984   6.798  28.921   3.553
93444W        W59985  34.537  33.699  13.091
93445W        W59986   5.756  26.545  14.870
93446W        W59987  28.917  41.222  11.212
93447W        W59988   5.266  15.839  13.978
93448W        W59989  10.286   5.810  11.248
93449W        W59990  30.206   6.481  13.558
93450W        W59991  35.771  32.390   0.337
93451W        W59992  20.260   7.324   3.318
93452W        W59993  10.633  40.965   3.323
93453W        W59994  34.308  11.756  10.513
93454W        W59995  31.203  24.170   2.731
93455W        W59996  16.009  25.676   4.484
93456W        W59997  41.573  30.559  13.543
93457W        W59998  13.567  12.766   2.169
93458W        W59999  29.648  30.855   0.276
93459W        W60000  10.602  34.192   3.225
93460W        W60001  19.962  18.611  11.250
93461W        W60002  20.950   4.471  11.582
93462W        W60003  16.230  37.554  12.407
93463W        W60004  14.924  14.346  14.399
93464W        W60005  17.572   4.410   3.206
93465W        W60006  17.374  39.403  11.606
93466W        W60007  31.454  36.429  10.726
93467W        W60008  26.854   4.758   2.420
93468W        W60009  35.028  16.827   3.795
93469W        W60010  12.262  29.612  12.791
93470W        W60011  40.069  30.054  12.877
93471W        W60012  26.945  14.659  13.355
93472W        W60013   1.470  29.070  13.539
93473W        W60014  38.534  15.013   2.207
93474W        W60015  19.622  10.283   4.641
93475W        W60016   2.899   5.045   1.259
93476W        W60017  11.598  23.081  14.476
93477W        W60018  23.325   8.382   4.664
93478W        W60019  33.538  24.190  12.869
93479W        W60020  41.369  21.179   3.421
93480W        W60021  17.998  13.355  12.147
93481W        W60022  34.985  12.448   4.756
93482W        W60023  36.160  13.587  11.670
93483W        W60024   6.542  12.701  14.522
93484W        W60025  41.115  15.501   1.901
93485W        W60026   2.759  32.096   0.767
93486W        W60027  21.947  35.000   1.190
93487W        W60028  12.145   0.968   9.912
93488W        W60029   0.049  12.310   1.241
93489W        W60030  41.344  21.670   0.051
93490W        W60031  24.682   3.993   3.056
93491W        W60032  21.745  18.620  13.187
93492W        W60033  13.402  37.522   3.608
93493W        W60034  17.294  21.019  10.786
93494W        W60035  24.455  25.217  10.500
93495W        W60036  39.297  32.821   3.257
93496W        W60037  41.907  14.560  11.678
93497W        W60038  27.051  37.778   1.800
93498W        W60039  39.831   5.159   2.771
93499W        W60040  21.183  20.366   4.068
93500W        W60041  29.810  29.376   5.086
93501W        W60042  11.722  14.590   0.984
93502W        W60043  38.667  27.607   4.502
93503W        W60044  32.044   7.787   1.897
93504W        W60045   1.909  18.596  13.025
93505W        W60046  33.514  30.709   4.624
93506W        W60047   6.454  14.189   2.672
93507W        W60048  21.219   1.963  11.149
93508W        W60049   4.345  44.520   3.022
93509W        W60050  31.525   1.703  13.325
93510W        W60051  25.996   5.943  11.260
93511W        W60052  17.664  18.068  10.205
93512W        W60053  22.203   1.553  14.310
93513W        W60054  35.460   4.713  11.534
93514W        W60055  11.792  27.665   2.150
93515W        W60056   9.347  23.156  14.381
93516W        W60057  25.715   9.910   4.663
93517W        W60058  33.337   7.324  11.617
93518W        W60059   3.507  29.977  14.942
93519W        W60060  16.988  12.771   4.518
93520W        W60061  17.305  26.566  10.595
93521W        W60062  44.263  35.834   0.414
93522W        W60063  21.911  16.232   3.863
93523W        W60064   7.133   2.786  11.248
93524W        W60065   2.030  37.318  13.016
93525W        W60066  30.212  15.223  13.912
93526W        W60067  38.608  10.056  11.113
93527W        W60068  18.044  40.556  11.474
93528W        W60069  35.635  39.326  14.422
93529W        W60070  30.056  27.986  13.634
93530W        W60071  12.055  38.577  12.452
93531W        W60072  21.671  29.490  10.635
93532W        W60073  25.211  17.057   2.289
93533W        W60074  36.074  43.767   4.027
93534W        W60075  30.031  44.009  13.314
93535W        W60076  16.824   3.002   0.275
93536W        W60077   4.878  42.405   2.733
93537W        W60078  30.998  44.774   4.364
93538W        W60079  17.697  31.192  10.548
93539W        W60080  18.500  11.271  14.963
93540W        W60081   2.380  38.524  13.856
93541W        W60082  25.486  26.390   3.193
93542W        W60083  13.536  15.589   3.152
93543W        W60084  34.406  10.122   1.898
93544W        W60085   5.443  30.704  14.452
93545W        W60086  19.118  25.522   4.161
93546W        W60087  13.193   5.880  13.843
93547W        W60088  24.709   6.734   1.726
93548W        W60089  19.884   8.483  11.493
93549W        W60090  32.862   0.511   2.865
93550W        W60091  39.200   6.392   3.357
93551W        W60092  33.255  34.932   2.324
93552W        W60093   4.747  40.609  10.498
93553W        W60094  21.623  33.444  13.146
93554W        W60095  20.655  42.027   2.698
93555W        W60096  37.186  12.253  14.023
93556W        W60097   9.922  11.249   4.007
93557W        W60098  44.661  12.600   2.793
93558W        W60099  13.270  18.102   4.038
93559W        W60100  16.125   7.153  13.917
93560W        W60101   9.690   7.760   4.221
93561W        W60102  33.452  13.257   4.676
93562W        W60103  23.583  33.106  14.413
93563W        W60104  40.658  42.330  12.484
93564W        W60105  40.570  27.619   3.681
93565W        W60106  42.735  44.325  10.963
93566W        W60107   0.512   3.400   1.229
93567W        W60108  34.366  26.634  14.325
93568W        W60109  22.365   7.101  11.615
93569W        W60110  16.258   2.554   1.800
93570W        W60111  14.729  13.841   3.792
93571W        W60112  39.334   3.221  10.487
93572W        W60113  17.289  19.763  13.153
93573W        W60114  27.260   8.447  11.101
93574W        W60115  32.932  40.332  12.973
93575W        W60116  12.232  43.727   4.226
93576W        W60117  28.071  17.177  13.601
93577W        W60118  27.381  17.206  14.394
93578W        W60119  12.030  11.336   3.841
93579W        W60120  40.192  20.953  13.829
93580W        W60121   3.767   8.769  14.946
93581W        W60122  28.130   9.161  12.527
93582W        W60123  16.811   3.712   0.903
93583W        W60124  12.269   7.193   1.628
93584W        W60125  36.512  37.319  14.939
93585W        W60126  40.693  31.524   2.868
93586W        W60127  20.523  25.445   2.840
93587W        W60128  27.331   4.412   3.171
93588W        W60129  14.449  27.652   1.712
93589W        W60130  19.528   5.930  10.418
93590W        W60131  29.760   3.422  10.792
93591W        W60132  44.905  23.086  14.439
93592W        W60133   8.727  41.283  10.731
93593W        W60134  15.970  19.200   0.961
93594W        W60135  37.950  16.620   2.384
93595W        W60136  38.318  37.336   4.097
93596W        W60137  27.342  21.256  12.287
93597W        W60138   9.345  36.050   3.102
93598W        W60139   4.586   8.772  13.413
93599W        W60140  24.012  34.091   1.804
93600W        W60141   5.209  35.928  14.946
93601W        W60142  23.159   8.312  11.883
93602W        W60143  31.356  11.650  10.212
93603W        W60144  11.083  17.100   4.663
93604W        W60145  11.159  39.149  12.449
93605W        W60146  15.762  40.939   1.901
93606W        W60147  29.048   0.151   3.196
93607W        W60148  30.864   2.370   2.718
93608W        W60149  19.255  14.053   2.263
93609W        W60150  32.720  34.928  14.843
93610W        W60151  36.444  28.574   1.845
93611W        W60152   1.617  37.513  13.303
93612W        W60153  30.514  28.272   2.372
93613W        W60154  20.943   3.252   3.650
93614W        W60155  23.309   2.046   1.292
93615W        W60156  20.486   4.398  13.431
93616W        W60157  25.118   1.523  13.151
93617W        W60158  25.955   9.788   2.339
93618W        W60159   2.495  10.161  13.930
93619W        W60160  18.264   6.659  10.699
93620W        W60161  17.001  38.456  14.847
93621W        W60162  16.343   9.730   1.947
93622W        W60163  41.876  39.500  11.565
93623W        W60164  29.068  38.535  10.698
93624W        W60165  14.875  26.128   3.204
93625W        W60166  43.343  43.736  14.828
93626W        W60167   4.920  26.566  11.102
93627W        W60168  37.480  39.622  11.493
93628W        W60169  12.322   7.264   3.383
93629W        W60170  15.815  25.570  12.096
93630W        W60171  10.984  32.889  14.364
93631W        W60172  25.439  37.721   4.408
93632W        W60173  38.313  13.013  10.301
93633W        W60174  43.434  35.059   0.923
93634W        W60175  26.964  28.773   2.092
93635W        W60176  15.053  21.580   2.010
93636W        W60177   5.412  20.205  12.507
93637W        W60178  37.823  36.497  12.535
93638W        W60179  33.513  42.726   4.002
93639W        W60180  38.800  37.086   3.585
93640W        W60181  33.426  24.461  13.302
93641W        W60182   3.139  26.716  13.252
93642W        W60183  24.524  25.984  12.442
93643W        W60184   8.261   4.475  14.990
93644W        W60185  36.674  18.065  11.136
93645W        W60186  25.462  37.981  11.051
93646W        W60187  37.775   4.809  14.473
93647W        W60188  33.322  43.741  12.947
93648W        W60189  34.569  22.745  13.606
93649W        W60190  40.840  23.687  12.726
93650W        W60191  37.673   8.576   1.364
93651W        W60192  30.841   3.985  13.848
93652W        W60193   6.014  36.771   9.673
93653W        W60194  38.365   3.902   1.288
93654W        W60195  26.501   6.878  14.353
93655W        W60196  30.613   7.893  14.510
93656W        W60197  40.088  11.155   1.234
93657W        W60198  25.455  41.747   3.535
93658W        W60199  36.963  39.797  13.915
93659W        W60200  12.727  10.555  11.640
93660W        W60201  26.690  32.961  12.197
93661W        W60202  26.208   2.830  13.881
93662W        W60203  42.687  21.016  11.650
93663W        W60204  16.506  39.655  11.571
93664W        W60205  14.531  11.947   4.149
93665W        W60206  34.549  14.145   4.531
93666W        W60207  18.626  31.214   4.329
93667W        W60208   1.069  18.517   4.689
93668W        W60209  42.600  37.704  11.153
93669W        W60210  24.578  17.580   3.481
93670W        W60211  21.305  41.421   4.824
93671W        W60212  22.975  18.194  14.542
93672W        W60213   9.132  37.935   3.090
93673W        W60214  31.575  10.089   0.869
93674W        W60215  22.666  13.630   2.173
93675W        W60216  29.959  31.918   2.754
93676W        W60217  43.040   4.477   1.679
93677W        W60218  15.514  32.491   0.443
93678W        W60219   5.263  38.811   3.578
93679W        W60220  29.805  27.578  12.871
93680W        W60221   0.037   9.844  11.478
93681W        W60222  22.205  13.543   1.994
93682W        W60223  13.847  33.190   2.816
93683W        W60224  14.500  13.364  13.644
93684W        W60225  32.370  42.358  10.829
93685W        W60226  38.771   0.785  11.902
93686W        W60227   8.796   6.241  11.606
93687W        W60228  14.114  40.283   2.598
93688W        W60229  37.960   2.537  11.360
93689W        W60230  34.811   7.902   4.520
93690W        W60231   7.635   6.882  12.566
93691W        W60232  18.026   7.445  14.888
93692W        W60233   6.328  12.378  13.521
93693W        W60234  31.137   6.206   4.158
93694W        W60235  29.002  14.867   1.261
93695W        W60236  21.326  15.038   5.158
93696W        W60237   5.905   5.910  14.809
93697W        W60238  23.477  22.152   1.559
93698W        W60239   2.976  37.372   4.292
93699W        W60240  35.362  34.127  10.701
93700W        W60241   6.636  40.540   0.414
93701W        W60242   3.829  40.320  14.377
93702W        W60243  11.320  25.978  14.377
93703W        W60244  17.438  32.105   4.194
93704W        W60245  13.620  29.601   4.769
93705W        W60246  13.391  25.181   0.408
93706W        W60247  40.122  40.086   1.245
93707W        W60248  16.858  10.305   3.936
93708W        W60249  22.422   5.682  11.568
93709W        W60250   8.156  25.514   4.254
93710W        W60251  24.452  44.034   0.896
93711W        W60252  17.054  34.636  13.966
93712W        W60253  10.517   7.956   3.197
93713W        W60254  36.608  16.951  14.872
93714W        W60255  12.868  20.621   0.614
93715W        W60256   7.273  30.098   4.040
93716W        W60257  13.310  38.931  10.718
93717W        W60258  17.685  19.323  12.829
93718W        W60259  14.175  37.408   2.307
93719W        W60260  17.600  13.313  14.392
93720W        W60261  11.127  33.126   1.623
93721W        W60262  28.216   3.682   4.936
93722W        W60263  27.661  14.562  11.579
93723W        W60264  10.612  10.237   2.805
93724W        W60265  43.765  32.425   3.846
93725W        W60266  10.864  33.917   2.797
93726W        W60267   8.117   1.947  13.393
93727W        W60268  18.698   3.881  10.655
93728W        W60269  31.060   0.616   1.202
93729W        W60270  30.900  13.565  11.628
93730W        W60271  39.206  10.147   3.134
93731W        W60272  27.070   8.767   1.299
93732W        W60273   1.898   4.745   0.350
93733W        W60274   2.306   6.392  10.580
93734W        W60275   9.217   6.592   1.307
93735W        W60276  21.036  29.703   1.287
93736W        W60277  18.250  42.390   1.830
93737W        W60278  16.724  36.067   2.205
93738W        W60279  14.697  33.961  11.659
93739W        W60280  28.408  22.284  13.620
93740W        W60281  33.033  20.678   2.856
93741W        W60282  22.534   8.816   1.320
93742W        W60283  25.315   8.334  13.973
93743W        W60284  41.444   3.332  11.589
93744W        W60285   3.323  35.112   0.365
93745W        W60286  26.942   0.878   0.171
93746W        W60287  37.523  32.947   2.661
93747W        W60288  37.880   7.979  12.936
93748W        W60289  12.672  39.903   1.380
93749W        W60290  21.128   0.375  12.628
93750W        W60291   7.714   4.398  13.866
93751W        W60292   2.232  28.717   3.275
93752W        W60293  10.703  35.983  14.028
93753W        W60294  32.471  29.631  14.329
93754W        W60295  36.531  21.211   3.883
93755W        W60296   5.056  37.870  12.553
93756W        W60297  19.828  27.920   1.648
93757W        W60298   8.982  22.504   4.085
93758W        W60299  43.281  11.718  11.553
93759W        W60300   5.137  13.200  13.626
93760W        W60301  16.418  34.293  11.522
93761W        W60302  20.287  21.200   4.570
93762W        W60303  22.310  14.542  12.088
93763W        W60304  23.444  14.521   0.021
93764W        W60305  29.002  32.173  13.874
93765W        W60306   5.870  19.128   3.094
93766W        W60307   4.252   6.795   1.300
93767W        W60308  27.684  16.230   0.947
93768W        W60309  19.730  10.834  11.524
93769W        W60310  24.508  11.708   1.343
93770W        W60311  35.631   9.556   2.400
93771W        W60312  36.878   8.371  12.091
93772W        W60313  33.525  29.081  10.795
93773W        W60314  24.940  16.389  13.046
93774W        W60315  19.371   2.227  11.118
93775W        W60316  34.677  42.018   3.645
93776W        W60317   0.512  21.368   4.662
93777W        W60318   5.187  37.503   4.591
93778W        W60319  39.806  40.779  12.479
93779W        W60320  17.030  11.062  10.768
93780W        W60321  40.255  37.347   3.649
93781W        W60322  20.224  27.682   0.710
93782W        W60323   6.839  43.462   1.217
93783W        W60324  30.414  23.045  12.805
93784W        W60325  12.787  16.250   0.349
93785W        W60326  27.845  21.128  13.014
93786W        W60327   2.062  34.384   3.944
93787W        W60328  25.648  27.034  12.601
93788W        W60329  27.468  19.664  14.045
93789W        W60330   6.968  14.855   3.728
93790W        W60331   6.817  31.846   3.314
93791W        W60332   0.668  33.934   3.660
93792W        W60333  40.576  34.138  12.995
93793W        W60334  23.993  32.898   3.514
93794W        W60335  14.116  26.539   1.636
93795W        W60336   8.901   1.495   3.687
93796W        W60337  11.296   8.985  12.085
93797W        W60338  23.685  37.538  10.687
93798W        W60339  23.731   4.670  14.754
93799W        W60340  32.062  35.654   4.700
93800W        W60341  34.554  19.822  10.965
93801W        W60342  31.471  40.093  10.450
93802W        W60343  11.640   3.187  14.295
93803W        W60344  24.287  11.184  12.326
93804W        W60345   7.656  14.770   4.854
93805W        W60346  27.711  10.159  12.638
93806W        W60347  17.990   0.059   4.190
93807W        W60348  19.720  19.725   1.408
93808W        W60349  37.355  22.384   4.811
93809W        W60350  26.916  32.958   2.771
93810W        W60351  23.489  35.393  11.598
93811W        W60352  41.883  22.597  14.654
93812W        W60353  13.462  38.916   2.421
93813W        W60354  44.855  20.574   3.240
93814W        W60355  25.846  12.191  11.064
93815W        W60356  40.469   9.760  12.554
93816W        W60357   7.365   5.909  10.728
93817W        W60358  19.802  13.384   2.760
93818W        W60359  15.148  27.612   3.216
93819W        W60360  25.684  23.682  11.109
93820W        W60361  14.732   7.978   3.890
93821W        W60362   2.359   3.982  12.338
93822W        W60363  15.501  19.726   0.359
93823W        W60364   6.386  21.781  14.678
93824W        W60365  28.251  39.405   0.398
93825W        W60366  20.347  22.168  14.738
93826W        W60367  27.402  37.375  12.570
93827W        W60368   9.507  18.260   4.684
93828W        W60369   3.053  24.119   1.263
93829W        W60370  44.797  44.012   4.184
93830W        W60371  32.150   4.965   0.684
93831W        W60372  43.390  10.903   0.920
93832W        W60373  11.793  14.885   2.757
93833W        W60374  44.410   0.897  12.220
93834W        W60375  23.134  23.609  11.866
93835W        W60376  10.730  23.933  10.530
93836W        W60377  38.276  44.519  14.761
93837W        W60378   0.857  13.484  14.360
93838W        W60379  24.924  39.344   1.091
93839W        W60380   1.357  43.277   4.750
93840W        W60381  28.051   5.367   2.637
93841W        W60382   8.698  15.818  10.644
93842W        W60383  18.702  16.809   1.444
93843W        W60384  22.058  10.337  13.249
93844W        W60385  36.087  37.587   0.902
93845W        W60386   8.975   6.234   0.406
93846W        W60387  33.575  42.665  11.926
93847W        W60388  30.964   0.492  11.161
93848W        W60389  10.776  38.952   0.624
93849W        W60390  33.887  40.551   1.198
93850W        W60391  19.233  41.535  14.012
93851W        W60392  24.774  22.601   1.741
93852W        W60393  29.388   1.036  13.079
93853W        W60394  44.479  34.970   3.303
93854W        W60395  28.079   0.380   2.812
93855W        W60396  18.162   5.991   3.655
93856W        W60397  13.773  31.141   2.676
93857W        W60398  24.932  11.146  13.934
93858W        W60399  42.494  44.046   4.768
93859W        W60400  35.792  20.146  13.477
93860W        W60401  44.177  13.283  10.669
93861W        W60402   0.344  16.644   3.281
93862W        W60403  21.753   3.765   3.739
93863W        W60404  34.271   1.201   5.005
93864W        W60405  26.727  17.526  13.510
93865W        W60406  17.901  17.561   4.061
93866W        W60407   9.692  13.599  14.012
93867W        W60408  37.067  35.380  13.843
93868W        W60409  18.165  25.656   0.018
93869W        W60410  19.817  19.139   0.788
93870W        W60411   1.514  41.709   1.633
93871W        W60412  18.980  11.271  11.449
93872W        W60413  26.675  30.923  12.549
93873W        W60414  18.641  17.642  12.102
93874W        W60415  18.847  15.889   1.852
93875W        W60416  19.970  31.410   3.714
93876W        W60417  37.045  36.573   1.269
93877W        W60418  35.624  12.650  13.915
93878W        W60419  28.651  27.214  12.010
93879W        W60420  20.113  34.198  11.901
93880W        W60421   1.384  38.396  13.489
93881W        W60422  15.743  26.143  11.143
93882W        W60423   3.326  24.224   0.207
93883W        W60424  24.784  34.850  14.536
93884W        W60425   5.649  40.438   0.366
93885W        W60426   4.684  22.223  12.525
93886W        W60427  15.190  39.135  12.329
93887W        W60428  22.237  23.199  14.034
93888W        W60429  14.353   7.254  12.835
93889W        W60430  26.974  11.749   2.377
93890W        W60431   5.916  16.429  11.120
93891W        W60432   5.842  39.869   1.743
93892W        W60433  42.433  32.658   0.275
93893W        W60434  26.670  40.232   2.896
93894W        W60435  12.949  33.871  14.579
93895W        W60436  21.590   7.920   4.151
93896W        W60437  28.048  38.314  10.603
93897W        W60438  40.163  34.539   9.848
93898W        W60439  13.191  40.297  11.328
93899W        W60440  43.758  21.658   3.367
93900W        W60441   0.840  39.544   3.555
93901W        W60442  10.835  22.844  14.452
93902W        W60443   6.630  25.625   5.476
93903W        W60444   0.284   3.748  11.643
93904W        W60445   5.331   5.430   0.358
93905W        W60446  36.406  21.584   1.272
93906W        W60447  28.981  42.341   4.279
93907W        W60448   0.205  33.558   0.154
93908W        W60449  29.351  24.764   4.132
93909W        W60450  28.208  21.415  13.509
93910W        W60451  44.352  27.967  14.606
93911W        W60452  16.907   8.265  12.059
93912W        W60453  30.598   5.421   1.919
93913W        W60454  19.737   9.468   2.180
93914W        W60455  19.537   6.862  14.436
93915W        W60456  12.384  15.327   5.184
93916W        W60457   5.370  17.658  14.479
93917W        W60458   1.826   4.133  12.580
93918W        W60459  25.665  12.867   2.569
93919W        W60460  33.205  41.375   2.587
93920W        W60461  32.847  32.335  11.097
93921W        W60462  27.176  24.052  10.220
93922W        W60463  29.854  42.882  13.092
93923W        W60464  39.213  31.970   2.712
93924W        W60465  20.127  38.947  14.871
93925W        W60466   6.843  25.259   4.161
93926W        W60467  25.248   8.057   3.760
93927W        W60468  31.671  13.838   1.628
93928W        W60469  22.727  25.033   2.465
93929W        W60470  33.953  37.326  14.148
93930W        W60471   3.859  19.820   1.279
93931W        W60472   6.366   3.467  10.708
93932W        W60473   2.365   5.807   2.943
93933W        W60474  35.226  16.397   0.824
93934W        W60475  34.546  14.292  11.489
93935W        W60476  26.135  24.015  12.749
93936W        W60477   7.400  17.778  14.810
93937W        W60478   9.548  36.665   0.166
93938W        W60479  25.519   2.808  10.499
93939W        W60480  41.391  40.235  11.069
93940W        W60481  22.510  19.051  13.288
93941W        W60482  33.084  27.465   0.369
93942W        W60483  41.579  33.384  11.165
93943W        W60484   4.214  16.699   0.452
93944W        W60485  43.543  33.443  13.125
93945W        W60486  34.233  40.304  14.088
93946W        W60487  16.705  25.588  14.049
93947W        W60488  15.699   5.002   0.212
93948W        W60489  27.915  11.870   3.389
93949W        W60490  18.264  38.865  11.587
93950W        W60491  28.183  27.582  13.823
93951W        W60492  17.522   2.215   4.434
93952W        W60493  23.107   6.593   2.324
93953W        W60494   7.401   8.275  12.503
93954W        W60495  35.133   5.394  10.903
93955W        W60496   9.811  24.938   3.777
93956W        W60497  10.135  33.167  14.313
93957W        W60498  30.138  33.567  13.811
93958W        W60499  30.251  41.834   1.928
93959W        W60500  14.501   7.436  11.193
93960W        W60501   8.751  25.908   0.969
93961W        W60502  30.568  23.584  14.034
93962W        W60503   4.400  35.442   0.819
93963W        W60504  11.795  38.529   1.231
93964W        W60505  15.337  26.635  10.292
93965W        W60506  25.524   5.353   9.820
93966W        W60507  25.251   4.937   4.746
93967W        W60508  44.279  41.445   4.106
93968W        W60509   5.976  37.771   2.365
93969W        W60510  33.280  39.854   9.990
93970W        W60511   4.404  11.153  11.934
93971W        W60512  12.257  30.535   4.595
93972W        W60513  28.663  21.610  14.972
93973W        W60514  15.895  23.072  13.453
93974W        W60515  20.329  24.431   2.732
93975W        W60516  21.080  18.035  10.709
93976W        W60517   3.766  31.428  14.467
93977W        W60518   9.384  17.329  10.630
93978W        W60519  33.234  26.979  11.703
93979W        W60520  44.830  19.623   1.562
93980W        W60521  39.924   7.713   0.819
93981W        W60522  35.936  13.110  11.556
93982W        W60523  11.912  43.457  14.837
93983W        W60524   4.536   1.281  11.188
93984W        W60525   7.825  22.730   2.337
93985W        W60526  23.876   7.303  12.486
93986W        W60527  14.326  23.331  12.916
93987W        W60528  27.183  41.238   0.873
93988W        W60529  24.088  10.418   1.744
93989W        W60530  43.492   0.740   2.844
93990W        W60531  20.506  43.834   2.340
93991W        W60532  10.300  33.236   5.190
93992W        W60533  30.112  10.734  10.057
93993W        W60534  31.460  23.001  11.172
93994W        W60535  30.206  39.276   1.414
93995W        W60536   7.286  19.723   0.469
93996W        W60537  13.081  28.758  11.528
93997W        W60538   1.022  35.057   2.168
93998W        W60539   8.769  37.697  10.707
93999W        W60540   9.197   6.387  14.951
94000W        W60541  40.534  18.841   4.119
94001W        W60542   9.684  44.245  13.025
94002W        W60543   2.482   9.784  10.862
94003W        W60544  33.272  17.539  12.510
94004W        W60545  42.293  41.094  11.041
94005W        W60546  41.431  23.984  12.009
94006W        W60547  42.056  33.470   3.211
94007W        W60548  41.869  39.905  14.187
94008W        W60549  21.258  37.352  11.116
94009W        W60550   7.521  10.154  14.521
94010W        W60551  43.447  44.453   3.321
94011W        W60552  21.250  27.949   1.088
94012W        W60553  23.276   3.293   5.015
94013W        W60554  21.142   6.349  14.219
94014W        W60555   7.853  23.023   2.822
94015W        W60556  27.575   8.179  10.757
94016W        W60557  34.269   4.855  14.368
94017W        W60558  12.653   6.228  13.305
94018W        W60559  17.557   5.053   2.209
94019W        W60560   8.818  11.457  14.292
94020W        W60561  36.150  21.318   3.177
94021W        W60562  19.556   2.462  11.569
94022W        W60563   4.248  21.454   1.232
94023W        W60564  35.943  29.156  12.508
94024W        W60565  37.556  37.018  14.271
94025W        W60566  39.861  42.959  10.935
94026W        W60567  12.906  26.206  11.505
94027W        W60568   7.768  35.897   3.796
94028W        W60569  36.950  17.898  12.507
94029W        W60570  39.802  41.889   4.160
94030W        W60571   1.529  24.383   3.354
94031W        W60572  15.827   2.591  13.557
94032W        W60573  31.643  21.306   1.559
94033W        W60574  15.233   1.671   2.749
94034W        W60575  18.291  21.051  11.133
94035W        W60576  27.292   6.400   3.548
94036W        W60577  10.783  20.091  13.969
94037W        W60578  40.478   6.377   3.769
94038W        W60579  10.796  40.319  13.801
94039W        W60580  23.225  21.591   5.090
94040W        W60581  33.526  35.383   3.719
94041W        W60582  27.795  12.159  11.169
94042W        W60583  26.232  26.253  10.535
94043W        W60584   9.218  20.754  11.727
94044W        W60585  10.084  25.820  11.652
94045W        W60586  28.040  10.833   2.422
94046W        W60587  30.479   2.743  14.026
94047W        W60588   5.129  38.615  13.011
94048W        W60589  32.425  36.009  14.343
94049W        W60590  26.885  42.950   3.567
94050W        W60591  43.389  23.103   2.670
94051W        W60592  39.583  20.350   1.789
94052W        W60593  30.236  26.940   2.396
94053W        W60594  40.784   4.363   0.225
94054W        W60595  17.070  11.732   1.418
94055W        W60596  39.914   6.450  12.461
94056W        W60597   0.344  43.237  12.591
94057W        W60598  43.744  11.087  14.283
94058W        W60599   0.199   5.894   1.376
94059W        W60600   6.311  36.309   3.972
94060W        W60601   7.162  35.645  13.475
94061W        W60602  17.943  39.912   4.158
94062W        W60603  37.094  44.218   1.258
94063W        W60604   1.062  18.057   5.124
94064W        W60605  39.903  11.053  10.150
94065W        W60606   3.830  41.689  11.535
94066W        W60607  26.383  14.325   4.055
94067W        W60608  33.292   7.711   3.101
94068W        W60609  40.335  18.944  14.533
94069W        W60610  23.700  13.535  11.542
94070W        W60611  24.127  42.866   0.969
94071W        W60612  44.982   2.749  12.336
94072W        W60613  27.920   5.701   3.608
94073W        W60614  34.633  28.641   1.430
94074W        W60615  30.814  43.378   1.151
94075W        W60616  19.981  10.770   1.832
94076W        W60617  44.349  23.276   0.234
94077W        W60618   0.053   9.658  13.354
94078W        W60619  20.121  28.995  12.509
94079W        W60620   5.590  29.746  13.783
94080W        W60621  32.657   8.595  13.125
94081W        W60622  12.248   2.208   3.081
94082W        W60623  43.560  39.527  12.320
94083W        W60624  12.773  36.079  11.979
94084W        W60625  12.785  24.690   4.056
94085W        W60626  24.997  11.629   4.564
94086W        W60627  30.534   5.624   1.456
94087W        W60628  13.798  19.966  12.925
94088W        W60629   0.778  26.538   4.498
94089W        W60630  19.212   6.385  13.375
94090W        W60631   7.324   6.343  12.881
94091W        W60632  29.456   4.943   1.377
94092W        W60633   2.451  44.007   0.368
94093W        W60634  34.492  14.711  14.302
94094W        W60635  23.902  39.362   1.287
94095W        W60636  39.363  39.451   2.406
94096W        W60637   6.085  40.362   1.724
94097W        W60638  44.257  15.323  12.046
94098W        W60639  29.349   2.979  14.444
94099W        W60640   3.707  41.308  13.321
94100W        W60641   5.558  33.446   4.562
94101W        W60642  27.626  40.983   0.851
94102W        W60643  35.037   5.357   4.846
94103W        W60644  21.052  38.567   0.836
94104W        W60645  14.888   0.213  10.624
94105W        W60646  11.312  26.201  12.228
94106W        W60647  24.633   9.236   1.975
94107W        W60648   7.746  39.311   2.856
94108W        W60649   1.558   8.276   0.507
94109W        W60650  30.127  23.900  14.002
94110W        W60651  19.488  15.250   0.809
94111W        W60652  14.690   1.057  10.251
94112W        W60653  41.568   3.424   0.000
94113W        W60654  40.853  38.092   1.334
94114W        W60655  18.140  42.401  12.892
94115W        W60656  12.757  40.398  12.628
94116W        W60657  33.686  21.181   4.935
94117W        W60658  42.755  20.590  11.967
94118W        W60659  31.921  21.002   1.260
94119W        W60660   6.294  29.272   1.292
94120W        W60661   5.174  24.690  14.251
94121W        W60662   2.345  36.868  12.756
94122W        W60663  31.256  12.454   4.093
94123W        W60664  17.668  12.871  14.948
94124W        W60665  40.084  10.611   0.117
94125W        W60666  26.665  43.316   1.338
94126W        W60667  20.687  29.476   3.188
94127W        W60668  39.882  30.140  14.989
94128W        W60669  25.502  14.393   0.808
94129W        W60670  19.370  13.272  11.976
94130W        W60671  33.972   2.211   3.610
94131W        W60672  35.441  34.547   3.162
94132W        W60673  28.510  27.433   0.923
94133W        W60674  42.570  29.883  12.854
94134W        W60675  10.369  30.059   1.999
94135W        W60676   6.173  11.001  12.398
94136W        W60677  18.697  43.964  14.547
94137W        W60678  18.660  27.601   4.146
94138W        W60679  28.664  29.675   1.308
94139W        W60680  13.108  26.548   4.115
94140W        W60681  22.645  10.088  13.025
94141W        W60682  21.180  14.549  11.443
94142W        W60683  21.503  16.973   3.088
94143W        W60684  38.949  19.656  10.540
94144W        W60685  21.152  44.775   3.995
94145W        W60686  31.288  28.549  12.385
94146W        W60687   0.301   2.482  14.899
94147W        W60688  26.619   1.352  13.549
94148W        W60689   0.965  21.123   4.533
94149W        W60690  19.334  20.822  12.019
94150W        W60691  21.854  23.246   2.541
94151W        W60692  33.130  35.435  10.732
94152W        W60693  10.272  28.810  11.507
94153W        W60694  32.454  34.334   4.082
94154W        W60695  33.893  22.506   2.162
94155W        W60696  43.930  30.196  11.074
94156W        W60697  12.318  37.768   1.350
94157W        W60698  36.570   1.314  11.167
94158W        W60699  30.685  42.952   3.197
94159W        W60700  16.282  28.177   3.877
94160W        W60701  22.855  38.139  13.371
94161W        W60702  17.370  37.321  10.484
94162W        W60703   1.711   2.649  13.480
94163W        W60704  30.111  33.617  11.379
94164W        W60705   1.458  28.133  11.991
94165W        W60706   6.065   3.578   0.314
94166W        W60707  21.981  15.692  11.514
94167W        W60708  12.856  17.606  10.705
94168W        W60709   1.801  37.684   1.712
94169W        W60710  42.560  28.756   1.752
94170W        W60711  28.126  33.339   4.763
94171W        W60712  18.563  31.615  10.910
94172W        W60713  32.025  10.588  13.986
94173W        W60714   5.333  34.157  12.092
94174W        W60715  16.675  16.164  12.633
94175W        W60716  35.795  23.130  13.152
94176W        W60717  31.205  23.825  12.563
94177W        W60718   5.870  36.275   4.259
94178W        W60719  28.232  11.508   3.620
94179W        W60720   3.040  28.420   0.710
94180W        W60721   4.913   5.212   1.683
94181W        W60722  27.585  28.525   3.345
94182W        W60723   6.355  19.835  11.660
94183W        W60724  30.121  11.370   0.285
94184W        W60725   8.153  19.672   4.597
94185W        W60726  32.019   6.857   0.968
94186W        W60727  34.579   3.798   3.337
94187W        W60728  12.797   2.399   4.769
94188W        W60729  41.643   5.348  11.610
94189W        W60730  28.794  17.358   3.304
94190W        W60731  37.162  26.784  11.139
94191W        W60732  33.385  37.184  11.695
94192W        W60733   7.899  25.198   1.219
94193W        W60734  17.060   9.091  13.898
94194W        W60735  12.287  36.270  11.996
94195W        W60736  44.165  35.947   4.359
94196W        W60737   8.337  37.993   2.666
94197W        W60738   9.276   8.579  12.673
94198W        W60739  36.510   7.333  13.274
94199W        W60740  21.810  17.737  12.342
94200W        W60741  19.243  33.811   4.694
94201W        W60742  13.764  16.091  14.937
94202W        W60743  14.331  29.515   1.694
94203W        W60744  31.895  20.591   4.682
94204W        W60745  20.578   6.085  14.974
94205W        W60746  25.542  22.191  12.808
94206W        W60747  28.897  32.552  12.361
94207W        W60748  18.943  38.025   0.659
94208W        W60749  24.009   8.817  13.985
94209W        W60750  38.983  33.164   3.017
94210W        W60751  29.072  22.164   0.699
94211W        W60752  13.973   0.488   1.198
94212W        W60753  41.352  21.020  10.969
94213W        W60754  23.037  29.602  11.480
94214W        W60755  20.143  17.234  14.409
94215W        W60756  12.618  31.893  10.204
94216W        W60757  38.822  13.255  10.318
94217W        W60758  27.723  13.648  13.048
94218W        W60759  29.440   6.742  12.868
94219W        W60760  44.441  15.934  11.659
94220W        W60761  22.639   5.053   3.569
94221W        W60762  16.089  43.579  11.848
94222W        W60763  10.870  36.269   0.063
94223W        W60764  25.669  36.484  10.577
94224W        W60765  32.049   8.983  13.298
94225W        W60766  17.788  10.460   4.059
94226W        W60767   5.356  23.108   0.740
94227W        W60768   7.170   3.931   2.867
94228W        W60769  43.287  27.799  10.161
94229W        W60770  22.790   9.631  10.451
94230W        W60771  40.741   0.315   0.356
94231W        W60772   9.298   4.916  13.266
94232W        W60773  13.869   2.516  14.544
94233W        W60774  31.203   8.369   1.415
94234W        W60775  14.813  39.471   1.362
94235W        W60776   3.337  33.635   3.981
94236W        W60777  22.143   0.384  10.584
94237W        W60778  40.394  33.314  12.558
94238W        W60779  15.718  41.021  11.195
94239W        W60780   7.871   0.482  13.360
94240W        W60781  37.104  24.991   1.709
94241W        W60782  31.684  18.226   2.552
94242W        W60783  16.002  28.019   1.245
94243W        W60784  19.206  29.645   3.696
94244W        W60785  15.335  16.683   2.223
94245W        W60786  42.189  41.450   0.203
94246W        W60787   0.223  15.392  12.111
94247W        W60788   0.813   7.279   1.277
94248W        W60789  23.072  24.945  12.085
94249W        W60790  39.076  23.242  10.333
94250W        W60791   4.440   2.269   4.236
94251W        W60792  13.880   2.459  11.590
94252W        W60793   2.945  21.566   0.828
94253W        W60794  12.693  29.657  13.599
94254W        W60795  14.357  13.244   1.249
94255W        W60796   2.998  17.230   4.322
94256W        W60797  15.120  18.263   0.320
94257W        W60798  29.466  35.086   3.836
94258W        W60799  17.309  35.045   3.694
94259W        W60800  40.343  23.546  14.354
94260W        W60801  35.993   9.795   1.044
94261W        W60802  33.598  33.558   4.058
94262W        W60803  20.310   3.828  10.447
94263W        W60804  18.554  33.648   1.172
94264W        W60805  13.439  20.107   3.874
94265W        W60806  38.021  34.922  12.467
94266W        W60807  41.639  28.673   3.371
94267W        W60808  38.803  17.072   4.267
94268W        W60809  37.252  43.080  11.008
94269W        W60810  40.173  44.422   1.833
94270W        W60811  25.717  42.485  10.515
94271W        W60812  14.894  25.655   4.999
94272W        W60813  32.942   8.996   4.565
94273W        W60814   1.570   0.476  11.409
94274W        W60815  15.645  36.800  13.368
94275W        W60816  33.346  29.051   3.789
94276W        W60817  41.985   3.180  11.123
94277W        W60818  43.823  14.778  14.804
94278W        W60819  30.669  13.055   1.417
94279W        W60820  15.750  26.627  11.873
94280W        W60821  11.044  19.954   4.236
94281W        W60822  14.215  17.632  10.971
94282W        W60823  20.091  29.179  11.094
94283W        W60824  25.670  18.245   2.735
94284W        W60825  26.124  13.537   4.086
94285W        W60826  27.890  15.032   4.541
94286W        W60827  30.094  38.271   2.842
94287W        W60828  28.592  20.532   1.405
94288W        W60829  18.153   0.801  10.439
94289W        W60830  11.607  44.685   9.855
94290W        W60831  18.779  21.677   1.806
94291W        W60832  16.086  29.597   2.842
94292W        W60833  22.729  43.554  11.600
94293W        W60834  11.171  40.118   0.840
94294W        W60835   0.321  38.910  11.904
94295W        W60836  42.396   1.287   3.403
94296W        W60837   3.815   8.424   0.406
94297W        W60838  11.206  42.718  12.747
94298W        W60839  10.602  33.813  12.604
94299W        W60840  15.762   6.331  14.249
94300W        W60841  34.799  22.429   3.706
94301W        W60842   9.853  26.574  13.983
94302W        W60843  36.513   1.717   0.543
94303W        W60844  18.518  27.242  12.907
94304W        W60845   3.116  29.478  11.187
94305W        W60846  41.879   2.784   4.336
94306W        W60847   9.219  21.685  12.129
94307W        W60848  14.592  36.787  11.467
94308W        W60849  26.677   1.364   0.593
94309W        W60850  43.018  40.501   0.944
94310W        W60851   8.299  14.863   4.414
94311W        W60852  13.874  40.619   2.247
94312W        W60853  43.362  29.966  13.351
94313W        W60854  44.374  34.061   3.233
94314W        W60855  19.782  17.345  13.141
94315W        W60856  38.366   9.392   3.985
94316W        W60857  15.984  37.901  12.876
94317W        W60858  32.421   4.447  11.893
94318W        W60859   3.199  35.897   4.192
94319W        W60860  27.961   3.022   0.246
94320W        W60861  38.347  18.640   0.323
94321W        W60862  16.594  20.579  12.599
94322W        W60863  12.711  39.565  13.855
94323W        W60864   7.891  32.578  10.404
94324W        W60865  27.477  21.713  12.038
94325W        W60866   9.587  10.910   4.257
94326W        W60867  16.101  26.773   0.357
94327W        W60868  21.483  16.273  10.430
94328W        W60869   9.810  18.737   1.434
94329W        W60870  33.592  40.012  12.590
94330W        W60871  36.935  19.570  14.309
94331W        W60872  25.210  22.093   0.852
94332W        W60873   6.460  32.632   2.443
94333W        W60874  40.453  26.961   0.356
94334W        W60875  34.201  38.121  14.350
94335W        W60876  40.213  22.417   3.167
94336W        W60877  31.461  11.123  10.188
94337W        W60878  19.685  23.762  12.889
94338W        W60879   4.937   5.506   2.185
94339W        W60880  12.163  26.428   2.175
94340W        W60881  18.666  10.146   4.623
94341W        W60882  14.520  32.946  11.623
94342W        W60883   8.932  11.938  13.404
94343W        W60884  10.369   8.445   3.235
94344W        W60885   6.144  14.142  13.203
94345W        W60886  27.562  11.054   2.446
94346W        W60887  15.699  24.762   4.061
94347W        W60888  44.014  39.567  13.144
94348W        W60889  40.052  26.262  12.103
94349W        W60890  40.949  17.686  14.306
94350W        W60891  36.487  35.712  11.029
94351W        W60892  27.021  40.465  13.512
94352W        W60893  36.885  16.871   1.110
94353W        W60894  13.021   8.700   2.456
94354W        W60895  43.775  40.401   0.504
94355W        W60896  30.746  26.007  14.731
94356W        W60897  18.645  25.069   0.841
94357W        W60898  26.646  27.334  12.010
94358W        W60899   7.663  27.664   2.724
94359W        W60900  11.833  35.484  11.575
94360W        W60901  24.770  21.291  10.692
94361W        W60902   4.869  13.056  11.972
94362W        W60903  41.023  28.417  14.879
94363W        W60904   6.609  35.952   1.263
94364W        W60905  41.251  28.607   1.855
94365W        W60906  28.133  13.270   1.877
94366W        W60907  33.406  16.486  13.347
94367W        W60908  36.879  31.083  14.770
94368W        W60909  28.626  34.613   4.338
94369W        W60910  22.770   0.393  13.989
94370W        W60911  36.343   7.167   4.873
94371W        W60912  41.950  44.256  14.773
94372W        W60913  43.248  17.837  12.951
94373W        W60914  17.057  12.144  12.560
94374W        W60915   5.073   8.296  11.513
94375W        W60916  11.010   6.382   4.651
94376W        W60917  29.466  28.648  13.513
94377W        W60918  42.402  18.328   1.247
94378W        W60919  37.477  12.682  10.245
94379W        W60920  31.152  24.779   3.941
94380W        W60921   8.231  27.700   4.152
94381W        W60922  18.314  32.137  13.806
94382W        W60923  13.551  24.992  13.263
94383W        W60924  25.020   1.689  12.654
94384W        W60925  11.222  36.507  10.924
94385W        W60926   2.327  13.492   3.248
94386W        W60927   2.166   6.602  14.992
94387W        W60928   6.824  27.628  13.284
94388W        W60929  31.715  42.980  14.348
94389W        W60930  20.719  38.377  10.650
94390W        W60931  22.606   7.958  11.202
94391W        W60932  13.672  10.694   3.233
94392W        W60933  14.575  18.932  12.448
94393W        W60934  21.472  16.782   0.772
94394W        W60935  40.410   1.780  10.231
94395W        W60936   6.237   9.832  10.493
94396W        W60937  40.848   1.450  12.634
94397W        W60938  33.196  27.221  12.655
94398W        W60939  27.571  12.070  13.362
94399W        W60940  27.600  25.813   2.371
94400W        W60941  42.378  25.484  13.918
94401W        W60942  19.259  42.477   4.368
94402W        W60943  30.447  28.391  12.020
94403W        W60944  28.615  26.300  11.992
94404W        W60945   4.148  13.803   3.726
94405W        W60946  11.297  29.638  14.144
94406W        W60947  33.562  14.327  14.261
94407W        W60948  17.924   8.611  11.755
94408W        W60949  42.645  31.388   1.435
94409W        W60950  41.059  12.065   2.882
94410W        W60951   0.682  30.143  14.285
94411W        W60952   7.466  16.901   4.227
94412W        W60953  41.539  13.328  14.871
94413W        W60954  16.164  27.074  12.108
94414W        W60955  18.699  30.264   2.887
94415W        W60956  28.527  31.550   1.992
94416W        W60957  34.333  40.469  12.122
94417W        W60958  20.218  15.165  12.270
94418W        W60959  18.069  22.088   3.343
94419W        W60960  14.671  19.951  12.392
94420W        W60961  29.041   5.919   1.813
94421W        W60962  10.256  22.599  14.977
94422W        W60963   2.912  11.621   0.742
94423W        W60964  16.164  10.471   2.960
94424W        W60965  15.099   6.782   1.968
94425W        W60966   5.765  32.949   4.658
94426W        W60967  37.168  20.068  14.339
94427W        W60968   4.203  22.799  14.979
94428W        W60969  26.387  30.428  14.397
94429W        W60970  39.773  28.140  12.406
94430W        W60971   6.952   2.462   1.772
94431W        W60972  34.647  39.851   3.117
94432W        W60973  12.467  36.561   4.962
94433W        W60974  37.527  16.607   0.846
94434W        W60975   4.881  15.238   3.493
94435W        W60976  34.443  36.055  13.780
94436W        W60977  10.277   9.529  13.449
94437W        W60978  29.631  34.072  14.398
94438W        W60979  27.716   1.012   4.810
94439W        W60980  44.419  26.934   0.575
94440W        W60981  16.807  17.115  11.856
94441W        W60982  43.762  44.459   4.722
94442W        W60983   0.708  42.371   0.278
94443W        W60984  33.891  44.770   3.117
94444W        W60985   9.961  14.247  14.742
94445W        W60986  41.292  14.664  14.965
94446W        W60987  37.846  12.372  10.989
94447W        W60988  13.634  11.477   1.840
94448W        W60989  15.039   8.829   4.390
94449W        W60990   6.690  16.274  10.803
94450W        W60991  41.733  43.337  10.517
94451W        W60992  29.721  31.494   2.885
94452W        W60993  24.500  22.748  14.306
94453W        W60994  38.983  28.380  11.952
94454W        W60995  35.694   2.653  12.061
94455W        W60996  11.724  22.684  13.146
94456W        W60997  13.777  19.273  11.113
94457W        W60998  16.695   2.856   1.697
94458W        W60999  27.942  40.071   1.259
94459W        W61000  13.637  27.754   0.035
94460W        W61001   8.118  29.044   0.448
94461W        W61002  24.662   9.656  14.858
94462W        W61003  22.035  34.204  12.912
94463W        W61004   4.432   4.736   2.244
94464W        W61005  10.910  20.773  14.525
94465W        W61006  28.122  31.516  10.653
94466W        W61007  44.986  19.320   3.709
94467W        W61008  23.679  42.526   4.146
94468W        W61009  34.812  12.115   1.301
94469W        W61010  10.754  16.820  11.004
94470W        W61011  32.448  37.393  12.806
94471W        W61012  15.582  18.555  12.958
94472W        W61013  31.682  33.842  14.671
94473W        W61014  21.863  29.956  11.999
94474W        W61015  43.960  34.606   4.661
94475W        W61016  21.079   8.177   1.782
94476W        W61017  39.019  39.118   2.181
94477W        W61018  23.710  41.759  12.010
94478W        W61019  19.543  12.772   5.742
94479W        W61020  35.071  17.462   0.861
94480W        W61021  27.518  17.029   1.331
94481W        W61022  35.807  21.820  13.078
94482W        W61023   9.276  13.543   0.568
94483W        W61024   6.783  43.377  14.301
94484W        W61025   8.930  41.483  10.277
94485W        W61026   4.962   6.415  13.453
94486W        W61027   5.302   1.924  11.876
94487W        W61028   9.792  15.524  11.021
94488W        W61029  38.069  24.376  12.967
94489W        W61030  25.232  40.851   3.322
94490W        W61031  19.788   0.929   4.856
94491W        W61032   3.284  34.588   4.789
94492W        W61033  24.516   3.074  12.049
94493W        W61034  30.552  26.989  12.908
94494W        W61035   9.280  23.434   2.312
94495W        W61036   5.269  14.119  12.089
94496W        W61037  37.199  44.836  12.994
94497W        W61038   5.600  18.296  14.983
94498W        W61039   6.456  18.198  13.769
94499W        W61040   9.389  39.641  14.786
94500W        W61041  15.251   3.767  12.376
94501W        W61042  33.642  24.372   3.635
94502W        W61043   4.372  35.380  11.925
94503W        W61044   9.894  40.556   1.494
94504W        W61045  43.493   8.640   2.092
94505W        W61046  18.279  26.148   1.355
94506W        W61047  27.434  41.369  14.004
94507W        W61048  22.104  13.740  10.546
94508W        W61049  31.368   6.502   2.160
94509W        W61050  26.101  18.318  11.523
94510W        W61051   9.593  22.044  12.162
94511W        W61052  44.944  30.192  12.140
94512W        W61053  19.300  16.880   9.840
94513W        W61054  32.666  30.172  10.676
94514W        W61055  27.160  19.230  11.499
94515W        W61056   3.887  41.457  12.511
94516W        W61057   0.861  43.989  12.475
94517W        W61058  10.058  33.609  13.319
94518W        W61059  21.313  42.240   3.831
94519W        W61060  42.000  42.013   1.797
94520W        W61061  25.198  34.934  10.529
94521W        W61062  17.373  30.912   3.737
94522W        W61063  27.049  20.619  11.434
94523W        W61064   3.967   0.882   5.559
94524W        W61065  28.859   1.329   3.877
94525W        W61066  16.769  44.299   2.849
94526W        W61067  10.661  25.178   2.682
94527W        W61068  25.175  17.144  12.859
94528W        W61069  17.066  10.011   4.306
94529W        W61070   0.009  26.779  10.824
94530W        W61071   4.457   6.499   3.732
94531W        W61072   9.614  31.501   3.357
94532W        W61073  20.593  40.461   1.500
94533W        W61074  37.349  12.585   2.348
94534W        W61075  36.521  30.930   4.542
94535W        W61076  35.099   9.692   1.406
94536W        W61077  29.429  37.412  12.124
94537W        W61078  21.103  31.133  12.731
94538W        W61079   7.221   5.329   0.045
94539W        W61080  41.749   5.255  12.097
94540W        W61081  19.980  25.878  14.352
94541W        W61082  20.866  32.430   1.177
94542W        W61083  36.902  34.006   4.432
94543W        W61084   8.682   7.338   3.589
94544W        W61085  30.650  27.493   3.152
94545W        W61086  31.138  11.075   3.127
94546W        W61087  39.353  29.167  13.459
94547W        W61088   6.724  34.467  12.843
94548W        W61089   3.389  15.232   3.980
94549W        W61090   2.868  17.018   2.965
94550W        W61091  35.895  24.487   3.475
94551W        W61092   1.019   8.257   1.404
94552W        W61093  29.822  16.993  14.332
94553W        W61094  32.468  35.635  13.958
94554W        W61095   3.863  39.083   1.681
94555W        W61096   5.681  23.102   2.222
94556W        W61097  31.254   8.798  11.904
94557W        W61098  22.625  33.793  14.517
94558W        W61099  22.115  44.170  10.992
94559W        W61100   0.030  23.158  11.613
94560W        W61101  21.589  11.002   1.745
94561W        W61102  13.854  10.643  13.858
94562W        W61103  36.071  11.197  14.045
94563W        W61104   0.958  29.460  12.500
94564W        W61105   9.659  21.295   2.255
94565W        W61106  26.006  25.037  14.648
94566W        W61107  40.278   2.243   2.016
94567W        W61108   9.843  23.949  12.831
94568W        W61109  16.775  30.265  10.713
94569W        W61110  42.422   5.760   0.931
94570W        W61111   3.696   1.837  13.953
94571W        W61112  39.019   0.470   3.218
94572W        W61113  25.657  27.881  11.575
94573W        W61114  26.820  30.984  10.838
94574W        W61115  17.819  32.110  10.703
94575W        W61116  11.354  19.657   2.133
94576W        W61117   4.362  17.495   1.422
94577W        W61118  12.553  28.036   3.647
94578W        W61119  26.110  29.189   4.790
94579W        W61120   2.238  15.027  13.957
94580W        W61121  38.285   4.818  14.393
94581W        W61122  37.298  32.688   1.205
94582W        W61123  21.307  18.156  13.528
94583W        W61124  20.244  30.975  12.116
94584W        W61125   9.140   0.108  12.628
94585W        W61126  31.249  21.698   4.122
94586W        W61127  27.489   8.420   0.396
94587W        W61128   6.869  10.989   3.316
94588W        W61129   1.812  40.484   4.985
94589W        W61130   4.166  35.466  14.366
94590W        W61131   9.912  23.962   2.280
94591W        W61132   9.292  25.097  10.719
94592W        W61133  34.794  39.050   4.502
94593W        W61134  40.791  10.261  14.563
94594W        W61135  43.965  40.559  11.088
94595W        W61136  20.801   1.009   2.283
94596W        W61137  30.875  30.952   2.703
94597W        W61138   5.118  22.166   5.128
94598W        W61139  17.815   2.852  12.557
94599W        W61140   5.654  31.638  11.105
94600W        W61141  33.691  10.847   4.244
94601W        W61142  39.505  12.001   4.144
94602W        W61143  36.542  44.235  14.968
94603W        W61144  40.570  12.911  13.933
94604W        W61145  36.378  35.800   4.608
94605W        W61146  18.564   2.809  11.394
94606W        W61147  39.773  35.979   4.200
94607W        W61148   1.716   1.884  14.943
94608W        W61149  25.736   5.007  10.330
94609W        W61150  11.399  20.256  12.475
94610W        W61151  43.034  40.625   2.712
94611W        W61152   7.265  15.270   3.878
94612W        W61153  29.870  40.343  12.418
94613W        W61154   1.611  32.290  12.997
94614W        W61155  29.553  36.345   0.486
94615W        W61156  23.105  18.283   0.496
94616W        W61157  31.710  16.087  11.963
94617W        W61158   8.260  22.961   3.882
94618W        W61159  43.462   5.653  14.800
94619W        W61160  17.099   8.799   0.251
94620W        W61161  33.977   0.173   5.064
94621W        W61162  36.013  24.006   0.328
94622W        W61163  36.149  25.259  11.046
94623W        W61164  36.579  38.822  13.348
94624W        W61165  37.822  12.644   4.093
94625W        W61166  32.140  28.020  11.542
94626W        W61167  15.710  28.514   4.532
94627W        W61168  19.754  35.509   4.263
94628W        W61169  11.437   7.287   3.727
94629W        W61170  14.729  15.391   0.253
94630W        W61171  18.026  33.431  13.157
94631W        W61172   2.741  14.589   3.793
94632W        W61173  25.600  26.280  10.048
94633W        W61174  25.229  11.213   9.915
94634W        W61175   5.162  33.545   3.642
94635W        W61176  39.915   4.205   4.632
94636W        W61177  18.847   7.839  12.360
94637W        W61178  29.401  14.303  12.418
94638W        W61179   6.159  12.048   0.291
94639W        W61180  39.905  23.886  10.523
94640W        W61181  18.600  33.017  14.213
94641W        W61182   7.333  31.090  10.725
94642W        W61183  17.371  40.201   1.520
94643W        W61184  26.796   4.206   4.200
94644W        W61185  27.449  39.754   3.705
94645W        W61186  17.695  41.105   1.238
94646W        W61187  11.989  13.442  14.213
94647W        W61188  10.340  42.512  11.491
94648W        W61189  19.473  10.293  11.632
94649W        W61190   3.282  35.312  14.033
94650W        W61191  26.178   8.414  12.591
94651W        W61192   6.879  15.093  11.484
94652W        W61193  19.797  40.836   0.227
94653W        W61194  25.163  44.494   0.206
94654W        W61195  39.211  29.470   1.596
94655W        W61196  15.656  13.744  10.301
94656W        W61197  32.700   8.982  13.928
94657W        W61198   0.497  17.541  14.097
94658W        W61199  13.474  26.980  13.386
94659W        W61200  33.732  39.410  11.037
94660W        W61201  31.237   8.886   5.009
94661W        W61202  17.144  33.307   2.861
94662W        W61203  27.046  18.761  13.770
94663W        W61204  13.774  11.706   4.591
94664W        W61205  41.941  30.547  12.834
94665W        W61206  42.563  23.565   4.667
94666W        W61207  35.499  31.642   3.327
94667W        W61208  44.329   8.602   1.661
94668W        W61209  36.032  32.814   3.744
94669W        W61210  33.941  19.043   3.391
94670W        W61211  39.321  17.494  11.447
94671W        W61212   2.459  19.887   1.978
94672W        W61213  40.513  14.939   4.879
94673W        W61214  43.146  30.088   1.305
94674W        W61215   7.792  15.053   3.926
94675W        W61216  39.648   1.670   2.766
94676W        W61217  40.302   6.012   2.796
94677W        W61218  35.631  31.430  12.459
94678W        W61219  20.674  42.014   1.177
94679W        W61220  23.544  36.955  13.826
94680W        W61221  22.864  13.559   3.974
94681W        W61222   4.850   6.627  14.431
94682W        W61223  28.944  20.307  10.866
94683W        W61224  16.195   0.449   3.596
94684W        W61225   5.735  25.999  13.597
94685W        W61226  35.119  25.753   3.182
94686W        W61227  44.446  18.665   3.414
94687W        W61228   9.513  19.747  10.160
94688W        W61229  12.348  37.067  12.575
94689W        W61230  25.460  42.961  10.301
94690W        W61231  14.405  38.855  13.912
94691W        W61232  33.682  30.191   0.266
94692W        W61233   5.407  12.319   3.276
94693W        W61234  20.250  36.300   3.715
94694W        W61235  17.599  21.155   1.766
94695W        W61236  10.896  19.810   3.756
94696W        W61237  34.966  27.192  13.331
94697W        W61238   5.175   0.493   4.139
94698W        W61239  40.277   8.308  11.793
94699W        W61240  28.421  36.669  12.616
94700W        W61241   2.905  35.345  10.637
94701W        W61242   2.436  28.588  12.654
94702W        W61243  13.609  37.382   4.489
94703W        W61244   2.849  20.538  13.539
94704W        W61245  10.133   2.328  14.785
94705W        W61246  15.076  16.272  14.492
94706W        W61247  24.731   4.378  14.827
94707W        W61248  12.331  31.001  13.924
94708W        W61249  36.418   6.200   0.970
94709W        W61250   3.837  31.462   2.326
94710W        W61251   7.309  32.620  12.586
94711W        W61252   6.455  44.214  11.549
94712W        W61253  30.332  40.545  12.524
94713W        W61254  30.911  44.070  13.024
94714W        W61255  20.082  12.234  12.380
94715W        W61256  41.538  33.148   2.151
94716W        W61257  40.315  22.019  14.468
94717W        W61258  31.641  26.940   2.221
94718W        W61259   8.232  40.316  13.069
94719W        W61260  31.477  31.361  11.329
94720W        W61261  10.329   9.203  14.820
94721W        W61262  31.660  20.555   1.290
94722W        W61263  43.263  26.092  14.890
94723W        W61264  23.888   2.096   2.728
94724W        W61265  35.405  36.797  12.647
94725W        W61266  38.362  40.266  12.469
94726W        W61267  11.030  35.788   0.950
94727W        W61268  39.557  10.212   2.763
94728W        W61269   2.843  36.802   0.459
94729W        W61270  15.761  26.372   1.821
94730W        W61271  23.190  22.969   1.389
94731W        W61272  39.353   8.312   2.847
94732W        W61273  12.467  31.492   1.061
94733W        W61274   2.640   7.246  14.078
94734W        W61275  25.022  31.500   2.289
94735W        W61276  24.974  39.404   4.244
94736W        W61277  17.283  42.455   4.106
94737W        W61278  12.855   9.806  13.791
94738W        W61279   6.428   8.858  14.931
94739W        W61280  11.953  44.417  11.815
94740W        W61281  31.529   0.370   1.336
94741W        W61282  25.520  40.252  11.222
94742W        W61283  41.854  43.499  14.377
94743W        W61284  13.558   5.460   1.343
94744W        W61285  19.114  24.059   3.173
94745W        W61286  13.127   8.844  11.995
94746W        W61287  19.710  24.844   3.144
94747W        W61288  17.131  21.124   4.612
94748W        W61289  39.412  32.496  11.930
94749W        W61290  38.026   5.237   1.343
94750W        W61291  13.712  39.412   2.599
94751W        W61292  43.685  19.301  11.896
94752W        W61293  23.602  41.608  10.677
94753W        W61294  13.185  17.099   1.319
94754W        W61295  44.327  29.350   4.806
94755W        W61296  28.084  27.109  12.585
94756W        W61297   8.389  26.720  11.529
94757W        W61298   9.709  41.756   2.414
94758W        W61299  26.773  29.717   1.390
94759W        W61300  39.533  14.248  11.707
94760W        W61301  44.936  19.680   3.313
94761W        W61302  25.711  11.229  10.975
94762W        W61303  21.581  34.888   2.673
94763W        W61304  38.846   3.781   4.030
94764W        W61305  40.229  17.634  11.172
94765W        W61306  27.928  33.900  11.511
94766W        W61307   3.391  18.280   2.849
94767W        W61308  17.395  19.619   1.178
94768W        W61309  40.902  40.499  14.830
94769W        W61310  44.139  17.169  12.006
94770W        W61311  10.161  11.159  10.610
94771W        W61312  13.647   2.510   4.127
94772W        W61313   5.818  37.331   2.643
94773W        W61314  29.466  35.489   3.516
94774W        W61315  36.954  24.548   1.463
94775W        W61316  13.843  28.681   1.453
94776W        W61317  10.253   1.324   1.404
94777W        W61318  44.222  42.369   2.382
94778W        W61319  26.257  12.177  12.926
94779W        W61320  37.059   6.438  14.947
94780W        W61321   1.459  44.988  11.613
94781W        W61322  39.272  38.451   0.870
94782W        W61323  30.552  35.214  13.391
94783W        W61324   3.373  31.879  12.592
94784W        W61325  44.022  40.705   1.677
94785W        W61326   8.159   2.801   1.222
94786W        W61327  25.281  15.045   0.320
94787W        W61328  43.922  21.232   0.749
94788W        W61329  15.032  36.072  12.632
94789W        W61330  31.534  11.123   3.749
94790W        W61331  12.621  39.878   0.472
94791W        W61332  22.072  43.285  12.599
94792W        W61333  15.386  28.623   4.103
94793W        W61334  17.618  16.253  11.170
94794W        W61335  17.630  21.543  12.291
94795W        W61336  16.984  37.599   3.385
94796W        W61337   3.488  16.759  14.973
94797W        W61338  23.568  41.252   0.030
94798W        W61339  24.837  22.528   4.542
94799W        W61340  16.674  38.885  13.383
94800W        W61341  24.163  14.202   2.223
94801W        W61342   7.839  43.794  10.698
94802W        W61343  31.328   2.662   0.006
94803W        W61344   3.249   4.733   1.476
94804W        W61345  14.614  31.936   2.283
94805W        W61346  44.259   8.950  11.190
94806W        W61347  27.152  33.824   1.279
94807W        W61348  36.829  16.651  13.036
94808W        W61349  11.452   7.345  12.881
94809W        W61350  22.616  23.718   3.355
94810W        W61351  33.015  17.805   2.621
94811W        W61352  17.610  31.355   3.691
94812W        W61353  25.366  37.010  14.889
94813W        W61354  21.985  38.347   1.425
94814W        W61355  31.669  42.626   3.748
94815W        W61356  34.954  25.116  11.586
94816W        W61357  33.954   3.765  12.571
94817W        W61358  31.391  24.197   0.910
94818W        W61359  21.573  24.969   4.367
94819W        W61360  14.156  13.385   0.808
94820W        W61361  40.826   6.768   0.425
94821W        W61362   5.672   1.503  13.103
94822W        W61363  35.796  38.828  12.767
94823W        W61364  17.752  33.087   0.268
94824W        W61365  39.400  35.907  11.041
94825W        W61366  19.802  42.521   2.951
94826W        W61367  42.051  41.450  12.058
94827W        W61368  15.071  19.179  13.191
94828W        W61369  39.540  17.646  13.823
94829W        W61370  40.138   2.866  11.080
94830W        W61371   2.873   4.924  11.113
94831W        W61372  28.253  11.710  14.496
94832W        W61373  29.586  31.725   2.417
94833W        W61374  21.410   5.362   2.731
94834W        W61375  16.237  19.035   2.809
94835W        W61376   2.993  17.978  13.435
94836W        W61377  44.013  36.532   1.015
94837W        W61378  41.344  10.941   2.635
94838W        W61379  21.170  34.390   2.359
94839W        W61380  42.468  15.964  10.720
94840W        W61381  43.494  39.346   3.389
94841W        W61382  10.019  23.112   3.373
94842W        W61383  16.254  35.069  12.599
94843W        W61384  37.396  25.533   0.311
94844W        W61385  36.270  30.399  13.964
94845W        W61386  43.378   2.021   0.270
94846W        W61387  35.568  35.245  14.541
94847W        W61388  14.296  36.367  10.957
94848W        W61389  29.596  32.029  11.283
94849W        W61390  22.642   2.135   2.818
94850W        W61391  29.867   4.276   4.203
94851W        W61392  39.302  30.951  14.472
94852W        W61393   0.448  39.744   2.224
94853W        W61394  23.437  22.507   0.483
94854W        W61395   5.975  40.295  13.496
94855W        W61396   8.130  12.073  13.657
94856W        W61397  31.445  15.576  11.887
94857W        W61398  19.563  30.931   0.332
94858W        W61399  32.970  41.388  10.696
94859W        W61400  36.561  23.179   2.224
94860W        W61401  35.993  33.541  12.589
94861W        W61402  38.832  17.935  10.819
94862W        W61403  14.661   4.227  10.690
94863W        W61404   8.617  31.162  13.149
94864W        W61405  29.633  16.210   0.389
94865W        W61406  26.040   9.300   0.850
94866W        W61407  38.797   6.642  11.615
94867W        W61408  34.186  36.372  11.183
94868W        W61409  18.302  23.806  11.163
94869W        W61410  43.946  15.794   9.917
94870W        W61411   7.809  36.995  11.878
94871W        W61412  39.137   1.718   2.741
94872W        W61413  41.832   9.812  11.699
94873W        W61414  43.797   2.961   0.164
94874W        W61415  20.702  27.484   1.866
94875W        W61416  18.577  24.578   3.574
94876W        W61417  16.111  17.783  13.480
94877W        W61418  38.285  21.763   3.595
94878W        W61419  20.542  16.860  13.777
94879W        W61420  14.806   3.676  13.216
94880W        W61421  27.371  31.967  10.776
94881W        W61422  19.664  10.613   0.030
94882W        W61423  19.409  20.989  11.528
94883W        W61424   9.695  21.559  12.637
94884W        W61425  39.520  35.371   1.350
94885W        W61426  12.397   6.468   3.363
94886W        W61427   9.415  15.867  12.143
94887W        W61428  29.235  26.267   5.255
94888W        W61429  34.660  27.711   4.575
94889W        W61430  43.977  13.777  11.345
94890W        W61431  14.635   8.237  14.573
94891W        W61432   2.689  29.085  14.046
94892W        W61433  43.488  13.839   1.148
94893W        W61434   1.370   7.892   1.263
94894W        W61435  30.171  31.611  11.839
94895W        W61436  20.796   6.202   3.242
94896W        W61437  23.920  16.762   3.004
94897W        W61438   5.781  25.544  14.964
94898W        W61439  19.084  30.422  12.403
94899W        W61440  38.032  42.083   4.588
94900W        W61441  40.515  43.510   2.233
94901W        W61442  34.225   1.884   2.401
94902W        W61443  36.292  21.087   1.440
94903W        W61444  41.807  32.817  13.393
94904W        W61445  27.485  10.840  11.207
94905W        W61446  15.132  24.888   4.785
94906W        W61447  44.485  29.129   0.301
94907W        W61448  24.027  31.161  11.183
94908W        W61449  40.101  22.259   2.668
94909W        W61450  37.788  15.603  14.593
94910W        W61451  27.892   4.323  10.485
94911W        W61452  14.689  25.213  11.345
94912W        W61453  15.429  27.926  11.134
94913W        W61454   6.624  30.010   2.357
94914W        W61455   4.360  27.384   0.512
94915W        W61456  16.598   7.781   1.822
94916W        W61457  32.194  32.823  14.517
94917W        W61458  17.896   8.899  12.561
94918W        W61459  16.199  31.799  10.246
94919W        W61460  43.822   7.493   4.427
94920W        W61461  19.453  42.056  11.980
94921W        W61462  28.974  41.348  13.993
94922W        W61463  12.240  35.368   1.754
94923W        W61464  14.258  12.158  13.300
94924W        W61465   2.923  42.260  12.386
94925W        W61466  42.886   2.957  13.104
94926W        W61467   9.448  12.195  14.372
94927W        W61468  42.673   1.281  10.710
94928W        W61469   5.791  16.978   2.430
94929W        W61470  33.895   7.224   2.727
94930W        W61471  38.572   7.868  12.516
94931W        W61472  12.691  30.664  11.556
94932W        W61473   6.963  42.465   1.446
94933W        W61474  21.729  32.497  12.498
94934W        W61475  44.531   4.176  11.603
94935W        W61476   2.475  20.521   0.385
94936W        W61477   9.245  31.551   0.318
94937W        W61478   6.313  31.597   4.854
94938W        W61479  14.617  22.335   1.738
94939W        W61480  40.200  25.511   0.149
94940W        W61481  17.249  11.516  13.530
94941W        W61482  13.402   9.858  13.588
94942W        W61483  34.978  42.685   4.156
94943W        W61484  36.477   3.348  12.924
94944W        W61485  21.149  38.018   3.387
94945W        W61486   5.866   4.306   4.373
94946W        W61487  26.969  29.922  13.956
94947W        W61488   2.877   7.162   3.359
94948W        W61489  28.249  27.287   3.077
94949W        W61490  27.092   3.327   0.768
94950W        W61491  30.369   6.416   1.780
94951W        W61492  18.259  36.295   1.785
94952W        W61493   0.423   3.463  12.060
94953W        W61494  39.082  32.025   0.237
94954W        W61495   1.207  11.116  14.436
94955W        W61496  19.205  31.050  14.982
94956W        W61497  42.310   6.295  13.005
94957W        W61498   8.720  12.167  11.657
94958W        W61499  15.195  12.738  13.753
94959W        W61500  43.329  22.569   2.867
94960W        W61501  11.824   8.987   0.805
94961W        W61502  25.581  36.456  12.963
94962W        W61503  16.364  29.211  14.552
94963W        W61504   1.299  29.665   1.321
94964W        W61505  44.835  12.987   0.355
94965W        W61506   3.887  36.103  12.982
94966W        W61507  10.848  39.394  11.112
94967W        W61508  10.394  42.264  13.224
94968W        W61509  43.756  23.075  13.479
94969W        W61510  21.248  26.399   2.149
94970W        W61511   5.710  26.323   0.328
94971W        W61512  23.044   8.741  10.974
94972W        W61513   9.196  23.356   3.576
94973W        W61514  18.182  15.633  13.466
94974W        W61515  41.563  34.368  14.450
94975W        W61516   7.804  37.731   3.612
94976W        W61517  23.672  39.826   1.313
94977W        W61518  15.851  41.831  10.720
94978W        W61519  30.916  29.426   1.706
94979W        W61520  39.909  39.623   1.160
94980W        W61521  13.232  44.057   0.697
94981W        W61522  32.809  42.035   4.256
94982W        W61523  34.406  27.931  14.928
94983W        W61524  14.115  39.343   2.951
94984W        W61525  15.616   4.098  14.035
94985W        W61526  28.297   8.786  10.772
94986W        W61527  11.563  10.695  12.288
94987W        W61528  42.928   4.423  13.040
94988W        W61529  18.400  10.278  10.294
94989W        W61530  28.635  22.250   1.912
94990W        W61531  24.668   9.885   0.333
94991W        W61532  13.427  16.641  11.120
94992W        W61533  38.233  15.654  14.898
94993W        W61534  26.123  36.644   0.452
94994W        W61535  36.435  30.842   3.068
94995W        W61536   8.614  10.652   3.816
94996W        W61537  43.857  41.231   1.750
94997W        W61538  18.851  38.400  13.391
94998W        W61539  15.521  41.763  11.549
94999W        W61540  27.021   9.669  12.307
95000W        W61541  16.675  16.386  14.929
95001W        W61542  43.802  39.653  14.107
95002W        W61543  10.293  42.009  11.537
95003W        W61544  24.003  16.163   3.679
95004W        W61545   8.417  40.847  12.539
95005W        W61546  24.170   8.337   0.753
95006W        W61547   7.946  28.162  12.037
95007W        W61548  28.937  42.545   0.336
95008W        W61549   7.392  18.737  14.015
95009W        W61550  42.909   7.225  13.263
95010W        W61551  30.718  40.330  13.446
95011W        W61552   8.382  42.484   0.212
95012W        W61553  41.993  39.365   4.066
95013W        W61554  29.859  17.111   1.272
95014W        W61555  37.582  24.831  14.672
95015W        W61556  38.303  24.672   1.300
95016W        W61557  13.811   8.015  12.895
95017W        W61558  26.211   2.499   2.713
95018W        W61559  13.119  29.837   1.732
95019W        W61560  41.563  17.654  11.401
95020W        W61561  37.452  35.547   1.845
95021W        W61562  14.234  25.195  12.636
95022W        W61563  28.671  25.591   1.925
95023W        W61564  31.448  36.937   2.294
95024W        W61565   2.674  25.708   3.902
95025W        W61566  10.645   1.269   1.051
95026W        W61567  21.675  42.788   0.237
95027W        W61568  38.572  23.301  14.986
95028W        W61569  31.920  22.990  12.806
95029W        W61570  23.040   7.972   2.451
95030W        W61571  19.184   2.779   1.418
95031W        W61572  18.679   1.846  13.891
95032W        W61573  44.441  27.213  12.001
95033W        W61574   8.693   6.684  12.039
95034W        W61575   5.323  43.243  12.033
95035W        W61576  29.688  34.148  13.391
95036W        W61577  24.376  32.117   0.431
95037W        W61578  44.813   3.365  11.104
95038W        W61579  22.619  25.174  13.031
95039W        W61580   9.349  24.991  12.642
95040W        W61581  16.820   3.471  12.810
95041W        W61582  28.725   2.741  13.157
95042W        W61583   1.209  40.224   2.271
95043W        W61584  28.534  24.601   4.405
95044W        W61585  44.735   5.929   2.830
95045W        W61586  39.851  41.977   2.230
95046W        W61587  35.694  40.286   4.888
95047W        W61588  19.202  35.165  12.840
95048W        W61589   7.585  32.940   4.397
95049W        W61590  40.302   4.716  11.145
95050W        W61591   8.685  30.132  14.553
95051W        W61592  18.532  43.533  11.246
95052W        W61593   7.763  15.629   0.094
95053W        W61594  42.249  31.337  11.189
95054W        W61595  37.854   8.756  11.542
95055W        W61596  14.854   0.862  13.849
95056W        W61597  38.414  11.628   2.473
95057W        W61598   8.206  10.763  10.708
95058W        W61599  15.979  34.844  10.197
95059W        W61600  39.783  43.804  13.494
95060W        W61601  38.745  26.670   1.720
95061W        W61602  14.234  14.755   4.046
95062W        W61603  13.728  29.229   4.397
95063W        W61604  31.146   6.425   1.337
95064W        W61605  42.929  34.978  14.969
95065W        W61606  22.377  34.136  14.817
95066W        W61607  10.859   4.334   1.695
95067W        W61608  32.050  12.371  14.497
95068W        W61609  33.211  30.140  11.972
95069W        W61610   4.483  41.934   1.935
95070W        W61611  36.902  10.175   2.677
95071W        W61612  35.009  35.351   4.203
95072W        W61613   7.327  40.765  14.062
95073W        W61614   9.065  18.828  12.039
95074W        W61615   1.733  44.747   4.243
95075W        W61616  28.975  35.394   3.942
95076W        W61617   0.518  39.059   3.498
95077W        W61618  41.827  11.151   1.163
95078W        W61619  24.978  44.715   1.489
95079W        W61620  10.644  13.592   0.963
95080W        W61621   6.687  15.996  13.339
95081W        W61622   7.915   7.894   1.519
95082W        W61623  37.094  36.087  14.313
95083W        W61624  19.582  35.549  14.999
95084W        W61625  13.604  40.626  13.769
95085W        W61626  12.166  28.486   1.111
95086W        W61627  20.724  27.497  11.416
95087W        W61628   6.850  34.507   1.563
95088W        W61629  31.305  16.192  13.533
95089W        W61630  41.717  16.964  14.459
95090W        W61631  31.477  24.281  11.737
95091W        W61632  16.610  23.165   0.873
95092W        W61633  29.862   0.835  12.950
95093W        W61634   7.830  13.715  10.993
95094W        W61635  31.050  23.477   1.652
95095W        W61636  14.362  34.446   2.755
95096W        W61637  33.406  32.511   2.361
95097W        W61638  40.477  14.359  14.020
95098W        W61639  10.501  16.208   2.252
95099W        W61640  26.669  10.143   2.230
95100W        W61641   6.463  27.544   1.851
95101W        W61642  38.985  14.359   2.820
95102W        W61643  19.773  22.157   1.176
95103W        W61644  21.314  25.725  13.461
95104W        W61645  26.583  12.298   1.155
95105W        W61646   0.002   8.255   0.232
95106W        W61647  17.228   8.768   3.714
95107W        W61648   9.393   6.109  14.466
95108W        W61649  17.272  18.996  13.909
95109W        W61650  23.618  19.351  14.397
95110W        W61651  43.945  30.444   0.493
95111W        W61652  41.297  42.836   2.722
95112W        W61653   1.748  30.072  14.247
95113W        W61654   6.544   5.122  11.831
95114W        W61655   5.488   2.329   3.712
95115W        W61656  33.692  17.838  11.637
95116W        W61657  17.288  34.494  14.821
95117W        W61658  42.575  40.782  13.352
95118W        W61659  34.566  18.772   0.669
95119W        W61660  26.072  25.052   0.421
95120W        W61661  40.511   3.203  14.857
95121W        W61662   1.900  36.582  13.502
95122W        W61663  37.021  44.443  14.097
95123W        W61664  18.752   8.328  12.473
95124W        W61665  31.943   0.194   1.938
95125W        W61666  16.677  40.307  13.515
95126W        W61667  12.526  10.521  12.494
95127W        W61668  34.075   7.676   2.887
95128W        W61669   0.033  37.362   1.306
95129W        W61670  29.679   0.308  11.565
95130W        W61671  22.803   3.284   2.206
95131W        W61672  43.867  17.174   2.296
95132W        W61673   6.662  35.819  11.088
95133W        W61674   0.943  15.664   4.480
95134W        W61675  42.579  10.188  13.879
95135W        W61676   5.695  39.237   4.778
95136W        W61677  37.302  30.143  10.799
95137W        W61678  29.940  23.473   4.118
95138W        W61679  31.680   1.843   2.742
95139W        W61680  23.114   2.873  11.421
95140W        W61681  22.719  12.635  12.966
95141W        W61682   0.941  17.517   0.731
95142W        W61683  22.020  24.701   3.665
95143W        W61684  35.048  32.740  12.498
95144W        W61685   3.494  37.567   3.519
95145W        W61686  36.874  19.863   3.848
95146W        W61687  36.539  42.450  13.890
95147W        W61688   9.120  11.362  12.957
95148W        W61689  24.216  37.558   0.270
95149W        W61690  20.085  32.948   4.093
95150W        W61691  42.313   3.362   4.215
95151W        W61692  31.024  14.293   3.924
95152W        W61693   1.872  43.393   4.779
95153W        W61694   6.248  35.087  13.587
95154W        W61695  19.729  36.143   1.487
95155W        W61696  28.846  27.703  12.000
95156W        W61697  12.679  19.731  13.805
95157W        W61698  15.073   7.383  10.772
95158W        W61699  36.542   6.448  12.442
95159W        W61700  17.706  22.659   0.326
95160W        W61701  37.390  16.211  11.186
95161W        W61702  33.103  28.151   4.407
95162W        W61703  22.957   1.227   3.865
95163W        W61704  39.945  42.742  10.483
95164W        W61705  23.639  24.108  10.711
95165W        W61706  25.241  14.707   1.855
95166W        W61707  11.327  37.010   4.200
95167W        W61708  35.924   0.174  12.371
95168W        W61709  38.163   0.894  12.969
95169W        W61710  28.676  33.422  12.448
95170W        W61711   8.758  32.691   4.097
95171W        W61712  26.351  39.458   0.747
95172W        W61713  34.734  31.949  10.815
95173W        W61714  32.584  39.441  13.606
95174W        W61715   7.462  21.871  12.839
95175W        W61716  36.939  20.450   0.954
95176W        W61717   9.702  28.596  13.334
95177W        W61718  34.687  15.796  11.112
95178W        W61719  32.357   1.243  13.594
95179W        W61720   2.682  38.889   4.154
95180W        W61721  23.116  11.872   4.532
95181W        W61722  41.080  44.402   3.624
95182W        W61723  21.084   1.095  13.281
95183W        W61724  19.180  16.846  12.858
95184W        W61725  20.754   3.430  13.587
95185W        W61726   3.247   6.480  10.219
95186W        W61727  15.803  32.577  12.078
95187W        W61728  43.885  24.819   2.418
95188W        W61729  41.492   1.480   2.360
95189W        W61730  32.702  32.884   1.748
95190W        W61731  28.010  43.842  14.789
95191W        W61732  12.830  37.208   1.924
95192W        W61733  31.203  32.048   0.290
95193W        W61734  14.924  11.458   1.782
95194W        W61735   7.956  34.437  12.157
95195W        W61736  17.536  31.528   0.264
95196W        W61737  31.855   0.778  12.971
95197W        W61738  25.909  27.504   4.258
95198W        W61739   1.897  21.025   1.457
95199W        W61740  16.976  13.538  10.136
95200W        W61741   7.266  36.015  14.431
95201W        W61742  12.817  17.308   4.127
95202W        W61743  32.487  36.711   2.722
95203W        W61744  29.936  27.605   4.511
95204W        W61745  13.616   4.730  10.283
95205W        W61746  41.011  38.069  12.029
95206W        W61747  33.314  31.549   2.925
95207W        W61748  38.297  30.436   4.681
95208W        W61749  18.572  10.050  12.904
95209W        W61750  44.545  36.503   1.012
95210W        W61751  25.126  23.322  12.999
95211W        W61752  20.527  44.929  10.743
95212W        W61753  18.593   6.448   0.887
95213W        W61754  17.112  13.176   0.319
95214W        W61755  12.173  14.352   0.341
95215W        W61756  36.842  43.781   2.834
95216W        W61757  23.623   4.282   2.266
95217W        W61758  30.767  15.816   9.914
95218W        W61759   0.382  34.666   1.288
95219W        W61760  38.021  36.430   5.100
95220W        W61761  35.057  11.581  12.485
95221W        W61762  26.158  21.152   0.787
95222W        W61763  28.125   2.359  14.032
95223W        W61764  33.364  25.890   4.535
95224W        W61765  24.608  12.613  14.472
95225W        W61766  14.372  19.261  12.107
95226W        W61767  25.034   9.949  14.661
95227W        W61768  35.495   8.292   1.954
95228W        W61769  15.081  24.577  11.585
95229W        W61770   2.004   9.250   0.336
95230W        W61771   8.593  34.655  12.956
95231W        W61772  14.568  29.361  14.581
95232W        W61773  28.475  26.936  13.983
95233W        W61774  25.256  39.890   2.539
95234W        W61775  20.746   4.530   1.441
95235W        W61776  19.661  42.093   4.774
95236W        W61777   1.245  20.556   0.025
95237W        W61778  44.724  41.808   1.721
95238W        W61779  37.877   2.544   1.880
95239W        W61780  40.650   7.863   2.777
95240W        W61781  21.485  36.895  12.333
95241W        W61782   0.158   7.627  14.311
95242W        W61783  15.778  44.768  10.696
95243W        W61784  23.307  39.863  12.987
95244W        W61785  37.650   4.937   2.354
95245W        W61786   5.349  20.688  14.615
95246W        W61787  39.461   0.800  11.341
95247W        W61788   7.349  36.318  12.093
95248W        W61789  11.433  35.513  11.881
95249W        W61790  21.122  29.982  14.834
95250W        W61791  39.557   0.945  12.773
95251W        W61792  17.850  12.682   2.511
95252W        W61793  28.003  17.816   3.122
95253W        W61794  21.571   6.699  14.336
95254W        W61795  14.701  41.022   0.384
95255W        W61796  43.824   3.469   0.025
95256W        W61797  26.197  23.694   2.202
95257W        W61798   6.041  19.102   0.283
95258W        W61799  20.301  10.409  10.746
95259W        W61800  17.468  42.278  14.344
95260W        W61801  11.138  28.554  13.380
95261W        W61802  14.663  15.896   0.391
95262W        W61803  28.329  44.463   2.977
95263W        W61804  44.986  19.201  14.797
95264W        W61805   6.761  32.565   1.034
95265W        W61806   6.738  24.634  13.791
95266W        W61807  23.138  32.648  14.844
95267W        W61808  38.605  13.037   2.738
95268W        W61809  22.767  37.423   0.290
95269W        W61810  39.317  42.610  12.502
95270W        W61811  30.835  16.380   2.850
95271W        W61812  29.111  24.668  14.163
95272W        W61813  32.978   2.457  14.989
95273W        W61814  31.180  25.781   5.036
95274W        W61815  19.225   5.934  12.070
95275W        W61816  14.264  20.316   3.930
95276W        W61817  13.273  44.313   2.420
95277W        W61818  16.412  43.761   4.930
95278W        W61819  44.973   9.208  12.145
95279W        W61820  17.818  29.684   3.858
95280W        W61821  24.857  38.937   3.963
95281W        W61822  33.498   5.352  11.542
95282W        W61823   5.188  12.468  14.404
95283W        W61824  37.377  42.571  11.117
95284W        W61825  23.143   1.936   4.172
95285W        W61826  17.825   5.952  12.498
95286W        W61827  13.743  11.185   3.343
95287W        W61828  32.958  10.652   0.953
95288W        W61829  12.769  31.482  12.602
95289W        W61830  16.004   5.863  14.084
95290W        W61831  35.714  17.695   2.307
95291W        W61832  35.615   7.426  13.601
95292W        W61833  36.306  32.963   1.328
95293W        W61834  44.297   7.857   3.834
95294W        W61835  36.797   1.651   1.395
95295W        W61836  43.872   6.061  12.642
95296W        W61837  42.740  32.801   9.994
95297W        W61838  10.883  10.360   4.125
95298W        W61839  40.337  23.368   1.328
95299W        W61840  22.067  31.389  11.154
95300W        W61841  24.139   1.175   2.938
95301W        W61842  43.699  19.774  12.160
95302W        W61843  34.060  21.755   0.849
95303W        W61844  17.706  21.200  14.906
95304W        W61845  40.284  33.660   1.874
95305W        W61846  29.457   5.674   3.193
95306W        W61847  39.292  31.360   2.582
95307W        W61848  41.854  31.573  12.919
95308W        W61849   7.701  21.640   1.426
95309W        W61850  44.969  33.024  11.114
95310W        W61851  16.276  33.091  10.672
95311W        W61852  37.555  30.353  12.873
95312W        W61853  17.726  20.049  10.701
95313W        W61854  12.730  41.446  14.285
95314W        W61855  28.686   6.246   0.001
95315W        W61856  29.861   5.853  10.466
95316W        W61857   5.362   7.479   3.895
95317W        W61858  24.463  40.416  11.796
95318W        W61859  12.275   2.286   4.047
95319W        W61860   8.198   4.399   0.507
95320W        W61861   2.681   9.431  12.142
95321W        W61862   2.857  43.590   9.424
95322W        W61863  29.923   2.218   3.751
95323W        W61864  43.990  10.706   3.458
95324W        W61865  10.904  27.049   0.806
95325W        W61866  35.433  41.434   1.634
95326W        W61867  17.779  10.573   1.888
95327W        W61868  31.024  27.392   2.789
95328W        W61869   6.642  44.374   2.780
95329W        W61870   1.443   1.846   0.375
95330W        W61871  18.187  43.182   4.285
95331W        W61872  43.585  37.361  12.235
95332W        W61873  32.603  41.257  12.897
95333W        W61874  11.389   0.359   1.749
95334W        W61875  34.462   1.453   4.588
95335W        W61876  24.099  37.483   1.212
95336W        W61877  31.202  22.125   1.903
95337W        W61878  12.836  43.033  14.332
95338W        W61879   3.995  44.485   1.752
95339W        W61880  14.964  33.997   1.791
95340W        W61881   7.782   2.857  12.218
95341W        W61882  40.079   3.349   4.586
95342W        W61883  19.177  36.345  11.524
95343W        W61884  12.216  23.214   3.636
95344W        W61885  16.817  16.152   1.804
95345W        W61886   0.499  17.723  13.587
95346W        W61887  37.790  18.578   2.795
95347W        W61888  10.288  37.259   1.180
95348W        W61889  30.091   5.441  14.073
95349W        W61890  21.629  21.564  14.889
95350W        W61891  32.903   0.028  12.831
95351W        W61892  15.596  33.931   3.692
95352W        W61893   3.191  35.416   5.001
95353W        W61894  30.165   5.703   3.933
95354W        W61895  10.467  23.508  14.848
95355W        W61896  43.018   6.181  12.343
95356W        W61897  21.612  30.645  12.745
95357W        W61898   4.757  27.420   1.403
95358W        W61899   7.882  39.793   1.769
95359W        W61900  14.795  40.859   2.758
95360W        W61901  17.610  29.985  14.959
95361W        W61902   4.325  38.834   1.673
95362W        W61903   4.126  40.383   1.235
95363W        W61904  31.043   6.553  14.961
95364W        W61905   8.099  38.584   1.346
95365W        W61906  22.236  29.737   2.736
95366W        W61907  24.191  14.157  13.521
95367W        W61908   3.037  38.832   1.076
95368W        W61909  42.762  11.269   0.277
95369W        W61910  40.988  21.747   0.455
95370W        W61911  41.629  15.616   2.790
95371W        W61912  26.023   0.513   3.157
95372W        W61913  12.835   5.991  14.829
95373W        W61914  29.931  37.500   0.781
95374W        W61915   2.033  34.285   9.766
95375W        W61916  36.013  11.287  13.541
95376W        W61917   9.241   3.079  11.128
95377W        W61918   0.968  32.602  13.122
95378W        W61919  38.386  33.711  12.373
95379W        W61920  38.571  43.890   2.230
95380W        W61921  10.434   8.903  12.011
95381W        W61922  31.560  40.212  14.830
95382W        W61923   9.751  11.747   4.121
95383W        W61924   2.578  42.946  10.524
95384W        W61925  32.389  27.274   1.820
95385W        W61926   1.008   2.453  14.045
95386W        W61927  32.713  29.257   1.257
95387W        W61928  19.910  30.349   1.694
95388W        W61929  31.611  27.631   0.246
95389W        W61930  17.273  33.450  13.910
95390W        W61931   2.602  38.927  12.094
95391W        W61932  11.871  38.042   2.303
95392W        W61933  32.473  38.149  11.635
95393W        W61934  13.850  31.365   1.295
95394W        W61935  42.494   3.295   1.881
95395W        W61936  10.213  12.571  14.522
95396W        W61937  29.903   3.190   1.033
95397W        W61938  24.461  13.592   3.923
95398W        W61939  16.872  31.086   2.321
95399W        W61940  13.224  35.888  12.182
95400W        W61941   5.365  23.741   0.868
95401W        W61942  14.915  43.475   0.728
95402W        W61943   6.448  26.288   2.860
95403W        W61944  23.920  10.246  11.652
95404W        W61945  18.031  34.410  13.396
95405W        W61946  35.506  10.675  11.160
95406W        W61947   7.691  23.976   1.890
95407W        W61948   7.925  18.538  11.407
95408W        W61949  43.445  28.898  12.500
95409W        W61950  44.839  33.085  12.021
95410W        W61951  39.827  22.308   4.129
95411W        W61952  11.911  10.703  11.029
95412W        W61953  44.551  16.122  12.954
95413W        W61954   7.724  43.289  10.728
95414W        W61955  12.244  43.455   3.223
95415W        W61956   5.756  18.670  13.464
95416W        W61957  38.802   3.416   1.790
95417W        W61958  11.861   6.214   3.264
95418W        W61959  12.339   9.661  13.869
95419W        W61960  39.562   3.627  10.698
95420W        W61961  41.451  15.275  11.379
95421W        W61962   9.825   6.302  14.253
95422W        W61963  27.879  25.028  13.911
95423W        W61964   8.428   9.794   2.722
95424W        W61965   2.781  13.267  12.119
95425W        W61966  18.104   6.745   1.970
95426W        W61967   5.820  14.378  12.314
95427W        W61968  24.344  39.832  10.575
95428W        W61969   6.093  40.757  13.191
95429W        W61970  34.345  20.757   0.840
95430W        W61971  25.781  32.318  14.070
95431W        W61972   3.936  23.161   3.685
95432W        W61973  35.434  17.581   3.701
95433W        W61974   3.408  13.841  10.562
95434W        W61975   6.385  41.477   0.205
95435W        W61976   5.478  16.963  12.693
95436W        W61977   0.715  25.981  13.841
95437W        W61978  10.325  21.384  10.118
95438W        W61979   7.138  36.613  13.846
95439W        W61980  29.500   0.043  13.135
95440W        W61981  12.896  12.361   2.187
95441W        W61982  28.692   2.282  11.760
95442W        W61983  11.217  26.353  14.937
95443W        W61984   0.622  32.995  12.563
95444W        W61985  32.456   5.787   4.662
95445W        W61986  35.286  35.588   3.820
95446W        W61987  17.010  29.523  11.131
95447W        W61988  33.552  38.317   0.711
95448W        W61989  40.767  33.527  11.717
95449W        W61990  31.945  15.479  10.212
95450W        W61991  28.674  10.467   1.100
95451W        W61992  18.263  31.199  11.220
95452W        W61993  12.234   7.191  12.551
95453W        W61994   2.676  19.846  11.098
95454W        W61995  28.907  34.567  11.994
95455W        W61996  14.632  15.160  10.572
95456W        W61997  28.163  18.839   4.228
95457W        W61998  33.218   0.627   0.235
95458W        W61999  12.349  42.522  11.623
95459W        W62000  13.329  12.887  13.686
95460W        W62001  13.565  30.376  10.658
95461W        W62002  17.052  42.817   0.019
95462W        W62003  44.745  14.873   1.081
95463W        W62004   1.367  32.357   3.716
95464W        W62005  13.423  10.483  13.061
95465W        W62006  33.159  28.436   2.221
95466W        W62007  13.376   0.357   4.285
95467W        W62008  14.836  22.017  11.510
95468W        W62009  21.712  23.533  14.301
95469W        W62010  15.712  26.503  12.898
95470W        W62011  28.799  14.591   0.820
95471W        W62012  37.052  39.318  10.744
95472W        W62013   1.288  10.829   4.592
95473W        W62014  27.364   1.988  12.873
95474W        W62015  41.440   4.699  13.868
95475W        W62016  40.007  19.059   0.389
95476W        W62017  23.909  34.115  14.874
95477W        W62018   6.643  12.269   3.730
95478W        W62019  15.617  29.727   0.376
95479W        W62020   1.212  33.005   3.431
95480W        W62021  17.667  25.463  12.452
95481W        W62022  14.548  38.766  11.480
95482W        W62023  42.945  30.445   4.124
95483W        W62024  24.526  34.897  14.977
95484W        W62025   4.468  32.273  10.129
95485W        W62026  17.371  16.656  11.784
95486W        W62027  44.364  40.528   2.429
95487W        W62028  33.087  18.668  11.570
95488W        W62029  29.122  30.422  13.380
95489W        W62030   5.037  25.961   3.842
95490W        W62031   6.468   5.883  13.445
95491W        W62032  37.605   7.332   3.209
95492W        W62033  41.505   5.546   1.162
95493W        W62034  15.595  40.324   3.563
95494W        W62035  26.569  11.404   2.475
95495W        W62036  31.946  25.120   2.460
95496W        W62037  42.085  33.041  10.743
95497W        W62038  29.679  35.661   0.986
95498W        W62039  41.088  24.518   3.009
95499W        W62040  32.373  14.747   0.251
95500W        W62041  29.617  41.111  11.091
95501W        W62042   8.735  26.990   3.641
95502W        W62043  23.970   4.897   0.895
95503W        W62044  29.122  33.015   0.982
95504W        W62045   9.666   0.851  10.712
95505W        W62046  32.008  21.513   4.612
95506W        W62047  41.533  44.032  12.603
95507W        W62048  15.171  29.890   4.615
95508W        W62049  32.082  40.352  12.011
95509W        W62050  42.440  18.951  11.002
95510W        W62051  41.531  43.046   1.337
95511W        W62052  36.836  12.718   2.294
95512W        W62053  42.837  35.440  13.128
95513W        W62054  34.567  22.242  13.748
95514W        W62055  10.243   4.926   0.321
95515W        W62056  34.063   7.467   2.309
95516W        W62057  32.276  34.608   2.292
95517W        W62058  26.582  42.614   4.107
95518W        W62059  40.770  10.737  11.488
95519W        W62060  23.784   1.787  12.112
95520W        W62061  31.916  42.477   1.497
95521W        W62062  40.009   7.831   1.893
95522W        W62063  17.723  37.817   3.362
95523W        W62064   2.686  33.352   1.496
95524W        W62065  30.856  37.990  13.077
95525W        W62066  11.714  40.552   3.649
95526W        W62067  18.265  28.050  14.867
95527W        W62068   7.381  35.710  10.504
95528W        W62069  13.955  29.469   5.152
95529W        W62070  39.971   7.672  14.436
95530W        W62071  35.787  43.610  10.776
95531W        W62072  10.955  11.207   3.764
95532W        W62073  42.907   8.245   2.664
95533W        W62074  39.374  38.906  10.783
95534W        W62075  33.906  26.494   2.105
95535W        W62076  30.036   2.721  10.610
95536W        W62077   1.229  44.351   3.188
95537W        W62078  27.315  43.010  11.742
95538W        W62079  20.990  43.052  14.985
95539W        W62080  19.841  18.447   0.498
95540W        W62081  21.537  12.735   0.788
95541W        W62082  16.701  13.633  14.797
95542W        W62083   6.595  13.141   3.515
95543W        W62084  33.052  11.596   1.939
95544W        W62085  15.202   0.994   3.423
95545W        W62086  29.953   2.929   2.553
95546W        W62087  44.211  32.040   0.507
95547W        W62088  15.637   2.790   2.467
95548W        W62089  41.934   9.577   3.260
95549W        W62090  19.515  13.405   4.594
95550W        W62091  20.770  36.826   4.096
95551W        W62092   2.853  18.471   4.629
95552W        W62093  10.891  12.126   2.173
95553W        W62094  39.935  30.240  11.908
95554W        W62095  12.156  23.736  13.595
95555W        W62096  43.685   8.238  11.131
95556W        W62097   8.788  29.730  10.618
95557W        W62098  11.226   3.660   4.150
95558W        W62099  15.644  11.876  13.599
95559W        W62100  15.688   8.447   0.867
95560W        W62101  24.803  17.647   1.789
95561W        W62102   6.796  10.760   1.466
95562W        W62103  30.469  11.322  11.128
95563W        W62104  31.578  18.615  10.836
95564W        W62105  42.131  25.173   2.005
95565W        W62106  42.090   8.433  13.360
95566W        W62107  26.753  41.314  14.566
95567W        W62108  42.906  25.697   3.190
95568W        W62109   7.183   2.805   3.819
95569W        W62110  38.617  41.932   3.053
95570W        W62111   8.684  17.279  10.773
95571W        W62112  30.841  20.676   0.599
95572W        W62113  18.298   8.950  14.918
95573W        W62114  30.553  27.686   2.650
95574W        W62115  23.468  38.157   2.914
95575W        W62116  41.536  40.971  12.911
95576W        W62117  14.213  39.004   4.725
95577W        W62118  17.888  18.729   2.211
95578W        W62119   7.522  10.392  14.043
95579W        W62120  39.518   4.737  13.753
95580W        W62121  31.920  30.590  12.198
95581W        W62122  31.384  25.932  12.030
95582W        W62123   9.239   4.864  14.352
95583W        W62124  39.012  43.270  11.489
95584W        W62125  29.973   9.428  11.998
95585W        W62126  38.593  36.344   4.810
95586W        W62127   0.939  16.642   4.604
95587W        W62128  23.203  29.083   3.849
95588W        W62129  31.036   0.376   3.125
95589W        W62130  28.012  12.325  13.306
95590W        W62131  31.068  17.532   1.599
95591W        W62132  40.914  24.609   3.495
95592W        W62133  28.664   3.440  14.805
95593W        W62134  37.566  26.621   4.698
95594W        W62135  31.990   5.908   4.904
95595W        W62136   9.193  19.793  13.472
95596W        W62137  38.020  11.711   1.850
95597W        W62138  33.114  27.981   0.316
95598W        W62139  26.224   9.656   0.483
95599W        W62140  20.537  42.850   3.640
95600W        W62141  40.071  22.401   0.940
95601W        W62142  16.673   5.534   0.268
95602W        W62143  35.810  39.809   3.674
95603W        W62144  38.081  26.583   4.723
95604W        W62145  43.998  14.884  13.010
95605W        W62146  19.844   2.891   0.449
95606W        W62147   8.194  18.217   2.375
95607W        W62148   4.989  44.420  11.115
95608W        W62149   3.875   6.714  12.057
95609W        W62150  16.858  34.879   1.165
95610W        W62151  12.233  11.093   4.353
95611W        W62152  33.660  39.655  12.970
95612W        W62153  22.983  35.120   2.246
95613W        W62154  30.905  42.450   3.367
95614W        W62155  12.283  24.151   0.426
95615W        W62156  33.434  12.779  11.363
95616W        W62157  17.540  16.327   3.199
95617W        W62158   5.252   8.839   2.280
95618W        W62159  39.403  41.486   1.563
95619W        W62160   7.780   7.010  13.920
95620W        W62161  19.926   5.600   0.980
95621W        W62162   7.347  14.113   0.913
95622W        W62163  20.770   7.222   3.116
95623W        W62164  37.792  19.096   4.488
95624W        W62165   8.338  32.487  14.382
95625W        W62166  28.046   5.668  10.650
95626W        W62167  10.623  18.981  10.696
95627W        W62168  42.455  24.676  12.319
95628W        W62169  14.916   6.482   2.935
95629W        W62170  26.250  39.842   2.396
95630W        W62171  19.919   5.197  11.585
95631W        W62172  33.710  31.527  14.437
95632W        W62173  22.638  12.811   1.816
95633W        W62174  35.574  16.347   3.173
95634W        W62175  22.662  11.703   4.979
95635W        W62176  18.630  16.630   3.438
95636W        W62177  43.079  29.387   2.823
95637W        W62178  33.553  19.632   4.112
95638W        W62179  24.488  34.053   4.660
95639W        W62180  23.812   4.348   3.167
95640W        W62181   0.862   5.789   4.131
95641W        W62182  37.900  31.174  10.697
95642W        W62183  23.491  31.521   1.291
95643W        W62184   3.394  25.137   1.891
95644W        W62185  29.289  30.650   3.882
95645W        W62186   8.690  30.664  10.643
95646W        W62187  21.226  21.233   1.886
95647W        W62188  37.428  39.991  14.026
95648W        W62189  34.093  12.698   0.842
95649W        W62190  33.107  40.802  12.873
95650W        W62191  38.763  28.559  14.484
95651W        W62192  40.974  13.151   1.242
95652W        W62193  29.463  20.064   2.816
95653W        W62194  34.073   1.809  12.177
95654W        W62195  30.405  11.902  13.361
95655W        W62196  33.190  24.229   2.815
95656W        W62197  15.277  13.346  12.911
95657W        W62198  21.179  22.738   4.256
95658W        W62199   2.266  13.846  12.609
95659W        W62200  43.337  12.936   4.543
95660W        W62201  27.323  10.671   1.627
95661W        W62202   8.170  27.872  10.708
95662W        W62203  21.923   8.524  11.840
95663W        W62204  16.841   5.665   1.550
95664W        W62205  24.013   3.681   1.262
95665W        W62206  15.036  26.099  14.438
95666W        W62207  22.122  13.836   0.066
95667W        W62208   1.313  13.679   3.335
95668W        W62209  21.116  35.969  12.080
95669W        W62210  42.236  18.297  11.574
95670W        W62211  40.635   6.442  11.389
95671W        W62212  24.773  12.792  13.211
95672W        W62213   0.974  38.788  14.255
95673W        W62214   8.768  21.588   0.422
95674W        W62215  31.126   3.540  11.757
95675W        W62216   3.750  10.826  11.473
95676W        W62217  27.038  25.302  14.999
95677W        W62218   6.741  23.126  14.541
95678W        W62219  27.993  37.041   4.847
95679W        W62220  37.551  23.099  13.044
95680W        W62221   4.921  25.468   3.746
95681W        W62222  31.305  29.230   1.260
95682W        W62223   3.473  20.185  14.913
95683W        W62224  36.557   0.312  12.007
95684W        W62225  22.320  28.216   0.487
95685W        W62226  31.835  44.485  11.243
95686W        W62227   0.793   0.267  14.933
95687W        W62228  43.280  35.186   1.938
95688W        W62229   6.682  40.829  14.761
95689W        W62230  33.803  33.669   1.434
95690W        W62231  43.037  30.106  14.572
95691W        W62232  18.293  26.173  14.974
95692W        W62233  25.031  16.569   0.948
95693W        W62234   5.693  19.275   4.560
95694W        W62235  11.880  17.425  10.746
95695W        W62236  24.086  38.299   0.764
95696W        W62237  33.904   9.566   4.171
95697W        W62238   4.527   3.466   4.910
95698W        W62239   9.888  38.113   4.911
95699W        W62240  43.610  28.368  11.038
95700W        W62241  37.133   8.278   4.550
95701W        W62242  34.748  41.312   2.337
95702W        W62243  33.782  13.822  10.640
95703W        W62244  34.919  17.118  11.001
95704W        W62245  36.811   1.261  12.944
95705W        W62246  40.291  28.658  11.906
95706W        W62247  36.396  27.213  11.012
95707W        W62248   4.089  18.708   4.123
95708W        W62249  35.564   3.692   0.460
95709W        W62250  20.323   3.935  11.896
95710W        W62251  36.120  36.671  11.912
95711W        W62252  16.317  14.708  11.607
95712W        W62253  36.887  33.357  14.544
95713W        W62254  25.438  14.689   2.327
95714W        W62255  27.208   2.449   1.865
95715W        W62256  11.858   1.694  14.430
95716W        W62257  22.632  12.890  12.519
95717W        W62258  10.434  15.708   2.362
95718W        W62259  34.422  18.318   2.702
95719W        W62260  38.572  22.820  14.022
95720W        W62261   5.206   6.910  11.085
95721W        W62262  11.738   0.749  11.446
95722W        W62263  23.538  31.001  11.382
95723W        W62264  31.584  22.233   1.199
95724W        W62265  36.928  44.043  13.458
95725W        W62266  19.921  23.610  14.429
95726W        W62267  31.475  33.459   0.849
95727W        W62268  10.313  12.992   3.814
95728W        W62269  11.195  33.201   4.541
95729W        W62270  15.060  22.091  14.047
95730W        W62271  27.202  14.166  12.440
95731W        W62272  35.363  28.948   3.092
95732W        W62273  29.725  28.854   3.827
95733W        W62274  10.340  13.063  10.582
95734W        W62275  11.869  23.632  11.847
95735W        W62276  15.880  41.306   0.787
95736W        W62277   1.088  41.695   2.832
95737W        W62278  37.609  35.058   2.773
95738W        W62279  26.757  27.203   0.313
95739W        W62280  20.516  41.560   0.261
95740W        W62281   5.108  25.885   3.316
95741W        W62282  39.930  10.865  10.630
95742W        W62283  19.074   3.907   3.720
95743W        W62284   5.753   7.335   2.793
95744W        W62285  31.057   5.692   1.875
95745W        W62286  41.078  39.079   1.884
95746W        W62287   6.607   1.430   3.129
95747W        W62288  19.553  23.128   2.650
95748W        W62289   3.621  16.838   1.696
95749W        W62290   4.878  17.754  13.121
95750W        W62291  44.801  28.133   4.743
95751W        W62292  23.583  18.274  11.436
95752W        W62293  36.472  43.480   1.714
95753W        W62294  21.085   8.395  12.613
95754W        W62295  26.081  37.150  12.617
95755W        W62296  23.138  27.349  12.138
95756W        W62297  18.815   2.753  13.227
95757W        W62298  39.740  27.530   1.344
95758W        W62299  14.618   4.233   4.690
95759W        W62300   3.543   5.408  12.392
95760W        W62301  29.128  30.088  14.053
95761W        W62302   4.875   3.981  11.581
95762W        W62303  36.563  27.889   3.203
95763W        W62304  33.809  34.315  14.643
95764W        W62305  15.359  44.806   1.596
95765W        W62306  24.965   3.184  14.289
95766W        W62307  40.539  26.180  11.458
95767W        W62308  13.584  21.973  10.654
95768W        W62309  23.751  17.552  11.641
95769W        W62310  16.835  23.002   2.651
95770W        W62311  41.448  10.625  14.673
95771W        W62312  25.130  38.783  13.026
95772W        W62313  26.594  35.121  14.769
95773W        W62314  29.339  18.286  12.900
95774W        W62315  13.268   0.977   4.959
95775W        W62316  32.054  39.906   4.032
95776W        W62317   9.558  11.028  12.978
95777W        W62318  31.604  17.085  12.200
95778W        W62319  33.902   8.765   2.658
95779W        W62320  30.350  12.715  14.303
95780W        W62321  28.234  22.960   0.326
95781W        W62322   6.923  26.463  13.871
95782W        W62323  23.273   5.387   1.754
95783W        W62324  42.298  18.160   0.340
95784W        W62325  27.587  12.289   1.175
95785W        W62326  25.545   9.889  14.812
95786W        W62327  34.344  10.802   1.732
95787W        W62328  33.794   1.654  12.597
95788W        W62329  33.605  14.904   4.891
95789W        W62330  30.805   2.563   0.278
95790W        W62331  11.947  11.204   4.786
95791W        W62332  26.022  32.429   1.816
95792W        W62333  38.551  17.173  13.028
95793W        W62334   3.897  20.313  11.485
95794W        W62335  21.983  43.931   1.277
95795W        W62336   4.513  10.619   3.724
95796W        W62337   8.745   6.126  14.944
95797W        W62338  38.023  25.142   1.207
95798W        W62339   5.006  15.812  11.581
95799W        W62340   2.564  27.995   4.964
95800W        W62341  34.957  17.168   4.894
95801W        W62342  16.686  23.496   2.698
95802W        W62343  10.163  33.805   3.629
95803W        W62344  32.573  34.428   1.377
95804W        W62345  37.388  22.515  13.589
95805W        W62346  27.448  39.593  14.901
95806W        W62347  17.285   7.699   0.991
95807W        W62348  26.516  29.193  11.760
95808W        W62349  29.646  26.677   1.245
95809W        W62350  43.894  27.184   2.273
95810W        W62351   9.852  38.084   1.310
95811W        W62352   5.738   4.766  11.465
95812W        W62353  22.613  27.165  12.111
95813W        W62354  13.499   7.680   2.668
95814W        W62355  40.374  22.939  12.729
95815W        W62356  43.002  30.511  11.892
95816W        W62357  44.850   4.815  11.093
95817W        W62358  39.862   2.977  11.916
95818W        W62359   8.246  36.209   0.228
95819W        W62360  27.721  42.798  13.069
95820W        W62361  41.070   6.752  13.320
95821W        W62362  21.629  30.633  13.261
95822W        W62363  39.326  17.121   0.006
95823W        W62364  44.282  43.741  11.432
95824W        W62365  22.602  24.501   0.696
95825W        W62366   4.967  32.450   3.686
95826W        W62367  19.710  38.856   3.169
95827W        W62368  21.051   4.697   2.704
95828W        W62369  30.521  43.951  12.730
95829W        W62370  14.223  20.143   1.775
95830W        W62371  36.081  14.656  13.721
95831W        W62372  25.043  42.675  12.973
95832W        W62373  36.054  10.358   2.256
95833W        W62374   9.280  19.086  10.752
95834W        W62375  24.598  25.566  11.676
95835W        W62376  37.031   2.169  11.587
95836W        W62377  18.346   2.188   1.462
95837W        W62378  13.060  41.023  14.404
95838W        W62379  26.539  43.993   4.935
95839W        W62380  29.905  29.498  12.546
95840W        W62381  12.680  32.971   4.176
95841W        W62382  44.619   7.668  12.074
95842W        W62383  24.905  13.621  10.984
95843W        W62384  43.738   0.061  14.843
95844W        W62385  13.844  34.694  14.380
95845W        W62386  31.713  36.487  11.172
95846W        W62387  17.488  14.949   1.920
95847W        W62388  26.268  43.252  13.378
95848W        W62389  35.131   1.781   0.768
95849W        W62390   3.002  25.005   2.743
95850W        W62391  39.117   5.078  14.492
95851W        W62392  17.199  20.275  11.198
95852W        W62393   7.229   1.994   1.661
95853W        W62394  33.357  15.610   0.936
95854W        W62395  34.532   8.884  13.813
95855W        W62396  42.493  37.477   1.620
95856W        W62397  36.926  12.207   2.313
95857W        W62398  28.544  36.985  13.759
95858W        W62399  13.742   3.768  14.810
95859W        W62400   0.890   4.071  10.678
95860W        W62401  15.718  35.566   3.224
95861W        W62402  29.793  40.055  13.513
95862W        W62403   9.397  26.143  14.797
95863W        W62404  36.601  39.363   4.321
95864W        W62405  38.020  32.674  14.695
95865W        W62406  25.945  22.462  11.280
95866W        W62407  27.972  41.157  12.454
95867W        W62408  21.737  41.218   1.335
95868W        W62409  18.696  25.532   3.650
95869W        W62410   0.145  33.780   4.438
95870W        W62411   7.194  39.857   3.198
95871W        W62412   8.728  31.014  11.017
95872W        W62413  30.219   9.649  11.609
95873W        W62414  18.057  41.029   2.709
95874W        W62415  34.305  27.276   3.500
95875W        W62416  30.562  38.961  13.399
95876W        W62417  10.872  16.560  10.534
95877W        W62418  31.431  29.419   0.040
95878W        W62419   6.243  27.768   2.779
95879W        W62420   9.285  32.607   1.263
95880W        W62421  19.801  14.111  12.919
95881W        W62422  28.085   1.697  14.498
95882W        W62423  13.826   0.865   3.108
95883W        W62424  30.353  37.485   3.229
95884W        W62425  12.252  40.746  11.339
95885W        W62426  16.290   0.403   4.726
95886W        W62427  34.463  15.656   2.394
95887W        W62428  17.537  36.118  13.342
95888W        W62429  20.330   8.361  14.910
95889W        W62430   9.102  42.316  11.966
95890W        W62431  44.998   1.504   2.325
95891W        W62432  41.543  37.030   1.229
95892W        W62433  44.500  17.838  12.497
95893W        W62434   5.816  23.682   1.192
95894W        W62435   8.109   8.726   0.026
95895W        W62436  11.289  17.009   3.108
95896W        W62437   6.542  36.550   0.007
95897W        W62438  23.291   4.389   3.232
95898W        W62439  28.175  13.206  14.470
95899W        W62440   5.702   3.488   2.501
95900W        W62441  32.451  35.526   0.492
95901W        W62442  10.149   7.780   1.925
95902W        W62443   9.143  21.038   2.875
95903W        W62444  32.571  35.774  11.882
95904W        W62445  11.200   5.620  11.250
95905W        W62446  44.033   5.916  12.177
95906W        W62447   5.892  13.621   2.950
95907W        W62448  39.035  11.368   3.699
95908W        W62449  44.879  43.109  12.375
95909W        W62450  15.820   1.859  14.070
95910W        W62451  19.808  40.749   1.369
95911W        W62452  18.945   6.371   5.080
95912W        W62453  13.593  32.603   3.675
95913W        W62454  44.592  11.427  12.489
95914W        W62455  34.590  38.569   3.628
95915W        W62456   1.241  31.856   0.826
95916W        W62457   2.299  13.677   4.561
95917W        W62458  37.831  23.077  10.971
95918W        W62459  42.844  30.060   1.726
95919W        W62460   7.343  44.891   4.159
95920W        W62461   5.347  33.953  14.518
95921W        W62462  27.981  19.299   4.050
95922W        W62463   4.358   2.121   1.279
95923W        W62464   3.488  28.812   2.480
95924W        W62465  44.666   4.220  10.036
95925W        W62466  31.138  13.192   3.279
95926W        W62467  13.219   6.252   1.766
95927W        W62468  23.679  25.228  13.984
95928W        W62469  34.947  17.353   3.595
95929W        W62470  29.880  28.070  14.608
95930W        W62471   0.505   1.547   2.245
95931W        W62472  40.772  36.434   1.851
95932W        W62473  15.763  40.378  11.429
95933W        W62474  26.686  12.420   4.420
95934W        W62475   0.826  22.061   2.421
95935W        W62476  29.425  40.279  11.242
95936W        W62477  38.399   8.183   0.685
95937W        W62478  36.143  36.356   4.294
95938W        W62479  43.818  42.171  14.930
95939W        W62480  26.903  40.975  13.345
95940W        W62481  12.694  42.738   1.774
95941W        W62482  15.753   7.366   1.834
95942W        W62483   7.622  26.936  12.437
95943W        W62484  39.032   5.421  14.908
95944W        W62485  14.714   5.470   1.845
95945W        W62486  15.536   2.972  12.694
95946W        W62487  11.245  26.011   4.574
95947W        W62488  37.802  32.270   0.867
95948W        W62489  37.354  41.624   2.162
95949W        W62490   3.859  12.630  12.442
95950W        W62491  32.640  12.128   1.140
95951W        W62492  26.829  18.528   0.651
95952W        W62493  33.571   3.809   0.986
95953W        W62494  35.436   6.874  12.122
95954W        W62495  19.728  35.438   2.661
95955W        W62496  42.378  19.989  13.518
95956W        W62497  38.610  28.013   0.064
95957W        W62498  42.915   3.684   3.703
95958W        W62499   2.820  35.342   0.774
95959W        W62500  30.188  18.187   1.757
95960W        W62501  31.128  12.283   1.391
95961W        W62502  43.853  36.843  14.393
95962W        W62503  44.492  25.495  13.998
95963W        W62504  11.349  18.610  11.068
95964W        W62505  29.304  25.406  12.629
95965W        W62506  36.727   3.156  10.121
95966W        W62507  40.280  24.454   1.305
95967W        W62508  43.023  23.534   3.759
95968W        W62509   1.475  26.211  13.037
95969W        W62510  40.942  16.567   3.226
95970W        W62511  31.295  32.542   1.665
95971W        W62512  42.493  33.861  13.847
95972W        W62513   3.200  23.438  12.135
95973W        W62514  17.451  23.679  12.934
95974W        W62515  15.686  40.371  12.570
95975W        W62516  35.109  22.117   4.040
95976W        W62517  42.198  41.991   4.753
95977W        W62518  37.516  14.153   4.127
95978W        W62519  27.967   3.771   4.476
95979W        W62520   0.938  36.044   2.779
95980W        W62521  13.135  11.226   0.034
95981W        W62522  13.721  20.040   0.379
95982W        W62523  15.128  33.577  13.370
95983W        W62524  28.877   5.799  12.521
95984W        W62525  24.540   5.795   2.734
95985W        W62526  15.103   7.886   2.753
95986W        W62527  32.611   4.553  14.795
95987W        W62528  26.717   2.464  13.883
95988W        W62529  31.114   3.669   5.061
95989W        W62530  17.193  14.391   2.322
95990W        W62531  19.037  42.027   4.163
95991W        W62532   1.325  23.693   0.251
95992W        W62533  22.091  35.600  11.679
95993W        W62534  40.339   6.979   1.249
95994W        W62535   8.260  17.795  14.433
95995W        W62536  28.576  22.643   3.135
95996W        W62537  27.269  11.629   1.298
95997W        W62538  34.978  41.528  12.126
95998W        W62539  19.599  21.484  12.531
95999W        W62540  15.032  12.004   4.278
96000W        W62541  22.125  25.965  14.434
96001W        W62542  23.315   5.171  14.666
96002W        W62543  29.721   6.337   4.302
96003W        W62544  14.513  21.545  11.976
96004W        W62545  41.479   0.740  14.138
96005W        W62546  18.378  27.175   4.200
96006W        W62547  39.702  34.056   0.845
96007W        W62548  36.442   4.730  11.882
96008W        W62549   4.423  27.069   0.964
96009W        W62550  21.881  35.124  12.428
96010W        W62551  13.360  12.510   3.604
96011W        W62552  14.944  38.589   3.648
96012W        W62553  36.107  43.775  13.402
96013W        W62554  33.132   8.655   3.217
96014W        W62555  33.749  31.740  11.099
96015W        W62556  43.871  38.115   2.197
96016W        W62557  39.428  30.165   3.692
96017W        W62558  31.809   2.255   4.623
96018W        W62559  14.770   4.951   1.928
96019W        W62560  22.812  32.093   3.744
96020W        W62561  17.754  24.193   0.007
96021W        W62562  44.662  12.255   3.915
96022W        W62563  21.152  11.643   5.106
96023W        W62564  43.379  43.349  11.881
96024W        W62565  38.364  30.996   4.392
96025W        W62566  40.523  26.960  12.524
96026W        W62567  35.987  35.858  11.184
96027W        W62568   8.735   1.998  12.494
96028W        W62569  36.869  11.509  11.709
96029W        W62570  22.076  26.366  14.828
96030W        W62571  19.077  29.664   2.206
96031W        W62572  42.771  26.840  14.000
96032W        W62573   4.671  10.121   3.612
96033W        W62574  22.093  20.774  13.841
96034W        W62575  34.159  36.930   0.747
96035W        W62576   7.797  12.321   2.490
96036W        W62577  19.771  12.730   3.818
96037W        W62578  21.065  36.500  12.797
96038W        W62579  40.597  14.301   3.201
96039W        W62580  18.545  42.381  14.293
96040W        W62581  42.460  13.760   0.715
96041W        W62582  14.800   7.082  13.034
96042W        W62583  22.466  36.590   1.892
96043W        W62584  42.512  43.439   2.474
96044W        W62585   3.277  44.426   5.158
96045W        W62586  11.189  31.614  14.451
96046W        W62587   4.903  36.660   4.070
96047W        W62588  20.529  16.350   0.929
96048W        W62589   4.754  35.512   3.328
96049W        W62590  29.880  37.443  11.870
96050W        W62591  30.293  12.399   0.917
96051W        W62592  23.878  42.916  12.591
96052W        W62593  23.525  28.418  13.936
96053W        W62594  24.494  32.995   0.854
96054W        W62595  20.568  23.182   3.796
96055W        W62596  34.681  22.946  10.578
96056W        W62597  15.489  30.575   0.034
96057W        W62598   1.193  35.509  13.248
96058W        W62599  10.272  25.039  14.494
96059W        W62600   1.406  37.845   2.953
96060W        W62601  42.852  21.278   2.318
96061W        W62602  11.300  25.485  11.154
96062W        W62603  35.436  20.145   1.896
96063W        W62604   2.813  40.824  12.157
96064W        W62605  11.495  27.584  12.470
96065W        W62606   4.253  28.492  14.541
96066W        W62607  39.367   6.240   1.791
96067W        W62608   2.917  41.933   0.634
96068W        W62609  30.054   2.797  14.373
96069W        W62610  40.088   5.683   4.211
96070W        W62611  14.177   6.133  13.371
96071W        W62612  10.411  41.368  12.847
96072W        W62613   0.933  12.259  14.574
96073W        W62614  14.735  13.795   2.788
96074W        W62615   4.418  22.504  11.248
96075W        W62616  26.543  32.145  12.812
96076W        W62617   7.310  38.283   2.209
96077W        W62618   9.552  34.470   3.304
96078W        W62619  42.323  10.210  11.083
96079W        W62620   2.418  34.695  13.482
96080W        W62621  37.021  20.532   0.433
96081W        W62622   9.849  27.645   0.312
96082W        W62623  32.400   0.269   2.818
96083W        W62624  26.027   5.714  13.938
96084W        W62625   0.248  44.798  12.791
96085W        W62626  29.369  19.213   1.390
96086W        W62627  26.417  32.628  13.432
96087W        W62628   4.308   2.184  12.446
96088W        W62629  41.541  20.491   4.479
96089W        W62630  16.681  17.939   3.157
96090W        W62631  26.713  14.556   3.702
96091W        W62632  31.222  35.158   3.554
96092W        W62633  11.736   7.144   4.111
96093W        W62634  26.229  15.490  13.399
96094W        W62635  34.929   1.800  14.391
96095W        W62636  23.015  11.155  11.484
96096W        W62637   6.897  40.491   2.205
96097W        W62638  16.049   8.531  12.824
96098W        W62639  41.379  13.409  13.924
96099W        W62640  29.414   3.604   3.802
96100W        W62641  18.588  43.764  11.743
96101W        W62642   9.648   4.193  14.294
96102W        W62643  21.424   0.711  12.899
96103W        W62644  12.330  11.831  12.760
96104W        W62645  11.207   6.870  14.821
96105W        W62646  44.712  11.738   3.099
96106W        W62647  29.812  12.678  11.624
96107W        W62648  33.330  26.499   0.782
96108W        W62649   0.217  19.226  13.628
96109W        W62650   6.236  24.590   1.342
96110W        W62651  32.338  21.914   0.375
96111W        W62652  12.197   2.007   4.788
96112W        W62653  31.203  16.578   4.084
96113W        W62654  25.726  44.184   3.965
96114W        W62655  11.188  36.545  11.444
96115W        W62656  42.914   1.514   3.690
96116W        W62657  37.036   0.637   4.866
96117W        W62658  14.269  30.234  11.655
96118W        W62659  31.566   5.384  13.512
96119W        W62660  18.110  13.111   2.358
96120W        W62661  11.378   3.885   0.374
96121W        W62662  35.629  13.302  12.525
96122W        W62663  28.199   3.238   4.041
96123W        W62664  22.536  36.990   0.464
96124W        W62665  27.174  10.862   4.047
96125W        W62666   0.108   1.991  13.763
96126W        W62667   7.528  16.236  14.433
96127W        W62668  28.997  13.835   2.524
96128W        W62669  23.540  29.087   1.203
96129W        W62670  19.683  40.856  14.658
96130W        W62671  43.953   8.761   1.307
96131W        W62672   3.644  16.680   2.594
96132W        W62673  39.296   6.162   3.830
96133W        W62674  39.596   6.345   2.375
96134W        W62675  40.845  16.905   2.404
96135W        W62676  23.402  11.709  14.450
96136W        W62677   2.347   4.213  10.527
96137W        W62678  36.903  27.961   4.891
96138W        W62679  19.229  19.590  12.226
96139W        W62680  41.973   0.898  14.051
96140W        W62681  22.941  33.954  11.053
96141W        W62682   8.509  14.595  11.895
96142W        W62683  14.709   7.160  13.903
96143W        W62684  22.303  37.346  11.114
96144W        W62685  39.257  18.708   3.909
96145W        W62686  24.950  16.599   4.921
96146W        W62687   1.973  28.153  13.223
96147W        W62688  30.332  29.612  14.738
96148W        W62689  26.141  42.408  10.798
96149W        W62690  31.188  29.443  13.054
96150W        W62691  31.449  40.140   0.344
96151W        W62692  32.060  25.095  12.451
96152W        W62693  39.023  22.308  14.767
96153W        W62694  13.545  32.035   1.698
96154W        W62695   4.528  11.769   1.279
96155W        W62696   6.762   2.483   3.692
96156W        W62697   6.395   6.756  10.617
96157W        W62698  17.751   6.367   0.713
96158W        W62699  15.835  34.953  13.342
96159W        W62700  13.728  43.382   2.121
96160W        W62701  13.824  10.962  14.853
96161W        W62702   6.952  28.872  11.689
96162W        W62703  27.630  24.348   0.704
96163W        W62704  35.492  20.893   2.188
96164W        W62705  21.551   9.696  14.742
96165W        W62706  18.914  37.893  14.266
96166W        W62707  25.461  12.353  13.488
96167W        W62708  16.234  18.844  11.880
96168W        W62709  14.224  18.741   2.139
96169W        W62710  42.844  28.217   3.136
96170W        W62711  12.243  26.213  12.801
96171W        W62712  24.266   9.707  10.698
96172W        W62713  11.091  39.570   0.809
96173W        W62714  17.710  43.962   0.382
96174W        W62715  32.601  44.781   2.773
96175W        W62716  37.422  12.227  10.499
96176W        W62717  26.180  27.912   3.231
96177W        W62718   2.252  17.080  13.957
96178W        W62719   2.679  23.656  13.004
96179W        W62720  24.241  44.812  14.330
96180W        W62721  41.560  16.880   1.392
96181W        W62722  43.740  27.014  14.853
96182W        W62723  38.500  29.350   1.941
96183W        W62724  37.200   3.455   5.393
96184W        W62725  13.363  29.803  11.433
96185W        W62726  32.981  19.574   4.462
96186W        W62727  23.483  14.853  13.421
96187W        W62728   4.804  44.971   2.719
96188W        W62729  11.648  18.456   2.270
96189W        W62730   2.294   4.189   4.591
96190W        W62731  36.620  34.602   1.763
96191W        W62732   5.604  33.331   1.962
96192W        W62733  38.897  38.061  11.599
96193W        W62734  21.970  38.958  14.010
96194W        W62735   9.576  15.904  10.618
96195W        W62736  15.681  10.607  10.445
96196W        W62737  15.678  35.575  14.010
96197W        W62738  31.184  33.487  12.884
96198W        W62739   3.164  43.249  14.039
96199W        W62740   5.416  17.189   3.715
96200W        W62741  30.570   2.522  10.220
96201W        W62742  29.592   7.911   2.230
96202W        W62743  34.144  21.720   1.828
96203W        W62744   3.971  17.552  10.707
96204W        W62745  16.582  31.374   2.666
96205W        W62746  35.013  15.092   0.964
96206W        W62747  31.833  13.791   1.146
96207W        W62748  41.628  31.970  11.197
96208W        W62749  18.135   7.817   3.981
96209W        W62750  31.045   8.474   3.591
96210W        W62751  11.602  44.139   1.307
96211W        W62752  19.091   3.277   4.805
96212W        W62753  10.832  38.402  10.637
96213W        W62754  27.228   9.439   3.127
96214W        W62755   5.216   3.883  14.415
96215W        W62756  44.782  44.268  13.773
96216W        W62757  24.462  29.966  11.096
96217W        W62758  31.049   4.309   1.208
96218W        W62759  44.971  30.083  11.119
96219W        W62760  15.696   0.908   5.272
96220W        W62761  44.827   8.601   1.500
96221W        W62762  23.555   7.983  12.987
96222W        W62763   4.838  16.404   1.300
96223W        W62764  17.531  35.620  13.292
96224W        W62765  43.870  11.570  13.501
96225W        W62766  17.823   6.634   0.212
96226W        W62767  10.238   2.830  11.926
96227W        W62768   8.363  28.613  14.118
96228W        W62769  43.908  19.463   1.990
96229W        W62770   1.496   7.394   3.582
96230W        W62771  37.548  44.844  10.594
96231W        W62772  38.164  21.066   3.373
96232W        W62773   5.480  10.235   3.173
96233W        W62774  14.714  42.345   3.892
96234W        W62775   3.586   3.683  10.384
96235W        W62776   1.781  28.101  11.032
96236W        W62777  35.758   0.971  11.988
96237W        W62778  19.665  25.613   2.465
96238W        W62779  12.427  37.411  10.852
96239W        W62780  12.151  19.306  11.549
96240W        W62781   3.934  26.492  14.492
96241W        W62782  30.789  13.067  11.558
96242W        W62783  43.519  13.561   0.697
96243W        W62784  11.668  37.858  12.556
96244W        W62785  20.872  32.933  14.875
96245W        W62786  12.210  28.975   1.321
96246W        W62787  22.016  41.075   4.594
96247W        W62788  44.615  30.940  12.799
96248W        W62789  10.599  37.341  11.683
96249W        W62790   3.196  14.995   5.012
96250W        W62791  42.552  40.428   2.727
96251W        W62792   7.207  34.105   1.203
96252W        W62793  35.916  17.271  11.560
96253W        W62794  10.761  22.933  13.117
96254W        W62795  28.240  37.453   4.640
96255W        W62796  40.564  26.804   1.093
96256W        W62797   7.093  37.551   3.715
96257W        W62798  36.244  33.496   2.188
96258W        W62799  12.930   3.218  11.532
96259W        W62800   8.438   1.600  12.465
96260W        W62801  21.131  24.701   4.269
96261W        W62802  39.121   6.962  14.823
96262W        W62803  24.907  31.001  11.924
96263W        W62804  33.430  19.250  10.576
96264W        W62805  15.089  19.527   3.625
96265W        W62806   0.402  16.029   0.770
96266W        W62807  32.347  34.975   4.814
96267W        W62808  31.690  28.087   4.705
96268W        W62809  13.120  14.325  10.717
96269W        W62810  13.321  16.236   1.423
96270W        W62811  32.006  22.770   2.845
96271W        W62812  33.877   0.889   2.007
96272W        W62813  35.114   7.317  13.796
96273W        W62814  20.277  15.707  14.475
96274W        W62815  17.842  39.982   3.296
96275W        W62816  37.249   6.293  11.880
96276W        W62817  43.410  18.702   4.535
96277W        W62818   3.728  23.227   2.253
96278W        W62819  41.042  35.878   1.956
96279W        W62820  15.154  38.010   4.623
96280W        W62821  22.492  20.793   1.211
96281W        W62822   4.537   9.683   0.630
96282W        W62823  13.805  36.791  13.791
96283W        W62824  35.168  16.697   3.314
96284W        W62825   4.009  27.665   4.455
96285W        W62826  38.517  15.672  10.860
96286W        W62827  29.116  36.303   0.791
96287W        W62828  32.503  26.786  14.449
96288W        W62829  27.848   7.006   4.200
96289W        W62830   2.738  12.700  13.373
96290W        W62831   9.324   3.481   0.760
96291W        W62832  35.837  11.429  11.239
96292W        W62833  28.326  26.776  12.016
96293W        W62834  30.944  41.409  14.431
96294W        W62835  44.638  41.219   2.708
96295W        W62836  30.881   2.877   1.517
96296W        W62837   8.295  29.939  10.568
96297W        W62838  28.498   3.486   3.611
96298W        W62839  24.673  37.392   0.460
96299W        W62840  16.567  34.497   3.941
96300W        W62841  14.606   2.749  13.027
96301W        W62842  18.317  15.771  11.375
96302W        W62843  43.794   3.350  11.711
96303W        W62844  25.533  34.538  11.869
96304W        W62845  12.376   1.889  14.090
96305W        W62846  24.517  38.901   0.603
96306W        W62847   9.858  22.642   4.712
96307W        W62848  16.316  25.644  14.387
96308W        W62849  18.024  29.705   0.096
96309W        W62850  41.452  44.374  14.881
96310W        W62851  27.350  35.149  13.432
96311W        W62852  38.983  42.971  12.690
96312W        W62853  38.573   5.349   4.814
96313W        W62854   2.501  40.266  13.124
96314W        W62855   7.340  13.153   4.468
96315W        W62856   2.027  33.224   5.062
96316W        W62857  19.333  16.292  14.383
96317W        W62858  34.132  16.675  12.226
96318W        W62859  34.873  17.494   2.843
96319W        W62860  13.431  42.381   4.940
96320W        W62861  28.394   8.804  12.200
96321W        W62862  27.158  13.682   4.885
96322W        W62863  39.349   0.407  13.438
96323W        W62864  13.590  43.298  12.974
96324W        W62865  11.747   0.467  14.870
96325W        W62866  23.078  10.305   2.480
96326W        W62867  12.144  30.384   9.825
96327W        W62868  36.826  26.028   4.140
96328W        W62869   8.656  22.937  11.214
96329W        W62870  28.920  13.854  11.563
96330W        W62871  28.814  26.099  11.038
96331W        W62872  26.059  25.233   0.923
96332W        W62873  36.399   0.026   4.113
96333W        W62874  35.396   3.730  13.194
96334W        W62875  26.388  11.328   0.280
96335W        W62876  42.249  40.116  12.661
96336W        W62877  17.212  21.986  12.588
96337W        W62878  43.970  32.570  14.376
96338W        W62879  38.877  32.393  14.027
96339W        W62880  24.329  31.591  13.365
96340W        W62881  20.128  18.110  13.763
96341W        W62882  26.891  12.164   0.024
96342W        W62883  33.345  21.919  12.571
96343W        W62884  39.441  33.022  13.263
96344W        W62885  34.941  24.721   3.132
96345W        W62886  12.154  43.769  13.560
96346W        W62887   4.147   0.275   2.701
96347W        W62888  12.091  24.110   4.461
96348W        W62889  40.337  14.642   3.891
96349W        W62890   1.524  36.200  12.617
96350W        W62891  17.967  44.501  12.186
96351W        W62892  25.369  13.631  13.296
96352W        W62893  41.797  44.519  12.548
96353W        W62894  29.379  26.924  10.945
96354W        W62895  41.354  43.013  14.998
96355W        W62896   7.305  31.034   2.304
96356W        W62897   4.504  27.820   4.499
96357W        W62898  36.454   9.808   1.982
96358W        W62899  30.838  31.534   3.875
96359W        W62900  36.069  23.977  14.440
96360W        W62901  35.555  16.693  13.800
96361W        W62902  34.444   4.641  14.840
96362W        W62903   8.934   7.808   3.683
96363W        W62904  43.003  26.116   4.117
96364W        W62905  27.941  10.278   4.150
96365W        W62906  20.504  19.303  13.468
96366W        W62907  37.600  25.234  14.342
96367W        W62908  34.072  35.877  11.936
96368W        W62909  28.671  23.051   1.034
96369W        W62910   5.433  12.856   2.362
96370W        W62911   1.079  30.472   5.014
96371W        W62912   1.430   3.343  14.507
96372W        W62913  19.737  38.374  14.521
96373W        W62914  36.685   8.446   2.576
96374W        W62915  31.716   2.418   2.292
96375W        W62916  38.106  39.044   0.397
96376W        W62917   7.877   9.951   1.247
96377W        W62918  32.463  34.469  14.808
96378W        W62919   5.730  33.954   4.400
96379W        W62920  38.170  32.026  11.015
96380W        W62921  42.025   5.710   3.312
96381W        W62922  16.303  33.410   3.315
96382W        W62923  42.201  31.158  14.437
96383W        W62924  32.562  35.436   1.958
96384W        W62925  42.564   1.725  12.054
96385W        W62926  12.946   4.219   2.297
96386W        W62927  30.019  38.385  14.721
96387W        W62928  28.227  27.502  12.034
96388W        W62929  24.945  31.947   5.047
96389W        W62930  12.938  29.999  12.789
96390W        W62931  33.951  34.912   3.803
96391W        W62932  39.574  16.988   3.131
96392W        W62933  28.931  37.083  10.410
96393W        W62934  29.245   6.876   2.907
96394W        W62935   6.304  20.747   0.477
96395W        W62936  18.124  37.249  12.530
96396W        W62937  44.380  28.654   1.741
96397W        W62938  28.609  21.177   0.753
96398W        W62939  17.585  25.504  11.172
96399W        W62940  25.759   1.344  11.568
96400W        W62941  17.671   4.211   1.333
96401W        W62942   1.940  41.258  13.796
96402W        W62943  44.449  44.233  10.449
96403W        W62944  24.474  34.551   2.647
96404W        W62945  15.499  32.511   1.362
96405W        W62946  31.859  19.709   1.065
96406W        W62947   5.471  17.198   2.797
96407W        W62948   6.220  13.527  12.517
96408W        W62949  18.807   4.335   2.954
96409W        W62950  12.751  26.406  11.069
96410W        W62951  16.575  20.304   2.946
96411W        W62952   4.708  11.555  11.867
96412W        W62953  24.589   8.221   4.152
96413W        W62954  44.056   5.644  12.861
96414W        W62955   5.772   3.372  11.535
96415W        W62956   3.987  35.000  14.550
96416W        W62957  12.105   4.835   1.492
96417W        W62958   4.159   1.335  11.534
96418W        W62959  35.326  24.674   2.768
96419W        W62960  26.690   4.903  14.261
96420W        W62961   5.147  44.290  14.844
96421W        W62962  19.019  31.398   3.486
96422W        W62963  28.273  34.953   4.808
96423W        W62964  29.542  27.581  11.566
96424W        W62965  39.507  27.338  13.472
96425W        W62966  38.295  23.676  11.639
96426W        W62967  13.927  40.325  12.874
96427W        W62968   6.232  30.603  12.231
96428W        W62969  33.038  13.856   0.765
96429W        W62970  15.194  28.597  10.786
96430W        W62971  15.100  15.036   3.735
96431W        W62972  40.610  17.831   2.520
96432W        W62973  17.731  19.665  12.420
96433W        W62974  14.814  36.556   4.591
96434W        W62975  28.559  41.740   1.333
96435W        W62976   6.119  18.087   4.503
96436W        W62977  24.982  26.601  14.926
96437W        W62978  17.054   9.364   1.648
96438W        W62979  28.782  35.134   0.729
96439W        W62980  21.921  34.436   4.721
96440W        W62981  17.670  28.944   3.229
96441W        W62982  10.208  23.650  10.656
96442W        W62983  36.709  10.755  10.693
96443W        W62984   4.683  28.563  12.538
96444W        W62985  39.211  21.994  12.061
96445W        W62986  19.730  36.291  12.685
96446W        W62987  15.439  33.501   4.472
96447W        W62988  21.521  28.615   2.329
96448W        W62989   4.874  24.504   0.847
96449W        W62990  26.491  17.558  11.356
96450W        W62991  16.534  11.669   2.625
96451W        W62992  33.433  41.676  12.043
96452W        W62993  32.067  33.886   4.077
96453W        W62994  29.871  26.041  14.419
96454W        W62995  15.809   1.297   2.249
96455W        W62996  10.098  12.139  11.544
96456W        W62997  33.113  43.359  11.871
96457W        W62998  35.164   0.435   1.269
96458W        W62999  14.072   5.018  10.574
96459W        W63000  42.726  15.797   1.360
96460W        W63001  33.185  23.621   0.910
96461W        W63002  12.455  37.252  14.743
96462W        W63003  14.412  19.085   3.239
96463W        W63004  40.584  14.077   2.286
96464W        W63005  11.342  25.783  12.956
96465W        W63006  30.120   0.265  11.248
96466W        W63007  33.507   0.270   2.816
96467W        W63008   4.917  11.048  14.389
96468W        W63009  43.589  27.750   3.701
96469W        W63010  35.150   2.970   1.492
96470W        W63011  16.654  14.860  13.991
96471W        W63012   9.162  33.655   3.842
96472W        W63013  30.876  20.092  13.053
96473W        W63014   9.708   3.219   1.001
96474W        W63015  20.840  33.809  11.456
96475W        W63016  14.576   7.189   4.337
96476W        W63017  18.233  11.969   5.307
96477W        W63018  41.191  35.467   0.772
96478W        W63019  10.185  16.333  12.500
96479W        W63020  34.869  43.871  14.368
96480W        W63021  33.331  18.656   4.921
96481W        W63022   6.571  30.263   0.285
96482W        W63023   6.964  17.602   2.311
96483W        W63024  18.097  10.237  14.290
96484W        W63025  19.478  29.582  11.518
96485W        W63026   2.800  14.622  11.697
96486W        W63027  33.927  21.416   1.429
96487W        W63028  12.698  42.882   1.236
96488W        W63029   0.393  27.583  10.618
96489W        W63030  39.258  13.856  14.390
96490W        W63031  40.018  25.849   1.681
96491W        W63032  14.640  27.267   3.693
96492W        W63033  42.403  29.551   1.219
96493W        W63034   4.401  34.627   1.893
96494W        W63035  39.360   9.870   2.431
96495W        W63036   8.091  37.904  11.724
96496W        W63037  42.618  23.279  11.473
96497W        W63038   7.928   7.860   3.873
96498W        W63039  31.835  15.631   1.760
96499W        W63040  20.548   8.992   1.863
96500W        W63041  31.082  44.858   4.877
96501W        W63042  32.486   9.783   3.986
96502W        W63043  25.414   2.920   0.312
96503W        W63044   0.454  24.530  12.075
96504W        W63045  19.280  26.102   1.440
96505W        W63046  26.176  32.955   0.111
96506W        W63047   6.655  39.084   1.607
96507W        W63048  24.970  11.471   3.232
96508W        W63049  29.396  36.798   4.137
96509W        W63050  19.697  19.098   2.039
96510W        W63051  40.776  19.379   4.819
96511W        W63052  22.773   3.259  14.916
96512W        W63053  39.944  25.634   1.181
96513W        W63054  42.593  17.258   1.971
96514W        W63055   7.767  25.704   1.135
96515W        W63056  36.396  35.396   1.042
96516W        W63057  44.685  15.855   0.324
96517W        W63058  38.811  36.591   0.199
96518W        W63059  34.042  20.726  14.342
96519W        W63060  40.752  22.690   2.217
96520W        W63061   9.252  33.928   1.346
96521W        W63062  44.741  25.651   4.608
96522W        W63063  21.671  41.798   0.656
96523W        W63064   9.836  44.226  11.498
96524W        W63065  11.273  15.910  14.843
96525W        W63066  16.961  14.680  12.841
96526W        W63067  28.014  10.818  14.766
96527W        W63068   5.951   0.117  11.459
96528W        W63069  38.057  12.566   1.368
96529W        W63070  10.507   5.412  12.956
96530W        W63071  14.844  35.791   4.243
96531W        W63072  22.687  11.936   2.769
96532W        W63073  17.234   4.406   3.636
96533W        W63074  13.897  44.909   1.962
96534W        W63075  37.980  12.981   4.498
96535W        W63076  25.858  37.536   4.151
96536W        W63077   8.530  29.945  12.185
96537W        W63078  43.026  41.774  10.771
96538W        W63079  33.198  21.584  13.907
96539W        W63080   0.100  31.488   4.019
96540W        W63081  43.352  39.161  11.086
96541W        W63082  43.362  41.196  10.680
96542W        W63083  16.400  22.657   0.701
96543W        W63084   8.223  31.602   2.236
96544W        W63085   4.229   0.360   9.853
96545W        W63086  23.917  43.604  13.305
96546W        W63087  27.182  42.942  13.974
96547W        W63088  39.612  33.957   2.203
96548W        W63089   9.328  13.282   2.398
96549W        W63090  43.333  16.095  11.685
96550W        W63091  33.335  40.359   0.192
96551W        W63092  21.077  14.921  11.033
96552W        W63093  43.156  34.961  11.641
96553W        W63094  14.378  17.886   2.325
96554W        W63095  15.783  16.081  13.116
96555W        W63096  31.567  38.815   4.574
96556W        W63097  28.081  37.545  11.998
96557W        W63098  17.120  17.597  13.404
96558W        W63099  29.132   2.136  13.525
96559W        W63100  26.609  30.649  11.586
96560W        W63101   3.517   4.103  14.530
96561W        W63102  44.283   3.496  11.083
96562W        W63103   1.364  29.169   2.194
96563W        W63104  27.078  19.862   4.773
96564W        W63105  43.516  15.684  10.173
96565W        W63106   5.428  15.090   0.865
96566W        W63107  19.596   2.501   0.245
96567W        W63108  22.924  42.439   3.587
96568W        W63109  25.243   8.945  14.884
96569W        W63110  38.316  20.793   2.420
96570W        W63111  13.695  34.056   2.284
96571W        W63112  36.425  33.579   1.696
96572W        W63113   4.948  12.250  12.435
96573W        W63114  13.841  34.113  13.530
96574W        W63115  17.965  40.192   4.602
96575W        W63116  28.873  43.755   4.039
96576W        W63117  27.656  28.881   1.027
96577W        W63118  41.417  12.126  12.607
96578W        W63119  39.860  16.769  11.633
96579W        W63120  14.535  36.980   4.551
96580W        W63121  21.602  37.229  10.653
96581W        W63122   4.465   2.696  10.706
96582W        W63123  43.710  36.056   4.555
96583W        W63124   9.415  37.931   3.577
96584W        W63125  12.188  22.944  12.694
96585W        W63126  38.933  16.557  13.012
96586W        W63127  21.684  43.464  11.636
96587W        W63128  42.453  27.044   4.534
96588W        W63129  11.077  10.531  11.216
96589W        W63130  15.244  23.378   5.112
96590W        W63131   4.426  12.697   1.914
96591W        W63132  13.151  24.751   3.565
96592W        W63133  37.459  27.930  13.344
96593W        W63134   8.712  24.436   1.405
96594W        W63135  15.299  18.804  10.635
96595W        W63136  42.418  18.061  13.537
96596W        W63137  41.903   6.271   4.025
96597W        W63138  31.265  16.689   1.339
96598W        W63139  13.545   1.022  11.936
96599W        W63140  34.107  15.415   4.085
96600W        W63141  19.062  28.131  12.577
96601W        W63142  18.312  19.105   3.836
96602W        W63143   0.794  28.071   1.967
96603W        W63144  25.096  14.904  12.014
96604W        W63145  41.236  44.241   0.370
96605W        W63146   3.185  15.856  14.420
96606W        W63147  44.578  34.327  11.437
96607W        W63148  44.929  12.349   2.452
96608W        W63149  21.820  31.846  14.979
96609W        W63150  21.204  36.849   4.794
96610W        W63151  30.838  33.877  12.946
96611W        W63152   5.002   9.636   3.695
96612W        W63153  38.353   3.809   0.325
96613W        W63154  14.172  15.395   0.741
96614W        W63155  29.953  17.037   2.989
96615W        W63156   6.734  38.333   2.856
96616W        W63157  11.316  41.750   3.039
96617W        W63158  21.275  44.272  14.578
96618W        W63159   2.990  28.615   2.216
96619W        W63160   5.725  22.366  10.715
96620W        W63161  15.663  15.808  13.537
96621W        W63162  16.113  42.519  12.013
96622W        W63163  33.524  37.652  13.969
96623W        W63164   9.229  20.345  12.093
96624W        W63165   4.922   4.864  12.102
96625W        W63166  35.262  27.935  11.107
96626W        W63167   1.314   0.201   0.479
96627W        W63168  16.623   0.442  10.909
96628W        W63169  17.260  21.035   0.824
96629W        W63170  42.985  17.275  14.613
96630W        W63171  15.763  12.894   2.720
96631W        W63172  44.365  16.357   3.119
96632W        W63173   3.709  15.511  10.696
96633W        W63174  26.644  38.604   1.974
96634W        W63175  13.877   7.761   0.004
96635W        W63176  19.570  21.465  11.670
96636W        W63177  33.455  41.905  13.759
96637W        W63178  30.669   2.224   2.237
96638W        W63179  20.115  41.061  14.890
96639W        W63180  12.120   0.453   0.955
96640W        W63181  31.857  11.466  10.233
96641W        W63182  34.310   6.881   4.227
96642W        W63183   0.931  37.775  11.878
96643W        W63184   7.312  25.562   1.740
96644W        W63185   1.188  17.900  10.733
96645W        W63186  23.728  33.959   0.409
96646W        W63187   4.222   0.009   1.705
96647W        W63188  14.183   1.529   1.138
96648W        W63189  14.795  10.679   4.570
96649W        W63190  22.214  28.597  12.820
96650W        W63191  24.426   3.726   1.665
96651W        W63192   2.680   5.040   2.212
96652W        W63193  41.937   6.594  10.635
96653W        W63194  14.601  34.374  14.963
96654W        W63195  17.560  43.332   1.261
96655W        W63196  16.968  17.611   1.923
96656W        W63197  11.282  38.824  12.827
96657W        W63198  15.223  17.669   0.944
96658W        W63199   9.337  21.542  13.079
96659W        W63200  32.588  35.967  10.694
96660W        W63201  37.985  40.067   1.668
96661W        W63202  40.621  18.454   1.270
96662W        W63203   6.116  31.003  13.755
96663W        W63204  42.741  20.242   2.311
96664W        W63205  44.732  20.120  11.200
96665W        W63206  38.097  42.342  11.526
96666W        W63207  15.209   9.087   2.237
96667W        W63208  16.649  41.981   4.069
96668W        W63209  43.514  32.868   4.533
96669W        W63210   7.468  17.813  13.343
96670W        W63211  21.192  38.302  12.899
96671W        W63212  25.386   8.348  10.385
96672W        W63213  28.702  38.356  14.886
96673W        W63214  21.823  25.651  13.591
96674W        W63215  26.504  16.220  12.105
96675W        W63216  26.213  16.607  14.472
96676W        W63217  18.170  26.628   3.049
96677W        W63218   3.389  21.079   1.827
96678W        W63219  29.174  18.866   3.357
96679W        W63220  42.477   9.626   0.062
96680W        W63221  11.794  40.018   5.008
96681W        W63222  10.707  39.886   0.866
96682W        W63223  42.249   5.862  10.725
96683W        W63224  19.533  13.712  14.420
96684W        W63225  33.021  27.747   4.732
96685W        W63226  23.957  30.483  14.961
96686W        W63227   6.832  18.984   2.727
96687W        W63228  40.666  14.559   2.541
96688W        W63229  26.068  23.074   4.228
96689W        W63230   5.112  15.955   0.531
96690W        W63231  38.772  40.650   4.595
96691W        W63232  32.364  30.971  11.679
96692W        W63233  40.354  42.759  12.546
96693W        W63234  15.695  14.390   2.557
96694W        W63235  15.234  32.069  12.270
96695W        W63236   3.765   4.513   4.191
96696W        W63237  38.408  22.110  12.572
96697W        W63238  24.716  14.211  13.527
96698W        W63239  24.908  42.913  12.540
96699W        W63240  28.669  22.395   2.650
96700W        W63241  38.352  39.470  11.420
96701W        W63242  19.721  20.586  11.435
96702W        W63243  30.114  19.549   0.271
96703W        W63244  37.858  24.517   2.010
96704W        W63245  38.977  25.136  14.543
96705W        W63246  44.186  28.181  12.934
96706W        W63247  41.440  24.719   0.983
96707W        W63248  29.739  35.948  11.353
96708W        W63249   3.926  16.785   2.121
96709W        W63250  28.971  21.642   1.988
96710W        W63251  28.359  13.282  14.967
96711W        W63252   5.079  10.285   0.040
96712W        W63253  14.726  28.073  13.212
96713W        W63254  28.750  26.920  13.536
96714W        W63255  11.896  24.708   0.004
96715W        W63256  22.977   8.018   4.593
96716W        W63257  40.587  26.378  13.366
96717W        W63258  30.347  44.614   0.001
96718W        W63259   6.832  32.867   3.312
96719W        W63260   9.447   2.690  13.439
96720W        W63261   0.281  19.816  11.488
96721W        W63262   4.538  28.605   2.453
96722W        W63263  11.676  28.122   0.731
96723W        W63264  13.337   8.864   0.185
96724W        W63265  23.767  17.479   3.800
96725W        W63266   6.874   5.565  14.264
96726W        W63267  36.029  30.585  10.687
96727W        W63268  42.371   6.272  14.052
96728W        W63269  39.539  11.313  11.127
96729W        W63270   6.706  42.516   3.325
96730W        W63271  35.836  29.235   3.644
96731W        W63272  32.862  40.588   0.250
96732W        W63273  36.085  17.698   4.510
96733W        W63274  33.569  11.705  11.695
96734W        W63275  10.746  12.714  11.919
96735W        W63276  36.447  26.541   0.187
96736W        W63277  12.500   5.651   3.769
96737W        W63278   1.137  22.596  11.036
96738W        W63279  40.016  38.457  13.362
96739W        W63280  20.711   3.958   3.299
96740W        W63281  15.186  21.597  13.432
96741W        W63282  19.024  13.551   2.392
96742W        W63283  30.981  20.349   2.716
96743W        W63284  34.758  43.813   1.796
96744W        W63285  15.692  15.548   4.321
96745W        W63286   0.854  11.597  12.888
96746W        W63287   8.823   2.467   2.287
96747W        W63288  16.737  31.005   3.261
96748W        W63289  25.822  25.797  11.192
96749W        W63290  17.111  34.216  10.482
96750W        W63291  30.567  31.097   2.222
96751W        W63292   1.950   0.178   4.031
96752W        W63293  19.972  29.555  14.310
96753W        W63294  17.647  21.745   2.329
96754W        W63295   9.565  35.828   4.823
96755W        W63296  11.934  21.974   2.889
96756W        W63297  17.322   7.390   1.762
96757W        W63298   6.257  16.732   2.436
96758W        W63299  12.902  17.836   4.256
96759W        W63300  34.978  23.957   3.796
96760W        W63301  21.676  12.322  11.991
96761W        W63302  23.401  10.234  11.605
96762W        W63303  27.007  21.022  10.184
96763W        W63304  23.230  42.348   2.317
96764W        W63305  19.200   2.538  11.929
96765W        W63306  35.708   4.789  13.002
96766W        W63307   7.991  44.216  13.974
96767W        W63308  13.807  40.306  13.397
96768W        W63309  10.746   6.343  12.511
96769W        W63310  35.020  35.361   1.000
96770W        W63311  26.973  39.439  11.089
96771W        W63312  37.046  28.277  14.944
96772W        W63313  27.844  22.347   3.166
96773W        W63314  31.199  33.822   4.627
96774W        W63315  22.688  30.420  11.597
96775W        W63316  11.888   9.508   2.387
96776W        W63317   8.387   0.670   0.367
96777W        W63318   5.339   4.003   0.854
96778W        W63319  33.074  39.096  12.702
96779W        W63320  33.039  14.565  11.176
96780W        W63321  19.087  17.194  11.069
96781W        W63322  36.614  44.389   2.033
96782W        W63323  14.662  31.960   3.158
96783W        W63324  16.544  34.621  11.139
96784W        W63325  16.845   7.245   3.753
96785W        W63326   0.452  43.357  10.718
96786W        W63327  39.515  20.872  12.914
96787W        W63328   8.491   5.687   1.802
96788W        W63329  29.943  20.156   1.401
96789W        W63330  24.620   7.702   2.150
96790W        W63331  32.744  38.114  13.496
96791W        W63332   6.004   0.636   4.498
96792W        W63333  10.320  17.333  13.255
96793W        W63334   6.239   2.458   1.454
96794W        W63335   6.865  11.242   2.233
96795W        W63336   0.977  32.568  11.871
96796W        W63337  23.338  18.871   2.376
96797W        W63338   3.673   4.442  14.974
96798W        W63339   7.443  14.600  11.128
96799W        W63340  37.925  18.478   3.683
96800W        W63341  40.758  26.855   3.688
96801W        W63342  30.620   3.734  10.664
96802W        W63343  34.097   2.198  10.747
96803W        W63344   1.965  19.820   0.768
96804W        W63345   9.296  36.756  11.971
96805W        W63346  13.207  26.092   3.840
96806W        W63347  40.426  14.234  12.712
96807W        W63348  17.652  16.185  14.000
96808W        W63349  32.811  41.737  12.926
96809W        W63350   6.640  29.787  11.563
96810W        W63351  43.436  33.313   2.353
96811W        W63352  44.733  41.955  11.584
96812W        W63353  11.203   5.231   2.439
96813W        W63354  16.895   6.402  14.059
96814W        W63355   5.737  27.414   1.350
96815W        W63356  21.034  10.253   9.964
96816W        W63357  32.908  32.145   4.541
96817W        W63358  28.486  28.921  12.538
96818W        W63359  29.619  29.890  12.903
96819W        W63360  18.517  17.544  13.470
96820W        W63361  10.860  27.931  12.423
96821W        W63362  15.598  14.731  13.274
96822W        W63363  21.652  25.976   2.247
96823W        W63364   6.868  43.043   3.211
96824W        W63365   2.322  29.398  13.821
96825W        W63366   3.596  35.500   4.114
96826W        W63367  19.048   3.515   3.384
96827W        W63368  19.710  29.920  12.991
96828W        W63369  13.278  13.787  13.665
96829W        W63370  10.522  34.713   3.196
96830W        W63371  29.051  29.438   1.073
96831W        W63372  12.812  24.615  10.965
96832W        W63373  31.038  11.211  13.257
96833W        W63374  12.280  32.386  13.536
96834W        W63375  40.328  19.530   2.582
96835W        W63376   7.216  43.329  13.519
96836W        W63377  20.409  20.643   3.350
96837W        W63378   2.911  41.937   0.124
96838W        W63379  34.010  12.668   2.206
96839W        W63380  32.019  22.732   0.112
96840W        W63381  28.177  29.129   0.455
96841W        W63382   1.347  24.249  13.497
96842W        W63383   9.787  15.492   3.131
96843W        W63384  39.021   8.266   1.356
96844W        W63385  41.778  31.709  12.031
96845W        W63386   2.500  28.409   2.207
96846W        W63387  21.005   6.143   0.242
96847W        W63388  21.320  40.065   4.789
96848W        W63389   3.162  14.100   0.689
96849W        W63390  28.416   5.747  10.119
96850W        W63391   1.028  35.502   3.222
96851W        W63392  40.310  19.064   2.859
96852W        W63393  11.721  21.702  14.420
96853W        W63394  41.994  22.465   3.037
96854W        W63395  19.670  41.735   5.236
96855W        W63396  22.704  22.023   2.280
96856W        W63397   4.610  25.467  12.858
96857W        W63398   6.975  34.032   2.736
96858W        W63399   6.160  39.475  12.338
96859W        W63400  21.165  33.564   2.641
96860W        W63401  20.663   0.494  10.673
96861W        W63402  37.402  38.952  13.841
96862W        W63403  19.518   1.707   2.154
96863W        W63404   9.778   5.866  10.650
96864W        W63405  42.403  12.350  14.415
96865W        W63406   4.843  12.785  10.703
96866W        W63407  12.345  33.543  11.649
96867W        W63408  10.901  18.045   2.455
96868W        W63409  38.131  23.567   2.851
96869W        W63410  33.174  39.518   3.155
96870W        W63411  43.306  33.129   4.144
96871W        W63412  42.794   0.964  14.454
96872W        W63413   5.654  28.124  14.053
96873W        W63414  26.875   4.740  12.419
96874W        W63415  28.206  13.719  12.872
96875W        W63416  12.028   5.832   3.821
96876W        W63417  15.274  34.714   4.429
96877W        W63418  11.694  20.064  14.447
96878W        W63419  43.128  16.941   4.688
96879W        W63420  44.404  21.575  13.992
96880W        W63421  31.896  26.900   2.665
96881W        W63422  33.056   6.414  12.344
96882W        W63423   3.457   8.266   4.362
96883W        W63424  16.229  35.500   3.260
96884W        W63425  12.227  13.842   1.238
96885W        W63426  35.369   6.475  13.430
96886W        W63427  12.038  14.134   2.146
96887W        W63428   3.712  12.747   4.820
96888W        W63429  40.550  20.733  12.867
96889W        W63430  29.189  32.931   2.299
96890W        W63431  15.628  31.595   2.211
96891W        W63432  13.686   0.201  14.838
96892W        W63433  38.411   7.660  14.803
96893W        W63434   9.555  33.132   2.889
96894W        W63435  38.943  12.530   5.033
96895W        W63436  24.479  27.486   4.132
96896W        W63437   5.482  10.773  12.991
96897W        W63438  43.385   1.399   3.394
96898W        W63439  44.903  12.707  13.287
96899W        W63440  41.710  31.201   4.324
96900W        W63441   6.205   7.610   0.839
96901W        W63442  44.040  36.051   3.253
96902W        W63443   2.840  18.547   2.819
96903W        W63444  18.680  22.227  10.664
96904W        W63445  44.977  43.297  14.384
96905W        W63446   8.292  33.485  11.932
96906W        W63447  22.665   4.770  14.656
96907W        W63448  17.032  20.114  14.348
96908W        W63449  21.708  27.589   1.737
96909W        W63450  28.123  12.757   1.661
96910W        W63451  21.648   1.982   3.592
96911W        W63452  10.907  26.995  11.896
96912W        W63453  24.969   7.058  13.424
96913W        W63454   4.682  37.519   0.767
96914W        W63455   3.469   6.901  10.893
96915W        W63456  33.480  42.183   0.740
96916W        W63457   3.929  19.176   1.789
96917W        W63458  36.611  35.529  14.886
96918W        W63459   9.584  40.153   2.191
96919W        W63460   4.253  35.554   3.469
96920W        W63461   6.411  17.253  11.147
96921W        W63462   7.268  24.164  13.422
96922W        W63463  13.816  25.922  13.161
96923W        W63464  31.946  13.152  13.927
96924W        W63465  36.640  30.925  13.364
96925W        W63466  23.014   8.549   1.319
96926W        W63467   3.751  32.943   0.892
96927W        W63468   2.824  34.651   4.548
96928W        W63469  11.805  34.944   4.867
96929W        W63470   5.852  23.655  12.596
96930W        W63471  28.077  34.520   4.539
96931W        W63472  38.351  12.136  13.698
96932W        W63473  24.671  19.303   1.278
96933W        W63474  29.590   1.989  14.403
96934W        W63475  20.298  26.010  11.441
96935W        W63476  34.844   8.072   2.305
96936W        W63477   4.422   7.335  14.886
96937W        W63478  38.963  16.750  14.871
96938W        W63479   5.263   9.770   3.252
96939W        W63480  33.310  24.800  11.181
96940W        W63481  12.138   7.624  12.977
96941W        W63482  27.781  39.298   0.229
96942W        W63483  42.875  10.925   0.998
96943W        W63484  20.800  30.117   3.777
96944W        W63485   6.155  36.803   4.098
96945W        W63486  44.989  14.343  13.752
96946W        W63487   1.456  10.770  11.150
96947W        W63488   6.909   2.343  11.104
96948W        W63489   6.526  21.724   0.225
96949W        W63490  33.025  35.410   2.385
96950W        W63491   6.998  13.450  11.190
96951W        W63492  12.423   9.340   0.534
96952W        W63493  43.858  38.780   0.809
96953W        W63494   2.291  38.868  14.341
96954W        W63495  13.851  39.559   3.605
96955W        W63496   4.950  37.813  14.269
96956W        W63497   5.868   4.445   2.482
96957W        W63498  33.831   8.586  10.997
96958W        W63499  10.109  36.500  14.164
96959W        W63500  20.621   6.715   3.279
96960W        W63501  19.200   2.230   4.904
96961W        W63502   8.643  11.586   2.289
96962W        W63503  21.071  20.098  11.675
96963W        W63504  34.326  42.102  14.033
96964W        W63505  32.646  34.624  11.465
96965W        W63506   9.333   4.288   4.702
96966W        W63507  28.013  40.256   4.597
96967W        W63508  39.404   0.747   0.380
96968W        W63509   9.893  39.361  13.866
96969W        W63510  25.989  37.356  11.572
96970W        W63511   2.851   7.717   1.354
96971W        W63512  26.983  32.344   2.732
96972W        W63513  43.506  24.742  13.835
96973W        W63514  20.873  37.584  12.424
96974W        W63515   1.792   6.490   0.350
96975W        W63516  12.869   7.721   0.859
96976W        W63517  14.824  17.612  14.400
96977W        W63518  12.748  40.481   2.767
96978W        W63519   7.841   5.748   3.882
96979W        W63520  16.658  36.119  13.267
96980W        W63521   7.785  11.622   1.630
96981W        W63522   7.304   3.741   4.601
96982W        W63523   1.181  13.212   3.917
96983W        W63524  21.687   1.379   0.595
96984W        W63525  38.306   3.356  13.143
96985W        W63526   7.669  23.218   2.326
96986W        W63527  32.078  37.323   0.329
96987W        W63528  44.818  38.374   2.655
96988W        W63529   7.804  38.800  13.373
96989W        W63530  34.768  21.563  10.700
96990W        W63531   0.811  16.212   1.018
96991W        W63532  20.053  37.293   2.979
96992W        W63533  15.851  14.652  14.875
96993W        W63534  32.332  44.362  11.090
96994W        W63535  11.928  15.170  14.042
96995W        W63536  44.257  11.889  14.730
96996W        W63537  21.026  17.722  13.547
96997W        W63538  13.660  39.875   1.290
96998W        W63539   6.443  31.943   0.432
96999W        W63540  30.162   6.507  12.606
97000W        W63541  10.776   4.032  12.972
97001W        W63542   1.721  32.141  12.494
97002W        W63543  21.988  25.132  13.623
97003W        W63544  12.314   5.286   0.817
97004W        W63545  14.060   8.480   3.289
97005W        W63546  39.510  25.494  14.960
97006W        W63547   8.565  43.835   4.817
97007W        W63548  38.264  30.516   0.393
97008W        W63549  16.600  19.146  12.541
97009W        W63550  14.969  43.190  11.563
97010W        W63551   8.316  29.468   0.677
97011W        W63552  12.271  41.244   2.839
97012W        W63553   0.340  11.333   0.910
97013W        W63554  18.122   3.524   4.840
97014W        W63555  31.167   6.215  14.266
97015W        W63556   4.532  40.019  13.538
97016W        W63557  13.683   8.191  14.687
97017W        W63558  29.453  12.255  14.022
97018W        W63559  11.737  35.943   2.228
97019W        W63560  21.528   8.533  12.339
97020W        W63561  18.514   0.884  11.041
97021W        W63562  33.612  40.543  10.621
97022W        W63563  21.947   7.319   2.278
97023W        W63564  42.782  20.279   3.914
97024W        W63565  25.667  18.784  12.806
97025W        W63566  15.158  26.481   0.259
97026W        W63567   3.331  28.450  12.480
97027W        W63568  19.383  36.607   1.043
97028W        W63569  36.981  18.735  12.973
97029W        W63570   1.455   5.214  10.802
97030W        W63571  17.573  39.809   2.903
97031W        W63572  32.450  37.300   4.208
97032W        W63573  43.619  39.016   4.770
97033W        W63574  15.376  11.673  12.307
97034W        W63575  35.894  22.016  12.602
97035W        W63576  22.823  24.581  10.735
97036W        W63577  17.062   8.191  11.191
97037W        W63578   2.253  23.439   1.198
97038W        W63579  24.784  33.645  13.775
97039W        W63580  16.404   6.637  14.839
97040W        W63581  31.398   4.540   3.598
97041W        W63582   8.816  37.307   2.735
97042W        W63583  37.013  28.524   3.734
97043W        W63584  11.750   5.350  10.596
97044W        W63585  21.181   9.248  12.874
97045W        W63586  13.771  26.344  14.031
97046W        W63587  41.499  29.209  14.830
97047W        W63588  11.771  36.051   3.240
97048W        W63589  41.411  10.888  12.666
97049W        W63590  44.602  23.010   4.305
97050W        W63591   4.816  23.559  13.323
97051W        W63592  19.532  25.110  10.780
97052W        W63593  18.032  19.770   1.071
97053W        W63594  14.688  13.271  12.143
97054W        W63595  28.247  11.903  11.200
97055W        W63596  30.905  32.145  12.874
97056W        W63597  21.780  24.538   1.834
97057W        W63598  16.541   1.423   1.343
97058W        W63599  35.943  13.816   3.346
97059W        W63600  40.084  12.021   1.757
97060W        W63601  28.653  18.302   3.751
97061W        W63602  31.500   5.923  11.389
97062W        W63603  39.312  39.909  14.907
97063W        W63604  39.323   8.148  13.829
97064W        W63605   3.556   6.871  14.423
97065W        W63606  41.927  30.669   3.270
97066W        W63607   9.316  11.795  14.979
97067W        W63608  13.191  38.451   2.011
97068W        W63609  28.568   3.220  13.344
97069W        W63610  44.159  19.259  11.647
97070W        W63611  31.058  44.216  10.553
97071W        W63612  32.538  43.723   0.202
97072W        W63613   6.908  22.561  12.115
97073W        W63614   2.861  32.103  12.555
97074W        W63615   3.599  25.882   1.347
97075W        W63616  27.410  12.641   2.941
97076W        W63617  30.583  36.643  13.292
97077W        W63618   7.362  36.754   3.573
97078W        W63619   4.876  25.902  11.577
97079W        W63620   0.448  27.429   3.207
97080W        W63621   7.946   6.478  11.099
97081W        W63622  11.406  13.729   1.178
97082W        W63623  30.955  39.060  14.395
97083W        W63624  12.412   9.264   1.359
97084W        W63625   6.779   9.447  13.134
97085W        W63626  12.211  15.651   4.319
97086W        W63627  15.062  34.253   4.364
97087W        W63628  19.766   5.115   1.869
97088W        W63629   4.348  43.324   3.331
97089W        W63630  41.053  18.983   4.188
97090W        W63631   5.787  14.889  12.141
97091W        W63632  38.988   8.124   4.733
97092W        W63633  16.120   6.118   0.452
97093W        W63634  17.859  20.297  14.011
97094W        W63635  13.677  26.879  14.001
97095W        W63636  15.770  10.095   3.175
97096W        W63637  17.272  28.434  11.299
97097W        W63638  38.543   5.880  13.364
97098W        W63639   1.582  34.318  14.188
97099W        W63640  21.668  12.538  13.468
97100W        W63641  37.610   1.479  11.962
97101W        W63642  22.153  23.629   2.235
97102W        W63643  42.221  27.031  14.939
97103W        W63644  33.886  25.721   3.677
97104W        W63645  37.430   6.409  12.671
97105W        W63646   3.146  25.785  11.870
97106W        W63647  32.072  41.416  10.780
97107W        W63648   2.578  44.986  14.257
97108W        W63649  39.830  31.374  11.266
97109W        W63650  34.487  20.236   3.306
97110W        W63651  29.951  27.316   3.696
97111W        W63652  28.713  24.982   1.242
97112W        W63653  40.141   2.555  12.134
97113W        W63654  35.397  23.206  13.470
97114W        W63655  11.552   6.365   2.695
97115W        W63656  30.605  41.841  11.373
97116W        W63657  43.780  18.627  11.096
97117W        W63658  22.269  18.331   2.323
97118W        W63659   5.510  27.151  11.487
97119W        W63660  14.278  35.802  13.873
97120W        W63661   4.067   6.213  14.871
97121W        W63662  15.735  28.154  12.100
97122W        W63663  22.780  44.893   1.355
97123W        W63664  11.935  42.603   4.468
97124W        W63665  31.949  10.306   1.252
97125W        W63666   2.806   6.936  14.961
97126W        W63667  29.058  34.875   4.064
97127W        W63668  36.826   0.984   2.665
97128W        W63669   8.657   5.213  13.030
97129W        W63670   0.000  41.316   3.061
97130W        W63671  15.974  21.648   3.649
97131W        W63672  13.321  27.441  14.786
97132W        W63673   2.314  12.882   4.034
97133W        W63674   7.486  28.914  12.531
97134W        W63675  17.963   4.985   4.408
97135W        W63676  35.026  21.078   0.668
97136W        W63677  29.575  44.284  12.541
97137W        W63678  21.469  43.046   1.440
97138W        W63679  31.001  40.478  10.260
97139W        W63680  37.003   2.656  11.847
97140W        W63681  27.106  16.109  10.519
97141W        W63682   9.108  14.131   3.127
97142W        W63683  40.513  41.025   2.363
97143W        W63684  28.303  29.348  14.973
97144W        W63685   0.815  32.672   0.926
97145W        W63686  35.351  41.992   2.909
97146W        W63687  19.259  36.134   1.267
97147W        W63688   9.445  32.411   2.933
97148W        W63689  28.848  32.262   4.011
97149W        W63690  28.239   6.244  10.655
97150W        W63691  26.685  36.804   1.290
97151W        W63692  33.639  15.348   3.295
97152W        W63693   5.796  15.514  12.027
97153W        W63694  40.390  32.623  13.061
97154W        W63695   7.775  34.031  10.671
97155W        W63696  37.585  16.493  11.917
97156W        W63697  21.475  38.404   4.268
97157W        W63698  10.582   7.324   4.952
97158W        W63699   8.136  29.059   2.421
97159W        W63700  23.010  14.007   0.848
97160W        W63701  42.428  15.764  14.481
97161W        W63702  22.570  41.274   0.568
97162W        W63703  27.482   1.217   3.688
97163W        W63704   7.236  31.344   3.626
97164W        W63705   1.447  42.447  13.726
97165W        W63706   3.674  34.540  14.371
97166W        W63707   2.009  23.018   0.316
97167W        W63708   4.475   8.446   3.495
97168W        W63709  33.590  42.911   3.167
97169W        W63710  11.376   1.357   0.293
97170W        W63711  44.823   5.616  10.719
97171W        W63712  32.947  33.644   3.829
97172W        W63713   1.591  29.905   4.659
97173W        W63714  32.673   3.774  10.324
97174W        W63715  42.126  38.853   4.907
97175W        W63716  26.917  16.127  14.853
97176W        W63717  39.538  35.355   2.266
97177W        W63718  14.314  15.211   1.513
97178W        W63719  44.550  38.026   1.733
97179W        W63720  11.293   2.715   3.091
97180W        W63721  24.187  25.489  14.886
97181W        W63722   0.399  13.144  12.462
97182W        W63723   8.124  29.489   4.570
97183W        W63724  37.101  36.371   2.705
97184W        W63725  30.104  33.498   0.269
97185W        W63726  41.962   4.363  12.562
97186W        W63727  14.284  44.956   4.915
97187W        W63728  19.592  39.587   2.836
97188W        W63729  31.554  27.743  12.514
97189W        W63730   4.974   1.080  11.641
97190W        W63731  41.072  43.929   3.384
97191W        W63732  32.056   3.785  11.875
97192W        W63733  38.475   7.471   4.257
97193W        W63734  42.038  14.727   2.219
97194W        W63735  41.530  29.936   1.360
97195W        W63736  24.164  32.092   2.424
97196W        W63737  37.946  26.149   0.253
97197W        W63738  39.539  14.837   1.220
97198W        W63739  32.265  11.845   0.353
97199W        W63740  29.553  18.091   3.874
97200W        W63741  41.220  34.411  14.825
97201W        W63742   5.657  40.286  11.657
97202W        W63743  20.252   1.032  11.754
97203W        W63744  30.085  35.343  14.401
97204W        W63745  27.022  16.862   2.705
97205W        W63746  27.494   3.977  13.931
97206W        W63747  37.161  31.022  13.270
97207W        W63748   0.752   7.163  14.844
97208W        W63749  14.058   1.037   3.543
97209W        W63750  42.769  11.169   4.304
97210W        W63751  22.185  36.351   0.982
97211W        W63752  17.819   3.533  12.569
97212W        W63753  17.032  29.651   0.469
97213W        W63754  10.659  12.362   3.229
97214W        W63755   7.289  28.663   0.552
97215W        W63756  16.643  39.040  11.937
97216W        W63757  38.531   5.379   1.324
97217W        W63758   9.193   0.200  14.405
97218W        W63759  11.903  25.971  13.915
97219W        W63760  33.065   8.180  13.849
97220W        W63761  27.155  40.202  12.408
97221W        W63762  23.253  35.607   0.524
97222W        W63763  35.507  28.929   4.535
97223W        W63764  36.322  37.539  12.071
97224W        W63765  41.405  19.089  13.411
97225W        W63766  22.456  34.509   1.753
97226W        W63767   0.857  40.046   4.888
97227W        W63768   0.828  39.978   3.866
97228W        W63769   4.634  22.599  13.826
97229W        W63770  40.396  36.961  13.482
97230W        W63771   4.777  38.181  11.597
97231W        W63772  30.409  11.607   3.991
97232W        W63773  42.774   7.806  12.469
97233W        W63774  34.124   0.312  12.218
97234W        W63775   5.135   6.541   2.601
97235W        W63776   2.783  38.098   1.302
97236W        W63777  22.293  13.068   5.184
97237W        W63778  10.128  41.393  14.842
97238W        W63779  24.189  20.794   1.024
97239W        W63780  25.406  15.213  12.489
97240W        W63781  44.871  19.137   1.330
97241W        W63782  11.038  42.756  10.123
97242W        W63783  38.526   8.807   4.871
97243W        W63784  30.000   7.290  13.904
97244W        W63785  17.735  36.122   1.404
97245W        W63786  15.036  32.636   0.254
97246W        W63787  40.994  13.794   0.703
97247W        W63788  37.320  12.775   0.856
97248W        W63789  28.420  17.826  12.308
97249W        W63790  23.753  41.499   1.370
97250W        W63791  12.019   6.854   1.953
97251W        W63792  41.988  43.492   3.584
97252W        W63793  39.395  15.221  10.645
97253W        W63794  18.565  33.397   2.168
97254W        W63795  10.351  19.262  11.021
97255W        W63796  35.886  39.265   2.887
97256W        W63797   4.066  44.754   3.398
97257W        W63798  37.096   3.785   2.162
97258W        W63799  43.867  15.547   3.214
97259W        W63800  41.432  22.173  10.969
97260W        W63801  19.196   5.960   4.237
97261W        W63802  34.609  11.274   3.643
97262W        W63803   4.485  30.669   2.181
97263W        W63804  27.133  34.389   2.595
97264W        W63805   8.382  23.680   2.518
97265W        W63806  20.681  33.318   1.348
97266W        W63807  31.901  27.760   2.271
97267W        W63808  25.041  27.876  10.776
97268W        W63809   1.969  34.392   2.154
97269W        W63810  11.852  27.923  12.541
97270W        W63811  20.816  36.623   0.961
97271W        W63812  23.763  32.955  13.567
97272W        W63813  11.206  19.937  12.080
97273W        W63814  21.438  36.019   4.083
97274W        W63815  30.198  39.988   0.997
97275W        W63816  44.484  30.406  12.085
97276W        W63817   7.932  19.084  14.741
97277W        W63818  24.773   5.908   1.898
97278W        W63819  14.343   1.177   0.805
97279W        W63820  20.795   2.737  14.501
97280W        W63821  36.631  20.811   3.553
97281W        W63822  11.001  23.363   0.641
97282W        W63823  36.570  37.223  11.151
97283W        W63824  35.874   9.442  10.782
97284W        W63825  18.596  36.169  10.781
97285W        W63826   4.066   3.281  14.276
97286W        W63827   4.274   2.986   3.585
97287W        W63828  37.293  37.002   1.105
97288W        W63829  14.327  21.027   2.233
97289W        W63830  44.367  17.330   2.222
97290W        W63831  17.896  22.104   1.517
97291W        W63832  44.466  25.642   0.953
97292W        W63833  17.794   8.268  13.944
97293W        W63834  24.029  33.143  10.873
97294W        W63835  30.036  33.544  14.701
97295W        W63836  44.291   1.201  10.428
97296W        W63837   5.832  19.113  11.560
97297W        W63838  12.352  21.820   0.365
97298W        W63839  13.616  41.490   0.314
97299W        W63840  21.261  39.159  12.480
97300W        W63841  29.137  35.015  12.019
97301W        W63842  41.479  38.372  13.270
97302W        W63843  29.561   1.728   1.626
97303W        W63844  38.859  41.735   3.787
97304W        W63845  37.504  40.648  11.412
97305W        W63846  43.945   8.541   4.290
97306W        W63847  30.842  22.257  11.982
97307W        W63848   1.302  39.116   4.245
97308W        W63849  15.271  26.935   0.014
97309W        W63850   3.745  24.143  12.318
97310W        W63851  32.103  40.976   1.567
97311W        W63852  30.173   2.233   1.362
97312W        W63853  19.784   8.201  12.876
97313W        W63854  18.001  33.899  11.626
97314W        W63855  39.070  28.309   4.101
97315W        W63856  33.129  12.538  11.017
97316W        W63857  33.403  13.088  10.254
97317W        W63858  12.410  34.461  11.554
97318W        W63859   3.327  17.077   2.127
97319W        W63860  12.089  16.688   2.432
97320W        W63861  14.202  22.539  12.644
97321W        W63862  23.092  30.663   0.924
97322W        W63863  18.623  43.258  10.798
97323W        W63864  44.534  32.086  12.458
97324W        W63865   1.346  18.737   2.963
97325W        W63866  28.611  15.394  10.675
97326W        W63867  43.291   3.212   0.751
97327W        W63868  23.147  22.678   2.796
97328W        W63869   0.898   4.683   3.206
97329W        W63870  14.891  35.105   1.277
97330W        W63871  35.579  23.097   4.453
97331W        W63872  38.858  15.038  12.553
97332W        W63873  17.086  18.814   9.937
97333W        W63874  29.672  32.430  11.628
97334W        W63875  23.187  27.126   0.186
97335W        W63876   8.759  33.010   0.722
97336W        W63877   4.772  28.115  12.791
97337W        W63878   6.415  37.979   2.627
97338W        W63879  44.405  24.699   4.125
97339W        W63880   9.855  32.054  13.563
97340W        W63881  41.145  25.282   0.480
97341W        W63882  23.774  26.609  13.485
97342W        W63883   7.226  24.591   4.942
97343W        W63884  16.050   9.664  14.079
97344W        W63885  27.412  38.599   1.185
97345W        W63886   1.757  23.047   3.162
97346W        W63887  41.016  28.887   2.242
97347W        W63888  26.995  38.460  13.369
97348W        W63889  13.294  44.293   2.955
97349W        W63890  15.844  16.776   2.076
97350W        W63891  42.503  16.285   1.149
97351W        W63892  35.231   3.598   4.434
97352W        W63893  32.643  34.248  12.442
97353W        W63894   4.268   7.816   4.226
97354W        W63895  41.574  13.802  12.111
97355W        W63896  38.597  17.661  13.261
97356W        W63897  37.197  32.567  11.644
97357W        W63898  15.132  43.921   1.346
97358W        W63899  39.199  37.913   1.757
97359W        W63900  11.788  20.939  14.907
97360W        W63901  22.159  22.168  12.338
97361W        W63902  39.465  17.610   0.694
97362W        W63903  26.491  10.615  13.062
97363W        W63904  37.499   6.413   4.543
97364W        W63905   7.127   9.662  11.909
97365W        W63906  16.067  35.627  13.599
97366W        W63907  32.041  22.054   4.559
97367W        W63908   4.346   0.669   4.606
97368W        W63909  21.461   9.255  14.363
97369W        W63910  38.193  42.289  10.621
97370W        W63911  18.013   7.429  11.091
97371W        W63912  12.148  42.996   3.467
97372W        W63913  21.100  11.353   4.678
97373W        W63914  12.611  32.435   0.303
97374W        W63915   0.406  42.905  10.997
97375W        W63916  30.339   0.910   4.107
97376W        W63917  39.603  29.664  13.794
97377W        W63918  44.282  22.503  13.797
97378W        W63919  30.702   9.112   0.245
97379W        W63920  28.056  30.793   4.258
97380W        W63921  34.561  12.577  12.006
97381W        W63922  35.627  15.304  13.041
97382W        W63923  13.077   3.957   1.036
97383W        W63924   1.901   5.661  11.580
97384W        W63925   5.414   9.356  12.868
97385W        W63926  10.429  23.666   1.442
97386W        W63927  20.952   3.348  12.482
97387W        W63928  24.520  39.569   4.468
97388W        W63929  23.508  34.149  14.056
97389W        W63930  16.696   7.832  12.716
97390W        W63931  37.376   2.129   2.715
97391W        W63932  23.161  38.459   3.219
97392W        W63933  13.161   2.254  11.074
97393W        W63934   4.819  26.558   2.699
97394W        W63935   0.017   7.677   4.571
97395W        W63936  39.546  39.987  12.190
97396W        W63937   4.847  20.032  11.173
97397W        W63938  11.926  44.311   0.426
97398W        W63939  15.278  33.739  10.992
97399W        W63940   0.107   5.826  12.833
97400W        W63941  44.855  28.916   1.857
97401W        W63942  39.523   4.835  14.287
97402W        W63943  29.411  27.247   1.989
97403W        W63944   1.795  43.237  11.163
97404W        W63945   5.771  42.689  12.527
97405W        W63946   5.849   6.246   3.560
97406W        W63947   0.153   6.889  10.991
97407W        W63948  43.045   2.440  14.999
97408W        W63949  29.464  10.869  12.621
97409W        W63950  20.956   4.770   0.817
97410W        W63951  10.384  29.563  14.078
97411W        W63952  15.604  18.505  11.523
97412W        W63953  32.982  19.978   3.351
97413W        W63954   9.678  42.736  14.362
97414W        W63955   4.399  25.726  11.946
97415W        W63956  13.286  41.868  14.239
97416W        W63957  22.519  14.702  12.828
97417W        W63958   6.354   0.942  11.608
97418W        W63959  18.832  37.003   0.286
97419W        W63960  40.995   6.363   0.755
97420W        W63961  13.739  32.100   3.661
97421W        W63962  27.619   5.218   0.927
97422W        W63963  12.358  37.090   3.619
97423W        W63964  15.974   4.635  10.221
97424W        W63965  21.282  38.342  12.101
97425W        W63966  13.132  26.201   1.465
97426W        W63967  27.094  13.639   1.391
97427W        W63968   9.664  18.062   3.040
97428W        W63969  11.805   6.454   0.001
97429W        W63970  41.113  15.646   2.782
97430W        W63971   3.522  32.234   5.465
97431W        W63972   4.158  17.553   0.217
97432W        W63973  25.886  24.740   5.039
97433W        W63974  15.215  42.549   0.762
97434W        W63975  23.464  31.648   3.153
97435W        W63976  13.152   7.909   0.315
97436W        W63977  31.553  28.654  14.211
97437W        W63978   9.636  28.596  14.086
97438W        W63979  15.703  42.858   5.053
97439W        W63980   8.684  12.209  10.719
97440W        W63981  37.054  25.329  11.252
97441W        W63982  11.811   2.624  11.133
97442W        W63983  24.066  30.198   0.407
97443W        W63984  13.139  33.177   4.021
97444W        W63985   0.498   9.451  10.753
97445W        W63986  42.358  43.977   2.766
97446W        W63987   8.796  20.418  12.400
97447W        W63988  28.939   1.192  13.291
97448W        W63989  29.504  11.731   0.899
97449W        W63990  23.591  41.369  13.387
97450W        W63991  24.007  25.157   2.570
97451W        W63992   7.509  44.668   3.619
97452W        W63993  12.680  36.808  14.502
97453W        W63994  34.799  17.656   3.984
97454W        W63995  25.534  43.914   1.735
97455W        W63996  36.753   7.353   3.799
97456W        W63997  28.574  41.448   2.308
97457W        W63998   8.738  39.830   3.187
97458W        W63999  36.156  31.626   0.873
97459W        W64000  13.382  17.258  14.530
97460W        W64001  34.125  35.509   1.359
97461W        W64002   8.749  35.987   0.296
97462W        W64003  24.161  40.250   1.737
97463W        W64004  29.719  32.549   1.270
97464W        W64005   1.882  13.734  12.938
97465W        W64006   1.277  35.141  13.595
97466W        W64007  39.339  24.498   0.306
97467W        W64008  41.420  43.222   0.785
97468W        W64009  15.706  23.537  13.852
97469W        W64010  24.086  38.583   0.332
97470W        W64011  15.090   7.946  11.887
97471W        W64012  15.763  29.364  10.701
97472W        W64013  31.537  32.528   4.443
97473W        W64014  41.435  27.503  11.655
97474W        W64015   4.385  42.410  12.631
97475W        W64016  17.613  42.959  12.413
97476W        W64017  31.942  28.514   4.934
97477W        W64018  39.595   3.721  14.061
97478W        W64019  39.453  43.951  10.790
97479W        W64020  11.741  28.698   2.430
97480W        W64021   0.838   9.075   4.133
97481W        W64022  21.366  39.896   3.739
97482W        W64023  34.149   9.539  11.893
97483W        W64024  20.154  38.469   1.930
97484W        W64025  28.561  22.016  10.657
97485W        W64026   4.051  32.536  11.120
97486W        W64027  25.134  41.813   2.006
97487W        W64028  24.547  44.896   4.658
97488W        W64029  31.572  23.685   1.761
97489W        W64030   1.446  22.415  12.776
97490W        W64031  25.638   9.923   3.775
97491W        W64032  39.974  40.928   1.217
97492W        W64033  15.215   6.945   2.849
97493W        W64034  39.888  28.464  11.600
97494W        W64035  17.755  24.930   1.027
97495W        W64036  21.567  44.503  11.723
97496W        W64037  21.010  28.553   2.189
97497W        W64038  15.752   7.940  14.457
97498W        W64039   8.267   4.940   2.439
97499W        W64040  34.489  21.387  10.306
97500W        W64041  35.124  18.610   2.298
97501W        W64042   2.717  34.301   9.775
97502W        W64043   4.418  10.943   1.766
97503W        W64044  30.412  31.561  12.315
97504W        W64045  32.203  40.425  10.733
97505W        W64046  35.234  39.937   0.343
97506W        W64047  25.872  24.460  11.985
97507W        W64048  12.278   4.726   3.011
97508W        W64049  15.898  12.595   1.892
97509W        W64050  43.808   6.676  10.685
97510W        W64051  13.235  17.620  11.525
97511W        W64052  31.620  12.097   2.740
97512W        W64053  10.672  13.732   3.196
97513W        W64054   7.480   8.619   3.313
97514W        W64055   7.326  36.217   5.016
97515W        W64056  29.919  14.850   1.382
97516W        W64057  34.130  31.005  12.424
97517W        W64058   7.996  15.588  10.017
97518W        W64059   9.193  32.321  10.739
97519W        W64060  30.226  34.982   3.832
97520W        W64061  17.481  15.599  12.419
97521W        W64062  42.796  30.669   4.588
97522W        W64063  39.244  36.405   0.386
97523W        W64064   8.350  38.002  10.682
97524W        W64065   7.464  17.552  13.783
97525W        W64066  11.379  23.030   0.448
97526W        W64067  24.903   6.748   1.249
97527W        W64068  28.861  42.076   0.139
97528W        W64069  18.045  25.967  14.006
97529W        W64070  37.329  36.531   4.918
97530W        W64071  31.988  21.646   0.683
97531W        W64072  41.279  10.916  13.152
97532W        W64073  20.680  22.744  13.279
97533W        W64074  42.388  28.105   0.030
97534W        W64075  23.901  27.211   2.702
97535W        W64076  32.030   8.076  11.749
97536W        W64077  15.688   5.130   4.764
97537W        W64078  38.301  26.156   4.187
97538W        W64079  31.666  12.315   3.242
97539W        W64080   4.181  21.927  13.442
97540W        W64081   7.364  32.107  12.607
97541W        W64082  14.777  39.904  12.666
97542W        W64083  42.778  40.952  10.960
97543W        W64084  16.167  41.543   4.789
97544W        W64085   9.696  11.120   3.153
97545W        W64086  27.185  15.167  12.648
97546W        W64087  15.096  44.715   2.877
97547W        W64088  29.751   5.470  12.495
97548W        W64089  19.208  34.126  12.850
97549W        W64090  33.460  37.731   1.153
97550W        W64091  11.063   5.530   1.132
97551W        W64092  18.566   4.809   1.157
97552W        W64093  23.560  18.216  13.286
97553W        W64094  33.001  29.351   4.594
97554W        W64095   6.339  12.666   2.893
97555W        W64096   8.140  41.604   3.714
97556W        W64097   2.381   0.087   4.278
97557W        W64098  10.848  29.980   4.808
97558W        W64099  17.283  34.931  13.026
97559W        W64100  33.264  11.382  14.507
97560W        W64101  25.805  20.203   4.511
97561W        W64102  41.534   4.807   2.211
97562W        W64103  11.338  31.396  10.871
97563W        W64104  39.458   5.411  14.324
97564W        W64105  21.504  31.461   2.368
97565W        W64106   3.064  22.081  13.658
97566W        W64107  15.132  28.529  14.326
97567W        W64108  44.251  25.793  10.971
97568W        W64109  36.844  29.643   0.050
97569W        W64110  36.183  10.603   1.310
97570W        W64111   0.179  19.705   1.934
97571W        W64112   5.137  41.848   3.669
97572W        W64113  10.219   8.641   0.534
97573W        W64114  44.629  20.328  10.724
97574W        W64115  37.357  27.213   2.456
97575W        W64116  29.189   8.656   2.470
97576W        W64117   4.882  14.174   0.498
97577W        W64118  39.623  38.654   1.208
97578W        W64119  41.884  23.292   3.745
97579W        W64120  12.417  42.257  14.367
97580W        W64121  12.140  25.963   2.408
97581W        W64122   0.175  41.576   2.635
97582W        W64123  15.735  38.433   0.994
97583W        W64124   7.276  32.445   1.280
97584W        W64125  12.458   5.742  11.109
97585W        W64126   7.824  28.751  11.978
97586W        W64127  30.378  16.507  12.028
97587W        W64128  27.627  44.761   0.375
97588W        W64129  30.065  14.247  12.044
97589W        W64130  31.971  17.943   1.753
97590W        W64131  39.998   2.409   4.077
97591W        W64132  34.778  32.619   4.710
97592W        W64133  30.603  19.216  14.955
97593W        W64134  11.720   3.802   4.851
97594W        W64135   3.437  39.944   3.788
97595W        W64136  44.318  13.786   2.197
97596W        W64137  30.052  10.117   1.826
97597W        W64138  18.029  28.655   4.509
97598W        W64139   1.283  21.966   2.655
97599W        W64140  19.656   2.269   0.745
97600W        W64141  41.539  23.283   0.926
97601W        W64142   2.919  12.693   0.262
97602W        W64143  29.656   1.942   5.081
97603W        W64144  17.721  18.959  11.865
97604W        W64145  21.718  37.574   3.432
97605W        W64146   4.339  12.107   3.103
97606W        W64147   7.156   1.180   0.330
97607W        W64148   7.849  17.286  12.712
97608W        W64149  18.741   8.634   4.093
97609W        W64150  41.462  16.783   2.172
97610W        W64151  24.839  11.495   2.329
97611W        W64152  10.703  30.481   2.713
97612W        W64153   4.399  42.388  11.505
97613W        W64154  25.459  31.025   1.696
97614W        W64155   6.960   0.344   1.461
97615W        W64156  30.047  17.362   3.838
97616W        W64157  36.000  34.444  10.480
97617W        W64158  41.739  37.805  10.779
97618W        W64159  17.682   1.646   2.763
97619W        W64160  10.258  42.253   2.871
97620W        W64161  42.714  19.158  10.606
97621W        W64162  12.201  33.873   4.656
97622W        W64163  25.279  14.521   3.751
97623W        W64164   0.741  38.006   1.150
97624W        W64165  31.889  41.549  11.227
97625W        W64166   2.427   5.902  10.779
97626W        W64167  31.966  29.443  13.747
97627W        W64168  37.516  13.151   1.158
97628W        W64169   5.335   6.924  11.971
97629W        W64170  23.307  43.240  14.925
97630W        W64171   0.985   2.821   0.673
97631W        W64172  11.808  28.552  10.933
97632W        W64173  23.676  17.079  14.862
97633W        W64174  19.076   7.724   1.462
97634W        W64175  16.961  17.509  10.146
97635W        W64176  38.924  23.685   4.637
97636W        W64177   8.681  37.855   4.981
97637W        W64178  36.654   2.400  13.469
97638W        W64179  32.899  11.360  14.854
97639W        W64180  36.358  43.034   2.316
97640W        W64181  15.399  27.211   3.419
97641W        W64182   9.053  31.820   4.176
97642W        W64183  20.104  23.576   0.704
97643W        W64184  21.717   2.803   1.681
97644W        W64185  27.713  21.592  12.465
97645W        W64186  35.569  42.010   0.396
97646W        W64187  23.504  25.432  12.986
97647W        W64188  10.148  22.196  10.718
97648W        W64189   0.950  24.419  10.972
97649W        W64190  24.853  44.912  11.354
97650W        W64191  10.762   7.631   1.193
97651W        W64192  21.459  21.705  10.500
97652W        W64193  10.888  16.279  13.803
97653W        W64194  20.207  20.721   2.099
97654W        W64195  11.106  18.033   1.591
97655W        W64196   3.221   7.627   1.737
97656W        W64197   8.325  21.269   1.183
97657W        W64198  36.512  42.653  14.421
97658W        W64199  28.510  27.522  10.735
97659W        W64200  43.330  43.976   2.370
97660W        W64201  12.638  18.750  12.175
97661W        W64202  35.176  39.382  10.414
97662W        W64203   5.337  44.382   1.946
97663W        W64204  21.530   2.478   1.272
97664W        W64205  40.225  44.262   0.470
97665W        W64206  33.895   9.575   2.636
97666W        W64207   1.415  39.299   3.778
97667W        W64208  42.961  43.828   1.392
97668W        W64209  44.994  36.580  12.535
97669W        W64210   3.777   1.140  11.136
97670W        W64211  17.945  41.354   3.136
97671W        W64212  34.347  15.992  12.272
97672W        W64213  23.635   7.766   1.755
97673W        W64214  12.800  22.015   1.821
97674W        W64215  39.658  44.458   1.993
97675W        W64216   1.729  26.865  11.867
97676W        W64217  21.192  11.228  14.431
97677W        W64218  27.419  21.950   4.380
97678W        W64219  34.874   9.561  11.540
97679W        W64220   4.452  19.219   1.793
97680W        W64221  42.224  23.091  13.346
97681W        W64222   5.760  44.144   0.716
97682W        W64223  12.819  14.822   3.022
97683W        W64224  31.618  16.182  13.067
97684W        W64225   4.597  14.302   1.842
97685W        W64226  43.980  22.263  10.738
97686W        W64227  37.462  24.598   4.093
97687W        W64228  40.357  23.409  11.985
97688W        W64229   2.146  21.713   4.858
97689W        W64230  17.904  38.744   3.690
97690W        W64231  25.185  42.328   1.891
97691W        W64232   2.090  25.332   4.906
97692W        W64233  31.383  15.064  12.023
97693W        W64234   6.093  11.634   3.060
97694W        W64235   1.982  37.076   3.692
97695W        W64236  42.563   8.596  13.582
97696W        W64237  32.056  44.378   5.072
97697W        W64238   9.756  11.213  13.929
97698W        W64239  40.346  28.007  12.985
97699W        W64240  16.556  11.825   1.428
97700W        W64241  22.128  34.265  11.857
97701W        W64242  17.872   0.833   2.613
97702W        W64243   0.803  31.946  13.462
97703W        W64244  14.218   0.278   2.167
97704W        W64245  18.477  14.997   2.208
97705W        W64246  36.093  19.853  11.975
97706W        W64247  16.249  10.229  12.374
97707W        W64248  32.317  10.151  14.007
97708W        W64249  32.988  35.023  11.390
97709W        W64250  13.610  38.275  14.894
97710W        W64251  34.217  32.932   3.735
97711W        W64252  32.625   2.729   2.359
97712W        W64253  12.143   0.809   2.752
97713W        W64254  35.257  28.521  12.307
97714W        W64255  14.799  33.874   0.899
97715W        W64256  26.042  25.964  12.873
97716W        W64257   0.389  40.498  13.308
97717W        W64258  44.026  10.795  12.635
97718W        W64259  44.286   6.232   4.022
97719W        W64260  23.319  40.872  11.525
97720W        W64261  10.222  44.494   0.233
97721W        W64262  38.258  39.085  12.866
97722W        W64263   8.803  18.281  11.492
97723W        W64264  35.647  32.314  14.475
97724W        W64265  14.768  33.053   4.125
97725W        W64266  25.482   7.779  13.550
97726W        W64267   3.846  30.176   4.287
97727W        W64268  23.219  21.062   0.251
97728W        W64269  43.432  43.996  10.507
97729W        W64270   1.287  14.655  14.675
97730W        W64271   8.898  21.067   0.366
97731W        W64272  11.820   0.258  13.318
97732W        W64273  43.705  26.454   1.230
97733W        W64274  10.976   1.797   4.167
97734W        W64275  11.309  25.018  14.325
97735W        W64276  22.427  31.586  12.887
97736W        W64277  13.371  16.148  13.741
97737W        W64278   6.730   0.214  13.416
97738W        W64279  27.064  23.556   2.780
97739W        W64280  29.002   7.815   5.034
97740W        W64281  40.576  34.617   2.752
97741W        W64282  42.273  11.147   1.433
97742W        W64283  11.309  44.223  12.440
97743W        W64284  12.838  32.962  13.955
97744W        W64285   2.833  36.708   1.444
97745W        W64286  44.617  17.260   2.739
97746W        W64287  28.155   0.776   4.602
97747W        W64288  43.290  27.558   0.861
97748W        W64289  27.007  17.722   3.222
97749W        W64290   0.750  33.613  10.699
97750W        W64291  13.832  44.988   2.477
97751W        W64292  35.050  41.262  11.698
97752W        W64293  23.606  26.783   2.604
97753W        W64294  23.088  40.786   3.370
97754W        W64295  26.208   6.461   2.805
97755W        W64296  32.624  22.947   0.399
97756W        W64297  30.507  33.897   2.345
97757W        W64298  33.448   2.918   0.765
97758W        W64299   4.326  16.366  12.090
97759W        W64300   6.556   8.588   2.626
97760W        W64301  41.274  34.485   2.151
97761W        W64302  17.142  17.866  14.210
97762W        W64303  24.779  34.889   1.747
97763W        W64304  16.589  16.941  14.846
97764W        W64305  22.140  16.344  13.430
97765W        W64306  22.735  21.447  11.970
97766W        W64307  30.361  42.576   3.350
97767W        W64308  40.372  29.157  11.706
97768W        W64309   7.955  33.493  14.419
97769W        W64310  42.841  36.845   3.748
97770W        W64311  41.325  18.338  12.343
97771W        W64312   0.684  35.600  12.489
97772W        W64313   9.061  17.991   0.820
97773W        W64314  30.527  44.410  10.670
97774W        W64315  30.998  12.308   3.647
97775W        W64316  10.365  28.061   4.288
97776W        W64317   2.002  12.916  12.065
97777W        W64318  44.928  14.243   2.292
97778W        W64319  18.447  17.518  12.929
97779W        W64320  31.284   2.898  12.914
97780W        W64321   7.545  40.576  11.544
97781W        W64322   9.228  10.213  11.038
97782W        W64323   0.882   2.910   3.066
97783W        W64324   9.206  15.001   0.400
97784W        W64325  37.833  17.119   3.686
97785W        W64326  29.648  35.680   2.683
97786W        W64327  13.837  28.526  14.787
97787W        W64328  37.754   1.882   2.432
97788W        W64329  25.575  21.615   0.559
97789W        W64330  39.445  23.972   1.680
97790W        W64331   2.951  35.671   4.618
97791W        W64332  41.305  26.797   2.745
97792W        W64333  17.054  35.182  11.744
97793W        W64334  13.114  32.941   4.485
97794W        W64335  18.651  31.531  12.864
97795W        W64336  10.252  32.206   2.000
97796W        W64337  30.841  11.795   0.674
97797W        W64338  11.351  40.853   1.978
97798W        W64339  38.767   3.352  13.366
97799W        W64340  23.103  30.705  11.405
97800W        W64341   7.315   3.880  13.671
97801W        W64342  27.040  17.488  14.972
97802W        W64343  23.471  35.611  12.470
97803W        W64344  13.894   3.791   4.123
97804W        W64345  27.504   2.283   2.348
97805W        W64346  13.302   4.055  14.730
97806W        W64347  27.947  15.307   2.535
97807W        W64348  19.491  35.581   4.687
97808W        W64349  22.600  18.196   1.406
97809W        W64350  29.972   2.018   1.801
97810W        W64351  28.418  11.900   3.236
97811W        W64352  32.024   7.567  11.728
97812W        W64353   2.397   6.677   4.942
97813W        W64354   0.099  40.681   1.404
97814W        W64355  22.803  36.996   3.607
97815W        W64356  42.817  35.730  12.686
97816W        W64357  25.148  38.109   4.166
97817W        W64358   7.720  17.709  12.445
97818W        W64359  10.133  38.270  13.834
97819W        W64360  44.951  18.793   3.680
97820W        W64361  11.798   1.221  11.268
97821W        W64362  27.387  40.840  11.125
97822W        W64363   3.255  13.218  11.282
97823W        W64364  26.414  25.702  11.977
97824W        W64365  36.095  21.149  14.782
97825W        W64366  19.549  39.874   3.296
97826W        W64367  27.650   0.813   4.333
97827W        W64368  36.391  43.942  12.242
97828W        W64369  13.467  10.238   3.252
97829W        W64370  37.438  31.996   4.262
97830W        W64371  20.489  14.075  12.534
97831W        W64372  39.806  42.870   2.922
97832W        W64373   2.904  11.314   0.306
97833W        W64374  32.174  32.704  12.003
97834W        W64375   6.719  16.101  14.911
97835W        W64376  32.326  10.895   1.983
97836W        W64377  22.815   6.741   3.293
97837W        W64378   0.170  27.386   0.213
97838W        W64379  28.114  33.131   1.813
97839W        W64380  32.583  39.401  12.092
97840W        W64381  38.950   3.008   0.338
97841W        W64382   4.887   2.089   2.718
97842W        W64383   1.288  10.264  12.894
97843W        W64384  30.145  20.562  10.747
97844W        W64385  11.902  41.778   4.105
97845W        W64386  19.834  20.151   4.653
97846W        W64387  27.734  43.208   3.695
97847W        W64388  18.771  11.424  12.589
97848W        W64389   4.319   7.804   1.151
97849W        W64390   4.821  44.677   4.132
97850W        W64391   9.538  12.112  12.173
97851W        W64392  28.865  23.446  12.761
97852W        W64393  11.858  26.131  11.505
97853W        W64394  35.579  14.877   0.055
97854W        W64395  34.054  44.278   3.900
97855W        W64396  18.184  30.872   5.142
97856W        W64397  32.071   4.478  14.891
97857W        W64398  43.035   9.245  10.673
97858W        W64399   1.894  17.294  12.925
97859W        W64400  40.958   4.882   2.264
97860W        W64401   7.708  11.213   0.320
97861W        W64402   1.495  20.094  14.021
97862W        W64403  26.155  28.877   1.431
97863W        W64404  15.921  43.963  10.362
97864W        W64405  42.963  30.328   3.229
97865W        W64406  13.448  12.586  12.121
97866W        W64407   8.627  37.696  13.245
97867W        W64408  14.704  12.417   4.094
97868W        W64409  16.079   0.867  12.613
97869W        W64410   2.049  16.613  13.873
97870W        W64411  12.665   3.182  13.462
97871W        W64412  29.757  32.107   2.070
97872W        W64413   1.240  44.445  13.746
97873W        W64414  30.836  43.823  11.274
97874W        W64415   1.181  10.236  10.923
97875W        W64416  30.500  24.533   3.341
97876W        W64417   3.015  12.063   3.026
97877W        W64418  43.450  12.682  12.216
97878W        W64419   1.610  21.546   0.358
97879W        W64420  10.950  26.508  13.106
97880W        W64421   7.831  26.618  14.120
97881W        W64422  15.077  20.770   4.084
97882W        W64423  26.583  12.844   2.469
97883W        W64424  29.220  15.242  14.834
97884W        W64425  42.424  36.215   3.623
97885W        W64426  41.962  38.074   2.666
97886W        W64427  27.323  20.930   4.932
97887W        W64428   1.319   0.188  12.954
97888W        W64429  17.316  25.618   2.242
97889W        W64430   9.102  23.940  13.775
97890W        W64431   8.868  35.457   0.319
97891W        W64432   6.201   8.816   2.313
97892W        W64433   2.374  35.487  13.569
97893W        W64434  31.089  14.769   9.722
97894W        W64435  17.636  17.592  11.120
97895W        W64436  34.360  36.658  11.583
97896W        W64437  42.496  11.528   4.579
97897W        W64438   9.940  42.962   1.633
97898W        W64439  24.642  30.894  12.966
97899W        W64440  43.950  37.490  12.575
97900W        W64441   3.603  23.095  10.978
97901W        W64442  35.255  10.497  12.070
97902W        W64443  20.764  21.451   0.476
97903W        W64444  20.198  32.794   4.585
97904W        W64445  43.875   2.506   1.843
97905W        W64446   0.506  16.571  12.995
97906W        W64447  16.732   5.707  11.909
97907W        W64448  42.455   1.799   3.597
97908W        W64449  34.664   2.793   9.884
97909W        W64450   5.757  29.467   1.352
97910W        W64451   6.676   8.794   3.073
97911W        W64452  41.395  30.844  10.667
97912W        W64453  10.906  26.670  14.001
97913W        W64454  19.513  30.279   3.113
97914W        W64455  23.211  37.619   1.048
97915W        W64456  42.757  33.123  11.408
97916W        W64457  24.606   3.576  12.120
97917W        W64458   7.943   2.777   4.023
97918W        W64459  19.139   3.670   0.743
97919W        W64460  33.923  11.835   0.185
97920W        W64461  27.230  23.081  12.595
97921W        W64462  20.220  38.400  12.730
97922W        W64463   5.675  44.209   3.268
97923W        W64464   5.592  41.723  11.971
97924W        W64465  21.710  18.728   0.270
97925W        W64466  39.115   3.659  11.497
97926W        W64467  35.014  28.973  12.280
97927W        W64468  32.589  26.058  13.905
97928W        W64469  37.812  40.302  14.928
97929W        W64470  23.859  43.492   4.569
97930W        W64471  15.998  23.465   4.304
97931W        W64472   0.770  13.081   1.691
97932W        W64473  12.865  37.971   0.834
97933W        W64474  21.052  36.949   3.175
97934W        W64475  10.383  38.977   2.754
97935W        W64476  28.935  10.663   0.701
97936W        W64477  30.426  12.578   0.436
97937W        W64478  11.237  11.936  11.178
97938W        W64479  24.397   5.476   3.914
97939W        W64480  27.430  29.972   1.818
97940W        W64481  20.423  33.246  14.000
97941W        W64482  31.841   4.326   1.857
97942W        W64483  43.371   2.839   4.651
97943W        W64484  11.642  16.278  12.479
97944W        W64485  34.812  42.438  13.358
97945W        W64486   9.621  26.357  14.386
97946W        W64487  21.705   2.397   4.704
97947W        W64488  33.035  24.728   3.813
97948W        W64489  41.853  31.763   1.246
97949W        W64490  39.998  44.907   1.851
97950W        W64491   5.406   3.344   2.904
97951W        W64492   6.388  40.975  13.558
97952W        W64493  36.662  21.023  11.588
97953W        W64494  35.680  40.351  12.429
97954W        W64495   3.728   6.195  12.062
97955W        W64496  36.842  15.824  12.506
97956W        W64497  32.111  34.094  14.748
97957W        W64498  13.511  23.659   1.028
97958W        W64499  43.527  18.275  13.760
97959W        W64500  16.183  38.691   3.175
97960W        W64501  30.053  13.252  14.006
97961W        W64502  22.704  30.989  13.535
97962W        W64503  26.744  30.174  11.759
97963W        W64504   2.612  37.009  14.063
97964W        W64505  19.239  11.674  14.683
97965W        W64506  27.402  33.828  13.048
97966W        W64507  30.508   3.239   1.400
97967W        W64508  39.561  22.669   0.929
97968W        W64509  10.613  23.742   2.842
97969W        W64510   3.405   2.229   0.700
97970W        W64511  12.154  22.176   0.689
97971W        W64512  15.142  18.309  10.679
97972W        W64513  14.311  44.054  10.810
97973W        W64514  19.388  21.781  12.878
97974W        W64515   6.709  24.803   2.367
97975W        W64516   3.897  40.130  11.572
97976W        W64517  31.919  10.230  10.440
97977W        W64518  17.669   7.970  13.521
97978W        W64519   0.397  43.889  14.805
97979W        W64520  34.507   7.958   3.155
97980W        W64521  15.306   9.744   0.725
97981W        W64522  38.217  33.914  12.820
97982W        W64523  43.254  44.274  13.038
97983W        W64524  26.134  26.637   4.303
97984W        W64525  32.364  31.564   4.104
97985W        W64526  35.835   8.596  14.421
97986W        W64527  36.408  19.745   0.884
97987W        W64528  23.963  30.981  12.223
97988W        W64529  33.747   7.716  14.233
97989W        W64530  29.076  22.665  10.945
97990W        W64531  24.294   7.888  14.917
97991W        W64532  27.590  32.422  10.626
97992W        W64533  14.337  21.637   0.011
97993W        W64534  28.305  14.829   4.319
97994W        W64535  29.125  18.143   3.576
97995W        W64536   1.953   2.896   3.373
97996W        W64537  18.709  21.551  13.499
97997W        W64538  19.103   3.201  12.403
97998W        W64539  34.067  13.349   2.548
97999W        W64540  11.858   1.936  11.974
98000W        W64541  16.782  22.089  14.280
98001W        W64542   9.381  37.835   0.389
98002W        W64543  41.475  20.976   0.732
98003W        W64544   2.863  13.639   4.215
98004W        W64545  36.318  24.640   3.197
98005W        W64546   1.408  17.173   1.469
98006W        W64547  20.049  35.831  11.191
98007W        W64548  43.251  27.361  13.522
98008W        W64549  20.228  18.042   0.235
98009W        W64550  19.824  18.180  12.016
98010W        W64551  22.278  38.150   4.164
98011W        W64552  21.933   9.687   3.957
98012W        W64553   4.823  13.810  12.569
98013W        W64554  39.865  31.677  10.607
98014W        W64555   2.689  36.618  11.080
98015W        W64556   0.876  36.494  11.257
98016W        W64557   1.772  43.485   1.507
98017W        W64558   3.840  19.977   0.221
98018W        W64559  22.940  40.387   3.008
98019W        W64560  26.751  20.944   4.101
98020W        W64561   7.189  25.712   2.221
98021W        W64562  27.216  31.802  12.525
98022W        W64563  39.309   0.994   4.568
98023W        W64564  44.650  13.561  13.140
98024W        W64565  14.653  33.126   3.233
98025W        W64566  35.898   5.661   1.392
98026W        W64567  38.681  14.915  10.366
98027W        W64568  13.871  24.661   0.881
98028W        W64569   0.348  42.812   4.183
98029W        W64570  16.078  23.822   1.269
98030W        W64571   9.206  38.873  12.891
98031W        W64572  12.614  39.675  12.958
98032W        W64573  30.448  29.221   1.626
98033W        W64574  23.955  34.950  13.811
98034W        W64575   2.700  17.539  11.993
98035W        W64576  39.048  13.453   1.900
98036W        W64577  19.940  27.382   1.467
98037W        W64578  33.562   8.131  10.641
98038W        W64579  26.926  10.387  14.810
98039W        W64580  44.024   9.817   2.790
98040W        W64581  19.487  33.586   2.226
98041W        W64582  43.791  16.679  10.469
98042W        W64583  19.809   4.731  12.529
98043W        W64584  38.419  23.713   2.412
98044W        W64585  37.982  20.480   1.255
98045W        W64586   9.528  21.072  12.840
98046W        W64587  40.500  23.159   0.858
98047W        W64588  21.023  37.494  14.869
98048W        W64589  42.864  44.485  14.707
98049W        W64590  40.792  29.899  11.582
98050W        W64591   4.398  34.411   3.427
98051W        W64592   6.866  12.751  11.598
98052W        W64593   3.018   7.926   0.900
98053W        W64594  43.314  33.358  11.782
98054W        W64595  11.351   5.977   4.842
98055W        W64596  21.268   2.886  14.912
98056W        W64597   7.128  16.570   3.021
98057W        W64598  42.689  26.147   3.677
98058W        W64599  38.539  25.452  12.647
98059W        W64600  16.303   3.908   1.787
98060W        W64601   2.006   5.345   2.692
98061W        W64602   1.747  32.952  13.472
98062W        W64603  44.388  13.363   1.838
98063W        W64604   1.433  38.874  11.619
98064W        W64605  31.051  32.310   4.597
98065W        W64606  20.087  16.787  10.674
98066W        W64607   2.333  42.482   2.641
98067W        W64608  31.192  27.207  14.090
98068W        W64609  35.601  18.292   2.445
98069W        W64610  37.034  17.657   1.778
98070W        W64611  33.868  40.744  12.043
98071W        W64612  21.084  18.608  13.931
98072W        W64613  39.488  16.680  12.880
98073W        W64614  12.559  35.133  11.987
98074W        W64615  42.055  35.839  12.416
98075W        W64616  13.705  38.988   2.888
98076W        W64617   4.309  20.849  13.016
98077W        W64618   4.282  12.720   3.829
98078W        W64619  24.229  25.200   0.769
98079W        W64620  21.638  24.723  11.614
98080W        W64621  40.376  37.174   0.758
98081W        W64622  26.229  29.051   3.283
98082W        W64623   5.650   4.971   3.136
98083W        W64624   4.220   0.722  11.955
98084W        W64625  19.089   3.090   4.312
98085W        W64626   9.120  39.743  12.919
98086W        W64627   3.622  36.485  12.060
98087W        W64628  34.911   0.763  14.427
98088W        W64629  30.131  20.463   4.023
98089W        W64630  12.948   6.361  13.802
98090W        W64631  39.194  35.952   2.226
98091W        W64632  39.858  37.218  14.400
98092W        W64633  40.494   9.210   1.884
98093W        W64634   6.867  19.296   0.711
98094W        W64635  29.482   1.742  12.551
98095W        W64636  18.035  15.967  10.970
98096W        W64637  23.003  31.611  13.840
98097W        W64638  41.823   9.628   4.276
98098W        W64639  17.196  32.195  10.143
98099W        W64640  29.152  39.453   4.433
98100W        W64641   8.356  33.149   2.319
98101W        W64642  12.686  35.813  13.930
98102W        W64643   0.999  10.723   0.381
98103W        W64644  25.228   7.263  10.857
98104W        W64645  36.653  33.061  14.911
98105W        W64646  22.014  19.781   4.595
98106W        W64647  23.015  40.052   2.396
98107W        W64648  35.395   2.016  14.354
98108W        W64649  22.721   0.346  11.256
98109W        W64650   3.509  24.642   1.805
98110W        W64651  43.347  32.277  10.649
98111W        W64652  31.503  14.182   1.235
98112W        W64653   4.347   4.954  13.824
98113W        W64654  16.214   9.790   4.693
98114W        W64655  38.250  11.227  12.345
98115W        W64656  41.763   4.656  10.931
98116W        W64657  37.056  36.909  14.342
98117W        W64658  33.123  32.337  14.482
98118W        W64659  34.280  16.612  11.467
98119W        W64660  40.501  18.123   0.841
98120W        W64661  16.612   2.394  11.504
98121W        W64662  41.267  31.462   2.877
98122W        W64663   1.099  32.914  12.724
98123W        W64664  18.102   3.946   0.924
98124W        W64665  27.380  12.097  14.860
98125W        W64666  20.717   4.078  11.235
98126W        W64667   1.505   4.701  14.947
98127W        W64668  34.041   9.165   3.868
98128W        W64669  26.162  17.867  14.734
98129W        W64670  43.660  25.679   4.660
98130W        W64671  33.376  11.230   2.605
98131W        W64672  35.370  16.728   1.207
98132W        W64673   7.958  10.072   4.778
98133W        W64674  24.571  29.913   4.278
98134W        W64675  32.478  38.491  10.652
98135W        W64676   0.933   5.222  10.718
98136W        W64677   2.172  22.915  14.834
98137W        W64678  10.148  19.134  10.466
98138W        W64679  28.774  30.421   3.142
98139W        W64680  12.225  10.620   4.137
98140W        W64681  20.377  21.736   4.770
98141W        W64682  19.074   8.292   2.813
98142W        W64683  38.882  21.456  13.363
98143W        W64684   3.734  26.917  14.824
98144W        W64685  12.351  25.599  12.036
98145W        W64686  33.090   4.383  13.846
98146W        W64687  24.884  25.042  12.582
98147W        W64688   3.925  31.638  13.955
98148W        W64689  23.595   0.145  11.132
98149W        W64690   2.288  25.771   1.833
98150W        W64691  10.667  23.734  13.425
98151W        W64692   3.849   6.886   0.403
98152W        W64693   0.874  37.992  11.421
98153W        W64694   8.011  43.447   0.367
98154W        W64695  38.974  26.308   5.066
98155W        W64696  31.098  37.720   4.553
98156W        W64697  39.843  24.157   1.362
98157W        W64698  20.679  19.764   2.816
98158W        W64699  23.695  44.283  13.683
98159W        W64700  43.719  15.901  12.922
98160W        W64701   5.005  30.980  14.404
98161W        W64702  12.215  37.488  11.670
98162W        W64703  29.618  26.206  13.078
98163W        W64704  20.156  44.262   2.288
98164W        W64705  27.034  38.415   0.900
98165W        W64706   1.346  21.383  10.354
98166W        W64707   3.052   3.645  10.366
98167W        W64708  28.647  28.507   3.267
98168W        W64709   0.585  43.315  11.706
98169W        W64710   8.886  44.638   5.113
98170W        W64711  14.748   4.675  13.040
98171W        W64712   8.361   1.040   0.755
98172W        W64713  34.486  39.423  11.548
98173W        W64714  31.874  15.413   4.232
98174W        W64715   9.638  23.213  13.895
98175W        W64716  20.860  20.136   4.950
98176W        W64717  33.844   0.277   3.223
98177W        W64718  22.421  34.889   4.095
98178W        W64719   5.779   3.481   3.705
98179W        W64720  20.174  12.474   4.082
98180W        W64721   6.484  40.041   4.874
98181W        W64722  32.975  22.655   1.813
98182W        W64723  20.086  26.971   0.797
98183W        W64724  41.371   8.842  13.027
98184W        W64725  17.543  18.503  11.772
98185W        W64726  19.512  23.991  12.469
98186W        W64727  33.367  27.471  14.016
98187W        W64728  12.382  13.376   0.446
98188W        W64729  24.094  20.233  12.398
98189W        W64730   0.393  24.007   0.811
98190W        W64731  13.872   1.281   1.746
98191W        W64732   4.416  11.810  14.022
98192W        W64733  22.173   7.408   0.806
98193W        W64734   3.745  19.656  12.987
98194W        W64735  27.728  15.503  10.541
98195W        W64736  26.412  34.810   2.298
98196W        W64737   6.970   6.733   1.290
98197W        W64738   6.651  12.189   0.205
98198W        W64739   0.442   2.128   0.281
98199W        W64740   9.360  25.660  13.803
98200W        W64741  12.142  43.002  10.780
98201W        W64742  41.492  15.312   4.621
98202W        W64743  18.108  38.028   2.420
98203W        W64744  37.632  17.031   3.162
98204W        W64745  35.589  35.152   2.258
98205W        W64746  29.572  44.532  13.113
98206W        W64747  25.008  36.380   3.224
98207W        W64748  38.151   8.418   1.516
98208W        W64749  23.555   3.327  10.780
98209W        W64750  32.010   3.930   3.191
98210W        W64751  18.396  35.838   3.707
98211W        W64752  31.688   0.846  10.252
98212W        W64753  21.755  36.499  14.061
98213W        W64754  41.243   3.354  12.464
98214W        W64755  34.446  29.444   0.761
98215W        W64756  21.563   9.278  13.460
98216W        W64757   1.877   7.398   1.852
98217W        W64758  14.464   7.099  11.599
98218W        W64759  14.927  20.914  14.515
98219W        W64760  20.540  32.415  13.006
98220W        W64761  41.345  13.753  11.626
98221W        W64762  34.994  27.125   1.279
98222W        W64763  16.266  23.054   4.041
98223W        W64764  18.670  27.250   1.690
98224W        W64765  31.364  18.694   5.140
98225W        W64766   5.718  40.181  10.408
98226W        W64767  32.129  22.979   4.821
98227W        W64768  29.944  29.349  13.453
98228W        W64769  21.907   3.405  13.588
98229W        W64770   6.376   8.587  14.428
98230W        W64771  20.942  14.555  14.837
98231W        W64772  26.892  14.654  12.062
98232W        W64773  21.092  23.010  13.882
98233W        W64774  23.465  33.718   0.811
98234W        W64775  37.132  34.470  11.402
98235W        W64776  35.913  21.625  11.373
98236W        W64777  29.720  38.131  13.608
98237W        W64778   1.892  26.523   2.699
98238W        W64779   9.566  31.065  12.854
98239W        W64780  28.972  37.187   4.378
98240W        W64781  39.841  35.960  14.883
98241W        W64782  30.914   3.728   4.596
98242W        W64783  19.116  39.096  14.400
98243W        W64784  16.597  36.062  14.741
98244W        W64785  30.159   3.219  11.490
98245W        W64786  21.269  44.250   3.161
98246W        W64787  42.714   9.614  12.950
98247W        W64788  24.167   0.776   4.714
98248W        W64789  29.585  40.369  10.758
98249W        W64790  16.633  42.573  11.136
98250W        W64791  12.751  38.617  14.700
98251W        W64792  43.282  24.450  13.458
98252W        W64793  30.862   1.498  10.371
98253W        W64794  13.501  44.699   1.731
98254W        W64795  37.990  44.965  13.448
98255W        W64796  34.563  19.073  11.627
98256W        W64797  19.979  12.589  11.713
98257W        W64798  29.661  25.427  13.766
98258W        W64799  22.750  16.283   4.120
98259W        W64800  18.194  27.042  10.624
98260W        W64801  15.259  40.684   3.394
98261W        W64802  39.425  34.331   1.317
98262W        W64803  35.062  40.987  12.198
98263W        W64804  30.774  26.100   0.240
98264W        W64805  23.096  12.194  10.805
98265W        W64806   3.284  27.096   2.174
98266W        W64807  22.956  38.788  14.376
98267W        W64808  18.510  20.246   1.251
98268W        W64809  38.317  25.368   0.242
98269W        W64810  24.596  30.476  12.616
98270W        W64811   7.620  11.037   4.147
98271W        W64812  23.435  28.952  11.583
98272W        W64813  38.912  25.360  10.499
98273W        W64814  14.402   0.309  13.319
98274W        W64815  19.308  24.093  13.982
98275W        W64816  26.673  37.421  10.460
98276W        W64817  32.247  29.180   1.466
98277W        W64818  32.069   3.723   0.312
98278W        W64819  11.471  11.106   1.332
98279W        W64820   6.056  35.519   4.801
98280W        W64821   2.250   3.305   0.995
98281W        W64822  13.833  17.946  11.124
98282W        W64823  21.213  18.313   4.135
98283W        W64824  30.262  27.832  12.859
98284W        W64825  13.031  23.760  10.743
98285W        W64826  12.703  11.724   1.431
98286W        W64827  44.051  21.197   4.075
98287W        W64828  13.915  40.961   3.615
98288W        W64829  32.981   2.784   2.740
98289W        W64830  14.637  33.414  14.030
98290W        W64831  19.596   0.342   2.264
98291W        W64832   0.052  38.127   1.745
98292W        W64833  44.400  31.919  10.741
98293W        W64834  42.015  18.534  12.042
98294W        W64835  41.839  40.549   3.319
98295W        W64836  24.071  12.982  12.678
98296W        W64837  23.649  26.628  10.809
98297W        W64838  39.897   5.672   2.875
98298W        W64839  41.745  12.273   2.319
98299W        W64840  20.189   7.208   4.908
98300W        W64841  30.641  31.467  11.679
98301W        W64842   2.260  19.300  11.872
98302W        W64843  44.401   0.437  11.985
98303W        W64844  39.690  20.673   2.763
98304W        W64845  27.949  36.538  12.433
98305W        W64846  13.444  11.586  12.001
98306W        W64847  25.673  41.993  10.707
98307W        W64848  22.263   1.938  10.665
98308W        W64849  14.878  29.891   3.137
98309W        W64850  44.364  16.240   0.474
98310W        W64851   3.200  18.804   2.083
98311W        W64852  42.007   3.429   3.670
98312W        W64853  25.002   3.312   3.469
98313W        W64854  38.019  29.162   1.442
98314W        W64855  40.490  25.661   2.744
98315W        W64856  26.762  15.302  11.979
98316W        W64857   3.890  11.635   1.188
98317W        W64858  18.668  32.819   0.131
98318W        W64859  38.961  13.167   3.123
98319W        W64860  25.155  16.425  12.201
98320W        W64861  16.022   7.771   1.299
98321W        W64862  41.939  19.564  13.924
98322W        W64863  17.676   9.208   4.149
98323W        W64864  24.101  26.150   1.573
98324W        W64865  19.861  13.105  13.103
98325W        W64866  44.621   4.921  13.112
98326W        W64867   4.690  35.962   1.960
98327W        W64868   5.980  26.567  14.414
98328W        W64869  30.701  22.940   4.109
98329W        W64870  28.547   3.885  13.086
98330W        W64871  30.489  29.314   5.085
98331W        W64872  31.618  39.606   0.394
98332W        W64873  41.629  13.818   0.173
98333W        W64874   4.869   6.003  10.231
98334W        W64875   4.662  13.682   3.740
98335W        W64876  23.485   8.827   1.249
98336W        W64877  31.495   4.933  10.466
98337W        W64878  40.113   1.929   4.502
98338W        W64879  37.252  25.637  14.483
98339W        W64880   9.766  16.366   0.429
98340W        W64881  15.315  31.072  14.506
98341W        W64882   7.501  21.348  12.993
98342W        W64883  32.044  22.646  14.598
98343W        W64884  37.164   7.105  12.014
98344W        W64885  18.470  26.676  14.834
98345W        W64886  42.949  28.938   0.708
98346W        W64887  11.651  40.580  12.928
98347W        W64888  12.434  17.707  11.950
98348W        W64889  38.439  43.751   0.456
98349W        W64890  14.254   7.346  10.738
98350W        W64891  33.109   1.774  13.364
98351W        W64892  30.535   9.552  12.027
98352W        W64893  39.520  33.809   1.310
98353W        W64894  17.492   2.184  10.534
98354W        W64895  12.938  39.915   4.501
98355W        W64896  34.466  35.592  12.098
98356W        W64897  17.967  14.847  13.779
98357W        W64898  37.743  33.118  14.386
98358W        W64899  42.397  37.059  12.777
98359W        W64900   7.531  34.049  14.414
98360W        W64901  38.239  21.018   1.933
98361W        W64902  38.836  25.635   3.713
98362W        W64903  33.593  20.912  14.501
98363W        W64904  33.635  33.585  11.925
98364W        W64905   6.869  44.296  11.864
98365W        W64906  20.507  23.776   2.840
98366W        W64907  41.811  24.240   3.198
98367W        W64908   6.633  11.932  12.010
98368W        W64909  39.201  39.447  13.885
98369W        W64910  29.981  44.483   3.421
98370W        W64911  36.253  28.753  12.516
98371W        W64912  17.053  17.991   3.931
98372W        W64913  12.825  23.051   1.343
98373W        W64914  15.258  34.462   3.406
98374W        W64915  19.842   7.839  14.362
98375W        W64916  38.537  33.047   0.288
98376W        W64917  22.165  32.121   0.297
98377W        W64918  11.568  30.411   3.484
98378W        W64919  17.757  20.737   3.193
98379W        W64920  14.836   2.980  12.180
98380W        W64921  25.502  34.704  13.474
98381W        W64922  22.184  43.983  12.936
98382W        W64923   7.383  27.292  13.692
98383W        W64924  34.403  39.842   3.579
98384W        W64925  36.978   2.941  12.309
98385W        W64926  14.287  44.510  13.924
98386W        W64927   3.908  20.066  13.269
98387W        W64928   4.991  18.018  12.205
98388W        W64929  36.805  36.888  14.789
98389W        W64930   6.804  26.698  13.442
98390W        W64931  39.044  28.875  13.130
98391W        W64932  25.379  23.666   1.698
98392W        W64933  16.695  29.914   4.178
98393W        W64934  36.455  11.135  14.403
98394W        W64935  26.486  28.901   3.732
98395W        W64936  31.215  34.479  11.472
98396W        W64937  16.305  26.569  14.027
98397W        W64938  30.838  11.814  10.191
98398W        W64939  37.790  17.092  11.537
98399W        W64940  14.526  28.968   3.274
98400W        W64941  42.485  24.497  10.847
98401W        W64942  21.542  30.562   4.566
98402W        W64943  33.813  38.398  13.464
98403W        W64944   4.289  40.952  10.947
98404W        W64945   0.042  33.395   1.083
98405W        W64946   3.953   3.040   1.273
98406W        W64947  29.503  38.792  14.088
98407W        W64948   9.420  36.003  13.553
98408W        W64949  11.768  38.819  10.607
98409W        W64950   4.484  35.819  13.722
98410W        W64951  31.460  34.769   0.498
98411W        W64952   0.882  25.491   2.205
98412W        W64953  40.409  17.303   1.874
98413W        W64954   5.022   5.646  12.089
98414W        W64955  42.908  24.257  14.928
98415W        W64956  25.083  31.004   2.459
98416W        W64957   0.136  25.008  12.072
98417W        W64958   9.188  27.456  14.972
98418W        W64959  28.610  37.495   3.740
98419W        W64960  43.990  27.245   0.705
98420W        W64961  34.498  24.538   2.918
98421W        W64962  30.481  24.533  13.717
98422W        W64963  37.436  28.812  12.052
98423W        W64964  41.864  39.810  12.820
98424W        W64965  30.981   1.401   2.812
98425W        W64966  14.245   5.205   2.794
98426W        W64967  40.500  10.463   1.800
98427W        W64968  19.026  32.727   3.091
98428W        W64969  19.970  24.815   2.696
98429W        W64970  14.561  26.179   2.313
98430W        W64971  36.919   0.496   2.536
98431W        W64972   3.779  17.135  14.756
98432W        W64973  42.264  18.456  11.084
98433W        W64974   6.739  37.885   0.304
98434W        W64975  29.135  44.342   0.309
98435W        W64976   6.743   1.384  14.378
98436W        W64977  19.720  41.588   2.669
98437W        W64978   8.649   0.011   0.320
98438W        W64979  35.385  36.586  13.934
98439W        W64980  27.201  12.894   3.824
98440W        W64981  25.180  15.025  13.828
98441W        W64982  40.921  41.295   1.455
98442W        W64983  22.042  15.049   0.712
98443W        W64984  31.920   7.910   5.026
98444W        W64985   3.410  39.829  11.543
98445W        W64986  24.168   7.229  14.506
98446W        W64987   2.487   8.189  12.448
98447W        W64988  40.423  11.790   0.530
98448W        W64989  19.611   5.747  10.897
98449W        W64990  44.350  11.100   0.930
98450W        W64991  16.978  20.574   4.575
98451W        W64992   6.381   1.866   3.249
98452W        W64993  11.041  27.364  12.501
98453W        W64994  17.063   4.016  13.862
98454W        W64995  27.508  17.265  14.906
98455W        W64996  27.682  43.760   3.694
98456W        W64997  21.483  41.224  14.853
98457W        W64998  34.433  20.188   4.706
98458W        W64999  11.154  28.775  14.899
98459W        W65000  39.744  14.661  14.903
98460W        W65001  13.266  31.791   0.749
98461W        W65002   7.333  30.937  13.405
98462W        W65003  32.992  18.857   2.760
98463W        W65004  27.069   9.358  11.069
98464W        W65005  30.538  35.874  12.619
98465W        W65006   5.794  35.863   0.910
98466W        W65007  40.926  22.284   2.515
98467W        W65008  43.855   8.356   4.803
98468W        W65009  25.502  43.809   0.268
98469W        W65010  24.165  42.708   4.156
98470W        W65011  20.263   0.684   2.246
98471W        W65012  33.936   0.047   2.635
98472W        W65013  14.761  36.806  14.381
98473W        W65014  17.314  21.260   2.622
98474W        W65015  38.305  26.107   4.721
98475W        W65016   7.379   8.212  13.564
98476W        W65017   8.868  15.898   0.347
98477W        W65018  41.997  16.634  12.504
98478W        W65019  10.200  12.579  11.887
98479W        W65020  21.687   9.698   0.937
98480W        W65021  22.949   7.105  11.107
98481W        W65022  14.355  28.442  14.814
98482W        W65023  15.745   4.494   0.307
98483W        W65024  22.741   7.472   2.766
98484W        W65025  23.311  17.540   2.927
98485W        W65026  39.861  31.850   4.541
98486W        W65027  22.310   8.844   2.094
98487W        W65028  33.575  28.449   4.983
98488W        W65029  43.657   6.088  14.987
98489W        W65030  31.323  11.884   3.194
98490W        W65031  22.176  41.608   4.591
98491W        W65032  39.000  31.409  10.731
98492W        W65033  28.341  32.913   1.404
98493W        W65034  24.530  28.887   1.808
98494W        W65035  43.833  29.874  14.611
98495W        W65036  37.310  33.077  11.085
98496W        W65037  16.442   0.958   0.501
98497W        W65038  35.537   5.260   2.138
98498W        W65039  13.361  37.391  11.451
98499W        W65040  20.237  33.642  10.631
98500W        W65041  15.455  18.267   4.003
98501W        W65042   0.535  29.062  10.731
98502W        W65043   8.164   6.585  11.983
98503W        W65044  13.763   6.775  11.084
98504W        W65045  36.008  36.076  12.517
98505W        W65046   3.261  11.887   4.777
98506W        W65047  37.240  43.285  10.490
98507W        W65048  43.200  44.772   3.659
98508W        W65049  44.842  33.944   2.195
98509W        W65050  32.534   4.277  12.376
98510W        W65051  44.754  35.819  14.458
98511W        W65052  27.981   7.157  11.654
98512W        W65053  23.991  27.746  13.400
98513W        W65054   9.065  12.526  11.608
98514W        W65055  25.428  40.568   0.025
98515W        W65056  11.384  17.767  13.925
98516W        W65057   7.711  18.717   0.890
98517W        W65058  32.931  28.928  11.039
98518W        W65059  31.540  14.402  12.904
98519W        W65060   4.660  37.123  14.707
98520W        W65061  29.576  20.859   4.591
98521W        W65062   0.033  28.860   4.346
98522W        W65063   7.383  38.054  11.207
98523W        W65064  25.332  11.611   2.266
98524W        W65065  17.657  16.257  11.685
98525W        W65066  11.359  25.716  12.046
98526W        W65067  38.409  14.632   3.194
98527W        W65068  11.336  29.353   3.143
98528W        W65069  31.378  15.864   4.682
98529W        W65070  37.367  15.163  13.999
98530W        W65071  25.299  26.631   0.903
98531W        W65072  16.378  15.019   1.280
98532W        W65073   3.262  40.581  12.070
98533W        W65074  40.357  42.111  11.154
98534W        W65075   0.834  10.942   1.922
98535W        W65076   7.454   1.234  11.158
98536W        W65077  17.779  12.785   4.869
98537W        W65078  42.381   2.816  13.964
98538W        W65079   3.307  23.482   2.410
98539W        W65080  37.783  14.594   4.168
98540W        W65081  11.626  44.424  14.972
98541W        W65082  41.907   2.772   2.259
98542W        W65083   1.351   9.348  14.337
98543W        W65084  21.311  28.415  11.241
98544W        W65085  37.558  43.586  14.238
98545W        W65086  29.042  37.314  11.785
98546W        W65087  24.125  38.853   4.987
98547W        W65088  23.128  35.565   3.670
98548W        W65089  26.387  35.425   1.525
98549W        W65090   7.253  17.415  12.321
98550W        W65091   3.162  36.740  12.057
98551W        W65092   5.413   3.518  12.302
98552W        W65093  41.965  26.027  14.506
98553W        W65094  42.936  32.040  12.531
98554W        W65095  27.153  22.631   3.351
98555W        W65096  27.080   5.648  14.340
98556W        W65097  27.722  17.789   2.670
98557W        W65098   6.443   0.535   2.316
98558W        W65099  18.570  42.445   1.409
98559W        W65100   8.193  25.576   0.223
98560W        W65101   0.887   5.425   2.823
98561W        W65102  10.806  19.020  11.189
98562W        W65103  16.392   9.578  11.225
98563W        W65104   3.259  19.848   1.492
98564W        W65105  43.467  30.145  13.842
98565W        W65106  10.862  17.077   3.392
98566W        W65107   7.150  11.265   1.414
98567W        W65108  25.439  10.395   1.830
98568W        W65109  23.199  11.747  14.938
98569W        W65110  17.048   0.926   1.855
98570W        W65111  18.207  44.526  13.514
98571W        W65112  10.570  27.075  11.502
98572W        W65113  27.131  42.024   3.066
98573W        W65114  37.064   8.477  10.680
98574W        W65115  36.885  15.139   1.896
98575W        W65116  42.006  43.382  12.978
98576W        W65117  42.470  12.703   0.771
98577W        W65118  42.759  42.388   2.253
98578W        W65119   4.211  31.676  13.504
98579W        W65120  21.853  24.637  14.781
98580W        W65121   2.857  34.354   2.312
98581W        W65122   7.895  20.165   0.940
98582W        W65123  24.899  32.739  12.497
98583W        W65124  18.877  36.534   1.132
98584W        W65125  30.355  17.242   1.325
98585W        W65126  42.642   9.133   1.772
98586W        W65127  28.871  16.658   0.714
98587W        W65128   1.535  35.825  10.688
98588W        W65129  26.108  33.318   2.823
98589W        W65130   9.191  34.088  11.017
98590W        W65131  15.061  22.668  12.018
98591W        W65132  15.386   5.311  13.459
98592W        W65133  19.734  29.597   3.636
98593W        W65134  33.988  26.963   0.358
98594W        W65135  36.885  10.284  10.813
98595W        W65136  44.509  18.846  11.559
98596W        W65137  43.467  16.749   1.843
98597W        W65138  31.052  39.981  13.009
98598W        W65139  40.611  39.080   3.208
98599W        W65140  44.305  39.365   1.477
98600W        W65141   0.737  10.257  11.169
98601W        W65142  13.891   5.935   0.543
98602W        W65143   0.426  40.307   4.394
98603W        W65144  17.507  24.514   4.179
98604W        W65145  36.997  28.909  10.760
98605W        W65146   9.297  16.476  13.845
98606W        W65147  22.113  30.589   4.251
98607W        W65148  32.870  24.181   1.883
98608W        W65149  44.984  24.757   0.313
98609W        W65150  25.876  12.792   4.664
98610W        W65151  28.734  42.487   1.697
98611W        W65152   5.226  31.020   0.738
98612W        W65153  13.222  24.934   3.063
98613W        W65154  19.905  28.050  14.005
98614W        W65155  34.610  35.510   0.071
98615W        W65156   3.047   6.881  14.475
98616W        W65157   3.571  33.037  13.979
98617W        W65158   7.697  13.845   3.173
98618W        W65159  43.410   2.280   1.856
98619W        W65160  21.660  13.758  14.698
98620W        W65161   9.145   4.456   0.064
98621W        W65162  20.973  21.891  11.101
98622W        W65163  34.509  21.184   0.595
98623W        W65164   4.535  34.636  12.476
98624W        W65165  11.679  23.525  10.105
98625W        W65166  14.721  10.347  11.718
98626W        W65167  43.326  32.966   1.959
98627W        W65168  41.946  20.441   3.368
98628W        W65169  44.432  17.222   0.210
98629W        W65170  19.146  26.961   2.455
98630W        W65171  25.672  27.075  14.408
98631W        W65172  18.651   2.279   3.842
98632W        W65173  10.857  43.037   0.930
98633W        W65174   3.190  23.531   3.282
98634W        W65175  17.896  33.587   5.069
98635W        W65176  28.607   4.960   3.754
98636W        W65177  43.848  10.716   0.037
98637W        W65178  29.949  15.984  12.564
98638W        W65179  23.173  26.983   3.275
98639W        W65180  12.157  36.203  13.939
98640W        W65181  28.763  16.759  14.425
98641W        W65182  18.821  41.022   2.942
98642W        W65183  28.569   6.139   4.209
98643W        W65184  40.989  29.474  13.450
98644W        W65185   6.284  31.011   0.728
98645W        W65186  10.591  13.860   2.259
98646W        W65187  21.552  20.081   4.270
98647W        W65188  26.612   2.848  14.193
98648W        W65189  31.581  39.913   0.808
98649W        W65190  33.099   5.477  11.854
98650W        W65191   3.390  37.263  10.210
98651W        W65192   7.661  15.456   3.607
98652W        W65193   4.485  16.388   3.965
98653W        W65194   9.389  41.500  11.655
98654W        W65195  23.517  32.054   0.535
98655W        W65196  26.579  30.204   1.349
98656W        W65197  24.115  27.934  12.937
98657W        W65198  19.637  29.240   3.171
98658W        W65199  28.545  12.872   1.949
98659W        W65200  31.013  44.471  12.044
98660W        W65201   9.879  44.016  14.981
98661W        W65202   8.716  23.813  12.308
98662W        W65203  13.914  32.667   2.823
98663W        W65204  20.660  41.534   3.681
98664W        W65205  13.543   2.646   0.807
98665W        W65206  11.695  11.690  10.554
98666W        W65207  39.339  38.345  13.503
98667W        W65208  15.037  25.157  14.395
98668W        W65209   0.089  34.296  12.647
98669W        W65210  15.642  11.796   3.183
98670W        W65211  30.969  19.782  10.649
98671W        W65212   1.466  35.355  14.578
98672W        W65213  40.937   1.235  11.221
98673W        W65214   5.929  28.715  12.967
98674W        W65215  27.283  40.237  10.016
98675W        W65216  28.506   1.499  12.313
98676W        W65217   4.358  28.508  14.000
98677W        W65218  39.978  16.666  13.084
98678W        W65219   6.096  30.757  12.697
98679W        W65220  37.975  26.207   3.761
98680W        W65221   6.886   6.521  14.081
98681W        W65222  42.295  10.323   2.340
98682W        W65223   1.479  30.055   0.986
98683W        W65224  38.330  44.306   2.670
98684W        W65225  10.300  43.533   3.233
98685W        W65226   4.614  43.765  14.102
98686W        W65227  39.359  33.127  12.687
98687W        W65228   3.451   9.769   0.328
98688W        W65229  14.593  42.812  13.451
98689W        W65230  39.302  13.243  12.951
98690W        W65231   1.475  20.629  11.630
98691W        W65232  32.474  26.086   4.378
98692W        W65233   4.876  31.383  11.675
98693W        W65234  28.879   2.216   3.931
98694W        W65235  23.937   9.047   5.451
98695W        W65236  16.315  29.199   3.133
98696W        W65237  36.428  32.077  12.630
98697W        W65238  44.512  13.643   2.972
98698W        W65239   9.398   6.505   0.432
98699W        W65240   1.641  33.303  12.915
98700W        W65241   9.894  24.519   1.177
98701W        W65242   6.514  41.020  11.074
98702W        W65243  30.180   4.792  13.336
98703W        W65244  25.558  14.182  12.401
98704W        W65245   6.903   4.690   0.467
98705W        W65246  19.684  24.045   2.267
98706W        W65247  10.891  30.682  14.778
98707W        W65248   7.381   0.769  10.442
98708W        W65249   4.871  29.354   2.250
98709W        W65250  23.730  41.476   0.466
98710W        W65251  40.288  20.596  11.619
98711W        W65252  42.410   7.680  12.118
98712W        W65253   4.303  23.477  11.598
98713W        W65254  16.124  18.528  11.506
98714W        W65255   2.974  43.301  10.531
98715W        W65256   0.711  41.015  12.927
98716W        W65257  12.629  38.132  14.856
98717W        W65258  27.560  21.698   0.253
98718W        W65259  22.197  11.495   3.796
98719W        W65260  27.060   7.552   0.395
98720W        W65261  17.535  35.345  12.824
98721W        W65262  33.181  21.729  12.123
98722W        W65263  14.372  24.909  13.896
98723W        W65264  35.273  35.574   0.344
98724W        W65265   3.254  25.481  13.855
98725W        W65266   0.902   3.356  11.906
98726W        W65267  12.585  21.098  10.597
98727W        W65268  25.613   8.177  11.834
98728W        W65269  33.163  17.665  13.030
98729W        W65270   2.785  33.986   0.962
98730W        W65271   7.866  31.084  12.036
98731W        W65272  15.821  37.954  11.560
98732W        W65273  44.544  42.396  11.320
98733W        W65274  27.623  10.551  12.271
98734W        W65275   2.196  38.592   2.129
98735W        W65276  13.072  11.412  11.671
98736W        W65277  18.790  15.955  11.445
98737W        W65278  42.664  40.952   1.410
98738W        W65279  43.286  10.741  13.754
98739W        W65280  20.699   3.641  12.870
98740W        W65281   2.456  19.071   2.123
98741W        W65282   5.434  35.313  10.825
98742W        W65283  31.799   3.709  13.912
98743W        W65284  19.239  11.643  12.587
98744W        W65285   9.753   4.743   0.425
98745W        W65286   8.857  40.790  14.415
98746W        W65287  34.718  20.653   0.480
98747W        W65288  11.188  21.693  12.569
98748W        W65289   1.288  19.771   4.336
98749W        W65290  14.847  44.690  11.490
98750W        W65291  19.641  43.892   1.714
98751W        W65292  40.987   9.299   4.125
98752W        W65293  10.108  20.680  11.863
98753W        W65294  18.070  38.929   1.263
98754W        W65295  37.517  19.547   2.410
98755W        W65296  21.863  43.480  12.131
98756W        W65297  20.012   4.163   3.330
98757W        W65298  43.337  44.271   4.951
98758W        W65299  22.884  25.675   9.909
98759W        W65300  38.318  43.395   4.644
98760W        W65301   8.814  21.742   4.628
98761W        W65302  29.103   3.271   1.327
98762W        W65303  30.851  19.279  10.544
98763W        W65304  18.538   5.157  14.533
98764W        W65305  42.697  43.230   1.727
98765W        W65306  43.849  43.451   0.496
98766W        W65307  13.383  15.302   3.580
98767W        W65308   5.724  24.856   2.432
98768W        W65309  22.389  29.310   4.035
98769W        W65310  37.634  31.956  10.103
98770W        W65311   7.262  23.070  14.301
98771W        W65312  11.725  23.033  10.868
98772W        W65313  15.585  15.220   3.695
98773W        W65314  25.731  30.989  14.819
98774W        W65315  30.620  16.256   3.297
98775W        W65316  21.703  34.575   1.363
98776W        W65317   5.739  22.713  11.614
98777W        W65318  15.559  20.830  10.310
98778W        W65319  43.444  25.035  10.557
98779W        W65320  44.888  40.396   4.900
98780W        W65321  32.968  31.582   0.613
98781W        W65322  20.176  26.931   3.959
98782W        W65323   8.762  18.801  11.464
98783W        W65324  28.667  23.755   2.443
98784W        W65325  32.466  41.361   1.493
98785W        W65326  44.433  36.880   4.100
98786W        W65327  15.405  32.671  10.042
98787W        W65328  35.758  33.320   2.357
98788W        W65329  36.592  10.269   2.204
98789W        W65330   6.444  28.876  12.507
98790W        W65331  20.166  35.025  10.452
98791W        W65332  39.073   8.746   2.850
98792W        W65333  29.790   7.993   1.381
98793W        W65334  39.068  11.688  14.820
98794W        W65335  29.392  26.326   0.335
98795W        W65336  27.277  34.469   0.143
98796W        W65337  39.225  35.110  11.980
98797W        W65338   1.284  31.708  14.945
98798W        W65339  44.661  38.166  12.089
98799W        W65340  23.662  19.495   4.145
98800W        W65341  23.503  25.119   4.262
98801W        W65342  40.753  24.227  13.476
98802W        W65343  40.568  28.088  12.039
98803W        W65344  17.307  18.719   2.098
98804W        W65345   4.830  39.945  10.443
98805W        W65346  41.776  28.647   1.844
98806W        W65347  13.366  29.444   0.806
98807W        W65348  44.241  17.041   0.934
98808W        W65349   5.794  25.278  14.503
98809W        W65350  38.563   0.735  13.831
98810W        W65351  10.864  37.908   4.485
98811W        W65352  25.237  17.851  13.446
98812W        W65353  12.594   9.837   4.672
98813W        W65354  32.632  11.903   1.869
98814W        W65355  36.638  44.429   3.312
98815W        W65356  39.129  19.122  13.054
98816W        W65357  10.335   1.583  11.432
98817W        W65358  29.932  40.274   5.129
98818W        W65359  36.919  23.748  12.426
98819W        W65360  17.179   5.747   4.085
98820W        W65361   3.282   3.018  11.930
98821W        W65362  38.964  24.599  13.077
98822W        W65363  20.969  16.719   0.305
98823W        W65364  25.861  15.601   2.675
98824W        W65365   6.428  25.642   9.976
98825W        W65366  10.185  44.853  14.282
98826W        W65367  34.356  28.527   4.408
98827W        W65368   0.394  43.758  12.518
98828W        W65369   4.910  29.181  11.151
98829W        W65370  20.129   7.161   0.359
98830W        W65371  43.249  31.565   4.770
98831W        W65372   9.299  28.069   2.203
98832W        W65373   6.807  33.042  11.069
98833W        W65374  36.071  30.346  11.148
98834W        W65375  18.743  11.815  10.506
98835W        W65376  32.890  38.381  10.937
98836W        W65377  15.092  28.236   1.397
98837W        W65378  31.013  15.794  13.769
98838W        W65379  37.887  33.131  13.884
98839W        W65380  31.350  41.340   4.683
98840W        W65381  29.472  33.872  13.787
98841W        W65382  14.301  20.497   2.945
98842W        W65383  40.059  27.522   2.370
98843W        W65384  42.244  43.584   4.919
98844W        W65385  33.799   2.250  12.074
98845W        W65386   2.517  37.344  14.513
98846W        W65387   3.287  22.183  14.134
98847W        W65388  31.696  40.468  13.541
98848W        W65389  30.208   5.667  10.827
98849W        W65390   3.090   2.090  12.170
98850W        W65391  18.173  36.264  14.195
98851W        W65392  41.691  24.227   0.145
98852W        W65393  41.049  14.259   0.880
98853W        W65394  35.994  41.471   4.568
98854W        W65395  17.251  13.490  13.627
98855W        W65396  34.345   7.372   4.038
98856W        W65397  29.856  23.451  12.504
98857W        W65398  12.461  18.936   2.677
98858W        W65399  18.467  37.491  10.251
98859W        W65400  12.870  27.656   1.825
98860W        W65401  27.417  32.626  13.347
98861W        W65402   8.983   1.539   1.368
98862W        W65403  26.735  39.288   4.166
98863W        W65404  17.569  14.818  12.137
98864W        W65405  36.461  11.610   2.924
98865W        W65406  35.049  26.329   4.590
98866W        W65407  30.015  42.454   0.368
98867W        W65408  29.681   6.320  12.687
98868W        W65409   0.003  13.360  11.553
98869W        W65410   3.696  32.036   1.021
98870W        W65411  15.771  36.741  11.025
98871W        W65412   4.415  44.440   4.355
98872W        W65413   5.387  22.007  14.056
98873W        W65414  18.256  10.747   1.239
98874W        W65415  26.535  31.083  11.324
98875W        W65416   2.529   6.897  14.483
98876W        W65417  29.460  35.567   4.059
98877W        W65418   9.911  27.651  11.715
98878W        W65419  19.225  42.980   4.791
98879W        W65420  18.071   7.163  14.470
98880W        W65421   9.482  38.439  14.570
98881W        W65422   2.815  16.713  14.271
98882W        W65423  27.538  16.729  14.196
98883W        W65424   3.788  34.163  11.494
98884W        W65425   1.514   8.234   3.252
98885W        W65426  32.428  18.757   0.846
98886W        W65427  18.326   5.791  11.189
98887W        W65428   6.992  24.765  11.675
98888W        W65429  34.481   4.379   0.944
98889W        W65430  44.761   8.125  12.350
98890W        W65431  37.978  28.997  12.569
98891W        W65432  37.842  13.401   1.475
98892W        W65433  26.439   6.656   0.308
98893W        W65434  14.638  32.530   3.996
98894W        W65435  42.561  43.466  12.901
98895W        W65436  37.791  34.510  10.548
98896W        W65437   5.826  36.309   0.639
98897W        W65438  34.673   2.443   1.905
98898W        W65439  11.793   0.853   4.570
98899W        W65440  18.439  30.495  12.162
98900W        W65441  39.831  11.636   5.362
98901W        W65442   8.426   4.078  13.072
98902W        W65443   9.602  29.359  12.729
98903W        W65444  42.491  20.673   3.278
98904W        W65445  43.078  30.473  13.898
98905W        W65446   3.895  32.630  14.028
98906W        W65447  28.344  36.368  11.614
98907W        W65448   7.769  36.591   1.941
98908W        W65449  42.328  14.807   1.761
98909W        W65450   2.224  26.096  13.867
98910W        W65451  44.885  31.384  14.789
98911W        W65452  31.083  18.296   1.804
98912W        W65453  20.181  24.677   3.263
98913W        W65454   8.282   0.054   1.475
98914W        W65455  34.138  29.128   4.178
98915W        W65456  18.231  33.388  10.161
98916W        W65457   7.254   8.669  13.187
98917W        W65458  17.357  43.537   3.695
98918W        W65459  22.383  40.454  14.854
98919W        W65460  30.640  21.103   3.709
98920W        W65461  20.988  19.291   3.229
98921W        W65462  13.437  37.900   2.354
98922W        W65463  12.054  19.132   2.968
98923W        W65464   6.043  21.067  14.629
98924W        W65465   7.663  24.265   4.596
98925W        W65466  38.278  20.623  14.111
98926W        W65467  35.621  38.802  14.472
98927W        W65468  21.639   6.387  13.936
98928W        W65469  10.802  43.999   1.637
98929W        W65470   9.628  16.850  11.880
98930W        W65471  41.999  22.457  12.516
98931W        W65472  24.127  44.175   2.766
98932W        W65473  30.832   1.842   3.339
98933W        W65474  28.414   3.910  11.736
98934W        W65475  27.766   6.290  13.435
98935W        W65476   7.189  42.522  14.030
98936W        W65477  13.174  42.857   1.526
98937W        W65478  37.525  15.447  13.570
98938W        W65479  33.109  28.666   2.679
98939W        W65480  39.440   8.045   0.495
98940W        W65481  24.331  21.023   4.688
98941W        W65482  36.983  28.675   0.289
98942W        W65483  35.417  37.521   4.363
98943W        W65484   3.607  26.714  13.015
98944W        W65485   2.502   3.344   0.553
98945W        W65486  32.373  17.872   0.485
98946W        W65487  36.122  42.703  14.070
98947W        W65488  17.947  10.788  11.102
98948W        W65489  42.270   2.176  12.260
98949W        W65490  44.551  26.719  11.936
98950W        W65491  19.585  37.376   0.659
98951W        W65492  10.405   0.437   1.757
98952W        W65493  32.473  10.853   1.041
98953W        W65494  10.116  40.529  10.309
98954W        W65495   2.001  39.424  14.084
98955W        W65496  18.511  39.076  11.186
98956W        W65497  29.189   2.617   3.658
98957W        W65498  14.179  38.890   2.601
98958W        W65499  12.177   4.129   4.690
98959W        W65500  35.028  42.900  13.518
98960W        W65501  27.216  10.238  13.482
98961W        W65502  12.326  44.205  13.866
98962W        W65503  23.499  14.496   1.396
98963W        W65504  17.044  32.018   3.132
98964W        W65505  26.249  10.582   2.956
98965W        W65506   4.023  18.742   4.969
98966W        W65507  35.704   5.348  14.327
98967W        W65508  40.474  15.826  10.101
98968W        W65509  22.911  18.651  12.399
98969W        W65510   5.177  33.635  12.144
98970W        W65511   4.447  25.161   2.129
98971W        W65512  23.471  29.582   3.227
98972W        W65513  35.795  14.676   5.085
98973W        W65514   1.371  25.352   2.382
98974W        W65515  42.280  24.135  13.480
98975W        W65516  33.775  23.913   0.326
98976W        W65517  34.774  40.838  10.549
98977W        W65518  17.759  28.445  14.948
98978W        W65519  35.822  17.184  14.448
98979W        W65520   3.691  35.301  13.444
98980W        W65521   1.273  35.332   3.775
98981W        W65522  24.020  19.082  13.528
98982W        W65523   1.543  41.921   0.202
98983W        W65524  36.716  34.558  11.696
98984W        W65525  36.014  19.158   3.231
98985W        W65526  18.842  23.030   1.997
98986W        W65527   3.960  20.116  10.482
98987W        W65528   7.320  19.289   1.434
98988W        W65529  20.951  20.459   1.516
98989W        W65530  38.570  33.322   4.496
98990W        W65531   2.385  30.022   2.302
98991W        W65532  32.424   9.613  12.253
98992W        W65533  33.313  25.661  14.355
98993W        W65534  37.291  37.368  14.522
98994W        W65535  26.572  42.535   3.583
98995W        W65536  43.166  31.514   1.379
98996W        W65537  43.350   6.511  13.595
98997W        W65538  35.084  11.111  13.468
98998W        W65539  23.286  22.554  12.750
98999W        W65540   0.798  37.104   0.901
99000W        W65541   9.078  38.857   3.279
99001W        W65542  21.483   3.988   3.326
99002W        W65543  26.325   1.680  14.331
99003W        W65544   7.692  26.114  13.983
99004W        W65545  12.180   3.055  13.391
99005W        W65546   3.897  35.847   4.384
99006W        W65547  36.861  33.078   4.304
99007W        W65548   4.849   1.270  12.129
99008W        W65549  28.569   1.878  11.415
99009W        W65550   7.276   2.488  14.388
99010W        W65551  39.338  38.795  12.171
99011W        W65552  23.799  39.981  13.162
99012W        W65553  24.406  38.042   4.662
99013W        W65554  23.392   7.173  12.554
99014W        W65555  15.136  41.055   2.430
99015W        W65556  15.135  28.460   2.746
99016W        W65557  29.818  27.076   0.611
99017W        W65558   1.679  37.494  11.215
99018W        W65559  18.113  36.560   0.237
99019W        W65560  31.436  11.047   5.055
99020W        W65561  22.756  20.919   0.411
99021W        W65562  15.323  34.511   1.129
99022W        W65563  37.280  11.637   3.534
99023W        W65564   3.343  10.913  11.157
99024W        W65565  25.758  39.441   3.217
99025W        W65566  20.763  20.972  10.273
99026W        W65567  33.654  40.484   2.197
99027W        W65568  39.506   8.378  10.699
99028W        W65569  38.041  11.731   4.650
99029W        W65570  25.225  21.994  12.417
99030W        W65571  18.165  33.907  13.959
99031W        W65572  20.534   6.912  12.577
99032W        W65573  33.849  27.166  11.287
99033W        W65574  36.707   6.443   4.750
99034W        W65575   1.928  17.551   1.305
99035W        W65576  44.515   7.974   0.274
99036W        W65577   6.765  29.797   1.911
99037W        W65578  14.187  40.307  14.351
99038W        W65579  20.211  16.827   1.213
99039W        W65580   2.549  17.492  10.711
99040W        W65581  13.385   3.870   4.187
99041W        W65582  42.958  21.484  11.857
99042W        W65583  44.388  37.854  12.925
99043W        W65584  26.309  21.044   1.286
99044W        W65585  41.555  34.697   1.170
99045W        W65586   4.243   7.591  13.621
99046W        W65587  32.384   0.854   2.323
99047W        W65588  13.276   2.289  12.713
99048W        W65589  34.595  37.742   1.773
99049W        W65590   8.434  34.580   2.897
99050W        W65591  35.344   0.757  11.297
99051W        W65592  10.428  21.054  11.707
99052W        W65593  42.361   2.533   2.300
99053W        W65594  13.243  16.259   4.609
99054W        W65595  26.434  36.976  10.549
99055W        W65596  25.471  30.584  10.589
99056W        W65597  39.395  24.416   3.640
99057W        W65598  44.265  26.486   5.000
99058W        W65599  21.174  12.652  10.572
99059W        W65600  42.499  17.831  14.442
99060W        W65601   6.363  41.505   1.685
99061W        W65602  25.260   1.043   3.246
99062W        W65603   9.184  38.632  14.979
99063W        W65604  35.508  14.261   4.566
99064W        W65605  39.131  26.651   0.804
99065W        W65606  25.795   5.522  10.260
99066W        W65607  11.286  26.945   0.475
99067W        W65608  13.528  16.074  11.518
99068W        W65609  37.380   4.814  14.085
99069W        W65610   1.412  22.304   0.401
99070W        W65611  41.759  20.119   4.766
99071W        W65612   2.170   7.029  14.093
99072W        W65613  26.113  42.206  14.273
99073W        W65614  34.388  44.200  12.967
99074W        W65615   0.030   7.989  11.241
99075W        W65616  22.580  21.567  11.494
99076W        W65617  18.541  13.453   2.209
99077W        W65618  43.995  39.967   1.931
99078W        W65619  30.945  35.784  12.940
99079W        W65620   6.337  23.637  14.940
99080W        W65621   3.285  24.720  14.410
99081W        W65622  30.575  18.753  12.717
99082W        W65623  38.938   2.439  10.263
99083W        W65624  43.513  25.481  13.337
99084W        W65625  43.437   5.401   3.602
99085W        W65626   6.739  24.549  14.329
99086W        W65627   1.917  36.103  10.909
99087W        W65628  31.029   8.183  14.348
99088W        W65629  15.415  34.545  14.561
99089W        W65630   0.954  27.916  14.102
99090W        W65631   5.284  23.353  14.323
99091W        W65632   4.022  28.690  10.695
99092W        W65633   1.947  31.140  10.193
99093W        W65634  26.300  42.308  12.437
99094W        W65635  35.734   1.260   4.123
99095W        W65636   6.480   8.336  14.876
99096W        W65637  21.389   3.227   4.554
99097W        W65638  44.837   9.636   2.414
99098W        W65639   1.859  22.777   2.221
99099W        W65640  32.433  38.092   1.315
99100W        W65641  36.718   3.627   2.494
99101W        W65642  39.107   6.244   2.297
99102W        W65643  19.700  12.156  13.902
99103W        W65644  18.761   2.187   3.328
99104W        W65645   8.779  19.519   3.772
99105W        W65646   4.872  11.870   1.694
99106W        W65647  14.214  27.874   4.481
99107W        W65648  23.529  13.097   1.757
99108W        W65649  25.230  20.959   2.961
99109W        W65650   7.746  40.530   1.264
99110W        W65651  35.684  18.483  13.098
99111W        W65652  11.130  14.246   0.487
99112W        W65653  39.844  25.976   3.126
99113W        W65654  22.661   7.898   0.252
99114W        W65655   7.144  41.652  10.886
99115W        W65656  27.288  10.121  12.324
99116W        W65657  33.540  17.273  12.897
99117W        W65658  12.473  14.086  12.916
99118W        W65659  10.352  43.027  11.421
99119W        W65660  43.529  37.551  10.180
99120W        W65661   2.198  39.869   1.416
99121W        W65662  15.528  37.393  13.988
99122W        W65663  40.366  36.443   4.186
99123W        W65664  20.784  13.037  10.714
99124W        W65665  23.578  14.102  13.906
99125W        W65666   6.684  29.105  10.428
99126W        W65667  31.329   8.960  13.497
99127W        W65668  13.266  42.724  11.688
99128W        W65669  19.719  19.705   4.387
99129W        W65670  44.861  43.244  12.949
99130W        W65671  37.798  17.266  12.363
99131W        W65672  28.302  32.116   5.085
99132W        W65673  42.266  11.123  12.372
99133W        W65674  25.767   1.412   4.136
99134W        W65675  18.946   2.321  14.702
99135W        W65676  34.494  35.874   2.822
99136W        W65677   3.372  33.866  11.615
99137W        W65678  11.696  32.456   0.349
99138W        W65679   0.463  24.729   4.129
99139W        W65680  21.188  15.354   4.251
99140W        W65681  42.997  24.701   2.371
99141W        W65682   0.555  30.174  12.950
99142W        W65683  22.598  30.105  11.998
99143W        W65684  24.944   8.738   1.377
99144W        W65685   2.724  20.677   0.827
99145W        W65686  30.750  41.551   2.718
99146W        W65687  10.116   8.782   1.376
99147W        W65688  17.441  12.588   2.213
99148W        W65689  13.759  10.657  10.468
99149W        W65690  21.759  20.341   4.691
99150W        W65691  24.015  18.751   0.886
99151W        W65692  32.970  11.152   2.202
99152W        W65693  32.838  40.966  13.263
99153W        W65694  29.901   8.567  11.568
99154W        W65695   7.925   3.205  14.693
99155W        W65696   3.600  23.349   1.359
99156W        W65697   4.262   0.453   4.146
99157W        W65698  16.799   1.182   2.784
99158W        W65699  41.027  40.417  12.736
99159W        W65700  44.220  44.246  14.933
99160W        W65701  21.596  27.943   3.006
99161W        W65702  32.136  35.760  11.597
99162W        W65703  25.671   8.644  14.910
99163W        W65704  27.127  34.842   0.949
99164W        W65705   3.667  14.198   0.694
99165W        W65706   2.789  27.723  11.129
99166W        W65707  14.118  21.987  12.461
99167W        W65708  23.001   2.339  11.451
99168W        W65709  18.829  28.551  12.439
99169W        W65710  26.636  27.035  10.755
99170W        W65711  23.766  19.063   3.838
99171W        W65712  36.812   5.678   1.435
99172W        W65713  44.329  22.670  11.051
99173W        W65714  20.306  40.338  11.560
99174W        W65715  31.212  36.892  10.728
99175W        W65716  37.596  14.674  12.674
99176W        W65717  11.298   0.835   4.414
99177W        W65718  24.235   2.747  11.148
99178W        W65719   5.527  36.474  11.578
99179W        W65720  20.988   1.786  14.448
99180W        W65721  24.184  17.763  12.574
99181W        W65722  33.892  44.069   1.689
99182W        W65723  28.123   6.806   0.750
99183W        W65724  13.422   0.179  13.368
99184W        W65725  28.156  28.701  11.528
99185W        W65726  39.245  18.218   1.397
99186W        W65727   1.226  41.805  11.140
99187W        W65728  41.897  27.809   3.166
99188W        W65729  42.593   6.256  11.596
99189W        W65730  34.292  15.249   0.605
99190W        W65731   5.411  32.420   2.783
99191W        W65732  12.112  29.120   2.471
99192W        W65733   4.159  27.692  12.438
99193W        W65734   1.128  18.592  13.946
99194W        W65735   5.949   2.497   1.886
99195W        W65736  13.352  40.940  12.965
99196W        W65737   7.163  34.314  13.068
99197W        W65738  15.074  40.276  14.232
99198W        W65739  28.582  16.794  12.276
99199W        W65740  17.357  22.262   0.407
99200W        W65741  36.174  22.100  12.172
99201W        W65742  17.276  15.842  14.271
99202W        W65743  28.360  42.834   4.333
99203W        W65744  22.251  23.994   4.808
99204W        W65745  18.306  27.561   1.222
99205W        W65746   5.740  26.447   3.212
99206W        W65747   4.188  17.329  12.951
99207W        W65748  44.937  30.383   1.413
99208W        W65749   0.833  44.634   4.071
99209W        W65750  25.161  44.505   3.259
99210W        W65751  12.066  28.277   3.647
99211W        W65752   4.761  22.113  13.995
99212W        W65753  38.376   5.217   0.864
99213W        W65754  21.052  41.026   0.721
99214W        W65755  15.414   4.389   3.585
99215W        W65756  31.447  12.989  11.194
99216W        W65757  33.751  43.430  13.064
99217W        W65758  39.339  40.857  14.407
99218W        W65759   4.182  33.191  12.536
99219W        W65760  33.138  33.038   0.447
99220W        W65761   0.021  34.869   2.257
99221W        W65762   1.520  19.783  12.211
99222W        W65763  16.478  43.840   3.545
99223W        W65764   7.940  22.531   5.381
99224W        W65765  43.343  33.781  10.847
99225W        W65766  19.783  33.112   4.782
99226W        W65767  14.337  41.767   0.487
99227W        W65768   9.052  17.339   4.422
99228W        W65769  22.509   2.718   1.379
99229W        W65770  27.154  19.243  10.970
99230W        W65771   8.269  43.814  12.413
99231W        W65772  32.576  13.746  14.935
99232W        W65773   8.592  10.866   2.664
99233W        W65774   0.861   0.935  11.374
99234W        W65775  11.145  38.044  14.745
99235W        W65776  12.503  16.699   0.284
99236W        W65777  39.935  43.499   4.090
99237W        W65778  40.003   0.132   2.834
99238W        W65779   3.984  15.640  11.656
99239W        W65780  32.038  30.372   1.897
99240W        W65781  13.388   6.145  12.865
99241W        W65782  25.204   0.506  13.939
99242W        W65783  42.003   6.050   0.857
99243W        W65784  13.359  32.403  12.773
99244W        W65785  28.083  43.309   3.204
99245W        W65786   5.173  20.653  13.310
99246W        W65787  23.543  44.299   2.642
99247W        W65788  16.135  37.953  13.808
99248W        W65789   3.810  29.653   0.539
99249W        W65790  25.072  20.061  14.368
99250W        W65791  44.062  38.481   4.204
99251W        W65792  22.397  38.875  12.543
99252W        W65793  18.729  43.891   0.416
99253W        W65794   1.474  37.102  11.966
99254W        W65795  22.100   5.702   3.528
99255W        W65796  32.120  12.254  11.569
99256W        W65797  20.203  33.353  12.088
99257W        W65798  38.242  16.516   0.259
99258W        W65799  28.709  42.108   3.092
99259W        W65800  16.817  22.276   0.682
99260W        W65801  38.542   4.149  14.983
99261W        W65802  25.687  44.435   0.960
99262W        W65803  10.469  15.886   4.265
99263W        W65804  11.793   3.303   3.602
99264W        W65805   9.420  36.266  11.937
99265W        W65806  13.835  21.526  10.686
99266W        W65807  23.204   7.374   1.195
99267W        W65808  43.477   5.029  11.255
99268W        W65809  17.721  13.665   3.925
99269W        W65810  44.699  19.252   2.711
99270W        W65811   0.421  18.334   4.382
99271W        W65812  20.609  39.101  13.850
99272W        W65813   7.581   8.816   2.825
99273W        W65814  37.427  12.684  10.784
99274W        W65815  32.106  39.851  11.563
99275W        W65816  37.619  24.045   3.368
99276W        W65817  18.610  16.209   0.113
99277W        W65818  36.225  28.020   1.715
99278W        W65819  31.159  35.887  13.425
99279W        W65820  19.138   5.577  11.684
99280W        W65821   6.214  29.158   2.351
99281W        W65822  27.401  10.926  12.612
99282W        W65823  43.235  31.489   3.324
99283W        W65824  31.612   0.831  13.434
99284W        W65825  32.429  31.567   1.329
99285W        W65826   5.811  17.920  11.042
99286W        W65827  20.182  28.209   4.465
99287W        W65828   1.443  22.487   4.299
99288W        W65829  19.140   7.358   1.864
99289W        W65830  40.461   6.175  12.481
99290W        W65831  33.596  41.447  13.001
99291W        W65832   6.614  26.558   2.028
99292W        W65833  34.309  12.114   3.700
99293W        W65834  32.480  41.200   2.432
99294W        W65835  26.781  43.322   2.745
99295W        W65836  39.819  36.876  14.949
99296W        W65837  20.396  42.358   3.675
99297W        W65838  16.586   3.191   2.606
99298W        W65839  25.629  16.654  14.447
99299W        W65840  12.385   0.826   0.023
99300W        W65841  25.036  10.214   0.639
99301W        W65842  39.296  10.653   2.861
99302W        W65843  39.107  30.523   4.005
99303W        W65844  14.229   1.197   3.068
99304W        W65845  25.339  41.005  13.334
99305W        W65846  41.761  27.232  11.090
99306W        W65847   5.035  29.416   4.856
99307W        W65848  13.694  13.577   2.046
99308W        W65849  18.885  35.319  13.904
99309W        W65850  32.445   5.553   3.774
99310W        W65851  18.502  15.215   3.190
99311W        W65852  34.712  13.581   1.955
99312W        W65853  25.446   7.647   1.087
99313W        W65854  11.314   5.009   2.908
99314W        W65855   2.802  28.155  12.436
99315W        W65856  16.517  38.181  14.736
99316W        W65857  41.865  15.257   3.831
99317W        W65858   4.310   8.735  12.031
99318W        W65859  25.769   8.550   4.096
99319W        W65860  35.899  28.612  13.461
99320W        W65861  41.711  33.133  12.077
99321W        W65862   6.216  13.736   1.632
99322W        W65863  12.856  26.001  13.604
99323W        W65864  19.113  23.693  13.080
99324W        W65865  33.038   5.101   0.397
99325W        W65866  16.699  25.581  12.561
99326W        W65867  21.271   3.506   0.858
99327W        W65868  16.213   0.933   4.364
99328W        W65869  10.096   6.449   0.137
99329W        W65870  44.457  33.150  11.111
99330W        W65871   3.741   4.558  12.820
99331W        W65872  40.432  35.664  12.955
99332W        W65873   9.638   8.783   5.061
99333W        W65874  36.764   4.972   0.896
99334W        W65875  37.477  31.868   0.829
99335W        W65876  21.589   8.891   2.828
99336W        W65877  30.952  33.257  14.767
99337W        W65878  22.415  33.548   1.870
99338W        W65879   9.734   6.402  13.733
99339W        W65880  28.531  20.488   3.632
99340W        W65881  33.502   5.153  12.993
99341W        W65882  12.067  24.670   2.298
99342W        W65883  25.440  12.528   4.624
99343W        W65884  29.357  38.375   1.701
99344W        W65885  39.354  23.107  11.983
99345W        W65886  16.238  34.771  11.527
99346W        W65887  24.034   1.255   0.237
99347W        W65888  18.002   1.022   4.102
99348W        W65889  12.286  12.182   0.906
99349W        W65890   7.193   9.488   3.233
99350W        W65891  35.878   1.961  13.563
99351W        W65892  14.384  22.496  11.090
99352W        W65893  17.083  38.079   2.644
99353W        W65894  10.927   3.443  14.856
99354W        W65895  14.176  33.881  12.898
99355W        W65896  44.258  41.759  11.402
99356W        W65897  13.403   8.696  14.683
99357W        W65898  37.828  35.817   4.359
99358W        W65899  18.308   1.813  12.162
99359W        W65900  23.107  40.970  13.821
99360W        W65901   7.383  44.097   2.181
99361W        W65902  40.030  44.239   2.500
99362W        W65903   9.807   5.757  13.026
99363W        W65904  28.149  39.950  11.140
99364W        W65905  44.172  30.222   0.914
99365W        W65906  22.345   5.252  13.104
99366W        W65907  21.112  33.033  10.242
99367W        W65908  35.137  21.269   2.306
99368W        W65909  43.884  20.274   0.845
99369W        W65910   8.842   7.591   1.799
99370W        W65911  21.511  25.987  13.867
99371W        W65912  34.805  42.212   4.088
99372W        W65913  38.949   3.512  13.825
99373W        W65914   8.261  25.437  10.967
99374W        W65915  44.799   3.377  10.569
99375W        W65916  39.142  19.463   4.142
99376W        W65917  31.096   0.663   3.550
99377W        W65918  35.339  28.736  14.754
99378W        W65919  25.506   6.698  11.505
99379W        W65920  34.662  41.336  14.889
99380W        W65921  38.289  10.762  14.914
99381W        W65922  39.454   7.405  14.461
99382W        W65923  42.567  11.221  13.431
99383W        W65924  15.734  15.730  10.922
99384W        W65925  34.367  24.195  11.658
99385W        W65926  17.565  41.909   1.017
99386W        W65927   0.363  29.083  12.601
99387W        W65928  40.987  33.549   4.068
99388W        W65929  25.669   2.111   4.376
99389W        W65930  37.999  27.703  11.815
99390W        W65931   5.194  24.404  11.539
99391W        W65932  23.589  23.720   0.848
99392W        W65933  16.792   3.244  14.050
99393W        W65934  20.488  24.166  10.798
99394W        W65935  41.802   6.980  14.570
99395W        W65936  30.192  36.349  13.396
99396W        W65937  20.515  17.349  14.051
99397W        W65938   8.734  37.147  11.559
99398W        W65939  26.664  26.498   5.052
99399W        W65940  32.973  24.703   0.033
99400W        W65941  20.024   9.194   0.948
99401W        W65942   0.360  25.018  13.500
99402W        W65943  24.218   3.421   4.070
99403W        W65944  37.147   1.030   3.479
99404W        W65945   1.959  25.511  11.299
99405W        W65946  44.479  16.820   3.421
99406W        W65947   5.893  11.665   4.540
99407W        W65948  18.517  33.001   4.036
99408W        W65949  22.720   4.597   5.285
99409W        W65950  25.231   6.402  10.244
99410W        W65951  18.478  33.982   4.273
99411W        W65952  27.238  30.167  14.992
99412W        W65953   7.152   9.654   4.549
99413W        W65954  44.811  24.912  11.676
99414W        W65955  12.054  31.186  12.789
99415W        W65956  14.301  41.827  11.234
99416W        W65957  13.804  26.178   4.758
99417W        W65958  26.091  31.648   3.698
99418W        W65959  24.279  15.274   2.709
99419W        W65960  28.722   3.327  10.709
99420W        W65961   5.818  37.935  13.604
99421W        W65962  28.512   5.279   2.824
99422W        W65963  36.015  10.790  13.739
99423W        W65964  38.783  31.037   4.099
99424W        W65965  40.773  16.253  10.266
99425W        W65966  21.116   7.981   3.611
99426W        W65967  26.193   8.759  11.488
99427W        W65968   5.675  20.358  12.943
99428W        W65969  23.987  35.200   0.986
99429W        W65970  43.564  42.523   3.709
99430W        W65971  41.758  35.098   4.093
99431W        W65972   1.866  22.678  12.625
99432W        W65973  28.094  34.386  11.605
99433W        W65974  40.777  14.670  14.901
99434W        W65975  41.464  16.149   3.624
99435W        W65976  20.333  30.442   0.340
99436W        W65977  28.427  22.651   2.268
99437W        W65978  25.243  16.597   0.424
99438W        W65979  29.902  40.069   0.383
99439W        W65980  42.522  14.726  14.078
99440W        W65981  33.618  15.229  11.322
99441W        W65982  34.529   2.309   1.138
99442W        W65983  14.449  40.131   0.924
99443W        W65984  12.607  18.008   4.627
99444W        W65985  21.921   7.360   1.253
99445W        W65986  27.596  18.482  11.214
99446W        W65987  13.798  12.944   0.453
99447W        W65988  12.642  44.257  11.161
99448W        W65989  15.914  29.889   4.480
99449W        W65990   9.394  14.287  12.254
99450W        W65991  17.267  29.859  11.539
99451W        W65992  41.068   3.318  13.292
99452W        W65993  20.264   6.220  10.170
99453W        W65994  31.040  30.518   4.251
99454W        W65995   2.725  42.504  11.936
99455W        W65996  13.531  28.196  10.284
99456W        W65997  13.859   4.880  13.281
99457W        W65998  35.176  44.780  14.355
99458W        W65999  23.580  27.934   1.244
99459W        W66000  37.491  44.808   2.177
99460W        W66001  18.241   3.315   3.392
99461W        W66002   5.970  14.166  14.768
99462W        W66003  14.239   3.030   4.624
99463W        W66004  18.005  17.264   2.593
99464W        W66005  34.980  34.014   4.439
99465W        W66006  38.525  23.590  13.349
99466W        W66007   1.351  19.502  11.035
99467W        W66008  25.561   6.401   2.378
99468W        W66009   6.758   8.377  11.931
99469W        W66010  35.496   5.281  10.248
99470W        W66011  11.393  30.868  14.837
99471W        W66012   4.855   7.165   1.947
99472W        W66013  44.378  37.318   3.833
99473W        W66014  19.522  11.678  11.065
99474W        W66015   4.853  23.135   0.884
99475W        W66016  17.933  11.368  10.402
99476W        W66017  19.853  20.636   3.359
99477W        W66018   2.820  14.352   4.548
99478W        W66019   1.720  10.079   3.574
99479W        W66020  37.434  36.527  14.376
99480W        W66021  41.786  42.730   0.033
99481W        W66022   1.346  15.998  13.076
99482W        W66023  41.049  36.427  13.786
99483W        W66024   5.369  31.854   1.272
99484W        W66025  36.740  10.114  12.108
99485W        W66026   7.779  24.931   2.631
99486W        W66027  15.761  20.964  12.494
99487W        W66028  11.386  26.839  13.999
99488W        W66029  11.754   4.428  11.391
99489W        W66030  26.513  24.242   3.724
99490W        W66031  10.795   3.391   3.316
99491W        W66032   5.207  15.314  10.696
99492W        W66033  26.650  27.132   2.078
99493W        W66034  31.015  21.173  13.941
99494W        W66035  21.830   2.240   2.611
99495W        W66036  31.029   9.352   4.909
99496W        W66037  36.310  39.095   3.126
99497W        W66038  34.986   7.846   2.789
99498W        W66039  38.345  36.571  12.550
99499W        W66040  15.695  44.701   3.747
99500W        W66041  26.518  31.721  13.686
99501W        W66042   5.231   2.636  13.942
99502W        W66043  33.565   4.632  13.001
99503W        W66044  35.845  41.758  11.143
99504W        W66045  23.717   9.513   0.442
99505W        W66046  10.096   4.916   4.592
99506W        W66047   4.277  28.033  11.140
99507W        W66048  10.334  34.090  11.191
99508W        W66049  27.116   2.284  11.580
99509W        W66050   6.266  18.680  14.412
99510W        W66051  42.281  29.609   3.243
99511W        W66052  37.686   3.899  13.792
99512W        W66053  40.217  35.187  11.831
99513W        W66054  19.966   6.416   0.757
99514W        W66055  43.425  44.060   0.219
99515W        W66056   5.677  33.902  11.353
99516W        W66057  35.586   0.702  13.986
99517W        W66058  23.013  20.458   1.370
99518W        W66059   7.688  23.627   0.277
99519W        W66060  10.252   6.105  12.469
99520W        W66061  29.266  15.146   3.254
99521W        W66062  41.751  18.134   2.322
99522W        W66063  11.139   5.899   0.762
99523W        W66064  30.016   2.149   0.260
99524W        W66065   6.248  36.126   0.917
99525W        W66066  21.503  42.133   1.468
99526W        W66067   2.014   9.362   3.110
99527W        W66068  16.053   6.400  10.690
99528W        W66069  12.767  40.429   1.337
99529W        W66070  21.787  22.629   1.853
99530W        W66071  22.461  37.086  10.714
99531W        W66072  16.332   7.605   2.245
99532W        W66073  28.387  36.947   1.820
99533W        W66074   7.056   6.252  13.317
99534W        W66075   5.472  40.210  13.022
99535W        W66076  25.945  17.711   3.338
99536W        W66077  43.322  21.864  11.861
99537W        W66078  20.360  34.172  13.924
99538W        W66079  23.563  19.010   0.791
99539W        W66080  12.070  12.970  14.448
99540W        W66081  25.729   8.966  14.522
99541W        W66082  43.098  14.425  10.997
99542W        W66083  19.453  25.137   1.121
99543W        W66084  36.307  35.962  14.766
99544W        W66085  40.340  13.864  11.529
99545W        W66086  31.059   8.209   0.751
99546W        W66087  22.601  31.206   2.166
99547W        W66088  30.301   3.790  14.694
99548W        W66089  33.634  32.603   4.156
99549W        W66090  34.190  34.166  12.537
99550W        W66091  35.843  18.780   1.811
99551W        W66092  14.285  39.492   1.437
99552W        W66093  15.312  24.090  12.945
99553W        W66094  43.462  40.450  11.315
99554W        W66095  16.783  42.309  11.546
99555W        W66096  18.621  21.219   4.117
99556W        W66097   1.741  14.747  10.782
99557W        W66098  13.322  29.835   0.507
99558W        W66099  43.511   7.608  12.875
99559W        W66100  42.705  35.880  13.911
99560W        W66101  13.597  28.097  14.640
99561W        W66102  19.042   8.984   3.352
99562W        W66103  22.953  13.809  11.944
99563W        W66104  43.556   4.573   4.474
99564W        W66105  27.869  44.902   1.269
99565W        W66106  19.177  13.402   4.977
99566W        W66107  43.748  12.058  14.999
99567W        W66108  38.475  22.590   4.187
99568W        W66109  37.439  12.127   1.192
99569W        W66110  29.483  14.517   0.514
99570W        W66111  29.019  18.753  12.547
99571W        W66112  40.850   6.428   1.724
99572W        W66113  20.826  12.186  11.672
99573W        W66114  40.923  29.589   0.220
99574W        W66115  29.389  42.561  12.025
99575W        W66116   7.933   0.825   0.540
99576W        W66117  20.252  11.381  14.763
99577W        W66118   9.769   9.424  10.668
99578W        W66119  15.102  37.062   1.470
99579W        W66120  27.065  23.437   5.012
99580W        W66121  24.734   5.081   0.825
99581W        W66122  23.972  37.064  10.710
99582W        W66123  42.452  44.398   1.018
99583W        W66124   7.477  25.598  13.895
99584W        W66125  24.596  20.258   2.381
99585W        W66126   0.846   8.565   3.272
99586W        W66127  36.901  39.354   2.533
99587W        W66128  29.879  33.850  10.769
99588W        W66129  32.912  44.466  14.845
99589W        W66130   6.325  37.747  13.539
99590W        W66131   1.110   5.872  14.489
99591W        W66132  33.114  36.863   3.139
99592W        W66133  10.201  34.427   4.131
99593W        W66134  20.686  19.115  11.911
99594W        W66135   3.375   8.109   1.723
99595W        W66136   1.344  32.236  14.903
99596W        W66137   3.865   7.887   0.244
99597W        W66138   0.430  39.082  10.384
99598W        W66139  36.036   6.125   2.741
99599W        W66140  19.159  16.372   9.806
99600W        W66141  38.506  41.713   1.638
99601W        W66142   0.756   5.707  10.733
99602W        W66143  27.066  17.443  10.738
99603W        W66144  15.160   8.948   4.884
99604W        W66145  25.989  36.695  13.591
99605W        W66146  44.862  13.155   1.811
99606W        W66147  43.813  14.229   0.248
99607W        W66148  23.637   7.328   4.662
99608W        W66149  16.565  34.930   4.251
99609W        W66150  33.357  29.506  10.573
99610W        W66151  42.171  19.625   2.826
99611W        W66152  34.730   7.278  13.428
99612W        W66153   8.237  19.537  12.490
99613W        W66154  36.052   1.452   0.756
99614W        W66155  11.316  15.280   0.344
99615W        W66156   3.452  10.366  13.893
99616W        W66157  43.776  35.709  12.932
99617W        W66158  32.215  42.355   4.312
99618W        W66159  42.000   2.227  12.978
99619W        W66160  16.817  14.593  11.562
99620W        W66161  20.465   1.434  10.602
99621W        W66162   0.144  24.900   2.264
99622W        W66163  38.626  14.686  13.929
99623W        W66164  12.164  33.109   4.813
99624W        W66165  32.981  15.541   1.658
99625W        W66166   0.973  16.755   3.738
99626W        W66167   4.658   1.792  14.801
99627W        W66168  25.611  37.029  10.386
99628W        W66169  12.663  37.696   4.084
99629W        W66170  21.825  21.150  14.658
99630W        W66171   8.423   0.439   4.101
99631W        W66172   6.073  30.301   1.178
99632W        W66173  15.469  15.419   0.004
99633W        W66174  41.457  14.679  14.006
99634W        W66175  13.326   8.241  13.755
99635W        W66176   4.386  19.601   2.329
99636W        W66177  13.384  40.835   3.638
99637W        W66178  31.639  13.621  13.428
99638W        W66179  16.370  13.777  11.741
99639W        W66180  37.110  21.606  12.572
99640W        W66181  23.487  21.615  13.427
99641W        W66182  39.538  19.761  11.166
99642W        W66183  17.221   6.695   2.529
99643W        W66184  37.498  29.356   1.266
99644W        W66185  16.057  28.477  13.558
99645W        W66186  38.021  24.197  13.869
99646W        W66187  24.060  44.973  11.997
99647W        W66188  30.612  23.957  10.851
99648W        W66189  27.596  14.637   3.721
99649W        W66190  42.978   7.451  14.561
99650W        W66191   8.476  36.555   3.303
99651W        W66192  44.226  18.348  11.013
99652W        W66193  18.376   1.245  10.644
99653W        W66194  24.041  13.977  12.630
99654W        W66195  36.249  31.390  11.927
99655W        W66196  30.005  23.396  13.939
99656W        W66197  23.608   0.987  11.545
99657W        W66198  43.935  28.320  11.415
99658W        W66199  10.653  17.617   1.420
99659W        W66200   2.030   3.151   1.437
99660W        W66201  36.891  30.626   4.720
99661W        W66202  22.117   8.512   0.255
99662W        W66203  43.734  22.249   2.788
99663W        W66204  15.167  27.548   2.176
99664W        W66205  25.637  44.353   0.363
99665W        W66206  20.321  22.241  14.221
99666W        W66207  27.582  37.898  11.841
99667W        W66208  37.357   0.063   3.529
99668W        W66209   3.536   0.906   3.339
99669W        W66210  39.108  12.581  11.567
99670W        W66211  12.963  27.151   0.020
99671W        W66212  16.859   7.611   2.239
99672W        W66213  42.524  13.895  11.682
99673W        W66214   1.359  34.533  14.975
99674W        W66215  17.670  22.141  14.566
99675W        W66216  33.409  39.858   0.937
99676W        W66217  43.515  24.727  14.356
99677W        W66218  26.100  22.631  13.545
99678W        W66219   3.239  22.793  13.318
99679W        W66220  32.697  36.489   4.004
99680W        W66221  27.141  18.737  13.096
99681W        W66222   2.768  28.522  10.211
99682W        W66223  23.789   9.626  14.499
99683W        W66224  35.001  20.005  11.876
99684W        W66225  19.123  17.653   4.130
99685W        W66226   8.409   5.733  14.162
99686W        W66227  20.917  14.318  13.568
99687W        W66228  41.490  18.504  14.718
99688W        W66229   2.220  21.250   2.256
99689W        W66230  28.184  21.556   2.674
99690W        W66231  35.112  44.338  14.059
99691W        W66232   6.027  27.194  13.794
99692W        W66233  19.246  11.892  13.958
99693W        W66234  23.447   4.531   1.826
99694W        W66235  25.480   0.958   4.253
99695W        W66236  19.154  23.263  10.728
99696W        W66237  32.185  13.897   1.698
99697W        W66238   6.863  24.968   0.198
99698W        W66239  34.550  21.614   0.907
99699W        W66240   7.402   8.562  14.678
99700W        W66241  35.674  23.562  14.448
99701W        W66242  36.035  25.469   2.670
99702W        W66243  44.676  25.559   2.701
99703W        W66244   8.718   5.256   2.273
99704W        W66245   9.249  42.013  10.764
99705W        W66246  13.416  19.261  13.435
99706W        W66247  26.975   8.550   0.252
99707W        W66248  21.731  36.409  11.041
99708W        W66249  15.267   7.787  12.911
99709W        W66250   5.807  10.917  13.688
99710W        W66251  18.982  27.260   0.267
99711W        W66252  24.996  24.512   3.689
99712W        W66253  25.654  31.121   0.780
99713W        W66254  25.138  37.024  11.257
99714W        W66255  29.546  29.072  10.482
99715W        W66256  17.052   7.409   4.186
99716W        W66257  13.511  26.009   1.075
99717W        W66258  20.826  15.266   1.692
99718W        W66259  42.446  24.996   1.238
99719W        W66260  21.091  25.953   1.276
99720W        W66261  25.275  20.895   0.398
99721W        W66262  13.795  21.595  11.586
99722W        W66263   5.298  39.404  11.768
99723W        W66264   3.731  30.898  14.524
99724W        W66265   4.940  37.908  10.731
99725W        W66266  29.447  25.673   3.273
99726W        W66267  10.814   0.430  11.871
99727W        W66268  19.164  41.348  14.484
99728W        W66269   5.801  17.200  11.479
99729W        W66270   2.283  24.780   0.875
99730W        W66271  18.067  21.190  11.899
99731W        W66272  13.617  38.941   0.344
99732W        W66273  22.276  38.950   4.188
99733W        W66274   1.341  33.922   4.233
99734W        W66275  34.457   3.150  10.952
99735W        W66276  19.637  38.932   0.055
99736W        W66277   9.121  32.820  14.270
99737W        W66278  29.507  34.612   0.869
99738W        W66279  11.049   7.102   1.791
99739W        W66280  41.957  15.826   2.148
99740W        W66281   8.326   8.458   0.853
99741W        W66282  31.798  10.629   1.635
99742W        W66283  44.047  22.025   3.726
99743W        W66284  16.318  18.141   2.790
99744W        W66285  21.272  15.998  12.012
99745W        W66286  11.678  16.082  11.986
99746W        W66287  26.460  21.639   3.671
99747W        W66288  24.618  11.213  14.911
99748W        W66289   7.874  28.414   1.756
99749W        W66290   0.696  33.174   0.927
99750W        W66291  44.422  22.561   4.960
99751W        W66292  19.295   0.610  11.559
99752W        W66293  26.574  16.218   1.392
99753W        W66294  42.785   4.057   1.674
99754W        W66295  36.243   1.354   0.265
99755W        W66296   7.775   3.324  10.399
99756W        W66297  41.502  21.278  13.951
99757W        W66298  37.628  26.279   3.356
99758W        W66299  43.437  16.189  12.464
99759W        W66300  14.005  13.355   1.638
99760W        W66301   0.708  29.900  10.556
99761W        W66302  35.769   3.336   9.467
99762W        W66303  19.132  28.095  13.528
99763W        W66304   4.450  38.170   2.280
99764W        W66305  37.854  13.823  10.749
99765W        W66306   8.730  44.952  14.335
99766W        W66307   6.354   1.734   2.753
99767W        W66308  44.319  35.626  11.503
99768W        W66309  27.227  36.508   2.277
99769W        W66310  44.770  33.104  14.742
99770W        W66311  42.091   0.479  10.656
99771W        W66312   1.989   8.402   2.157
99772W        W66313  17.240   0.556  14.833
99773W        W66314  34.148  41.152   3.662
99774W        W66315   5.237  39.448  12.313
99775W        W66316   2.058  13.763   2.843
99776W        W66317  35.226  10.290   3.682
99777W        W66318   0.960  11.603  12.378
99778W        W66319  36.262  23.572  11.703
99779W        W66320  29.185  29.433   3.268
99780W        W66321  22.429  44.812  12.895
99781W        W66322  44.981  29.515   0.440
99782W        W66323  36.330  33.635   0.754
99783W        W66324  21.396  38.787   1.577
99784W        W66325  13.172  41.686  11.841
99785W        W66326   5.843   9.725  12.262
99786W        W66327  26.006   9.378   1.872
99787W        W66328  13.001   4.665  12.838
99788W        W66329  15.470  43.247  11.630
99789W        W66330   7.738  11.328  14.818
99790W        W66331  39.306  27.203  13.945
99791W        W66332  34.454  22.127   0.675
99792W        W66333  23.807  15.056   2.788
99793W        W66334  22.067  44.814   0.688
99794W        W66335   7.421   0.847   0.644
99795W        W66336  24.014   8.694  13.091
99796W        W66337   9.377  18.363   1.737
99797W        W66338  21.519  17.602   0.476
99798W        W66339  29.287  13.719  10.155
99799W        W66340  21.332  33.136  14.906
99800W        W66341  30.870  19.624  12.824
99801W        W66342  42.344   4.911   1.321
99802W        W66343   0.210  37.953  12.329
99803W        W66344  41.571  35.221  11.090
99804W        W66345  39.297  35.614  10.607
99805W        W66346  40.803  31.932   2.233
99806W        W66347  14.760  36.564  13.555
99807W        W66348  20.567   9.384  12.025
99808W        W66349  22.149   9.627   3.328
99809W        W66350  13.839   3.969   1.903
99810W        W66351  16.476  14.639  12.604
99811W        W66352  17.119  11.007  13.519
99812W        W66353  15.057  24.496   1.282
99813W        W66354  17.237  16.364  14.331
99814W        W66355  38.292   4.543   3.403
99815W        W66356   4.198   8.746   3.828
99816W        W66357   5.223  42.491  14.824
99817W        W66358  18.645  42.138  12.579
99818W        W66359  30.806  19.705   5.085
99819W        W66360   8.629  31.838  11.586
99820W        W66361  38.852  29.568   2.641
99821W        W66362  36.612  23.187   4.088
99822W        W66363  33.461  21.754   3.162
99823W        W66364  11.646  34.587   0.793
99824W        W66365  34.171  44.674   3.559
99825W        W66366  12.437  21.800   2.180
99826W        W66367  26.088   8.245   1.318
99827W        W66368  27.548  26.549   3.260
99828W        W66369  35.462  29.424   3.965
99829W        W66370  12.827   6.606   3.644
99830W        W66371  41.335  11.339  13.458
99831W        W66372  16.202  21.693  13.421
99832W        W66373  30.620   5.884   4.153
99833W        W66374   8.503  24.145   2.294
99834W        W66375  41.901  17.062  13.994
99835W        W66376   3.428  20.784   0.540
99836W        W66377  22.126  39.465  10.691
99837W        W66378  32.663  18.526   1.288
99838W        W66379  16.600  35.832   4.252
99839W        W66380  29.119  38.915  12.272
99840W        W66381  38.856  18.108   3.178
99841W        W66382  28.469   8.107   0.462
99842W        W66383  13.353  28.575   1.323
99843W        W66384  31.447  12.581   0.919
99844W        W66385  10.579  20.080   4.064
99845W        W66386  38.569  38.073   3.406
99846W        W66387  33.856  27.634  11.561
99847W        W66388   5.691  20.023   3.917
99848W        W66389  21.140  38.213  13.838
99849W        W66390   5.860  12.729   3.154
99850W        W66391  29.982   4.897   1.446
99851W        W66392   3.826  31.680  12.573
99852W        W66393  11.527  15.386  11.460
99853W        W66394  36.947  18.228   3.092
99854W        W66395  34.889  16.176   1.741
99855W        W66396   1.958  20.071  11.105
99856W        W66397  35.158   1.928  13.026
99857W        W66398  38.494  28.290   3.310
99858W        W66399  29.565   2.500  14.529
99859W        W66400  43.054  21.235  10.856
99860W        W66401  36.453  25.073   0.976
99861W        W66402   8.936  28.976  11.578
99862W        W66403  25.985  32.457   4.137
99863W        W66404  44.508   0.724  14.950
99864W        W66405  20.996  29.577  14.534
99865W        W66406  27.288  13.025   2.642
99866W        W66407  42.596  36.464   0.338
99867W        W66408   9.600  41.273  14.406
99868W        W66409  28.427  19.582  11.376
99869W        W66410  13.216  28.416   4.423
99870W        W66411  40.794  35.706   3.927
99871W        W66412   6.962  26.042   3.313
99872W        W66413  15.494   4.779   2.389
99873W        W66414  13.293  22.809   1.432
99874W        W66415   3.348  14.417   0.307
99875W        W66416  26.928  35.112  14.329
99876W        W66417  23.217   1.821   3.230
99877W        W66418   6.902  27.983   5.087
99878W        W66419   6.738  18.045   3.873
99879W        W66420   1.646  32.052  14.019
99880W        W66421  43.497  35.931  14.362
99881W        W66422  42.332  39.316   4.859
99882W        W66423   4.521  12.489  13.565
99883W        W66424  18.809  18.002   4.344
99884W        W66425  34.680  14.301   1.480
99885W        W66426  39.962  15.132   3.292
99886W        W66427   9.153  34.341   0.792
99887W        W66428  14.473  25.384   5.182
99888W        W66429  27.125  20.819  14.290
99889W        W66430  25.664  41.826   0.468
99890W        W66431  11.539  28.366  11.539
99891W        W66432   4.422  27.075   0.061
99892W        W66433  38.938  44.703   4.287
99893W        W66434  25.115  27.017  11.478
99894W        W66435   5.789  34.125  12.375
99895W        W66436  18.000  15.069   3.112
99896W        W66437  27.415  35.751   3.857
99897W        W66438   0.814   6.375  14.521
99898W        W66439  22.004  39.151  13.416
99899W        W66440   2.688  44.866   1.774
99900W        W66441  12.126   0.049   3.799
99901W        W66442  28.444  36.574  10.573
99902W        W66443  39.760  43.352  13.197
99903W        W66444   7.934  27.932  12.577
99904W        W66445  10.246  42.240   3.796
99905W        W66446   6.913   5.768  13.193
99906W        W66447  22.185  29.484  12.874
99907W        W66448  32.429  27.165  13.255
99908W        W66449  16.570  21.577   2.790
99909W        W66450  35.810  19.749  14.821
99910W        W66451  18.060  18.721   4.130
99911W        W66452   4.987  28.320   2.352
99912W        W66453  40.498   1.750   0.288
99913W        W66454  16.332  21.100   2.791
99914W        W66455  28.962   9.842  12.929
99915W        W66456   6.806  12.655  13.781
99916W        W66457  24.913   9.210  12.993
99917W        W66458   8.767  32.923  12.839
99918W        W66459  14.816  32.590   1.663
99919W        W66460  31.393  20.997   1.225
99920W        W66461   1.848  16.498   2.180
99921W        W66462  37.444   0.995   0.690
99922W        W66463  10.168   8.698  13.957
99923W        W66464  34.567  12.917   0.891
99924W        W66465  27.432  16.508   4.049
99925W        W66466  17.025  39.858   4.430
99926W        W66467  23.462  29.670  14.763
99927W        W66468  27.109  38.089  14.168
99928W        W66469   6.423  21.280   2.242
99929W        W66470  14.849  14.037   1.201
99930W        W66471  36.536  12.823  13.589
99931W        W66472  37.964  39.481   1.486
99932W        W66473  18.497  15.223   1.062
99933W        W66474   9.938  42.864  12.637
99934W        W66475  14.142  37.347   3.229
99935W        W66476   8.366  21.241  13.454
99936W        W66477  27.515  19.543   0.387
99937W        W66478  27.046  23.184  13.597
99938W        W66479  14.879  27.521  12.863
99939W        W66480  18.953  30.976   1.436
99940W        W66481  42.335   0.629   3.982
99941W        W66482  15.729  11.149  13.187
99942W        W66483  13.041   3.951  13.355
99943W        W66484  10.413   1.825  12.930
99944W        W66485  21.319  32.102  14.983
99945W        W66486  41.495  21.331  11.391
99946W        W66487  16.687  28.016   0.802
99947W        W66488   9.020  25.292  12.392
99948W        W66489  24.537  18.416  14.213
99949W        W66490  20.261  14.985  11.373
99950W        W66491  22.231  33.840  13.237
99951W        W66492  32.992  39.831  10.783
99952W        W66493  16.800   1.470   4.809
99953W        W66494   8.330  25.083  14.541
99954W        W66495  36.435   9.101   4.659
99955W        W66496  13.874   8.739  14.007
99956W        W66497   6.465  42.399   0.486
99957W        W66498   1.408  23.492   0.791
99958W        W66499   8.541  30.914   1.734
99959W        W66500  31.177  20.476   1.463
99960W        W66501  39.901   1.868   1.855
99961W        W66502  14.137  29.946   4.987
99962W        W66503  14.600  17.321  13.423
99963W        W66504   3.006  44.318   4.305
99964W        W66505   5.238   0.939  12.116
99965W        W66506  27.782  19.379   2.143
99966W        W66507  22.566  26.498  11.126
99967W        W66508  22.250  41.836  11.975
99968W        W66509  35.354  28.058   3.633
99969W        W66510  29.642  11.711  12.165
99970W        W66511  10.110  41.926   1.395
99971W        W66512  20.332  37.533   3.334
99972W        W66513  14.513  10.089   3.073
99973W        W66514   9.864   5.697   0.538
99974W        W66515   0.963  24.596   4.116
99975W        W66516  35.585  32.852  12.532
99976W        W66517   7.738   6.202   0.164
99977W        W66518  42.973  32.070  11.026
99978W        W66519  30.561  13.077   0.414
99979W        W66520  13.398  23.648  14.297
99980W        W66521   0.717  11.861   3.306
99981W        W66522  11.350  16.127  10.719
99982W        W66523   5.694  20.069   0.457
99983W        W66524  44.399  32.585  14.081
99984W        W66525  42.101  16.623  13.043
99985W        W66526   2.165  34.595  10.615
99986W        W66527  10.456  19.754   2.022
99987W        W66528  16.706   7.180  11.002
99988W        W66529  30.024   9.739   3.746
99989W        W66530  35.635  24.615  10.622
99990W        W66531  19.691  23.535   2.337
99991W        W66532  33.246  13.141   3.162
99992W        W66533   1.830  29.324   3.695
99993W        W66534  42.385  34.615   4.249
99994W        W66535  29.934   3.490  13.762
99995W        W66536  43.253  10.178  11.655
99996W        W66537  27.467  38.508   0.619
99997W        W66538  32.371  39.077   3.160
99998W        W66539  28.766  30.736   2.648
99999W        W66540  17.616  23.066  14.530
    0W        W66541  24.994  38.940   4.478
    1W        W66542   0.646   2.016   1.450
    2W        W66543   2.759  18.673   3.327
    3W        W66544  33.478  29.575   4.663
    4W        W66545  44.436  13.826   1.151
    5W        W66546  39.446   0.887  14.754
    6W        W66547  20.231  34.945   4.675
    7W        W66548  41.456  39.886   0.771
    8W        W66549  34.325  32.293  10.982
    9W        W66550  28.523   9.798   4.075
   10W        W66551  27.415   3.455  13.984
   11W        W66552  44.750   2.243  12.502
   12W        W66553  26.682  24.002   0.808
   13W        W66554  22.784   1.668  12.152
   14W        W66555   9.243  26.266   4.594
   15W        W66556  18.303  30.939  14.785
   16W        W66557  22.082  13.275   3.941
   17W        W66558  43.639  44.435  10.688
   18W        W66559  34.955  43.400  13.613
   19W        W66560   7.814   0.951  10.702
   20W        W66561  43.052  14.172   1.890
   21W        W66562  26.871  41.560  10.173
   22W        W66563  44.047  21.906   1.661
   23W        W66564  26.960  19.772  14.109
   24W        W66565   8.861  34.441   3.762
   25W        W66566   2.352  30.148   9.673
   26W        W66567  38.952  23.047   0.287
   27W        W66568  25.894  27.584  13.777
   28W        W66569  24.031  29.725  13.546
   29W        W66570  38.379  28.000  13.896
   30W        W66571  23.671  14.029   2.925
   31W        W66572  27.679  14.290  13.472
   32W        W66573  18.976  16.469   1.159
   33W        W66574   7.733  33.481   4.503
   34W        W66575  17.567  15.740   3.730
   35W        W66576  28.032  25.984   1.475
   36W        W66577   9.944  38.428   4.507
   37W        W66578  39.588  27.050   1.495
   38W        W66579  36.189  20.719  12.816
   39W        W66580  39.420  19.956  10.419
   40W        W66581   3.642   6.668  13.287
   41W        W66582  29.683  42.944  12.272
   42W        W66583  13.370   2.862   2.242
   43W        W66584  43.788   1.413   0.870
   44W        W66585   7.011  19.196  11.118
   45W        W66586   2.838  39.856  13.095
   46W        W66587  43.805  37.626   1.974
   47W        W66588  20.872  44.840   3.546
   48W        W66589  43.781  29.538  13.779
   49W        W66590   4.767  34.699   5.037
   50W        W66591  16.594  40.254  14.087
   51W        W66592   7.704  14.618  13.311
   52W        W66593  38.168  27.545  13.688
   53W        W66594   7.752   4.009   4.660
   54W        W66595  44.397   7.158   1.003
   55W        W66596  40.388  25.448  10.740
   56W        W66597  18.691  29.221   4.109
   57W        W66598  42.715  30.376   2.757
   58W        W66599   6.667   6.059  14.182
   59W        W66600  30.861  22.520   1.939
   60W        W66601  39.090  22.945   2.076
   61W        W66602   4.787   1.973   1.521
   62W        W66603   0.063  44.264   0.973
   63W        W66604  44.435   5.126   2.413
   64W        W66605   3.860  17.495   3.550
   65W        W66606  33.473  29.112   3.271
   66W        W66607  44.951  36.718  12.026
   67W        W66608  38.530  39.777   0.263
   68W        W66609   5.309   4.182   0.355
   69W        W66610   7.135   8.712   4.518
   70W        W66611   4.718  13.395  11.600
   71W        W66612   5.660   7.183  11.164
   72W        W66613   4.782  37.904   0.261
   73W        W66614  35.262  28.833   2.255
   74W        W66615  11.219   4.181   0.778
   75W        W66616  27.101  10.632  11.483
   76W        W66617  32.989  36.399   1.506
   77W        W66618   3.973   4.736   3.149
   78W        W66619  39.338  11.505   4.090
   79W        W66620  12.864  27.078   2.420
   80W        W66621  10.697  19.552   4.196
   81W        W66622  22.475  31.410  13.771
   82W        W66623  18.815  20.827  12.007
   83W        W66624  22.793  31.044  14.517
   84W        W66625  16.148  17.290   1.425
   85W        W66626  12.685  26.437  14.462
   86W        W66627  15.466  10.457   4.485
   87W        W66628  38.281  38.117   0.901
   88W        W66629  32.056  31.307  14.196
   89W        W66630  33.476  22.779  12.937
   90W        W66631  21.231  30.566   2.308
   91W        W66632   9.460   6.781  11.076
   92W        W66633  41.602  25.845   4.520
   93W        W66634  17.846  36.168   4.631
   94W        W66635  23.798  40.559  12.587
   95W        W66636  31.952  35.827  13.025
   96W        W66637  32.613  25.697   3.201
   97W        W66638  35.169   0.842  10.821
   98W        W66639  43.274  21.637   4.611
   99W        W66640   5.870  36.532  10.606
  100W        W66641  24.002   2.969   3.305
  101W        W66642  10.103  17.400  13.719
  102W        W66643  15.397  45.000   1.100
  103W        W66644  24.729  26.873   2.697
  104W        W66645  39.726  36.493   3.600
  105W        W66646  16.295  15.856   1.835
  106W        W66647  34.058  39.004   1.433
  107W        W66648  25.229  11.589  13.915
  108W        W66649  24.284   0.866   2.568
  109W        W66650  21.579  37.506  12.031
  110W        W66651   3.918  41.192  14.472
  111W        W66652   6.827  35.766  14.290
  112W        W66653  36.099  35.020  13.425
  113W        W66654  11.053  44.801  10.715
  114W        W66655  12.747  12.386   4.103
  115W        W66656  10.615   9.743  11.238
  116W        W66657   8.333  13.505   0.089
  117W        W66658   9.416  14.568  13.956
  118W        W66659  19.831  40.754  11.567
  119W        W66660  10.507  23.597  11.948
  120W        W66661   3.528  37.038   3.649
  121W        W66662  35.853  36.023   4.565
  122W        W66663  12.826  15.831   2.677
  123W        W66664   0.314  15.039   4.698
  124W        W66665  35.536  35.594  14.910
  125W        W66666  11.330  13.293  11.823
  126W        W66667  32.125  12.103   1.915
  127W        W66668   8.115   6.411  13.367
  128W        W66669   8.857  33.253   2.723
  129W        W66670  41.116   5.153   4.723
  130W        W66671  38.093  11.727  14.967
  131W        W66672  25.042  22.081  14.514
  132W        W66673  20.279  25.091   5.014
  133W        W66674  10.193   7.863  11.278
  134W        W66675  19.104  44.364   2.277
  135W        W66676  35.081  21.594   0.508
  136W        W66677  36.883   8.209  11.115
  137W        W66678  38.290  38.398  11.570
  138W        W66679  25.212   9.152  12.057
  139W        W66680   4.326  33.463  11.443
  140W        W66681  43.038  44.921  12.071
  141W        W66682   4.578  11.130  11.015
  142W        W66683   5.693  15.652   3.673
  143W        W66684  35.498  23.665  11.108
  144W        W66685   4.515   7.548  12.817
  145W        W66686  16.996  30.995  12.423
  146W        W66687  37.964  14.907  12.368
  147W        W66688  30.364   8.402  13.445
  148W        W66689  13.560  38.370   1.645
  149W        W66690  19.121  31.000   5.100
  150W        W66691  21.254  13.517  14.916
  151W        W66692  37.569  37.005   2.147
  152W        W66693  21.779  28.217  11.169
  153W        W66694  12.164  39.912   4.059
  154W        W66695   0.935   2.459   2.340
  155W        W66696  26.073   0.590   2.249
  156W        W66697  24.262  19.554   2.906
  157W        W66698  14.271  42.763  11.073
  158W        W66699  29.131  16.081  12.373
  159W        W66700  27.921  26.447   2.162
  160W        W66701   0.853   2.907   1.179
  161W        W66702  26.280  42.865  11.606
  162W        W66703  19.174   0.349  13.902
  163W        W66704  28.428  14.973   2.300
  164W        W66705  17.646  30.653  13.342
  165W        W66706  40.597   6.890   1.816
  166W        W66707   4.167  17.962  14.910
  167W        W66708  42.028  28.249  12.880
  168W        W66709  37.195   5.558  13.578
  169W        W66710  39.961  17.824  14.622
  170W        W66711   6.235  39.512  11.370
  171W        W66712  43.729  10.976   4.269
  172W        W66713  32.495   8.131   4.544
  173W        W66714  31.170  36.131  11.580
  174W        W66715  25.823  11.735   3.502
  175W        W66716  32.892  44.403  11.579
  176W        W66717  30.306  37.341   4.982
  177W        W66718  10.168  15.003  14.523
  178W        W66719   9.178  32.103  12.922
  179W        W66720  29.096  27.893   4.201
  180W        W66721   1.804  16.891  11.573
  181W        W66722  28.429  22.146   4.363
  182W        W66723  22.509  21.097  13.926
  183W        W66724  32.186  42.463  14.069
  184W        W66725  10.450  34.100  10.251
  185W        W66726  30.045   6.159  10.855
  186W        W66727  44.549  32.015   5.002
  187W        W66728   5.602  42.720  12.043
  188W        W66729  14.811  25.180   1.946
  189W        W66730  44.922   4.523  12.933
  190W        W66731   7.350  18.579   1.849
  191W        W66732   0.782  26.910  13.904
  192W        W66733   8.532  22.951   3.400
  193W        W66734  21.004  26.178   4.623
  194W        W66735  24.033   7.849   0.886
  195W        W66736   6.117  40.086   2.650
  196W        W66737  28.655  35.319  11.330
  197W        W66738  37.029  15.258   4.173
  198W        W66739   6.730  11.229  13.977
  199W        W66740   4.669  19.732  12.512
  200W        W66741  38.968  37.379   3.196
  201W        W66742   0.322  15.532   0.847
  202W        W66743  30.618  26.119   2.796
  203W        W66744  12.257  18.646   4.858
  204W        W66745  13.073  26.981   3.810
  205W        W66746  40.826  32.465  13.301
  206W        W66747  25.216  29.149   4.151
  207W        W66748   2.389  21.218   1.762
  208W        W66749  30.633  15.078  11.667
  209W        W66750  16.258  31.923  11.855
  210W        W66751  40.960  25.887  11.538
  211W        W66752   3.168   1.362  11.381
  212W        W66753  28.612  26.019  10.577
  213W        W66754   4.422  42.591   2.885
  214W        W66755   8.716  25.285  10.697
  215W        W66756  43.000  40.397  11.593
  216W        W66757  13.159  34.836   1.513
  217W        W66758  11.237  43.773   1.938
  218W        W66759  39.955  33.828   4.760
  219W        W66760  24.148  42.995   5.258
  220W        W66761  28.104  35.775  13.881
  221W        W66762  11.205  10.832   0.684
  222W        W66763  20.025   4.390  11.899
  223W        W66764  20.589   5.601   0.243
  224W        W66765  40.387  31.880  12.452
  225W        W66766   0.705  25.635   4.316
  226W        W66767  32.343  32.468   3.752
  227W        W66768  22.029  42.288  10.682
  228W        W66769   4.751  29.929   0.503
  229W        W66770   0.595  14.239   3.624
  230W        W66771  34.690  44.438   4.631
  231W        W66772  11.310  43.208  12.408
  232W        W66773   4.986  13.814   2.678
  233W        W66774   2.429   5.929  13.480
  234W        W66775   5.640  28.495  11.608
  235W        W66776  17.599   7.317   3.240
  236W        W66777  35.411  29.401   3.388
  237W        W66778  29.900   4.016  14.946
  238W        W66779  30.501  39.170  12.025
  239W        W66780  37.831  19.239   2.115
  240W        W66781   7.792  44.665   4.299
  241W        W66782  35.871  10.095   2.835
  242W        W66783   0.119  32.538   4.007
  243W        W66784   7.180  35.526   2.886
  244W        W66785  40.920  10.219  11.565
  245W        W66786  18.950  11.343   4.527
  246W        W66787   0.769  20.624   0.870
  247W        W66788  43.813  43.304   1.007
  248W        W66789  35.866  37.301   1.839
  249W        W66790  34.845  22.940   3.731
  250W        W66791  11.784   7.979  14.657
  251W        W66792  22.140   7.913   3.776
  252W        W66793  11.168  44.474   3.654
  253W        W66794  21.457  41.278   3.495
  254W        W66795  22.513  31.642  11.246
  255W        W66796  17.168  30.147   0.385
  256W        W66797   8.992  39.459  11.221
  257W        W66798  41.991  11.194  11.141
  258W        W66799  27.162  20.253   3.091
  259W        W66800   0.260   0.682   4.518
  260W        W66801   9.291  22.395  10.840
  261W        W66802  14.082  16.389   4.063
  262W        W66803  11.856  19.635   0.271
  263W        W66804   0.601  19.455   1.710
  264W        W66805  17.104  14.380  13.321
  265W        W66806  41.761  14.775  13.578
  266W        W66807  33.319  42.537  12.486
  267W        W66808  26.533  38.380  13.535
  268W        W66809  16.081  18.577  13.016
  269W        W66810   1.865  41.249   2.334
  270W        W66811  28.132   4.862  14.884
  271W        W66812   8.187  30.662  11.934
  272W        W66813  18.702  42.141   1.942
  273W        W66814  11.082  17.341  14.041
  274W        W66815  19.240  30.576   4.849
  275W        W66816   8.006  14.300  10.446
  276W        W66817  10.890  26.974  13.289
  277W        W66818  21.193   5.600   1.957
  278W        W66819  22.995  42.389  13.873
  279W        W66820   6.279  11.856  11.537
  280W        W66821  10.839  10.571  13.876
  281W        W66822  33.936   4.867   4.793
  282W        W66823  10.389  13.790   4.150
  283W        W66824  16.723  25.677   3.198
  284W        W66825   2.037  41.688   2.871
  285W        W66826  18.022  28.322  12.654
  286W        W66827  37.081  20.420   2.034
  287W        W66828  21.786  12.759   1.243
  288W        W66829  18.080   4.858  14.810
  289W        W66830   1.886  21.731  14.953
  290W        W66831   3.169   5.169   5.470
  291W        W66832  31.610  16.812   2.771
  292W        W66833  11.271  37.789  12.855
  293W        W66834  38.236   5.813  11.335
  294W        W66835  40.139  30.428  13.748
  295W        W66836  20.716  20.027   2.370
  296W        W66837  35.161  12.632  10.617
  297W        W66838  20.104  22.067   0.705
  298W        W66839  11.166   0.501   1.303
  299W        W66840   1.318  29.000  11.764
  300W        W66841  31.398  23.938   0.457
  301W        W66842  41.023   0.892  13.947
  302W        W66843   7.187  41.816   4.575
  303W        W66844  21.732  29.721  12.662
  304W        W66845   9.166   7.090  11.404
  305W        W66846  30.851  42.336   4.253
  306W        W66847  16.233  26.677   4.719
  307W        W66848  26.708  44.418  12.203
  308W        W66849   7.727  31.477   3.790
  309W        W66850  27.811  34.577  12.829
  310W        W66851   0.305  21.689  12.873
  311W        W66852  25.085  31.985  14.390
  312W        W66853  36.112  22.587  10.953
  313W        W66854   2.396  44.978  12.565
  314W        W66855  36.513  40.307   0.736
  315W        W66856   4.687  10.159  12.767
  316W        W66857  25.295  31.741  10.300
  317W        W66858  15.260  44.042  12.591
  318W        W66859  22.541   8.958  14.084
  319W        W66860  44.584   5.351  11.106
  320W        W66861  19.210  39.559   1.177
  321W        W66862  26.928  33.958  13.931
  322W        W66863  23.758  22.446   3.286
  323W        W66864  20.561  12.108  12.530
  324W        W66865  22.652   0.832  11.073
  325W        W66866  31.205   5.042  13.345
  326W        W66867  15.672   9.434  13.824
  327W        W66868  17.215  17.885  10.374
  328W        W66869  15.575  14.235  11.491
  329W        W66870  26.293  16.127   0.940
  330W        W66871  25.537  17.573   3.682
  331W        W66872  14.864  21.965   2.290
  332W        W66873  41.403   6.369   4.210
  333W        W66874  36.598  32.894  10.599
  334W        W66875  42.452  42.347   0.982
  335W        W66876  14.518  11.657   3.732
  336W        W66877  34.799  22.929  12.854
  337W        W66878  26.944   6.620  14.367
  338W        W66879  23.411  34.606  14.306
  339W        W66880  18.019  35.898  13.364
  340W        W66881  16.530  15.419   3.392
  341W        W66882  11.910  16.850   4.241
  342W        W66883  34.428  33.609  13.939
  343W        W66884  21.064   6.802  14.444
  344W        W66885  21.992  24.721  13.946
  345W        W66886  13.359   6.870   3.764
  346W        W66887  13.874  36.032   4.127
  347W        W66888  40.284  21.701  13.354
  348W        W66889  17.131  21.224  13.011
  349W        W66890   9.802  44.908  14.804
  350W        W66891  40.726  33.973  10.985
  351W        W66892  12.093  15.824   2.118
  352W        W66893  42.589  17.312   9.831
  353W        W66894  44.883  14.206  12.413
  354W        W66895  10.295  12.602  13.481
  355W        W66896  23.745  36.084   3.440
  356W        W66897  36.896  30.995   3.221
  357W        W66898  21.851  18.647   2.309
  358W        W66899   4.022   3.551  10.658
  359W        W66900  23.409   9.928   0.499
  360W        W66901  39.082   3.164  11.650
  361W        W66902  14.728  17.714   0.762
  362W        W66903  23.672  33.624   4.763
  363W        W66904  28.400  41.937   2.275
  364W        W66905  26.978  34.768  14.819
  365W        W66906  32.958   9.818   1.733
  366W        W66907  36.335  14.059   4.115
  367W        W66908   1.062   7.381   2.725
  368W        W66909   2.271  40.799  11.387
  369W        W66910  16.778   5.264  11.643
  370W        W66911   6.115   8.329   2.601
  371W        W66912  44.983  42.886   1.316
  372W        W66913  22.271  39.374  12.535
  373W        W66914  35.037  42.346   0.752
  374W        W66915  24.063  14.608   2.554
  375W        W66916  20.050  10.153  13.807
  376W        W66917  32.010  17.307  10.900
  377W        W66918  28.236  42.441   1.878
  378W        W66919  20.215  19.700   0.487
  379W        W66920  22.244  26.916   0.667
  380W        W66921  31.105  31.594  13.958
  381W        W66922   6.720  35.219  12.329
  382W        W66923   5.949  11.666  13.083
  383W        W66924  32.626  13.419  12.307
  384W        W66925   9.729   4.848  10.816
  385W        W66926   1.180  20.259  11.411
  386W        W66927  42.041  35.601   0.465
  387W        W66928  15.289   9.652  11.534
  388W        W66929  19.401  30.070   3.559
  389W        W66930  34.070  11.324  11.199
  390W        W66931  29.944  15.690   0.773
  391W        W66932  24.500  13.801  13.281
  392W        W66933  43.521  41.614  10.968
  393W        W66934  29.364   5.860   3.678
  394W        W66935  32.548  34.110  11.568
  395W        W66936  44.481  34.447  10.600
  396W        W66937  37.629  26.295  13.682
  397W        W66938  22.866  35.430   1.861
  398W        W66939  11.847  33.177   0.945
  399W        W66940  23.275  29.156  14.735
  400W        W66941  40.598  21.600   4.909
  401W        W66942  44.856  28.014  11.574
  402W        W66943   5.177  40.961   2.415
  403W        W66944  39.704  22.157   1.212
  404W        W66945  35.428  24.231  11.730
  405W        W66946   1.784  32.626  11.427
  406W        W66947  18.289  24.566  10.509
  407W        W66948  25.964  30.552  14.995
  408W        W66949  39.524  38.002   1.013
  409W        W66950  20.031  36.867  14.419
  410W        W66951  41.932  12.680   4.020
  411W        W66952  11.365  14.227   1.381
  412W        W66953   0.703  33.100  11.694
  413W        W66954  30.564   1.198  14.969
  414W        W66955  16.178  37.089   1.142
  415W        W66956  32.085  31.623  13.113
  416W        W66957   5.839  30.130  11.124
  417W        W66958  32.539  32.824  13.837
  418W        W66959   6.651   3.322  11.121
  419W        W66960  22.642  15.859   2.868
  420W        W66961  10.053  41.375   2.614
  421W        W66962  25.652  16.295   3.338
  422W        W66963  10.372  26.116   0.932
  423W        W66964  31.225  12.366   0.019
  424W        W66965   0.476  32.992  10.846
  425W        W66966  42.759  10.961   1.482
  426W        W66967  17.150   6.826  14.314
  427W        W66968  25.638   5.020   2.738
  428W        W66969  30.260  37.096  12.044
  429W        W66970  36.515  19.974   3.328
  430W        W66971  18.139   6.179   1.007
  431W        W66972  31.508  10.592   3.748
  432W        W66973   5.677  43.480   1.920
  433W        W66974  26.191  11.690  14.376
  434W        W66975  13.785   5.783  13.064
  435W        W66976  44.313  23.637  10.731
  436W        W66977  41.270   4.433  11.209
  437W        W66978  38.952  14.695   3.222
  438W        W66979   9.187  35.722   1.002
  439W        W66980  33.590  28.783  11.551
  440W        W66981  16.708  44.951  14.451
  441W        W66982  40.240  33.713   3.662
  442W        W66983  12.968  25.672   4.037
  443W        W66984  10.672  26.081  12.997
  444W        W66985  28.409   8.945  11.726
  445W        W66986  33.803  13.154  14.941
  446W        W66987   0.239  18.001   0.775
  447W        W66988  18.832  22.695   0.350
  448W        W66989   5.353  14.567  12.328
  449W        W66990  18.069   2.274  12.892
  450W        W66991  37.029  34.049   2.212
  451W        W66992   6.996  39.572  14.360
  452W        W66993  25.738  14.201   4.609
  453W        W66994   4.116  13.715   4.624
  454W        W66995  20.138  32.897  13.498
  455W        W66996  33.588  31.957  11.540
  456W        W66997  20.921  42.105  12.466
  457W        W66998  14.604  32.477   2.144
  458W        W66999  28.994  37.140   4.950
  459W        W67000   9.817  33.186  11.545
  460W        W67001  39.924   6.656   1.176
  461W        W67002  35.468  22.237   0.445
  462W        W67003   5.788  20.132   3.420
  463W        W67004  32.667  39.248  14.564
  464W        W67005  30.451  20.089  13.403
  465W        W67006   8.871  39.447   2.157
  466W        W67007   2.833  34.873   2.218
  467W        W67008  30.543  32.498  14.740
  468W        W67009  37.871  25.636  13.909
  469W        W67010  16.007   2.924   4.121
  470W        W67011  17.174  12.447   0.470
  471W        W67012  39.489   7.191   0.839
  472W        W67013   6.361  18.481  11.900
  473W        W67014  27.540   4.202   2.097
  474W        W67015  41.515  26.645  12.473
  475W        W67016  36.545  33.353   3.973
  476W        W67017  36.128  21.045   3.628
  477W        W67018   4.775  17.762   1.262
  478W        W67019  34.385   4.597   2.328
  479W        W67020  37.563   3.373   4.129
  480W        W67021  21.050  17.935   5.036
  481W        W67022  26.910  25.223   1.588
  482W        W67023  12.851  23.476   3.314
  483W        W67024   6.839  39.052  12.655
  484W        W67025   8.988  34.797  14.431
  485W        W67026  43.198   5.903   0.156
  486W        W67027  13.658  28.443  14.232
  487W        W67028  29.771  18.494   1.674
  488W        W67029  32.523   0.789  10.909
  489W        W67030  39.315  30.388   1.750
  490W        W67031  36.572   4.705   1.742
  491W        W67032   4.202  44.963   5.138
  492W        W67033   2.654  44.656   0.036
  493W        W67034  20.521  44.152  14.841
  494W        W67035   7.589  10.576   1.893
  495W        W67036  16.872  20.190  10.398
  496W        W67037   1.452  26.094   2.693
  497W        W67038  39.746  16.202  13.931
  498W        W67039   6.796  11.716  13.918
  499W        W67040  29.895  19.680   1.186
  500W        W67041  10.763  33.490  10.755
  501W        W67042  31.030   1.531  11.082
  502W        W67043   8.749  33.945   1.408
  503W        W67044  23.087  21.622   3.898
  504W        W67045  23.147  27.733  12.936
  505W        W67046   2.964  39.306   2.915
  506W        W67047  27.910  41.925  14.692
  507W        W67048   3.328  21.059  14.323
  508W        W67049  44.492  14.884  14.221
  509W        W67050  38.261  11.652   4.195
  510W        W67051   0.872   4.914  11.126
  511W        W67052  26.623  43.780   2.441
  512W        W67053   1.190  41.351   4.114
  513W        W67054  18.062  15.379  13.938
  514W        W67055   2.251  30.217  14.448
  515W        W67056   4.241  28.240  11.602
  516W        W67057  34.761   0.021  12.901
  517W        W67058  10.792  17.109   1.400
  518W        W67059   8.681   2.641   0.926
  519W        W67060  23.532  33.654   2.333
  520W        W67061  11.767  44.924   3.096
  521W        W67062  43.039   4.236  11.503
  522W        W67063  11.730   2.972  10.769
  523W        W67064  18.160  24.628   2.357
  524W        W67065   5.843  29.850   3.382
  525W        W67066  17.989  34.495  12.516
  526W        W67067  31.903  25.684   1.166
  527W        W67068  24.141  26.082   3.107
  528W        W67069  40.440  24.460  10.612
  529W        W67070   9.770  19.765  14.851
  530W        W67071   7.596  23.579  11.169
  531W        W67072   1.631  19.412   0.746
  532W        W67073  39.982  29.602   2.883
  533W        W67074  24.969  24.368  12.029
  534W        W67075  20.672  39.040  13.164
  535W        W67076   2.746  30.861   2.608
  536W        W67077  40.430  37.571  12.976
  537W        W67078  23.143  30.688   1.939
  538W        W67079   7.414  15.653   0.929
  539W        W67080  25.238   5.909   1.633
  540W        W67081   6.263  38.048  12.082
  541W        W67082  26.138   8.427  14.937
  542W        W67083  33.505   7.418   1.774
  543W        W67084  37.090   8.627  13.949
  544W        W67085  37.822  19.378  12.432
  545W        W67086  12.660  31.217  11.606
  546W        W67087   1.207  26.246   3.606
  547W        W67088  23.922   4.721   0.278
  548W        W67089  15.854  13.137  12.059
  549W        W67090  19.113  44.834  13.917
  550W        W67091   2.333   6.282   3.241
  551W        W67092  31.438   6.722  10.907
  552W        W67093  32.520  43.530   4.051
  553W        W67094  31.945  31.628   0.380
  554W        W67095  28.915  39.041  11.830
  555W        W67096  40.200  16.824   1.392
  556W        W67097  27.645  26.254   3.803
  557W        W67098  17.554  11.908   0.840
  558W        W67099  14.951   8.797   1.063
  559W        W67100  36.620  20.520   2.275
  560W        W67101  24.602  12.004  14.355
  561W        W67102  32.623  43.071  14.549
  562W        W67103  30.712   7.663  13.553
  563W        W67104  16.429  13.769   5.212
  564W        W67105  34.147  11.648   4.636
  565W        W67106  41.151  37.280  12.508
  566W        W67107  32.577  44.092  11.870
  567W        W67108  14.778   5.179   4.149
  568W        W67109  14.326  26.378  13.964
  569W        W67110  24.023   5.434  14.882
  570W        W67111   2.451  38.474   0.145
  571W        W67112  11.301  31.239   1.924
  572W        W67113   0.273  34.928  12.651
  573W        W67114  11.601  22.145  10.997
  574W        W67115  18.679  40.724  12.223
  575W        W67116  12.353   4.235   2.862
  576W        W67117  30.981  14.100  11.652
  577W        W67118  41.276  24.004   4.638
  578W        W67119  23.784  31.080   1.307
  579W        W67120  42.474  17.071  10.999
  580W        W67121  42.999  38.999   2.697
  581W        W67122   4.152   4.895  12.822
  582W        W67123   7.796  26.343   1.004
  583W        W67124  40.841  43.356  10.658
  584W        W67125   6.735   2.609  11.533
  585W        W67126  11.270   3.810  13.051
  586W        W67127  44.742  31.553   1.272
  587W        W67128  42.494  38.376   1.606
  588W        W67129  43.285  14.881  13.630
  589W        W67130  29.226  30.210  11.431
  590W        W67131   9.348  16.646   0.372
  591W        W67132  36.862   2.379  12.992
  592W        W67133  40.418  12.376   1.377
  593W        W67134   5.168  35.787   1.728
  594W        W67135  15.454   7.291   0.223
  595W        W67136  42.852  23.758  11.564
  596W        W67137  18.127  10.199   0.417
  597W        W67138  16.650  32.170   0.404
  598W        W67139  40.816   0.912  14.795
  599W        W67140  14.420  20.633   0.813
  600W        W67141  16.375  29.487   0.827
  601W        W67142  33.947  43.427  12.185
  602W        W67143  35.865  12.881   3.191
  603W        W67144  44.506  19.103   3.656
  604W        W67145  41.870  17.241   3.275
  605W        W67146  30.643  18.187  12.013
  606W        W67147  44.868  21.628  14.456
  607W        W67148   1.636  26.248  10.486
  608W        W67149  34.491  29.493   2.020
  609W        W67150  35.821  23.660   3.098
  610W        W67151  36.513  31.397   2.183
  611W        W67152  39.382  12.228  12.478
  612W        W67153  41.995  14.837  11.221
  613W        W67154  20.030   2.600   4.731
  614W        W67155  30.593   8.134  12.879
  615W        W67156  25.320   8.861   2.289
  616W        W67157  38.441  31.012   1.172
  617W        W67158   8.452  31.075  12.093
  618W        W67159  37.599  31.038  13.547
  619W        W67160  20.433  40.991  13.489
  620W        W67161   2.831  44.793  10.618
  621W        W67162  27.563   4.430  12.111
  622W        W67163   7.778  29.965   4.109
  623W        W67164  36.092   3.028  13.284
  624W        W67165  28.883  29.896  11.615
  625W        W67166  40.362  39.189   1.880
  626W        W67167   3.816  23.098   9.974
  627W        W67168  13.885  20.201   0.863
  628W        W67169  15.739  20.090   0.779
  629W        W67170  16.620  24.841  10.525
  630W        W67171   1.876  14.174   3.106
  631W        W67172  21.000  44.272  11.880
  632W        W67173  24.738  21.496  13.985
  633W        W67174   9.189   8.385  14.283
  634W        W67175   3.626  11.118  14.728
  635W        W67176  28.173  20.697   4.783
  636W        W67177  36.002  29.933  12.941
  637W        W67178  19.765  24.775   3.811
  638W        W67179  21.030  11.073  12.104
  639W        W67180  22.538   1.362  14.760
  640W        W67181  25.572  26.909   2.412
  641W        W67182   9.907  43.966   1.905
  642W        W67183  29.958  36.093   0.253
  643W        W67184  35.377  10.724  12.557
  644W        W67185  27.730  12.897   1.979
  645W        W67186  30.671  43.903  10.762
  646W        W67187   9.275  23.675   0.959
  647W        W67188  11.244  17.588   4.626
  648W        W67189  37.841  22.564   4.372
  649W        W67190   8.188  42.567  14.395
  650W        W67191   4.652  15.290  11.554
  651W        W67192  27.627  33.551   4.718
  652W        W67193  13.143   3.372  12.013
  653W        W67194  19.055  37.929  13.344
  654W        W67195  31.274  43.771  11.564
  655W        W67196  15.679  43.254  14.970
  656W        W67197  23.459  21.620   1.519
  657W        W67198  12.111  15.050   1.720
  658W        W67199  19.567  26.134  13.092
  659W        W67200  33.584  24.260   3.140
  660W        W67201  15.706  23.894  12.360
  661W        W67202  16.158  21.773  10.962
  662W        W67203  20.315  14.060   0.398
  663W        W67204   2.379   6.700   1.459
  664W        W67205  19.049  14.748   0.038
  665W        W67206  31.055  21.256   0.320
  666W        W67207  24.510  14.642  12.876
  667W        W67208  17.132  20.776  11.214
  668W        W67209   8.856   8.788  10.469
  669W        W67210  33.521   6.630   3.784
  670W        W67211  33.208  12.835   2.741
  671W        W67212  28.571  11.385   3.214
  672W        W67213  16.599   1.709   1.783
  673W        W67214  31.724  43.794   3.060
  674W        W67215  20.331  37.838  11.277
  675W        W67216   3.466  44.328   2.621
  676W        W67217  35.922  27.502  12.891
  677W        W67218  44.650  19.730  12.329
  678W        W67219  41.379  22.142  13.886
  679W        W67220  19.315  14.592  10.730
  680W        W67221   7.841  16.298  12.137
  681W        W67222   6.918  41.702   2.107
  682W        W67223  11.820  18.987   3.718
  683W        W67224   0.746  20.047  12.129
  684W        W67225  12.309  15.301  10.348
  685W        W67226  22.498  33.166   4.495
  686W        W67227  26.655  40.996  11.473
  687W        W67228   6.131  42.351  10.498
  688W        W67229  23.256  21.122   3.799
  689W        W67230  20.996  19.490   1.342
  690W        W67231   1.335  24.126   3.801
  691W        W67232  23.504  36.454  11.543
  692W        W67233  35.905   1.808  11.569
  693W        W67234  40.042  40.544   4.061
  694W        W67235   1.893  23.581  13.534
  695W        W67236   2.813  35.506  13.843
  696W        W67237   0.378  38.955   4.488
  697W        W67238  14.279   7.926  13.804
  698W        W67239  29.780  19.033  13.801
  699W        W67240  31.209  12.688  11.555
  700W        W67241   4.039   0.952   2.232
  701W        W67242  30.938  32.112   3.320
  702W        W67243   6.809  23.998  12.061
  703W        W67244  17.677  15.300   9.684
  704W        W67245  33.403  39.947   4.606
  705W        W67246   0.933  30.619   0.313
  706W        W67247  35.583  24.561   4.240
  707W        W67248  28.333  32.343   4.613
  708W        W67249   8.425  39.199  14.010
  709W        W67250  37.505  34.288   2.305
  710W        W67251  22.696  31.501   0.384
  711W        W67252   1.240  20.667   3.819
  712W        W67253   0.498  26.785   4.120
  713W        W67254  30.693  44.066   4.480
  714W        W67255  31.616   6.888  12.324
  715W        W67256  12.364  16.869  12.077
  716W        W67257  34.504   4.559  12.413
  717W        W67258   6.176  32.814   1.257
  718W        W67259  33.648  17.818  12.768
  719W        W67260   0.372  39.431   3.180
  720W        W67261  22.972   4.310  11.637
  721W        W67262  38.424  42.466   2.844
  722W        W67263  43.543  30.393   2.180
  723W        W67264  21.504  12.505   3.779
  724W        W67265   9.397  32.189   5.024
  725W        W67266  18.474   2.477   0.138
  726W        W67267  20.304  42.527  12.551
  727W        W67268  40.726  22.967  11.493
  728W        W67269   6.672  30.315  11.557
  729W        W67270  13.898  18.974   3.199
  730W        W67271   3.237  16.031  11.467
  731W        W67272   5.713  24.665  14.285
  732W        W67273  22.698  17.337  12.585
  733W        W67274  21.148   9.280   4.041
  734W        W67275  34.981   9.568  13.472
  735W        W67276  29.812   0.137   4.142
  736W        W67277  22.177  16.070   1.904
  737W        W67278  17.798  43.781   1.286
  738W        W67279   4.723  41.713  11.898
  739W        W67280   4.754  30.625   4.117
  740W        W67281  44.532   5.802  12.964
  741W        W67282  29.476  33.306  11.981
  742W        W67283  38.939  18.686  12.817
  743W        W67284  21.041  42.494   3.468
  744W        W67285  13.629  19.200   0.888
  745W        W67286  29.974  23.452   0.307
  746W        W67287   2.000  13.737   1.406
  747W        W67288   3.000  39.826   1.766
  748W        W67289  14.255   6.987  11.124
  749W        W67290  30.025  27.486  13.787
  750W        W67291  30.959  29.631  13.477
  751W        W67292   4.994  15.923   4.101
  752W        W67293   5.861  30.376  10.277
  753W        W67294  14.503  12.193   3.697
  754W        W67295  20.446  12.345   1.313
  755W        W67296  13.999  39.226   4.275
  756W        W67297  20.130  35.512  11.786
  757W        W67298  40.482  14.253  11.192
  758W        W67299   3.084  43.437   4.572
  759W        W67300  29.072  18.292  14.174
  760W        W67301  21.037  40.667  14.400
  761W        W67302  25.604  27.001  10.657
  762W        W67303   6.715   3.172   2.327
  763W        W67304   9.912  31.424  13.002
  764W        W67305  28.703   4.260  11.530
  765W        W67306  34.849  33.186  11.663
  766W        W67307  17.503  38.950  11.156
  767W        W67308   7.442  41.281  11.090
  768W        W67309  36.612  24.517  13.084
  769W        W67310  15.903  14.604   5.436
  770W        W67311  31.355  35.600   1.184
  771W        W67312   2.881  12.708  11.293
  772W        W67313  26.524  29.538  14.612
  773W        W67314  42.987  20.405  12.402
  774W        W67315  28.020  30.298  12.607
  775W        W67316  36.823  25.438  10.815
  776W        W67317  15.067   4.827  11.687
  777W        W67318   5.329  16.973   3.232
  778W        W67319  36.408   6.065  14.545
  779W        W67320  32.091  22.067   3.660
  780W        W67321  11.878   2.822   4.429
  781W        W67322  17.038  24.486   3.310
  782W        W67323  26.941  19.686   3.317
  783W        W67324   3.801  20.235   3.583
  784W        W67325  34.017  31.200   0.370
  785W        W67326  31.174  40.455   3.314
  786W        W67327  43.923  34.587   0.896
  787W        W67328  28.864  17.612   4.791
  788W        W67329  16.255  24.510   2.410
  789W        W67330  20.464  23.143   2.847
  790W        W67331  14.157  33.945   0.192
  791W        W67332  23.554  30.507  11.156
  792W        W67333  21.458  26.716   0.893
  793W        W67334  17.098  10.214   2.900
  794W        W67335  40.303  41.850   1.290
  795W        W67336  44.864  23.078   2.738
  796W        W67337  42.851  33.975   2.860
  797W        W67338  36.331  25.400   3.685
  798W        W67339  16.203  12.622   0.293
  799W        W67340   1.776  16.347   1.678
  800W        W67341   5.883  13.202  14.751
  801W        W67342  42.966  17.269   2.339
  802W        W67343   9.879  26.849  12.382
  803W        W67344  41.333  18.906  14.365
  804W        W67345  37.591  43.261   0.553
  805W        W67346   1.912   5.780  13.390
  806W        W67347   0.834  40.814  13.389
  807W        W67348  19.881   3.034  11.465
  808W        W67349   6.626  44.848   1.185
  809W        W67350  34.350  34.085  14.959
  810W        W67351  12.572  17.605   1.964
  811W        W67352  19.784   4.870  11.150
  812W        W67353  36.961  31.431   1.134
  813W        W67354  40.550  26.884  13.422
  814W        W67355  39.859   4.273   2.691
  815W        W67356  28.201  30.651  11.544
  816W        W67357   3.434  13.635  11.050
  817W        W67358  17.346   1.293  11.515
  818W        W67359   0.630  13.027  12.009
  819W        W67360   6.966  26.059  11.668
  820W        W67361  26.969   0.847   3.110
  821W        W67362   3.029  33.243   4.973
  822W        W67363  16.197  25.877  11.410
  823W        W67364  13.806  12.832  11.119
  824W        W67365  22.602   7.748   1.910
  825W        W67366  13.115  12.047   2.800
  826W        W67367   5.408  23.196  10.901
  827W        W67368   1.421  12.128  14.516
  828W        W67369  36.887   6.155  14.316
  829W        W67370  44.842  24.149   3.721
  830W        W67371   2.260  29.126   1.471
  831W        W67372  29.063   5.203   1.145
  832W        W67373  22.015  36.519  14.977
  833W        W67374   5.891   9.188   3.420
  834W        W67375  31.878  18.250  13.426
  835W        W67376  27.005  11.052   4.951
  836W        W67377  18.412  19.464  14.408
  837W        W67378  40.681  22.000  12.547
  838W        W67379  25.059  22.197  13.020
  839W        W67380  21.385  42.546   0.877
  840W        W67381  43.364  41.326   3.777
  841W        W67382   8.245  32.297  12.571
  842W        W67383  20.961  42.895   4.126
  843W        W67384  20.477  10.415  14.445
  844W        W67385   9.194  19.058  12.503
  845W        W67386  24.500  27.627   1.331
  846W        W67387  27.545  40.874  11.606
  847W        W67388  32.079  26.546  12.023
  848W        W67389  22.934  10.757  14.719
  849W        W67390  40.001  43.658   2.265
  850W        W67391  29.199   8.195   3.207
  851W        W67392  42.500  23.701  13.601
  852W        W67393  37.071   8.233  13.019
  853W        W67394  29.844   5.520  13.590
  854W        W67395  20.405  27.984  14.776
  855W        W67396  40.179  18.556  11.252
  856W        W67397  11.742  25.675  13.392
  857W        W67398  24.602  39.078   2.161
  858W        W67399  34.159  23.535  10.719
  859W        W67400  38.570  38.302  14.000
  860W        W67401  14.592  23.358   1.976
  861W        W67402  29.497  35.369  12.062
  862W        W67403  39.548  44.951   2.111
  863W        W67404   7.624   1.745  11.020
  864W        W67405  21.968  40.148  13.717
  865W        W67406  12.216   5.761  12.107
  866W        W67407   8.441   8.715   0.409
  867W        W67408  36.793  28.138  11.174
  868W        W67409   1.223  16.134   2.848
  869W        W67410  19.239  20.313  13.966
  870W        W67411   4.708  23.494   9.606
  871W        W67412  37.838   0.889  14.448
  872W        W67413  22.299   6.926   2.312
  873W        W67414  32.642   3.903   4.929
  874W        W67415  38.147  12.030  10.264
  875W        W67416  13.813  24.591  12.092
  876W        W67417   6.124  10.839   0.713
  877W        W67418  41.557   7.845   3.272
  878W        W67419  32.850  34.463   0.163
  879W        W67420  13.352  41.108   1.436
  880W        W67421  41.099   0.940  10.780
  881W        W67422  21.207  33.450   1.165
  882W        W67423  12.136  28.948  11.062
  883W        W67424  36.624  33.842  12.955
  884W        W67425   9.828  39.481   3.289
  885W        W67426  24.950  18.362  11.108
  886W        W67427  41.657  23.279   3.083
  887W        W67428  27.040  15.703   0.515
  888W        W67429  19.367  16.286   4.096
  889W        W67430   5.589  35.121   2.305
  890W        W67431  42.937   2.493  12.852
  891W        W67432  40.243  12.652   5.354
  892W        W67433   0.508  34.020  12.517
  893W        W67434  25.741   8.951   2.606
  894W        W67435  21.672  11.253   0.729
  895W        W67436  14.310   8.712   3.685
  896W        W67437  11.760   2.359   3.223
  897W        W67438   8.671  44.805  12.118
  898W        W67439  10.868  36.873   4.885
  899W        W67440  20.725  36.324   1.375
  900W        W67441   6.070  15.043   2.276
  901W        W67442  10.756  43.479   2.831
  902W        W67443  38.570  12.082   4.115
  903W        W67444  25.905  14.514   4.186
  904W        W67445  23.964   9.822  12.074
  905W        W67446  26.915  12.726   2.837
  906W        W67447   2.225  10.247  10.771
  907W        W67448  22.422  17.090  10.769
  908W        W67449  21.604   2.552   2.140
  909W        W67450   7.290   4.120  11.165
  910W        W67451  41.917   1.283   4.072
  911W        W67452  18.172  26.278   0.813
  912W        W67453  40.011  27.967   1.455
  913W        W67454   3.443  34.343  13.929
  914W        W67455  41.999   8.550  10.554
  915W        W67456  12.698  12.592   1.769
  916W        W67457  42.798   4.978   2.925
  917W        W67458  28.124  44.053   3.696
  918W        W67459   2.120   5.988  11.199
  919W        W67460  15.541  25.196  14.522
  920W        W67461   8.634  39.745  13.469
  921W        W67462  34.480  32.168   0.984
  922W        W67463  10.805   1.553  11.086
  923W        W67464  15.184  18.751  12.008
  924W        W67465  34.927  34.380  14.963
  925W        W67466   5.353  10.647  14.503
  926W        W67467  22.077  11.275  11.417
  927W        W67468  42.507   2.754   1.834
  928W        W67469  22.222  33.144  14.922
  929W        W67470  40.964  27.054   4.115
  930W        W67471   1.746  12.155  12.482
  931W        W67472  12.805  16.897  12.424
  932W        W67473   0.589  33.822  14.923
  933W        W67474  13.598  13.547   2.931
  934W        W67475  44.455  17.501   4.247
  935W        W67476  16.713  37.813   0.715
  936W        W67477  24.606  37.116   3.677
  937W        W67478   0.126  20.392   1.238
  938W        W67479  39.091  30.418  13.960
  939W        W67480  37.918  14.280   5.053
  940W        W67481  14.472  40.153   3.897
  941W        W67482  36.824  23.996   2.655
  942W        W67483  22.428  31.850  13.354
  943W        W67484  18.752  43.432   2.469
  944W        W67485  27.286  12.757  12.242
  945W        W67486  44.214   5.750  11.536
  946W        W67487  35.166  15.863   2.252
  947W        W67488   3.972  28.156   3.722
  948W        W67489  32.181   9.176  10.988
  949W        W67490   5.749  44.356   2.275
  950W        W67491  29.461  21.709  14.422
  951W        W67492  42.395  21.514   2.393
  952W        W67493  10.118  12.384  13.007
  953W        W67494  40.745  31.137  12.122
  954W        W67495  27.965  22.928  14.388
  955W        W67496  31.347  14.202  12.464
  956W        W67497  31.320  25.572  14.216
  957W        W67498   4.878   3.261   1.640
  958W        W67499  16.566  43.495  11.977
  959W        W67500  18.227  34.438  13.901
  960W        W67501  21.209   3.493  11.450
  961W        W67502  37.168   2.691  14.348
  962W        W67503   5.737   6.431  10.622
  963W        W67504   4.370  42.203   3.743
  964W        W67505   8.477  41.930  11.064
  965W        W67506   0.339  41.512  13.520
  966W        W67507  27.899  35.508  12.995
  967W        W67508  34.936  21.964   0.926
  968W        W67509  41.499  23.196  11.140
  969W        W67510  36.376  24.463   2.709
  970W        W67511  15.137  24.173   1.831
  971W        W67512  17.291  10.987   4.027
  972W        W67513   6.405  19.240   4.400
  973W        W67514  37.650  24.040  11.140
  974W        W67515  41.708   1.652  11.200
  975W        W67516  42.725  13.357  14.434
  976W        W67517  29.958  21.534  11.037
  977W        W67518  33.875  39.679   3.573
  978W        W67519  19.524  40.924  13.382
  979W        W67520   0.364  39.832   4.676
  980W        W67521  29.435  34.699   5.012
  981W        W67522  36.321   4.345   4.776
  982W        W67523  41.397  29.457  14.235
  983W        W67524  42.744  20.767   2.323
  984W        W67525   2.678   5.874  11.231
  985W        W67526  44.487  27.399   0.814
  986W        W67527   0.466  28.902   3.042
  987W        W67528  17.498  26.751   4.866
  988W        W67529  37.481   7.373   4.120
  989W        W67530   1.309   1.917  12.331
  990W        W67531  42.202  27.616  12.028
  991W        W67532  11.265  20.753  11.158
  992W        W67533  11.140   9.846   4.371
  993W        W67534   9.407   6.247   3.845
  994W        W67535  31.450   7.955  11.116
  995W        W67536   1.941  23.491  11.651
  996W        W67537  15.050  17.118   2.133
  997W        W67538  11.102  38.593  14.015
  998W        W67539  43.248  15.022  10.965
  999W        W67540   3.805  14.221   2.245
 1000W        W67541  43.520   8.156   3.580
 1001W        W67542  32.943   4.331   0.856
 1002W        W67543  14.781  16.892   0.486
 1003W        W67544  25.211  14.201  10.720
 1004W        W67545  20.526  23.841   0.877
 1005W        W67546  13.107  26.535   3.185
 1006W        W67547   5.368  13.645  13.779
 1007W        W67548  23.933  31.096  11.698
 1008W        W67549  27.672  18.490  12.580
 1009W        W67550  12.589   7.181   4.535
 1010W        W67551  35.312   8.955   4.149
 1011W        W67552  28.178  44.987  10.562
 1012W        W67553  40.111  28.008  13.830
 1013W        W67554  40.171  20.352  12.917
 1014W        W67555  26.954   1.386  12.144
 1015W        W67556   7.262  28.912   2.205
 1016W        W67557  39.357   6.867  14.365
 1017W        W67558  19.749  29.936   0.396
 1018W        W67559  15.332  17.086   3.167
 1019W        W67560  40.271   1.429   1.223
 1020W        W67561  20.077  34.806  13.411
 1021W        W67562  11.653  39.981   0.717
 1022W        W67563   7.466  13.375   1.603
 1023W        W67564  23.201  32.027  10.311
 1024W        W67565  42.739  15.399  14.205
 1025W        W67566   5.906  34.455   0.594
 1026W        W67567  20.749  18.072  10.316
 1027W        W67568  25.934  40.331   0.700
 1028W        W67569   2.811  40.147   0.855
 1029W        W67570  30.592  38.515   4.676
 1030W        W67571  13.529  16.703   4.597
 1031W        W67572   2.003  22.916   1.706
 1032W        W67573  19.891   4.751   0.360
 1033W        W67574  15.703  13.653   3.146
 1034W        W67575   0.150  17.197  11.910
 1035W        W67576  43.466  42.784   2.714
 1036W        W67577   5.241   2.794   3.654
 1037W        W67578  12.757  22.663  14.028
 1038W        W67579  10.967  41.335   3.177
 1039W        W67580  17.540   7.357   1.298
 1040W        W67581  12.193  29.205   3.359
 1041W        W67582  25.489  41.973  14.319
 1042W        W67583  36.103  27.677  14.493
 1043W        W67584  14.845  26.187  12.287
 1044W        W67585  21.304  39.012   0.809
 1045W        W67586  27.582  24.192  12.051
 1046W        W67587  20.757  39.919   1.127
 1047W        W67588   9.216  17.785   3.605
 1048W        W67589  17.619  15.779   3.227
 1049W        W67590  28.967  24.408   4.206
 1050W        W67591  37.482  26.005   0.524
 1051W        W67592  37.889  12.074  12.935
 1052W        W67593  20.970  31.586   2.453
 1053W        W67594  44.580  38.494   3.247
 1054W        W67595  28.966   3.842   0.950
 1055W        W67596  28.890  21.609  12.302
 1056W        W67597  33.575   3.411   2.337
 1057W        W67598  23.058  39.694   2.762
 1058W        W67599   7.324  32.390   2.800
 1059W        W67600  43.794  18.838   2.841
 1060W        W67601  23.718  43.231  13.009
 1061W        W67602  34.062  44.253  14.272
 1062W        W67603  31.991  11.263   2.127
 1063W        W67604  11.605  10.332   0.955
 1064W        W67605  24.320  30.230   4.587
 1065W        W67606  12.393  39.740   1.846
 1066W        W67607  19.119   1.535  14.447
 1067W        W67608  33.455  17.138   5.071
 1068W        W67609  29.427  14.821  12.413
 1069W        W67610   4.892  40.706   4.334
 1070W        W67611   2.119  11.804  13.455
 1071W        W67612   2.752  23.516  12.429
 1072W        W67613  17.785  39.338  10.818
 1073W        W67614  27.883  29.514   0.243
 1074W        W67615   7.943   1.349  11.004
 1075W        W67616  25.609   6.116  14.741
 1076W        W67617  13.915  34.536   2.322
 1077W        W67618  17.334   6.710  10.892
 1078W        W67619   7.632   4.662  11.893
 1079W        W67620  42.057  30.447  13.326
 1080W        W67621   8.509  24.513   2.684
 1081W        W67622  42.461  13.797   3.211
 1082W        W67623  31.846   0.804  12.031
 1083W        W67624   7.674  27.747  11.931
 1084W        W67625  18.305  26.868   2.453
 1085W        W67626  33.883  13.063   4.473
 1086W        W67627   0.762  10.965   3.391
 1087W        W67628  12.747  22.264  14.451
 1088W        W67629  23.226  18.433   1.464
 1089W        W67630  24.251   8.153   1.239
 1090W        W67631   8.671  18.773   3.134
 1091W        W67632  12.340  43.702  14.018
 1092W        W67633  14.586  34.815  14.702
 1093W        W67634  31.493  38.488  12.213
 1094W        W67635  37.035   6.238   0.403
 1095W        W67636  35.413  39.057   2.941
 1096W        W67637  25.049   4.688   3.880
 1097W        W67638  22.762  24.592   4.106
 1098W        W67639   0.992  13.764   4.695
 1099W        W67640  15.082  34.431  13.068
 1100W        W67641  35.831  18.851  12.479
 1101W        W67642  17.538  19.333  11.557
 1102W        W67643  40.275  26.124   3.449
 1103W        W67644  32.409   9.427   0.975
 1104W        W67645  17.289  12.673  13.901
 1105W        W67646   3.403  21.996   3.300
 1106W        W67647  42.338  27.545  13.739
 1107W        W67648  21.728  28.941   0.466
 1108W        W67649   3.463  29.855   4.465
 1109W        W67650  18.490  10.723   4.126
 1110W        W67651   7.669  34.345   3.173
 1111W        W67652  26.071  37.502   3.694
 1112W        W67653  43.804  14.820   0.782
 1113W        W67654  29.628  39.377   4.270
 1114W        W67655  41.964  16.262  13.506
 1115W        W67656   7.708  17.073   0.033
 1116W        W67657   8.487   6.274   4.451
 1117W        W67658   6.778  20.993   0.478
 1118W        W67659  33.136  41.802   2.888
 1119W        W67660  20.541  20.090   3.285
 1120W        W67661   8.667  27.457  14.898
 1121W        W67662  44.484   4.636   3.390
 1122W        W67663  38.107   2.006   4.286
 1123W        W67664   2.784   7.752  14.022
 1124W        W67665  31.551  36.762   2.781
 1125W        W67666  22.773  19.912   3.856
 1126W        W67667  20.488  11.236   4.595
 1127W        W67668  19.248   5.535  10.598
 1128W        W67669  15.182  30.408  10.211
 1129W        W67670  31.707  24.103   2.818
 1130W        W67671  35.498  29.930  13.361
 1131W        W67672  24.196  13.434   4.340
 1132W        W67673  44.294  13.385   2.580
 1133W        W67674  35.246  29.724  13.950
 1134W        W67675  42.340  37.853  12.265
 1135W        W67676  20.064  38.773  14.351
 1136W        W67677  27.995  41.048   4.112
 1137W        W67678  41.592  44.857  12.183
 1138W        W67679   2.934  41.015  11.129
 1139W        W67680  18.986  13.365  11.172
 1140W        W67681  27.064  34.048  11.088
 1141W        W67682   3.721  25.772   3.241
 1142W        W67683  28.800  17.775  10.321
 1143W        W67684  36.981   6.938  14.978
 1144W        W67685   7.997  34.929   4.793
 1145W        W67686  32.671  43.987  10.478
 1146W        W67687  15.273  13.646  14.676
 1147W        W67688   3.018  31.801  12.990
 1148W        W67689  13.510   5.134  12.923
 1149W        W67690   8.835  39.522  13.917
 1150W        W67691  42.049  12.477   3.552
 1151W        W67692  23.573   9.097   4.125
 1152W        W67693   7.194   4.351  13.939
 1153W        W67694   2.966  34.583   1.803
 1154W        W67695  42.559  30.505   1.899
 1155W        W67696  44.170  23.638  12.942
 1156W        W67697  13.496  32.278   4.078
 1157W        W67698  13.809  10.338  12.764
 1158W        W67699  17.918  30.965  11.566
 1159W        W67700  43.740   4.450  11.965
 1160W        W67701  31.458  25.227   1.835
 1161W        W67702  25.713  28.578  14.457
 1162W        W67703  36.765   8.684   3.787
 1163W        W67704  27.889  22.460   5.182
 1164W        W67705  44.875   1.212  12.186
 1165W        W67706   2.537   9.232  10.800
 1166W        W67707  23.273  29.455  13.865
 1167W        W67708  23.944  29.233   0.425
 1168W        W67709  20.485  17.156  14.926
 1169W        W67710  13.646  33.149   4.126
 1170W        W67711  32.561  23.737  11.630
 1171W        W67712  20.682   2.590  11.962
 1172W        W67713   1.257  28.468  11.650
 1173W        W67714  21.507  27.505   4.949
 1174W        W67715  36.049  36.086  14.284
 1175W        W67716  16.884  13.789   3.339
 1176W        W67717  31.570  15.033  14.678
 1177W        W67718   3.340  16.366  14.337
 1178W        W67719   3.197   1.640   0.588
 1179W        W67720  15.187  24.332  11.150
 1180W        W67721  44.287  21.275   3.083
 1181W        W67722  43.978  38.436  14.172
 1182W        W67723   5.427  24.002  12.556
 1183W        W67724   5.362  27.359   2.569
 1184W        W67725  12.820  29.391  12.098
 1185W        W67726  11.383  37.313   3.667
 1186W        W67727  24.537  44.887   0.689
 1187W        W67728  15.291  27.854   1.763
 1188W        W67729  26.037  21.424   1.516
 1189W        W67730  13.328   3.880  10.591
 1190W        W67731  10.163   3.707  12.093
 1191W        W67732   9.188  23.607   2.801
 1192W        W67733   1.170  39.551  11.161
 1193W        W67734  37.341  30.049   4.117
 1194W        W67735  16.410  12.210   0.557
 1195W        W67736  40.300   4.300   1.927
 1196W        W67737  44.741   2.212  13.438
 1197W        W67738  20.200  40.330   2.826
 1198W        W67739  43.324   4.288   4.850
 1199W        W67740  23.017  36.641  11.386
 1200W        W67741  44.725  30.355   0.925
 1201W        W67742  18.980   2.736  12.643
 1202W        W67743  20.810  19.036   1.493
 1203W        W67744  15.699   0.799  14.913
 1204W        W67745  30.260  35.994   3.643
 1205W        W67746   0.818  10.207  12.656
 1206W        W67747  17.159  30.188  14.858
 1207W        W67748  25.202  44.839  13.399
 1208W        W67749  28.868  26.405   4.136
 1209W        W67750  41.881  32.067   3.383
 1210W        W67751  33.298  18.631   1.823
 1211W        W67752  24.332  29.288   3.136
 1212W        W67753  20.308  23.631   3.945
 1213W        W67754  30.475  10.682   3.623
 1214W        W67755  18.991  32.742  13.977
 1215W        W67756  17.339  10.831  12.249
 1216W        W67757  30.624  38.969   1.277
 1217W        W67758   6.152  41.925   0.361
 1218W        W67759  12.875  11.671   4.814
 1219W        W67760   7.282   7.696  13.577
 1220W        W67761  40.565  31.228   0.476
 1221W        W67762  16.223   5.190   4.228
 1222W        W67763  34.964  37.012  12.464
 1223W        W67764  26.626  20.569   2.713
 1224W        W67765  29.423   2.392   2.900
 1225W        W67766  41.211  14.152  13.290
 1226W        W67767  28.671   1.350  11.581
 1227W        W67768  18.397  13.301  10.308
 1228W        W67769  18.982   4.950  14.161
 1229W        W67770  34.572  24.681   1.401
 1230W        W67771  29.483  35.619   1.830
 1231W        W67772  17.760   0.385  12.167
 1232W        W67773  15.748   2.446   1.933
 1233W        W67774  10.634   7.340  10.689
 1234W        W67775  36.783  17.015   2.998
 1235W        W67776  33.895  15.820   0.032
 1236W        W67777  13.642   8.760  13.552
 1237W        W67778  43.204  36.727   1.933
 1238W        W67779  31.324  21.998  12.097
 1239W        W67780  20.594   6.885   1.837
 1240W        W67781   1.956   1.107   3.177
 1241W        W67782  24.032  21.959   0.177
 1242W        W67783  14.136  39.035   1.656
 1243W        W67784  42.477   8.572  10.757
 1244W        W67785   2.873  28.668  12.375
 1245W        W67786  31.135  38.377   1.159
 1246W        W67787  12.728  26.698  14.941
 1247W        W67788  37.012  36.394   4.073
 1248W        W67789  20.335  15.312   2.774
 1249W        W67790  20.269   9.153  11.137
 1250W        W67791  18.048  44.455   0.810
 1251W        W67792  41.432  12.331  13.591
 1252W        W67793  22.750   4.887   4.478
 1253W        W67794  43.361  12.778  13.545
 1254W        W67795  21.582   2.769  13.010
 1255W        W67796   1.422  29.759  14.588
 1256W        W67797  21.742  16.229  14.223
 1257W        W67798   2.898   4.256  11.547
 1258W        W67799  38.372  10.828   4.693
 1259W        W67800   0.522  13.036   2.376
 1260W        W67801  31.895  12.066  13.484
 1261W        W67802  10.559  35.892  14.904
 1262W        W67803  35.557   2.041  12.708
 1263W        W67804  40.323  20.979   0.126
 1264W        W67805  34.822  22.063  13.334
 1265W        W67806  35.076  31.354  13.895
 1266W        W67807  10.200   3.350  10.966
 1267W        W67808  44.988  29.119  14.626
 1268W        W67809  35.447   5.985  12.472
 1269W        W67810  29.030  17.299   2.421
 1270W        W67811  17.209  23.112   3.037
 1271W        W67812   2.788  12.625  14.252
 1272W        W67813  38.474  13.493   5.414
 1273W        W67814  24.940  15.768   0.726
 1274W        W67815  29.318  38.336   3.866
 1275W        W67816  14.824  28.562   1.757
 1276W        W67817  16.612  24.553   4.117
 1277W        W67818  22.180  26.900   3.891
 1278W        W67819  18.962   4.927  14.965
 1279W        W67820  38.334   1.191  12.583
 1280W        W67821  18.773  10.215  14.750
 1281W        W67822  16.740   7.244  12.939
 1282W        W67823  17.126  34.863  14.455
 1283W        W67824  22.758   2.896  12.529
 1284W        W67825  20.074  21.712  12.560
 1285W        W67826  23.227  19.687   3.965
 1286W        W67827  26.961  42.491  11.212
 1287W        W67828  13.636   4.174   3.866
 1288W        W67829  10.728  16.213   0.353
 1289W        W67830  31.124  41.597  14.871
 1290W        W67831   2.797  38.046   3.710
 1291W        W67832   7.827  42.470  12.863
 1292W        W67833  20.031   7.671   5.122
 1293W        W67834  12.589  41.854   3.584
 1294W        W67835  36.070  41.052   2.265
 1295W        W67836  35.840  39.284  10.456
 1296W        W67837   0.491  10.855  12.666
 1297W        W67838  28.669  41.872   4.111
 1298W        W67839  27.034  44.375   0.727
 1299W        W67840  31.140  20.744   2.415
 1300W        W67841  10.224  18.227  10.888
 1301W        W67842  36.400   5.535  10.081
 1302W        W67843  34.870  29.119  10.482
 1303W        W67844  28.852   1.905  12.921
 1304W        W67845  29.781  43.824   3.828
 1305W        W67846  29.278  42.904  10.817
 1306W        W67847  44.451  23.788   0.180
 1307W        W67848  42.743  26.618  11.179
 1308W        W67849  26.451   0.919  13.803
 1309W        W67850  16.928  22.037   1.179
 1310W        W67851  31.267   0.691   4.211
 1311W        W67852   4.260  10.842   2.257
 1312W        W67853  15.499   7.045   2.188
 1313W        W67854  12.151  11.322  12.703
 1314W        W67855   6.486  36.666  14.439
 1315W        W67856  13.597  11.567  14.046
 1316W        W67857  25.829   3.852   4.221
 1317W        W67858  36.094   2.986  11.928
 1318W        W67859   0.240  42.749  12.462
 1319W        W67860  14.606  23.480  10.845
 1320W        W67861   0.394  30.708   3.677
 1321W        W67862  25.687   8.877   0.790
 1322W        W67863  38.166   0.028   2.810
 1323W        W67864  34.129  40.482   0.746
 1324W        W67865  26.757  39.617  12.847
 1325W        W67866  24.008   1.436   3.348
 1326W        W67867  36.840  27.376  12.569
 1327W        W67868  15.203  13.225  14.954
 1328W        W67869  22.773   1.342   1.479
 1329W        W67870  30.241  38.326  12.323
 1330W        W67871   7.450   6.335  11.034
 1331W        W67872   5.182  17.477   3.298
 1332W        W67873  41.336   7.185  13.403
 1333W        W67874  28.358  17.300   4.353
 1334W        W67875  13.733  20.295   1.743
 1335W        W67876   2.221  18.140  13.896
 1336W        W67877  37.774   9.741  14.435
 1337W        W67878  34.186  11.679   2.538
 1338W        W67879   5.476  31.212  14.508
 1339W        W67880   5.299  18.469   3.138
 1340W        W67881  33.191  22.199   4.101
 1341W        W67882  13.585  17.587  12.484
 1342W        W67883   0.816  17.778   3.691
 1343W        W67884  13.400  26.618   1.220
 1344W        W67885   4.950  11.136  13.860
 1345W        W67886  29.467   2.652   1.887
 1346W        W67887  18.372   4.313  14.349
 1347W        W67888  22.136  32.087  13.802
 1348W        W67889  30.992  17.328  14.770
 1349W        W67890  39.997  42.998  12.858
 1350W        W67891  43.005  15.176  10.544
 1351W        W67892   6.668  31.407   1.729
 1352W        W67893  35.983  22.751   4.371
 1353W        W67894   5.971   9.538   3.835
 1354W        W67895  29.626  34.593  12.489
 1355W        W67896  34.738  22.444  10.585
 1356W        W67897  15.160  11.417  11.932
 1357W        W67898  22.879   7.473   1.589
 1358W        W67899  11.355  24.493   1.084
 1359W        W67900  21.477  15.519  11.489
 1360W        W67901  36.996   2.123   1.349
 1361W        W67902   9.673  24.094   4.063
 1362W        W67903  40.484  33.454   1.423
 1363W        W67904   0.323  32.396   1.767
 1364W        W67905  29.421  37.841   3.252
 1365W        W67906   0.881  10.427   1.837
 1366W        W67907  31.135  17.747   3.608
 1367W        W67908  43.589  14.633  10.962
 1368W        W67909   4.796  40.431  14.225
 1369W        W67910  11.862  14.613  10.938
 1370W        W67911   3.958  29.144  10.978
 1371W        W67912   4.473   3.749   2.201
 1372W        W67913   1.319  27.769  10.206
 1373W        W67914  44.959  11.833  13.857
 1374W        W67915  24.694  34.457   0.764
 1375W        W67916  24.506  37.211  10.797
 1376W        W67917  10.359  29.703   2.382
 1377W        W67918  42.760  40.368  10.616
 1378W        W67919  38.384   5.560   4.357
 1379W        W67920   8.362   4.365   3.337
 1380W        W67921  22.124  14.333  11.665
 1381W        W67922  20.019  24.134  11.650
 1382W        W67923  38.575  12.081   3.585
 1383W        W67924  21.211  29.028  13.420
 1384W        W67925  11.628  42.067   3.649
 1385W        W67926   9.845  18.256  10.527
 1386W        W67927  13.654  22.088   4.619
 1387W        W67928   8.825   9.788   4.321
 1388W        W67929  20.518  10.817  12.857
 1389W        W67930  42.558  40.069   1.395
 1390W        W67931  14.777   8.449  11.182
 1391W        W67932  16.981  19.107   1.872
 1392W        W67933  38.609  24.122   2.141
 1393W        W67934   9.888  39.227   1.470
 1394W        W67935  40.077  22.521  13.814
 1395W        W67936  39.486  17.141  11.027
 1396W        W67937  32.401  39.488   2.713
 1397W        W67938  19.645   0.945   0.414
 1398W        W67939  19.285   1.877   3.957
 1399W        W67940  17.644  25.774   3.112
 1400W        W67941  43.407  37.021   0.220
 1401W        W67942  36.487   3.329   1.175
 1402W        W67943  18.815  34.938   4.776
 1403W        W67944   3.125   9.974   0.667
 1404W        W67945  29.957   9.667  14.398
 1405W        W67946  19.535  18.141   0.766
 1406W        W67947   2.724  10.761   2.240
 1407W        W67948  17.459  13.701  10.166
 1408W        W67949  26.906  16.641   0.421
 1409W        W67950  33.646  24.136  14.386
 1410W        W67951  13.443  37.440  11.981
 1411W        W67952  10.812   3.847  11.105
 1412W        W67953  34.193  28.543   2.276
 1413W        W67954  41.440  44.884  13.095
 1414W        W67955  26.562  10.196   1.739
 1415W        W67956  44.420  17.324  12.422
 1416W        W67957   2.346  39.339   4.225
 1417W        W67958   0.762   3.841  12.093
 1418W        W67959   3.253  24.942   3.198
 1419W        W67960  38.978  20.620  12.077
 1420W        W67961  22.178  31.528   3.267
 1421W        W67962  31.397  34.818   3.200
 1422W        W67963  38.065   4.327   1.287
 1423W        W67964  42.075  21.231   4.034
 1424W        W67965  24.388  27.632  11.657
 1425W        W67966  17.867   7.671   0.331
 1426W        W67967  40.544  17.706  10.746
 1427W        W67968  14.795  26.599  13.882
 1428W        W67969   9.356  38.808  13.955
 1429W        W67970  44.536  23.178  11.469
 1430W        W67971  11.578   3.233  12.570
 1431W        W67972  36.446  19.657  13.391
 1432W        W67973  25.335  23.574   3.274
 1433W        W67974   6.633  12.756  12.098
 1434W        W67975  15.278  25.206   1.720
 1435W        W67976  40.421  39.794  11.656
 1436W        W67977  35.646  21.268   3.178
 1437W        W67978  40.826  12.167  11.143
 1438W        W67979  39.309  20.704   2.393
 1439W        W67980  10.160  18.795   4.067
 1440W        W67981  37.035  27.553   4.585
 1441W        W67982  44.107  39.745   1.184
 1442W        W67983   6.172   6.861   0.014
 1443W        W67984  13.709  21.284   1.695
 1444W        W67985  43.693  39.041   2.126
 1445W        W67986  31.846  42.411  12.560
 1446W        W67987   7.245  41.305   2.164
 1447W        W67988  14.262   0.561  11.642
 1448W        W67989  36.917   8.161  14.297
 1449W        W67990   7.589  38.056  14.631
 1450W        W67991   0.199   4.460  12.092
 1451W        W67992  37.379  14.900   4.284
 1452W        W67993  44.964   9.894   1.961
 1453W        W67994  20.408   3.139  11.543
 1454W        W67995  43.322  33.094   0.433
 1455W        W67996  35.780  13.560   0.824
 1456W        W67997  31.377  26.656   4.138
 1457W        W67998   5.242  34.651   4.803
 1458W        W67999  38.046   7.635   4.610
 1459W        W68000  15.674  12.181  11.657
 1460W        W68001  34.964  30.067   1.849
 1461W        W68002  44.909  13.825   4.131
 1462W        W68003   3.271  13.872   1.813
 1463W        W68004  28.949   5.768  13.554
 1464W        W68005  22.590   7.070   9.789
 1465W        W68006  30.487  16.753   4.199
 1466W        W68007  36.617  18.705  10.712
 1467W        W68008  15.788  18.819  13.403
 1468W        W68009  10.231  20.338   1.845
 1469W        W68010   1.837  38.954   4.672
 1470W        W68011  30.598  20.571   3.692
 1471W        W68012   0.879  12.344   2.470
 1472W        W68013   1.002  16.739   2.302
 1473W        W68014  19.218   6.045   0.326
 1474W        W68015  11.329   8.614   4.100
 1475W        W68016  16.174   5.444   1.049
 1476W        W68017  38.476  23.990   0.669
 1477W        W68018  43.044   1.233  12.276
 1478W        W68019  27.570  43.728  11.248
 1479W        W68020  28.835  41.150   4.830
 1480W        W68021  30.862  35.742   1.248
 1481W        W68022  44.771   8.259  14.225
 1482W        W68023  23.947  31.352  14.943
 1483W        W68024  43.467  19.141   4.894
 1484W        W68025  20.398   9.994   4.966
 1485W        W68026   7.258  17.332   3.988
 1486W        W68027  18.651  32.513  10.900
 1487W        W68028  34.646  41.256   4.673
 1488W        W68029  31.887  38.855   2.266
 1489W        W68030  20.464  24.918   2.817
 1490W        W68031  25.050   1.847   4.285
 1491W        W68032   4.474  41.916  13.306
 1492W        W68033  29.453  18.261   2.265
 1493W        W68034  29.592  17.845   4.765
 1494W        W68035  42.436  17.012  10.481
 1495W        W68036   1.217   1.775  10.169
 1496W        W68037  24.996  15.839   2.769
 1497W        W68038  37.701  29.711  12.031
 1498W        W68039  39.026  13.328   2.624
 1499W        W68040   2.682   0.971  14.601
 1500W        W68041   6.871   4.765  13.564
 1501W        W68042  32.348  44.403   2.482
 1502W        W68043  42.553  36.969   4.248
 1503W        W68044  21.997  18.740  10.704
 1504W        W68045  30.176  26.955  14.614
 1505W        W68046  14.855  23.917  14.878
 1506W        W68047   3.876  27.886  11.466
 1507W        W68048  17.638  11.668  14.046
 1508W        W68049  10.947  37.072   3.847
 1509W        W68050  10.377  41.193   4.562
 1510W        W68051  25.474  17.101   0.013
 1511W        W68052  42.399   8.243   0.902
 1512W        W68053  29.547  26.154  11.652
 1513W        W68054  33.066  23.710   1.782
 1514W        W68055  34.155   5.306   0.955
 1515W        W68056  34.036  24.169  14.927
 1516W        W68057  39.912  32.685  14.308
 1517W        W68058  34.557   3.417   3.684
 1518W        W68059  40.991  28.989   1.275
 1519W        W68060   5.737   7.414  14.342
 1520W        W68061  26.061  10.374  13.898
 1521W        W68062  24.416   9.757   1.228
 1522W        W68063  18.206  24.517  13.272
 1523W        W68064   0.398  43.384  11.220
 1524W        W68065  30.442  29.599   1.225
 1525W        W68066  35.324   0.779  12.231
 1526W        W68067  36.451  14.185  14.195
 1527W        W68068  25.373  36.543  13.419
 1528W        W68069  16.511  35.478  10.664
 1529W        W68070  10.155   5.998   1.425
 1530W        W68071   3.833  20.657  11.966
 1531W        W68072  15.264  44.213   3.313
 1532W        W68073   3.395  31.024   3.924
 1533W        W68074   9.127  25.574  10.671
 1534W        W68075  35.682  23.209   1.810
 1535W        W68076  42.282  38.708  13.898
 1536W        W68077  13.627   7.838   0.456
 1537W        W68078  12.837  23.534  12.063
 1538W        W68079  36.826  35.143   4.979
 1539W        W68080  37.884   3.260   4.676
 1540W        W68081  31.659   8.837  14.772
 1541W        W68082  37.784  38.045   3.718
 1542W        W68083  14.413  40.740  13.759
 1543W        W68084  25.864   7.304   3.702
 1544W        W68085  42.442  41.988  14.460
 1545W        W68086  33.519  17.867   4.363
 1546W        W68087   2.953  25.605  14.248
 1547W        W68088  11.381   5.450   3.677
 1548W        W68089  36.572   9.509  11.424
 1549W        W68090   9.672  11.618   3.075
 1550W        W68091  19.648  26.044   0.999
 1551W        W68092  19.567  41.833  11.538
 1552W        W68093   4.398  20.687   2.886
 1553W        W68094  28.955  15.374   4.206
 1554W        W68095  24.735   5.826   1.381
 1555W        W68096  23.554   9.932  13.848
 1556W        W68097  32.671  33.473   0.298
 1557W        W68098  20.308  27.455  11.715
 1558W        W68099   4.403  28.974  12.433
 1559W        W68100  37.689  18.057  11.112
 1560W        W68101  32.139  14.852   2.673
 1561W        W68102   5.325  26.407  14.075
 1562W        W68103  16.969  32.169  10.679
 1563W        W68104  32.615  43.773   3.172
 1564W        W68105  25.975   5.632  13.023
 1565W        W68106  14.765   6.210  11.556
 1566W        W68107  22.946   0.927  13.860
 1567W        W68108  33.793  26.924   3.575
 1568W        W68109  15.291   3.492  12.976
 1569W        W68110  22.967  34.387  14.479
 1570W        W68111   7.417  38.525   0.659
 1571W        W68112   8.951  11.375  11.217
 1572W        W68113  40.337   8.620   4.969
 1573W        W68114  20.280  15.091   0.447
 1574W        W68115  39.013   2.959  12.106
 1575W        W68116  40.888  38.015   3.629
 1576W        W68117  44.272  37.020   1.081
 1577W        W68118  17.185  33.355   3.376
 1578W        W68119   3.444  12.617   3.381
 1579W        W68120  11.213  24.690   3.177
 1580W        W68121  11.341  25.224  10.706
 1581W        W68122  20.630  21.945   0.425
 1582W        W68123  24.618  44.539  12.987
 1583W        W68124  32.511  33.317  14.789
 1584W        W68125   2.228   5.001  14.433
 1585W        W68126  30.303  40.032  13.508
 1586W        W68127  23.607  20.024   1.921
 1587W        W68128  22.974   5.923   3.642
 1588W        W68129  23.577  25.020   1.879
 1589W        W68130  44.463   0.922   1.410
 1590W        W68131   1.178  38.296   0.149
 1591W        W68132   8.722   0.221  12.914
 1592W        W68133  41.333  25.163  11.807
 1593W        W68134  40.855  11.185  13.352
 1594W        W68135  34.829  34.742   1.802
 1595W        W68136  27.553  13.372  10.694
 1596W        W68137  40.010  44.690   0.266
 1597W        W68138   8.158  44.936  12.086
 1598W        W68139  32.489  33.667  10.239
 1599W        W68140  22.608  15.595  13.366
 1600W        W68141  17.558  41.423  12.789
 1601W        W68142   6.880  13.190   0.208
 1602W        W68143  36.898  32.145  14.957
 1603W        W68144   7.278  15.021  14.815
 1604W        W68145   0.971  40.549   0.968
 1605W        W68146  42.973  43.882  10.703
 1606W        W68147  38.041   5.966  11.801
 1607W        W68148  16.842  14.079  10.949
 1608W        W68149  34.680  23.168  12.398
 1609W        W68150  44.748  22.298  13.930
 1610W        W68151  41.761  34.718   0.666
 1611W        W68152  13.965  43.139  11.438
 1612W        W68153  27.282  42.874   5.167
 1613W        W68154  20.654  27.499   4.364
 1614W        W68155  42.807  31.434  13.993
 1615W        W68156  20.513   0.852   2.680
 1616W        W68157  36.953  21.159   4.165
 1617W        W68158   2.950  33.415   4.228
 1618W        W68159  37.171  14.629   2.457
 1619W        W68160  25.747   0.113   5.010
 1620W        W68161  12.855  24.600   1.948
 1621W        W68162   4.148  36.400   1.250
 1622W        W68163  18.135   2.334   3.835
 1623W        W68164  19.041  37.570   0.417
 1624W        W68165  18.639   5.964   1.813
 1625W        W68166  15.236  17.702   0.416
 1626W        W68167  30.939  15.612   3.376
 1627W        W68168   2.372  36.842   0.267
 1628W        W68169  30.146  25.091  10.997
 1629W        W68170   9.709  17.733   4.897
 1630W        W68171  36.357  16.110   3.231
 1631W        W68172  30.650   0.671   2.405
 1632W        W68173  19.313  22.562   3.248
 1633W        W68174  24.572  36.558   2.292
 1634W        W68175  30.944   5.262   1.576
 1635W        W68176  37.545  29.481  14.738
 1636W        W68177  39.521  11.750  12.441
 1637W        W68178  16.020  40.766  12.868
 1638W        W68179  11.865  29.591   2.351
 1639W        W68180  11.126  20.108   3.338
 1640W        W68181  23.491  43.810   1.677
 1641W        W68182  21.685  14.530   1.341
 1642W        W68183  15.550  15.221  13.078
 1643W        W68184  23.314   3.231   2.245
 1644W        W68185  14.766  14.122  11.074
 1645W        W68186  14.182  42.384   4.284
 1646W        W68187  32.945  15.737  12.582
 1647W        W68188  32.337  30.705  12.922
 1648W        W68189   9.761  31.944  12.934
 1649W        W68190  31.994   4.352   4.706
 1650W        W68191  39.980   7.490  12.590
 1651W        W68192  10.847   1.393   0.294
 1652W        W68193  36.575  39.657  11.606
 1653W        W68194  43.780  10.125  14.847
 1654W        W68195  38.056  33.052   1.268
 1655W        W68196  36.522  27.432   4.672
 1656W        W68197  27.671   6.714  11.140
 1657W        W68198  38.488   7.138  10.908
 1658W        W68199  42.192  21.518  12.465
 1659W        W68200  39.232  25.976  12.161
 1660W        W68201  36.952  35.027  11.656
 1661W        W68202  30.498  20.534  11.650
 1662W        W68203  42.577  24.924   2.102
 1663W        W68204  22.192  16.583   1.921
 1664W        W68205  37.049   5.853   3.434
 1665W        W68206   0.802  14.947   1.518
 1666W        W68207  13.867  26.128  11.193
 1667W        W68208  39.846  10.550  11.989
 1668W        W68209  30.041  17.706  13.887
 1669W        W68210  31.312  40.901   0.881
 1670W        W68211  38.449   9.139   0.458
 1671W        W68212  32.678   5.483   2.742
 1672W        W68213  24.974  21.019   3.791
 1673W        W68214  16.411  14.373  10.956
 1674W        W68215  43.969  20.847   2.792
 1675W        W68216  39.285  24.536   1.228
 1676W        W68217  20.242  14.846   0.974
 1677W        W68218  13.077   9.860   1.643
 1678W        W68219  30.852  24.730  12.186
 1679W        W68220  28.160  30.387   1.467
 1680W        W68221   0.821  31.577  12.517
 1681W        W68222   3.478  37.340   2.786
 1682W        W68223  11.315  36.321   1.379
 1683W        W68224  15.364  17.662   4.537
 1684W        W68225  18.792   1.366  11.418
 1685W        W68226   2.710  43.327   2.842
 1686W        W68227   8.407  10.668   0.161
 1687W        W68228   9.253  31.100   1.174
 1688W        W68229  26.975  33.385  12.307
 1689W        W68230  16.602  26.612  13.597
 1690W        W68231   1.757  20.499  10.921
 1691W        W68232  43.896  38.385  13.266
 1692W        W68233  32.932  40.562  13.831
 1693W        W68234  35.553   9.460  11.959
 1694W        W68235  15.781   9.780  12.908
 1695W        W68236   2.843   7.682   4.264
 1696W        W68237  38.682   0.116  10.020
 1697W        W68238  24.771  25.629  13.475
 1698W        W68239  23.675   8.765  12.631
 1699W        W68240  21.706  40.801   0.892
 1700W        W68241   7.142   5.000   3.668
 1701W        W68242  24.489  42.001  14.452
 1702W        W68243  10.780  16.697  12.901
 1703W        W68244  42.090  21.189  14.850
 1704W        W68245   2.230  38.378   2.597
 1705W        W68246  31.221  26.077   4.386
 1706W        W68247  41.745  18.265  11.672
 1707W        W68248   6.825  15.612  11.678
 1708W        W68249  30.514  11.407  14.280
 1709W        W68250  36.414  29.871  13.439
 1710W        W68251   4.841  32.244  13.895
 1711W        W68252  21.826  11.839  11.529
 1712W        W68253  40.810  38.513  11.636
 1713W        W68254  18.703  11.129   0.403
 1714W        W68255  44.185  27.695   0.524
 1715W        W68256  20.749  18.628   1.193
 1716W        W68257  38.355  44.762   2.413
 1717W        W68258  42.257  40.998   2.318
 1718W        W68259  27.531  44.386   0.944
 1719W        W68260  21.663  21.082   1.585
 1720W        W68261   9.788  25.184   0.282
 1721W        W68262  18.714  40.055  13.024
 1722W        W68263  23.762  10.891  10.834
 1723W        W68264  18.161  42.549  10.558
 1724W        W68265  10.445  11.735   5.367
 1725W        W68266  22.217  36.484  11.250
 1726W        W68267  22.682   1.830  12.628
 1727W        W68268   9.247  15.081  14.545
 1728W        W68269  16.176  39.582  12.878
 1729W        W68270  12.303  30.061  11.960
 1730W        W68271  31.568  12.286  11.671
 1731W        W68272  15.594  25.979  12.899
 1732W        W68273  31.207  39.452   0.130
 1733W        W68274  36.867  38.331   0.740
 1734W        W68275  26.766   4.584  11.104
 1735W        W68276  28.532   0.587  11.154
 1736W        W68277  39.122   8.254   3.679
 1737W        W68278  26.432  18.168   4.079
 1738W        W68279   8.656  34.543   4.242
 1739W        W68280  15.458  26.931  12.683
 1740W        W68281  24.405  24.299   4.131
 1741W        W68282  24.426   4.897   1.188
 1742W        W68283  44.539  32.743   0.039
 1743W        W68284  13.684   1.786  12.444
 1744W        W68285  21.503  30.995  14.038
 1745W        W68286  43.923  11.901  10.711
 1746W        W68287  27.092  27.353  11.708
 1747W        W68288   0.826  44.124   4.110
 1748W        W68289  27.231  17.805  12.972
 1749W        W68290   1.131  15.672  13.544
 1750W        W68291  27.568  12.327  11.585
 1751W        W68292  29.747  25.395  13.253
 1752W        W68293  30.921  26.411  11.546
 1753W        W68294   9.321  29.127   3.263
 1754W        W68295  21.213  15.059  13.081
 1755W        W68296  43.968  35.204  10.664
 1756W        W68297  37.455  41.328  13.304
 1757W        W68298   0.653  18.816  12.382
 1758W        W68299  32.631   8.285  10.702
 1759W        W68300  40.747  10.926   4.943
 1760W        W68301   9.155  39.896   1.395
 1761W        W68302  34.285  34.067  10.782
 1762W        W68303   5.695  34.665   3.638
 1763W        W68304   0.456  17.063   3.561
 1764W        W68305   2.254  10.285   2.149
 1765W        W68306  36.677   1.032   4.103
 1766W        W68307  10.391  18.284   4.520
 1767W        W68308  38.870  21.103  14.311
 1768W        W68309  20.743  17.602  12.894
 1769W        W68310  31.540  35.227   0.246
 1770W        W68311  39.320  17.971  10.510
 1771W        W68312  42.623  36.690  13.055
 1772W        W68313  39.622  42.452   4.634
 1773W        W68314   7.362  26.431  14.202
 1774W        W68315  13.823  13.225  10.693
 1775W        W68316  29.712  40.073   1.205
 1776W        W68317  25.046  34.132   3.320
 1777W        W68318  18.225  13.540  12.581
 1778W        W68319  35.602  21.951   4.262
 1779W        W68320  28.101  15.778   3.857
 1780W        W68321  44.491  37.385  14.779
 1781W        W68322  44.990   2.999   0.710
 1782W        W68323  12.739  19.660   3.618
 1783W        W68324  31.764  29.027   0.038
 1784W        W68325  34.434  19.572   1.278
 1785W        W68326  19.096  36.162   4.196
 1786W        W68327  35.361   5.977  14.568
 1787W        W68328  33.355   6.013  13.943
 1788W        W68329  44.471   0.328  10.972
 1789W        W68330  38.084  34.626   0.296
 1790W        W68331  10.866  33.075  10.440
 1791W        W68332  22.637  12.336   4.155
 1792W        W68333   7.292  31.381   4.554
 1793W        W68334   0.274  34.515  13.935
 1794W        W68335  42.420   3.038   1.415
 1795W        W68336  10.145   4.452  13.535
 1796W        W68337  40.992  36.909   1.936
 1797W        W68338  26.597  32.945   1.974
 1798W        W68339  23.970  44.346   4.801
 1799W        W68340  22.187  16.609   9.776
 1800W        W68341  17.751  23.668   3.321
 1801W        W68342   3.997   6.768  13.660
 1802W        W68343  44.040  32.562  12.854
 1803W        W68344  34.873  32.252  11.675
 1804W        W68345  41.982   4.558   4.962
 1805W        W68346  34.638  35.171  14.278
 1806W        W68347  41.330  44.436  12.350
 1807W        W68348  14.166  15.235  10.797
 1808W        W68349  34.872  40.987   0.874
 1809W        W68350   1.380  38.348   0.616
 1810W        W68351  44.578  39.303   4.670
 1811W        W68352  22.639  27.695   0.988
 1812W        W68353  18.960  16.125  12.434
 1813W        W68354  30.474  44.931  12.769
 1814W        W68355  23.805   5.329  14.048
 1815W        W68356  16.133  41.882  13.543
 1816W        W68357   9.286  19.107   4.376
 1817W        W68358  43.934  19.256  14.300
 1818W        W68359   7.313  33.597   4.218
 1819W        W68360  21.229  35.534  11.856
 1820W        W68361   1.252  42.249  11.984
 1821W        W68362   9.435   7.815  10.691
 1822W        W68363  20.188   5.601   9.770
 1823W        W68364  31.805   8.693  11.055
 1824W        W68365   4.179  41.823   1.517
 1825W        W68366  12.690  20.650   2.375
 1826W        W68367  42.280  43.851   0.921
 1827W        W68368  41.399   6.147  13.426
 1828W        W68369  24.019  43.406  12.550
 1829W        W68370   7.131  29.903   2.510
 1830W        W68371   6.496  37.816   4.295
 1831W        W68372  10.200   6.777   4.413
 1832W        W68373  29.553  41.966   4.124
 1833W        W68374  33.626   4.119  14.794
 1834W        W68375  10.355  10.034   1.635
 1835W        W68376  23.069  39.272  14.498
 1836W        W68377  10.902  18.108  11.689
 1837W        W68378  40.758  17.992   4.151
 1838W        W68379  28.188  10.083  12.429
 1839W        W68380  44.896  28.269   3.171
 1840W        W68381  43.673  32.508  11.462
 1841W        W68382  29.704  36.086   1.827
 1842W        W68383  40.400  17.690   4.835
 1843W        W68384  34.067   4.628   4.132
 1844W        W68385   8.149  38.948  11.979
 1845W        W68386   9.912  39.456  12.925
 1846W        W68387  11.416   3.426   1.899
 1847W        W68388  18.238  36.355  11.117
 1848W        W68389  31.079  15.175   0.435
 1849W        W68390  37.831   5.159   2.760
 1850W        W68391  34.326  38.592  11.998
 1851W        W68392  20.207  11.717   3.174
 1852W        W68393   7.363  41.684  14.340
 1853W        W68394  44.010   0.678   1.296
 1854W        W68395  11.265  24.273  13.820
 1855W        W68396  25.792  11.503   1.354
 1856W        W68397  20.757   8.785  14.449
 1857W        W68398  28.759  34.041  13.520
 1858W        W68399  34.679  25.842  10.819
 1859W        W68400  32.712  18.049  11.004
 1860W        W68401  20.575  14.608   3.608
 1861W        W68402   2.867  17.800   0.730
 1862W        W68403  44.945  31.486   3.164
 1863W        W68404  31.895   0.863  13.866
 1864W        W68405  42.126  24.926  14.865
 1865W        W68406  11.583  12.339  11.604
 1866W        W68407  36.339  14.563  12.858
 1867W        W68408  19.308  29.566  11.039
 1868W        W68409  25.048  36.862   3.714
 1869W        W68410  39.037  12.027  14.411
 1870W        W68411  11.871  12.748   1.731
 1871W        W68412  44.464   7.079  13.626
 1872W        W68413   5.657   6.222  14.323
 1873W        W68414  16.719   9.687   4.594
 1874W        W68415  28.665  19.541   4.697
 1875W        W68416  16.929  23.824   2.370
 1876W        W68417   5.760  39.463  13.604
 1877W        W68418   9.733  17.754   3.645
 1878W        W68419  22.636  16.516  13.385
 1879W        W68420  34.155   4.541   3.153
 1880W        W68421  28.841  30.005   1.681
 1881W        W68422  25.966  26.208  11.482
 1882W        W68423  43.319   8.777   0.217
 1883W        W68424  32.154  17.925  13.787
 1884W        W68425  27.758  22.758  14.819
 1885W        W68426   0.069  11.163   1.320
 1886W        W68427  42.125  40.552   0.819
 1887W        W68428  22.295  15.525  12.348
 1888W        W68429   5.506  29.641   0.858
 1889W        W68430  10.603   4.145  14.303
 1890W        W68431  39.518  23.542  11.803
 1891W        W68432  41.083  27.065   1.730
 1892W        W68433  19.222  41.574   4.414
 1893W        W68434   8.859  13.388  14.680
 1894W        W68435  19.335  24.643   1.324
 1895W        W68436  17.041  33.569  13.085
 1896W        W68437  15.660  43.766  11.635
 1897W        W68438   5.183   4.687   0.354
 1898W        W68439  13.027  17.041   0.825
 1899W        W68440   6.022   9.249  12.305
 1900W        W68441  24.767   7.312  12.100
 1901W        W68442  41.716  42.029  11.094
 1902W        W68443  37.131  17.695  14.389
 1903W        W68444  35.169  18.155   4.550
 1904W        W68445   0.721  17.175  13.596
 1905W        W68446  32.738  26.101  14.913
 1906W        W68447  19.041  33.876   0.737
 1907W        W68448  22.206  27.939  11.150
 1908W        W68449  12.347  16.143   4.408
 1909W        W68450  13.877  29.635  13.839
 1910W        W68451  21.427   1.389  12.067
 1911W        W68452  31.760   5.441   5.010
 1912W        W68453  17.263  40.273   2.289
 1913W        W68454   7.872  30.572  11.087
 1914W        W68455  39.023  20.141  10.677
 1915W        W68456  31.928   2.996   3.133
 1916W        W68457   1.820  38.360  12.144
 1917W        W68458  21.501   5.426  14.887
 1918W        W68459  40.083   5.335   4.613
 1919W        W68460  23.914  36.309   1.730
 1920W        W68461  17.245  43.893  12.542
 1921W        W68462  37.647  42.169  11.308
 1922W        W68463  22.097   1.927   1.394
 1923W        W68464   4.516  29.656  10.584
 1924W        W68465  18.747  32.054  13.522
 1925W        W68466  18.973   1.996  14.281
 1926W        W68467   3.282  32.770   1.199
 1927W        W68468   9.829  28.675   1.228
 1928W        W68469   7.930  38.409  14.477
 1929W        W68470  10.757  22.486  12.870
 1930W        W68471  33.150  40.417   2.253
 1931W        W68472  36.022  42.783   2.990
 1932W        W68473  17.088   1.927   4.716
 1933W        W68474   6.963  34.336  11.159
 1934W        W68475  29.291  15.204   2.225
 1935W        W68476  25.023  44.810   3.912
 1936W        W68477  21.621  17.835   1.698
 1937W        W68478  33.505   9.407  14.895
 1938W        W68479   6.554  16.648  11.593
 1939W        W68480  23.517  42.161   4.524
 1940W        W68481   4.982  19.725  10.347
 1941W        W68482   9.573  10.909  14.305
 1942W        W68483  40.844  21.508   0.886
 1943W        W68484  12.603  30.619   2.090
 1944W        W68485  17.069  26.356   3.663
 1945W        W68486   9.783  21.793   2.052
 1946W        W68487   6.319  39.898   3.447
 1947W        W68488  37.336   6.161  13.894
 1948W        W68489  27.941  43.524   5.132
 1949W        W68490   5.533  24.517  13.265
 1950W        W68491  38.595   7.046  12.145
 1951W        W68492  19.005  17.476   5.094
 1952W        W68493  41.994  37.969   0.863
 1953W        W68494   5.996  44.957   5.042
 1954W        W68495  23.194  39.338  13.005
 1955W        W68496  20.756   9.789  10.743
 1956W        W68497  38.127  31.547  12.177
 1957W        W68498   2.042  13.681  11.964
 1958W        W68499   0.851  15.700   3.635
 1959W        W68500  37.473  34.547   1.862
 1960W        W68501   2.219  10.703  10.529
 1961W        W68502  25.672  32.134  11.536
 1962W        W68503  19.620  29.073   4.276
 1963W        W68504  13.796  25.139  12.346
 1964W        W68505  21.244  13.638  10.713
 1965W        W68506  21.642  43.857   0.863
 1966W        W68507  18.257  19.851   3.207
 1967W        W68508  38.970  21.739   4.997
 1968W        W68509  24.722  13.833   1.835
 1969W        W68510   3.469  30.384  10.989
 1970W        W68511  23.787   4.779  12.464
 1971W        W68512  22.145  33.525  14.570
 1972W        W68513   5.792  15.987  12.398
 1973W        W68514   1.078   3.417  14.930
 1974W        W68515  10.856  18.746   1.896
 1975W        W68516   5.843  10.292   1.463
 1976W        W68517   5.147  25.066   1.281
 1977W        W68518  24.299  42.763   2.862
 1978W        W68519  20.784  13.300   2.310
 1979W        W68520  12.573   4.806   0.734
 1980W        W68521  29.921  10.962   4.354
 1981W        W68522   3.877  20.081   4.593
 1982W        W68523   6.693   9.709  11.542
 1983W        W68524  42.830  36.655  14.534
 1984W        W68525   5.872  28.626  10.683
 1985W        W68526  36.578  12.336   1.712
 1986W        W68527  18.278   9.268  11.836
 1987W        W68528   9.916   1.719  13.118
 1988W        W68529   7.405  14.301   1.890
 1989W        W68530  38.014  28.498  12.748
 1990W        W68531  40.546  18.941   0.427
 1991W        W68532  39.040  15.286   3.409
 1992W        W68533  32.420   0.460   1.913
 1993W        W68534   1.804  10.185  13.379
 1994W        W68535  44.192  12.203   0.244
 1995W        W68536  29.648  21.890  11.207
 1996W        W68537   0.888  25.983   4.960
 1997W        W68538  20.749  29.649  12.980
 1998W        W68539   7.785  27.926   1.888
 1999W        W68540  16.221  25.948  13.381
 2000W        W68541  13.348   6.279  14.141
 2001W        W68542   0.218  32.729   3.539
 2002W        W68543   4.874  25.635  10.335
 2003W        W68544   0.752  27.686  13.600
 2004W        W68545   2.911  24.809   2.274
 2005W        W68546  35.099   2.032   3.755
 2006W        W68547  11.961  21.195   4.651
 2007W        W68548  20.036   0.997   1.852
 2008W        W68549  35.178  21.559   1.859
 2009W        W68550  31.997   8.341  13.691
 2010W        W68551  38.060  24.399  11.176
 2011W        W68552  33.964  28.830  10.916
 2012W        W68553  30.024  18.013  10.807
 2013W        W68554  19.849  35.019   3.600
 2014W        W68555  13.192  26.412  14.894
 2015W        W68556  30.482  27.093  11.369
 2016W        W68557  40.579  28.717  14.823
 2017W        W68558  26.059  12.082  14.963
 2018W        W68559  30.513  24.131   3.723
 2019W        W68560   9.611  41.940   1.346
 2020W        W68561   0.326   3.319  10.528
 2021W        W68562  21.744  27.719  11.105
 2022W        W68563  28.998  29.924   4.077
 2023W        W68564   5.439  25.646  14.595
 2024W        W68565  11.644   4.324   1.045
 2025W        W68566   0.094  13.244  14.947
 2026W        W68567  18.509  30.460  14.914
 2027W        W68568  40.300  27.018   2.463
 2028W        W68569  36.395  19.720   3.761
 2029W        W68570  31.647  13.318   3.240
 2030W        W68571  31.924   8.407   0.611
 2031W        W68572  22.978  26.182  11.133
 2032W        W68573  18.638  12.693   9.724
 2033W        W68574  38.425  16.666  12.974
 2034W        W68575  25.660   5.902   5.002
 2035W        W68576  28.459  41.499  11.361
 2036W        W68577  32.093  43.065  13.368
 2037W        W68578  21.842   8.077  12.452
 2038W        W68579   3.733  40.562   1.507
 2039W        W68580  35.951   0.969  13.704
 2040W        W68581  30.124  19.700  13.410
 2041W        W68582   7.625  29.019  14.539
 2042W        W68583  43.917  40.722   3.798
 2043W        W68584   0.016   7.483   0.265
 2044W        W68585   3.288  12.365  11.650
 2045W        W68586  43.760  28.623  14.297
 2046W        W68587   7.450  30.487  13.156
 2047W        W68588   2.989  11.074  12.582
 2048W        W68589   6.811   1.071   3.958
 2049W        W68590  11.561   0.175   1.244
 2050W        W68591  38.777  33.349  14.946
 2051W        W68592  11.421  20.813  12.937
 2052W        W68593  26.146  25.878  14.941
 2053W        W68594  16.312  26.317  10.514
 2054W        W68595  35.447   9.684  10.931
 2055W        W68596  31.534  26.930  13.362
 2056W        W68597  18.802  36.453  13.523
 2057W        W68598  15.711  36.409  14.771
 2058W        W68599  36.854  13.910   3.639
 2059W        W68600  13.269  33.669   4.221
 2060W        W68601   8.285  30.967  10.714
 2061W        W68602  34.988  36.490  12.522
 2062W        W68603  13.852  28.613  12.919
 2063W        W68604  36.918  25.492   0.492
 2064W        W68605  21.520  29.099   3.674
 2065W        W68606  31.369  22.101   3.313
 2066W        W68607  16.558  31.867   2.999
 2067W        W68608  14.934  33.406   4.463
 2068W        W68609  32.413  35.012   1.692
 2069W        W68610  15.133  32.918  12.019
 2070W        W68611  36.616  14.301   2.768
 2071W        W68612   3.858   6.431  11.517
 2072W        W68613  27.027  10.344   1.896
 2073W        W68614   9.319  38.930  11.804
 2074W        W68615   0.249  27.618   3.670
 2075W        W68616  13.753   3.260  11.158
 2076W        W68617  29.943  17.199   4.302
 2077W        W68618  13.090  33.636  13.413
 2078W        W68619  14.865  40.458  11.954
 2079W        W68620  10.643  38.001  12.308
 2080W        W68621  12.692  19.648  13.262
 2081W        W68622   4.991  43.382  12.906
 2082W        W68623  24.459  13.206   2.381
 2083W        W68624   9.592  23.685   3.732
 2084W        W68625  26.120  19.009   4.198
 2085W        W68626  37.518   8.570  11.899
 2086W        W68627  18.371  18.193   2.788
 2087W        W68628  41.062  25.028   3.217
 2088W        W68629   5.455   1.924   0.250
 2089W        W68630   7.279  36.787   0.508
 2090W        W68631   0.114   9.597  12.467
 2091W        W68632  32.916  39.116   1.811
 2092W        W68633  21.125  44.571  12.816
 2093W        W68634  32.461  25.134   1.723
 2094W        W68635  27.222  31.383  11.991
 2095W        W68636   8.829  42.252   1.965
 2096W        W68637  17.501  28.826   1.940
 2097W        W68638   3.075  16.581   1.255
 2098W        W68639  25.643  43.500  14.507
 2099W        W68640  34.249  25.470  11.947
 2100W        W68641  17.049   2.431  12.007
 2101W        W68642  22.279  43.852  11.356
 2102W        W68643   2.721  37.851  12.461
 2103W        W68644  29.330  40.932  12.498
 2104W        W68645  39.063  22.366   0.690
 2105W        W68646   5.275  16.790   0.612
 2106W        W68647  38.111  41.430   1.830
 2107W        W68648  38.872  12.404   1.813
 2108W        W68649  27.253  31.074  13.763
 2109W        W68650   2.227  10.631  13.074
 2110W        W68651  25.226   8.706  11.591
 2111W        W68652  19.128  34.219   3.742
 2112W        W68653  17.624  20.445   4.161
 2113W        W68654  41.458   4.887   0.022
 2114W        W68655  10.660  30.034   0.377
 2115W        W68656  27.013   0.129   4.121
 2116W        W68657   9.360  21.738   2.340
 2117W        W68658  31.631  43.505   3.708
 2118W        W68659  16.093  42.933   4.494
 2119W        W68660  24.131  21.180   1.872
 2120W        W68661  11.156   3.213  13.507
 2121W        W68662  15.263  37.009   1.974
 2122W        W68663  11.748  11.713   3.583
 2123W        W68664  32.836  26.672  14.887
 2124W        W68665  10.181  24.243  12.115
 2125W        W68666  17.071  22.559   4.534
 2126W        W68667  43.348  44.509   0.936
 2127W        W68668   0.394  27.102   3.682
 2128W        W68669  26.659  29.958  11.209
 2129W        W68670  23.027   0.859   2.208
 2130W        W68671  10.005  25.370   5.011
 2131W        W68672   5.819  24.675   3.442
 2132W        W68673  30.829  14.222  12.450
 2133W        W68674  12.876  18.116   2.684
 2134W        W68675  26.625  43.316   2.221
 2135W        W68676  13.765   2.948  14.279
 2136W        W68677  16.877   7.039  13.398
 2137W        W68678  31.278  18.628  11.938
 2138W        W68679  25.877  23.590  13.368
 2139W        W68680  39.474  25.080   2.860
 2140W        W68681  33.869  22.433  14.069
 2141W        W68682  11.605   9.266  12.422
 2142W        W68683  40.187  40.430  10.419
 2143W        W68684  25.180   9.796  11.723
 2144W        W68685  13.498  28.477   2.338
 2145W        W68686  37.848  25.612   2.311
 2146W        W68687  16.010  20.355   3.146
 2147W        W68688  14.616  22.033   0.766
 2148W        W68689  28.972   0.658   3.107
 2149W        W68690   5.199  19.031   1.234
 2150W        W68691  32.577  30.613   3.371
 2151W        W68692  30.402   7.319   2.260
 2152W        W68693  43.067  18.132   0.027
 2153W        W68694  33.315  28.514  14.829
 2154W        W68695  29.041  18.193  10.578
 2155W        W68696   8.759   5.610  14.925
 2156W        W68697  13.287  16.524   4.148
 2157W        W68698  13.854   9.559   1.209
 2158W        W68699  41.282  44.981  10.662
 2159W        W68700  19.595  21.737  13.387
 2160W        W68701  23.733  29.203  12.469
 2161W        W68702  13.655  26.083  12.146
 2162W        W68703  20.445  35.548  11.402
 2163W        W68704  27.921  20.696   0.951
 2164W        W68705  19.469  15.748  14.744
 2165W        W68706  30.020   6.705  11.123
 2166W        W68707  12.341  17.576  13.035
 2167W        W68708  31.407  20.202  14.452
 2168W        W68709  31.019  35.629   3.418
 2169W        W68710   8.875   7.924   1.402
 2170W        W68711  22.330  23.599  10.574
 2171W        W68712  27.534  28.593  11.426
 2172W        W68713  24.953   4.845  14.047
 2173W        W68714   7.434  44.138   0.320
 2174W        W68715  28.648  18.717   4.087
 2175W        W68716  19.235   1.963   0.907
 2176W        W68717  27.116  17.734  12.198
 2177W        W68718  43.455  37.975  14.052
 2178W        W68719  28.038   2.547   0.428
 2179W        W68720  31.645  35.921   0.924
 2180W        W68721  26.514  27.154   2.581
 2181W        W68722   1.139  25.432  11.216
 2182W        W68723   1.339  40.395  13.005
 2183W        W68724  36.173  23.473  14.502
 2184W        W68725  18.341  21.211  13.329
 2185W        W68726  10.188  36.959  12.926
 2186W        W68727  11.445  24.668  14.748
 2187W        W68728  12.786  11.723  12.999
 2188W        W68729  19.587  38.886  13.631
 2189W        W68730   0.480  39.032   1.773
 2190W        W68731   3.725  37.873   0.272
 2191W        W68732  20.576   4.951   4.551
 2192W        W68733  30.975   2.197   3.660
 2193W        W68734  14.826   3.225  12.940
 2194W        W68735  23.062  12.219  12.412
 2195W        W68736  10.326   2.250   0.271
 2196W        W68737   4.520  43.468   0.787
 2197W        W68738  22.602   6.334  13.927
 2198W        W68739  36.970  31.937   0.900
 2199W        W68740  21.682  24.762   3.249
 2200W        W68741   5.351   6.978   3.682
 2201W        W68742  44.086  29.468   1.672
 2202W        W68743  23.970  25.634   3.344
 2203W        W68744   6.651  22.632   2.768
 2204W        W68745  39.757  10.182   2.277
 2205W        W68746   7.886  24.732  11.662
 2206W        W68747  21.741   4.583  12.393
 2207W        W68748  37.781  39.258  14.111
 2208W        W68749  24.454  28.039  14.779
 2209W        W68750  19.255  14.910   2.827
 2210W        W68751  13.163  23.269   3.828
 2211W        W68752  27.551  37.986   3.301
 2212W        W68753  42.548  17.768  13.936
 2213W        W68754  27.324  33.549  10.227
 2214W        W68755  34.091   0.902  11.586
 2215W        W68756  14.413  32.574  11.310
 2216W        W68757  33.691  16.304   3.186
 2217W        W68758  44.503   3.795  10.685
 2218W        W68759   9.219  17.415   2.045
 2219W        W68760  39.809  28.895   1.268
 2220W        W68761  28.459  23.666  13.444
 2221W        W68762  19.451  31.683  12.536
 2222W        W68763  17.116   3.005  10.425
 2223W        W68764  15.666  39.203  10.646
 2224W        W68765   0.004  23.692   0.875
 2225W        W68766   4.550  33.461   4.771
 2226W        W68767  24.479  26.474   1.714
 2227W        W68768   1.840  24.222   2.972
 2228W        W68769  13.592   6.169   0.901
 2229W        W68770  43.956  16.617   1.707
 2230W        W68771  24.759  21.913   1.790
 2231W        W68772  44.717  22.727   3.636
 2232W        W68773  13.357  24.465  13.008
 2233W        W68774  29.337   5.853  11.866
 2234W        W68775  36.557  36.046  14.310
 2235W        W68776  39.124  17.063  12.985
 2236W        W68777  16.561  42.721   0.262
 2237W        W68778   4.117  30.890  10.698
 2238W        W68779  21.724  20.135  10.866
 2239W        W68780  39.315  21.787   3.721
 2240W        W68781  39.750   6.898  13.997
 2241W        W68782  38.420  15.514   4.754
 2242W        W68783  10.110   4.167  14.559
 2243W        W68784  12.660  10.259  12.073
 2244W        W68785  27.898   4.231   1.231
 2245W        W68786  21.609  31.415   1.763
 2246W        W68787   1.522  40.685   3.523
 2247W        W68788  26.338   9.083  13.544
 2248W        W68789  14.396   8.975  13.377
 2249W        W68790  38.756  26.503  14.380
 2250W        W68791   7.690  40.994   4.528
 2251W        W68792  41.886   5.847  11.121
 2252W        W68793  36.028   7.176  13.440
 2253W        W68794  34.552   6.865  10.651
 2254W        W68795  28.786  35.696  10.668
 2255W        W68796  42.956  14.078  13.435
 2256W        W68797  43.479  22.590   1.807
 2257W        W68798  12.610   2.805  11.525
 2258W        W68799  24.250  22.765   1.648
 2259W        W68800  39.412  44.295  11.176
 2260W        W68801  42.573  39.602  14.330
 2261W        W68802  18.683   8.552   3.568
 2262W        W68803   9.868   2.339  14.345
 2263W        W68804  15.558   2.446  13.024
 2264W        W68805  12.350  37.103   0.747
 2265W        W68806  33.209  32.816  12.431
 2266W        W68807  15.337  12.117   0.445
 2267W        W68808  38.575  18.693  14.336
 2268W        W68809  28.171  33.113  12.320
 2269W        W68810  25.401  17.067  13.632
 2270W        W68811  21.683  42.304   2.225
 2271W        W68812  34.964   9.753  12.546
 2272W        W68813  40.006  26.614   2.312
 2273W        W68814   5.328  38.993  12.081
 2274W        W68815  34.670  32.528   4.185
 2275W        W68816  41.675  19.931  11.542
 2276W        W68817  43.923  20.910  11.137
 2277W        W68818  10.893   3.732   0.306
 2278W        W68819  17.972  44.729  14.491
 2279W        W68820   8.731   2.717  14.863
 2280W        W68821   2.280  36.989  14.787
 2281W        W68822  35.843  31.857  10.863
 2282W        W68823  43.826  44.301  12.054
 2283W        W68824  32.512  18.902  14.540
 2284W        W68825  14.649  25.597   0.429
 2285W        W68826   8.704  24.303  12.146
 2286W        W68827  43.911  11.546   0.012
 2287W        W68828  33.957  28.234   1.889
 2288W        W68829  25.249  23.146  12.543
 2289W        W68830  33.009  26.025   1.384
 2290W        W68831  19.638  11.701   4.890
 2291W        W68832  41.901   0.989  13.512
 2292W        W68833   6.622  40.988   4.258
 2293W        W68834  19.735  20.771   2.385
 2294W        W68835  32.835   3.677  13.937
 2295W        W68836  36.969  33.503   4.612
 2296W        W68837  27.607  20.572   4.270
 2297W        W68838   4.361  34.400   5.120
 2298W        W68839  28.803  24.160   4.668
 2299W        W68840  20.013  28.695   4.284
 2300W        W68841  29.118  31.539  12.064
 2301W        W68842  14.655  27.213   4.631
 2302W        W68843  16.189  37.359   1.806
 2303W        W68844   0.339   8.766  10.617
 2304W        W68845  16.695  11.068  11.872
 2305W        W68846  29.962   9.394   3.372
 2306W        W68847  13.136  23.578   2.836
 2307W        W68848   9.320   6.453  14.086
 2308W        W68849  41.952  32.303  13.375
 2309W        W68850   4.871  34.021  11.922
 2310W        W68851  17.718  18.879   0.023
 2311W        W68852  17.119  28.812  12.809
 2312W        W68853  29.567  27.857   2.723
 2313W        W68854  32.079  14.217   0.971
 2314W        W68855  27.646  29.845  11.783
 2315W        W68856   7.282  21.051   0.185
 2316W        W68857  30.052  19.715  12.135
 2317W        W68858  42.255  33.683  12.618
 2318W        W68859  38.061  22.955  13.887
 2319W        W68860  10.178  13.116  11.888
 2320W        W68861  20.249  41.450   0.891
 2321W        W68862  16.590  36.945  14.955
 2322W        W68863   4.351   0.821  13.428
 2323W        W68864  15.694   8.934  13.922
 2324W        W68865  40.588  28.005   1.909
 2325W        W68866  23.576  44.055   3.120
 2326W        W68867  28.020  42.036  13.444
 2327W        W68868  26.769  27.281   1.580
 2328W        W68869   6.168  36.472  13.099
 2329W        W68870   4.630  35.398  13.451
 2330W        W68871  32.216  15.586   2.096
 2331W        W68872  26.455  31.209   0.452
 2332W        W68873   4.671  33.538  12.001
 2333W        W68874  33.664   5.939  13.509
 2334W        W68875  30.711  41.275  13.405
 2335W        W68876   1.807  16.677  13.426
 2336W        W68877   9.100  16.997   2.328
 2337W        W68878  27.603  25.728   2.888
 2338W        W68879  16.779  28.636   1.673
 2339W        W68880  28.599  43.438   3.083
 2340W        W68881   9.587   4.866  11.531
 2341W        W68882  38.403  44.223   0.193
 2342W        W68883   2.393  44.919   3.694
 2343W        W68884  23.281   2.982  14.105
 2344W        W68885  28.920  28.720   3.690
 2345W        W68886  36.627  24.590  10.975
 2346W        W68887  21.966  19.637   3.592
 2347W        W68888  36.950   9.335   1.081
 2348W        W68889  30.555   9.323   2.715
 2349W        W68890  33.706  31.634  12.657
 2350W        W68891  26.686  19.601   4.321
 2351W        W68892  26.095   1.504   1.469
 2352W        W68893   1.409   1.666   4.958
 2353W        W68894   2.724  28.531   3.103
 2354W        W68895   1.353  39.848  12.940
 2355W        W68896  43.494  33.212   3.672
 2356W        W68897  28.006  32.611  12.237
 2357W        W68898  37.766  17.062  10.767
 2358W        W68899  11.203   9.487  12.041
 2359W        W68900  23.483  15.183  14.239
 2360W        W68901  32.725  16.727  14.973
 2361W        W68902   8.634  32.170   4.152
 2362W        W68903   9.838  16.673  12.338
 2363W        W68904  12.680   4.552  11.829
 2364W        W68905  15.331  24.459  11.998
 2365W        W68906  21.445  31.222  14.911
 2366W        W68907  39.238  15.349  12.728
 2367W        W68908   4.931  14.144   3.597
 2368W        W68909  32.496  43.640  14.697
 2369W        W68910   3.269  43.683  11.252
 2370W        W68911  33.898  19.254  13.387
 2371W        W68912  12.632   7.751   2.872
 2372W        W68913   2.236  10.675   1.839
 2373W        W68914  30.092  11.224  13.431
 2374W        W68915  32.519   4.256   4.019
 2375W        W68916  10.164  42.298  15.000
 2376W        W68917  42.225  22.701   1.951
 2377W        W68918   0.484  33.476  12.411
 2378W        W68919  41.324  39.922   4.252
 2379W        W68920  11.086  36.077  11.648
 2380W        W68921  16.324  19.673   1.333
 2381W        W68922  23.690  31.916  10.552
 2382W        W68923  18.711  39.418  12.056
 2383W        W68924  30.859  30.332  14.046
 2384W        W68925   7.674  35.428   0.879
 2385W        W68926  39.327  43.320   1.872
 2386W        W68927  37.163   0.839   3.988
 2387W        W68928  36.429  43.292   0.280
 2388W        W68929  34.604   2.928  14.728
 2389W        W68930  11.268  44.283   0.343
 2390W        W68931  10.240  18.034  14.957
 2391W        W68932   1.498   0.859   3.806
 2392W        W68933  18.092  23.329  12.078
 2393W        W68934  38.065  19.064  11.102
 2394W        W68935   5.903  23.240   0.206
 2395W        W68936  11.333  30.727   1.994
 2396W        W68937  44.897  43.207  11.143
 2397W        W68938  37.334  35.041  12.955
 2398W        W68939  11.983   9.179   3.367
 2399W        W68940  42.557  19.277  14.873
 2400W        W68941  24.052   2.922  12.117
 2401W        W68942  37.326  30.831  11.985
 2402W        W68943  17.281  19.254  13.450
 2403W        W68944   6.521  36.777  13.356
 2404W        W68945  32.092  38.839  12.501
 2405W        W68946  26.546   6.894   3.352
 2406W        W68947  44.684  43.516   4.109
 2407W        W68948  26.525  43.415   4.738
 2408W        W68949  26.907   5.589  14.823
 2409W        W68950  41.885  19.839  13.436
 2410W        W68951  11.731  15.983   0.780
 2411W        W68952  16.817   6.199   4.698
 2412W        W68953  38.286  38.850   2.145
 2413W        W68954  41.389  11.643   1.764
 2414W        W68955  25.889  25.518   1.327
 2415W        W68956  36.206   0.654   3.691
 2416W        W68957  27.615   2.344  13.866
 2417W        W68958  40.128  22.788   3.848
 2418W        W68959  42.077  33.992  10.601
 2419W        W68960  37.045  36.363  12.937
 2420W        W68961   2.418   0.391   1.309
 2421W        W68962  31.103  33.810   0.942
 2422W        W68963   9.814  32.828   3.698
 2423W        W68964  37.507   6.864  11.178
 2424W        W68965  40.019  16.335   2.777
 2425W        W68966  15.882  37.872  10.211
 2426W        W68967  36.455  38.036   2.837
 2427W        W68968  34.618  34.032   1.321
 2428W        W68969   4.510   4.227  12.377
 2429W        W68970  34.802  12.789  13.898
 2430W        W68971   4.496  34.308  10.334
 2431W        W68972  34.949   0.979  14.930
 2432W        W68973  26.105  41.017   3.003
 2433W        W68974  35.824  22.917  13.638
 2434W        W68975  27.053  20.120   0.161
 2435W        W68976  39.952  17.080  11.220
 2436W        W68977  26.188   9.241  14.484
 2437W        W68978  16.967  14.264   4.686
 2438W        W68979  35.438  29.948   4.670
 2439W        W68980  10.625   3.298   5.171
 2440W        W68981  37.697  16.479   3.114
 2441W        W68982  28.969  41.284   3.564
 2442W        W68983  20.297  41.328   2.729
 2443W        W68984  24.392  31.616   4.234
 2444W        W68985  27.723  29.987  10.986
 2445W        W68986  32.581  44.503  14.420
 2446W        W68987   9.347  23.100   2.718
 2447W        W68988  26.768   6.140   4.911
 2448W        W68989  32.580  24.222   5.015
 2449W        W68990  40.483  29.876   3.357
 2450W        W68991  27.065   8.910  14.901
 2451W        W68992  25.672  40.390  10.742
 2452W        W68993   3.696  12.689  11.526
 2453W        W68994  37.864   2.462  14.512
 2454W        W68995  13.684   0.880  12.407
 2455W        W68996  19.081  32.039   5.007
 2456W        W68997  30.411  11.795   3.083
 2457W        W68998  19.184   8.885   0.828
 2458W        W68999  20.351   9.946   1.926
 2459W        W69000  14.114  25.274  13.163
 2460W        W69001  28.473  33.634  13.708
 2461W        W69002   4.265  38.352  11.680
 2462W        W69003  26.967  40.894   2.189
 2463W        W69004  13.607  35.829   4.512
 2464W        W69005  29.367   5.263   3.576
 2465W        W69006  35.512  33.857  14.508
 2466W        W69007  43.845  40.004  12.375
 2467W        W69008  26.777  24.436  13.299
 2468W        W69009  24.779  34.494   3.585
 2469W        W69010  13.760  23.669  13.934
 2470W        W69011   7.483   3.547   4.136
 2471W        W69012   4.702  38.510   1.972
 2472W        W69013  17.403   9.737   1.851
 2473W        W69014   2.277  44.909   1.425
 2474W        W69015  40.144  24.596  11.055
 2475W        W69016   9.906  44.101   4.263
 2476W        W69017  27.615  38.628  14.793
 2477W        W69018  19.691  16.816  10.223
 2478W        W69019  15.545  20.755   3.850
 2479W        W69020  29.072  17.684   3.874
 2480W        W69021  22.160  36.458   2.343
 2481W        W69022  38.155  17.702  13.570
 2482W        W69023  30.170  11.421   2.661
 2483W        W69024   1.231  44.255  14.236
 2484W        W69025  20.104   5.826   4.603
 2485W        W69026  40.784  12.758   4.003
 2486W        W69027  14.244   0.266   2.668
 2487W        W69028  44.951   0.282   2.747
 2488W        W69029  41.033   3.521  11.032
 2489W        W69030  16.150  25.139   4.661
 2490W        W69031   1.201  12.815   1.746
 2491W        W69032  20.856  39.387   0.007
 2492W        W69033   5.345   6.443   0.279
 2493W        W69034  19.704  12.887   2.882
 2494W        W69035   7.549  35.061   3.790
 2495W        W69036   6.459  37.392   0.005
 2496W        W69037  28.820   1.104   2.118
 2497W        W69038  32.370  20.020  11.605
 2498W        W69039   3.903  38.020  11.822
 2499W        W69040  35.781   8.793  11.126
 2500W        W69041  37.532  32.056  13.557
 2501W        W69042   1.995  35.452   1.383
 2502W        W69043   5.380  44.933  11.837
 2503W        W69044   7.223  20.818   4.373
 2504W        W69045  21.460   1.717  13.060
 2505W        W69046  30.621  17.763   3.863
 2506W        W69047  36.868  43.463   3.282
 2507W        W69048  28.654   8.115  11.176
 2508W        W69049   8.888  21.699  11.718
 2509W        W69050  33.434   4.015   4.287
 2510W        W69051  44.554  43.588  11.044
 2511W        W69052   6.518  25.101   1.975
 2512W        W69053  28.422  29.936  12.453
 2513W        W69054   7.277  31.605   4.084
 2514W        W69055   9.022  12.699  12.477
 2515W        W69056   9.982  39.009   3.131
 2516W        W69057  14.904  24.446   4.601
 2517W        W69058  16.846  30.186  13.424
 2518W        W69059  27.688  32.968   4.509
 2519W        W69060  19.616  37.406  13.862
 2520W        W69061  30.850   3.648   3.791
 2521W        W69062  36.258  35.082   0.648
 2522W        W69063  43.822  17.867  14.329
 2523W        W69064  21.523   8.654   2.348
 2524W        W69065   0.120  38.290  10.416
 2525W        W69066  24.702  25.224  13.018
 2526W        W69067  20.238   6.627  13.851
 2527W        W69068  38.987  22.229  11.131
 2528W        W69069   2.463   6.472  13.474
 2529W        W69070   5.941   8.839  14.742
 2530W        W69071  13.917  29.367  14.695
 2531W        W69072  14.174  31.377   0.424
 2532W        W69073  34.308   6.354   0.396
 2533W        W69074   7.110  10.318   0.260
 2534W        W69075  41.853  29.022   3.855
 2535W        W69076  13.993  32.422  13.987
 2536W        W69077  42.704  11.728   5.017
 2537W        W69078  36.847   3.007  14.073
 2538W        W69079  16.926  35.602   0.414
 2539W        W69080  43.943  18.578   3.277
 2540W        W69081  38.353   7.405  11.343
 2541W        W69082  40.985  11.009  11.903
 2542W        W69083  21.200  12.086  12.058
 2543W        W69084  41.875  20.045   1.747
 2544W        W69085   2.405  36.377  12.540
 2545W        W69086   5.483  34.450  13.408
 2546W        W69087  11.292   8.355  13.946
 2547W        W69088  40.961  12.252   5.247
 2548W        W69089  29.626  32.951   0.944
 2549W        W69090   0.713   1.574  11.798
 2550W        W69091   5.872   2.964   2.062
 2551W        W69092  28.928  44.850  14.916
 2552W        W69093  28.511  31.664   2.488
 2553W        W69094   9.704   2.889  12.134
 2554W        W69095  29.708   3.966   1.424
 2555W        W69096  11.843  44.350  13.690
 2556W        W69097   9.674  44.067  11.940
 2557W        W69098   7.598   0.656   2.911
 2558W        W69099  14.210  19.002  11.180
 2559W        W69100  24.419   6.175   9.858
 2560W        W69101  27.256   2.022   3.700
 2561W        W69102  43.087  14.980  11.873
 2562W        W69103  43.445  40.317   2.652
 2563W        W69104   4.162  19.734   2.871
 2564W        W69105  16.654  30.877   2.771
 2565W        W69106   8.199   3.211   3.495
 2566W        W69107  16.557  26.604   0.540
 2567W        W69108  25.048   5.751  12.576
 2568W        W69109  19.277  26.819   0.295
 2569W        W69110  35.826  29.748   3.760
 2570W        W69111  34.754  30.001   3.447
 2571W        W69112   3.419  12.116   4.318
 2572W        W69113  20.047  11.681  10.234
 2573W        W69114  25.114   7.282   2.600
 2574W        W69115  31.164  16.042  10.223
 2575W        W69116  11.413  33.193  14.368
 2576W        W69117  37.980  44.976   0.409
 2577W        W69118  21.116  30.429  10.167
 2578W        W69119  37.877  18.726  12.728
 2579W        W69120  18.243  44.701   1.241
 2580W        W69121  26.233  29.090   4.247
 2581W        W69122  25.797  10.742  11.123
 2582W        W69123  32.835  13.973  10.285
 2583W        W69124  20.288  33.702  13.217
 2584W        W69125  14.644  26.705   4.868
 2585W        W69126  42.655   8.665   4.335
 2586W        W69127  10.518  32.700  12.237
 2587W        W69128  31.367   3.496   3.700
 2588W        W69129   0.893   3.513   4.268
 2589W        W69130  12.611   0.959   4.056
 2590W        W69131  10.151  23.988  11.640
 2591W        W69132  21.200  19.564  12.555
 2592W        W69133   5.741  25.184   1.742
 2593W        W69134  10.295  29.039   4.202
 2594W        W69135  36.909  44.973   4.265
 2595W        W69136  13.098  35.424  12.393
 2596W        W69137  29.935  10.612  14.700
 2597W        W69138  18.251  42.930   1.213
 2598W        W69139  39.452   0.192  12.971
 2599W        W69140  35.956  42.285   2.387
 2600W        W69141  30.634  17.334   0.887
 2601W        W69142  21.700  40.762  14.962
 2602W        W69143  43.887   1.955   2.870
 2603W        W69144  15.708   5.209   0.949
 2604W        W69145  28.943  40.757   0.023
 2605W        W69146  31.428   2.840   2.392
 2606W        W69147  16.664  18.459   3.124
 2607W        W69148   9.061   8.213  11.961
 2608W        W69149   4.733  23.901  10.843
 2609W        W69150   2.440  31.093   0.700
 2610W        W69151   8.591  11.355   1.508
 2611W        W69152  43.801   1.252   4.669
 2612W        W69153  42.238   4.189   4.702
 2613W        W69154  20.649   8.821   4.442
 2614W        W69155  11.962  30.413   2.778
 2615W        W69156  27.430  39.453   4.933
 2616W        W69157  12.978  14.118  12.880
 2617W        W69158  43.808  19.499  12.612
 2618W        W69159  16.309   5.740   1.484
 2619W        W69160  41.520  32.813  13.823
 2620W        W69161  17.144  23.966  10.030
 2621W        W69162   6.844  12.847   4.764
 2622W        W69163  16.256  16.110  11.093
 2623W        W69164   0.509  40.664   1.854
 2624W        W69165  44.815   2.067  10.760
 2625W        W69166  27.152  24.525  14.038
 2626W        W69167   6.718  30.991  14.900
 2627W        W69168  36.102  21.169  12.129
 2628W        W69169  36.662  27.995  13.378
 2629W        W69170  19.496   9.199   3.101
 2630W        W69171  36.327  31.500  11.116
 2631W        W69172  13.736  11.258  13.261
 2632W        W69173  30.164  29.715  12.167
 2633W        W69174  42.100  17.628  12.043
 2634W        W69175  29.133   6.871   0.769
 2635W        W69176  32.471   1.689   4.651
 2636W        W69177  36.973  22.017   0.363
 2637W        W69178  21.562   6.657  13.488
 2638W        W69179   2.786  24.035   1.761
 2639W        W69180  36.915  11.279   1.234
 2640W        W69181  10.786   4.034  10.634
 2641W        W69182  37.849  10.771   0.456
 2642W        W69183  12.787  34.073  13.458
 2643W        W69184  44.135  18.018  11.667
 2644W        W69185   8.433  15.138  14.423
 2645W        W69186  19.656   8.787   3.811
 2646W        W69187  12.221  37.961   4.585
 2647W        W69188   5.332   0.998   3.341
 2648W        W69189  17.356  31.920  13.464
 2649W        W69190  26.182  20.528   2.324
 2650W        W69191  12.579   2.946  12.454
 2651W        W69192  11.158   5.426   4.138
 2652W        W69193  30.682  39.927   0.741
 2653W        W69194  42.790  26.532   4.395
 2654W        W69195  34.148  39.963  11.611
 2655W        W69196  42.222  29.571  13.068
 2656W        W69197  35.684  13.300   0.343
 2657W        W69198   7.474  26.080   4.260
 2658W        W69199  38.089  16.616  10.699
 2659W        W69200   7.386  19.876   4.073
 2660W        W69201   2.128  10.859  11.068
 2661W        W69202   6.316  37.822   3.155
 2662W        W69203   4.235   7.930   1.683
 2663W        W69204  22.811  25.200  11.209
 2664W        W69205   7.077  30.634   0.501
 2665W        W69206  27.439  13.403  12.653
 2666W        W69207  40.184  27.688  12.050
 2667W        W69208  11.137  22.127  10.687
 2668W        W69209  35.708  15.177   2.067
 2669W        W69210   4.352  28.006  14.753
 2670W        W69211   6.812  31.013   0.779
 2671W        W69212  24.200   8.574  12.642
 2672W        W69213   2.046  15.244   2.571
 2673W        W69214  27.203  18.748  12.576
 2674W        W69215  17.790  35.886  12.891
 2675W        W69216  37.903  24.593  10.732
 2676W        W69217  15.818  27.614  10.201
 2677W        W69218  36.418   7.033  14.240
 2678W        W69219  44.808  19.076  13.318
 2679W        W69220   5.638  41.917   1.321
 2680W        W69221   1.034  31.021   2.640
 2681W        W69222   4.365  13.511  12.564
 2682W        W69223  35.051  22.635   4.112
 2683W        W69224  16.285  40.318   1.745
 2684W        W69225  18.465  26.396   4.147
 2685W        W69226   9.954   5.029  11.861
 2686W        W69227  23.642   9.112   1.867
 2687W        W69228  19.087  33.078  14.383
 2688W        W69229  28.533  30.114   0.224
 2689W        W69230  16.697   4.958  10.663
 2690W        W69231  38.806  21.816  14.799
 2691W        W69232  29.998  32.363  11.209
 2692W        W69233   6.107   8.789   4.394
 2693W        W69234  19.183  43.142  13.403
 2694W        W69235  13.074  44.561   3.996
 2695W        W69236   9.373  27.962  14.958
 2696W        W69237  12.682  30.605   4.267
 2697W        W69238  20.628  25.100   3.266
 2698W        W69239  42.382  44.391  12.961
 2699W        W69240  17.332  26.862   1.703
 2700W        W69241  32.611  32.373   1.942
 2701W        W69242  24.238  42.408   3.238
 2702W        W69243  34.608  34.798   4.827
 2703W        W69244   0.529   4.194  11.825
 2704W        W69245  13.538  40.002  13.059
 2705W        W69246   0.428  19.035   3.668
 2706W        W69247  27.604  27.849   1.002
 2707W        W69248  17.553  18.748   3.630
 2708W        W69249  43.961  12.595   2.308
 2709W        W69250  21.232  20.859   4.383
 2710W        W69251  32.352  39.718   3.627
 2711W        W69252  23.136  39.050   2.216
 2712W        W69253  29.145   0.705  13.399
 2713W        W69254   6.926   7.952  11.539
 2714W        W69255  18.748  38.328  10.989
 2715W        W69256  20.739  10.262  10.974
 2716W        W69257   0.219  35.310  11.782
 2717W        W69258  31.519   8.224   1.002
 2718W        W69259  13.070   7.365  14.866
 2719W        W69260  26.942  36.981  10.592
 2720W        W69261  43.404  24.024   3.587
 2721W        W69262  43.541   4.786  13.049
 2722W        W69263   5.334  39.080  13.030
 2723W        W69264  18.747  32.628  12.385
 2724W        W69265   8.340  15.186   1.161
 2725W        W69266   7.636  26.803   4.504
 2726W        W69267  29.159  24.757  11.621
 2727W        W69268  15.637  28.197   0.883
 2728W        W69269  10.685  24.245  13.402
 2729W        W69270  29.911  23.532  11.582
 2730W        W69271  21.760  43.168  13.941
 2731W        W69272   1.202  36.236  14.437
 2732W        W69273   1.807  25.251   3.134
 2733W        W69274  16.698  22.541  11.143
 2734W        W69275  15.526   7.677  14.899
 2735W        W69276  40.441   1.672  14.304
 2736W        W69277  24.117  20.015   2.130
 2737W        W69278   3.938  29.192  12.278
 2738W        W69279   0.345  23.275   3.882
 2739W        W69280  30.653  39.948   1.782
 2740W        W69281  38.085   3.372   0.391
 2741W        W69282  19.129  38.959   0.369
 2742W        W69283   4.810  20.040   0.648
 2743W        W69284  28.248  43.819   3.232
 2744W        W69285  28.749  12.771   2.814
 2745W        W69286  14.144  19.686   2.685
 2746W        W69287   9.137  18.655   4.603
 2747W        W69288   7.849  35.974   0.660
 2748W        W69289   9.271  26.082   3.557
 2749W        W69290  13.809   3.386  13.998
 2750W        W69291  40.807   3.339  13.721
 2751W        W69292  28.615  30.254   4.766
 2752W        W69293  27.717   2.243   3.647
 2753W        W69294   1.798  33.992   5.398
 2754W        W69295  19.582   7.744  12.876
 2755W        W69296  31.162  16.548  14.832
 2756W        W69297   4.986  38.937  14.003
 2757W        W69298  43.358  26.646  11.756
 2758W        W69299   2.708  25.067   3.150
 2759W        W69300  22.198  36.639  11.781
 2760W        W69301  43.502   1.692  14.895
 2761W        W69302  37.983   8.740   0.656
 2762W        W69303  16.242  14.046   0.441
 2763W        W69304  33.953   4.959  14.783
 2764W        W69305  36.613   8.964   4.184
 2765W        W69306  10.425  32.968  10.772
 2766W        W69307   4.403   9.824  10.803
 2767W        W69308  23.710  24.769  11.255
 2768W        W69309   0.911  20.719  14.495
 2769W        W69310  44.799  25.706  13.511
 2770W        W69311   4.768  28.363   1.359
 2771W        W69312  43.044  23.892  14.024
 2772W        W69313  39.467   2.754   4.622
 2773W        W69314  21.950   3.272   3.706
 2774W        W69315   1.520   4.522  11.911
 2775W        W69316  40.459  44.454   2.286
 2776W        W69317  31.114  26.212  14.418
 2777W        W69318  20.134  22.603   4.129
 2778W        W69319   0.566  38.062   2.926
 2779W        W69320  14.415  13.151   4.188
 2780W        W69321  38.877   8.605  12.019
 2781W        W69322   8.642  44.708   4.237
 2782W        W69323   1.112  40.525  10.958
 2783W        W69324  38.752  24.364   4.243
 2784W        W69325  12.588   6.268   2.493
 2785W        W69326  16.202  21.751  10.456
 2786W        W69327  14.149   4.141   3.781
 2787W        W69328  18.413  31.056  11.678
 2788W        W69329  15.108  42.560  14.891
 2789W        W69330  37.674  11.569   5.099
 2790W        W69331  30.952  13.543  14.031
 2791W        W69332  24.718  33.870   1.363
 2792W        W69333  43.697  30.616   3.658
 2793W        W69334  29.915  33.371  12.872
 2794W        W69335  27.124  32.711  11.616
 2795W        W69336  33.372  21.827  14.577
 2796W        W69337  15.921   0.988   0.376
 2797W        W69338  34.062  31.558  14.042
 2798W        W69339  16.592   9.221   3.356
 2799W        W69340  42.077  44.302   2.436
 2800W        W69341  14.686  15.269   4.623
 2801W        W69342  43.003  21.789   2.267
 2802W        W69343  33.597  41.704   0.589
 2803W        W69344  39.552   3.678  11.226
 2804W        W69345  32.338  10.238  11.791
 2805W        W69346  27.056  29.446   4.240
 2806W        W69347  23.071   2.481  13.007
 2807W        W69348  14.616  26.963   2.828
 2808W        W69349  17.120  35.687  14.033
 2809W        W69350  16.749  14.551   3.212
 2810W        W69351  20.214  42.799   2.815
 2811W        W69352   1.894  37.742  14.959
 2812W        W69353  29.016   4.644  12.994
 2813W        W69354  42.791  10.772  13.560
 2814W        W69355  43.073  17.776   2.331
 2815W        W69356   6.844  36.836   1.261
 2816W        W69357  29.853  11.754   4.603
 2817W        W69358  35.706  39.013  11.912
 2818W        W69359   0.421  26.414  13.998
 2819W        W69360   2.963  23.992   2.665
 2820W        W69361  39.043  15.707   0.380
 2821W        W69362  13.786  36.299  13.589
 2822W        W69363  31.019  27.886  11.278
 2823W        W69364  24.998  18.620  14.031
 2824W        W69365   0.459  36.437   3.275
 2825W        W69366  28.438   0.524  12.036
 2826W        W69367   9.103  42.366   9.561
 2827W        W69368  29.799  36.406  12.571
 2828W        W69369   6.732  36.380   0.955
 2829W        W69370  30.154   6.782  14.408
 2830W        W69371   7.928  19.311   4.146
 2831W        W69372  15.714   4.386  11.936
 2832W        W69373  26.010  15.007   4.114
 2833W        W69374  14.256  38.137   1.185
 2834W        W69375   2.072  34.328  13.330
 2835W        W69376  27.486   3.659   3.733
 2836W        W69377   1.803  17.102   0.245
 2837W        W69378  39.428  38.005   3.752
 2838W        W69379  32.958  17.594  11.058
 2839W        W69380  21.360   1.981   4.725
 2840W        W69381  11.830   5.667  13.024
 2841W        W69382  24.544   4.362  11.653
 2842W        W69383  30.474   1.817   1.868
 2843W        W69384  37.135  35.395  14.775
 2844W        W69385  38.898  29.465  11.721
 2845W        W69386  16.151  20.537  10.867
 2846W        W69387   9.174  12.194   0.678
 2847W        W69388   1.947  42.516   4.940
 2848W        W69389  36.013  42.723  10.228
 2849W        W69390  21.991  16.702   0.224
 2850W        W69391  40.420  15.618   0.764
 2851W        W69392  40.780  44.869  12.951
 2852W        W69393  31.934  12.474  12.015
 2853W        W69394  24.746  16.763   2.317
 2854W        W69395  16.255  30.127  14.128
 2855W        W69396  10.583  39.845  11.098
 2856W        W69397  39.331   6.874   1.232
 2857W        W69398   5.697  36.412  13.313
 2858W        W69399  21.006  24.065   0.916
 2859W        W69400  21.314  19.869   1.451
 2860W        W69401  44.673  39.941   9.944
 2861W        W69402   9.402   4.861   4.283
 2862W        W69403  19.297   3.003  10.656
 2863W        W69404  14.335   3.065  11.228
 2864W        W69405  42.369  24.055   2.074
 2865W        W69406  13.731  41.224   0.744
 2866W        W69407  34.955   4.275  12.595
 2867W        W69408  34.168  35.206  13.379
 2868W        W69409  21.642  25.524  13.128
 2869W        W69410  34.163   8.852   0.871
 2870W        W69411   4.325  30.913   3.971
 2871W        W69412   9.162  39.594  10.751
 2872W        W69413  42.878   9.135   0.714
 2873W        W69414  10.672  16.767   0.626
 2874W        W69415  14.268  29.990   4.480
 2875W        W69416  15.064   2.516  11.108
 2876W        W69417  25.104  29.737   2.744
 2877W        W69418  21.063   8.761   4.112
 2878W        W69419   5.758  14.781  12.643
 2879W        W69420  17.515   1.177   1.779
 2880W        W69421  20.596  26.454  12.985
 2881W        W69422  12.699  38.725  14.211
 2882W        W69423  11.376  35.806   1.384
 2883W        W69424  25.057   8.472   1.926
 2884W        W69425   4.661  27.493  13.404
 2885W        W69426  11.161  25.621   3.734
 2886W        W69427  44.271  18.850  11.093
 2887W        W69428   8.305   7.400   2.223
 2888W        W69429  38.088  10.830  12.013
 2889W        W69430  40.206  10.128   1.551
 2890W        W69431   6.345  24.250  13.083
 2891W        W69432   4.919   3.851  13.063
 2892W        W69433  13.479  23.748   3.694
 2893W        W69434   8.347  40.764  14.317
 2894W        W69435  36.837  41.555   4.561
 2895W        W69436  14.573   5.220  14.746
 2896W        W69437  21.673  29.517  12.174
 2897W        W69438  27.543  28.682  14.467
 2898W        W69439  15.872  29.953   2.514
 2899W        W69440  30.144  36.201   4.483
 2900W        W69441  36.366  27.388   4.172
 2901W        W69442  30.570  23.090  11.838
 2902W        W69443  43.549  39.765  10.710
 2903W        W69444  28.138  18.799  13.324
 2904W        W69445  28.090  15.242  10.816
 2905W        W69446   6.388  21.116   0.882
 2906W        W69447  44.931   7.198  14.444
 2907W        W69448  40.809  42.576   0.771
 2908W        W69449  28.463  22.101   0.028
 2909W        W69450  41.923   9.668  12.585
 2910W        W69451  24.599  39.256  12.461
 2911W        W69452  37.358  12.790  13.562
 2912W        W69453   1.992   4.804  14.843
 2913W        W69454  11.952   2.946  13.933
 2914W        W69455  12.513  29.692  11.111
 2915W        W69456  25.952   8.499   1.814
 2916W        W69457  28.187  25.063   2.105
 2917W        W69458  11.578  23.813  10.573
 2918W        W69459  13.373  29.602   2.123
 2919W        W69460  28.718  10.857   1.436
 2920W        W69461   2.175   0.927   4.525
 2921W        W69462   9.463  15.436  12.431
 2922W        W69463   4.131  27.606   3.166
 2923W        W69464   8.791  40.329  14.854
 2924W        W69465   0.778  20.545   2.847
 2925W        W69466  38.491  12.009  14.487
 2926W        W69467  17.940  38.978  14.458
 2927W        W69468  17.652  33.527   1.559
 2928W        W69469   6.076  10.507  12.483
 2929W        W69470   4.307  18.100  11.535
 2930W        W69471  33.457  23.302  11.159
 2931W        W69472  43.870  37.539   3.884
 2932W        W69473  14.795   3.387   1.303
 2933W        W69474  40.838   7.055  11.562
 2934W        W69475  44.889  22.350  12.467
 2935W        W69476  24.627  15.862  10.956
 2936W        W69477  36.111  13.221   2.554
 2937W        W69478  23.725  21.588  13.897
 2938W        W69479  18.496   9.276  10.651
 2939W        W69480  27.669   6.864   0.998
 2940W        W69481  24.425  19.267  10.777
 2941W        W69482  14.370   0.463  10.753
 2942W        W69483   3.420  14.920   3.223
 2943W        W69484  30.262  13.275   0.917
 2944W        W69485  39.825  18.998  12.543
 2945W        W69486  17.137  43.910   4.369
 2946W        W69487  36.904  34.273  13.005
 2947W        W69488   4.461  42.832  11.006
 2948W        W69489  30.874   4.999  12.057
 2949W        W69490  12.354   7.711   1.638
 2950W        W69491  29.392  22.176  13.486
 2951W        W69492  19.003  29.623   4.182
 2952W        W69493  36.600   7.403  11.439
 2953W        W69494  17.647  31.389  11.860
 2954W        W69495  24.104  24.916  10.740
 2955W        W69496  12.758   1.410  11.575
 2956W        W69497  11.040  30.783  12.519
 2957W        W69498   5.683  25.584  11.704
 2958W        W69499  34.877  24.598  12.460
 2959W        W69500  33.363  39.928  13.999
 2960W        W69501   4.945  29.128  14.296
 2961W        W69502   0.426   4.812   0.979
 2962W        W69503  23.696  33.397  10.561
 2963W        W69504  23.201  21.996  14.839
 2964W        W69505  43.255  14.162   2.393
 2965W        W69506  16.685  21.164  11.569
 2966W        W69507  20.221   5.330   4.647
 2967W        W69508   1.447  17.786   0.011
 2968W        W69509  21.038   5.884  11.540
 2969W        W69510  33.044  34.195  10.372
 2970W        W69511   3.820  14.660  11.348
 2971W        W69512  27.220  15.612  10.537
 2972W        W69513  42.961   4.709  12.145
 2973W        W69514  40.912  26.798   0.739
 2974W        W69515   2.025   2.887   3.897
 2975W        W69516  10.781  39.765  14.321
 2976W        W69517  10.594  29.005   2.402
 2977W        W69518  37.100  19.089   0.228
 2978W        W69519  44.531  14.765   2.321
 2979W        W69520   7.837  34.996   0.299
 2980W        W69521  43.352   1.792   1.726
 2981W        W69522  28.115  11.695   0.535
 2982W        W69523  39.444  25.516  12.301
 2983W        W69524  19.554  17.742   2.890
 2984W        W69525  14.423  18.439  12.427
 2985W        W69526  29.984  44.290   3.919
 2986W        W69527   3.707  19.899  12.301
 2987W        W69528  38.277  43.444  12.830
 2988W        W69529  43.772  39.764   3.294
 2989W        W69530  23.604  35.037   3.761
 2990W        W69531  11.128  39.943   4.092
 2991W        W69532  23.019  36.553  14.877
 2992W        W69533  40.423  42.140   0.465
 2993W        W69534   4.372  42.875   1.948
 2994W        W69535  15.382  28.175   3.245
 2995W        W69536  19.402  26.730  14.002
 2996W        W69537  19.975  30.519  12.178
 2997W        W69538  32.044  18.587  12.950
 2998W        W69539  16.303  27.606   0.968
 2999W        W69540  10.725  25.092   0.249
 3000W        W69541  24.098   6.201  13.301
 3001W        W69542  28.335  16.093   4.275
 3002W        W69543  41.546   1.217  13.833
 3003W        W69544   5.242  30.751  10.961
 3004W        W69545  35.096   3.293  14.199
 3005W        W69546  36.306  23.020  14.682
 3006W        W69547  21.427  42.338  14.525
 3007W        W69548  33.493  43.231   2.788
 3008W        W69549  27.576  15.143   3.415
 3009W        W69550  23.445   8.827   3.635
 3010W        W69551  27.607  30.175   4.122
 3011W        W69552  23.627  39.553   3.857
 3012W        W69553  13.822   1.953  11.554
 3013W        W69554  17.212   8.209   2.281
 3014W        W69555  21.696  22.277   2.234
 3015W        W69556  29.839   1.455  13.879
 3016W        W69557   1.827  41.822  10.758
 3017W        W69558  19.033   8.644   1.262
 3018W        W69559  37.986  28.420  10.659
 3019W        W69560  21.841  35.931  11.361
 3020W        W69561  42.265  15.309   1.142
 3021W        W69562  39.498  23.023  13.312
 3022W        W69563  31.832  34.557   3.358
 3023W        W69564  27.616  44.771  14.324
 3024W        W69565  14.741  14.823  11.945
 3025W        W69566  25.917  22.172   3.253
 3026W        W69567  22.136  21.254  13.078
 3027W        W69568  31.827   2.410  14.333
 3028W        W69569  37.853  18.690   0.500
 3029W        W69570   9.196  26.073   0.745
 3030W        W69571  29.023  29.419  13.351
 3031W        W69572  16.128  10.172  14.428
 3032W        W69573  37.293  40.388  14.930
 3033W        W69574  11.527   5.023  13.827
 3034W        W69575   2.809   9.766  10.458
 3035W        W69576  18.921  10.415  10.450
 3036W        W69577  36.352  25.719  14.198
 3037W        W69578  43.308  21.719  13.029
 3038W        W69579  38.100  36.130  10.927
 3039W        W69580  19.535  10.110  12.938
 3040W        W69581  26.126  18.280  13.807
 3041W        W69582   1.832  39.248   4.238
 3042W        W69583  28.741  31.924   3.406
 3043W        W69584  26.428   0.395  13.456
 3044W        W69585   0.938   3.758   3.235
 3045W        W69586  17.519  31.975   1.862
 3046W        W69587  16.113  24.148  10.608
 3047W        W69588  27.342  41.235  11.936
 3048W        W69589  34.017  16.291  14.851
 3049W        W69590  25.535  16.981   2.686
 3050W        W69591   9.754  23.198  11.581
 3051W        W69592  29.665  31.511  11.943
 3052W        W69593  16.651   4.319   1.309
 3053W        W69594  37.162  17.207   5.063
 3054W        W69595   1.342   7.337   2.274
 3055W        W69596  25.988  32.887  14.382
 3056W        W69597  14.671  29.680  11.079
 3057W        W69598  10.386  20.807  12.908
 3058W        W69599  35.468  21.180   2.689
 3059W        W69600  24.763  30.055  14.817
 3060W        W69601  30.914  19.287   1.278
 3061W        W69602  34.429  27.869  12.393
 3062W        W69603   8.226  33.978   0.247
 3063W        W69604  13.287  30.130  10.265
 3064W        W69605  34.457  12.839  12.501
 3065W        W69606  20.579  38.780  14.272
 3066W        W69607  34.080  30.173  13.011
 3067W        W69608  16.674   4.179  14.927
 3068W        W69609  29.959  24.050  14.475
 3069W        W69610  27.150  38.651   2.832
 3070W        W69611  24.490  33.125  12.572
 3071W        W69612  39.533  40.960  13.874
 3072W        W69613  26.845  28.120   2.586
 3073W        W69614  16.012  40.500   3.297
 3074W        W69615  18.286  11.169  11.231
 3075W        W69616   7.856  18.553   1.789
 3076W        W69617  10.825   4.647  14.339
 3077W        W69618  32.177  10.336   3.999
 3078W        W69619  16.372  21.109  12.009
 3079W        W69620  12.183  15.816   3.805
 3080W        W69621  26.061  44.694  11.082
 3081W        W69622   3.777   7.723  13.438
 3082W        W69623  27.403  33.597   4.256
 3083W        W69624  41.654  34.371  12.463
 3084W        W69625   9.817  26.592  11.142
 3085W        W69626  14.662   7.215  10.446
 3086W        W69627  26.726  25.791  12.525
 3087W        W69628   6.100  40.612  10.364
 3088W        W69629  28.910   9.614   3.650
 3089W        W69630  21.235  13.006  14.884
 3090W        W69631   3.919  25.025  11.920
 3091W        W69632  22.590  19.597  14.068
 3092W        W69633  37.848  44.089   2.587
 3093W        W69634  32.432  24.103   3.822
 3094W        W69635  42.079  24.936  12.533
 3095W        W69636  32.480  21.367   0.502
 3096W        W69637  20.272  30.497   3.412
 3097W        W69638  32.649  40.898   3.708
 3098W        W69639   2.221  23.603  10.314
 3099W        W69640  18.265  36.703  13.933
 3100W        W69641  19.369  39.789  12.405
 3101W        W69642  15.151  41.021  12.630
 3102W        W69643  30.610  12.329  13.585
 3103W        W69644  35.042   4.009   4.676
 3104W        W69645  42.436  36.466  10.737
 3105W        W69646  12.684  26.201   1.224
 3106W        W69647  17.546  10.904   0.990
 3107W        W69648  10.396  22.588  10.477
 3108W        W69649  38.672  25.494  13.272
 3109W        W69650  13.390  25.878  12.870
 3110W        W69651  29.527  18.129  10.737
 3111W        W69652  29.656  41.588   4.534
 3112W        W69653   9.657  36.027   1.232
 3113W        W69654  20.217  21.177  10.971
 3114W        W69655  30.710  11.228   9.745
 3115W        W69656  37.057  23.754   4.358
 3116W        W69657  34.194  14.593  13.868
 3117W        W69658  10.694   0.511  10.542
 3118W        W69659  33.838  38.380  11.974
 3119W        W69660   8.502  34.419  12.179
 3120W        W69661  18.705  37.757   1.816
 3121W        W69662  16.085  26.282  12.095
 3122W        W69663  36.777  14.157   4.821
 3123W        W69664  31.115  41.349  11.996
 3124W        W69665   2.341  34.054  10.472
 3125W        W69666  42.859   4.260   3.122
 3126W        W69667  27.000  31.335  12.457
 3127W        W69668  41.881   2.967  11.571
 3128W        W69669   4.398  27.560  10.388
 3129W        W69670  16.894  42.917  12.881
 3130W        W69671  33.969  32.602  13.460
 3131W        W69672  14.611   5.583  11.161
 3132W        W69673  40.125  26.679   1.805
 3133W        W69674   9.703   1.720  14.092
 3134W        W69675   9.664   0.654  12.961
 3135W        W69676  18.572  44.314   2.322
 3136W        W69677   0.257  12.939  11.633
 3137W        W69678  11.770  12.361  14.803
 3138W        W69679  21.283  29.005  14.286
 3139W        W69680   7.462   9.972   0.006
 3140W        W69681  44.924  13.647  10.353
 3141W        W69682   7.398   6.835  13.047
 3142W        W69683  26.957  35.824   0.674
 3143W        W69684   1.937  10.642  11.547
 3144W        W69685  33.824  21.465   0.481
 3145W        W69686  33.076  43.235  13.362
 3146W        W69687   4.913   2.316   1.890
 3147W        W69688  40.693  13.708  11.173
 3148W        W69689  28.732   6.993   1.617
 3149W        W69690  25.993  43.470   3.033
 3150W        W69691  15.740  40.803   4.355
 3151W        W69692  27.528  35.007  12.945
 3152W        W69693  33.456  13.895  13.962
 3153W        W69694  23.547  33.475  11.934
 3154W        W69695  31.891  22.268   4.093
 3155W        W69696  26.174  18.719  14.748
 3156W        W69697  36.930   6.646  14.514
 3157W        W69698  27.205  34.368   2.083
 3158W        W69699  14.877  26.047  11.409
 3159W        W69700  25.971   3.329   2.126
 3160W        W69701  18.538  35.969  12.481
 3161W        W69702  42.829  18.132  12.167
 3162W        W69703  28.569  14.146   1.048
 3163W        W69704  28.002  26.949   2.286
 3164W        W69705   6.418  26.674   0.787
 3165W        W69706  18.104  17.762   3.203
 3166W        W69707  29.581   9.605  11.699
 3167W        W69708  33.619  27.997  11.875
 3168W        W69709  23.753  19.192   2.483
 3169W        W69710  43.041  34.530  13.072
 3170W        W69711  35.392  15.746  12.916
 3171W        W69712   8.436  38.960  12.417
 3172W        W69713  37.881  37.589  10.949
 3173W        W69714  33.314  20.508   3.740
 3174W        W69715  30.862  23.958   1.748
 3175W        W69716  12.722  10.277  13.527
 3176W        W69717  14.080   3.514   4.686
 3177W        W69718  21.096  41.881   4.654
 3178W        W69719  32.837  15.167  11.019
 3179W        W69720  13.887  17.379  13.075
 3180W        W69721  23.750   6.456  13.580
 3181W        W69722  16.077   2.229  13.825
 3182W        W69723  24.193  41.920   3.458
 3183W        W69724  30.127  38.011  11.267
 3184W        W69725  41.535  15.666  11.049
 3185W        W69726  34.988  41.029  14.469
 3186W        W69727  27.257  37.661   3.616
 3187W        W69728  27.986  32.060  13.005
 3188W        W69729   6.256  28.725   1.320
 3189W        W69730  15.088  27.490   0.609
 3190W        W69731  13.800  30.249  10.213
 3191W        W69732  10.275  23.619  14.378
 3192W        W69733   6.016  34.345   2.694
 3193W        W69734  30.378  43.723   0.415
 3194W        W69735   3.826  43.822  13.429
 3195W        W69736  21.467  17.311  14.128
 3196W        W69737  17.089  28.837  13.342
 3197W        W69738  18.274  18.717  12.578
 3198W        W69739  43.725  20.782  12.982
 3199W        W69740  22.635  16.328  12.412
 3200W        W69741  22.307  24.514  10.737
 3201W        W69742  12.773  43.385  11.149
 3202W        W69743   9.258  11.420   2.266
 3203W        W69744   6.106   2.867  10.216
 3204W        W69745  41.971   0.408   3.693
 3205W        W69746  20.312  24.521  12.125
 3206W        W69747  22.091   9.100  10.077
 3207W        W69748   5.365  14.363  11.199
 3208W        W69749   2.424  31.175   3.407
 3209W        W69750  11.706  11.660   2.225
 3210W        W69751   1.615  36.452   0.313
 3211W        W69752  15.221  33.094  10.271
 3212W        W69753  27.664  44.365  11.474
 3213W        W69754  23.245  31.106  10.572
 3214W        W69755  25.467  36.091  11.906
 3215W        W69756  23.539  39.609   2.945
 3216W        W69757  41.859   8.413   1.208
 3217W        W69758  17.427  38.351   2.967
 3218W        W69759  16.544  44.727  12.720
 3219W        W69760  44.795  20.205  14.947
 3220W        W69761  35.049  34.156  14.514
 3221W        W69762  27.788  14.720   0.624
 3222W        W69763  10.687   8.432  14.846
 3223W        W69764  41.108   2.798   0.017
 3224W        W69765  32.809  36.453  14.265
 3225W        W69766   6.405  44.309   4.612
 3226W        W69767  39.881   8.976  12.932
 3227W        W69768   6.817   0.832   1.475
 3228W        W69769   2.975  29.621   1.300
 3229W        W69770  12.785  31.544   0.665
 3230W        W69771  22.034  25.931  12.000
 3231W        W69772   2.787   4.558  12.458
 3232W        W69773  26.201  18.802  12.903
 3233W        W69774  19.258  19.232  14.799
 3234W        W69775  36.721   3.466  11.481
 3235W        W69776  37.341  16.812   4.581
 3236W        W69777   6.678  20.265   2.234
 3237W        W69778  13.851  29.477  10.687
 3238W        W69779  29.540  39.522  14.897
 3239W        W69780   1.165  40.721  12.170
 3240W        W69781  37.896  20.062  13.028
 3241W        W69782  27.578  11.088  14.958
 3242W        W69783  39.558  18.529  10.506
 3243W        W69784  21.540  22.158   4.602
 3244W        W69785   1.434  11.760  12.112
 3245W        W69786   1.208  20.036  11.889
 3246W        W69787  18.136  24.780  11.977
 3247W        W69788  15.863  22.377   9.782
 3248W        W69789  25.051  31.864   3.236
 3249W        W69790   8.417  39.996  14.699
 3250W        W69791  15.318  38.681   0.474
 3251W        W69792  18.070   3.712   1.391
 3252W        W69793  30.185   3.476  11.062
 3253W        W69794  13.343   8.778   2.042
 3254W        W69795  30.924  17.364   3.866
 3255W        W69796  19.581  31.427  12.986
 3256W        W69797  24.229  28.405  14.504
 3257W        W69798  31.211  43.907  14.380
 3258W        W69799  42.285  13.934   1.370
 3259W        W69800  32.353  24.224  11.650
 3260W        W69801  40.734  24.418  11.596
 3261W        W69802  29.226  43.338   0.763
 3262W        W69803   0.517  19.563  13.371
 3263W        W69804  25.547  10.423  12.501
 3264W        W69805  27.453  27.138   4.867
 3265W        W69806  32.998  14.231  11.605
 3266W        W69807  41.858  31.641   4.085
 3267W        W69808   3.233  42.449  11.992
 3268W        W69809  12.287  29.835   0.596
 3269W        W69810  14.760  28.786   3.686
 3270W        W69811  10.195  12.475   1.452
 3271W        W69812  28.136  14.210   1.879
 3272W        W69813   0.025  22.913   4.023
 3273W        W69814  18.541  40.607  11.743
 3274W        W69815  36.464   5.723  14.939
 3275W        W69816  32.591  15.560  12.076
 3276W        W69817   0.965  15.078  11.837
 3277W        W69818   8.207  15.320  10.697
 3278W        W69819  11.775   5.149  13.028
 3279W        W69820  27.651  22.422  13.889
 3280W        W69821  21.789  42.363  12.571
 3281W        W69822  25.575  44.301  11.724
 3282W        W69823   2.273  14.764  10.970
 3283W        W69824  23.291  24.642   0.066
 3284W        W69825  15.489  32.708  10.555
 3285W        W69826  36.356  10.471  14.059
 3286W        W69827  10.350  26.929   2.400
 3287W        W69828  21.785  40.829   3.568
 3288W        W69829   8.242   6.283   1.262
 3289W        W69830  23.500  41.569   3.838
 3290W        W69831  23.717   3.604   4.115
 3291W        W69832   2.872  25.861   0.084
 3292W        W69833  32.145   8.768  14.604
 3293W        W69834   2.179  25.034  13.359
 3294W        W69835   2.612  23.722   4.637
 3295W        W69836   1.917  15.096   1.892
 3296W        W69837   3.990   7.766   3.345
 3297W        W69838  16.234   6.613   0.341
 3298W        W69839  16.059  41.872   0.005
 3299W        W69840   5.446  31.207  10.950
 3300W        W69841  18.197  21.631  13.580
 3301W        W69842   6.730  16.119  13.875
 3302W        W69843   0.332  38.245   3.775
 3303W        W69844  43.761  36.402  13.471
 3304W        W69845   7.912  11.875  12.898
 3305W        W69846   4.922  27.048  13.466
 3306W        W69847  24.609  27.019  13.492
 3307W        W69848   6.863   0.230  11.394
 3308W        W69849   6.284   2.668  14.835
 3309W        W69850  12.183  33.475  10.632
 3310W        W69851  31.124  10.453  13.107
 3311W        W69852  44.102  41.856  14.132
 3312W        W69853   6.470  38.885  13.989
 3313W        W69854   6.901  13.766   3.735
 3314W        W69855  41.612  11.788   4.633
 3315W        W69856  29.649  26.545  14.645
 3316W        W69857  43.809  41.987  11.901
 3317W        W69858  27.348   4.831  14.176
 3318W        W69859   7.683  21.991   4.050
 3319W        W69860  28.231  41.589   0.952
 3320W        W69861  19.043  35.322   4.503
 3321W        W69862  13.125  23.720   4.071
 3322W        W69863  38.995  27.679  13.306
 3323W        W69864  19.120  26.616   2.868
 3324W        W69865  32.896  44.052  13.019
 3325W        W69866  40.485   5.142  12.545
 3326W        W69867  40.461   0.296  12.799
 3327W        W69868   2.143  43.846   3.297
 3328W        W69869  25.057  35.050   4.733
 3329W        W69870  32.966  40.142   1.023
 3330W        W69871  35.635  15.471   0.806
 3331W        W69872  27.062  24.682  14.509
 3332W        W69873  10.857  21.742  11.448
 3333W        W69874  24.783  39.988   2.712
 3334W        W69875   8.595  38.758   2.268
 3335W        W69876  17.660  33.254  14.724
 3336W        W69877  21.088  20.666   1.050
 3337W        W69878  37.589  29.444  13.261
 3338W        W69879   9.092  18.782  13.327
 3339W        W69880  35.342  21.248  10.648
 3340W        W69881  24.495  41.371   3.893
 3341W        W69882   1.482  12.645  13.976
 3342W        W69883  13.184  24.203  11.630
 3343W        W69884  17.592  26.904  12.530
 3344W        W69885   0.286  16.826   2.768
 3345W        W69886  22.747  44.722   3.757
 3346W        W69887  38.994  11.869   3.876
 3347W        W69888   8.362   8.001   4.086
 3348W        W69889  34.853  27.102  10.931
 3349W        W69890  43.984  14.518   3.236
 3350W        W69891  18.174  11.046  12.050
 3351W        W69892  24.259  29.122  14.986
 3352W        W69893  44.351  24.377  13.430
 3353W        W69894  15.228   1.653   1.703
 3354W        W69895  43.945   9.587  11.670
 3355W        W69896   7.437  28.585  13.952
 3356W        W69897   0.699  42.212   3.246
 3357W        W69898  10.367   1.268  11.859
 3358W        W69899  31.361  24.036  13.019
 3359W        W69900  38.910  38.062   3.800
 3360W        W69901  40.583  42.533   3.670
 3361W        W69902   5.398  40.791  13.913
 3362W        W69903  18.569   2.874   0.451
 3363W        W69904   1.330  22.547   0.850
 3364W        W69905   9.594   8.252  11.919
 3365W        W69906  20.589  26.404  10.531
 3366W        W69907  37.545  40.835   3.303
 3367W        W69908  32.968  36.365  10.686
 3368W        W69909  23.931  32.509  11.467
 3369W        W69910   3.512  32.965  12.019
 3370W        W69911  16.497  43.917  14.280
 3371W        W69912  14.509  14.162   0.711
 3372W        W69913   1.669  44.877  12.074
 3373W        W69914  18.338  26.420   3.544
 3374W        W69915   5.343  27.917   9.450
 3375W        W69916  32.801   1.972   0.245
 3376W        W69917   0.944  14.533  10.959
 3377W        W69918   6.817  24.697   1.472
 3378W        W69919  15.354  42.711   3.150
 3379W        W69920  24.956  20.582   1.829
 3380W        W69921  29.398  30.052   2.713
 3381W        W69922  10.666  35.599   3.668
 3382W        W69923  13.283  40.608   1.380
 3383W        W69924  21.985  37.882   1.667
 3384W        W69925  41.764  24.127   0.637
 3385W        W69926  43.803  43.474  14.841
 3386W        W69927  42.954  26.698   2.405
 3387W        W69928  17.150  42.009   4.300
 3388W        W69929   0.481   3.818   2.886
 3389W        W69930  41.880  19.701  14.414
 3390W        W69931  44.284  22.133  11.969
 3391W        W69932  29.347  40.389  11.747
 3392W        W69933  29.076   4.437   4.362
 3393W        W69934  32.448  43.999   0.633
 3394W        W69935  29.657  41.130  12.006
 3395W        W69936  36.228  11.247   0.886
 3396W        W69937  39.572   1.880  12.121
 3397W        W69938  23.255  44.825   3.704
 3398W        W69939  27.504  40.055   2.941
 3399W        W69940  39.467  37.923  12.855
 3400W        W69941  36.246   8.610  10.331
 3401W        W69942  25.288  22.980  11.424
 3402W        W69943  13.814  31.448   3.095
 3403W        W69944   2.487  23.904  14.791
 3404W        W69945  33.985   2.567   4.419
 3405W        W69946  31.999  27.282   3.576
 3406W        W69947  35.430  30.628  12.112
 3407W        W69948  18.260  20.017  12.072
 3408W        W69949  14.844  13.822  14.340
 3409W        W69950  12.074   8.636  11.535
 3410W        W69951  22.747  24.869  11.620
 3411W        W69952  36.982  15.651   0.754
 3412W        W69953  24.150  17.774  14.879
 3413W        W69954  23.265  34.421   1.237
 3414W        W69955  43.777  40.215   3.032
 3415W        W69956  22.904  27.363   2.286
 3416W        W69957  14.910  29.158   0.440
 3417W        W69958   9.420  12.250   0.233
 3418W        W69959  12.781  29.691   3.728
 3419W        W69960  34.746  43.795  13.854
 3420W        W69961  24.504  27.076   0.389
 3421W        W69962  12.326  10.077   1.346
 3422W        W69963  39.692  37.493  13.469
 3423W        W69964  27.108  43.044   1.335
 3424W        W69965  23.083   7.707  11.940
 3425W        W69966   7.008  14.478   1.179
 3426W        W69967  14.118   7.666   3.729
 3427W        W69968  32.357  15.297  14.510
 3428W        W69969  13.283  43.466   4.758
 3429W        W69970  43.157  26.093  13.982
 3430W        W69971   8.642  40.856   1.885
 3431W        W69972  41.430   3.830  11.915
 3432W        W69973  28.637  14.752   2.712
 3433W        W69974  27.274  26.767  14.996
 3434W        W69975  31.692  20.927   3.067
 3435W        W69976  42.602  36.108   0.695
 3436W        W69977  16.258  18.808  12.382
 3437W        W69978  37.403  35.916  11.462
 3438W        W69979  22.609  31.931   1.176
 3439W        W69980  22.511  22.232   4.802
 3440W        W69981  42.620  24.465   4.632
 3441W        W69982  18.036  31.118   2.935
 3442W        W69983  25.045  10.954   3.298
 3443W        W69984  13.051   4.452  13.290
 3444W        W69985   0.057  15.943  12.111
 3445W        W69986   0.278  21.532  11.064
 3446W        W69987  10.741   6.946   0.077
 3447W        W69988  34.923  43.248  11.234
 3448W        W69989  31.032  18.617   2.569
 3449W        W69990  11.884  37.101   3.165
 3450W        W69991  37.502  13.609   0.299
 3451W        W69992  32.799  23.669  14.264
 3452W        W69993  37.375  42.549  14.111
 3453W        W69994  10.862  29.545   3.070
 3454W        W69995  13.702  30.597   1.738
 3455W        W69996  44.361  21.279   1.742
 3456W        W69997  33.644   8.890  14.025
 3457W        W69998  14.332  25.548  11.102
 3458W        W69999  13.833  39.537   0.754
 3459W        W70000  21.267  20.850   0.520
 3460W        W70001  22.913  13.068   4.569
 3461W        W70002  11.082  17.738   1.149
 3462W        W70003  23.291  20.704  11.422
 3463W        W70004  14.542  27.579  10.252
 3464W        W70005   6.117   3.146   0.016
 3465W        W70006   9.900  38.128  11.126
 3466W        W70007   3.596  37.992   1.626
 3467W        W70008  33.542   5.157  12.130
 3468W        W70009  35.632  37.826  11.077
 3469W        W70010  27.496  16.711  13.150
 3470W        W70011  38.184   7.384   0.510
 3471W        W70012  40.852  36.842   0.033
 3472W        W70013  10.228  27.554  12.111
 3473W        W70014   6.311  11.331  11.463
 3474W        W70015  24.691  34.877  10.671
 3475W        W70016  41.339  15.668   0.902
 3476W        W70017  11.643   9.684   1.948
 3477W        W70018   6.231  12.245  14.393
 3478W        W70019  24.044  42.309   4.469
 3479W        W70020   2.094  18.204  12.027
 3480W        W70021  25.230  13.709  12.304
 3481W        W70022   6.361  36.974   1.223
 3482W        W70023  25.573  39.563  13.111
 3483W        W70024  13.127  29.419   0.279
 3484W        W70025   6.374  39.887  14.082
 3485W        W70026   3.420  23.839  14.877
 3486W        W70027  18.186  43.391   4.757
 3487W        W70028  44.742  31.571  12.514
 3488W        W70029  25.182  35.309   3.661
 3489W        W70030   1.182   9.236  14.813
 3490W        W70031  44.820  22.100  12.018
 3491W        W70032  27.985  13.850  13.490
 3492W        W70033  42.554  37.691   3.621
 3493W        W70034  30.635   1.227  10.908
 3494W        W70035  37.980  17.559   4.368
 3495W        W70036   9.208  23.868  12.081
 3496W        W70037  40.257  26.562  12.805
 3497W        W70038  43.226  28.989   3.710
 3498W        W70039  40.920   8.559   2.770
 3499W        W70040  43.621  41.204   3.334
 3500W        W70041   6.069   5.221  10.621
 3501W        W70042  43.216   0.348   3.208
 3502W        W70043  16.572   5.709   4.689
 3503W        W70044  19.172   1.680  10.702
 3504W        W70045  37.332   6.963  14.371
 3505W        W70046  36.314  29.772   1.705
 3506W        W70047   7.421   5.826   4.798
 3507W        W70048  21.281  12.075  12.910
 3508W        W70049  40.093  10.578  10.167
 3509W        W70050  40.682  20.227  12.905
 3510W        W70051   1.258   8.949  11.066
 3511W        W70052  20.073  27.552  13.890
 3512W        W70053  14.309   1.927   0.821
 3513W        W70054  44.885  10.665   2.384
 3514W        W70055  39.463  36.964   1.240
 3515W        W70056  41.548  25.972  10.674
 3516W        W70057  29.209  31.968  14.777
 3517W        W70058  40.302   4.935  13.097
 3518W        W70059  10.252  30.343  10.215
 3519W        W70060  29.220  33.868  13.319
 3520W        W70061  33.645  17.315  11.578
 3521W        W70062  30.594  14.605  13.355
 3522W        W70063  28.913  25.169  13.769
 3523W        W70064   6.800  17.539  10.949
 3524W        W70065  29.062  11.171  12.531
 3525W        W70066  17.081  40.383  10.925
 3526W        W70067   1.796  24.771  10.934
 3527W        W70068  15.043  17.597  13.428
 3528W        W70069  12.830  40.744  14.759
 3529W        W70070  22.673  35.021  12.905
 3530W        W70071  14.913  28.512   2.265
 3531W        W70072  20.071  36.617  12.888
 3532W        W70073  36.083  22.508  10.442
 3533W        W70074  33.616  13.654  13.524
 3534W        W70075  34.885  30.639  12.765
 3535W        W70076  30.895   9.838   4.798
 3536W        W70077  32.322   1.281  11.641
 3537W        W70078  14.346  21.049   4.367
 3538W        W70079  35.828  29.623  11.617
 3539W        W70080  29.999  37.113  11.137
 3540W        W70081   7.625  35.657  11.601
 3541W        W70082  13.894  13.833   4.415
 3542W        W70083  29.669   5.219   1.764
 3543W        W70084  42.415  15.309   4.130
 3544W        W70085  14.207  26.080  14.993
 3545W        W70086  14.711  26.104  13.728
 3546W        W70087  36.523  37.335   0.799
 3547W        W70088  38.534  16.989  12.099
 3548W        W70089   3.728  21.296  14.087
 3549W        W70090   0.512  37.671   3.794
 3550W        W70091  18.286  28.013   3.238
 3551W        W70092  18.895  41.140  14.094
 3552W        W70093   7.445  24.977   3.453
 3553W        W70094  16.035  36.933   4.524
 3554W        W70095   1.994  28.715  12.329
 3555W        W70096   8.425  41.806   3.240
 3556W        W70097  27.624  25.221   2.968
 3557W        W70098  31.598  26.438  12.915
 3558W        W70099  39.519  31.376  14.306
 3559W        W70100  12.726  43.915   4.160
 3560W        W70101   3.456   8.157  14.379
 3561W        W70102   3.794  43.217  14.395
 3562W        W70103   5.076  26.677   4.979
 3563W        W70104   5.980   1.916   0.265
 3564W        W70105  31.177  16.718  10.119
 3565W        W70106  29.376  10.648  10.678
 3566W        W70107  21.298   9.986   3.177
 3567W        W70108   6.329  12.793   3.828
 3568W        W70109   5.353  41.138  12.831
 3569W        W70110   7.193  16.552   2.029
 3570W        W70111   0.404  36.323  14.757
 3571W        W70112   5.349   5.219   2.327
 3572W        W70113  22.149   1.036  11.711
 3573W        W70114  28.014  21.987  12.608
 3574W        W70115  11.865  18.043  14.233
 3575W        W70116  23.740  12.278   0.471
 3576W        W70117   7.139  38.572   1.099
 3577W        W70118   9.253  29.958   4.441
 3578W        W70119   6.661  41.882   0.387
 3579W        W70120  44.640   5.567   0.423
 3580W        W70121  21.032   4.840   3.739
 3581W        W70122  21.250  11.001  11.247
 3582W        W70123  24.476  11.862   2.287
 3583W        W70124  23.530  20.211  13.144
 3584W        W70125  15.161   2.332  12.111
 3585W        W70126  29.987  14.748   3.314
 3586W        W70127   5.178  22.073   1.377
 3587W        W70128  20.158  11.632   2.449
 3588W        W70129  26.194  16.552   2.322
 3589W        W70130  44.318  12.172  12.065
 3590W        W70131  21.285  25.625   2.629
 3591W        W70132  17.580  44.213   0.989
 3592W        W70133  18.962  16.232   3.311
 3593W        W70134  42.296  10.500  12.396
 3594W        W70135  28.173  42.529  12.819
 3595W        W70136   6.985   3.717   4.210
 3596W        W70137  34.855   9.274  10.661
 3597W        W70138  24.299  42.415  14.716
 3598W        W70139  44.667   7.681  13.526
 3599W        W70140  43.061  32.615   0.416
 3600W        W70141  12.456   1.395   0.408
 3601W        W70142  16.177  31.664  10.760
 3602W        W70143  19.535  25.634  13.232
 3603W        W70144  43.774   4.808   4.055
 3604W        W70145  17.832  33.993  11.151
 3605W        W70146  32.329   2.888   3.853
 3606W        W70147  33.796  15.947   0.817
 3607W        W70148  31.061  41.875  11.610
 3608W        W70149  23.486  30.714  13.469
 3609W        W70150  16.143  24.785   2.882
 3610W        W70151   8.838  26.058  14.762
 3611W        W70152  19.942  32.111   0.822
 3612W        W70153  13.849  14.915   2.275
 3613W        W70154  24.582  43.337   0.547
 3614W        W70155  43.387   1.981   4.120
 3615W        W70156  32.832   9.843   1.228
 3616W        W70157  11.639  43.914  10.571
 3617W        W70158  43.540   2.225  14.227
 3618W        W70159  29.511   7.350   4.134
 3619W        W70160   1.463  29.867  11.127
 3620W        W70161   1.925  11.261   2.309
 3621W        W70162  17.564  44.426   3.972
 3622W        W70163  30.063  16.316  12.947
 3623W        W70164  38.843  35.477   2.782
 3624W        W70165  42.125  35.968   0.855
 3625W        W70166  19.230  40.345   1.708
 3626W        W70167   3.078  14.987  12.467
 3627W        W70168  44.331  40.799   2.886
 3628W        W70169  10.212  42.818  11.889
 3629W        W70170  29.408  32.054   0.269
 3630W        W70171  36.412  26.598  13.699
 3631W        W70172  14.505  12.422  11.553
 3632W        W70173  30.099  11.928   2.688
 3633W        W70174  29.626  25.898  13.984
 3634W        W70175  37.507  27.916  12.303
 3635W        W70176  15.090  35.684   4.724
 3636W        W70177   0.763  16.160   4.545
 3637W        W70178  27.472  13.355   0.257
 3638W        W70179   5.379  41.528  12.442
 3639W        W70180  44.043   4.878   0.297
 3640W        W70181   3.799  37.623  12.915
 3641W        W70182  42.478  32.522   1.321
 3642W        W70183  13.833   8.207  13.785
 3643W        W70184   9.234  23.116  11.561
 3644W        W70185  23.231  17.335   0.468
 3645W        W70186  20.037  39.050  11.954
 3646W        W70187   7.946  20.671   0.207
 3647W        W70188  42.806   9.180  14.404
 3648W        W70189  20.334  22.313  13.694
 3649W        W70190  40.142  38.531   3.977
 3650W        W70191  38.086  21.063  12.959
 3651W        W70192   3.725  39.966  11.136
 3652W        W70193   0.887   6.671   4.451
 3653W        W70194  44.055  36.992   5.037
 3654W        W70195  22.431  18.267   3.242
 3655W        W70196  23.351  29.060   3.176
 3656W        W70197  34.987   0.989  12.999
 3657W        W70198   9.146  32.461   3.335
 3658W        W70199   5.699  20.115   2.479
 3659W        W70200  44.932  35.707   3.746
 3660W        W70201  26.292   4.890   0.764
 3661W        W70202  39.753   7.011   0.430
 3662W        W70203  11.309   0.914   1.604
 3663W        W70204  41.795  19.601  12.985
 3664W        W70205  20.223  40.349   3.741
 3665W        W70206  39.963  39.515   0.272
 3666W        W70207  23.789   5.466   1.775
 3667W        W70208  36.822  11.309   3.617
 3668W        W70209  22.765  12.574  11.537
 3669W        W70210   8.000  18.668   1.316
 3670W        W70211   4.860  14.236   4.505
 3671W        W70212  25.624   2.425  11.741
 3672W        W70213   0.710  40.451  14.977
 3673W        W70214  21.652   5.684   0.813
 3674W        W70215  25.000  12.896   1.728
 3675W        W70216  23.097  21.517  13.882
 3676W        W70217   5.594  14.634   3.646
 3677W        W70218  21.565  18.023   3.052
 3678W        W70219  32.681  14.512   0.592
 3679W        W70220  44.243   2.560  10.924
 3680W        W70221  21.973  11.103  12.480
 3681W        W70222  44.751  10.314   1.123
 3682W        W70223   0.869  20.243  10.812
 3683W        W70224  28.946   1.483  12.000
 3684W        W70225  43.256  36.922  12.300
 3685W        W70226   9.953  44.364   1.592
 3686W        W70227  26.190  34.977   3.236
 3687W        W70228  21.658   2.127   3.090
 3688W        W70229  19.542  21.058   4.071
 3689W        W70230   2.381  44.270  11.945
 3690W        W70231   7.035  14.078  14.765
 3691W        W70232  24.938  28.022  12.045
 3692W        W70233   8.887  15.036  11.121
 3693W        W70234  43.466  24.575  10.786
 3694W        W70235  33.794  23.761   0.956
 3695W        W70236  14.092  24.075   4.147
 3696W        W70237  13.858  24.356   2.671
 3697W        W70238  44.757  41.872  12.623
 3698W        W70239  27.039  22.632   0.487
 3699W        W70240  20.150  34.616  14.739
 3700W        W70241  44.026  23.728  12.451
 3701W        W70242  36.305   6.327   0.467
 3702W        W70243  26.434  37.154  14.140
 3703W        W70244  11.322   2.772   1.124
 3704W        W70245   1.252  20.595   4.559
 3705W        W70246   4.695  13.346  10.746
 3706W        W70247  43.743   9.333   2.773
 3707W        W70248   8.201  40.548   1.826
 3708W        W70249   2.366  25.686  13.556
 3709W        W70250  33.556  28.791  14.394
 3710W        W70251   1.514  24.608   4.214
 3711W        W70252  18.985  12.608  13.421
 3712W        W70253  15.643  34.233   1.440
 3713W        W70254  15.730  16.210  12.105
 3714W        W70255  14.089  15.773   1.243
 3715W        W70256  28.440  26.185   2.829
 3716W        W70257  23.966  27.419   3.255
 3717W        W70258  15.629  29.907   1.684
 3718W        W70259   4.661  22.649   2.721
 3719W        W70260   3.830  39.330  14.369
 3720W        W70261  37.752  22.080  12.023
 3721W        W70262  23.132  16.566  14.491
 3722W        W70263  17.316   6.235   2.283
 3723W        W70264  26.691  27.220  12.507
 3724W        W70265  19.143  42.410   3.628
 3725W        W70266  21.315  31.037   3.814
 3726W        W70267  21.189  16.631  12.475
 3727W        W70268  19.112   5.784  14.015
 3728W        W70269  34.845  14.109  13.354
 3729W        W70270   2.343   9.301   0.737
 3730W        W70271  34.157  33.645  11.380
 3731W        W70272  22.610   0.313  12.158
 3732W        W70273  11.911  33.469   4.516
 3733W        W70274  34.580  21.682   0.392
 3734W        W70275  11.648  28.445   4.384
 3735W        W70276  26.109  36.135   0.391
 3736W        W70277   3.759   6.197  10.447
 3737W        W70278  25.746  10.346  14.988
 3738W        W70279  30.549  43.312  13.367
 3739W        W70280  37.164   3.943  12.534
 3740W        W70281  37.839  36.047   3.879
 3741W        W70282  28.723  36.315   2.121
 3742W        W70283  29.014   9.132   1.724
 3743W        W70284  33.580   8.945   4.018
 3744W        W70285  16.657   9.444  13.846
 3745W        W70286  41.341  38.060   4.390
 3746W        W70287  14.331  39.529  11.924
 3747W        W70288  23.165   4.211  13.477
 3748W        W70289   6.264  30.025   3.123
 3749W        W70290   7.905  20.483  11.961
 3750W        W70291  19.534  42.643   0.455
 3751W        W70292  44.917  19.208   4.603
 3752W        W70293  11.535  30.298   4.019
 3753W        W70294  42.529  18.966   0.282
 3754W        W70295  17.137  37.376   1.898
 3755W        W70296  29.858   7.255   4.890
 3756W        W70297  15.371  34.032  12.203
 3757W        W70298   4.480  19.184   0.480
 3758W        W70299   1.643  28.341   3.772
 3759W        W70300   8.573  15.542   1.467
 3760W        W70301  19.285  25.996   4.345
 3761W        W70302  12.727  13.920   1.367
 3762W        W70303  27.707  43.903  14.364
 3763W        W70304  40.927  13.717  13.350
 3764W        W70305  21.027   6.636   0.350
 3765W        W70306  27.570  31.343   0.842
 3766W        W70307   0.103  23.727   3.830
 3767W        W70308  30.185   1.835  11.531
 3768W        W70309  18.550  19.873  11.099
 3769W        W70310   1.221  25.607   4.860
 3770W        W70311  40.941  33.578   0.483
 3771W        W70312   0.086  30.085  13.158
 3772W        W70313  24.062  25.138   3.092
 3773W        W70314  11.771   6.806  10.635
 3774W        W70315   4.344  25.261  11.188
 3775W        W70316  37.467  44.741  12.525
 3776W        W70317  13.057  33.396  10.693
 3777W        W70318  30.810   6.945   4.874
 3778W        W70319   8.188  32.818  12.511
 3779W        W70320  30.031   8.690  13.730
 3780W        W70321  35.627   1.761  13.132
 3781W        W70322  41.000  15.370   5.535
 3782W        W70323  32.174  34.447  11.610
 3783W        W70324  30.178  19.877   3.227
 3784W        W70325  40.274  32.881   3.176
 3785W        W70326  18.987  44.105  13.217
 3786W        W70327  33.904  33.824  14.794
 3787W        W70328  44.670  27.427   4.289
 3788W        W70329  42.534  22.577  14.529
 3789W        W70330  16.732   3.104   3.689
 3790W        W70331   7.922  24.085   1.015
 3791W        W70332  41.760  24.100  13.412
 3792W        W70333  44.453  30.021  11.269
 3793W        W70334  24.616  31.169   2.313
 3794W        W70335  33.350   3.766  13.894
 3795W        W70336  24.139  15.618  12.170
 3796W        W70337  28.357  26.612  13.353
 3797W        W70338  44.001  41.869  10.923
 3798W        W70339  27.065  29.079   0.253
 3799W        W70340   4.961  22.707   1.161
 3800W        W70341  43.273  36.470   3.981
 3801W        W70342  20.603  40.492  11.100
 3802W        W70343  36.924  11.640  13.101
 3803W        W70344   3.850   6.213  12.936
 3804W        W70345   4.352   8.430  14.921
 3805W        W70346  25.390   4.565   2.703
 3806W        W70347  40.998   1.434   1.773
 3807W        W70348  28.168  26.538   2.593
 3808W        W70349  34.438  39.860  10.793
 3809W        W70350  28.809   5.306   4.131
 3810W        W70351  31.394  34.766  10.011
 3811W        W70352  43.908  36.495  11.837
 3812W        W70353   9.772  33.871   1.313
 3813W        W70354  24.663   0.727  13.573
 3814W        W70355   5.917  36.972   3.211
 3815W        W70356  14.581   3.299   3.866
 3816W        W70357  38.317  31.850   4.319
 3817W        W70358   5.263  19.235   3.538
 3818W        W70359  21.475  35.131   2.168
 3819W        W70360   5.411  27.754   5.432
 3820W        W70361  25.953  12.420  13.566
 3821W        W70362  23.766  27.634  14.418
 3822W        W70363  41.877  14.410   1.332
 3823W        W70364  32.568  33.089   2.200
 3824W        W70365  41.218  41.870   0.008
 3825W        W70366  41.489  32.641   2.324
 3826W        W70367  20.792  15.660  14.437
 3827W        W70368   5.966  18.125   0.391
 3828W        W70369  15.881  25.421   3.564
 3829W        W70370  39.341   2.867   2.380
 3830W        W70371  13.066  18.189   2.186
 3831W        W70372  25.598  24.048  13.456
 3832W        W70373  34.070  28.678  11.409
 3833W        W70374  12.756   0.290  14.991
 3834W        W70375   4.157   7.063   2.814
 3835W        W70376  40.773  37.964  12.972
 3836W        W70377   8.296  23.085  14.298
 3837W        W70378  23.268  42.020  10.713
 3838W        W70379  21.185  43.549   1.211
 3839W        W70380  36.098  40.712   1.340
 3840W        W70381   4.128  34.353  12.961
 3841W        W70382  16.237  15.234  14.358
 3842W        W70383  41.143  34.156  10.740
 3843W        W70384  13.343  12.371   1.906
 3844W        W70385  16.702   1.205   4.365
 3845W        W70386   7.191  18.297   2.261
 3846W        W70387  22.509   9.089  12.130
 3847W        W70388  43.043  22.290   0.738
 3848W        W70389  29.122  27.659  13.844
 3849W        W70390   8.145  43.090  14.402
 3850W        W70391   2.555  27.140   2.356
 3851W        W70392  21.801   7.865   1.276
 3852W        W70393  12.320   8.670  10.682
 3853W        W70394  31.146  29.892  14.863
 3854W        W70395  13.021  42.552   3.061
 3855W        W70396  35.130  13.337   0.321
 3856W        W70397  39.777  20.683  11.575
 3857W        W70398  38.908   2.684  11.655
 3858W        W70399  38.544  29.953   4.729
 3859W        W70400   8.515   3.893   4.180
 3860W        W70401  32.545   4.097   2.716
 3861W        W70402  17.663  20.070  13.397
 3862W        W70403  27.983   6.176   4.610
 3863W        W70404  11.374  43.975   3.748
 3864W        W70405   4.445  39.951   3.544
 3865W        W70406   4.790  19.238   3.290
 3866W        W70407  10.657   1.250  13.729
 3867W        W70408   6.133   5.115  13.365
 3868W        W70409   7.176  29.035  10.725
 3869W        W70410  29.538  20.940   1.847
 3870W        W70411  35.553  28.901   1.364
 3871W        W70412  24.644  43.657  11.775
 3872W        W70413  44.816  12.617  14.297
 3873W        W70414  21.199  27.426   4.163
 3874W        W70415  15.221  25.749   2.836
 3875W        W70416  13.077   8.992  14.393
 3876W        W70417   9.268  35.231  14.631
 3877W        W70418  14.745  30.976  11.551
 3878W        W70419  33.404  24.106   1.813
 3879W        W70420  17.276   3.759   0.646
 3880W        W70421  30.196  22.452  13.675
 3881W        W70422  19.549  21.299  10.215
 3882W        W70423  30.050  21.679   0.660
 3883W        W70424   0.353  11.795  12.995
 3884W        W70425  37.796  22.002   0.688
 3885W        W70426   4.893  33.232  13.975
 3886W        W70427   6.411   2.217  11.174
 3887W        W70428  18.055  10.085  10.653
 3888W        W70429   0.524  43.881  11.194
 3889W        W70430  39.095  36.728  11.013
 3890W        W70431  35.326  36.408   1.765
 3891W        W70432   5.336  24.525   0.274
 3892W        W70433  32.804  30.859   0.842
 3893W        W70434   5.221  22.648  10.208
 3894W        W70435   9.736  44.898  10.343
 3895W        W70436  14.623  21.297   1.879
 3896W        W70437  36.239   5.866  11.385
 3897W        W70438  44.494  24.613  10.656
 3898W        W70439  37.554   5.280   1.133
 3899W        W70440   0.291   2.821   4.350
 3900W        W70441  21.893  15.797   4.992
 3901W        W70442  35.338  22.829  13.823
 3902W        W70443   3.898   2.058   2.726
 3903W        W70444  19.381  34.709   3.604
 3904W        W70445  34.536  17.382   1.873
 3905W        W70446   3.040  29.914   3.072
 3906W        W70447  20.651  33.404  12.976
 3907W        W70448   5.328   4.666  11.158
 3908W        W70449  30.670   7.384  10.970
 3909W        W70450  30.423  23.099   2.127
 3910W        W70451  22.668  16.234  14.617
 3911W        W70452  14.327  22.883  13.914
 3912W        W70453  23.133  12.301  13.074
 3913W        W70454  26.464  38.149  10.802
 3914W        W70455   9.356  14.811  11.202
 3915W        W70456  21.824  42.983   4.431
 3916W        W70457  40.608   2.707  11.207
 3917W        W70458   6.332  27.478  14.594
 3918W        W70459  43.235  32.896  11.508
 3919W        W70460  26.595  18.046  12.614
 3920W        W70461  20.937   0.246  13.463
 3921W        W70462   6.941   6.567   0.387
 3922W        W70463   3.416   7.244  11.544
 3923W        W70464  13.304  12.217   4.664
 3924W        W70465  12.218  40.769   3.050
 3925W        W70466  10.334  24.763   1.419
 3926W        W70467  39.751  27.785  12.906
 3927W        W70468   7.175  20.013   3.322
 3928W        W70469  31.993  22.972   3.326
 3929W        W70470  19.997  15.294   0.833
 3930W        W70471   6.749  17.138  14.919
 3931W        W70472  11.224  26.588  13.557
 3932W        W70473  41.983  28.568   0.873
 3933W        W70474  15.109  25.600  10.672
 3934W        W70475  26.556   1.670   4.076
 3935W        W70476  42.842  12.872  13.826
 3936W        W70477  36.838  29.552  11.173
 3937W        W70478  26.255  36.251  13.544
 3938W        W70479   0.319  20.695   4.389
 3939W        W70480  12.973  33.410  12.540
 3940W        W70481  12.332  15.844  11.037
 3941W        W70482  12.758  20.959   1.003
 3942W        W70483  25.482   5.991  11.155
 3943W        W70484  31.468  13.707  12.335
 3944W        W70485  42.992   5.728   1.768
 3945W        W70486  20.455  37.529   1.677
 3946W        W70487  12.532  20.252  14.881
 3947W        W70488  36.393  23.996  13.925
 3948W        W70489  41.912  25.765  12.818
 3949W        W70490  29.605  24.780   3.105
 3950W        W70491   9.448  36.538  11.505
 3951W        W70492  12.118  38.454  10.584
 3952W        W70493  30.580  18.975   2.417
 3953W        W70494   8.677  22.508   3.624
 3954W        W70495  27.899   7.280   0.719
 3955W        W70496  44.265  14.621  11.474
 3956W        W70497  40.187  10.492   0.601
 3957W        W70498  14.363  42.691   5.211
 3958W        W70499  41.900  15.870  11.362
 3959W        W70500  20.690  44.547  13.932
 3960W        W70501  25.648  44.266   2.962
 3961W        W70502  34.481  22.239  11.247
 3962W        W70503  42.873  23.023   2.744
 3963W        W70504  41.940   0.325  14.800
 3964W        W70505  28.569  13.854  14.232
 3965W        W70506   7.206  37.621   9.853
 3966W        W70507  27.112   2.972   2.421
 3967W        W70508  26.154  43.435  10.674
 3968W        W70509  44.308  42.370   3.310
 3969W        W70510  40.325   6.888   0.298
 3970W        W70511  24.736  26.053   0.400
 3971W        W70512  26.636  33.662  10.606
 3972W        W70513  41.442   1.201   1.941
 3973W        W70514  32.918  19.052   2.096
 3974W        W70515  43.838   6.207   2.728
 3975W        W70516  28.730  44.039  14.182
 3976W        W70517  27.100  11.728   3.772
 3977W        W70518   5.781  10.786  11.025
 3978W        W70519  36.789   4.029   0.263
 3979W        W70520  37.962  20.614  11.180
 3980W        W70521  13.418   3.900   2.251
 3981W        W70522   1.817  18.793  14.412
 3982W        W70523   6.268   8.345   3.619
 3983W        W70524  37.950  31.454  11.155
 3984W        W70525  24.416  35.867  11.365
 3985W        W70526  23.605  44.894   1.604
 3986W        W70527  10.239   9.404  11.125
 3987W        W70528  16.485  23.725  13.141
 3988W        W70529  11.842  25.170  11.633
 3989W        W70530  44.466   2.999   2.977
 3990W        W70531  39.961  15.827  14.270
 3991W        W70532  23.484  38.032  10.769
 3992W        W70533  44.378   0.274   3.494
 3993W        W70534  11.710  25.731   0.679
 3994W        W70535  18.712  27.719   0.279
 3995W        W70536  24.133  36.235  12.063
 3996W        W70537  39.618  14.967  11.486
 3997W        W70538  36.968  43.929  14.990
 3998W        W70539  25.509  17.308  14.520
 3999W        W70540  24.494  25.695  13.029
 4000W        W70541  40.794  12.869   3.135
 4001W        W70542  24.097  43.978  13.592
 4002W        W70543  12.921  14.611  13.049
 4003W        W70544  18.529   7.250   3.181
 4004W        W70545   8.176  37.350  12.025
 4005W        W70546  18.293  30.676   5.655
 4006W        W70547  24.463  44.953  11.663
 4007W        W70548  25.599  17.679  11.721
 4008W        W70549  36.593  37.730  11.171
 4009W        W70550  21.737   0.429  13.860
 4010W        W70551  24.442   2.969  10.713
 4011W        W70552  16.770  29.673  12.391
 4012W        W70553  42.050  37.091   0.071
 4013W        W70554   0.237   5.834  11.409
 4014W        W70555  14.308  35.155   3.505
 4015W        W70556  36.045   5.441   1.897
 4016W        W70557   8.938   9.288  11.752
 4017W        W70558  43.387  34.386  13.448
 4018W        W70559   1.949   8.903   3.993
 4019W        W70560  13.265  41.083  12.118
 4020W        W70561  39.608  44.861  10.551
 4021W        W70562  38.048   9.505  13.990
 4022W        W70563  30.711  25.011   3.042
 4023W        W70564  44.944   3.264   4.032
 4024W        W70565  25.681   2.043   0.450
 4025W        W70566  27.181  33.141   4.091
 4026W        W70567  23.031  13.107   3.768
 4027W        W70568  26.505  34.941  11.203
 4028W        W70569   5.001  17.506  14.902
 4029W        W70570   5.911   9.646  11.081
 4030W        W70571  33.948  28.681   3.248
 4031W        W70572  24.496  33.552  14.778
 4032W        W70573  33.897  38.965   0.936
 4033W        W70574  29.463  23.425   3.685
 4034W        W70575  12.954   8.774  12.929
 4035W        W70576  22.832  24.073   0.473
 4036W        W70577  20.418  30.608  10.938
 4037W        W70578  10.921   2.717   3.902
 4038W        W70579   6.264  18.026   3.660
 4039W        W70580  35.398   1.044   1.835
 4040W        W70581  16.911  26.387  14.568
 4041W        W70582  15.486  19.077   0.831
 4042W        W70583  41.109  17.850  13.323
 4043W        W70584   6.864  42.173   2.298
 4044W        W70585  43.051  19.587  14.713
 4045W        W70586   6.916  29.986   3.680
 4046W        W70587   3.855  12.587  10.514
 4047W        W70588  19.430   9.773   0.738
 4048W        W70589   9.346  12.343   1.427
 4049W        W70590  43.234  41.326   2.963
 4050W        W70591  21.591   8.307   4.498
 4051W        W70592   7.354   7.089   3.373
 4052W        W70593  33.853  39.094  14.037
 4053W        W70594   0.942  18.030  13.497
 4054W        W70595  16.674  12.373   1.902
 4055W        W70596  13.079  13.399   1.845
 4056W        W70597  40.262  39.087  10.459
 4057W        W70598  14.679  42.059  13.009
 4058W        W70599  11.218  34.312  11.666
 4059W        W70600  38.353  17.911  10.627
 4060W        W70601  15.200  18.651   0.667
 4061W        W70602  34.341  16.335  11.911
 4062W        W70603   8.832  29.605  14.571
 4063W        W70604  36.834  21.243   1.400
 4064W        W70605   2.934  21.107  10.690
 4065W        W70606  28.680  23.118  12.373
 4066W        W70607  41.735  11.859  14.906
 4067W        W70608  44.691  25.569   1.864
 4068W        W70609  14.625   2.282  12.800
 4069W        W70610  34.478   0.226  10.428
 4070W        W70611  37.304  10.336  13.840
 4071W        W70612  38.962  12.250   3.273
 4072W        W70613  39.893  35.913   4.710
 4073W        W70614  35.421  26.455   1.282
 4074W        W70615  39.233  37.490  12.601
 4075W        W70616  11.719  24.500   4.331
 4076W        W70617   9.725  14.638   3.286
 4077W        W70618   8.702  21.988  13.031
 4078W        W70619   5.699  39.686   0.893
 4079W        W70620  35.003  19.660  12.933
 4080W        W70621   6.277   5.279   0.727
 4081W        W70622  40.649  38.151  14.942
 4082W        W70623  23.931  25.286  10.383
 4083W        W70624  36.563   7.200   2.157
 4084W        W70625  29.787  42.063  13.054
 4085W        W70626  14.110  32.262   1.250
 4086W        W70627  22.642  43.709   0.102
 4087W        W70628  38.541  26.988  14.457
 4088W        W70629   1.151   2.324   5.438
 4089W        W70630  39.434  39.939  13.946
 4090W        W70631  27.749   8.742  11.573
 4091W        W70632  16.930  44.050  12.141
 4092W        W70633  43.440  40.804  13.154
 4093W        W70634  38.056   4.693  13.107
 4094W        W70635  10.201  17.827   1.323
 4095W        W70636  29.225  31.634   2.825
 4096W        W70637  16.025  19.146  14.677
 4097W        W70638  35.039  13.091  13.510
 4098W        W70639  32.582  32.449   4.234
 4099W        W70640  13.690  41.869  11.972
 4100W        W70641  27.991  22.545  13.461
 4101W        W70642   1.054  27.490   4.145
 4102W        W70643   1.428  34.335   2.974
 4103W        W70644  25.551  14.484   3.278
 4104W        W70645   1.970  37.365  14.442
 4105W        W70646   5.372  28.702   0.969
 4106W        W70647  24.128  26.641   1.347
 4107W        W70648  10.177  23.303  11.030
 4108W        W70649   7.563  41.771  11.161
 4109W        W70650  39.728  36.528   2.827
 4110W        W70651  29.059   4.016  11.215
 4111W        W70652  35.211  17.251   4.041
 4112W        W70653  41.086  10.863   2.146
 4113W        W70654   6.911  34.556   2.657
 4114W        W70655   4.963  22.711   0.624
 4115W        W70656  40.552   4.264  13.512
 4116W        W70657   8.792  43.333   3.560
 4117W        W70658   2.707   0.393  10.636
 4118W        W70659  35.855  19.655   4.677
 4119W        W70660  34.612  37.047   3.140
 4120W        W70661  23.179   8.603  12.363
 4121W        W70662  36.774  16.158  11.791
 4122W        W70663  32.622  30.686  11.092
 4123W        W70664  24.748  25.049  14.022
 4124W        W70665  23.601   1.422  10.625
 4125W        W70666  31.060  11.609   9.771
 4126W        W70667   6.825   4.170  10.933
 4127W        W70668  30.548  42.076  12.747
 4128W        W70669  33.284  12.312  12.238
 4129W        W70670  44.496  17.788   2.429
 4130W        W70671  22.813  27.723  13.387
 4131W        W70672  26.842  12.699   0.922
 4132W        W70673  30.885  42.259  12.393
 4133W        W70674  31.488  10.868   4.189
 4134W        W70675  26.149  21.572   1.997
 4135W        W70676  11.871  32.488   4.546
 4136W        W70677  22.018  38.623   3.276
 4137W        W70678  14.867  43.958  12.951
 4138W        W70679  24.269  27.960  14.257
 4139W        W70680  43.386   9.672  11.414
 4140W        W70681  39.755  44.285  14.286
 4141W        W70682  35.240  22.510   5.040
 4142W        W70683  19.743   8.654   1.900
 4143W        W70684   2.354  23.409  14.852
 4144W        W70685   8.070  21.450  11.786
 4145W        W70686  15.587  17.163  12.024
 4146W        W70687   7.801  18.048  14.577
 4147W        W70688  18.018  15.731  12.336
 4148W        W70689  33.009   5.333  14.889
 4149W        W70690  16.760   6.952  12.513
 4150W        W70691  20.468  35.854  13.364
 4151W        W70692  26.379  37.535  12.461
 4152W        W70693  39.440  31.546   3.569
 4153W        W70694   2.461  10.243  10.121
 4154W        W70695  33.510  30.078   2.897
 4155W        W70696  44.606  23.651   3.661
 4156W        W70697  26.335  26.612   2.830
 4157W        W70698  18.972  27.129   3.840
 4158W        W70699  27.555  23.207  13.534
 4159W        W70700  31.436  16.551  11.466
 4160W        W70701  38.556  17.050  11.143
 4161W        W70702  25.676  23.948   3.296
 4162W        W70703  37.453  12.288  14.512
 4163W        W70704  27.663  21.400   3.149
 4164W        W70705  36.799  39.787   2.251
 4165W        W70706  23.354  18.539   4.134
 4166W        W70707  33.860   8.737   4.750
 4167W        W70708  19.285  14.840   4.488
 4168W        W70709  39.064  20.632   0.816
 4169W        W70710   5.382  35.922   4.128
 4170W        W70711  29.857  35.439   4.389
 4171W        W70712   2.564   3.899  13.283
 4172W        W70713  21.668  25.018  13.081
 4173W        W70714  18.529  37.981  13.328
 4174W        W70715  10.278  32.579   4.576
 4175W        W70716  36.463  42.447  12.968
 4176W        W70717  37.473  21.007  11.059
 4177W        W70718  25.473  31.898  11.114
 4178W        W70719   7.346   2.829   2.346
 4179W        W70720  25.246   2.385  10.654
 4180W        W70721  37.323   4.309  14.298
 4181W        W70722   3.014   6.093  14.945
 4182W        W70723  30.654  33.002   0.494
 4183W        W70724  12.169  35.071   4.117
 4184W        W70725   4.406   4.204  11.534
 4185W        W70726  38.319  29.867   2.841
 4186W        W70727  23.940  39.772   3.479
 4187W        W70728  33.121  36.542  12.012
 4188W        W70729   3.508  28.702   0.779
 4189W        W70730  11.706  43.072   2.774
 4190W        W70731  17.366  25.585   4.349
 4191W        W70732  36.972  15.753  10.498
 4192W        W70733  38.006   4.160   2.675
 4193W        W70734  24.041  36.869   0.498
 4194W        W70735   0.354  16.200  13.893
 4195W        W70736  44.792  30.957  11.500
 4196W        W70737  21.848  24.282   4.951
 4197W        W70738   0.256  43.382   3.763
 4198W        W70739   0.031  21.500  12.340
 4199W        W70740  22.710   4.257  14.835
 4200W        W70741  14.188  17.819   1.342
 4201W        W70742  19.327  25.107   1.621
 4202W        W70743  41.621  24.449   4.421
 4203W        W70744  34.271  21.565  10.763
 4204W        W70745  41.077  42.402  11.557
 4205W        W70746  19.979  39.404  13.087
 4206W        W70747   0.012   3.772   3.152
 4207W        W70748   3.294  27.526  12.072
 4208W        W70749   2.737  29.646   3.380
 4209W        W70750   7.015  23.084  12.035
 4210W        W70751   3.006  30.607  12.464
 4211W        W70752  26.550  26.697   2.364
 4212W        W70753   6.203  35.562  11.090
 4213W        W70754  42.057   4.820   0.715
 4214W        W70755  44.714  38.367   0.277
 4215W        W70756  28.019  10.665  13.249
 4216W        W70757  39.122   5.429   2.303
 4217W        W70758  24.913  42.031   2.853
 4218W        W70759  41.749  36.935   0.470
 4219W        W70760  17.467   3.813   2.685
 4220W        W70761  11.688  18.246  14.711
 4221W        W70762  16.545  22.029  11.200
 4222W        W70763  21.689   3.370  11.314
 4223W        W70764  42.410  22.608   3.379
 4224W        W70765  36.981  44.284   2.921
 4225W        W70766   2.866  27.474   4.198
 4226W        W70767  25.985   8.755   1.214
 4227W        W70768  30.988   5.850   3.389
 4228W        W70769  44.463   8.365  14.814
 4229W        W70770  10.843   5.430  12.056
 4230W        W70771  36.824  36.713  12.579
 4231W        W70772  16.195  30.553   2.651
 4232W        W70773   4.157  16.762   2.597
 4233W        W70774  32.981  33.104  12.070
 4234W        W70775  16.119  22.711   3.344
 4235W        W70776  34.891  37.024  10.702
 4236W        W70777  36.131  34.499   4.333
 4237W        W70778   0.869  27.192  12.707
 4238W        W70779   6.967  42.047   1.750
 4239W        W70780  42.545  22.614   4.493
 4240W        W70781  10.940  27.281   0.285
 4241W        W70782  30.617  15.651  14.266
 4242W        W70783   8.892  23.537  11.478
 4243W        W70784  37.598  14.911  11.177
 4244W        W70785  27.709   1.281   4.139
 4245W        W70786  38.372   0.510   2.768
 4246W        W70787  13.717  16.476   3.234
 4247W        W70788  22.536   2.218   1.467
 4248W        W70789  11.124  24.078  14.292
 4249W        W70790   9.249  33.849   0.413
 4250W        W70791   6.702   2.861  11.994
 4251W        W70792  44.425  40.020   0.571
 4252W        W70793  33.878  43.930   0.228
 4253W        W70794   8.263  34.592   2.408
 4254W        W70795  37.957  23.567  10.793
 4255W        W70796  39.517   6.831  12.016
 4256W        W70797  28.403  44.801  14.010
 4257W        W70798  14.654  42.520   0.380
 4258W        W70799  21.601  22.010  13.495
 4259W        W70800  29.564   6.866   3.687
 4260W        W70801  11.447  23.636   4.089
 4261W        W70802  15.171   6.354  13.245
 4262W        W70803  22.082  19.359  13.358
 4263W        W70804   2.014  39.469   4.685
 4264W        W70805  14.370  31.363   1.749
 4265W        W70806  26.602  30.740  14.017
 4266W        W70807  20.057   7.893  13.186
 4267W        W70808  23.038  17.753  13.894
 4268W        W70809  36.137  34.027  11.265
 4269W        W70810   0.988  35.251   0.252
 4270W        W70811  41.460  13.788   1.688
 4271W        W70812  31.789  33.904   0.179
 4272W        W70813   5.926  14.849   4.479
 4273W        W70814  13.674  43.478  11.192
 4274W        W70815  33.349  11.602  13.550
 4275W        W70816  17.065   2.457   1.787
 4276W        W70817  37.570  24.873   5.122
 4277W        W70818   5.903  29.630  12.874
 4278W        W70819  40.326   2.420   4.501
 4279W        W70820  39.996  42.388  13.459
 4280W        W70821  33.651   7.361   3.200
 4281W        W70822  32.528  43.222   0.028
 4282W        W70823  11.632   3.969  12.118
 4283W        W70824  31.340  16.728  11.933
 4284W        W70825  35.526  31.742   1.442
 4285W        W70826  13.134  19.691  13.531
 4286W        W70827   7.794   5.781   0.535
 4287W        W70828  27.606  13.833  10.480
 4288W        W70829  32.627  40.937   4.552
 4289W        W70830  25.239   8.489  12.581
 4290W        W70831  25.864  19.242  11.566
 4291W        W70832  33.892  28.574   4.163
 4292W        W70833  27.616  35.875  12.686
 4293W        W70834  14.617  13.131  12.674
 4294W        W70835  19.621  40.228  12.592
 4295W        W70836  36.326  17.235   3.716
 4296W        W70837  22.677   4.228   1.298
 4297W        W70838   6.213  41.439  12.422
 4298W        W70839  38.080  41.171  12.030
 4299W        W70840  40.088  16.158  11.053
 4300W        W70841  15.844  20.616  13.723
 4301W        W70842  10.458   5.937   2.587
 4302W        W70843  28.599  40.001  13.809
 4303W        W70844  37.305  38.564   0.895
 4304W        W70845   8.324  41.621  10.704
 4305W        W70846  42.800   3.458   4.185
 4306W        W70847  20.021  35.045   4.162
 4307W        W70848  34.631  30.768   0.413
 4308W        W70849   1.733   9.971  14.949
 4309W        W70850  25.505  43.341   2.874
 4310W        W70851  23.212  37.953   3.386
 4311W        W70852  31.573  27.503  10.666
 4312W        W70853   9.510   4.549  10.439
 4313W        W70854   8.057  34.338  10.326
 4314W        W70855  18.326  26.130   2.968
 4315W        W70856  41.706  37.462   3.809
 4316W        W70857  40.856  30.152   2.829
 4317W        W70858   8.738   7.747   0.866
 4318W        W70859  31.071  25.046  14.730
 4319W        W70860  32.391   0.409   0.766
 4320W        W70861  13.904   6.250  12.871
 4321W        W70862   0.604  27.902  12.010
 4322W        W70863  16.605  33.259  13.072
 4323W        W70864  20.509  22.942   2.354
 4324W        W70865  33.483  37.205   1.267
 4325W        W70866   2.946  40.319  12.870
 4326W        W70867  22.594  15.253   3.432
 4327W        W70868  11.190  30.072  11.854
 4328W        W70869  37.822   9.224   0.806
 4329W        W70870  40.395  16.813   5.012
 4330W        W70871  38.042  31.191   0.914
 4331W        W70872  25.463  28.585   3.181
 4332W        W70873  28.233  34.069   1.300
 4333W        W70874  42.913  37.121   1.731
 4334W        W70875  16.976  23.336   2.214
 4335W        W70876  28.857  26.340   0.298
 4336W        W70877  20.593  33.002   0.342
 4337W        W70878  10.136  35.857   2.905
 4338W        W70879  11.201  25.144   0.459
 4339W        W70880  13.728  29.455  11.595
 4340W        W70881  42.317  11.668   3.559
 4341W        W70882  16.612  35.332  12.839
 4342W        W70883  28.183  24.470   3.633
 4343W        W70884   5.740  28.914   3.128
 4344W        W70885  12.467  29.554  10.241
 4345W        W70886   4.439   8.739  10.981
 4346W        W70887  39.058  17.042   1.317
 4347W        W70888  30.993  24.306  12.514
 4348W        W70889  32.683  29.525   2.292
 4349W        W70890  39.907  14.945   2.357
 4350W        W70891   8.229  41.117  10.732
 4351W        W70892   0.563  33.152   2.234
 4352W        W70893   2.934   3.811   3.241
 4353W        W70894  36.596  34.923  11.103
 4354W        W70895   3.285  12.711  14.904
 4355W        W70896  12.082   6.827   3.218
 4356W        W70897  13.071  14.279  11.616
 4357W        W70898   4.864  22.267   3.677
 4358W        W70899  10.125  29.780   1.037
 4359W        W70900  34.050   9.142   4.397
 4360W        W70901  20.510   7.277  14.928
 4361W        W70902   0.581   7.727   4.523
 4362W        W70903  20.112  30.190  14.073
 4363W        W70904   7.874  21.642   2.860
 4364W        W70905  38.108  27.494  10.960
 4365W        W70906   4.770  25.001  14.423
 4366W        W70907  19.586   3.385   4.662
 4367W        W70908  18.464  29.660   0.355
 4368W        W70909   4.352   4.811  10.099
 4369W        W70910  38.215  20.763  10.763
 4370W        W70911   8.702  20.795   3.032
 4371W        W70912  17.676  14.953   5.419
 4372W        W70913   0.800   3.855   1.253
 4373W        W70914  43.371  31.176  13.821
 4374W        W70915  32.931   3.963  11.593
 4375W        W70916  10.967  42.970   0.408
 4376W        W70917  25.159   9.728   0.390
 4377W        W70918  35.557   2.568   1.379
 4378W        W70919  39.509  31.108  11.603
 4379W        W70920  17.956  38.652   1.678
 4380W        W70921  34.989   7.617   3.256
 4381W        W70922  36.685   5.295   4.108
 4382W        W70923  19.532  16.275  14.874
 4383W        W70924  23.808  35.761   4.205
 4384W        W70925   7.719  17.549   1.751
 4385W        W70926  39.007  33.158  14.521
 4386W        W70927  25.958  14.012   4.170
 4387W        W70928  40.637   3.745   0.927
 4388W        W70929  28.316  26.135  14.544
 4389W        W70930   1.727  44.213  14.378
 4390W        W70931  28.183  12.167   0.334
 4391W        W70932  34.639  26.660  13.896
 4392W        W70933  11.892  20.770   3.249
 4393W        W70934   3.280   7.892  13.936
 4394W        W70935   8.854  24.194   1.865
 4395W        W70936   2.909   2.785   3.161
 4396W        W70937  42.003   3.679  14.387
 4397W        W70938  18.529  16.732   2.951
 4398W        W70939  24.820   1.864   2.179
 4399W        W70940   6.489  34.470  13.318
 4400W        W70941  33.173  14.677   0.502
 4401W        W70942  32.392  33.292  12.511
 4402W        W70943  44.348   9.422  13.906
 4403W        W70944   8.974  13.139   3.508
 4404W        W70945   9.930   3.816   1.365
 4405W        W70946  32.191   1.888  15.000
 4406W        W70947   4.321  19.220  14.644
 4407W        W70948  30.698  43.844  14.491
 4408W        W70949   4.503   0.238  12.661
 4409W        W70950   6.626  42.340  12.398
 4410W        W70951  24.502  34.396  10.448
 4411W        W70952  44.693  28.395   2.717
 4412W        W70953   5.877   8.270   4.418
 4413W        W70954   0.919   1.217   4.522
 4414W        W70955   0.750  42.167   4.171
 4415W        W70956  35.386  40.587   2.867
 4416W        W70957  16.677  34.577  13.327
 4417W        W70958  10.082  34.186  11.632
 4418W        W70959  17.741  12.765   3.356
 4419W        W70960  26.422  20.948   3.040
 4420W        W70961  30.868  19.755   0.774
 4421W        W70962  35.119  37.356   2.424
 4422W        W70963  29.847  38.347   4.095
 4423W        W70964   4.675   0.173  14.028
 4424W        W70965  43.096  11.855  12.849
 4425W        W70966  38.286  21.746  11.640
 4426W        W70967  16.629  43.765  12.479
 4427W        W70968  22.010  33.687   2.463
 4428W        W70969   9.637  33.533  11.876
 4429W        W70970   4.541  26.248  11.156
 4430W        W70971  10.862  32.873   2.380
 4431W        W70972  28.584  39.751  12.961
 4432W        W70973  18.340  24.319   1.144
 4433W        W70974  43.907  41.516  12.142
 4434W        W70975  20.831  36.984   2.675
 4435W        W70976  11.238  38.403   3.707
 4436W        W70977   0.918  40.398  12.475
 4437W        W70978  11.053  23.241   3.396
 4438W        W70979  44.687  15.695  14.332
 4439W        W70980   1.278  44.969  12.457
 4440W        W70981  16.568  34.037  14.684
 4441W        W70982  36.656  29.955   1.376
 4442W        W70983  35.438  25.133   1.015
 4443W        W70984  44.137  34.155  11.137
 4444W        W70985  37.205   5.343  12.660
 4445W        W70986  40.935  25.377  11.473
 4446W        W70987   5.457  21.013   3.683
 4447W        W70988  22.223  13.339  14.957
 4448W        W70989   6.388   0.896   4.223
 4449W        W70990  23.537   7.591  10.631
 4450W        W70991   1.274  29.975   5.061
 4451W        W70992  31.957  19.198   4.436
 4452W        W70993  19.611  18.085  13.474
 4453W        W70994  19.042  36.115   1.738
 4454W        W70995  19.451   2.715   1.886
 4455W        W70996  18.031  10.186   0.917
 4456W        W70997   7.005  27.135  14.016
 4457W        W70998  25.626  10.695   4.153
 4458W        W70999   2.392   7.283   3.590
 4459W        W71000   4.004   6.764  14.172
 4460W        W71001  14.681  18.752   0.706
 4461W        W71002  29.432  40.864  10.650
 4462W        W71003   8.297  26.421   1.365
 4463W        W71004   4.895  10.740  10.856
 4464W        W71005  15.327  14.023  14.344
 4465W        W71006  33.033   8.145  13.350
 4466W        W71007  27.837  27.513  14.802
 4467W        W71008  20.079   0.764  12.194
 4468W        W71009  25.013  18.010  13.904
 4469W        W71010  12.825   5.770  13.458
 4470W        W71011   2.026   9.928   4.409
 4471W        W71012   8.573  14.667  14.264
 4472W        W71013   5.956   4.331  14.350
 4473W        W71014  37.275  16.279   3.806
 4474W        W71015  41.487   1.955   1.436
 4475W        W71016  32.914  32.647   4.641
 4476W        W71017   7.076  13.329  13.395
 4477W        W71018  26.418   3.382   4.630
 4478W        W71019  13.585   6.869  12.432
 4479W        W71020  28.555  31.616   0.938
 4480W        W71021  25.429  21.824  13.171
 4481W        W71022  14.485   5.334   3.240
 4482W        W71023  17.735  13.681  11.189
 4483W        W71024  22.018   5.463   1.377
 4484W        W71025   0.877  30.085   0.320
 4485W        W71026  28.801   1.170  12.615
 4486W        W71027   3.314  40.058  13.873
 4487W        W71028  12.306  18.777   0.093
 4488W        W71029  30.681  31.593  10.412
 4489W        W71030   1.193  19.285   1.678
 4490W        W71031  13.014  22.183   0.068
 4491W        W71032  13.985  41.298   2.855
 4492W        W71033  24.024  36.779  13.897
 4493W        W71034  42.915  39.080   0.719
 4494W        W71035  15.662  25.458   2.819
 4495W        W71036   4.511  13.014  14.430
 4496W        W71037  20.604  39.282   2.964
 4497W        W71038  43.741  31.937   3.140
 4498W        W71039   3.273  23.164   1.993
 4499W        W71040   9.526   7.447  11.455
 4500W        W71041  11.101   2.301   4.183
 4501W        W71042  33.245  29.328   5.082
 4502W        W71043  29.949  28.316   0.842
 4503W        W71044   4.220   8.935   4.333
 4504W        W71045  31.615   3.399  12.461
 4505W        W71046  20.845  36.084  14.882
 4506W        W71047  30.115  41.328  12.834
 4507W        W71048  29.999  23.975   2.285
 4508W        W71049  18.986  33.928  10.458
 4509W        W71050  16.532  16.715  12.057
 4510W        W71051   4.630  10.296  10.844
 4511W        W71052  39.907  18.065  11.137
 4512W        W71053  23.508  36.148   4.415
 4513W        W71054  21.067  26.633  12.777
 4514W        W71055   1.249  27.598   2.388
 4515W        W71056  15.108  17.923   4.150
 4516W        W71057   1.957  42.867  13.064
 4517W        W71058  35.307  35.086  10.609
 4518W        W71059  18.811  35.761  12.070
 4519W        W71060  12.006  22.414  10.307
 4520W        W71061  37.145  31.586  12.446
 4521W        W71062  24.463  19.865   1.500
 4522W        W71063   9.233  42.569  12.425
 4523W        W71064   7.887  28.122   4.137
 4524W        W71065   2.787   8.726  14.538
 4525W        W71066  32.291  39.019  13.976
 4526W        W71067   3.701   5.097  12.977
 4527W        W71068  15.428  32.713   4.884
 4528W        W71069   0.271  21.962  12.422
 4529W        W71070  25.201   8.268  12.115
 4530W        W71071  43.340   2.019   4.643
 4531W        W71072   7.339  22.122   4.415
 4532W        W71073  21.584  42.810  14.296
 4533W        W71074   6.944   3.296  14.411
 4534W        W71075   6.780  21.365   3.657
 4535W        W71076   7.432  33.175   2.106
 4536W        W71077  28.888  10.887  10.670
 4537W        W71078  20.736  10.813   3.282
 4538W        W71079  31.606  16.691  14.260
 4539W        W71080  40.930  30.693   3.224
 4540W        W71081   8.710  18.281   2.318
 4541W        W71082  44.317  27.448   2.976
 4542W        W71083  16.212  34.197   3.678
 4543W        W71084   8.370  10.234   1.190
 4544W        W71085   4.649  41.501  14.776
 4545W        W71086  24.125  37.020  11.191
 4546W        W71087  25.460  42.972  13.386
 4547W        W71088  43.402  15.717   9.637
 4548W        W71089  41.632  20.881   1.216
 4549W        W71090   5.191  38.854  13.486
 4550W        W71091   7.788  26.525  10.988
 4551W        W71092  30.035  37.168  10.623
 4552W        W71093  29.062  20.521  14.801
 4553W        W71094  25.556  40.876   2.887
 4554W        W71095  39.968  28.468   3.694
 4555W        W71096   2.481  38.400   4.153
 4556W        W71097  34.556  33.517   4.441
 4557W        W71098  15.111  27.742  13.336
 4558W        W71099  27.123  22.045  12.921
 4559W        W71100  10.876  33.899   0.414
 4560W        W71101  28.036  27.472   2.239
 4561W        W71102  38.311  25.639   4.048
 4562W        W71103  34.586   9.166  14.263
 4563W        W71104  13.080  32.181   2.435
 4564W        W71105  24.080  33.108  10.357
 4565W        W71106  35.581  30.205  11.185
 4566W        W71107  31.898  25.084  10.672
 4567W        W71108  26.408  20.743  12.161
 4568W        W71109   4.078   5.237   3.344
 4569W        W71110   7.192  23.658   0.452
 4570W        W71111  43.973  16.769  12.910
 4571W        W71112  38.590   6.378  13.311
 4572W        W71113  18.589  10.497   5.000
 4573W        W71114  13.709   2.478  14.046
 4574W        W71115   6.757  42.153   2.816
 4575W        W71116  26.465  40.050  12.924
 4576W        W71117  29.194  32.504  13.510
 4577W        W71118  13.122  20.242   1.356
 4578W        W71119  32.316   6.303   5.053
 4579W        W71120  43.208  12.154  14.824
 4580W        W71121  38.436  20.943  11.209
 4581W        W71122  41.263  18.795  12.609
 4582W        W71123  28.115  20.780   4.249
 4583W        W71124  25.366  22.180   3.400
 4584W        W71125   2.392  42.869  12.782
 4585W        W71126  30.211  16.773  10.418
 4586W        W71127  15.707  23.092   1.654
 4587W        W71128   4.640   4.772  13.030
 4588W        W71129  34.521  10.779   2.614
 4589W        W71130  20.818  22.596  12.373
 4590W        W71131  12.272  36.448  13.468
 4591W        W71132  15.718  44.434   4.683
 4592W        W71133   0.754  42.451   3.726
 4593W        W71134  12.208  37.272  13.896
 4594W        W71135   6.139   4.130  11.054
 4595W        W71136  16.771  37.597   4.493
 4596W        W71137   9.967   0.464  13.431
 4597W        W71138  44.041  42.657  14.848
 4598W        W71139   0.955  21.779   1.966
 4599W        W71140  14.100  19.131  10.683
 4600W        W71141  16.908  37.356  14.966
 4601W        W71142   2.944   5.326  10.503
 4602W        W71143  26.706  18.044  12.095
 4603W        W71144  27.216   2.223   4.697
 4604W        W71145  36.829   4.234  13.493
 4605W        W71146  24.723  42.292  12.003
 4606W        W71147  27.873   6.869   0.280
 4607W        W71148  26.058  43.104  12.055
 4608W        W71149  37.198  19.689  12.576
 4609W        W71150   6.124  33.836  11.556
 4610W        W71151  11.174  15.528   2.159
 4611W        W71152  16.732  33.096   2.634
 4612W        W71153   1.607   1.830   9.823
 4613W        W71154  42.357   3.883  14.702
 4614W        W71155  21.988  40.503  11.944
 4615W        W71156  20.533   2.700  13.038
 4616W        W71157  42.275   6.331   0.056
 4617W        W71158   6.058  34.144  11.076
 4618W        W71159  14.820   8.107  13.034
 4619W        W71160  10.725  23.963  12.928
 4620W        W71161  40.782  37.528  14.287
 4621W        W71162  16.822   2.827  11.682
 4622W        W71163  12.324   5.763  11.610
 4623W        W71164   8.727  27.555  12.368
 4624W        W71165  40.548  35.984   1.755
 4625W        W71166  41.969  19.676  10.770
 4626W        W71167  18.557  41.795   2.297
 4627W        W71168   5.487  44.808   2.250
 4628W        W71169   7.904  38.006  12.713
 4629W        W71170   8.852  23.017   2.609
 4630W        W71171  37.791  41.375   2.239
 4631W        W71172   8.807  12.942   2.945
 4632W        W71173  35.760  15.247   0.365
 4633W        W71174  40.301   2.245  10.456
 4634W        W71175  39.564  14.553   2.350
 4635W        W71176  30.236  12.789   1.273
 4636W        W71177  14.366  32.155   0.802
 4637W        W71178  14.531   1.780  12.950
 4638W        W71179  20.911   3.224  14.010
 4639W        W71180  32.381  35.548  13.138
 4640W        W71181  40.279  20.315   4.497
 4641W        W71182  11.201   0.223  11.615
 4642W        W71183  33.999  20.097  11.894
 4643W        W71184  34.804   9.982   3.648
 4644W        W71185   0.435  25.557   3.884
 4645W        W71186  35.152  12.275  14.661
 4646W        W71187   7.361   7.685   4.415
 4647W        W71188  40.214  44.010  14.857
 4648W        W71189  20.762  11.252  14.727
 4649W        W71190  35.426  34.188   4.665
 4650W        W71191  12.282  30.331   1.796
 4651W        W71192  13.667   5.796   4.832
 4652W        W71193   6.963  29.576  12.888
 4653W        W71194  35.470  28.962  13.616
 4654W        W71195  40.773   2.303  13.534
 4655W        W71196   2.557  30.344   4.544
 4656W        W71197  36.167   2.968   2.510
 4657W        W71198  20.832  12.739  12.989
 4658W        W71199   1.609  20.448   4.167
 4659W        W71200  25.608  22.903  10.601
 4660W        W71201   6.424  12.831  10.684
 4661W        W71202  18.606  20.688   4.173
 4662W        W71203   0.911  19.327   3.693
 4663W        W71204  27.148  11.647  13.704
 4664W        W71205  27.643  43.038   3.216
 4665W        W71206  26.424  30.108  12.170
 4666W        W71207  18.635  12.433  14.915
 4667W        W71208  28.570  27.021  10.602
 4668W        W71209  22.260  22.810   2.354
 4669W        W71210  11.598  38.297  14.791
 4670W        W71211   5.895  17.503   2.406
 4671W        W71212  32.663  12.120   3.555
 4672W        W71213  28.604  38.284   3.046
 4673W        W71214  18.392  22.250   2.407
 4674W        W71215  42.919  13.648   1.949
 4675W        W71216   5.816   4.393   1.477
 4676W        W71217  11.465  23.307   0.880
 4677W        W71218   4.123  43.340   2.481
 4678W        W71219  36.554  44.649   2.856
 4679W        W71220  28.143  10.610  12.441
 4680W        W71221  39.740  38.826   1.688
 4681W        W71222   9.631   9.232   3.514
 4682W        W71223   5.168  42.346   0.871
 4683W        W71224   9.636  38.317   1.842
 4684W        W71225  26.974  37.910   2.330
 4685W        W71226  35.977   3.846   0.145
 4686W        W71227  42.705  44.462   5.275
 4687W        W71228  39.410  22.146  10.430
 4688W        W71229  23.082  15.617  12.203
 4689W        W71230  43.362  13.334   0.224
 4690W        W71231  17.314  35.605   3.265
 4691W        W71232  11.456  36.678   2.355
 4692W        W71233  11.881  10.606  10.482
 4693W        W71234   3.265  36.080  13.391
 4694W        W71235  11.281   2.881  12.347
 4695W        W71236   6.497  19.224  14.498
 4696W        W71237  29.366  44.780   1.322
 4697W        W71238  30.590   5.943   1.891
 4698W        W71239   8.715  33.909  14.943
 4699W        W71240  13.296  22.532   2.877
 4700W        W71241  44.407  31.836  11.614
 4701W        W71242  12.160  37.430   4.954
 4702W        W71243   5.198  33.560   2.214
 4703W        W71244  14.644  31.954   0.393
 4704W        W71245  40.350  11.065  13.470
 4705W        W71246  13.629   8.225  12.437
 4706W        W71247  24.133  27.599  12.117
 4707W        W71248  39.041  21.646  12.916
 4708W        W71249  36.554  13.413   2.815
 4709W        W71250  27.733  12.326   2.671
 4710W        W71251   4.388  13.051   3.429
 4711W        W71252  28.189  25.949  10.255
 4712W        W71253  24.566  38.617  13.852
 4713W        W71254   3.434  20.751   1.325
 4714W        W71255  19.691   6.968   2.331
 4715W        W71256  42.231  43.333  12.499
 4716W        W71257  25.304   5.833   4.091
 4717W        W71258  32.706  44.435   3.885
 4718W        W71259   7.638  44.196   5.023
 4719W        W71260  28.957  14.689  14.285
 4720W        W71261   8.354  19.578  13.924
 4721W        W71262   3.235  32.472   3.533
 4722W        W71263  14.637  44.105   1.325
 4723W        W71264  30.262  18.214   2.735
 4724W        W71265  13.285  38.321   4.990
 4725W        W71266  17.077  38.229  10.107
 4726W        W71267  10.139  27.994  14.487
 4727W        W71268  22.250  17.593   3.698
 4728W        W71269  37.414  32.185   1.240
 4729W        W71270   9.639  18.751  10.560
 4730W        W71271  40.008  26.531  14.139
 4731W        W71272  19.334  10.073  13.447
 4732W        W71273  21.649  15.530   2.269
 4733W        W71274  34.864  13.864   4.817
 4734W        W71275  34.535  42.577  10.777
 4735W        W71276  18.845  23.671   4.113
 4736W        W71277   6.251  35.625   1.079
 4737W        W71278  36.127  31.520  10.595
 4738W        W71279  27.067  27.445   1.985
 4739W        W71280  41.109  30.910  11.840
 4740W        W71281  32.897  42.800   0.351
 4741W        W71282  19.620  30.027  11.752
 4742W        W71283  38.102  24.174  11.641
 4743W        W71284   6.383  12.171  11.133
 4744W        W71285  12.390   9.416   2.211
 4745W        W71286  10.302  11.397   2.514
 4746W        W71287  31.045  35.090   2.698
 4747W        W71288  25.524   1.277  10.708
 4748W        W71289  38.699  24.781   2.852
 4749W        W71290  18.006  19.825  11.165
 4750W        W71291   3.431   8.989   5.000
 4751W        W71292  31.167  16.128   0.420
 4752W        W71293  23.507  37.952  13.978
 4753W        W71294  15.708  39.470   1.489
 4754W        W71295  19.301  18.178   4.435
 4755W        W71296  37.256  41.862   4.664
 4756W        W71297   4.247  12.765   1.363
 4757W        W71298  26.584  12.903  14.035
 4758W        W71299  12.626   4.508  12.534
 4759W        W71300   1.861  25.250  10.727
 4760W        W71301  31.892  10.716   4.789
 4761W        W71302   7.882  20.510  11.097
 4762W        W71303   8.417  35.648  13.773
 4763W        W71304  20.072   1.771  10.728
 4764W        W71305  30.444  36.067  14.952
 4765W        W71306  44.305  38.401  14.965
 4766W        W71307   2.162  20.085   0.349
 4767W        W71308  17.272  36.368  11.558
 4768W        W71309   7.807  32.402   2.227
 4769W        W71310  14.036  22.597  13.617
 4770W        W71311  19.086  30.508  14.307
 4771W        W71312  19.703  23.441   3.400
 4772W        W71313  16.633  15.087  11.496
 4773W        W71314   2.406  33.464   9.829
 4774W        W71315  23.969  14.350   4.764
 4775W        W71316   0.499  24.430   3.170
 4776W        W71317  36.636   3.857  13.823
 4777W        W71318  41.101  43.742   1.465
 4778W        W71319  23.486  21.164  14.010
 4779W        W71320  23.542   4.719  12.923
 4780W        W71321  44.415  34.951  10.704
 4781W        W71322  20.588  13.315   4.115
 4782W        W71323   7.748  19.590  14.757
 4783W        W71324  38.981  19.543  12.810
 4784W        W71325  35.002  14.759   0.274
 4785W        W71326  27.933  42.952   0.388
 4786W        W71327  40.940   3.847  14.451
 4787W        W71328   2.770   7.665   3.298
 4788W        W71329  26.119  27.990   4.286
 4789W        W71330  35.066   8.096  11.930
 4790W        W71331  34.916  40.334   3.619
 4791W        W71332  16.087  39.447   2.359
 4792W        W71333  18.504  40.135  11.581
 4793W        W71334   8.786  12.402   1.631
 4794W        W71335  30.737  40.222  12.518
 4795W        W71336   4.933  30.968  10.218
 4796W        W71337  41.955  28.051  14.261
 4797W        W71338   2.786  38.423   4.936
 4798W        W71339  10.352  11.715  12.259
 4799W        W71340  37.532  39.792   2.900
 4800W        W71341  11.541  33.984  14.855
 4801W        W71342  15.412   2.445   0.823
 4802W        W71343  15.334  36.412  14.384
 4803W        W71344  29.498  32.693   3.634
 4804W        W71345  24.210  32.532   3.194
 4805W        W71346   8.023  17.125   5.090
 4806W        W71347   6.726   5.281   3.397
 4807W        W71348  21.998  25.697   0.411
 4808W        W71349  31.943  26.080  13.101
 4809W        W71350   4.016  22.082   2.485
 4810W        W71351  43.472  17.210  14.854
 4811W        W71352  44.500  19.784  14.270
 4812W        W71353  25.200  36.260  12.332
 4813W        W71354  19.053  35.153   4.019
 4814W        W71355  15.858  27.518   1.316
 4815W        W71356  43.895   1.231   2.196
 4816W        W71357   5.972  36.040   3.466
 4817W        W71358  29.764   3.091  10.359
 4818W        W71359  20.088  41.622  10.738
 4819W        W71360  32.556   0.016  14.380
 4820W        W71361  39.808  20.797  13.551
 4821W        W71362   1.918  33.069   2.702
 4822W        W71363  27.267  29.476  11.762
 4823W        W71364   2.991  17.638   1.290
 4824W        W71365  41.810  29.463   0.903
 4825W        W71366  40.274  39.701   1.860
 4826W        W71367  37.773  40.451  13.309
 4827W        W71368  44.081  42.249  11.524
 4828W        W71369   7.319  33.487   0.190
 4829W        W71370   9.460  14.604  12.663
 4830W        W71371  14.869   6.635   0.125
 4831W        W71372   6.175   5.266  14.638
 4832W        W71373  12.593  10.225   3.392
 4833W        W71374  16.687  38.230   3.760
 4834W        W71375  33.832   0.038  13.101
 4835W        W71376  24.572  27.015   3.884
 4836W        W71377  42.490  36.949   0.966
 4837W        W71378  22.631  27.454   1.476
 4838W        W71379  10.378  32.358   2.501
 4839W        W71380  19.729  42.828  12.929
 4840W        W71381  15.394  30.043  14.255
 4841W        W71382   4.773  37.634  12.938
 4842W        W71383  14.060   4.258  12.078
 4843W        W71384  32.647  20.253  11.980
 4844W        W71385   5.809  21.049   3.306
 4845W        W71386  14.127  41.076  14.808
 4846W        W71387   2.269   6.979  13.554
 4847W        W71388  16.090  23.973  11.089
 4848W        W71389  42.220  12.504   2.156
 4849W        W71390  42.023   1.428  14.025
 4850W        W71391  13.386  17.490   2.277
 4851W        W71392   0.236  11.259  11.425
 4852W        W71393  29.167   9.553   3.188
 4853W        W71394   9.595  32.989   4.626
 4854W        W71395  14.569  26.412  10.263
 4855W        W71396   1.780  35.800   4.189
 4856W        W71397   2.066  44.733   4.645
 4857W        W71398  41.759  28.104  11.583
 4858W        W71399  20.574  18.347  12.396
 4859W        W71400  41.983  39.005   2.675
 4860W        W71401  10.647  24.718   4.023
 4861W        W71402  16.443  32.673   1.479
 4862W        W71403  12.296  31.489  12.405
 4863W        W71404  26.632  40.502   1.959
 4864W        W71405   8.317  16.257   4.400
 4865W        W71406  44.037  10.352   4.420
 4866W        W71407   7.736  19.444  10.414
 4867W        W71408  22.745  29.190  11.134
 4868W        W71409  34.298   1.055   3.276
 4869W        W71410  18.733  13.813  11.189
 4870W        W71411  22.742   9.312   0.030
 4871W        W71412  28.533  31.216   0.483
 4872W        W71413  12.543   4.610   2.211
 4873W        W71414  30.612   5.811   0.987
 4874W        W71415   9.641  24.054  11.158
 4875W        W71416  31.817   1.434  14.434
 4876W        W71417   2.356  33.595   2.353
 4877W        W71418   6.522  20.972  14.480
 4878W        W71419  42.040  18.201  14.904
 4879W        W71420  11.933  28.104   4.127
 4880W        W71421  26.649  15.952   0.266
 4881W        W71422   5.355  30.539   0.870
 4882W        W71423  23.213  31.696   3.752
 4883W        W71424   7.399  39.821  14.028
 4884W        W71425  28.491   5.770  14.855
 4885W        W71426   1.858  28.849  11.698
 4886W        W71427  32.424  21.035   4.049
 4887W        W71428   7.503   3.186  11.943
 4888W        W71429   4.420  33.031  14.185
 4889W        W71430  32.468  29.470   3.874
 4890W        W71431  17.755  39.027  11.619
 4891W        W71432  13.381  39.706  12.636
 4892W        W71433  13.189  22.688  12.915
 4893W        W71434  10.177   9.653   4.060
 4894W        W71435   1.688  16.184   4.597
 4895W        W71436   7.968  43.491   1.698
 4896W        W71437  34.633  32.466  12.897
 4897W        W71438  25.522  32.952  13.571
 4898W        W71439  36.767  19.222   2.254
 4899W        W71440  26.207  26.247   0.303
 4900W        W71441  25.683  15.727  13.897
 4901W        W71442  37.117  41.954  11.452
 4902W        W71443  39.841  37.747  14.659
 4903W        W71444  20.989  44.296  14.995
 4904W        W71445  36.169  20.550   1.453
 4905W        W71446  37.110  40.495  14.463
 4906W        W71447  37.859  25.529  12.947
 4907W        W71448  34.004  38.943   1.956
 4908W        W71449  18.652  37.796   3.199
 4909W        W71450   2.715  29.014  10.353
 4910W        W71451  19.994  42.473   4.877
 4911W        W71452  22.036  44.665   4.155
 4912W        W71453  44.394  21.461   0.798
 4913W        W71454   3.882  14.674   3.255
 4914W        W71455   9.744   9.564  11.171
 4915W        W71456  22.628  16.699  14.347
 4916W        W71457  15.177   7.329  13.757
 4917W        W71458   4.967  30.958   2.846
 4918W        W71459  23.161  27.253   4.586
 4919W        W71460  30.472  38.530   1.908
 4920W        W71461  32.787   6.984  14.872
 4921W        W71462  37.617  13.667   3.289
 4922W        W71463  13.683  19.794   3.287
 4923W        W71464  24.247  27.460   3.688
 4924W        W71465  12.572   7.451   0.090
 4925W        W71466  43.499  31.987   5.057
 4926W        W71467  30.728  39.443   1.511
 4927W        W71468  25.072  21.139  11.167
 4928W        W71469   6.724  30.034   0.716
 4929W        W71470   9.438   7.436   0.146
 4930W        W71471  10.203  15.216  10.692
 4931W        W71472  13.449  15.865  11.976
 4932W        W71473  40.425   6.410   0.033
 4933W        W71474   3.369   2.873  13.946
 4934W        W71475  14.314   2.813  10.725
 4935W        W71476  25.340  28.175  13.647
 4936W        W71477  30.400  38.632  13.026
 4937W        W71478  43.946   7.027   4.680
 4938W        W71479   1.852  12.089  13.866
 4939W        W71480  11.827  34.353  13.933
 4940W        W71481  28.215  31.933  11.876
 4941W        W71482   1.501  23.564  11.910
 4942W        W71483  36.949  28.387  10.722
 4943W        W71484  38.598  40.874   2.345
 4944W        W71485  32.323  30.189   1.481
 4945W        W71486   5.776   3.930   2.784
 4946W        W71487   5.712  15.121  10.762
 4947W        W71488  20.120  34.519   3.362
 4948W        W71489  40.745  30.967   4.156
 4949W        W71490  44.711   9.325  11.135
 4950W        W71491  23.578   9.257  12.455
 4951W        W71492  23.700   2.293  10.555
 4952W        W71493  18.322   6.812  12.373
 4953W        W71494  28.507  16.631  11.440
 4954W        W71495  10.620   8.961  13.909
 4955W        W71496   8.675  35.353  13.427
 4956W        W71497  10.897  36.003   1.410
 4957W        W71498  24.057  30.601   4.403
 4958W        W71499  32.004   3.231  13.991
 4959W        W71500  31.082  34.490   0.203
 4960W        W71501  29.598   3.424   1.392
 4961W        W71502   2.945  33.068   2.817
 4962W        W71503  14.025   2.330  13.616
 4963W        W71504   6.822  30.496   3.732
 4964W        W71505  15.047  33.316   0.802
 4965W        W71506  18.719  23.975  14.794
 4966W        W71507  42.911  25.368  14.066
 4967W        W71508  39.907  34.455  13.672
 4968W        W71509  31.551   4.757  10.964
 4969W        W71510  31.185  34.187   4.987
 4970W        W71511  38.570  41.737   2.149
 4971W        W71512  33.433  42.235  14.746
 4972W        W71513  37.506  26.973  14.144
 4973W        W71514  31.498  31.525  13.663
 4974W        W71515  24.474  26.437  11.172
 4975W        W71516  41.125  25.162  10.402
 4976W        W71517   3.333  20.166   2.827
 4977W        W71518  10.774  24.988  14.337
 4978W        W71519   4.486  29.440  11.047
 4979W        W71520  35.929   4.484  11.632
 4980W        W71521  25.892  29.484   0.323
 4981W        W71522  38.497  36.847   3.932
 4982W        W71523  31.376  14.775   0.569
 4983W        W71524  34.600  43.951  11.847
 4984W        W71525  44.389  20.526   3.633
 4985W        W71526  33.563   2.823   1.385
 4986W        W71527  44.431  16.014   9.933
 4987W        W71528  25.908  13.575   3.611
 4988W        W71529   3.322  33.337  11.719
 4989W        W71530  21.770  42.260   4.089
 4990W        W71531  43.135   4.644  11.210
 4991W        W71532  24.259  12.182  14.016
 4992W        W71533   0.798  30.586   4.052
 4993W        W71534  32.083  42.448   1.997
 4994W        W71535  32.973  17.115   0.283
 4995W        W71536   9.107  38.012  13.336
 4996W        W71537  25.683  33.189  10.660
 4997W        W71538  34.678  19.272   0.216
 4998W        W71539  13.319  21.141  11.179
 4999W        W71540  21.737  19.240  10.987
 5000W        W71541  31.212  19.398  14.019
 5001W        W71542  36.289  19.118  10.616
 5002W        W71543  13.034  14.750  12.550
 5003W        W71544  12.150  34.866  14.012
 5004W        W71545  26.684  35.958   1.609
 5005W        W71546  19.328  18.016   1.257
 5006W        W71547  31.899  31.522  14.656
 5007W        W71548   1.054  16.748  13.827
 5008W        W71549  15.353   1.051   3.940
 5009W        W71550  24.262  31.928  14.811
 5010W        W71551  38.369   5.726  10.855
 5011W        W71552  15.172  40.467  14.821
 5012W        W71553   7.681  31.936   4.539
 5013W        W71554  32.455  41.880   1.687
 5014W        W71555  40.120  30.379   0.836
 5015W        W71556  28.145   2.042   0.460
 5016W        W71557  28.865   7.327   0.669
 5017W        W71558  10.201  40.303   0.719
 5018W        W71559  40.847  19.017  14.530
 5019W        W71560  37.370  37.043   2.624
 5020W        W71561  34.857  21.950   4.465
 5021W        W71562   7.526   9.254  10.828
 5022W        W71563  16.581  43.505  13.474
 5023W        W71564  28.096  11.839   4.956
 5024W        W71565  22.933  41.886   1.239
 5025W        W71566  32.425  23.161  12.528
 5026W        W71567  20.067   5.999   1.810
 5027W        W71568   4.626  42.994   0.970
 5028W        W71569  16.810   3.959   1.937
 5029W        W71570  16.983  35.896   5.003
 5030W        W71571   5.889   0.317  14.922
 5031W        W71572  24.637   8.246  12.077
 5032W        W71573  32.430   1.401   0.848
 5033W        W71574  35.029  26.398  12.106
 5034W        W71575  16.278  33.547   1.011
 5035W        W71576  34.938  29.920   0.801
 5036W        W71577  25.011  16.857   2.851
 5037W        W71578  26.509   0.028   4.045
 5038W        W71579  25.159  44.279  12.968
 5039W        W71580   9.754  34.520   2.330
 5040W        W71581  38.358  40.443   2.445
 5041W        W71582  33.906  19.854   1.206
 5042W        W71583   1.828  32.408  11.899
 5043W        W71584  25.967  26.713   0.089
 5044W        W71585  16.690  26.104  11.260
 5045W        W71586  16.037  35.884  11.145
 5046W        W71587   6.017   5.208   3.432
 5047W        W71588  13.639  20.803  12.541
 5048W        W71589  26.694   9.430   4.067
 5049W        W71590  39.169   4.483  11.084
 5050W        W71591  34.934  16.238  11.224
 5051W        W71592   6.892  36.454  10.502
 5052W        W71593   5.811   8.117   3.783
 5053W        W71594  44.381  20.124   4.565
 5054W        W71595  25.093  26.218   2.204
 5055W        W71596  15.556  19.672   1.961
 5056W        W71597   6.878  14.842   4.644
 5057W        W71598  38.826  18.057   4.124
 5058W        W71599  11.057  44.764   0.364
 5059W        W71600  31.441  35.235  11.948
 5060W        W71601  20.223  23.102   1.664
 5061W        W71602  24.718  20.813  11.497
 5062W        W71603  28.619  22.608   0.335
 5063W        W71604  40.449  13.646  13.521
 5064W        W71605  13.344  30.693  12.207
 5065W        W71606  44.260  21.282  12.477
 5066W        W71607  16.727  26.091   4.809
 5067W        W71608  22.802   3.381   4.123
 5068W        W71609  23.935  28.266  10.690
 5069W        W71610  28.923  42.065  13.383
 5070W        W71611  16.754  44.807  11.668
 5071W        W71612  38.559  19.550   3.257
 5072W        W71613  43.289  39.353   1.898
 5073W        W71614  33.070  21.657   3.859
 5074W        W71615  28.149   3.472  14.800
 5075W        W71616  30.232   3.731   2.951
 5076W        W71617  21.046  10.151  13.041
 5077W        W71618  16.053  29.350   0.338
 5078W        W71619  39.919  41.831  11.018
 5079W        W71620  19.858  26.035   3.208
 5080W        W71621  15.896  30.775   0.282
 5081W        W71622  37.045  11.685   2.282
 5082W        W71623  12.126  39.840  12.989
 5083W        W71624  21.006  30.457   0.815
 5084W        W71625  13.574  34.318  12.378
 5085W        W71626  36.092  16.632   3.399
 5086W        W71627  15.754   9.684  14.497
 5087W        W71628  15.487  44.923   0.462
 5088W        W71629  26.474  14.755   1.016
 5089W        W71630  22.984  20.243   4.221
 5090W        W71631  38.820  10.833  14.894
 5091W        W71632  29.615  17.084   3.696
 5092W        W71633   6.655   0.584  13.053
 5093W        W71634  37.988  39.722   3.101
 5094W        W71635  29.159  16.689  10.594
 5095W        W71636  20.753  14.090   2.389
 5096W        W71637  21.007  11.400  13.519
 5097W        W71638  23.907  42.336  11.162
 5098W        W71639  18.631   6.921  13.830
 5099W        W71640  20.886  25.535   3.220
 5100W        W71641  27.645  21.738  14.735
 5101W        W71642  22.744   0.529  11.720
 5102W        W71643  34.877  28.142  12.311
 5103W        W71644   6.173  15.792   0.893
 5104W        W71645  12.733  33.509   1.628
 5105W        W71646  11.350  14.740   4.140
 5106W        W71647  44.424  15.303  14.515
 5107W        W71648   2.917  13.176   3.982
 5108W        W71649   4.882  16.739  12.952
 5109W        W71650  12.771   5.286   4.236
 5110W        W71651  33.410  34.917   4.660
 5111W        W71652  39.204   1.198  11.105
 5112W        W71653  32.353   6.252   1.767
 5113W        W71654  31.195  16.081   1.926
 5114W        W71655   9.382  25.441   1.349
 5115W        W71656  20.742  17.076   1.384
 5116W        W71657   7.298  36.517   1.684
 5117W        W71658  35.345  30.394  11.613
 5118W        W71659  14.023  23.175   4.073
 5119W        W71660  38.309   1.205   4.905
 5120W        W71661  44.708  10.266  14.989
 5121W        W71662  29.208  24.240  14.929
 5122W        W71663  38.386  39.319   4.770
 5123W        W71664  15.652  27.095  11.371
 5124W        W71665  28.857  23.063  14.449
 5125W        W71666  19.963   1.934   2.816
 5126W        W71667   5.016  18.212  13.323
 5127W        W71668  32.135  44.216  14.374
 5128W        W71669  13.156  17.064   3.176
 5129W        W71670  35.139   8.593  11.627
 5130W        W71671  33.506   0.767   2.732
 5131W        W71672  33.153  20.203  12.009
 5132W        W71673  38.092  12.699  11.595
 5133W        W71674  24.914  33.395  12.406
 5134W        W71675  28.533   7.671  13.863
 5135W        W71676  26.417  25.675   2.385
 5136W        W71677  10.405   0.231  12.091
 5137W        W71678  36.807  41.131  12.358
 5138W        W71679   5.914  30.142  13.934
 5139W        W71680  33.137  37.834   4.067
 5140W        W71681  11.791   3.915  12.977
 5141W        W71682  40.894  42.379   4.554
 5142W        W71683  41.001   7.084  10.680
 5143W        W71684  26.213  22.449  14.031
 5144W        W71685  39.697   1.300   4.734
 5145W        W71686  21.112  37.040  13.508
 5146W        W71687  36.918  28.375  12.053
 5147W        W71688  40.499  11.192  10.278
 5148W        W71689  14.182  12.594   0.386
 5149W        W71690   7.347  40.061   0.791
 5150W        W71691  37.348  19.254  10.773
 5151W        W71692  24.289  34.431  11.315
 5152W        W71693   9.337  30.325   4.933
 5153W        W71694  42.643  42.048  13.936
 5154W        W71695  20.719  11.202   0.736
 5155W        W71696  13.402  44.884   4.981
 5156W        W71697   3.684  43.433  11.048
 5157W        W71698  37.155  17.229   3.288
 5158W        W71699  37.065   2.482  12.527
 5159W        W71700  21.606  34.829   0.826
 5160W        W71701  21.849  43.712  11.140
 5161W        W71702  32.466  22.647  12.343
 5162W        W71703  31.532   0.191   3.216
 5163W        W71704  32.415   6.338   0.473
 5164W        W71705   6.745  13.275   3.991
 5165W        W71706  11.778  34.880  12.157
 5166W        W71707  30.095   0.620  11.624
 5167W        W71708  38.390   8.722   1.897
 5168W        W71709  33.635  30.622  11.181
 5169W        W71710  18.519  33.654  14.834
 5170W        W71711  22.754  17.012  13.471
 5171W        W71712  11.301  38.870   2.471
 5172W        W71713  15.822   9.334  13.335
 5173W        W71714  44.035  34.281  12.382
 5174W        W71715  33.533  15.837  14.189
 5175W        W71716  31.626  26.084  10.720
 5176W        W71717   6.903   0.622  11.716
 5177W        W71718   0.821  41.820   1.017
 5178W        W71719  36.783  35.826  12.053
 5179W        W71720   4.850  41.838  10.963
 5180W        W71721  38.014   3.170  14.075
 5181W        W71722  35.806   9.185   1.141
 5182W        W71723  19.249  40.292  13.797
 5183W        W71724  21.508  13.737   0.909
 5184W        W71725  38.773  11.334  12.328
 5185W        W71726  43.408  16.962  10.699
 5186W        W71727   6.587  41.026  13.034
 5187W        W71728   9.915  25.666   2.397
 5188W        W71729   8.153  24.533   2.263
 5189W        W71730  17.251   2.671   1.346
 5190W        W71731   0.237  39.313  11.590
 5191W        W71732   5.174  20.047   3.853
 5192W        W71733  20.119  39.928   1.800
 5193W        W71734   4.024  42.331   2.654
 5194W        W71735  37.888   5.672   3.597
 5195W        W71736  21.484   8.880   3.838
 5196W        W71737  33.531  38.860  11.982
 5197W        W71738  39.440  36.619  11.411
 5198W        W71739  10.655  38.091  13.299
 5199W        W71740  24.008  10.320   0.754
 5200W        W71741  44.588  38.838   2.846
 5201W        W71742   1.717  10.554  13.964
 5202W        W71743   3.464  14.403  11.617
 5203W        W71744  25.164  22.594   4.122
 5204W        W71745  17.313  38.880  12.438
 5205W        W71746  41.112  21.988   3.430
 5206W        W71747  22.936   7.209   3.166
 5207W        W71748   0.940  15.720  14.756
 5208W        W71749  28.516  15.635   4.128
 5209W        W71750  34.522  42.988  13.376
 5210W        W71751  11.731  27.574   0.751
 5211W        W71752  35.961  15.245  14.869
 5212W        W71753  28.083  41.251  11.591
 5213W        W71754  24.641  43.322   2.621
 5214W        W71755  35.917  38.324  14.965
 5215W        W71756   6.931  28.072  13.489
 5216W        W71757  24.749  17.645  13.574
 5217W        W71758   6.028   8.346   1.433
 5218W        W71759   5.157  39.426  13.928
 5219W        W71760  27.396  25.532   0.338
 5220W        W71761  21.776   8.227   3.547
 5221W        W71762  39.247  44.944  14.734
 5222W        W71763  17.846  12.222   2.235
 5223W        W71764  37.039  29.200  11.604
 5224W        W71765   0.917   2.025  14.430
 5225W        W71766  33.822  22.098  12.477
 5226W        W71767   4.225  25.294  12.559
 5227W        W71768  37.000  10.465  12.725
 5228W        W71769  28.520   0.048   0.244
 5229W        W71770  27.585   0.817  11.145
 5230W        W71771  20.823  36.976   1.335
 5231W        W71772  12.721  15.224   3.350
 5232W        W71773  30.287  40.993   1.236
 5233W        W71774  22.242  37.483   1.878
 5234W        W71775  25.953  32.883   0.559
 5235W        W71776   0.788   9.347   3.666
 5236W        W71777   6.778  41.273   3.862
 5237W        W71778  36.963  26.752   1.766
 5238W        W71779  32.959  14.848  14.570
 5239W        W71780   3.756  27.667   3.508
 5240W        W71781  39.062  22.573  14.310
 5241W        W71782  26.827  25.924   3.263
 5242W        W71783  27.649   3.668  10.829
 5243W        W71784  43.279  27.791  14.509
 5244W        W71785   8.421  41.557   2.758
 5245W        W71786  35.913  19.786   2.485
 5246W        W71787  14.172  11.118  11.167
 5247W        W71788  33.964  16.653   1.376
 5248W        W71789   9.448  17.768  12.835
 5249W        W71790  22.710  43.254   2.309
 5250W        W71791   1.363   2.191  11.735
 5251W        W71792  28.711  43.431   0.856
 5252W        W71793  32.765  36.771  11.169
 5253W        W71794  23.231  33.606  11.292
 5254W        W71795  30.378  37.416   0.489
 5255W        W71796   2.740  18.852  14.425
 5256W        W71797   4.935   3.690   4.639
 5257W        W71798  15.773  20.541   2.439
 5258W        W71799  25.251  40.612  10.944
 5259W        W71800  12.731  38.543   0.201
 5260W        W71801  38.498  14.797   0.276
 5261W        W71802  32.080  18.605  14.422
 5262W        W71803  37.960   7.403  13.850
 5263W        W71804  37.454  39.079  12.484
 5264W        W71805   3.159  21.565   3.161
 5265W        W71806  35.141  28.581   1.291
 5266W        W71807   4.300  33.716   2.379
 5267W        W71808   2.462  27.105  13.763
 5268W        W71809  24.001  42.394   1.790
 5269W        W71810   3.481  10.240  12.305
 5270W        W71811   2.923  11.238   2.348
 5271W        W71812  18.716  12.758   4.631
 5272W        W71813  44.421  30.306  13.441
 5273W        W71814   1.493  17.918  14.397
 5274W        W71815   6.691  13.103  12.906
 5275W        W71816  17.215  17.774  12.094
 5276W        W71817   5.670  40.958   2.607
 5277W        W71818  41.257  24.620  15.000
 5278W        W71819  30.766  11.037   5.048
 5279W        W71820  44.033  25.505  13.295
 5280W        W71821   0.821  26.025   2.362
 5281W        W71822   2.388  27.725   3.133
 5282W        W71823  39.114  10.350  13.415
 5283W        W71824   7.594  34.269  11.098
 5284W        W71825  21.612  14.645   3.345
 5285W        W71826   4.772  39.965  13.996
 5286W        W71827  24.556  32.330  14.983
 5287W        W71828  40.290  19.622  14.864
 5288W        W71829  41.680  37.248  12.492
 5289W        W71830   9.834  17.043   1.465
 5290W        W71831  28.363  29.649   0.426
 5291W        W71832  13.836   5.109  11.021
 5292W        W71833  30.701  19.621   3.732
 5293W        W71834  12.911  19.829  11.024
 5294W        W71835  40.257  30.172  14.607
 5295W        W71836  24.491  13.152  12.398
 5296W        W71837  20.303  33.994   4.706
 5297W        W71838  34.203   4.289   2.729
 5298W        W71839  16.278   5.197  12.423
 5299W        W71840  13.402  24.279   4.598
 5300W        W71841  43.732  31.109   4.092
 5301W        W71842  43.485  36.458  12.528
 5302W        W71843   4.260  21.674   3.817
 5303W        W71844  34.395  34.140  11.587
 5304W        W71845  15.762  33.184   4.261
 5305W        W71846  15.461  20.114   2.394
 5306W        W71847  14.215   5.397   0.075
 5307W        W71848  30.956  20.135   1.135
 5308W        W71849  10.700   0.151  10.897
 5309W        W71850  15.695   8.372   3.073
 5310W        W71851   4.883  15.559  14.741
 5311W        W71852  43.726  16.362   5.021
 5312W        W71853  22.548  44.730   2.395
 5313W        W71854   0.761  21.433  14.196
 5314W        W71855   9.734  14.698  12.228
 5315W        W71856  17.048  41.919   2.293
 5316W        W71857   7.357   8.612   1.665
 5317W        W71858   8.774  20.481   1.249
 5318W        W71859  16.145  30.612  11.510
 5319W        W71860  21.976   5.277   2.275
 5320W        W71861  30.151   6.748   2.413
 5321W        W71862  44.888  34.504   1.835
 5322W        W71863  10.962  39.752   5.433
 5323W        W71864  31.610  14.063   0.738
 5324W        W71865  13.254  23.901  11.195
 5325W        W71866  23.004  20.431  11.043
 5326W        W71867  44.312  16.381  13.514
 5327W        W71868  41.104  16.283  12.455
 5328W        W71869   6.729   0.176  11.897
 5329W        W71870  13.234  19.532   1.638
 5330W        W71871  18.121  26.483  13.880
 5331W        W71872  36.349  32.904  13.082
 5332W        W71873   9.779   6.867   4.763
 5333W        W71874  39.576   4.872  12.806
 5334W        W71875   2.308  18.019   4.586
 5335W        W71876  28.372  23.026  13.267
 5336W        W71877  31.159  27.607  13.306
 5337W        W71878  33.192  17.801  11.721
 5338W        W71879  10.650  23.229  13.509
 5339W        W71880  40.437  23.948  10.450
 5340W        W71881  30.485  40.394   3.846
 5341W        W71882   1.261  14.374  10.565
 5342W        W71883  15.631   3.439   0.354
 5343W        W71884  42.237  25.470  11.106
 5344W        W71885  14.154   4.745  11.982
 5345W        W71886  25.509  13.357   2.524
 5346W        W71887  41.573  37.780   1.855
 5347W        W71888   1.734  40.215   2.195
 5348W        W71889  27.736  40.292  11.793
 5349W        W71890  43.691  39.602   2.180
 5350W        W71891  32.651  20.051   0.305
 5351W        W71892   4.609  42.318   3.310
 5352W        W71893  43.229  18.264   2.358
 5353W        W71894  19.115   0.306   2.041
 5354W        W71895  15.842  36.967  13.805
 5355W        W71896  31.116   8.481   3.048
 5356W        W71897  30.826  42.406   1.264
 5357W        W71898  41.840  36.038  13.839
 5358W        W71899  23.495  24.964   3.773
 5359W        W71900   8.708  16.351   1.334
 5360W        W71901  23.544   5.760   0.480
 5361W        W71902  24.798   5.248   0.328
 5362W        W71903   6.427  34.391   2.401
 5363W        W71904  14.117  24.702  12.499
 5364W        W71905  27.443   8.968  13.090
 5365W        W71906  36.128  34.550   1.950
 5366W        W71907  36.597  19.108  12.963
 5367W        W71908  11.704  39.296   1.938
 5368W        W71909  35.565  27.715  14.413
 5369W        W71910  17.743   7.818  14.263
 5370W        W71911  22.735  23.055   2.365
 5371W        W71912  36.878  18.165  12.081
 5372W        W71913  38.479  20.692   4.137
 5373W        W71914  41.470  19.226  12.824
 5374W        W71915  11.642   4.157   2.369
 5375W        W71916   8.396   6.951   3.384
 5376W        W71917  42.977   2.257  14.505
 5377W        W71918  17.750   5.711  14.893
 5378W        W71919   5.599   5.773   2.840
 5379W        W71920  31.589  16.778   3.758
 5380W        W71921  32.278   8.372   3.209
 5381W        W71922  41.590  30.505  14.856
 5382W        W71923  33.587  23.522   0.055
 5383W        W71924  13.427  42.818   2.537
 5384W        W71925   8.255  31.099  13.493
 5385W        W71926  23.151  20.981   0.766
 5386W        W71927  32.497  37.652  11.529
 5387W        W71928  38.413  23.994  12.033
 5388W        W71929  30.127   1.856  10.652
 5389W        W71930  35.603  41.432   1.118
 5390W        W71931  37.770   9.241   3.170
 5391W        W71932  29.724   0.371   5.144
 5392W        W71933   5.042   9.280   9.773
 5393W        W71934  24.673  38.249  10.703
 5394W        W71935  17.826  30.627  11.170
 5395W        W71936   7.126  39.328   3.105
 5396W        W71937  30.309  14.679   0.829
 5397W        W71938  27.691  33.763   1.423
 5398W        W71939  36.906  10.794  14.903
 5399W        W71940  27.049   1.193  13.327
 5400W        W71941  26.996   8.729   2.390
 5401W        W71942   2.184  32.373  10.694
 5402W        W71943  39.851  44.811   3.820
 5403W        W71944  38.323  25.620   0.757
 5404W        W71945  32.969  36.784   0.321
 5405W        W71946  44.317  24.357  14.332
 5406W        W71947  25.562  26.409   2.316
 5407W        W71948  12.314  27.664  10.431
 5408W        W71949  42.597  30.454  13.421
 5409W        W71950   8.088  33.035   4.440
 5410W        W71951  30.998  14.544  13.725
 5411W        W71952  28.448   9.551   0.965
 5412W        W71953  10.721  25.020  12.966
 5413W        W71954  10.816   5.863   2.939
 5414W        W71955  11.135   4.982   4.750
 5415W        W71956  27.468  32.640   3.276
 5416W        W71957  10.918   9.810   3.861
 5417W        W71958  40.596   7.341   0.326
 5418W        W71959  36.932  43.776   3.727
 5419W        W71960  26.385  25.383   1.387
 5420W        W71961  13.164   2.987   4.720
 5421W        W71962  41.048  29.913   2.249
 5422W        W71963  15.316  35.988   2.138
 5423W        W71964  25.550  19.719   1.358
 5424W        W71965  31.269   5.462   3.536
 5425W        W71966   0.495  15.977  14.345
 5426W        W71967   0.136  43.303   0.400
 5427W        W71968   3.998  39.334  11.877
 5428W        W71969   9.880   5.348  14.695
 5429W        W71970  20.096  14.317   3.658
 5430W        W71971  25.114   2.738   3.770
 5431W        W71972   7.142  34.950   0.045
 5432W        W71973  34.017  39.943  13.362
 5433W        W71974   7.739  21.432  10.153
 5434W        W71975  44.070   6.986   3.939
 5435W        W71976   8.055  40.485  10.220
 5436W        W71977   2.254  24.214   3.877
 5437W        W71978  15.070  37.250   4.107
 5438W        W71979  22.647  34.679  10.588
 5439W        W71980  14.591  37.840  13.018
 5440W        W71981  11.451  30.026  13.289
 5441W        W71982  14.740  35.676  10.062
 5442W        W71983   0.671   2.027   2.346
 5443W        W71984  10.794  26.528   3.726
 5444W        W71985  21.750  27.891   1.307
 5445W        W71986  16.687   5.188   2.323
 5446W        W71987  39.312  16.467  11.358
 5447W        W71988  42.354   1.799   0.953
 5448W        W71989  26.680  34.261  11.897
 5449W        W71990   9.868  42.787  11.523
 5450W        W71991   2.464  16.869   3.645
 5451W        W71992   3.529  30.054   3.017
 5452W        W71993  15.843  18.216  11.163
 5453W        W71994  19.823  12.398   4.762
 5454W        W71995  35.032  33.414   3.513
 5455W        W71996  20.169  38.889   2.257
 5456W        W71997  18.529  33.454  12.477
 5457W        W71998  37.122  26.872   5.002
 5458W        W71999  38.011  20.885   4.863
 5459W        W72000  41.554  31.873   2.741
 5460W        W72001  21.305  19.826   2.353
 5461W        W72002  28.549  35.194  12.519
 5462W        W72003  43.989   3.945  13.800
 5463W        W72004  43.507  11.808  14.277
 5464W        W72005  23.961  19.816   0.700
 5465W        W72006  29.174  14.552  13.442
 5466W        W72007   0.858   3.708  11.056
 5467W        W72008  38.923  41.543   2.894
 5468W        W72009  30.143  37.921   4.239
 5469W        W72010   2.774   9.698  13.966
 5470W        W72011  32.189   9.845  10.686
 5471W        W72012  11.891  12.187   2.240
 5472W        W72013  43.240  43.679  13.900
 5473W        W72014  40.488  40.423   2.395
 5474W        W72015  16.285  27.338   2.914
 5475W        W72016  37.066  25.100  10.481
 5476W        W72017  33.117  29.895  13.831
 5477W        W72018  22.287  44.529   3.355
 5478W        W72019  35.631   0.372   4.550
 5479W        W72020   9.889  18.879  11.386
 5480W        W72021  14.505   5.859  14.317
 5481W        W72022  14.482  31.362  14.676
 5482W        W72023  37.967  28.670  12.009
 5483W        W72024  15.079  41.896  13.378
 5484W        W72025   9.592  26.128  13.889
 5485W        W72026  40.432  33.643  13.067
 5486W        W72027   8.144   4.496  12.603
 5487W        W72028   8.046  32.030  12.994
 5488W        W72029  34.569  13.788  14.845
 5489W        W72030  24.744  34.474  12.287
 5490W        W72031  16.860   8.879  12.465
 5491W        W72032  40.567  16.710  10.126
 5492W        W72033  38.340  21.260  10.744
 5493W        W72034  30.402  25.479   4.716
 5494W        W72035  42.445   3.038   2.311
 5495W        W72036  17.397  31.520   5.395
 5496W        W72037  12.875  11.022   1.719
 5497W        W72038  37.024   1.860  12.927
 5498W        W72039  33.501  10.391  12.684
 5499W        W72040  27.286  18.420  13.453
 5500W        W72041  36.347  33.551  13.797
 5501W        W72042  37.371   8.415  14.326
 5502W        W72043  42.689  12.191  14.822
 5503W        W72044  41.599  38.508  12.064
 5504W        W72045   3.360  39.809   3.274
 5505W        W72046  44.269   2.224   1.635
 5506W        W72047  18.070  27.141   3.766
 5507W        W72048  30.504  20.624   2.176
 5508W        W72049  18.763   2.048   0.215
 5509W        W72050   2.196   8.473  11.164
 5510W        W72051  24.282   9.315  14.768
 5511W        W72052  39.904  35.518   3.432
 5512W        W72053   2.485  22.427   1.078
 5513W        W72054   7.761   9.487   0.051
 5514W        W72055  14.393  12.539   1.782
 5515W        W72056  43.827  12.362  11.965
 5516W        W72057  12.777  35.970   3.306
 5517W        W72058   0.261   8.864  13.816
 5518W        W72059   1.297  24.851   2.410
 5519W        W72060  19.126  39.255   2.177
 5520W        W72061  31.906   3.743   1.166
 5521W        W72062  41.778  10.140   2.968
 5522W        W72063  13.178  42.449   1.824
 5523W        W72064  19.583  18.210  12.514
 5524W        W72065  39.445   2.139   2.850
 5525W        W72066  35.161  24.495   4.555
 5526W        W72067   4.677  18.530   1.819
 5527W        W72068  26.493  37.551  13.415
 5528W        W72069  22.495  13.215   3.632
 5529W        W72070   3.466  16.856   3.161
 5530W        W72071  16.081  18.313  14.399
 5531W        W72072  31.356   9.280   3.378
 5532W        W72073  39.307  13.349  14.459
 5533W        W72074   1.779   8.821  11.005
 5534W        W72075  44.459  31.305   4.527
 5535W        W72076  21.438   5.982  14.939
 5536W        W72077  20.067  17.210  12.446
 5537W        W72078  37.915  36.099  13.944
 5538W        W72079  15.719   0.580  11.173
 5539W        W72080  17.844  24.955   1.831
 5540W        W72081  13.743   5.038   3.610
 5541W        W72082  18.262   7.734  14.342
 5542W        W72083  43.875  16.096   3.289
 5543W        W72084  17.795  37.645  12.378
 5544W        W72085  26.393  12.272  13.390
 5545W        W72086  38.450   0.316  11.892
 5546W        W72087   0.320  26.698  12.887
 5547W        W72088   0.410  42.386  11.099
 5548W        W72089  13.659  17.838   4.258
 5549W        W72090  10.830  35.333  12.637
 5550W        W72091  26.524  22.741   2.208
 5551W        W72092  16.391  30.016   4.589
 5552W        W72093  38.827  31.133  14.444
 5553W        W72094  41.490   8.413   2.667
 5554W        W72095   0.930  22.223  14.550
 5555W        W72096  29.546   7.208   0.392
 5556W        W72097  18.782  34.043   4.668
 5557W        W72098   9.647  33.990  14.005
 5558W        W72099  39.700  19.266  11.651
 5559W        W72100  10.576  37.599  10.916
 5560W        W72101  10.529  23.022   2.520
 5561W        W72102  34.176   5.107   4.121
 5562W        W72103  10.746  31.425   0.461
 5563W        W72104   2.754  38.410  14.260
 5564W        W72105  20.165  15.731  13.496
 5565W        W72106   1.331  38.296   3.658
 5566W        W72107   7.105  16.826  11.591
 5567W        W72108  20.569  35.803   1.488
 5568W        W72109  35.389  12.625   2.416
 5569W        W72110  38.882  42.390  12.384
 5570W        W72111  26.096  37.749  12.845
 5571W        W72112  29.127   5.052  14.775
 5572W        W72113  12.291  42.855  13.017
 5573W        W72114  20.733  18.937  11.444
 5574W        W72115  18.862   1.189  12.460
 5575W        W72116  20.040  12.696  12.617
 5576W        W72117  39.472   9.451  12.411
 5577W        W72118   4.738   2.472   1.379
 5578W        W72119  43.897  17.201  10.656
 5579W        W72120   5.882  26.255   2.692
 5580W        W72121   2.902  44.262   2.895
 5581W        W72122   1.063   7.306  13.513
 5582W        W72123  39.327  24.580  10.674
 5583W        W72124  44.402  25.425   3.373
 5584W        W72125  37.850  30.365   1.170
 5585W        W72126  25.069  33.795   1.745
 5586W        W72127   6.600   9.344   2.200
 5587W        W72128  35.646  13.539  14.749
 5588W        W72129  40.441  35.300  12.366
 5589W        W72130  29.163   2.013   0.208
 5590W        W72131   7.048  25.656  12.061
 5591W        W72132  39.471  17.671   4.039
 5592W        W72133  33.572   5.547   2.907
 5593W        W72134  37.639  35.595   1.232
 5594W        W72135   8.268  22.950  11.872
 5595W        W72136  36.486  21.790  10.455
 5596W        W72137  43.454  12.315   3.567
 5597W        W72138  16.840  15.266   0.518
 5598W        W72139  19.329   2.868  14.943
 5599W        W72140  15.861  15.087   4.144
 5600W        W72141  34.988  17.847  12.632
 5601W        W72142   3.893  35.939   0.002
 5602W        W72143  17.142  15.776   2.909
 5603W        W72144  30.139  28.499  13.516
 5604W        W72145  42.262  37.512  14.342
 5605W        W72146   8.882  35.588  14.820
 5606W        W72147  11.763   6.885   0.918
 5607W        W72148  21.058  19.673  12.003
 5608W        W72149  44.865  19.438  10.586
 5609W        W72150   0.547  36.372   2.737
 5610W        W72151  40.564   6.598   0.966
 5611W        W72152  17.176  29.766  14.035
 5612W        W72153   3.504  24.223   2.664
 5613W        W72154  23.055  27.879   1.227
 5614W        W72155   1.244  35.724  14.256
 5615W        W72156  33.467  22.463   1.830
 5616W        W72157  35.547  32.168   3.322
 5617W        W72158  26.961  31.842   2.783
 5618W        W72159  33.608  35.324  10.573
 5619W        W72160   3.749  16.261   0.776
 5620W        W72161  37.780  22.788   2.410
 5621W        W72162  14.182  12.367   4.095
 5622W        W72163  16.583   7.646   3.561
 5623W        W72164   0.773  37.617  14.964
 5624W        W72165  41.273  32.162   2.296
 5625W        W72166   1.162  20.590  14.063
 5626W        W72167  17.651  28.936  10.654
 5627W        W72168  29.208  17.016   0.502
 5628W        W72169  31.628  44.402   4.285
 5629W        W72170  37.742   6.323   3.082
 5630W        W72171   6.837  40.276   0.839
 5631W        W72172  12.501   4.887  11.061
 5632W        W72173  24.184  25.771  12.092
 5633W        W72174  28.432  41.150  10.451
 5634W        W72175  16.138  17.191  12.902
 5635W        W72176  19.063   6.027   3.736
 5636W        W72177  37.248  25.516  13.950
 5637W        W72178  19.711  31.462  13.888
 5638W        W72179   7.649  34.132  11.890
 5639W        W72180  38.082   5.215   2.280
 5640W        W72181  23.088  34.294  12.041
 5641W        W72182   6.951  38.029   4.181
 5642W        W72183  37.471  11.880  12.322
 5643W        W72184  43.831  24.371  14.635
 5644W        W72185  29.017   5.739   1.251
 5645W        W72186  23.470  39.949  13.989
 5646W        W72187   5.262  41.985  12.647
 5647W        W72188   2.705  19.114  14.886
 5648W        W72189  44.453   5.171  12.018
 5649W        W72190  36.308  29.009  14.014
 5650W        W72191  44.383  39.303   2.834
 5651W        W72192  24.187  42.475  11.656
 5652W        W72193  26.571  29.481   0.935
 5653W        W72194  21.646  25.432  12.147
 5654W        W72195  17.250  36.716  13.873
 5655W        W72196   7.184  21.076  12.595
 5656W        W72197  41.600  43.936  14.566
 5657W        W72198  20.012  29.490   1.189
 5658W        W72199  13.914  26.768  14.836
 5659W        W72200  10.316   5.336   3.873
 5660W        W72201  23.979  31.637   3.150
 5661W        W72202  23.975   8.807   3.670
 5662W        W72203  41.813   1.917  12.536
 5663W        W72204  15.678   4.429   1.332
 5664W        W72205   6.207  18.820  14.897
 5665W        W72206  28.572  40.134   0.726
 5666W        W72207  10.952   4.025   2.853
 5667W        W72208  37.966   2.105  11.062
 5668W        W72209   0.043  40.373   3.379
 5669W        W72210  32.118   0.399   2.383
 5670W        W72211  20.175   4.214  14.953
 5671W        W72212   3.086  21.942   5.035
 5672W        W72213  24.989  18.104   0.287
 5673W        W72214  28.617  10.802   1.941
 5674W        W72215  31.834  21.885   3.277
 5675W        W72216  32.962  36.146   3.693
 5676W        W72217  11.273  43.707  12.568
 5677W        W72218  17.722  23.541   4.161
 5678W        W72219  22.077   9.202   9.553
 5679W        W72220  26.659  21.962  14.829
 5680W        W72221  14.003   0.893  13.425
 5681W        W72222  17.108  12.525  13.422
 5682W        W72223  41.105  28.982   0.755
 5683W        W72224  15.539   8.826   2.844
 5684W        W72225  12.982  32.534   2.828
 5685W        W72226   5.913  44.045  12.906
 5686W        W72227  33.564  19.017   1.473
 5687W        W72228  38.103   3.221   3.764
 5688W        W72229  21.258  44.262  11.418
 5689W        W72230  14.129  41.202  11.866
 5690W        W72231  28.497  17.586   1.274
 5691W        W72232  44.249  22.241   2.920
 5692W        W72233  24.993  38.843   0.835
 5693W        W72234   5.482   9.092  14.830
 5694W        W72235  20.601  22.441   0.169
 5695W        W72236  12.255  12.531  14.632
 5696W        W72237  37.338  17.866  10.722
 5697W        W72238  30.002  30.396  14.440
 5698W        W72239   8.402  41.593   0.395
 5699W        W72240  26.348  38.694   0.205
 5700W        W72241  34.170  43.308  11.222
 5701W        W72242  15.520  26.533  10.805
 5702W        W72243   6.822   6.777  12.037
 5703W        W72244  11.363   6.730  11.321
 5704W        W72245  23.212  19.330   4.665
 5705W        W72246  12.608   5.475  12.588
 5706W        W72247   8.563  21.124  12.991
 5707W        W72248  11.192   3.721   3.221
 5708W        W72249  23.376  42.189   3.180
 5709W        W72250  20.721  15.774  10.226
 5710W        W72251  14.207  25.799   2.243
 5711W        W72252   6.596  13.197   1.091
 5712W        W72253   0.912  27.696   3.294
 5713W        W72254   3.845  11.152  12.242
 5714W        W72255  35.570  17.806   3.233
 5715W        W72256  43.156   6.687  14.061
 5716W        W72257   8.297  32.572   4.298
 5717W        W72258  11.659   8.756  11.822
 5718W        W72259   5.013  34.625   0.373
 5719W        W72260   5.266  16.140  12.494
 5720W        W72261  17.999  23.783   3.804
 5721W        W72262  18.136  23.325   3.167
 5722W        W72263  20.742  34.452  12.050
 5723W        W72264   6.670  24.114   2.782
 5724W        W72265   7.051  21.281   4.518
 5725W        W72266  31.939  17.185  10.397
 5726W        W72267  23.530  38.597  11.195
 5727W        W72268  30.060  13.255   0.434
 5728W        W72269  24.520  42.460   1.669
 5729W        W72270  10.164  25.339   3.697
 5730W        W72271  31.848  15.722  11.596
 5731W        W72272  36.423  17.222   1.207
 5732W        W72273  16.030  11.841   1.341
 5733W        W72274   2.053  34.130   1.709
 5734W        W72275  18.007  14.272   1.768
 5735W        W72276  41.230   0.833   4.174
 5736W        W72277  34.328  18.574  14.740
 5737W        W72278   7.982  34.522   0.115
 5738W        W72279  34.594   3.904   3.849
 5739W        W72280  39.312  17.173   0.905
 5740W        W72281   9.540   0.743  12.063
 5741W        W72282   0.947  40.007   3.333
 5742W        W72283  28.083  39.711   3.722
 5743W        W72284  31.193  41.550   3.006
 5744W        W72285   5.925  25.074  13.057
 5745W        W72286  39.241  12.727   4.053
 5746W        W72287  19.718   0.487   1.336
 5747W        W72288  33.276   3.344  14.171
 5748W        W72289  43.048  16.672   1.062
 5749W        W72290  44.313  36.664   1.448
 5750W        W72291  36.373  27.642  12.579
 5751W        W72292  27.058  14.049   0.097
 5752W        W72293  33.947  18.812   0.022
 5753W        W72294  43.734  28.733   2.876
 5754W        W72295  25.468  12.106   2.197
 5755W        W72296   6.296  36.023  13.341
 5756W        W72297  41.357  21.467   4.677
 5757W        W72298  17.572   8.755   2.656
 5758W        W72299  15.962  18.700   0.311
 5759W        W72300  22.933  33.760   0.643
 5760W        W72301   2.674  26.548   4.342
 5761W        W72302  15.784  27.651  12.014
 5762W        W72303  24.037   0.205   3.706
 5763W        W72304  13.807  16.489  11.453
 5764W        W72305  20.029  39.861  10.731
 5765W        W72306  19.241  24.308   2.201
 5766W        W72307   4.677  20.077  14.508
 5767W        W72308  22.242  37.618   3.386
 5768W        W72309  29.147  29.017  10.835
 5769W        W72310  16.965  20.302   3.308
 5770W        W72311  39.449  23.489   1.454
 5771W        W72312  38.768  26.204  12.108
 5772W        W72313   8.818  19.662   0.298
 5773W        W72314   2.346  15.580  11.632
 5774W        W72315  36.013  26.450   0.536
 5775W        W72316  34.531  26.658  10.997
 5776W        W72317  12.825  33.902   0.800
 5777W        W72318  30.023  29.900   2.097
 5778W        W72319  25.759  43.009  14.661
 5779W        W72320  35.106  42.242   2.110
 5780W        W72321  43.071   9.011  14.826
 5781W        W72322   6.852  29.513  14.366
 5782W        W72323  42.248  10.612   4.844
 5783W        W72324   5.583  13.713   3.358
 5784W        W72325  20.731  40.402  10.455
 5785W        W72326   4.986  39.478   1.707
 5786W        W72327   3.896   8.777  13.874
 5787W        W72328  31.834  44.439  14.006
 5788W        W72329  38.014  41.846   1.544
 5789W        W72330  28.193   6.711  14.396
 5790W        W72331  34.881   4.260  11.560
 5791W        W72332  16.682  38.123   2.312
 5792W        W72333  24.916  12.883  11.170
 5793W        W72334  35.416  39.076   3.816
 5794W        W72335   6.719  38.467  11.425
 5795W        W72336  34.033  13.467   5.101
 5796W        W72337  38.026  15.617   3.537
 5797W        W72338   0.966  39.329   4.580
 5798W        W72339  11.263  40.425  14.492
 5799W        W72340  22.169  20.938   1.996
 5800W        W72341  27.151  38.774   1.956
 5801W        W72342  42.379  19.960  10.931
 5802W        W72343  26.026  28.400   1.309
 5803W        W72344   2.798  35.843  10.632
 5804W        W72345  16.248  42.623   2.245
 5805W        W72346  26.073  28.000   0.940
 5806W        W72347  10.932  31.398  11.839
 5807W        W72348  18.511   8.284   4.734
 5808W        W72349   2.797  25.506  13.338
 5809W        W72350   4.745  43.287  14.798
 5810W        W72351  13.324   9.333   2.159
 5811W        W72352   6.646  41.943  13.058
 5812W        W72353   8.073  34.666  13.013
 5813W        W72354  28.409   1.544  14.900
 5814W        W72355  10.808  10.756   1.910
 5815W        W72356  12.582  43.402  12.900
 5816W        W72357  42.800  25.878   0.415
 5817W        W72358  23.140  40.864  12.034
 5818W        W72359  28.075  32.416  10.435
 5819W        W72360   8.832  30.137   2.256
 5820W        W72361  15.643  20.649   4.967
 5821W        W72362  16.968  24.976  13.176
 5822W        W72363   1.116   7.795   4.460
 5823W        W72364  13.784  26.085   3.676
 5824W        W72365  23.175  12.592  14.488
 5825W        W72366  43.397  39.881   4.553
 5826W        W72367  10.653  33.548  10.248
 5827W        W72368  11.146   9.430   1.713
 5828W        W72369  20.722  40.429   0.998
 5829W        W72370   5.356  11.250  12.855
 5830W        W72371  15.761   5.866  12.128
 5831W        W72372  44.436  41.482   2.303
 5832W        W72373  15.888  31.561  12.909
 5833W        W72374   3.280  10.851  13.968
 5834W        W72375  37.564  19.621  11.621
 5835W        W72376  23.156  24.453  12.014
 5836W        W72377  35.407  33.562   3.819
 5837W        W72378   4.218  37.625   4.728
 5838W        W72379   1.540  14.670   5.171
 5839W        W72380  40.788  19.048   3.739
 5840W        W72381  37.311  25.483   0.832
 5841W        W72382  42.310  22.242   2.632
 5842W        W72383  31.587   6.451   4.248
 5843W        W72384   6.531  42.125   4.130
 5844W        W72385  15.155  12.825   0.288
 5845W        W72386  10.925  22.396   1.874
 5846W        W72387  29.960   6.601   3.907
 5847W        W72388  35.512  23.137   0.898
 5848W        W72389  24.630  41.314  11.997
 5849W        W72390  19.033  25.285  14.559
 5850W        W72391  44.037   9.290   1.335
 5851W        W72392  36.538  36.698  11.102
 5852W        W72393  34.315  44.256   2.901
 5853W        W72394  13.247  42.097   4.339
 5854W        W72395  40.928   6.580  10.565
 5855W        W72396  22.209  27.484  14.317
 5856W        W72397  15.356  26.456  14.744
 5857W        W72398  11.407  11.761  14.081
 5858W        W72399   5.739   0.053  10.610
 5859W        W72400  20.704  30.082   2.874
 5860W        W72401  26.427  18.178  10.280
 5861W        W72402  14.702  22.019  10.682
 5862W        W72403   3.852  16.224  14.285
 5863W        W72404  23.520  21.322   0.694
 5864W        W72405  21.523  42.708   4.109
 5865W        W72406   9.730  34.948  12.500
 5866W        W72407  21.714  36.158  10.558
 5867W        W72408  35.109  17.605  11.008
 5868W        W72409  44.403  23.036   0.988
 5869W        W72410  35.374  22.105   4.723
 5870W        W72411  24.525  25.387  12.144
 5871W        W72412  28.021  36.541  13.511
 5872W        W72413  44.081  32.032  13.031
 5873W        W72414  18.501   2.361   1.915
 5874W        W72415  43.980  39.368   3.575
 5875W        W72416  31.187   5.235   3.074
 5876W        W72417   5.830  27.051  14.664
 5877W        W72418  13.598  43.263   0.782
 5878W        W72419  20.232  21.487  14.316
 5879W        W72420   7.217   1.235   3.703
 5880W        W72421  36.586  11.991  14.361
 5881W        W72422  36.871  22.089  13.496
 5882W        W72423  25.601   1.505   5.018
 5883W        W72424  23.129  33.369  13.085
 5884W        W72425  13.264  20.016   2.414
 5885W        W72426   9.476  15.694  10.096
 5886W        W72427  24.020  40.825  13.895
 5887W        W72428   9.768  34.468   2.851
 5888W        W72429  21.208   7.840   0.033
 5889W        W72430   4.785   1.807   3.261
 5890W        W72431  15.623  25.767  11.634
 5891W        W72432   1.001  44.997   3.765
 5892W        W72433  18.534  44.168  14.991
 5893W        W72434  33.415   2.633  13.438
 5894W        W72435  36.578  16.978   4.189
 5895W        W72436  22.658  12.289   3.258
 5896W        W72437  28.684  42.044   4.638
 5897W        W72438  31.354  42.294  10.686
 5898W        W72439  17.003   0.891  13.853
 5899W        W72440   8.884   1.345  12.042
 5900W        W72441   7.876  35.762   4.526
 5901W        W72442   1.952  36.914  11.949
 5902W        W72443  19.204  40.807   1.998
 5903W        W72444  38.614  19.301  13.921
 5904W        W72445  26.399  38.327   3.863
 5905W        W72446   1.979  32.091  14.421
 5906W        W72447  17.207  19.170  14.861
 5907W        W72448  31.513  41.090   0.451
 5908W        W72449  21.276  22.553   2.429
 5909W        W72450  29.070  27.820   0.663
 5910W        W72451  13.611   2.310   3.090
 5911W        W72452  23.223  13.208  12.603
 5912W        W72453  17.247   5.412   2.958
 5913W        W72454  24.418   4.569   5.338
 5914W        W72455  28.638   8.610  13.454
 5915W        W72456  29.745   0.701   2.274
 5916W        W72457  36.636  11.877   1.998
 5917W        W72458  11.112   0.386   4.653
 5918W        W72459   6.457  44.443   0.625
 5919W        W72460   8.504  21.668   2.876
 5920W        W72461   0.733   8.491   4.015
 5921W        W72462   5.848  37.536  11.452
 5922W        W72463   4.851  27.891   3.619
 5923W        W72464  20.320  24.752  13.000
 5924W        W72465   6.331   1.421  13.521
 5925W        W72466  13.210  35.146   4.161
 5926W        W72467   1.266  16.306   3.339
 5927W        W72468  42.482  10.381  13.395
 5928W        W72469   8.844  34.216  13.123
 5929W        W72470   7.670  24.700   2.166
 5930W        W72471  41.287  17.891   1.366
 5931W        W72472  39.147  36.489  10.501
 5932W        W72473  43.583   8.886   0.939
 5933W        W72474  43.261   7.916   0.667
 5934W        W72475   6.900  10.335   4.105
 5935W        W72476  17.748  32.603  10.863
 5936W        W72477   4.809   4.466   4.418
 5937W        W72478  21.956   2.686   4.197
 5938W        W72479   7.402  11.900   1.973
 5939W        W72480  41.117  13.434   1.643
 5940W        W72481  42.012  34.012   3.325
 5941W        W72482  31.400  10.734   0.270
 5942W        W72483  41.863  39.395  14.757
 5943W        W72484  25.675  44.489  14.332
 5944W        W72485  31.068  32.901  13.478
 5945W        W72486   5.157  27.940  11.220
 5946W        W72487  23.503  40.940  12.402
 5947W        W72488  34.678  44.558  12.138
 5948W        W72489  10.174   7.535  10.857
 5949W        W72490  27.978  39.930  14.452
 5950W        W72491  31.538  21.062  12.233
 5951W        W72492  42.977  28.403  11.666
 5952W        W72493  38.659  25.460  11.454
 5953W        W72494  24.242  20.046  13.822
 5954W        W72495  19.740  11.571  14.801
 5955W        W72496  32.329   1.988   0.495
 5956W        W72497  36.028  22.266   4.165
 5957W        W72498  34.164  19.208  12.947
 5958W        W72499  36.179  22.544  13.847
 5959W        W72500  23.451   0.829   2.494
 5960W        W72501   5.857  15.118   3.604
 5961W        W72502  20.696   3.329   0.894
 5962W        W72503   9.891  44.108   2.703
 5963W        W72504  17.585   3.173  12.248
 5964W        W72505  37.071  33.533   4.115
 5965W        W72506  18.052  44.292  13.066
 5966W        W72507  40.629  14.962   4.206
 5967W        W72508  37.879  44.299   3.891
 5968W        W72509  33.105  23.619  14.883
 5969W        W72510   1.747  12.843  13.487
 5970W        W72511   4.927  12.625   0.325
 5971W        W72512   0.447  29.779   3.546
 5972W        W72513  27.451  13.367   4.587
 5973W        W72514  10.184  24.944   0.950
 5974W        W72515  31.013  28.166  14.570
 5975W        W72516  36.913  20.312   4.118
 5976W        W72517  41.054  16.171  11.545
 5977W        W72518  34.974   8.141   3.257
 5978W        W72519  10.650  24.805  14.832
 5979W        W72520  26.603  33.804   2.283
 5980W        W72521  32.912  40.969  14.643
 5981W        W72522  26.826  35.023  13.419
 5982W        W72523  28.951  14.028  12.475
 5983W        W72524  37.933  26.708   3.710
 5984W        W72525  40.010   0.415   4.048
 5985W        W72526  16.808  41.634   4.419
 5986W        W72527  33.366  43.974  12.467
 5987W        W72528  14.802   9.651  10.698
 5988W        W72529   4.720  31.214   1.402
 5989W        W72530   7.157  13.184  11.599
 5990W        W72531  14.754  25.250   1.444
 5991W        W72532  35.768   1.629  11.109
 5992W        W72533  39.292  37.786  14.615
 5993W        W72534  33.908   8.325   2.107
 5994W        W72535  23.992  12.263   0.015
 5995W        W72536  31.883  34.405  12.837
 5996W        W72537  40.624  42.240   1.423
 5997W        W72538   4.485  38.154   3.941
 5998W        W72539   2.741  27.169   2.846
 5999W        W72540  27.753   5.640   1.285
 6000W        W72541  12.327  40.507  14.482
 6001W        W72542  44.759   9.698  14.826
 6002W        W72543  40.319  35.515   3.112
 6003W        W72544  27.701  32.216  11.078
 6004W        W72545   2.158  35.916  14.240
 6005W        W72546  23.686  37.605  13.598
 6006W        W72547   4.215  40.715  13.772
 6007W        W72548   3.743   9.162   2.302
 6008W        W72549   0.747  31.461   2.695
 6009W        W72550   1.410   4.108   2.852
 6010W        W72551   5.603  30.470   1.322
 6011W        W72552   9.638  39.808  13.895
 6012W        W72553   5.294  37.641  12.069
 6013W        W72554   8.993  16.819   2.807
 6014W        W72555   5.190  11.615   2.908
 6015W        W72556  17.752  42.977   1.664
 6016W        W72557  44.232  25.034  13.916
 6017W        W72558  33.025  34.399  11.741
 6018W        W72559  39.464  11.478  12.025
 6019W        W72560  42.792  35.509  11.510
 6020W        W72561   5.723  18.587   0.388
 6021W        W72562  29.545  24.971  13.518
 6022W        W72563  29.378  22.166  12.048
 6023W        W72564  37.553  44.600   3.609
 6024W        W72565  25.681  24.032   3.814
 6025W        W72566   7.088  31.772   0.995
 6026W        W72567   8.270  29.612   1.160
 6027W        W72568   2.214  20.762  12.027
 6028W        W72569  32.956   0.799   3.305
 6029W        W72570  20.264   4.344   1.444
 6030W        W72571  27.893  15.597  12.868
 6031W        W72572  16.058   4.719  11.637
 6032W        W72573  19.296  25.634   4.720
 6033W        W72574   4.142   7.276   4.231
 6034W        W72575  36.478  37.062  12.014
 6035W        W72576  27.857  43.956   4.157
 6036W        W72577  23.739  32.466  13.998
 6037W        W72578  25.950   5.542  11.994
 6038W        W72579  28.848   6.309   2.129
 6039W        W72580  23.782  42.471  13.422
 6040W        W72581  22.047  36.850  14.348
 6041W        W72582  11.803  31.709   3.419
 6042W        W72583   0.127  23.456   2.393
 6043W        W72584  20.483  35.830   2.296
 6044W        W72585  25.510   7.618   3.887
 6045W        W72586  11.205   3.270   1.161
 6046W        W72587   7.817  19.232  12.489
 6047W        W72588  37.123   2.481   5.153
 6048W        W72589  21.304  13.945   1.830
 6049W        W72590  26.724   9.863   4.769
 6050W        W72591  10.021   5.936   2.324
 6051W        W72592  36.511  44.970  12.422
 6052W        W72593   8.456  37.696   1.276
 6053W        W72594  12.143  15.141   0.927
 6054W        W72595   0.357  22.039   2.207
 6055W        W72596  20.715  30.152   1.153
 6056W        W72597  10.816  40.795   1.960
 6057W        W72598  33.879  27.125   2.663
 6058W        W72599  33.881  30.010   0.720
 6059W        W72600  27.514  33.900  11.813
 6060W        W72601  14.701   3.141   3.376
 6061W        W72602  18.543  27.827  10.313
 6062W        W72603   6.796  29.967  14.909
 6063W        W72604  29.563   1.463   4.872
 6064W        W72605  32.336  36.406   0.835
 6065W        W72606  11.456  31.461  11.862
 6066W        W72607  27.523  26.414  11.054
 6067W        W72608  26.886  43.966  12.906
 6068W        W72609  11.559   5.695   1.066
 6069W        W72610  36.345  26.944  10.573
 6070W        W72611  25.515  23.052   0.951
 6071W        W72612  42.464  23.989  14.807
 6072W        W72613  32.079  44.316  12.583
 6073W        W72614  37.513  13.034   4.270
 6074W        W72615  14.654  16.564   4.100
 6075W        W72616  13.231  41.996  14.758
 6076W        W72617  24.734  36.953   4.611
 6077W        W72618  23.650  27.194  14.923
 6078W        W72619  21.168  32.918  11.745
 6079W        W72620  19.754  36.421   4.579
 6080W        W72621  34.423  33.101   0.065
 6081W        W72622  36.998  10.337   4.758
 6082W        W72623  41.204   9.354  12.972
 6083W        W72624  16.278  43.873   4.030
 6084W        W72625  27.716  37.017   2.860
 6085W        W72626  17.871  44.219  14.473
 6086W        W72627  17.571  42.146   0.568
 6087W        W72628  30.113  34.020   1.978
 6088W        W72629   0.080  29.152  11.557
 6089W        W72630  35.554  35.647   2.224
 6090W        W72631  39.902  30.612   1.702
 6091W        W72632  40.956  25.139   0.014
 6092W        W72633   0.891   9.750  12.043
 6093W        W72634  40.134  15.861   4.154
 6094W        W72635  31.380  23.135   0.878
 6095W        W72636  34.944  28.382  10.986
 6096W        W72637   7.171   9.162  11.204
 6097W        W72638  34.136  34.109  13.404
 6098W        W72639  31.426  39.480  11.098
 6099W        W72640  44.935  30.684  14.258
 6100W        W72641  40.054  38.531   0.292
 6101W        W72642  26.950   8.859  11.113
 6102W        W72643   6.220   4.136   1.770
 6103W        W72644   1.251  31.461   2.737
 6104W        W72645  36.342  13.768   3.701
 6105W        W72646  38.319  11.257  14.209
 6106W        W72647   6.895  36.517   3.396
 6107W        W72648   7.844  39.809  11.871
 6108W        W72649  33.347  23.668  14.076
 6109W        W72650  20.682  28.692   3.675
 6110W        W72651  41.215  44.817   0.868
 6111W        W72652  23.994  34.637  11.706
 6112W        W72653  11.078   8.356   2.727
 6113W        W72654  44.603  23.480   4.544
 6114W        W72655  21.273  16.179   2.572
 6115W        W72656   1.878  30.339   9.782
 6116W        W72657  33.006  17.756   3.609
 6117W        W72658  24.726  22.744   3.191
 6118W        W72659   1.625  42.547   1.987
 6119W        W72660  33.340  30.307  10.506
 6120W        W72661  13.239   6.882   1.427
 6121W        W72662  17.218   2.841   0.841
 6122W        W72663  25.986  33.886  13.446
 6123W        W72664   9.421   0.249   1.723
 6124W        W72665  41.957  27.624  11.589
 6125W        W72666  33.974  30.986   1.990
 6126W        W72667  27.717   1.710   0.430
 6127W        W72668  40.861   0.858   3.221
 6128W        W72669  12.308  12.656   4.032
 6129W        W72670  36.939  13.487   5.278
 6130W        W72671  28.384  22.686   0.784
 6131W        W72672  16.306   3.192  12.169
 6132W        W72673   7.825  20.077   1.984
 6133W        W72674  19.159  11.351   0.517
 6134W        W72675  10.100  22.181   2.249
 6135W        W72676  24.582  19.576   3.626
 6136W        W72677  17.272   1.237  12.444
 6137W        W72678  18.127  27.583   3.463
 6138W        W72679  44.872  29.630  11.893
 6139W        W72680   1.669  18.540   1.283
 6140W        W72681  12.646  13.715  14.949
 6141W        W72682  11.857  20.782  11.621
 6142W        W72683  29.345  28.144   1.645
 6143W        W72684  32.906  43.745   0.610
 6144W        W72685   1.677  34.032   3.745
 6145W        W72686  21.408  40.047  10.184
 6146W        W72687  38.963  39.407   0.679
 6147W        W72688  34.821  34.396   4.092
 6148W        W72689  24.647  39.449  10.773
 6149W        W72690  28.427   5.655   2.415
 6150W        W72691  15.852  34.011  12.367
 6151W        W72692  33.748  35.770   4.192
 6152W        W72693  24.570  44.132  11.634
 6153W        W72694  17.733   0.361   2.456
 6154W        W72695   3.449  19.176  14.443
 6155W        W72696  19.415   2.743   0.696
 6156W        W72697  34.002  44.500   4.354
 6157W        W72698  25.797  10.355   2.817
 6158W        W72699  29.403  40.920   0.230
 6159W        W72700   8.408  18.637  13.849
 6160W        W72701  31.426   5.982  12.379
 6161W        W72702  18.220  25.072  13.245
 6162W        W72703  38.832  25.448   2.309
 6163W        W72704  35.531  30.842   2.926
 6164W        W72705  22.001  12.612   4.470
 6165W        W72706  22.455  13.386  13.289
 6166W        W72707  10.736  35.609   4.648
 6167W        W72708  26.018  23.087   3.040
 6168W        W72709   8.138  34.019   1.182
 6169W        W72710  26.155   4.875   0.011
 6170W        W72711   0.194  26.092  12.061
 6171W        W72712   1.089  38.988  13.128
 6172W        W72713  24.610  34.149   2.353
 6173W        W72714  32.900   8.062   0.736
 6174W        W72715  17.753  14.193   0.884
 6175W        W72716  20.578  15.867  14.014
 6176W        W72717  12.867  29.214   5.044
 6177W        W72718   5.208  19.202   2.200
 6178W        W72719  39.316  24.018   1.192
 6179W        W72720   0.052  28.588  14.926
 6180W        W72721  36.668  35.380   3.706
 6181W        W72722   4.682  29.421   2.801
 6182W        W72723  41.235  29.855   3.746
 6183W        W72724  28.573  35.075   4.116
 6184W        W72725  13.851  43.980   2.966
 6185W        W72726  26.027  36.848   0.928
 6186W        W72727  42.809  32.623  11.387
 6187W        W72728  29.588  10.398   1.814
 6188W        W72729  31.679  41.084  11.135
 6189W        W72730  44.246   7.716  10.635
 6190W        W72731  18.259  28.915   3.743
 6191W        W72732  18.294  33.883   4.801
 6192W        W72733  36.566  23.472   2.685
 6193W        W72734  19.545  31.514   2.123
 6194W        W72735  37.224  32.816   3.404
 6195W        W72736  44.472  17.253  10.387
 6196W        W72737  20.975  31.799   4.350
 6197W        W72738  25.884  35.542   4.417
 6198W        W72739  28.250  44.265  13.869
 6199W        W72740  28.516  14.892  10.643
 6200W        W72741  13.651  29.512   3.914
 6201W        W72742  17.588   4.433   1.818
 6202W        W72743  35.970  30.694   0.479
 6203W        W72744  21.127  27.229  14.946
 6204W        W72745  25.482   4.649   1.800
 6205W        W72746   4.284  36.160   0.800
 6206W        W72747  24.639  23.932   0.890
 6207W        W72748  42.520  30.048   3.122
 6208W        W72749  28.193  37.777   3.851
 6209W        W72750  39.262   0.394   2.739
 6210W        W72751  42.470  26.430  13.392
 6211W        W72752  14.966  35.559   2.223
 6212W        W72753  30.552  37.942   1.422
 6213W        W72754   3.447   1.345   3.086
 6214W        W72755  21.782  40.897  13.149
 6215W        W72756  16.616  29.929   0.611
 6216W        W72757  27.194  13.336  13.511
 6217W        W72758  10.277   4.957  13.465
 6218W        W72759  38.997  26.279  14.791
 6219W        W72760  26.741  12.680   3.649
 6220W        W72761  37.901  21.998   0.127
 6221W        W72762  13.067  40.207  10.007
 6222W        W72763  30.485  32.485   0.265
 6223W        W72764  18.653   6.723   0.296
 6224W        W72765  15.857  18.127  14.842
 6225W        W72766  44.094  21.056  10.076
 6226W        W72767  34.489  20.790   4.564
 6227W        W72768  32.077  12.113  12.986
 6228W        W72769  28.213  27.757   3.232
 6229W        W72770  27.415  21.996   2.340
 6230W        W72771  26.580  10.630  12.226
 6231W        W72772   1.485  21.727   2.256
 6232W        W72773  29.939   4.497  13.907
 6233W        W72774  13.380   3.389   2.299
 6234W        W72775  34.088  22.544  13.602
 6235W        W72776   5.319  37.882  10.321
 6236W        W72777  23.678  18.249   2.863
 6237W        W72778  37.381  33.065  13.013
 6238W        W72779  17.167  28.070  10.507
 6239W        W72780  28.174  32.962   2.301
 6240W        W72781  14.132  29.285   0.160
 6241W        W72782  17.154  14.873   3.100
 6242W        W72783  27.567  43.801   2.803
 6243W        W72784  27.594   1.245  14.991
 6244W        W72785  20.269  10.381   4.187
 6245W        W72786  36.003  37.022  14.444
 6246W        W72787   4.387  10.232  11.877
 6247W        W72788  28.406  32.142   0.286
 6248W        W72789  11.974  11.821   1.811
 6249W        W72790  40.966  11.792  13.411
 6250W        W72791   5.955   3.610   4.987
 6251W        W72792  16.121  41.993   4.462
 6252W        W72793  42.567  15.885   2.394
 6253W        W72794  22.444  26.860   2.610
 6254W        W72795  27.761  23.116   1.782
 6255W        W72796  43.730  16.168  10.335
 6256W        W72797  21.161  33.861   4.176
 6257W        W72798  32.490   3.584   2.797
 6258W        W72799   4.635   9.118  14.373
 6259W        W72800  37.798  25.218  13.334
 6260W        W72801   0.442  15.939   2.700
 6261W        W72802  17.353   7.693   4.494
 6262W        W72803  33.827  20.150  13.499
 6263W        W72804  26.132  21.176  10.219
 6264W        W72805  35.097  25.591   0.101
 6265W        W72806  39.485  11.646  11.564
 6266W        W72807  22.765   5.000  13.298
 6267W        W72808  29.390   7.927   4.645
 6268W        W72809  40.845  38.810   2.264
 6269W        W72810  43.821  15.224   4.539
 6270W        W72811   6.756  43.875   3.854
 6271W        W72812   3.100  34.925   3.015
 6272W        W72813  15.981  26.244  13.770
 6273W        W72814  12.776  17.963  11.651
 6274W        W72815   8.657  38.713  14.276
 6275W        W72816   9.313   1.176  14.266
 6276W        W72817  17.681  31.091   5.084
 6277W        W72818  25.997  30.504   2.265
 6278W        W72819   2.047  34.916   3.298
 6279W        W72820   5.483  18.229  13.522
 6280W        W72821  33.995  39.601  10.641
 6281W        W72822  13.057   7.971   2.524
 6282W        W72823   8.898  30.335  14.995
 6283W        W72824   0.910  25.664   1.132
 6284W        W72825  34.507   2.592  14.267
 6285W        W72826  20.745   6.916  13.864
 6286W        W72827  39.756  41.300  12.553
 6287W        W72828  18.322  12.065   3.403
 6288W        W72829  38.817  41.334   2.363
 6289W        W72830  27.053  10.365   0.874
 6290W        W72831  23.590  17.237  11.265
 6291W        W72832  36.411  25.732   2.424
 6292W        W72833  43.928  23.446  12.019
 6293W        W72834  34.896  25.836   4.540
 6294W        W72835  14.660  13.257  13.176
 6295W        W72836  24.077   2.474   4.444
 6296W        W72837   7.375   2.824   0.676
 6297W        W72838  15.118  41.744   1.211
 6298W        W72839  39.852  14.865   3.699
 6299W        W72840  31.040  26.665  11.980
 6300W        W72841  26.135   1.022   1.309
 6301W        W72842   3.927  42.475  12.440
 6302W        W72843  17.089  26.758   4.569
 6303W        W72844   4.371  23.122   2.779
 6304W        W72845  15.038  12.345  12.808
 6305W        W72846   7.403  32.710   2.418
 6306W        W72847  33.223  25.583  11.972
 6307W        W72848   3.231  19.299   0.697
 6308W        W72849   9.211  20.687   1.563
 6309W        W72850   2.865   8.172   2.350
 6310W        W72851   9.294  32.624  13.834
 6311W        W72852  33.708  33.592  12.842
 6312W        W72853  30.026  34.487   1.693
 6313W        W72854  37.581   7.554   5.002
 6314W        W72855  13.079  12.425  12.999
 6315W        W72856   2.921   0.694   4.056
 6316W        W72857  27.238   3.837   3.269
 6317W        W72858  26.069  31.865  10.636
 6318W        W72859   7.691   3.712  13.373
 6319W        W72860   5.421  17.703  12.509
 6320W        W72861  17.521  10.316  12.851
 6321W        W72862  23.604  27.604  12.148
 6322W        W72863  18.262  26.005   2.261
 6323W        W72864  33.141  37.575  11.996
 6324W        W72865  34.943  38.208   3.886
 6325W        W72866  25.100  42.704   2.296
 6326W        W72867  25.638   5.677  11.589
 6327W        W72868  36.914  13.969  11.824
 6328W        W72869   6.405   9.767  11.087
 6329W        W72870  17.524  31.465   0.767
 6330W        W72871   4.939  42.871   0.024
 6331W        W72872  36.064  16.651  10.503
 6332W        W72873  15.527  17.705   3.893
 6333W        W72874  35.576  31.534  13.881
 6334W        W72875  10.217   1.494   2.468
 6335W        W72876   3.410  35.964   0.221
 6336W        W72877  12.626   7.893  11.662
 6337W        W72878   4.415  42.809  14.104
 6338W        W72879   2.142  31.493   0.867
 6339W        W72880  30.530  34.507   0.931
 6340W        W72881   9.872  22.683   3.110
 6341W        W72882   3.812   5.815   1.732
 6342W        W72883  31.944  18.147   1.253
 6343W        W72884  18.194  10.800  14.866
 6344W        W72885  29.096  17.599  14.805
 6345W        W72886   0.787  16.792  12.498
 6346W        W72887   4.041  33.579   4.666
 6347W        W72888  25.910   8.588  11.854
 6348W        W72889  43.388   9.824  13.892
 6349W        W72890  25.247  37.029  13.353
 6350W        W72891  13.045  43.428   0.236
 6351W        W72892  18.509  12.164  11.504
 6352W        W72893  43.871  24.132  14.162
 6353W        W72894  36.540  12.389   4.919
 6354W        W72895   4.885  10.677   3.369
 6355W        W72896  41.589   5.519   0.102
 6356W        W72897  37.558   9.213  10.832
 6357W        W72898   8.834  26.741  13.853
 6358W        W72899  37.522   8.824   0.942
 6359W        W72900  14.219  10.026   5.037
 6360W        W72901  35.268  36.804   0.024
 6361W        W72902   6.865   5.750  10.618
 6362W        W72903  41.393  28.227  13.527
 6363W        W72904  41.261  43.425  13.743
 6364W        W72905  37.144   0.874  11.507
 6365W        W72906  34.447  13.775   2.356
 6366W        W72907  32.379  37.281   0.834
 6367W        W72908   7.649  16.615  14.798
 6368W        W72909  18.063  22.422  14.738
 6369W        W72910  24.758  24.686  11.212
 6370W        W72911  26.705  17.523   3.599
 6371W        W72912   1.206  21.942   4.305
 6372W        W72913   9.078  44.352  14.895
 6373W        W72914  34.982  39.774  10.724
 6374W        W72915  30.678  27.542  11.149
 6375W        W72916  23.698  41.927   0.751
 6376W        W72917  29.187  23.804  14.131
 6377W        W72918  40.953  34.918   3.140
 6378W        W72919  15.737  33.918  11.861
 6379W        W72920   6.522  26.958  11.488
 6380W        W72921  38.189   4.772   1.552
 6381W        W72922   7.894  13.761  10.493
 6382W        W72923  11.453  15.943   1.999
 6383W        W72924  21.661  42.503   4.581
 6384W        W72925  39.202  12.118  12.947
 6385W        W72926  34.064   6.841  13.178
 6386W        W72927  29.632   9.726   0.223
 6387W        W72928  21.042  23.793   2.750
 6388W        W72929  12.138  18.068  12.949
 6389W        W72930  13.670  28.394  11.518
 6390W        W72931  39.394   2.313   0.013
 6391W        W72932  30.932  39.386   4.038
 6392W        W72933   9.318  13.705  11.557
 6393W        W72934  11.291   0.680   0.301
 6394W        W72935  17.261  25.099   0.953
 6395W        W72936  32.152  32.216   2.121
 6396W        W72937  14.229  27.132  11.558
 6397W        W72938  14.481  16.076   4.032
 6398W        W72939   6.670  21.975  11.155
 6399W        W72940  36.991   8.839   1.938
 6400W        W72941  13.589  36.265  11.600
 6401W        W72942  36.163   7.633   4.710
 6402W        W72943  31.558   7.787   4.644
 6403W        W72944  18.231   6.714   2.861
 6404W        W72945   7.287   7.233  13.782
 6405W        W72946  26.087  42.235  14.810
 6406W        W72947  28.927  32.472   2.307
 6407W        W72948  30.565  34.439   0.403
 6408W        W72949  38.846   4.093  11.492
 6409W        W72950  28.894  22.500  12.904
 6410W        W72951  38.897  15.713   3.153
 6411W        W72952  23.125  33.277   0.543
 6412W        W72953  29.772  12.728   1.474
 6413W        W72954  41.565  37.297   1.683
 6414W        W72955  36.364   6.805  13.336
 6415W        W72956  27.498   0.320   4.168
 6416W        W72957  32.657  37.017  13.534
 6417W        W72958  11.440  16.258   4.263
 6418W        W72959   5.172  11.819   3.363
 6419W        W72960  16.610  25.067   0.420
 6420W        W72961  44.354  14.710  14.697
 6421W        W72962  16.711   2.766   4.728
 6422W        W72963  11.262  28.008   1.459
 6423W        W72964   8.790  33.790   2.723
 6424W        W72965  43.264  10.138   3.982
 6425W        W72966  25.072  30.936  10.631
 6426W        W72967  44.836   3.788  11.389
 6427W        W72968   4.894  35.063   3.051
 6428W        W72969  38.671  14.056   2.356
 6429W        W72970  20.695  10.488  12.348
 6430W        W72971  21.786   0.056  13.533
 6431W        W72972  14.990   1.353   3.719
 6432W        W72973  18.124  36.644   4.574
 6433W        W72974   0.576   3.445  10.097
 6434W        W72975  21.933  26.790   2.681
 6435W        W72976  13.567  39.972  11.696
 6436W        W72977  15.704   6.845   2.606
 6437W        W72978  18.229   8.428  14.904
 6438W        W72979  19.071   3.630  13.420
 6439W        W72980  21.557  39.528  12.197
 6440W        W72981  12.949  40.534  10.410
 6441W        W72982   1.279  24.050  11.883
 6442W        W72983  40.926  42.762  14.883
 6443W        W72984  19.364  33.528   3.088
 6444W        W72985   8.148  27.892  13.401
 6445W        W72986  40.585   1.767   3.633
 6446W        W72987  14.688  37.456   2.364
 6447W        W72988  34.969  24.291  14.832
 6448W        W72989  36.567  39.445   1.313
 6449W        W72990  16.707   3.681  11.103
 6450W        W72991  10.590   3.632  14.478
 6451W        W72992  23.444   4.020   1.850
 6452W        W72993  25.978  20.057   0.280
 6453W        W72994  28.903  38.044   4.793
 6454W        W72995  13.371  10.730   1.775
 6455W        W72996  14.576   3.268  10.453
 6456W        W72997  17.383  29.387   0.752
 6457W        W72998  19.011  34.853   1.909
 6458W        W72999   8.526  15.778   5.254
 6459W        W73000  10.780   4.882   1.722
 6460W        W73001  33.460  20.662   2.293
 6461W        W73002  42.253  29.675   0.733
 6462W        W73003  14.341   8.794  10.655
 6463W        W73004  35.437  28.290  14.971
 6464W        W73005  39.605  22.041   2.613
 6465W        W73006   7.956   3.364  14.178
 6466W        W73007  16.159  19.069   3.668
 6467W        W73008   0.567  23.073   4.932
 6468W        W73009   7.766  11.313   3.122
 6469W        W73010  26.966   6.473   1.860
 6470W        W73011   6.026  36.488   0.166
 6471W        W73012  40.198  29.658   1.400
 6472W        W73013  16.382  31.402   3.186
 6473W        W73014  24.676  21.756   2.705
 6474W        W73015  27.695   5.301  13.389
 6475W        W73016  14.877   2.421   0.723
 6476W        W73017   1.038   6.943  12.868
 6477W        W73018  17.766  12.593  14.242
 6478W        W73019  30.653  19.606  13.345
 6479W        W73020  20.360  12.751   3.695
 6480W        W73021  11.670  12.217  10.699
 6481W        W73022  39.005  36.112  10.807
 6482W        W73023   2.641  25.638  11.902
 6483W        W73024   6.406  36.505  12.146
 6484W        W73025  18.647  25.722  12.771
 6485W        W73026  26.768  29.655  11.966
 6486W        W73027   4.571  13.360   0.785
 6487W        W73028   8.783  34.115  10.554
 6488W        W73029  29.469  16.814   2.928
 6489W        W73030  23.794  28.184  14.293
 6490W        W73031  39.480  18.283  10.952
 6491W        W73032   9.359   6.772   2.671
 6492W        W73033  25.023  29.679  11.823
 6493W        W73034  41.052  17.245   1.684
 6494W        W73035  32.921  44.428  10.679
 6495W        W73036   8.855  17.877   1.303
 6496W        W73037  33.155  42.799  11.111
 6497W        W73038  37.522  25.223   2.441
 6498W        W73039  15.364  39.105   4.180
 6499W        W73040  37.713  41.412  12.433
 6500W        W73041  38.077   3.014  11.564
 6501W        W73042  16.156  41.809   3.442
 6502W        W73043  20.699  39.070  10.728
 6503W        W73044  19.459  31.351   3.813
 6504W        W73045  23.542  23.429  13.005
 6505W        W73046  14.953   1.867  11.190
 6506W        W73047   9.646  38.932  14.393
 6507W        W73048  27.916  16.794   1.583
 6508W        W73049  40.770  16.411   2.221
 6509W        W73050  22.886   8.874   3.556
 6510W        W73051  35.016  32.876   0.717
 6511W        W73052  16.154   4.362   1.571
 6512W        W73053  22.016  21.421   1.873
 6513W        W73054  38.191  30.374   2.856
 6514W        W73055  37.776  16.757   0.393
 6515W        W73056  11.163  38.029  10.524
 6516W        W73057   2.438  32.473   0.843
 6517W        W73058  14.404  26.954  12.007
 6518W        W73059  25.917  36.317   4.909
 6519W        W73060  17.085  24.163   4.178
 6520W        W73061  40.443   4.267  11.648
 6521W        W73062  40.998  10.250  12.599
 6522W        W73063  38.917  23.909   0.894
 6523W        W73064  38.462  39.851   4.773
 6524W        W73065   1.990  17.774  14.225
 6525W        W73066   2.681  15.649   0.408
 6526W        W73067  25.977  11.270   0.591
 6527W        W73068  33.823  28.479  11.890
 6528W        W73069  27.666  29.207  14.868
 6529W        W73070  25.205  44.526  12.077
 6530W        W73071  39.848  27.398   1.854
 6531W        W73072  35.559  42.415   0.752
 6532W        W73073  15.390  40.072   4.773
 6533W        W73074  29.748  40.628  14.196
 6534W        W73075   2.808  23.954  11.462
 6535W        W73076   0.550  38.285  12.608
 6536W        W73077  41.647  41.860  14.128
 6537W        W73078   3.662  32.697   5.244
 6538W        W73079  23.609  29.930   0.518
 6539W        W73080  22.497   0.007  13.771
 6540W        W73081  16.811   0.258   4.357
 6541W        W73082  39.335   8.460  11.558
 6542W        W73083  30.025  25.803  13.037
 6543W        W73084   9.115   4.759  11.830
 6544W        W73085  15.822  25.027  14.976
 6545W        W73086   7.174  25.180   0.555
 6546W        W73087   2.263  43.800   0.801
 6547W        W73088  31.044  21.140  12.911
 6548W        W73089  14.495  20.532   2.323
 6549W        W73090  37.838  37.516   0.407
 6550W        W73091   9.029  42.973   4.858
 6551W        W73092  34.092   6.865  12.661
 6552W        W73093   6.008  15.272   1.766
 6553W        W73094  39.863  10.097  14.401
 6554W        W73095  16.779  35.803  12.869
 6555W        W73096  32.931  12.875  13.530
 6556W        W73097  20.592  44.489   0.263
 6557W        W73098  34.163  41.837  13.206
 6558W        W73099  30.915  24.037   0.723
 6559W        W73100   3.600  36.098  10.000
 6560W        W73101  25.013  14.729  13.043
 6561W        W73102   3.998  38.863  13.979
 6562W        W73103  12.665  28.971  12.483
 6563W        W73104   1.127  44.239  12.848
 6564W        W73105   3.222   1.888  12.969
 6565W        W73106  23.238  25.714  13.343
 6566W        W73107  25.185  39.347  12.078
 6567W        W73108  28.020  17.526  11.006
 6568W        W73109  30.613  21.353  13.109
 6569W        W73110  20.031  17.121   0.828
 6570W        W73111  35.491  33.668   3.321
 6571W        W73112  42.374  11.690  13.348
 6572W        W73113  17.246  33.944  12.328
 6573W        W73114  43.538  10.253   1.734
 6574W        W73115  28.120  39.777   0.846
 6575W        W73116  17.758   0.427  10.380
 6576W        W73117  24.215   4.490  12.889
 6577W        W73118   2.109  28.947   2.802
 6578W        W73119  38.599  31.542  13.064
 6579W        W73120  15.870  14.742   2.888
 6580W        W73121  20.265  21.077   1.724
 6581W        W73122  39.939  26.303  14.891
 6582W        W73123  28.315  18.625  10.649
 6583W        W73124  41.424  40.365  14.629
 6584W        W73125  24.931  33.682   3.046
 6585W        W73126   7.922   5.176   2.772
 6586W        W73127  29.552   2.845   4.940
 6587W        W73128  43.090  29.418  11.496
 6588W        W73129  26.415  20.111   1.409
 6589W        W73130   3.640   1.500  12.385
 6590W        W73131  21.213  42.938  11.179
 6591W        W73132  14.274  14.775  10.567
 6592W        W73133  25.150  26.531  11.324
 6593W        W73134  12.127  28.086   0.439
 6594W        W73135  10.653  31.376   3.869
 6595W        W73136  37.021  27.321   1.885
 6596W        W73137   5.701  44.006   1.894
 6597W        W73138  34.417   6.569   3.823
 6598W        W73139  11.817  15.993   9.990
 6599W        W73140  38.598  31.490   2.261
 6600W        W73141  29.840   7.655   4.529
 6601W        W73142  18.591   0.180   4.521
 6602W        W73143  43.324  42.001  11.717
 6603W        W73144  34.035  22.219   1.771
 6604W        W73145  41.899  21.935   1.416
 6605W        W73146  28.492   0.493   4.337
 6606W        W73147  36.982   9.926  10.407
 6607W        W73148  23.387  42.345   0.887
 6608W        W73149  38.264  14.787   4.155
 6609W        W73150  28.233  34.673  12.546
 6610W        W73151  16.281   0.312  11.964
 6611W        W73152  37.890   7.762   0.264
 6612W        W73153  20.523  31.410  12.075
 6613W        W73154  19.822  38.656  12.947
 6614W        W73155   0.533  11.619  11.622
 6615W        W73156   2.942  14.645   3.267
 6616W        W73157  22.091   7.346   3.722
 6617W        W73158  24.520   1.943   1.748
 6618W        W73159  24.629  26.070   2.355
 6619W        W73160   2.250   5.401  13.484
 6620W        W73161  30.028   5.355   2.196
 6621W        W73162  28.093  11.849  12.063
 6622W        W73163  27.456  24.194   4.402
 6623W        W73164  21.599  44.375  12.695
 6624W        W73165  33.740   3.868  11.140
 6625W        W73166  43.371  41.504  11.484
 6626W        W73167   8.432  37.150   5.468
 6627W        W73168   6.751  16.167  11.609
 6628W        W73169  41.242   0.821  11.679
 6629W        W73170  40.073  11.222   3.759
 6630W        W73171   5.971  22.404   1.560
 6631W        W73172  23.219   8.801   3.165
 6632W        W73173  44.072   0.454  10.632
 6633W        W73174  37.622   1.227  13.333
 6634W        W73175  15.174  30.239  12.899
 6635W        W73176   0.276  19.163  13.112
 6636W        W73177  31.986  13.690   3.094
 6637W        W73178   4.338  23.665  10.644
 6638W        W73179  29.632  42.452   2.760
 6639W        W73180   6.685  29.762   3.276
 6640W        W73181  35.945  41.032  12.541
 6641W        W73182   6.758  43.578   0.700
 6642W        W73183  40.315  22.352   0.450
 6643W        W73184   6.889   7.805   4.607
 6644W        W73185  27.790   5.862   0.410
 6645W        W73186   5.807   3.377   1.479
 6646W        W73187   0.547  24.616  12.580
 6647W        W73188  35.111  32.283  14.319
 6648W        W73189  40.777   3.484   0.267
 6649W        W73190  35.047  40.075  14.444
 6650W        W73191  40.728  44.387   0.445
 6651W        W73192  43.428  28.289  14.543
 6652W        W73193  21.076   2.254  12.054
 6653W        W73194  26.059  22.607   3.926
 6654W        W73195  38.383  27.116   1.842
 6655W        W73196  36.455  32.842   4.533
 6656W        W73197   7.966  20.344  13.403
 6657W        W73198  37.450   0.325  10.380
 6658W        W73199   7.641  37.485  12.017
 6659W        W73200  18.531   1.045  10.159
 6660W        W73201   5.992  41.235   0.676
 6661W        W73202  36.575  26.471  10.672
 6662W        W73203  17.219   6.297  11.173
 6663W        W73204   0.396  42.897  10.469
 6664W        W73205  35.287  27.328   0.073
 6665W        W73206  21.820  24.907   0.974
 6666W        W73207  12.272   9.102   4.536
 6667W        W73208  42.987  35.789  13.493
 6668W        W73209  23.325  37.325  14.471
 6669W        W73210   4.636  31.801  14.748
 6670W        W73211  10.745  38.849   4.370
 6671W        W73212  20.613   4.177  12.930
 6672W        W73213  13.776  34.273   1.821
 6673W        W73214   6.787  25.530   3.246
 6674W        W73215   1.717  30.562   2.700
 6675W        W73216  13.625  34.460  14.801
 6676W        W73217  17.594   9.373  10.651
 6677W        W73218  12.834  15.065   3.823
 6678W        W73219   7.092  12.292  11.476
 6679W        W73220  13.741  40.341   1.484
 6680W        W73221  18.528  27.933   4.889
 6681W        W73222  15.257  26.485   0.822
 6682W        W73223   2.893  33.442  13.844
 6683W        W73224  43.529  18.699   2.185
 6684W        W73225   8.315  10.306   2.898
 6685W        W73226  33.223  23.466   3.567
 6686W        W73227  11.124  24.592   4.106
 6687W        W73228  31.427  14.686   1.374
 6688W        W73229  23.123   7.822   0.887
 6689W        W73230  34.180  11.268   1.926
 6690W        W73231  13.148   0.054   0.828
 6691W        W73232  21.186  27.750  11.390
 6692W        W73233  19.216  38.083  14.645
 6693W        W73234  40.294  35.514   2.600
 6694W        W73235  17.680  12.450   1.770
 6695W        W73236  33.923  40.114  10.692
 6696W        W73237  27.175  41.735  12.653
 6697W        W73238  24.450  36.045   2.360
 6698W        W73239  18.674  17.707   0.997
 6699W        W73240  11.244  38.006   4.082
 6700W        W73241  40.805  32.584  14.166
 6701W        W73242  22.011  21.962   2.587
 6702W        W73243  31.784  42.014   0.264
 6703W        W73244  11.670  26.812  10.239
 6704W        W73245   7.901   1.208   2.098
 6705W        W73246  11.055   2.379   0.191
 6706W        W73247  28.426  13.330  11.565
 6707W        W73248  23.127  25.322   3.673
 6708W        W73249  39.828   1.963   3.184
 6709W        W73250  34.182  19.319  14.978
 6710W        W73251   6.386   8.136   1.724
 6711W        W73252  10.219   8.010   4.118
 6712W        W73253  22.340  30.630   3.253
 6713W        W73254  34.434  21.796   4.746
 6714W        W73255   4.020  30.704   1.414
 6715W        W73256  38.047  36.022  12.562
 6716W        W73257  24.807  16.817   0.550
 6717W        W73258   0.713   5.160  14.770
 6718W        W73259  17.809  37.387   3.689
 6719W        W73260  31.081  22.462  10.768
 6720W        W73261  17.558   1.947  14.572
 6721W        W73262  27.931   1.930  10.776
 6722W        W73263  26.216  43.232  14.897
 6723W        W73264  38.896  31.530   3.880
 6724W        W73265  39.902   5.885   0.025
 6725W        W73266  43.209  43.926   3.220
 6726W        W73267  44.912  22.725   2.174
 6727W        W73268  25.173  11.860   4.113
 6728W        W73269   5.927  17.810   3.308
 6729W        W73270  17.204  31.918   2.290
 6730W        W73271   0.500  43.270  14.383
 6731W        W73272   2.120  16.581  10.217
 6732W        W73273  20.705  34.076   4.059
 6733W        W73274  10.469   6.408   4.710
 6734W        W73275  11.829   6.629   4.083
 6735W        W73276  35.573  33.912   0.363
 6736W        W73277  25.522  22.266   0.462
 6737W        W73278  20.581  29.906  11.983
 6738W        W73279  10.432  33.133  12.541
 6739W        W73280   9.215   5.860  14.881
 6740W        W73281  24.987  18.964   1.509
 6741W        W73282  19.830  36.352   1.038
 6742W        W73283  40.259  15.264   2.105
 6743W        W73284  34.914  29.600  11.690
 6744W        W73285  36.888  33.679   3.114
 6745W        W73286  40.878  36.357   4.628
 6746W        W73287  32.869  44.795   4.728
 6747W        W73288   7.083  41.127   0.022
 6748W        W73289  23.798  15.062  13.826
 6749W        W73290  27.404  10.194  14.936
 6750W        W73291  35.070  16.135  13.041
 6751W        W73292  21.674  27.451   2.857
 6752W        W73293  40.089  22.685  11.052
 6753W        W73294  35.042  36.351  14.941
 6754W        W73295  15.820  33.613  14.415
 6755W        W73296  40.406  15.523  14.318
 6756W        W73297  38.824   1.372  14.734
 6757W        W73298  43.267  35.523  12.841
 6758W        W73299  33.141  31.659  11.623
 6759W        W73300   4.727  17.979  14.923
 6760W        W73301  13.306  16.623   0.771
 6761W        W73302  23.507  17.309   1.827
 6762W        W73303  43.975  13.340  11.609
 6763W        W73304  25.945  13.671  12.827
 6764W        W73305  23.412  18.821  13.684
 6765W        W73306  17.693  14.043  12.672
 6766W        W73307  28.518  25.508  11.492
 6767W        W73308  29.603  26.578  11.298
 6768W        W73309  21.135  16.630  10.611
 6769W        W73310   5.821  13.367   4.348
 6770W        W73311   6.907  40.257  12.065
 6771W        W73312  23.956  28.052  11.958
 6772W        W73313  27.521   8.192   0.865
 6773W        W73314  36.481  14.765   0.473
 6774W        W73315  15.994  23.659   2.187
 6775W        W73316   6.071  34.703   1.358
 6776W        W73317  25.724  10.237  13.315
 6777W        W73318   8.517  25.780   4.578
 6778W        W73319  11.011  27.021  11.258
 6779W        W73320  27.169  25.965   1.175
 6780W        W73321   3.156   4.845   2.385
 6781W        W73322  20.051  12.436  14.819
 6782W        W73323  39.969  38.077   3.707
 6783W        W73324   1.729  32.553   2.606
 6784W        W73325  16.063  34.887   1.614
 6785W        W73326  22.461  24.417   3.719
 6786W        W73327  22.451   6.013   3.745
 6787W        W73328  16.144   9.174  13.950
 6788W        W73329  34.957  30.129  12.833
 6789W        W73330  38.946   9.606   2.657
 6790W        W73331  44.416  44.977   2.240
 6791W        W73332   5.650  13.222   2.640
 6792W        W73333  32.694  22.486  11.922
 6793W        W73334  40.386   9.320  12.280
 6794W        W73335  41.242  37.508   4.138
 6795W        W73336  20.464   8.282   5.163
 6796W        W73337  31.160  43.714   4.310
 6797W        W73338  39.312   7.578  14.936
 6798W        W73339  37.681   6.164  10.930
 6799W        W73340  37.758   6.408  11.833
 6800W        W73341  11.824  37.022  11.246
 6801W        W73342   5.823   7.622   3.686
 6802W        W73343  39.538  21.917  13.986
 6803W        W73344  40.131  25.093   0.483
 6804W        W73345   1.294  33.730   1.158
 6805W        W73346  42.389  15.226   3.080
 6806W        W73347  24.238  19.586  11.151
 6807W        W73348  31.768   3.591   2.788
 6808W        W73349  36.542  42.169  14.688
 6809W        W73350  26.087  44.475   3.132
 6810W        W73351   0.646  27.795   4.271
 6811W        W73352  17.713  34.957   2.207
 6812W        W73353  39.533  28.284  11.945
 6813W        W73354  15.868  29.087   3.704
 6814W        W73355  18.120  15.136   0.748
 6815W        W73356  18.745  22.459  13.651
 6816W        W73357  37.469   8.304  10.947
 6817W        W73358  42.685  20.043  13.108
 6818W        W73359   7.155   8.637  11.113
 6819W        W73360  38.548  43.034  13.522
 6820W        W73361  29.671  15.096   4.056
 6821W        W73362   0.459  37.443  12.257
 6822W        W73363  38.847  36.722  13.081
 6823W        W73364  21.987  41.395  14.769
 6824W        W73365   7.503  23.514  11.687
 6825W        W73366  14.290  10.016  13.428
 6826W        W73367  11.959  22.666  12.146
 6827W        W73368   4.841  14.761   1.725
 6828W        W73369  10.734   2.367   3.379
 6829W        W73370  35.944   1.238   1.464
 6830W        W73371  23.287  30.503  12.869
 6831W        W73372  34.561  14.751   2.436
 6832W        W73373   7.659  25.199  11.630
 6833W        W73374  20.759  23.536  12.624
 6834W        W73375  30.417  30.181  13.838
 6835W        W73376  18.589  12.933   2.243
 6836W        W73377  23.997  22.557   2.613
 6837W        W73378   3.225  16.202  11.982
 6838W        W73379  11.279  27.921  11.629
 6839W        W73380  27.250  38.573  13.815
 6840W        W73381  21.993   5.846  11.806
 6841W        W73382  44.846  33.851   3.267
 6842W        W73383  37.250  11.175   1.951
 6843W        W73384  31.638   9.733   2.224
 6844W        W73385  12.513  27.606   1.456
 6845W        W73386  17.848   3.244  12.991
 6846W        W73387   4.403  22.094   3.512
 6847W        W73388  30.718   3.838   0.104
 6848W        W73389  39.055   0.965  10.428
 6849W        W73390  13.099  12.726   4.652
 6850W        W73391  32.845  16.612   3.338
 6851W        W73392   6.303  33.050   4.762
 6852W        W73393  39.289  44.422  10.635
 6853W        W73394  17.570  10.161   2.637
 6854W        W73395  38.334  14.709   1.790
 6855W        W73396  28.674   0.297  12.825
 6856W        W73397   1.262  32.379   0.786
 6857W        W73398  36.057   5.387  11.408
 6858W        W73399  35.643  42.370   3.710
 6859W        W73400  20.771   8.290   2.620
 6860W        W73401  14.614  17.517  14.885
 6861W        W73402  43.813   8.947  12.941
 6862W        W73403  19.780  24.638  10.773
 6863W        W73404   6.936  17.622   3.205
 6864W        W73405  29.044  25.637   4.524
 6865W        W73406  24.446  32.658  14.549
 6866W        W73407   3.976  28.427   0.770
 6867W        W73408  38.480  17.693   0.849
 6868W        W73409   8.336  39.930   0.206
 6869W        W73410  28.778   7.106  11.489
 6870W        W73411  43.431  37.996   1.928
 6871W        W73412  20.694  16.868  10.863
 6872W        W73413   4.750  42.985   2.724
 6873W        W73414   6.433  40.892   3.703
 6874W        W73415   5.200  42.050  14.031
 6875W        W73416   2.373  22.512  13.302
 6876W        W73417  27.559  17.529   3.113
 6877W        W73418  22.488  17.938   1.928
 6878W        W73419  23.731  31.767  12.506
 6879W        W73420  30.044  24.492   0.387
 6880W        W73421   9.674  27.899   3.618
 6881W        W73422   9.574  24.067  12.376
 6882W        W73423  17.146  44.245  10.879
 6883W        W73424  26.708  19.702  11.709
 6884W        W73425  29.307   1.350   1.891
 6885W        W73426  29.663   4.730  10.133
 6886W        W73427  25.711  44.756  13.395
 6887W        W73428  26.990  41.915  13.435
 6888W        W73429   9.140  31.447  13.441
 6889W        W73430  44.526   3.865   3.052
 6890W        W73431  35.035  11.397   2.307
 6891W        W73432  11.550  25.956  14.832
 6892W        W73433  25.840   2.911  13.171
 6893W        W73434  10.631  40.935   2.423
 6894W        W73435   8.374  41.290  12.829
 6895W        W73436  10.739  17.582   4.425
 6896W        W73437   2.676  39.435  12.222
 6897W        W73438  30.017  10.150   0.919
 6898W        W73439   0.231  38.472  13.044
 6899W        W73440   9.675  23.980  11.887
 6900W        W73441  20.181  18.774   2.485
 6901W        W73442  44.938   7.295   3.383
 6902W        W73443  10.876   4.461  12.012
 6903W        W73444  11.508   0.999  11.822
 6904W        W73445   5.079  18.096  12.737
 6905W        W73446  36.061   0.250  11.077
 6906W        W73447  41.749  40.290  10.681
 6907W        W73448  27.315  34.343  13.010
 6908W        W73449  35.338  17.747   0.263
 6909W        W73450  23.672   3.331  12.662
 6910W        W73451  32.684  32.536  11.552
 6911W        W73452  37.475  12.744  12.617
 6912W        W73453  44.454  11.685   2.668
 6913W        W73454  18.483  35.866   2.789
 6914W        W73455  29.397  22.218  14.745
 6915W        W73456  17.804  16.636  13.241
 6916W        W73457   7.947  34.349   1.535
 6917W        W73458  38.080  16.383  10.251
 6918W        W73459  20.232  29.162  10.242
 6919W        W73460   7.054   3.911   5.032
 6920W        W73461  31.457   4.524  10.103
 6921W        W73462   6.927  22.440  11.203
 6922W        W73463  38.576  40.773  14.730
 6923W        W73464  28.900   9.096   0.264
 6924W        W73465   6.465   8.131  13.653
 6925W        W73466  19.605  10.254   3.754
 6926W        W73467  12.948  29.360   2.339
 6927W        W73468  33.485  12.314  13.098
 6928W        W73469   8.864  42.684  10.125
 6929W        W73470  43.046  44.746  11.102
 6930W        W73471  22.630  13.135  12.054
 6931W        W73472   2.745  25.371   0.186
 6932W        W73473  17.653  37.429   0.477
 6933W        W73474   6.016   2.836   0.737
 6934W        W73475  33.850   6.371   3.271
 6935W        W73476  19.283  27.545  13.464
 6936W        W73477  10.787   2.878  14.897
 6937W        W73478  20.529   5.757   3.914
 6938W        W73479   4.829   7.448  12.425
 6939W        W73480  36.925   0.902   0.699
 6940W        W73481  37.654   4.328  12.199
 6941W        W73482  14.573  37.372   4.135
 6942W        W73483   7.896   7.315   0.027
 6943W        W73484  28.071  41.509  13.414
 6944W        W73485  43.028  18.727  11.688
 6945W        W73486  29.463  29.146  13.408
 6946W        W73487  15.684  40.539  14.480
 6947W        W73488   7.820   7.200   2.803
 6948W        W73489  20.545  24.878   0.681
 6949W        W73490   1.840  37.373   1.308
 6950W        W73491  29.159  34.366  12.508
 6951W        W73492  37.185  12.632  11.244
 6952W        W73493  11.079  27.227   1.728
 6953W        W73494  43.534   1.288   2.879
 6954W        W73495  20.743   6.344   2.729
 6955W        W73496  24.088  40.130  11.955
 6956W        W73497  19.656  16.183   5.034
 6957W        W73498  22.991  31.120   1.694
 6958W        W73499  13.599  12.068   3.768
 6959W        W73500  41.836   2.457   3.323
 6960W        W73501   9.268  11.069  11.994
 6961W        W73502   8.720   9.681   3.336
 6962W        W73503  40.738  43.798   3.754
 6963W        W73504  30.660  20.064  14.840
 6964W        W73505  33.872   5.467  11.892
 6965W        W73506   6.412  28.600  13.769
 6966W        W73507   6.893  33.447   0.505
 6967W        W73508  14.656  33.698  12.079
 6968W        W73509  36.851  14.700  10.721
 6969W        W73510  41.553  44.003   1.469
 6970W        W73511  12.652  18.544   0.442
 6971W        W73512   0.370   4.267   3.750
 6972W        W73513  22.926  36.905  10.776
 6973W        W73514  31.085  18.627   4.069
 6974W        W73515  31.143   0.810   1.709
 6975W        W73516  40.868   5.976   1.983
 6976W        W73517  12.078  44.263   4.263
 6977W        W73518  26.017  29.672  12.898
 6978W        W73519  33.848  18.827  12.410
 6979W        W73520  22.217  27.015  13.392
 6980W        W73521  29.212  12.235  12.901
 6981W        W73522   0.729  18.115   2.870
 6982W        W73523  44.584  29.262  11.656
 6983W        W73524  44.986   5.182   0.324
 6984W        W73525   1.042  15.683   1.837
 6985W        W73526  31.599   8.729   2.181
 6986W        W73527  23.479  19.290  12.211
 6987W        W73528  43.839  44.502   4.204
 6988W        W73529  31.587  18.571   4.221
 6989W        W73530   9.687  27.558  14.838
 6990W        W73531  32.831  19.063   4.208
 6991W        W73532  27.435  42.033   1.734
 6992W        W73533  42.802  15.413   2.333
 6993W        W73534  16.767  27.957  14.950
 6994W        W73535  22.724  16.078   2.401
 6995W        W73536  23.743  42.194  14.905
 6996W        W73537  36.048  18.667   5.048
 6997W        W73538  33.919  14.087   9.555
 6998W        W73539  40.666   3.202  11.130
 6999W        W73540  28.389  30.048   1.967
 7000W        W73541   2.940   1.080  13.289
 7001W        W73542   9.850  16.558  12.900
 7002W        W73543  35.858   8.347   4.108
 7003W        W73544   8.674  38.329   0.017
 7004W        W73545  43.504   0.221   2.820
 7005W        W73546  40.509   5.669  12.556
 7006W        W73547  43.498   9.009  14.252
 7007W        W73548  26.109  33.060  12.890
 7008W        W73549  10.619  11.195   2.864
 7009W        W73550  31.903   3.852   1.679
 7010W        W73551  34.581  10.894  11.483
 7011W        W73552  16.779  42.194   3.249
 7012W        W73553  37.790  28.986  14.853
 7013W        W73554  11.786  34.535   0.296
 7014W        W73555  26.997  21.082   0.238
 7015W        W73556  19.380  22.453  11.102
 7016W        W73557  35.873  23.795   2.249
 7017W        W73558   4.713  15.081  13.838
 7018W        W73559  44.613  42.880   0.675
 7019W        W73560  36.830   3.974  11.474
 7020W        W73561  38.071  27.626   3.670
 7021W        W73562  38.384  35.672   2.650
 7022W        W73563  15.604  13.098   0.280
 7023W        W73564   3.809  30.840   3.203
 7024W        W73565  12.759  21.566  11.502
 7025W        W73566  35.046   5.480  10.414
 7026W        W73567  26.972  13.131   1.329
 7027W        W73568  37.866   7.704   3.732
 7028W        W73569  24.615  13.597   1.062
 7029W        W73570  23.580  40.850  13.587
 7030W        W73571  32.280   2.584   9.984
 7031W        W73572  25.457   8.653   1.196
 7032W        W73573  40.259  13.422  11.233
 7033W        W73574  12.180   5.299  12.342
 7034W        W73575  32.226   2.714   2.691
 7035W        W73576  31.800  19.454  14.034
 7036W        W73577  11.938  21.705   4.700
 7037W        W73578  17.641  30.964   4.212
 7038W        W73579  27.189  34.969  12.541
 7039W        W73580   7.381  35.183   3.277
 7040W        W73581   8.848  39.972   0.313
 7041W        W73582  37.075  20.516   1.453
 7042W        W73583   5.934  37.057  12.616
 7043W        W73584   7.339  10.602   4.207
 7044W        W73585  31.624  20.975  10.794
 7045W        W73586  20.605  28.023   0.542
 7046W        W73587  37.990  30.652  10.754
 7047W        W73588  39.321  16.179   1.163
 7048W        W73589  31.001  41.836  14.140
 7049W        W73590  35.013  10.863   2.418
 7050W        W73591  37.325   3.308  12.395
 7051W        W73592  30.597   4.038  14.332
 7052W        W73593  21.729  38.374  11.565
 7053W        W73594  23.999  29.295   1.007
 7054W        W73595  21.453  11.255  13.795
 7055W        W73596  24.230  18.615   2.424
 7056W        W73597  26.704  17.117  13.824
 7057W        W73598  42.649  30.090   2.188
 7058W        W73599   9.209  24.256   4.240
 7059W        W73600  31.570   5.221   4.554
 7060W        W73601  43.090  43.281  12.883
 7061W        W73602  14.617  28.995   4.133
 7062W        W73603  34.136  43.338   0.349
 7063W        W73604  32.693  29.882   1.835
 7064W        W73605  20.978  15.580  10.631
 7065W        W73606  34.070  22.764   2.832
 7066W        W73607  16.107  14.466  12.942
 7067W        W73608  42.775  42.985   0.918
 7068W        W73609   4.270  11.259   1.280
 7069W        W73610  10.294  19.548   1.579
 7070W        W73611  22.779  13.398  12.466
 7071W        W73612  14.410   0.711   3.745
 7072W        W73613  23.122   1.294  12.035
 7073W        W73614  25.820  27.989  12.958
 7074W        W73615  22.533  42.593  13.904
 7075W        W73616  18.542  40.246  14.886
 7076W        W73617  10.233   4.205   2.479
 7077W        W73618  28.076   1.273   4.505
 7078W        W73619  32.067  27.082  12.082
 7079W        W73620  19.607  27.719  11.138
 7080W        W73621  12.144  20.028  12.025
 7081W        W73622  21.857  14.245  13.972
 7082W        W73623  44.358  21.665  12.162
 7083W        W73624  30.002  26.845   2.864
 7084W        W73625  39.386  35.678   3.258
 7085W        W73626  17.711  23.479   2.837
 7086W        W73627   4.487  26.261  10.268
 7087W        W73628   1.990  18.339   2.653
 7088W        W73629   8.833  43.447   4.586
 7089W        W73630   4.831  42.260  11.851
 7090W        W73631   6.332  44.400  10.196
 7091W        W73632  18.033  32.313   0.641
 7092W        W73633  21.255  40.789   0.287
 7093W        W73634   9.638  19.009   2.936
 7094W        W73635  40.906  11.794   4.033
 7095W        W73636  37.319   5.218   2.714
 7096W        W73637  41.988  43.984   3.733
 7097W        W73638  12.761   0.910  11.470
 7098W        W73639  22.497  22.915   2.813
 7099W        W73640  29.637  31.006   3.720
 7100W        W73641   9.825  24.668   4.225
 7101W        W73642  31.883  16.743  11.285
 7102W        W73643  32.220   1.455   1.325
 7103W        W73644   9.657  36.156  10.751
 7104W        W73645   2.796  33.255  13.372
 7105W        W73646  43.934  17.814   2.884
 7106W        W73647  18.014  16.102   3.125
 7107W        W73648   9.539  44.435   2.946
 7108W        W73649  26.477   3.771   3.594
 7109W        W73650  22.133  27.262  13.846
 7110W        W73651  17.636  29.071  11.517
 7111W        W73652  40.948  15.148  11.464
 7112W        W73653   5.744  27.389   4.523
 7113W        W73654  32.438   0.346   3.700
 7114W        W73655  42.875  39.277  11.798
 7115W        W73656  41.471  18.795   2.737
 7116W        W73657  27.439  28.113  11.127
 7117W        W73658  18.830   5.179   0.447
 7118W        W73659   3.191  35.673  14.401
 7119W        W73660  23.532  23.121  10.628
 7120W        W73661   9.122   9.659   0.901
 7121W        W73662  44.939  16.984  11.143
 7122W        W73663   3.740  36.354   3.548
 7123W        W73664  41.982   2.922   3.475
 7124W        W73665  29.123  12.583  13.774
 7125W        W73666  10.347   5.909  11.740
 7126W        W73667  26.724   2.871   2.081
 7127W        W73668  37.455   6.403   3.529
 7128W        W73669  40.203   9.888   4.204
 7129W        W73670   2.092  37.605  13.513
 7130W        W73671  35.865   8.619  12.889
 7131W        W73672  37.000   7.316   4.241
 7132W        W73673  17.099  29.363  12.934
 7133W        W73674  21.555  26.503  14.628
 7134W        W73675  17.303  15.820   1.917
 7135W        W73676  18.619  31.225  14.012
 7136W        W73677  40.402   0.527   2.116
 7137W        W73678  38.979   4.007   2.526
 7138W        W73679  18.307  31.989   4.559
 7139W        W73680  44.937  18.768   0.074
 7140W        W73681  23.099  41.308  12.837
 7141W        W73682  12.745  15.885  14.953
 7142W        W73683   0.730   1.925   3.247
 7143W        W73684  30.053  11.756   5.080
 7144W        W73685  19.818  25.956  13.510
 7145W        W73686   6.731  15.821   4.702
 7146W        W73687  20.789  31.634   0.533
 7147W        W73688  13.166  19.495  12.375
 7148W        W73689  15.761   6.769  13.144
 7149W        W73690  17.434  35.022  12.052
 7150W        W73691  36.971   6.009   1.812
 7151W        W73692  33.133  20.493  13.286
 7152W        W73693  26.085  37.797   3.173
 7153W        W73694   5.418  24.853   3.091
 7154W        W73695  24.075  29.932   4.963
 7155W        W73696  16.363  15.324   1.729
 7156W        W73697  23.566  22.429   2.287
 7157W        W73698  26.094  41.920  12.141
 7158W        W73699   1.057   3.014   4.362
 7159W        W73700   7.130   5.846  11.180
 7160W        W73701   9.641  35.792  13.069
 7161W        W73702  38.132  21.861   4.859
 7162W        W73703  44.494   4.174   1.969
 7163W        W73704   2.923  19.830  14.282
 7164W        W73705   5.872   4.362   3.842
 7165W        W73706  21.550  10.629  14.863
 7166W        W73707  41.095  10.848   9.805
 7167W        W73708  31.368  40.526   1.218
 7168W        W73709   7.191  30.337  12.209
 7169W        W73710  33.617   4.487  11.436
 7170W        W73711  37.758  32.298  11.957
 7171W        W73712  22.628  19.997  10.362
 7172W        W73713   7.386  38.558  14.783
 7173W        W73714  33.153  12.988  12.160
 7174W        W73715  25.283   6.378  13.849
 7175W        W73716   2.011  39.473   2.414
 7176W        W73717  13.382  20.079   0.927
 7177W        W73718  37.824   2.869   3.410
 7178W        W73719   7.296  12.645   4.594
 7179W        W73720  32.556   3.925  12.008
 7180W        W73721  27.891  17.022  14.433
 7181W        W73722  19.759  16.550  12.145
 7182W        W73723  26.184   1.361  13.856
 7183W        W73724  37.381  41.530  12.841
 7184W        W73725  19.242  19.000  11.025
 7185W        W73726  39.111  29.394  13.057
 7186W        W73727  18.832  21.219  10.379
 7187W        W73728  14.286   3.308  12.043
 7188W        W73729  20.571   0.448   0.404
 7189W        W73730   6.706  14.064   4.126
 7190W        W73731   7.656  26.474  12.035
 7191W        W73732  18.790  24.480   3.123
 7192W        W73733  24.149  38.971  13.638
 7193W        W73734  23.450  34.077   3.793
 7194W        W73735   9.639  31.864  12.037
 7195W        W73736  40.895  25.999  12.887
 7196W        W73737  30.076   2.791  12.557
 7197W        W73738  14.936   0.413   4.091
 7198W        W73739  30.460  26.617  11.596
 7199W        W73740  43.763  11.546  11.536
 7200W        W73741  10.138   8.016   2.364
 7201W        W73742  17.668   5.755   2.812
 7202W        W73743  15.573   2.030  12.086
 7203W        W73744  31.472  32.467   0.138
 7204W        W73745  33.346  24.452   4.679
 7205W        W73746  41.299  38.621  10.799
 7206W        W73747   4.850  23.598   1.128
 7207W        W73748   9.443  19.077  11.235
 7208W        W73749   5.002  30.459  13.626
 7209W        W73750  36.092  15.719   2.690
 7210W        W73751  10.675   4.331   2.174
 7211W        W73752  21.841   4.229  11.994
 7212W        W73753   9.796  40.311   1.031
 7213W        W73754  23.069  28.060   4.217
 7214W        W73755  12.352  22.169  12.785
 7215W        W73756  10.659  10.465   1.488
 7216W        W73757  40.411  30.077   1.189
 7217W        W73758  19.693   4.284  12.301
 7218W        W73759  27.729  44.690  12.499
 7219W        W73760  24.809  43.560   0.964
 7220W        W73761  35.894   1.214   2.984
 7221W        W73762  21.933   0.423  14.894
 7222W        W73763  23.097  13.635  14.518
 7223W        W73764  43.867  26.624  14.498
 7224W        W73765  35.141  10.718   4.045
 7225W        W73766  42.957  33.880  14.911
 7226W        W73767  12.796   9.689   2.050
 7227W        W73768  15.709  37.308   1.986
 7228W        W73769  13.575  35.078   2.764
 7229W        W73770  22.634  18.224  10.747
 7230W        W73771   3.391  33.510   4.491
 7231W        W73772   6.860   7.028  13.992
 7232W        W73773  44.381  29.714  11.713
 7233W        W73774  39.273   2.808  11.295
 7234W        W73775  38.931  24.271  14.933
 7235W        W73776  22.392  22.251  13.853
 7236W        W73777  29.283  21.048   9.754
 7237W        W73778  20.118  11.801  12.668
 7238W        W73779  12.182  16.464   1.350
 7239W        W73780  14.113  17.924   4.044
 7240W        W73781  36.535  15.802   3.636
 7241W        W73782  18.697  36.315   2.077
 7242W        W73783  15.323   2.814  12.234
 7243W        W73784  41.121  12.699   4.430
 7244W        W73785  37.193  18.105  11.156
 7245W        W73786  12.786  23.936   4.537
 7246W        W73787  34.661  32.683   3.326
 7247W        W73788  15.024  35.109   3.618
 7248W        W73789  43.544   3.750  10.442
 7249W        W73790   3.994  11.119  12.745
 7250W        W73791  32.318  24.400  11.160
 7251W        W73792   8.093   4.038  13.523
 7252W        W73793  14.052  37.498   4.082
 7253W        W73794  31.021  13.255   9.747
 7254W        W73795  15.199  44.522   4.632
 7255W        W73796  34.210   1.380  12.446
 7256W        W73797   7.628  11.825   3.209
 7257W        W73798  38.324  43.964  14.495
 7258W        W73799  30.910   2.828   2.438
 7259W        W73800  13.727  14.711   4.145
 7260W        W73801  44.230  13.527  10.099
 7261W        W73802   1.843  11.667  10.829
 7262W        W73803   7.638   8.833  11.092
 7263W        W73804  36.892  34.279  12.090
 7264W        W73805   5.690  30.924  12.454
 7265W        W73806  23.553  33.902   1.310
 7266W        W73807  33.501  22.055   4.513
 7267W        W73808   9.072  36.613   0.753
 7268W        W73809   4.421  24.534   1.633
 7269W        W73810  36.908  24.592  14.449
 7270W        W73811  12.919  41.503   1.345
 7271W        W73812  21.782  33.086  11.391
 7272W        W73813  35.175  20.282  12.276
 7273W        W73814   8.383  11.223  10.511
 7274W        W73815  31.341  40.618  12.498
 7275W        W73816  44.803   5.915  11.124
 7276W        W73817  10.301  11.396   1.466
 7277W        W73818  18.322  11.012   5.830
 7278W        W73819  40.541  41.629   3.714
 7279W        W73820   6.412  22.185  14.975
 7280W        W73821   7.914   8.280  14.833
 7281W        W73822  18.851  42.298  11.572
 7282W        W73823   1.919  41.806  13.836
 7283W        W73824  19.279   4.306  14.008
 7284W        W73825   5.806  32.129   1.343
 7285W        W73826  30.479   6.923  11.108
 7286W        W73827  32.498  34.465  12.966
 7287W        W73828  36.081  11.967   1.327
 7288W        W73829   9.905  23.620   1.409
 7289W        W73830   2.528  34.426   0.129
 7290W        W73831  20.033  42.795  13.388
 7291W        W73832  29.641   6.240   4.851
 7292W        W73833   2.932  11.663  11.622
 7293W        W73834  15.521  36.285  12.513
 7294W        W73835  13.836  32.449  12.382
 7295W        W73836  24.466  12.395  13.451
 7296W        W73837  34.561  28.472  14.843
 7297W        W73838  44.765  44.456   2.633
 7298W        W73839  34.102  19.110  12.059
 7299W        W73840  34.356   5.842  11.189
 7300W        W73841  11.779  35.506   0.323
 7301W        W73842  13.859   0.444   4.169
 7302W        W73843  18.822  29.571  10.940
 7303W        W73844  12.636  24.950  11.293
 7304W        W73845  38.007  28.923  10.588
 7305W        W73846  29.030  33.021   0.448
 7306W        W73847  21.750  35.616   4.307
 7307W        W73848   3.160  10.339  11.914
 7308W        W73849   4.722  43.634   4.140
 7309W        W73850  41.884  36.406   4.579
 7310W        W73851  32.998  31.382   3.323
 7311W        W73852  26.850  36.081  12.026
 7312W        W73853  16.117  28.995  12.426
 7313W        W73854  21.485  18.613   1.919
 7314W        W73855   0.919  11.163  13.185
 7315W        W73856  23.289  23.526  10.377
 7316W        W73857  28.295  15.350   0.213
 7317W        W73858  12.315  36.901   4.604
 7318W        W73859  44.258  20.265  14.834
 7319W        W73860   9.917   0.159   4.504
 7320W        W73861  31.467  37.402  13.456
 7321W        W73862  28.436  41.196  10.965
 7322W        W73863  26.634  26.095   0.011
 7323W        W73864  15.816  15.707  14.436
 7324W        W73865  39.036  36.713  14.373
 7325W        W73866  27.206  30.859   0.766
 7326W        W73867   1.061  23.230   1.864
 7327W        W73868  32.411  39.692  12.872
 7328W        W73869   7.361  16.212   1.680
 7329W        W73870  14.271   7.602  12.409
 7330W        W73871   9.671  22.226  10.540
 7331W        W73872  16.574   8.916  13.860
 7332W        W73873  12.344  30.504  13.831
 7333W        W73874  21.728  33.547   1.433
 7334W        W73875  35.982  31.664  11.500
 7335W        W73876  13.047  10.786  13.577
 7336W        W73877  26.243   2.252  10.510
 7337W        W73878  32.764  20.206   1.972
 7338W        W73879  20.268   9.955  11.638
 7339W        W73880  25.705  23.934   4.696
 7340W        W73881   9.349  23.995  13.346
 7341W        W73882  30.607   5.107   4.661
 7342W        W73883   4.345  14.355  12.874
 7343W        W73884  39.755  42.587  13.059
 7344W        W73885  36.916  43.303  11.343
 7345W        W73886  24.171  13.224  10.652
 7346W        W73887  31.357  27.933  10.472
 7347W        W73888  10.577  33.366   2.347
 7348W        W73889   4.925   7.715   0.341
 7349W        W73890  44.533  13.832   1.675
 7350W        W73891  26.950  43.832   4.565
 7351W        W73892  38.649  39.808  13.414
 7352W        W73893  29.696   1.428  10.802
 7353W        W73894  35.574  11.180  13.874
 7354W        W73895  43.387  34.556   0.753
 7355W        W73896   3.036  10.819   0.388
 7356W        W73897  28.410  32.644  13.544
 7357W        W73898  33.173  17.800  10.640
 7358W        W73899  41.075  36.078   3.706
 7359W        W73900   5.192  29.535  11.642
 7360W        W73901  21.215  13.788   0.397
 7361W        W73902   5.975  15.966  11.909
 7362W        W73903  43.602  42.750  12.551
 7363W        W73904  36.708   2.797  14.527
 7364W        W73905  35.962  25.832   1.162
 7365W        W73906   5.203  35.890  12.482
 7366W        W73907  20.950  43.394  11.159
 7367W        W73908  19.011  31.670  13.803
 7368W        W73909  20.583  39.293  14.343
 7369W        W73910  29.671  35.336   3.060
 7370W        W73911  31.685   6.252  11.910
 7371W        W73912   8.313   8.956   0.866
 7372W        W73913   6.287  28.709  12.048
 7373W        W73914  28.657  14.113  11.149
 7374W        W73915  13.853  26.396   2.793
 7375W        W73916   1.946  23.753  12.115
 7376W        W73917  33.409   2.903  13.883
 7377W        W73918   8.448   2.493  14.448
 7378W        W73919  36.101  44.455   0.157
 7379W        W73920  32.542  14.339  14.240
 7380W        W73921  36.810  39.931  12.512
 7381W        W73922  35.325  30.442   3.927
 7382W        W73923  41.791  27.982  12.487
 7383W        W73924  31.589   3.263  10.290
 7384W        W73925  44.471  15.123  12.941
 7385W        W73926  41.298   6.523   0.321
 7386W        W73927   7.076  25.907  13.405
 7387W        W73928   7.486   8.162   1.273
 7388W        W73929  33.808  29.506  10.312
 7389W        W73930  24.455  13.641   3.406
 7390W        W73931  22.295  28.084  12.722
 7391W        W73932   1.678   0.347   0.119
 7392W        W73933  36.533   2.810  13.127
 7393W        W73934  43.645  33.611  13.641
 7394W        W73935  27.701  39.491   0.724
 7395W        W73936   8.253  29.553  13.731
 7396W        W73937  11.679  27.739   1.259
 7397W        W73938  12.426   6.140   0.515
 7398W        W73939   4.494  15.748  11.670
 7399W        W73940  38.847   3.525   4.495
 7400W        W73941   0.867  22.740   0.759
 7401W        W73942  29.073  16.125   4.850
 7402W        W73943  13.053   4.730   2.402
 7403W        W73944   5.675  13.057  12.849
 7404W        W73945  37.411  40.413   2.163
 7405W        W73946  37.054  31.851   1.412
 7406W        W73947  17.482   5.792  11.542
 7407W        W73948  18.507  16.226   3.078
 7408W        W73949   8.402  19.853  11.487
 7409W        W73950  25.695   5.125   1.849
 7410W        W73951  22.492  20.304  11.310
 7411W        W73952  11.127  40.873   2.427
 7412W        W73953  32.569   0.008  11.432
 7413W        W73954  15.717   8.161   1.540
 7414W        W73955  10.581  44.869  12.412
 7415W        W73956  38.904  25.374   3.280
 7416W        W73957  35.496  11.342   3.166
 7417W        W73958  27.257   6.728  13.979
 7418W        W73959  24.145  11.109  13.312
 7419W        W73960  21.812   3.873  10.676
 7420W        W73961  26.635   9.695  13.104
 7421W        W73962  17.803  31.593   2.161
 7422W        W73963  26.048  29.183  11.987
 7423W        W73964  41.563   5.328   3.780
 7424W        W73965   8.207  22.534  14.792
 7425W        W73966  27.116  18.749  11.264
 7426W        W73967  39.388  31.118   3.269
 7427W        W73968   6.131   2.771   2.923
 7428W        W73969  28.845  26.235   3.139
 7429W        W73970  13.291   4.448  10.594
 7430W        W73971   6.134  42.510   0.918
 7431W        W73972  43.212   6.254   4.783
 7432W        W73973  34.483   0.943   4.607
 7433W        W73974  43.905   4.317   4.177
 7434W        W73975   0.217  37.942   0.942
 7435W        W73976  41.400  27.264  13.357
 7436W        W73977  29.969  23.226   1.746
 7437W        W73978  15.934  19.178   2.414
 7438W        W73979  10.268  34.618  12.416
 7439W        W73980  39.450  19.585  12.432
 7440W        W73981   7.482  42.167   1.699
 7441W        W73982   1.909  11.154  12.467
 7442W        W73983  42.453  14.267   3.467
 7443W        W73984   3.453   8.391  13.849
 7444W        W73985  30.187  32.701   4.294
 7445W        W73986  35.983  37.502   3.648
 7446W        W73987  19.074  33.922  11.003
 7447W        W73988  40.174  30.533  12.746
 7448W        W73989  40.795  11.127   2.502
 7449W        W73990  43.301  42.749   0.038
 7450W        W73991  18.070  30.620   4.213
 7451W        W73992   7.747  39.118   2.364
 7452W        W73993  27.033  33.921   2.840
 7453W        W73994   8.837  23.199  12.994
 7454W        W73995  21.277  17.026   1.849
 7455W        W73996  28.708   7.724   1.816
 7456W        W73997   5.397   1.832   1.636
 7457W        W73998   4.087   9.944   0.757
 7458W        W73999  25.141  26.567   4.456
 7459W        W74000   8.125  37.507   2.321
 7460W        W74001  23.523  26.175  12.571
 7461W        W74002  43.496  22.037   0.943
 7462W        W74003   5.332  12.163   1.696
 7463W        W74004  16.530  35.389   0.665
 7464W        W74005  44.057  29.416   0.354
 7465W        W74006   1.209   2.171   2.821
 7466W        W74007  19.288  33.922  11.466
 7467W        W74008   0.780  30.069   2.703
 7468W        W74009  25.287  42.490   1.407
 7469W        W74010  26.438  13.478   0.373
 7470W        W74011   4.819  28.950  13.391
 7471W        W74012   4.253  11.110   0.772
 7472W        W74013   5.784   4.827  12.446
 7473W        W74014  10.612  33.069  11.918
 7474W        W74015  31.013  22.222  11.228
 7475W        W74016   1.621  20.167   1.242
 7476W        W74017  38.856  35.949   4.993
 7477W        W74018   5.036  19.089   0.507
 7478W        W74019  35.602  14.776   2.451
 7479W        W74020  43.800  37.662  11.874
 7480W        W74021  25.461  29.196  13.554
 7481W        W74022  16.118  29.425   4.591
 7482W        W74023  38.710  14.173  13.606
 7483W        W74024  44.816  16.494  11.242
 7484W        W74025   9.324  28.697  14.597
 7485W        W74026  32.962  25.503   1.349
 7486W        W74027  31.389  20.269   4.826
 7487W        W74028  18.340  29.866   3.655
 7488W        W74029  30.938   2.216  11.889
 7489W        W74030  13.708  11.998   1.869
 7490W        W74031  22.707   8.107   0.761
 7491W        W74032   9.269   7.886   1.785
 7492W        W74033  34.425  19.208   3.276
 7493W        W74034   4.265  19.913  14.891
 7494W        W74035   5.643  12.882  12.317
 7495W        W74036  39.881  13.648  13.857
 7496W        W74037   8.861  17.647  14.997
 7497W        W74038  11.748  27.247  14.170
 7498W        W74039  35.864   9.888  12.085
 7499W        W74040   0.203  22.419   3.232
 7500W        W74041  26.662  25.936  14.518
 7501W        W74042  34.870   4.945   5.148
 7502W        W74043   0.739  12.567   1.634
 7503W        W74044  29.067  18.620   3.807
 7504W        W74045  11.306   8.126  14.421
 7505W        W74046  38.811   7.236   1.303
 7506W        W74047  16.573  29.103   1.790
 7507W        W74048  17.812  26.329   1.208
 7508W        W74049  14.542   5.243   4.615
 7509W        W74050   2.862  13.595  14.590
 7510W        W74051   0.346  43.762  14.319
 7511W        W74052  36.120  22.263  12.991
 7512W        W74053  37.371   5.714  10.785
 7513W        W74054  28.133  23.186  12.823
 7514W        W74055   5.625  39.171  10.306
 7515W        W74056  14.849  29.430  13.692
 7516W        W74057  17.555  35.450  12.313
 7517W        W74058   4.111  32.009   4.023
 7518W        W74059  28.520  18.178  10.505
 7519W        W74060  31.239  33.583   2.676
 7520W        W74061   4.862  40.841   4.851
 7521W        W74062  32.477  19.707   2.676
 7522W        W74063  15.085  43.418  13.905
 7523W        W74064  44.006  22.654  12.526
 7524W        W74065   0.924   9.615   3.146
 7525W        W74066  43.262  37.606   5.147
 7526W        W74067  13.299  43.791   2.223
 7527W        W74068  19.196  15.635   1.095
 7528W        W74069   0.993  26.533   0.795
 7529W        W74070  39.953  27.775  14.761
 7530W        W74071  29.127   4.874  10.917
 7531W        W74072  19.198  22.539  13.408
 7532W        W74073   8.347  39.069   0.104
 7533W        W74074  11.229  26.923   2.342
 7534W        W74075  35.843  27.697   1.518
 7535W        W74076  42.321   1.196   1.799
 7536W        W74077   5.261  15.310   2.717
 7537W        W74078   8.830   0.937   0.499
 7538W        W74079  33.212  14.373  14.672
 7539W        W74080   8.160  43.443   2.292
 7540W        W74081  32.629  36.306  12.026
 7541W        W74082  19.838  38.942   3.671
 7542W        W74083  22.684  33.049  13.021
 7543W        W74084  15.661  15.221  14.516
 7544W        W74085  39.631  29.483  14.844
 7545W        W74086  32.142  37.018  13.657
 7546W        W74087  42.303  15.810   1.750
 7547W        W74088  36.103  17.156   4.296
 7548W        W74089   9.369  39.337  13.836
 7549W        W74090  40.280  18.100  14.311
 7550W        W74091  33.918  13.659  14.788
 7551W        W74092  30.080  22.749   3.614
 7552W        W74093  39.592  17.871   3.589
 7553W        W74094  25.950   8.238  11.470
 7554W        W74095  21.297  14.740   2.181
 7555W        W74096  26.068   3.985   2.677
 7556W        W74097  19.630  16.838  13.125
 7557W        W74098   6.919  21.687  13.298
 7558W        W74099   4.215   7.937   4.736
 7559W        W74100  22.047  44.830  14.921
 7560W        W74101  17.265   1.317  10.186
 7561W        W74102  31.764   5.258  11.993
 7562W        W74103  30.451  16.149  14.257
 7563W        W74104   0.791  27.678   0.863
 7564W        W74105  30.061   9.644   4.244
 7565W        W74106   4.962  15.200   1.962
 7566W        W74107   4.692  31.422  13.511
 7567W        W74108  11.899  28.704  14.634
 7568W        W74109  21.306  27.491   1.345
 7569W        W74110  44.308  19.689  12.734
 7570W        W74111  34.789  43.381  13.137
 7571W        W74112  12.582  44.478  14.659
 7572W        W74113  31.311   1.251  13.556
 7573W        W74114  41.758   4.709  13.419
 7574W        W74115  27.845  11.641  12.978
 7575W        W74116   8.324  36.952  10.726
 7576W        W74117  37.514  27.454   1.758
 7577W        W74118  31.927  25.454   3.766
 7578W        W74119  20.856  21.794  12.929
 7579W        W74120  34.641  34.116   3.671
 7580W        W74121  13.617  21.492   4.852
 7581W        W74122  39.037  36.451  12.197
 7582W        W74123   7.749  19.232   0.821
 7583W        W74124   8.009  30.820   0.241
 7584W        W74125  33.409  42.340  11.041
 7585W        W74126  44.822  42.447  14.997
 7586W        W74127  15.755  11.406   1.352
 7587W        W74128  19.765  13.410  13.995
 7588W        W74129  40.431  32.431   2.963
 7589W        W74130   1.462  25.127  14.396
 7590W        W74131  38.028   7.319   5.025
 7591W        W74132   5.918   7.303   4.595
 7592W        W74133  41.386  33.015  12.476
 7593W        W74134  44.880   4.219   4.072
 7594W        W74135  33.896  23.072  12.798
 7595W        W74136  28.122  41.025  14.720
 7596W        W74137  21.240  36.067   4.630
 7597W        W74138  38.767  16.238   1.828
 7598W        W74139  33.534  35.991  11.152
 7599W        W74140  36.938   6.711  12.230
 7600W        W74141  12.674  23.976   4.042
 7601W        W74142  30.373  35.434   4.375
 7602W        W74143  37.782  32.360  11.033
 7603W        W74144  17.649  11.784   4.481
 7604W        W74145  35.761  42.040  12.443
 7605W        W74146  41.240   4.744  13.320
 7606W        W74147  23.729  20.678  12.928
 7607W        W74148  12.330  34.533   3.475
 7608W        W74149  41.918  17.004  14.956
 7609W        W74150  14.301  39.667   3.828
 7610W        W74151  27.938   0.580  13.983
 7611W        W74152  41.233  23.220  12.445
 7612W        W74153  27.413  11.884  10.929
 7613W        W74154  38.125  26.574  10.418
 7614W        W74155  16.048   0.517   0.168
 7615W        W74156  23.535  10.827  14.429
 7616W        W74157  35.570  12.235  12.615
 7617W        W74158  16.408  21.195  13.330
 7618W        W74159  11.082   5.245   3.313
 7619W        W74160  15.119  27.428   3.803
 7620W        W74161  14.722   1.522   0.936
 7621W        W74162  44.996  16.198  10.813
 7622W        W74163   2.568  44.735   3.218
 7623W        W74164  14.084  35.630   2.353
 7624W        W74165  15.172  20.867   4.913
 7625W        W74166  32.330  29.025   3.662
 7626W        W74167  23.026  13.644   1.248
 7627W        W74168  24.665  13.178   4.194
 7628W        W74169  14.251  10.692   4.787
 7629W        W74170  17.118  12.025   3.770
 7630W        W74171   6.783  25.168  14.387
 7631W        W74172   9.130  34.694  14.934
 7632W        W74173  39.380   9.877  11.504
 7633W        W74174  10.394  38.954  11.968
 7634W        W74175   0.579  16.214  10.865
 7635W        W74176  40.527  11.125  12.947
 7636W        W74177   4.831  43.653  11.918
 7637W        W74178  35.078  33.599  11.848
 7638W        W74179  38.302  25.970  12.148
 7639W        W74180  20.606  24.800   1.182
 7640W        W74181  43.444  28.546   3.550
 7641W        W74182  26.364  34.259   2.301
 7642W        W74183   3.016  44.172  13.948
 7643W        W74184  43.420  38.074   2.464
 7644W        W74185  26.113  20.950  11.105
 7645W        W74186  32.404  38.863   2.281
 7646W        W74187   1.146  19.448   5.329
 7647W        W74188  37.859  32.628   0.201
 7648W        W74189   9.302  12.858   2.716
 7649W        W74190   2.456  17.817  13.538
 7650W        W74191  33.014  40.564   1.343
 7651W        W74192  11.016   9.143   3.198
 7652W        W74193  25.042   4.223  11.620
 7653W        W74194  34.493   5.719   4.641
 7654W        W74195  26.003   0.447  11.139
 7655W        W74196  38.149  23.470   3.969
 7656W        W74197  12.079   9.005   2.224
 7657W        W74198  31.392  37.495  11.974
 7658W        W74199   7.785  44.226  14.945
 7659W        W74200  37.250  36.974  11.366
 7660W        W74201  30.909   2.210  14.337
 7661W        W74202  18.485   0.902  12.871
 7662W        W74203  32.172  36.990  11.073
 7663W        W74204  10.349  30.635   3.925
 7664W        W74205  42.838   7.491  11.923
 7665W        W74206  43.246   4.720  12.625
 7666W        W74207  44.935  41.606   3.540
 7667W        W74208   8.267  44.130  13.312
 7668W        W74209  29.839   5.336   4.068
 7669W        W74210  19.250  36.651   0.197
 7670W        W74211  17.166  44.496  14.855
 7671W        W74212  42.693  19.039  12.037
 7672W        W74213  39.467  22.100   2.118
 7673W        W74214  40.521  16.663   4.014
 7674W        W74215  13.053  36.076   1.982
 7675W        W74216  17.139   0.257  14.399
 7676W        W74217  29.042  11.792  11.562
 7677W        W74218   6.803  22.740   3.549
 7678W        W74219  16.677  35.925   1.265
 7679W        W74220   6.961   4.904  14.997
 7680W        W74221  35.603  21.202  13.052
 7681W        W74222  36.867  24.902  13.356
 7682W        W74223  18.312  39.372   1.248
 7683W        W74224  15.297  22.161   1.351
 7684W        W74225  28.769  28.382  14.956
 7685W        W74226  19.147  42.959  12.116
 7686W        W74227  21.126  42.812   2.731
 7687W        W74228  42.435  37.205   3.815
 7688W        W74229  37.094  14.226  10.480
 7689W        W74230   1.251  35.951  13.515
 7690W        W74231  12.643  18.043  12.896
 7691W        W74232  27.052  26.446  12.382
 7692W        W74233   2.294   1.430   2.547
 7693W        W74234  42.946   6.373  14.452
 7694W        W74235  25.561   4.228  14.803
 7695W        W74236   3.000  30.502   1.352
 7696W        W74237  29.663  44.772  10.906
 7697W        W74238  13.348   5.008  12.063
 7698W        W74239  14.873  27.205   2.431
 7699W        W74240  32.785  17.650  12.640
 7700W        W74241  16.728  33.601  14.955
 7701W        W74242   3.019  12.104   0.558
 7702W        W74243  34.801  12.177   3.791
 7703W        W74244   0.792   5.979   3.650
 7704W        W74245  37.955  18.193  14.736
 7705W        W74246  36.538   5.476   3.646
 7706W        W74247  19.746  24.275  12.902
 7707W        W74248  32.020   9.849   3.542
 7708W        W74249  41.959  22.771   3.830
 7709W        W74250  16.667  15.591  11.415
 7710W        W74251  41.269   9.282  11.244
 7711W        W74252  12.810  35.150   4.547
 7712W        W74253  15.966  20.063   2.675
 7713W        W74254  30.390  30.047   1.486
 7714W        W74255  34.903  17.160  11.920
 7715W        W74256  28.665   1.250   2.599
 7716W        W74257   3.252  24.440  13.024
 7717W        W74258  13.858  28.221  13.758
 7718W        W74259  30.561  37.090  14.669
 7719W        W74260  41.989  16.725  10.756
 7720W        W74261   6.927  41.400  14.297
 7721W        W74262   6.854  29.570   0.499
 7722W        W74263  13.194  33.716   1.434
 7723W        W74264  42.030  23.482  14.048
 7724W        W74265  32.071  14.619   2.203
 7725W        W74266   1.533  28.115  13.549
 7726W        W74267   8.746   9.297   4.067
 7727W        W74268  30.972  22.730  11.190
 7728W        W74269  41.049   0.435  14.827
 7729W        W74270  12.250  30.397   4.067
 7730W        W74271  37.373  44.980  14.772
 7731W        W74272   8.182  38.118   0.322
 7732W        W74273  20.192  12.438  11.047
 7733W        W74274  24.679  36.286  10.680
 7734W        W74275   0.004  41.271  11.568
 7735W        W74276  40.904  29.396  11.579
 7736W        W74277  32.387  30.103  13.611
 7737W        W74278   9.219  31.802  10.699
 7738W        W74279  11.246  27.933   0.941
 7739W        W74280  43.759   0.033  12.545
 7740W        W74281   4.796  19.168   4.346
 7741W        W74282   2.296  13.419  12.323
 7742W        W74283  43.314  42.736   3.222
 7743W        W74284  30.858  15.289   2.432
 7744W        W74285  35.070   0.422   3.086
 7745W        W74286   6.864  30.996  12.992
 7746W        W74287  43.955   7.384   2.113
 7747W        W74288  10.168  32.076   3.375
 7748W        W74289  44.754  33.184   0.249
 7749W        W74290  17.131  39.972   0.567
 7750W        W74291  31.928   3.823   4.615
 7751W        W74292  29.427  25.681  11.436
 7752W        W74293  13.084   1.169   4.160
 7753W        W74294  23.434   2.201   0.026
 7754W        W74295   6.427   7.845  11.439
 7755W        W74296  22.685  24.234   3.310
 7756W        W74297  17.562  23.112   0.544
 7757W        W74298  16.774  33.132  14.433
 7758W        W74299  32.653   0.843  13.415
 7759W        W74300  39.816  36.418   0.806
 7760W        W74301  29.144  13.180  14.461
 7761W        W74302  19.137  15.599  11.556
 7762W        W74303  11.709  19.348  10.841
 7763W        W74304  20.588   8.290  14.486
 7764W        W74305  29.702  27.147   4.647
 7765W        W74306  22.777  21.579   2.598
 7766W        W74307  42.754  37.672  14.405
 7767W        W74308  11.427  16.742  12.371
 7768W        W74309   0.924  14.810   4.103
 7769W        W74310  20.281  37.028   2.579
 7770W        W74311   1.075  24.242  11.441
 7771W        W74312   3.812  17.989   3.678
 7772W        W74313  41.828   6.201  12.761
 7773W        W74314  21.892  31.583  12.523
 7774W        W74315  34.447  39.571   1.743
 7775W        W74316  42.284  12.141  11.153
 7776W        W74317   4.961  25.212   2.182
 7777W        W74318  39.120  16.528  14.436
 7778W        W74319  18.431   7.768  10.988
 7779W        W74320  15.591   3.285  10.198
 7780W        W74321  39.143  37.764   4.168
 7781W        W74322  27.661  30.233   1.445
 7782W        W74323  40.062  15.977   9.785
 7783W        W74324  17.175   3.957  12.026
 7784W        W74325  21.084  38.108   1.743
 7785W        W74326  12.195  16.739   3.298
 7786W        W74327   8.212  32.159   3.219
 7787W        W74328  10.188  29.937  14.456
 7788W        W74329  17.281  15.059   0.715
 7789W        W74330  33.893  32.469   4.600
 7790W        W74331  20.063  24.063  14.730
 7791W        W74332  38.029  27.858  14.239
 7792W        W74333   9.719  42.669   4.266
 7793W        W74334  40.948  24.800   0.467
 7794W        W74335  11.272  19.454  11.858
 7795W        W74336  40.362  28.262  11.586
 7796W        W74337  16.796  23.284   3.288
 7797W        W74338  20.745   3.010   0.475
 7798W        W74339  20.278   0.922  10.567
 7799W        W74340  15.752  40.364  10.910
 7800W        W74341  36.921  16.297  14.354
 7801W        W74342   6.010  28.228  11.099
 7802W        W74343  15.587  20.394   1.965
 7803W        W74344  25.652  13.134   3.537
 7804W        W74345   1.982  38.291   4.190
 7805W        W74346  28.653  36.556  14.568
 7806W        W74347  29.489  27.601   1.170
 7807W        W74348   7.789  42.364   2.795
 7808W        W74349  29.943  10.246  13.439
 7809W        W74350  44.672  43.790  13.582
 7810W        W74351  42.589  20.243  10.561
 7811W        W74352  44.737  14.827  11.566
 7812W        W74353  14.792   8.893  12.393
 7813W        W74354  24.485  31.672   2.397
 7814W        W74355  32.647  28.954   4.056
 7815W        W74356   4.424  35.237  11.445
 7816W        W74357  18.204  23.221   2.679
 7817W        W74358  32.833  43.466  10.471
 7818W        W74359  18.551  44.694   0.820
 7819W        W74360  20.567  28.460  10.814
 7820W        W74361   1.291   2.292  10.254
 7821W        W74362  36.954  44.215  10.624
 7822W        W74363   9.349  41.404   5.041
 7823W        W74364   1.189  18.808  12.409
 7824W        W74365  19.466  10.900   1.760
 7825W        W74366  40.028  41.545   3.829
 7826W        W74367  44.711  22.749   3.115
 7827W        W74368  43.312  22.993   3.171
 7828W        W74369  18.809  29.240  11.878
 7829W        W74370   6.924  12.356  11.938
 7830W        W74371  27.356   7.887   1.862
 7831W        W74372  40.373   3.780  13.070
 7832W        W74373  23.188  30.436   2.392
 7833W        W74374   3.245  28.929  12.631
 7834W        W74375  41.285   8.660   3.803
 7835W        W74376  43.519  37.987   3.796
 7836W        W74377  17.794  15.836  11.422
 7837W        W74378  40.227  44.290  10.996
 7838W        W74379  28.544  32.300  12.013
 7839W        W74380  10.075  18.651  13.248
 7840W        W74381  43.542  34.686  13.046
 7841W        W74382  36.658  43.932   3.289
 7842W        W74383  32.612  20.311  14.868
 7843W        W74384  15.375  23.566   1.160
 7844W        W74385  16.905  31.160  11.535
 7845W        W74386  43.820  33.395   4.013
 7846W        W74387  27.255  13.811  10.853
 7847W        W74388  15.129  13.047  13.319
 7848W        W74389  21.235   5.252  12.595
 7849W        W74390  31.212  12.338   2.954
 7850W        W74391  24.957  35.430  10.465
 7851W        W74392  22.728  17.191  11.185
 7852W        W74393  26.224  19.489   4.090
 7853W        W74394   7.873  12.169   3.501
 7854W        W74395  43.346  22.466   3.389
 7855W        W74396  10.725  42.334   3.196
 7856W        W74397  44.900   5.388   2.024
 7857W        W74398  10.386  26.201   3.416
 7858W        W74399  40.140  16.069  12.614
 7859W        W74400   9.856   3.987   4.978
 7860W        W74401  28.467   1.309  13.467
 7861W        W74402  37.398  21.052  12.478
 7862W        W74403  20.672  41.487   4.218
 7863W        W74404  44.879  28.696  11.189
 7864W        W74405  20.155  28.410  14.973
 7865W        W74406   7.357  26.949   1.155
 7866W        W74407   1.125   5.893   0.371
 7867W        W74408  16.707   2.070   0.614
 7868W        W74409   3.743  37.493   0.892
 7869W        W74410  16.423  22.515   1.210
 7870W        W74411  17.715   7.366  10.682
 7871W        W74412  38.108   1.716  14.812
 7872W        W74413  14.841  34.481   1.252
 7873W        W74414   4.781  29.823  11.847
 7874W        W74415   5.888  31.698  11.969
 7875W        W74416   4.290  28.886  13.164
 7876W        W74417  23.626   2.646  12.009
 7877W        W74418  39.003  37.614   1.337
 7878W        W74419  29.649  13.765  13.358
 7879W        W74420  41.807  39.899  12.327
 7880W        W74421  11.141  22.580  11.599
 7881W        W74422   5.426  27.033  13.360
 7882W        W74423  11.580  37.076  10.736
 7883W        W74424  18.182  35.853  10.927
 7884W        W74425  14.211  12.341   2.548
 7885W        W74426  44.307  22.070  14.074
 7886W        W74427  36.107   2.474  13.917
 7887W        W74428  37.514   3.641   2.841
 7888W        W74429  23.973  13.636  12.023
 7889W        W74430  28.223  41.357   3.288
 7890W        W74431   6.171  29.770   1.268
 7891W        W74432  34.466  36.866  12.437
 7892W        W74433  14.122  22.147   4.424
 7893W        W74434  29.607  32.830   4.546
 7894W        W74435  44.016  44.038  12.641
 7895W        W74436  28.977  41.555  13.509
 7896W        W74437  37.776   7.686  12.025
 7897W        W74438  29.326  27.990   5.411
 7898W        W74439  15.332  24.655   0.833
 7899W        W74440  31.436  30.047  14.423
 7900W        W74441   9.709   4.925   2.233
 7901W        W74442  22.227   4.081  12.345
 7902W        W74443  32.447  28.724  13.979
 7903W        W74444   6.316  11.386   2.166
 7904W        W74445   5.161  22.689  12.923
 7905W        W74446  17.218  23.457  10.161
 7906W        W74447  16.258  21.723   3.220
 7907W        W74448  27.420   0.460  12.111
 7908W        W74449  10.608  28.055  14.308
 7909W        W74450   0.772  26.416   0.336
 7910W        W74451   5.985  36.437   1.722
 7911W        W74452  27.988  19.991   0.244
 7912W        W74453  27.397   6.746   1.424
 7913W        W74454  11.313   1.545   3.595
 7914W        W74455   5.845  30.687   3.732
 7915W        W74456  33.582   0.484   4.570
 7916W        W74457  26.661  33.152   0.097
 7917W        W74458  22.251  37.308   1.391
 7918W        W74459  40.355  24.738  11.517
 7919W        W74460   1.388  26.120  11.678
 7920W        W74461   1.531  26.865  11.358
 7921W        W74462   6.145  35.819   2.077
 7922W        W74463  38.097  36.615   1.341
 7923W        W74464  21.133  18.033   1.779
 7924W        W74465  41.920  15.186  10.785
 7925W        W74466  17.037  36.924  12.392
 7926W        W74467  32.049   7.902  14.636
 7927W        W74468  14.164  11.437   3.115
 7928W        W74469   0.853  26.117  14.900
 7929W        W74470  15.222  28.018  13.813
 7930W        W74471  19.570  36.353   3.320
 7931W        W74472  36.823  21.854  11.162
 7932W        W74473  41.668  25.300   9.966
 7933W        W74474  34.610  37.884   2.680
 7934W        W74475  14.292   2.892   1.243
 7935W        W74476  22.524  37.963  10.301
 7936W        W74477   2.571  24.257   1.188
 7937W        W74478  21.026  12.407   4.250
 7938W        W74479  38.871  30.675   1.765
 7939W        W74480  16.712  25.826   0.937
 7940W        W74481  30.134  17.080  11.366
 7941W        W74482  25.924  40.759  14.888
 7942W        W74483   4.950  15.603   1.431
 7943W        W74484   8.572  10.759  11.632
 7944W        W74485   5.113  36.413  14.332
 7945W        W74486  37.500  39.821   4.762
 7946W        W74487   2.908  23.413   3.753
 7947W        W74488  36.690   7.568   4.589
 7948W        W74489   4.320   6.781  12.346
 7949W        W74490   1.991  43.121  14.027
 7950W        W74491   5.173  25.100  13.460
 7951W        W74492  16.104  42.358   0.222
 7952W        W74493  29.064  19.056  10.428
 7953W        W74494  32.748  29.752   0.130
 7954W        W74495  19.802  27.410  13.468
 7955W        W74496  43.950  15.906   5.063
 7956W        W74497   9.865  30.569   1.689
 7957W        W74498  15.063   5.084  13.113
 7958W        W74499  39.474  39.669  13.510
 7959W        W74500  11.230  42.042  10.733
 7960W        W74501   2.351  25.594   0.500
 7961W        W74502  16.148  39.165   1.336
 7962W        W74503  32.499  35.221  13.521
 7963W        W74504  24.423  34.015   0.013
 7964W        W74505  29.538  42.839   2.407
 7965W        W74506  29.082  40.611   0.510
 7966W        W74507  36.525  25.558  12.410
 7967W        W74508  31.077  31.087   2.228
 7968W        W74509  29.094  35.087  12.906
 7969W        W74510   5.434  28.027  13.542
 7970W        W74511   6.698   8.890   1.291
 7971W        W74512  14.685  10.565   2.373
 7972W        W74513  33.301  22.720   3.245
 7973W        W74514  28.178  20.555   2.765
 7974W        W74515  27.235   9.946   3.233
 7975W        W74516  19.582   6.617   4.636
 7976W        W74517  21.687  21.535  11.609
 7977W        W74518  20.699  17.909  11.078
 7978W        W74519  25.551  21.329   2.809
 7979W        W74520  14.011  41.968   2.268
 7980W        W74521  23.798  14.212  13.046
 7981W        W74522  23.735  39.145   4.266
 7982W        W74523  15.621  30.547  11.434
 7983W        W74524   2.015  16.627   1.293
 7984W        W74525  15.049  12.775  14.708
 7985W        W74526  20.913  33.149  12.597
 7986W        W74527   6.147  24.970   2.701
 7987W        W74528  25.406  14.713  10.694
 7988W        W74529   7.928  16.654   0.256
 7989W        W74530   5.610  43.869   4.669
 7990W        W74531  21.173  23.470  13.391
 7991W        W74532   5.613  43.893  13.866
 7992W        W74533  24.206   6.759  12.567
 7993W        W74534  30.672   8.423   2.280
 7994W        W74535  15.662  26.797   0.888
 7995W        W74536  14.634  43.443   2.314
 7996W        W74537   5.406  33.986   3.663
 7997W        W74538  29.696   9.857   3.340
 7998W        W74539  41.382  24.567   1.875
 7999W        W74540  14.275  33.445   2.652
 8000W        W74541  36.858  38.215  11.617
 8001W        W74542  17.742  19.820   1.511
 8002W        W74543  29.712  15.378   1.330
 8003W        W74544  13.439   6.814  10.649
 8004W        W74545  22.201  15.304   4.204
 8005W        W74546  23.098   5.325  13.518
 8006W        W74547  30.161   7.332   1.773
 8007W        W74548  16.108  41.391   3.145
 8008W        W74549  15.272  31.065   3.715
 8009W        W74550  44.084  30.100  13.108
 8010W        W74551  24.482  44.627  14.778
 8011W        W74552  28.261   5.677   1.181
 8012W        W74553  26.571  44.324   0.454
 8013W        W74554  37.543  25.262  10.354
 8014W        W74555  19.683  34.920  13.043
 8015W        W74556  29.392   8.878   5.034
 8016W        W74557  28.082  37.082   1.392
 8017W        W74558  37.633  38.317  14.502
 8018W        W74559  26.145  33.852   1.430
 8019W        W74560   4.765  26.289   4.846
 8020W        W74561  38.376   8.945   2.365
 8021W        W74562  36.665  12.285   3.623
 8022W        W74563  33.451  28.624   3.455
 8023W        W74564  15.262  14.263   0.311
 8024W        W74565  31.374  15.507  14.700
 8025W        W74566  13.655  24.261   0.441
 8026W        W74567   4.809  32.094   2.449
 8027W        W74568  11.952  20.260   3.228
 8028W        W74569  30.209  11.558  13.014
 8029W        W74570  23.103  32.490   3.268
 8030W        W74571   3.341  20.059  13.928
 8031W        W74572  31.890  37.944   3.698
 8032W        W74573  17.861   5.478   0.350
 8033W        W74574  25.082  31.663   1.332
 8034W        W74575  20.235   9.180   2.899
 8035W        W74576   9.111  25.136  13.875
 8036W        W74577  13.371  16.758  12.116
 8037W        W74578  41.952   6.461  14.319
 8038W        W74579   5.761  32.527   2.303
 8039W        W74580   6.274   4.588   4.110
 8040W        W74581  17.829   5.661   4.553
 8041W        W74582  18.290  11.628  10.661
 8042W        W74583  38.590  23.695  11.148
 8043W        W74584  31.445   1.323   0.843
 8044W        W74585  40.522  24.208   0.894
 8045W        W74586  18.201  13.264   9.827
 8046W        W74587  16.952  27.197   1.665
 8047W        W74588  33.399   9.941   3.866
 8048W        W74589  18.602  28.591  13.750
 8049W        W74590  24.703   2.910   3.525
 8050W        W74591  38.348  32.393  14.035
 8051W        W74592  22.489  27.365  11.590
 8052W        W74593  27.898  19.678  13.747
 8053W        W74594  21.229   7.778  11.205
 8054W        W74595  44.467  41.378  13.501
 8055W        W74596  19.415  42.350   2.289
 8056W        W74597  21.328   0.970   1.517
 8057W        W74598  30.560  37.237   2.151
 8058W        W74599  13.878   3.588   3.118
 8059W        W74600  37.050   5.436   0.994
 8060W        W74601  32.878   1.498  14.423
 8061W        W74602  31.178  21.262  10.935
 8062W        W74603   9.909  17.916  12.035
 8063W        W74604  44.406  16.254   4.145
 8064W        W74605  10.336  25.724  11.211
 8065W        W74606   1.765  18.025   4.616
 8066W        W74607   0.711  11.320   4.753
 8067W        W74608  44.643  37.262  10.458
 8068W        W74609  33.751   1.119  12.393
 8069W        W74610  29.995  34.077  11.586
 8070W        W74611  36.006  36.573   0.845
 8071W        W74612  29.480  13.200  14.054
 8072W        W74613  20.487  22.073   3.226
 8073W        W74614  44.594  38.594   1.015
 8074W        W74615   6.404  24.448  10.444
 8075W        W74616   2.280  43.379   3.121
 8076W        W74617  25.747  22.243  13.301
 8077W        W74618   4.157  19.708  12.429
 8078W        W74619  14.657  24.829   1.158
 8079W        W74620  15.298   1.280  11.893
 8080W        W74621  22.729  19.646   3.144
 8081W        W74622  23.690  42.414  12.406
 8082W        W74623  23.632  26.359  14.752
 8083W        W74624  10.390   7.747   2.719
 8084W        W74625  33.881  36.297  14.429
 8085W        W74626  20.156  40.340   1.234
 8086W        W74627  29.975  41.475   3.586
 8087W        W74628  11.426  10.384  10.309
 8088W        W74629   0.923  31.847   1.266
 8089W        W74630  41.793  10.855   4.781
 8090W        W74631  26.813  21.068   2.688
 8091W        W74632  36.125   0.556   4.476
 8092W        W74633   4.333  38.415   3.133
 8093W        W74634  32.902  39.481  11.247
 8094W        W74635  27.495  34.718   2.357
 8095W        W74636  44.138  41.712  13.259
 8096W        W74637  15.822  38.546  10.968
 8097W        W74638  20.502  34.445  12.530
 8098W        W74639  24.980  16.108  11.421
 8099W        W74640  15.100  37.194  14.713
 8100W        W74641  17.023  38.864   1.220
 8101W        W74642   1.703   1.750  11.026
 8102W        W74643  31.824   5.751  12.177
 8103W        W74644   2.782  39.345   3.950
 8104W        W74645  16.903  38.577   2.364
 8105W        W74646  23.547   7.495  12.091
 8106W        W74647   3.876  33.476   0.856
 8107W        W74648  28.873   2.480  13.856
 8108W        W74649  13.600   4.058   0.533
 8109W        W74650  23.553  12.322  11.606
 8110W        W74651  31.627  11.658   1.810
 8111W        W74652  38.390  15.261  13.984
 8112W        W74653  11.795  10.159  10.730
 8113W        W74654   2.245  38.074  12.259
 8114W        W74655  30.557  28.615   4.247
 8115W        W74656   7.692  43.266   2.336
 8116W        W74657  11.394   5.510  13.996
 8117W        W74658  24.077  36.956   2.254
 8118W        W74659  11.876  23.363   4.012
 8119W        W74660  42.291  12.936  12.014
 8120W        W74661  31.505   7.416   4.282
 8121W        W74662   1.562  28.625   9.835
 8122W        W74663   9.253   2.224  13.497
 8123W        W74664  19.582  11.585   3.277
 8124W        W74665  17.782  40.271   2.747
 8125W        W74666  31.604  10.846  10.609
 8126W        W74667  35.831  33.996  11.674
 8127W        W74668  40.105   5.323  13.384
 8128W        W74669   8.078   4.232   2.908
 8129W        W74670  30.059  32.155   4.220
 8130W        W74671  12.619  18.248  12.040
 8131W        W74672  34.388   4.807  13.400
 8132W        W74673  41.129  32.322  12.008
 8133W        W74674  13.173  18.796  11.501
 8134W        W74675   4.414  35.899   4.256
 8135W        W74676  18.297  30.356   1.392
 8136W        W74677  40.273   0.946  14.867
 8137W        W74678   2.459  35.097  11.588
 8138W        W74679  17.528  20.707  14.889
 8139W        W74680   7.622  31.055  11.159
 8140W        W74681  40.482  13.212  10.748
 8141W        W74682  14.173  10.241   4.515
 8142W        W74683  30.610  14.906   9.887
 8143W        W74684  42.394   2.523  11.418
 8144W        W74685  35.826   4.950   0.837
 8145W        W74686  32.538  25.663  11.567
 8146W        W74687  34.382   0.511   1.690
 8147W        W74688  18.800  43.905   1.084
 8148W        W74689   6.175   2.942   5.472
 8149W        W74690   9.194  43.444  11.689
 8150W        W74691  18.791  41.248   4.409
 8151W        W74692   0.510  28.420  12.000
 8152W        W74693  41.568  18.008  14.917
 8153W        W74694  32.505  21.688  11.640
 8154W        W74695  11.940  12.698  11.612
 8155W        W74696  10.386  20.510   3.390
 8156W        W74697  18.645   7.883  10.500
 8157W        W74698  17.891  20.923  12.891
 8158W        W74699  28.615  15.091  14.049
 8159W        W74700  38.919  38.953  10.552
 8160W        W74701  36.779  30.113   4.782
 8161W        W74702  24.482  35.010   2.435
 8162W        W74703  35.357  30.054   2.188
 8163W        W74704   9.298  35.925  12.670
 8164W        W74705  30.094  15.670  11.515
 8165W        W74706  30.410  24.582   2.827
 8166W        W74707   9.435   2.496   1.582
 8167W        W74708  37.484  14.784   0.357
 8168W        W74709  34.171  30.174   1.602
 8169W        W74710  23.190   7.571  10.219
 8170W        W74711  32.376  40.399   0.242
 8171W        W74712  17.113   4.015  14.671
 8172W        W74713  13.644   1.635   2.037
 8173W        W74714  22.003   7.611   4.166
 8174W        W74715  41.959   3.862   0.460
 8175W        W74716   7.073  37.469   5.030
 8176W        W74717  40.757  23.533  14.042
 8177W        W74718  13.982  33.779   1.959
 8178W        W74719  15.466  24.590  14.872
 8179W        W74720  15.821   0.290  14.698
 8180W        W74721  26.294  37.792  12.004
 8181W        W74722   4.943  35.656   4.191
 8182W        W74723  44.601  17.804  14.903
 8183W        W74724  19.626  27.756  12.100
 8184W        W74725  12.743   7.963  14.397
 8185W        W74726  41.332  37.484  10.712
 8186W        W74727  40.951  31.943  14.862
 8187W        W74728   3.050  25.338   2.361
 8188W        W74729  21.387  32.588   1.196
 8189W        W74730  32.192  19.070  14.962
 8190W        W74731   3.704  40.406   4.568
 8191W        W74732  22.641   5.833   1.453
 8192W        W74733  22.025  42.238  14.370
 8193W        W74734   8.060  33.094   2.805
 8194W        W74735   8.987  37.286   4.293
 8195W        W74736  37.985  37.495  13.937
 8196W        W74737  23.998  17.539   4.804
 8197W        W74738  27.173  25.548  11.701
 8198W        W74739  25.899   0.915   3.925
 8199W        W74740  30.816  10.811   1.853
 8200W        W74741  41.280  29.472   3.410
 8201W        W74742  21.099  15.923   4.040
 8202W        W74743   5.384   0.521   0.719
 8203W        W74744  44.185  41.043   3.319
 8204W        W74745  14.371  42.934  14.137
 8205W        W74746  36.154  25.997   1.980
 8206W        W74747   2.745   5.438  12.762
 8207W        W74748  25.598   6.924  11.034
 8208W        W74749  11.541  10.666   4.831
 8209W        W74750  26.112  17.575   2.253
 8210W        W74751  29.819  27.718  11.965
 8211W        W74752  30.468  42.768   2.550
 8212W        W74753   0.914  37.616   1.783
 8213W        W74754  15.132  28.781   0.142
 8214W        W74755  16.364   1.374  13.372
 8215W        W74756   0.258  21.037  14.429
 8216W        W74757  44.076  43.264  13.017
 8217W        W74758  36.988  30.088  12.456
 8218W        W74759  28.441  32.205   3.693
 8219W        W74760   5.195   1.316  13.027
 8220W        W74761  42.417  21.477  14.346
 8221W        W74762  33.037  24.056   1.399
 8222W        W74763  19.743  43.911  11.106
 8223W        W74764  12.647  17.214   1.163
 8224W        W74765  12.798  41.157  11.927
 8225W        W74766  23.491  12.724   4.023
 8226W        W74767  10.383  41.493   1.422
 8227W        W74768   5.551  30.478  10.673
 8228W        W74769  37.883  10.454   0.049
 8229W        W74770  42.039  28.147   1.827
 8230W        W74771  16.261  15.815   2.653
 8231W        W74772  32.924   9.953   3.625
 8232W        W74773  31.678  29.226   0.893
 8233W        W74774   8.293  40.821  11.181
 8234W        W74775   9.928  14.083  12.550
 8235W        W74776  21.812   8.872   1.979
 8236W        W74777  26.898  29.952   4.215
 8237W        W74778   8.023   4.220  14.269
 8238W        W74779  30.937   5.795  14.013
 8239W        W74780  30.095   8.301  12.982
 8240W        W74781  41.200  20.278  12.874
 8241W        W74782  22.018  44.921  13.997
 8242W        W74783  21.174  27.802   3.241
 8243W        W74784  35.399  19.853   3.818
 8244W        W74785  38.356  42.493   4.172
 8245W        W74786  34.173  18.577   3.316
 8246W        W74787  14.892  26.027  10.396
 8247W        W74788   3.703   7.317   4.489
 8248W        W74789  19.458   9.648  10.728
 8249W        W74790  15.298  23.196  14.762
 8250W        W74791  31.178  35.785   1.670
 8251W        W74792  43.976  11.065   3.826
 8252W        W74793  23.553  35.957  13.826
 8253W        W74794  12.272  43.396   2.699
 8254W        W74795  24.517  10.114   0.803
 8255W        W74796  42.411  39.575   0.193
 8256W        W74797  34.773  28.455   4.029
 8257W        W74798  23.608   0.777  13.462
 8258W        W74799  34.642  31.452   3.759
 8259W        W74800  27.977   8.837   2.760
 8260W        W74801  21.561  24.396   1.389
 8261W        W74802  33.598  21.273   4.066
 8262W        W74803  28.179  39.883   2.334
 8263W        W74804  34.126  17.810  14.913
 8264W        W74805  43.714  27.466   4.163
 8265W        W74806  10.814  29.095   4.354
 8266W        W74807  36.290  34.886  13.885
 8267W        W74808  35.414  26.487   2.278
 8268W        W74809  29.913  20.958  14.828
 8269W        W74810  40.438  22.635   1.781
 8270W        W74811  19.138  14.390   3.704
 8271W        W74812  34.891  38.819   1.203
 8272W        W74813  21.174  43.858   3.525
 8273W        W74814  32.646  28.094   3.239
 8274W        W74815  18.409   7.367   4.571
 8275W        W74816  23.174   7.884   1.426
 8276W        W74817  29.518  30.373  13.834
 8277W        W74818  15.052  40.014  10.820
 8278W        W74819  13.350  21.506  10.492
 8279W        W74820  22.643  23.038  14.304
 8280W        W74821  36.532  44.959   1.309
 8281W        W74822  42.084  27.113  11.527
 8282W        W74823  32.099  22.425   1.466
 8283W        W74824   0.827  41.360   4.477
 8284W        W74825  24.652  24.025   1.791
 8285W        W74826  40.024  41.363   4.832
 8286W        W74827  35.425  30.163   1.652
 8287W        W74828  31.549  39.201  14.763
 8288W        W74829  10.119  18.333   1.371
 8289W        W74830  18.897  18.064   2.684
 8290W        W74831   9.651  41.367   4.575
 8291W        W74832  23.495  21.509   4.661
 8292W        W74833  32.918  40.758   4.142
 8293W        W74834  42.069   2.487   1.846
 8294W        W74835   1.447  32.539  13.404
 8295W        W74836   9.165  38.152   0.758
 8296W        W74837  13.500  35.356  10.943
 8297W        W74838  37.592  41.800  10.622
 8298W        W74839  38.000  16.113   2.273
 8299W        W74840  13.387  23.541  13.505
 8300W        W74841  16.359  34.076  12.468
 8301W        W74842  31.297  22.193  12.847
 8302W        W74843  26.985  18.569  14.754
 8303W        W74844  36.397   7.850  13.013
 8304W        W74845  37.161  32.941  13.505
 8305W        W74846  39.959  34.170  14.600
 8306W        W74847  19.656  32.993  13.020
 8307W        W74848   4.762  11.312  14.989
 8308W        W74849  21.734  14.166   0.015
 8309W        W74850  35.498  41.976   3.409
 8310W        W74851  42.259  24.115  14.315
 8311W        W74852   9.169   9.409   3.376
 8312W        W74853   6.804  30.862  11.599
 8313W        W74854  25.663  42.356  11.077
 8314W        W74855  40.662   5.535   1.776
 8315W        W74856  39.418  37.814   4.621
 8316W        W74857  44.256  32.383   3.739
 8317W        W74858   6.304  23.244  14.196
 8318W        W74859  39.190  19.835  11.542
 8319W        W74860   7.673  35.145  13.380
 8320W        W74861  28.501  32.991  10.537
 8321W        W74862   7.613  43.714   4.375
 8322W        W74863  25.549  43.841   2.685
 8323W        W74864  24.221  35.701  12.103
 8324W        W74865  40.023  19.575  11.148
 8325W        W74866  27.248   5.450  13.610
 8326W        W74867  26.600   1.256   3.181
 8327W        W74868  18.991  29.204   1.992
 8328W        W74869  24.091  34.619  12.944
 8329W        W74870   7.240   8.131  11.138
 8330W        W74871  40.361  42.565  12.060
 8331W        W74872  23.739  29.110  14.949
 8332W        W74873  29.604  11.251   0.741
 8333W        W74874  24.481  11.793  12.825
 8334W        W74875  23.545  40.615   0.823
 8335W        W74876  41.224  12.411  14.965
 8336W        W74877  22.444  32.988  10.633
 8337W        W74878  32.591  13.825   0.470
 8338W        W74879  27.417   2.798   1.229
 8339W        W74880   7.823  25.517   1.629
 8340W        W74881  30.385   3.177   1.895
 8341W        W74882  43.975  13.175   1.591
 8342W        W74883  28.921  10.098  13.415
 8343W        W74884   4.456   0.380  11.657
 8344W        W74885  10.965  39.520   9.850
 8345W        W74886   7.423  12.934   0.808
 8346W        W74887  20.683  14.425   1.014
 8347W        W74888  42.899  37.085  12.679
 8348W        W74889  18.198   1.304  11.131
 8349W        W74890  11.351  28.744  11.909
 8350W        W74891  23.677  29.106  11.147
 8351W        W74892   9.721   3.201  11.007
 8352W        W74893  37.993  33.785   2.628
 8353W        W74894  34.378  42.582  11.582
 8354W        W74895  44.382  38.445  13.808
 8355W        W74896  23.901   6.665   1.247
 8356W        W74897  32.943  28.203  12.115
 8357W        W74898  11.204  37.359   0.464
 8358W        W74899  43.454  37.571  13.749
 8359W        W74900  17.614  25.395   2.647
 8360W        W74901  25.059   8.787   4.613
 8361W        W74902  41.855  25.547  14.316
 8362W        W74903  14.255  14.543   4.745
 8363W        W74904   8.202   8.821  11.085
 8364W        W74905   8.813  26.613   2.698
 8365W        W74906  24.433  21.735   4.185
 8366W        W74907  38.768  42.925  11.178
 8367W        W74908  22.978   2.561   2.840
 8368W        W74909   8.599   0.401   3.284
 8369W        W74910   9.375  40.340   3.301
 8370W        W74911  12.942  42.368  13.552
 8371W        W74912   7.980  37.009  13.275
 8372W        W74913  29.723  11.210   2.844
 8373W        W74914  44.450   2.427   0.223
 8374W        W74915  24.514  29.937   1.689
 8375W        W74916   7.955  11.762   2.847
 8376W        W74917  16.052  11.953   0.838
 8377W        W74918  14.769  10.872  12.425
 8378W        W74919  39.434  13.156   2.884
 8379W        W74920   3.848  42.297   4.121
 8380W        W74921  34.201   5.494   2.311
 8381W        W74922  30.059  43.999   2.216
 8382W        W74923   0.467  18.054   3.332
 8383W        W74924   9.067  43.796  14.846
 8384W        W74925   8.230  17.596   1.780
 8385W        W74926  21.528  44.323   2.649
 8386W        W74927   4.833   7.255   0.564
 8387W        W74928  27.948  42.375   4.333
 8388W        W74929   3.916  43.633   9.641
 8389W        W74930  26.036  20.023   2.274
 8390W        W74931  29.000   5.512  12.076
 8391W        W74932   5.146   4.654  13.071
 8392W        W74933   4.273  22.245   3.043
 8393W        W74934  38.135  27.988  13.453
 8394W        W74935  19.261  34.570   1.145
 8395W        W74936  40.368  13.650   2.739
 8396W        W74937  43.237  27.245   4.175
 8397W        W74938  33.927  27.919   1.486
 8398W        W74939  25.592  41.090   4.241
 8399W        W74940  21.580   3.342  14.562
 8400W        W74941  34.116  41.072   4.517
 8401W        W74942  25.428  13.582   3.288
 8402W        W74943  30.505  42.100   3.282
 8403W        W74944  38.972  19.531   4.922
 8404W        W74945  16.011  35.109  14.889
 8405W        W74946  39.216  20.438  10.308
 8406W        W74947  32.040  23.831   3.126
 8407W        W74948   3.858  35.323   4.521
 8408W        W74949  27.505  27.356   2.292
 8409W        W74950  40.302  21.342   3.292
 8410W        W74951  30.185  13.672  12.713
 8411W        W74952   9.410  14.254   1.626
 8412W        W74953  22.107  24.043  11.558
 8413W        W74954  19.646  43.036   3.837
 8414W        W74955  11.443   3.657   1.428
 8415W        W74956  10.256  27.504  13.911
 8416W        W74957  23.814   2.217  11.826
 8417W        W74958  34.949   1.431  10.245
 8418W        W74959   6.907   5.142  12.274
 8419W        W74960  12.626  29.726   1.107
 8420W        W74961  40.131  20.998   1.444
 8421W        W74962  26.398  27.756  13.543
 8422W        W74963  23.284  41.463  13.787
 8423W        W74964  15.688  36.138   0.277
 8424W        W74965  24.749   1.295  12.892
 8425W        W74966   3.941  44.522  13.922
 8426W        W74967  26.215  17.128  11.171
 8427W        W74968   3.565  18.643  12.108
 8428W        W74969   8.770  44.754   0.773
 8429W        W74970  24.537  14.612  14.539
 8430W        W74971  12.861   5.911  11.986
 8431W        W74972  23.785  31.210  14.328
 8432W        W74973  18.541  14.829  13.808
 8433W        W74974  27.406  35.321  13.946
 8434W        W74975   7.594  36.576  12.465
 8435W        W74976  32.447  11.423   0.102
 8436W        W74977   3.036  36.669  14.054
 8437W        W74978  21.653  33.628  10.634
 8438W        W74979  40.451  14.800   1.217
 8439W        W74980  11.732   1.938   0.872
 8440W        W74981  18.674  39.084   2.720
 8441W        W74982  28.688   8.176   3.083
 8442W        W74983  44.551  26.605  10.686
 8443W        W74984   3.890  39.403  13.863
 8444W        W74985  12.414  42.476   1.414
 8445W        W74986  11.915  25.544  14.851
 8446W        W74987  24.163   2.276   0.541
 8447W        W74988  43.252  28.644  12.031
 8448W        W74989  28.633  24.507   1.457
 8449W        W74990  23.254  26.619   2.921
 8450W        W74991  12.449  29.578  11.785
 8451W        W74992  17.360   5.853  14.307
 8452W        W74993   9.096  30.552  11.666
 8453W        W74994  14.769  43.090  13.022
 8454W        W74995  20.590  13.674  14.343
 8455W        W74996  37.915  38.448  13.463
 8456W        W74997  36.326  17.086  10.337
 8457W        W74998   3.816  33.746   0.403
 8458W        W74999  14.823   8.957   3.540
 8459W        W75000   2.804  40.128   1.383
 8460W        W75001  16.606   1.514  14.264
 8461W        W75002  11.316  11.421  14.956
 8462W        W75003  31.441  32.829   2.768
 8463W        W75004  21.398   3.032  14.015
 8464W        W75005  39.834  36.427  11.674
 8465W        W75006  10.617   5.944   0.660
 8466W        W75007  39.301  20.332   2.761
 8467W        W75008  28.026  27.523  14.302
 8468W        W75009  24.640  38.062   1.720
 8469W        W75010  34.490  34.233  13.039
 8470W        W75011  40.560  21.016  11.542
 8471W        W75012  17.708   8.409   2.267
 8472W        W75013   3.705   9.398   1.367
 8473W        W75014  43.989   3.796  10.760
 8474W        W75015  25.763  35.388  11.583
 8475W        W75016  33.238  10.072  14.506
 8476W        W75017  27.546  33.783   0.391
 8477W        W75018  36.089  23.710   1.294
 8478W        W75019  42.968  16.987   0.661
 8479W        W75020  27.014  40.910  14.802
 8480W        W75021  28.497  24.685   1.926
 8481W        W75022   0.822  41.353  13.324
 8482W        W75023  38.463  17.482  11.401
 8483W        W75024  36.816  27.127  13.022
 8484W        W75025  26.278  36.305  14.489
 8485W        W75026  43.828   8.606  10.666
 8486W        W75027  28.701  18.992   2.327
 8487W        W75028  30.515  44.189   2.723
 8488W        W75029  22.611  38.642   0.023
 8489W        W75030  15.247   6.861   0.433
 8490W        W75031  10.552   9.198   4.563
 8491W        W75032  22.762   3.862   4.553
 8492W        W75033  38.777  33.947  13.497
 8493W        W75034  26.047   9.919  10.410
 8494W        W75035   7.431   7.670  11.099
 8495W        W75036  17.204  23.499   1.771
 8496W        W75037  11.630  17.808   4.343
 8497W        W75038  16.341  42.060  11.610
 8498W        W75039   8.768  25.703  11.060
 8499W        W75040  23.944  29.844   0.923
 8500W        W75041   6.550  24.568  10.929
 8501W        W75042  24.004  39.663  14.253
 8502W        W75043  25.543  35.134   2.455
 8503W        W75044   1.130   8.249  11.205
 8504W        W75045  16.785  41.510  11.978
 8505W        W75046   9.669  12.060   2.734
 8506W        W75047  20.781  13.685  14.824
 8507W        W75048   5.272   7.632  14.940
 8508W        W75049   1.807  35.180   1.769
 8509W        W75050   1.831  38.426   1.416
 8510W        W75051  22.173  20.487   0.823
 8511W        W75052  39.161  39.254  12.017
 8512W        W75053  31.179   4.084  10.689
 8513W        W75054  41.827   2.128  14.316
 8514W        W75055  27.239  25.160   2.064
 8515W        W75056  24.253   9.586  14.296
 8516W        W75057   0.826  23.102  14.506
 8517W        W75058  35.655  36.733  11.162
 8518W        W75059   4.232  39.513   3.403
 8519W        W75060  32.956  28.427   3.582
 8520W        W75061  13.504  11.520  11.379
 8521W        W75062  12.390  17.055   4.229
 8522W        W75063  26.935   3.454   2.485
 8523W        W75064  12.266  15.289   4.678
 8524W        W75065   9.424  41.520   3.381
 8525W        W75066  16.119   6.947   0.874
 8526W        W75067  31.368  18.236   4.564
 8527W        W75068  12.881  32.991  14.486
 8528W        W75069  27.659   4.824   1.286
 8529W        W75070   0.739   7.945   4.065
 8530W        W75071  44.516  41.406  14.996
 8531W        W75072   7.856   9.266   1.769
 8532W        W75073  18.984  17.644   0.002
 8533W        W75074   2.815  33.935   0.446
 8534W        W75075  17.575  12.209  10.616
 8535W        W75076  19.250  43.357   3.763
 8536W        W75077  12.164  18.575   2.401
 8537W        W75078  12.548  30.124   3.582
 8538W        W75079  29.209   9.567  12.053
 8539W        W75080  21.201  15.831  13.464
 8540W        W75081  15.339  37.137  12.976
 8541W        W75082   3.889  35.151  11.430
 8542W        W75083  10.446  18.362   0.978
 8543W        W75084  26.070  43.835   1.708
 8544W        W75085  23.626  36.551   3.668
 8545W        W75086  26.775   8.707   0.732
 8546W        W75087  43.450  44.632  12.683
 8547W        W75088  35.783   3.490   2.264
 8548W        W75089   5.029  27.895  12.412
 8549W        W75090  38.061  38.608  14.690
 8550W        W75091  42.385  13.293  10.694
 8551W        W75092   3.674  21.986  12.717
 8552W        W75093  24.501   1.567   3.143
 8553W        W75094  32.863   7.135  12.908
 8554W        W75095   0.363  24.768   1.798
 8555W        W75096  15.065   5.729  11.383
 8556W        W75097  44.405  13.032  10.274
 8557W        W75098  27.931  40.332   3.665
 8558W        W75099  34.246   6.691   3.352
 8559W        W75100  31.904  30.554   3.657
 8560W        W75101  41.987   9.681   3.794
 8561W        W75102  37.331  13.558   3.719
 8562W        W75103  37.994   5.632   2.803
 8563W        W75104   7.785  21.659  14.859
 8564W        W75105  14.355  21.895   1.348
 8565W        W75106  19.191  17.274   3.363
 8566W        W75107  21.724  15.862  11.117
 8567W        W75108  19.146  22.045  14.102
 8568W        W75109  42.357  38.044  14.394
 8569W        W75110  23.800   6.341  14.081
 8570W        W75111  37.951   4.282  13.494
 8571W        W75112   5.350   5.362  12.716
 8572W        W75113  23.022  36.222   4.158
 8573W        W75114  33.953   8.628  14.932
 8574W        W75115   0.327  15.190  14.029
 8575W        W75116  20.682  17.543   3.339
 8576W        W75117  20.274  23.534  12.402
 8577W        W75118  17.126  44.390  12.490
 8578W        W75119  11.717  26.143   2.128
 8579W        W75120  16.997  39.501   4.868
 8580W        W75121  30.027  15.191   2.718
 8581W        W75122  18.096   9.693   0.748
 8582W        W75123  42.037   3.390  13.591
 8583W        W75124  37.445   7.035   1.140
 8584W        W75125  18.223  16.020   2.205
 8585W        W75126   8.423  34.141   2.580
 8586W        W75127  38.073  26.516   3.207
 8587W        W75128  27.549  15.670   4.664
 8588W        W75129  13.223  29.309   4.187
 8589W        W75130   5.257   1.036   1.481
 8590W        W75131   4.018   9.547  10.603
 8591W        W75132  36.743  43.385  11.826
 8592W        W75133  20.170  44.885  12.022
 8593W        W75134   8.117  22.828   0.216
 8594W        W75135  42.510  21.387  11.103
 8595W        W75136  18.040  12.057   0.409
 8596W        W75137  10.735  28.662  13.027
 8597W        W75138  12.005   1.994   1.315
 8598W        W75139   2.435  15.210   0.244
 8599W        W75140   8.920  33.199   4.098
 8600W        W75141  39.018  20.471  13.542
 8601W        W75142  13.778  12.903  12.434
 8602W        W75143  37.907  39.319  14.596
 8603W        W75144  25.040  13.924  14.730
 8604W        W75145  12.338  25.226  10.508
 8605W        W75146   4.339  26.182  12.167
 8606W        W75147  27.573  33.638  13.516
 8607W        W75148   6.842  32.359   3.315
 8608W        W75149  15.696  36.225  10.261
 8609W        W75150  19.029  34.808  13.793
 8610W        W75151  37.147   1.750   1.002
 8611W        W75152   0.213  32.069  14.057
 8612W        W75153  34.338  20.238  13.498
 8613W        W75154   7.179  23.181   1.930
 8614W        W75155  37.975  30.677  12.677
 8615W        W75156  33.550  30.072  14.762
 8616W        W75157   6.827   8.782   5.181
 8617W        W75158   7.413  22.570  14.357
 8618W        W75159  28.677  29.648  13.644
 8619W        W75160  28.429  36.563   3.628
 8620W        W75161  17.799   2.251  11.870
 8621W        W75162   9.373  43.914  13.827
 8622W        W75163   3.947  30.197  12.300
 8623W        W75164  30.755  22.622  12.609
 8624W        W75165  10.929  36.104  11.106
 8625W        W75166   7.109  36.821   3.035
 8626W        W75167  22.155  19.121  14.772
 8627W        W75168  37.954   6.243   1.300
 8628W        W75169  26.166   1.547  13.376
 8629W        W75170   0.722  30.090   4.327
 8630W        W75171  25.104   5.890   0.819
 8631W        W75172  21.052  39.556   2.267
 8632W        W75173  35.545  28.494  13.835
 8633W        W75174  29.673  19.641   3.110
 8634W        W75175  39.949   9.688  12.563
 8635W        W75176  32.407  18.226   4.689
 8636W        W75177  24.568  18.234   3.367
 8637W        W75178  18.767  42.734   1.004
 8638W        W75179  35.499  14.075   3.147
 8639W        W75180  33.690  16.584  11.128
 8640W        W75181   3.983  36.973  13.694
 8641W        W75182  43.809  13.379  13.034
 8642W        W75183   0.369   0.369   0.225
 8643W        W75184  38.453  27.680   2.861
 8644W        W75185  27.029  33.251   4.571
 8645W        W75186   7.362  31.834   3.635
 8646W        W75187   4.635  27.621  12.637
 8647W        W75188   4.737  20.284   1.585
 8648W        W75189   4.981  41.159   1.976
 8649W        W75190  15.754   5.214  12.665
 8650W        W75191  42.410  15.305   1.633
 8651W        W75192  25.936  38.158   0.370
 8652W        W75193  15.215  26.639  13.019
 8653W        W75194  38.612   0.981   0.837
 8654W        W75195  31.183   6.280  11.992
 8655W        W75196  14.213  19.988  14.139
 8656W        W75197  40.996  39.063   0.877
 8657W        W75198   3.030  29.020   0.567
 8658W        W75199   7.029  33.502  11.712
 8659W        W75200  37.695  41.451   4.987
 8660W        W75201  16.153  43.410  14.797
 8661W        W75202  32.656  29.100   0.760
 8662W        W75203   6.242  37.356   4.099
 8663W        W75204  38.933   7.626   2.202
 8664W        W75205  35.795  28.693  14.466
 8665W        W75206   1.759  29.402   1.442
 8666W        W75207   4.219  30.940  14.715
 8667W        W75208  23.097  38.412  13.017
 8668W        W75209  43.405  10.778   1.839
 8669W        W75210   0.439  42.100  11.530
 8670W        W75211   0.558  25.930   0.308
 8671W        W75212  36.566   5.697  14.205
 8672W        W75213  12.657  16.115  13.511
 8673W        W75214  35.478   5.363   1.142
 8674W        W75215  27.646  30.960   2.131
 8675W        W75216   7.249   9.471   0.019
 8676W        W75217   9.937  18.147   9.936
 8677W        W75218   6.427  21.306  14.892
 8678W        W75219  27.462  29.626  14.524
 8679W        W75220  43.985  30.582  13.277
 8680W        W75221  32.079  16.145   0.897
 8681W        W75222  21.682  23.468   0.415
 8682W        W75223  12.597  37.892   2.705
 8683W        W75224  34.523  16.990  10.697
 8684W        W75225  41.503  14.145   3.145
 8685W        W75226  16.176  20.316  13.488
 8686W        W75227  27.852   1.970  13.035
 8687W        W75228  16.031  19.011   1.929
 8688W        W75229  18.741   7.444  10.730
 8689W        W75230  15.904  16.268   4.447
 8690W        W75231   4.261  11.790  10.364
 8691W        W75232  20.813  24.570  13.129
 8692W        W75233   5.968  17.805   4.964
 8693W        W75234   8.803  24.029  11.271
 8694W        W75235  35.026   9.564  14.409
 8695W        W75236  21.513  24.902  10.707
 8696W        W75237  34.504  26.373   0.140
 8697W        W75238  34.423   7.695  13.400
 8698W        W75239  16.712  15.838  13.040
 8699W        W75240  39.888  12.629  10.290
 8700W        W75241  35.541  27.546  13.306
 8701W        W75242   1.654  40.136   3.701
 8702W        W75243  15.831  36.403  14.251
 8703W        W75244  42.216  16.328   1.599
 8704W        W75245   6.599   5.472  11.450
 8705W        W75246  19.077  30.512   3.292
 8706W        W75247  32.993  27.409  10.397
 8707W        W75248   4.825  28.861  10.753
 8708W        W75249   4.674   9.730   4.541
 8709W        W75250  24.988  43.829  11.417
 8710W        W75251   4.262  34.396  13.465
 8711W        W75252  26.696  29.485  12.446
 8712W        W75253   2.886  33.634   4.681
 8713W        W75254  15.845  43.110   2.834
 8714W        W75255  37.366  29.196   3.162
 8715W        W75256  28.136  16.633  10.506
 8716W        W75257   9.125  32.342   4.129
 8717W        W75258  30.150   6.992  12.456
 8718W        W75259   6.660  42.359  14.689
 8719W        W75260  20.279   1.656  12.528
 8720W        W75261  26.044  13.221   0.163
 8721W        W75262   0.667  40.123  13.958
 8722W        W75263  12.137   0.035  14.156
 8723W        W75264  22.716  32.823   1.197
 8724W        W75265  41.905  28.589  11.505
 8725W        W75266   4.417   5.598  12.383
 8726W        W75267   8.377  36.293  14.396
 8727W        W75268  21.246  21.437   0.706
 8728W        W75269   8.278  28.825  13.023
 8729W        W75270   6.458  34.087   0.855
 8730W        W75271  10.584  25.231  11.224
 8731W        W75272  12.856  43.778  13.961
 8732W        W75273  23.552  11.792   0.347
 8733W        W75274  12.306  17.690   2.419
 8734W        W75275   9.329  39.999  12.509
 8735W        W75276  28.991  14.200  12.976
 8736W        W75277   6.415  19.470   1.335
 8737W        W75278   0.718  41.127   4.028
 8738W        W75279  16.611  41.470   3.959
 8739W        W75280  11.909  44.922   4.641
 8740W        W75281  27.000   7.764   1.362
 8741W        W75282  20.835   2.332  11.143
 8742W        W75283   7.715   4.183   1.750
 8743W        W75284  26.386  15.566   2.756
 8744W        W75285  36.649  22.962  12.888
 8745W        W75286  11.856  11.416   0.211
 8746W        W75287  22.122   0.680   0.593
 8747W        W75288  40.247  40.838  13.308
 8748W        W75289  38.377  13.588  12.462
 8749W        W75290  24.076  35.916   5.435
 8750W        W75291  28.974  18.768  11.592
 8751W        W75292   5.858   6.936  12.984
 8752W        W75293  11.847   2.270  12.401
 8753W        W75294   8.635  35.203   3.462
 8754W        W75295  16.774  32.382  13.328
 8755W        W75296   5.984   2.226  14.837
 8756W        W75297  37.913  16.580  13.808
 8757W        W75298   9.600  40.299   4.795
 8758W        W75299  18.760  37.560  10.714
 8759W        W75300  41.351   0.346  12.876
 8760W        W75301  27.957   8.569   1.621
 8761W        W75302  30.608   7.578   3.261
 8762W        W75303  39.888  28.633   0.381
 8763W        W75304   5.312   6.281   2.191
 8764W        W75305   4.772  28.820  12.065
 8765W        W75306  43.473   3.793  11.972
 8766W        W75307  30.031   4.866   2.483
 8767W        W75308   7.700  21.103   3.828
 8768W        W75309   5.858   3.508  12.978
 8769W        W75310   8.893   0.919  13.933
 8770W        W75311  26.640  16.878   1.400
 8771W        W75312  23.112   7.955  11.493
 8772W        W75313   9.721   8.686   3.191
 8773W        W75314   2.104  40.155  11.874
 8774W        W75315   4.291  15.443  12.074
 8775W        W75316  35.056  34.444  12.359
 8776W        W75317   1.425   5.871   4.726
 8777W        W75318  20.958  32.158  11.036
 8778W        W75319  12.870  25.284  12.047
 8779W        W75320  25.510   8.338   2.808
 8780W        W75321  21.186   1.750  11.631
 8781W        W75322  15.809   3.670  14.900
 8782W        W75323   5.778   2.944   3.779
 8783W        W75324  20.675   1.663  11.782
 8784W        W75325  21.276   0.224   2.223
 8785W        W75326   0.484  43.424  13.502
 8786W        W75327  34.614  31.967   0.497
 8787W        W75328  25.563  36.132  10.981
 8788W        W75329  32.484  22.293   4.523
 8789W        W75330  16.604  31.329  12.484
 8790W        W75331   7.836  23.762  10.694
 8791W        W75332  12.943  39.321  13.428
 8792W        W75333  17.799  36.948   0.324
 8793W        W75334  31.701  30.195  13.973
 8794W        W75335  41.261  37.203  11.700
 8795W        W75336  25.758   2.783  14.218
 8796W        W75337   1.006  20.778   0.426
 8797W        W75338  11.741   8.975  14.353
 8798W        W75339  34.984  10.348  13.962
 8799W        W75340  26.158   9.460  14.973
 8800W        W75341   5.710  32.655  14.484
 8801W        W75342  19.172  15.884  11.090
 8802W        W75343  35.033  11.371  14.741
 8803W        W75344  26.249  13.981   0.350
 8804W        W75345  29.137  27.704   1.855
 8805W        W75346   0.861   7.997   4.889
 8806W        W75347  10.182   2.384   3.148
 8807W        W75348  43.942  31.581  11.434
 8808W        W75349  35.333  23.937  12.159
 8809W        W75350   9.754  30.053   0.803
 8810W        W75351  41.495  21.962  13.013
 8811W        W75352  13.344  19.219  11.968
 8812W        W75353  14.177  16.066   4.483
 8813W        W75354  36.562  22.907   4.537
 8814W        W75355  35.743  37.943   3.624
 8815W        W75356  43.877  22.388   4.618
 8816W        W75357  23.477  21.654  11.046
 8817W        W75358  24.657   5.205  11.434
 8818W        W75359  28.400  34.582   1.265
 8819W        W75360   8.757  31.931   4.592
 8820W        W75361   7.022   5.605   3.686
 8821W        W75362   4.211  30.157  13.094
 8822W        W75363   3.295   3.088   2.387
 8823W        W75364   0.469  29.366   3.840
 8824W        W75365  30.079   8.205  13.956
 8825W        W75366  22.645  11.573  12.055
 8826W        W75367   8.292  20.244   1.282
 8827W        W75368  15.150  11.348   2.244
 8828W        W75369  19.229  22.522   1.874
 8829W        W75370  25.157  21.350  13.091
 8830W        W75371  22.273  41.018   3.727
 8831W        W75372  42.234  42.854  14.098
 8832W        W75373  10.080  37.998   3.157
 8833W        W75374  24.110  18.274   0.002
 8834W        W75375  34.110  38.656   2.887
 8835W        W75376  41.112  13.723   0.208
 8836W        W75377   1.162  10.755  14.065
 8837W        W75378  14.866  24.755  11.152
 8838W        W75379   6.377  31.353  10.728
 8839W        W75380   8.872   0.204   4.218
 8840W        W75381  20.060  40.021   4.107
 8841W        W75382  39.177  20.946   5.118
 8842W        W75383   9.860  18.916  13.654
 8843W        W75384  27.903  44.776  11.718
 8844W        W75385  29.089  28.905   2.302
 8845W        W75386  27.400  32.147  13.907
 8846W        W75387  43.286  14.370   0.298
 8847W        W75388  37.637  31.505   4.153
 8848W        W75389  12.101  27.755   3.720
 8849W        W75390  30.710  33.951  10.997
 8850W        W75391  23.963  31.902  12.014
 8851W        W75392  37.876  36.908   2.653
 8852W        W75393  42.391  26.978   2.265
 8853W        W75394  29.874  42.863   2.018
 8854W        W75395   5.616  22.182   0.309
 8855W        W75396  14.577  33.450  11.542
 8856W        W75397  18.498  33.301   2.696
 8857W        W75398  27.447  12.219   3.713
 8858W        W75399  20.983  24.154   1.860
 8859W        W75400  25.417  30.990  11.902
 8860W        W75401   1.227   0.732  11.089
 8861W        W75402  27.215  29.957  10.995
 8862W        W75403  32.149  31.978  12.547
 8863W        W75404  27.562  28.466  12.944
 8864W        W75405  18.861  11.201  13.573
 8865W        W75406  19.516  24.719  11.205
 8866W        W75407  24.022   2.939   2.382
 8867W        W75408  20.421  42.791  11.663
 8868W        W75409   4.148   0.341  11.242
 8869W        W75410  29.583   2.668  11.235
 8870W        W75411  24.403   0.261  13.548
 8871W        W75412  18.287   3.269  13.883
 8872W        W75413  44.523  35.531   2.158
 8873W        W75414  20.867   9.259  11.580
 8874W        W75415   1.978  40.602   2.767
 8875W        W75416  17.357   0.193  13.402
 8876W        W75417  37.133   4.327   4.157
 8877W        W75418  28.499  39.272  12.809
 8878W        W75419  44.372   6.132   1.811
 8879W        W75420  13.518  30.941   1.331
 8880W        W75421   7.192  31.345   2.713
 8881W        W75422  15.550   7.101   1.240
 8882W        W75423  10.378  33.595  14.735
 8883W        W75424  15.127  25.249  12.605
 8884W        W75425  19.089   6.854   0.979
 8885W        W75426  44.767  28.330   3.993
 8886W        W75427   9.036  11.385  14.769
 8887W        W75428  40.854  39.530  12.452
 8888W        W75429  37.915  24.601  12.091
 8889W        W75430   4.521  33.771  14.979
 8890W        W75431   2.255  40.871  10.874
 8891W        W75432  40.889  44.742   2.339
 8892W        W75433  22.965  10.930  11.964
 8893W        W75434   8.730  23.099  11.685
 8894W        W75435  34.199  31.359  14.508
 8895W        W75436  28.346  38.470  12.820
 8896W        W75437   9.756  16.704  13.845
 8897W        W75438  12.549  43.006  11.428
 8898W        W75439  31.888   2.171   3.595
 8899W        W75440  21.071   5.011  14.275
 8900W        W75441  44.412  24.928  12.043
 8901W        W75442   0.916  23.136   4.548
 8902W        W75443  11.380  17.276  10.587
 8903W        W75444  15.335  17.544  14.324
 8904W        W75445  25.793   8.903   3.634
 8905W        W75446  14.577   8.622   0.701
 8906W        W75447  42.463  38.701  11.086
 8907W        W75448  29.221   3.794   1.406
 8908W        W75449  22.301  42.324  14.813
 8909W        W75450   8.780  38.727  13.375
 8910W        W75451  44.579   7.660   2.385
 8911W        W75452   2.784  43.774  12.497
 8912W        W75453  38.002  20.266  12.468
 8913W        W75454   2.866   0.030  11.946
 8914W        W75455  43.123  35.883  11.525
 8915W        W75456  40.417  15.384  13.820
 8916W        W75457  24.779  23.610  11.437
 8917W        W75458  18.819  30.218  13.963
 8918W        W75459  29.132  17.961   0.679
 8919W        W75460  22.573   0.672  13.601
 8920W        W75461  13.820  16.803  11.860
 8921W        W75462  33.900  33.330   2.257
 8922W        W75463  27.882  18.012  12.888
 8923W        W75464  19.807  31.915   4.472
 8924W        W75465   8.737  38.805  14.785
 8925W        W75466  40.521  21.120   0.958
 8926W        W75467  10.887   9.640   3.365
 8927W        W75468   1.999   6.270  13.461
 8928W        W75469  17.607  27.891   1.302
 8929W        W75470   1.493  35.318  10.668
 8930W        W75471  28.866  32.900   1.414
 8931W        W75472  25.671  29.680   2.254
 8932W        W75473  20.265  22.015   1.194
 8933W        W75474   6.159  27.624   0.497
 8934W        W75475  29.275   0.668  11.003
 8935W        W75476  36.018  43.493   0.015
 8936W        W75477  25.838  10.824  10.616
 8937W        W75478  15.621  23.478   4.708
 8938W        W75479  10.321  21.511  11.951
 8939W        W75480  30.761  44.904  13.730
 8940W        W75481  42.808  19.196   0.656
 8941W        W75482  27.526  39.845   4.238
 8942W        W75483  11.687  37.128   1.449
 8943W        W75484  23.778  19.227   4.582
 8944W        W75485   3.537  41.411   5.064
 8945W        W75486   0.285  21.247  11.530
 8946W        W75487   8.447  13.414  11.376
 8947W        W75488   0.420   1.059   1.441
 8948W        W75489  11.103  24.993   2.464
 8949W        W75490  41.299  43.455  13.199
 8950W        W75491  35.866   6.435   3.126
 8951W        W75492  43.871  44.468  13.897
 8952W        W75493  39.187   7.654  10.894
 8953W        W75494  17.253  32.873   0.272
 8954W        W75495  30.998  40.470   3.798
 8955W        W75496   4.308  21.172  11.091
 8956W        W75497  34.118   3.796   0.310
 8957W        W75498  18.228  35.141  14.407
 8958W        W75499  31.709  39.643  12.365
 8959W        W75500  28.922  40.344  11.205
 8960W        W75501  19.813   2.731   3.270
 8961W        W75502  29.636  14.092  13.779
 8962W        W75503   2.343  13.253  11.337
 8963W        W75504  12.810   3.912  13.880
 8964W        W75505   2.701  29.467   1.728
 8965W        W75506  36.384  44.521   5.030
 8966W        W75507  41.356  21.159  12.935
 8967W        W75508  27.637  40.391  14.446
 8968W        W75509   3.424  19.313  10.748
 8969W        W75510  13.173  37.804  13.345
 8970W        W75511  26.304  12.209   2.839
 8971W        W75512  18.490  32.916   2.314
 8972W        W75513  24.501  35.423   0.017
 8973W        W75514  10.092  10.909  14.251
 8974W        W75515  27.546   8.638  13.997
 8975W        W75516  43.962  11.548   3.673
 8976W        W75517   6.665  40.031   0.404
 8977W        W75518  35.998   3.210   3.650
 8978W        W75519  11.657  22.555  14.984
 8979W        W75520   7.879   3.208   5.461
 8980W        W75521  13.876  15.357  13.674
 8981W        W75522  16.765  23.191  14.497
 8982W        W75523  44.843  21.075  13.247
 8983W        W75524  12.285   2.579  13.231
 8984W        W75525  12.617   2.707   1.478
 8985W        W75526  16.671  30.413  11.183
 8986W        W75527   7.791  26.229  14.474
 8987W        W75528   9.318  22.240   0.915
 8988W        W75529  27.932  19.695   0.661
 8989W        W75530  29.066  17.903  13.827
 8990W        W75531  10.410  39.829   1.749
 8991W        W75532  30.038  30.437  11.254
 8992W        W75533  29.025  26.754   0.776
 8993W        W75534  35.030  13.875  12.922
 8994W        W75535  36.456  18.785   0.649
 8995W        W75536  40.336  27.929   0.097
 8996W        W75537  11.698  41.412  14.792
 8997W        W75538  25.964  42.110   2.285
 8998W        W75539  12.859   7.646   4.751
 8999W        W75540  29.690  32.909   2.249
 9000W        W75541  16.200  25.826  11.923
 9001W        W75542  10.376   8.332  11.166
 9002W        W75543  29.471  34.104   0.799
 9003W        W75544  36.082  24.026   0.844
 9004W        W75545  40.574  11.372   2.905
 9005W        W75546  26.218  16.580   1.366
 9006W        W75547  21.995  43.828  12.474
 9007W        W75548  25.751  20.341   3.197
 9008W        W75549  33.249  18.123   4.963
 9009W        W75550  25.153  31.449  12.050
 9010W        W75551  38.426  39.565   3.814
 9011W        W75552  41.600  44.496   4.170
 9012W        W75553  38.193  43.994  13.491
 9013W        W75554   7.381  40.050  13.101
 9014W        W75555  16.685   1.924   5.043
 9015W        W75556   2.826  43.811  14.753
 9016W        W75557  36.761  29.361   2.370
 9017W        W75558  44.238  41.835  14.889
 9018W        W75559  40.577  11.317   5.227
 9019W        W75560  19.238  35.363   2.826
 9020W        W75561   6.045   5.816   3.769
 9021W        W75562  26.017  14.083  13.588
 9022W        W75563  40.405  12.062  12.606
 9023W        W75564  10.355  25.731  12.799
 9024W        W75565   0.214   7.728   3.221
 9025W        W75566  15.223  16.756  14.227
 9026W        W75567  37.431  14.062   3.611
 9027W        W75568  36.023   2.820  12.406
 9028W        W75569  19.254  43.856  12.857
 9029W        W75570  28.529   5.335  10.432
 9030W        W75571  30.247  44.940  13.576
 9031W        W75572  36.758   1.183  11.613
 9032W        W75573  25.232  16.583   2.483
 9033W        W75574   2.596  21.671  12.049
 9034W        W75575  25.648  22.760   4.214
 9035W        W75576  31.167  22.509  11.630
 9036W        W75577  27.444  27.689  11.465
 9037W        W75578   5.694  43.319   2.947
 9038W        W75579  44.032  29.321  11.630
 9039W        W75580  12.271  41.472  14.960
 9040W        W75581  37.281  10.964   2.803
 9041W        W75582  16.827  42.869  14.241
 9042W        W75583  37.575  33.050   0.249
 9043W        W75584   1.984  14.310   4.050
 9044W        W75585  39.024  33.069   1.409
 9045W        W75586  36.429  41.944  11.926
 9046W        W75587  38.875  23.091   4.623
 9047W        W75588  17.751  36.585   2.779
 9048W        W75589  26.575  42.430  11.545
 9049W        W75590   6.935  32.909  10.570
 9050W        W75591   5.129  26.025  13.796
 9051W        W75592   1.052  42.813  13.650
 9052W        W75593  29.392   5.421  11.531
 9053W        W75594  42.786  42.758  11.642
 9054W        W75595  25.680  16.297   4.451
 9055W        W75596  26.076   3.013  14.914
 9056W        W75597  18.770   5.427  14.133
 9057W        W75598  42.574  24.996  13.991
 9058W        W75599  21.009   1.212   0.322
 9059W        W75600  18.730  43.882   3.750
 9060W        W75601  26.488  21.898  10.719
 9061W        W75602   1.246  25.290  13.430
 9062W        W75603  24.491   0.976   1.867
 9063W        W75604   0.714  18.783   0.297
 9064W        W75605  12.807  10.682   4.139
 9065W        W75606  17.517  18.687   2.578
 9066W        W75607   3.274  40.168  11.174
 9067W        W75608  16.661  10.003   1.163
 9068W        W75609  41.494  24.504   3.921
 9069W        W75610  39.482   6.302  12.747
 9070W        W75611  12.890  38.240  13.355
 9071W        W75612  15.420  35.495   5.108
 9072W        W75613  31.983   1.191   1.723
 9073W        W75614  16.524   0.624  13.895
 9074W        W75615  22.119   7.863   4.642
 9075W        W75616  17.268  44.781   1.191
 9076W        W75617  35.677  13.670  11.595
 9077W        W75618  24.931   2.712   1.855
 9078W        W75619  33.197  29.158   1.472
 9079W        W75620  34.978  14.358   3.704
 9080W        W75621   5.333  18.030  10.631
 9081W        W75622  40.502  36.676   1.466
 9082W        W75623  12.659  29.932  14.570
 9083W        W75624  32.992  21.200   0.572
 9084W        W75625  24.511  41.912   0.307
 9085W        W75626  22.585  40.886   0.073
 9086W        W75627  44.514  41.297   4.531
 9087W        W75628  24.980  22.829  12.897
 9088W        W75629  32.529   2.315   1.316
 9089W        W75630  38.920  12.894  11.944
 9090W        W75631  32.586  14.116   0.904
 9091W        W75632   8.896  36.245  14.513
 9092W        W75633  23.206   1.287   0.365
 9093W        W75634  23.833  41.056   0.806
 9094W        W75635   2.459  17.260   2.180
 9095W        W75636   0.906  11.846   1.683
 9096W        W75637  27.892  23.605   3.753
 9097W        W75638  35.857  44.031   3.629
 9098W        W75639  40.784   0.310  12.083
 9099W        W75640  34.716   6.881   2.646
 9100W        W75641  19.300  27.407   4.111
 9101W        W75642  30.186  19.706  11.174
 9102W        W75643  17.744  41.738   1.880
 9103W        W75644  21.210  33.120  13.013
 9104W        W75645  26.211  22.988   3.559
 9105W        W75646  39.654  18.602   3.135
 9106W        W75647  10.569  33.496  12.198
 9107W        W75648  34.868  26.709  11.731
 9108W        W75649  18.389  35.137  12.991
 9109W        W75650  29.916   6.980  11.993
 9110W        W75651  26.220   7.409  14.767
 9111W        W75652   8.813  37.773  13.735
 9112W        W75653  44.334  42.776   0.249
 9113W        W75654  21.557  33.215   1.797
 9114W        W75655   4.129   4.839   4.102
 9115W        W75656  32.268  26.270   2.427
 9116W        W75657  34.767  23.810   0.585
 9117W        W75658  28.457  43.388  12.351
 9118W        W75659  30.891   8.289   1.838
 9119W        W75660   8.219  14.102   0.754
 9120W        W75661  37.185   0.711  10.739
 9121W        W75662  28.727  25.197  14.721
 9122W        W75663  35.151  10.443   5.088
 9123W        W75664  44.177   2.440   1.162
 9124W        W75665   7.859   8.284   3.194
 9125W        W75666   8.759   1.993   3.635
 9126W        W75667  11.397  41.864   4.103
 9127W        W75668  16.872  43.079  12.004
 9128W        W75669   0.511  24.365  11.560
 9129W        W75670  33.113  34.574  14.684
 9130W        W75671  36.449   4.353  14.466
 9131W        W75672  16.592  28.873   2.346
 9132W        W75673  27.737   1.197   0.507
 9133W        W75674   3.060  24.155  13.466
 9134W        W75675  12.398  25.066   2.154
 9135W        W75676   2.964  14.527  10.868
 9136W        W75677  41.499  33.069  11.601
 9137W        W75678  24.217  43.081   3.791
 9138W        W75679  18.877  42.828   2.885
 9139W        W75680  34.552  33.059  12.078
 9140W        W75681  18.526   6.798   2.304
 9141W        W75682  43.968  11.760   2.783
 9142W        W75683  28.126  23.177  11.523
 9143W        W75684  28.154  29.932   4.532
 9144W        W75685  44.567  37.000   0.225
 9145W        W75686  13.835  41.565   4.615
 9146W        W75687  17.099  12.803   3.166
 9147W        W75688  35.906  26.161  11.065
 9148W        W75689   7.575  30.477   0.514
 9149W        W75690   9.434  20.910   3.262
 9150W        W75691  13.520  10.891   3.727
 9151W        W75692  38.547  34.421   0.412
 9152W        W75693  16.787  44.158  13.930
 9153W        W75694  31.500  34.952   1.798
 9154W        W75695  12.773  23.597  12.925
 9155W        W75696  15.253  35.465  11.927
 9156W        W75697  40.017   1.359  11.593
 9157W        W75698  36.631  17.515   4.139
 9158W        W75699  41.030   7.275  14.670
 9159W        W75700  32.571   2.171  14.824
 9160W        W75701   5.736  16.060   0.717
 9161W        W75702   7.106  31.903   4.650
 9162W        W75703  25.252  21.381   0.204
 9163W        W75704  28.452  18.351  12.142
 9164W        W75705  27.575  16.113  11.359
 9165W        W75706   4.412  43.098  11.450
 9166W        W75707  23.695  31.561   0.369
 9167W        W75708  24.080   4.810   3.334
 9168W        W75709  29.507  23.205   4.142
 9169W        W75710  16.990  18.178  10.748
 9170W        W75711   2.469  37.077   4.580
 9171W        W75712  33.822  26.220   3.753
 9172W        W75713   9.396  11.330   0.782
 9173W        W75714  13.792  30.619   2.799
 9174W        W75715  13.293  22.333   2.248
 9175W        W75716  23.712  29.565   1.372
 9176W        W75717  30.735   3.339   2.275
 9177W        W75718  43.294  40.831   3.128
 9178W        W75719  26.484  31.581  10.474
 9179W        W75720  12.630  25.589   0.306
 9180W        W75721  39.939  36.369   2.341
 9181W        W75722  39.336  29.998   1.384
 9182W        W75723  37.737   7.867   4.227
 9183W        W75724  42.577  21.162   1.695
 9184W        W75725   2.316  21.951  12.438
 9185W        W75726  10.346  32.478  10.948
 9186W        W75727   8.044  13.554   2.046
 9187W        W75728   4.564   7.892   5.125
 9188W        W75729  22.692  30.511   1.762
 9189W        W75730  40.621   5.166  11.300
 9190W        W75731  37.788  27.274  12.883
 9191W        W75732  43.025  32.041   4.806
 9192W        W75733  44.778  44.814   1.866
 9193W        W75734  28.026  39.403  12.059
 9194W        W75735  27.575  21.891   3.382
 9195W        W75736  33.126  29.434  12.776
 9196W        W75737  32.444  14.305  10.559
 9197W        W75738  35.405  29.901  11.565
 9198W        W75739  22.589  13.676   0.771
 9199W        W75740  39.596  12.700  11.565
 9200W        W75741  31.397   2.272   2.698
 9201W        W75742  21.471  43.832   2.441
 9202W        W75743  36.990   3.235   9.693
 9203W        W75744  12.292   8.720  13.801
 9204W        W75745   0.773  35.800  13.380
 9205W        W75746   9.688  35.858  12.070
 9206W        W75747  40.444  43.990   1.576
 9207W        W75748  16.164  12.309  10.829
 9208W        W75749   6.159   6.390  13.772
 9209W        W75750  15.150   7.428   1.223
 9210W        W75751  39.785  11.200  13.499
 9211W        W75752  19.865   6.423   1.449
 9212W        W75753  32.988  15.732  13.589
 9213W        W75754   4.054  33.452   1.378
 9214W        W75755  38.662  22.622  11.159
 9215W        W75756  25.631  18.776   2.913
 9216W        W75757  37.614  33.093   3.162
 9217W        W75758  34.414   0.917  12.343
 9218W        W75759  29.611  19.265   0.936
 9219W        W75760  35.081  26.707   0.964
 9220W        W75761  29.974   8.502  10.669
 9221W        W75762  19.057   3.029   3.217
 9222W        W75763  10.081  24.064  14.158
 9223W        W75764   5.373  27.729   4.653
 9224W        W75765  33.315  29.253  14.291
 9225W        W75766  29.398  19.277  13.064
 9226W        W75767   1.440  26.673  10.817
 9227W        W75768  20.590  31.276  13.868
 9228W        W75769  36.553  26.199  12.864
 9229W        W75770  24.084  20.987   2.937
 9230W        W75771  10.664   9.202   1.918
 9231W        W75772   6.685  31.071   3.789
 9232W        W75773  20.533  27.020  11.555
 9233W        W75774  20.086  36.307  11.967
 9234W        W75775  31.239   7.607  11.970
 9235W        W75776  13.399  21.945  13.573
 9236W        W75777  11.651  35.336  12.336
 9237W        W75778  42.985   4.275  12.481
 9238W        W75779  31.674  26.984   1.368
 9239W        W75780  28.133  33.484   3.850
 9240W        W75781  11.556  33.312   2.853
 9241W        W75782   4.750   8.176   0.180
 9242W        W75783  43.891  10.914   1.034
 9243W        W75784  32.372  37.352   3.575
 9244W        W75785   4.435  13.355  11.190
 9245W        W75786  10.847  13.378   2.269
 9246W        W75787  39.619  29.174  13.916
 9247W        W75788  44.925  32.469  11.566
 9248W        W75789   4.648  27.623   3.211
 9249W        W75790   4.936  30.633   2.444
 9250W        W75791   3.792  14.664   0.519
 9251W        W75792   1.314  39.081  10.846
 9252W        W75793  21.408  41.890   2.342
 9253W        W75794  35.137  27.563   1.018
 9254W        W75795  22.100  29.176  10.559
 9255W        W75796  37.044  29.315   0.996
 9256W        W75797  10.749   7.105  11.137
 9257W        W75798   9.398  20.776   4.842
 9258W        W75799  43.090  44.426  10.559
 9259W        W75800   4.316  16.302   1.350
 9260W        W75801  36.020  31.107  13.330
 9261W        W75802  27.233  30.637   1.863
 9262W        W75803  31.223   1.910  11.599
 9263W        W75804  31.407   2.939  14.515
 9264W        W75805  43.760  26.074  14.840
 9265W        W75806  43.886  42.083  13.523
 9266W        W75807  37.390  10.209   4.424
 9267W        W75808  32.883  42.443   1.282
 9268W        W75809  44.817  24.273  13.153
 9269W        W75810  43.758  22.734  11.574
 9270W        W75811  36.362   8.184   4.060
 9271W        W75812   6.665  36.758  11.203
 9272W        W75813   5.391  33.363   0.178
 9273W        W75814  28.029  40.890   3.602
 9274W        W75815  14.780  24.657  13.122
 9275W        W75816  11.381   3.144  14.793
 9276W        W75817  44.725   2.750  14.302
 9277W        W75818  34.976  17.624  14.897
 9278W        W75819  10.872  19.511   2.293
 9279W        W75820   4.486  31.117  10.966
 9280W        W75821  12.240  18.198   4.258
 9281W        W75822  34.075  15.901   4.229
 9282W        W75823  13.442  32.032   3.244
 9283W        W75824  24.801  11.751   3.676
 9284W        W75825   6.329  29.987  10.952
 9285W        W75826  12.138  44.173  11.145
 9286W        W75827  44.738  17.136   0.838
 9287W        W75828  40.957  12.310  14.491
 9288W        W75829   8.675  39.234  13.513
 9289W        W75830  26.272  41.382   3.715
 9290W        W75831  41.482  13.412  12.490
 9291W        W75832  25.466  40.820   2.320
 9292W        W75833  22.205  30.713   0.508
 9293W        W75834  18.234  20.043   0.250
 9294W        W75835  27.249  17.280  12.987
 9295W        W75836  39.839  39.266  10.904
 9296W        W75837  43.548   7.750  11.308
 9297W        W75838  10.276  37.762   1.409
 9298W        W75839   5.365  26.570  13.138
 9299W        W75840  41.490  27.799   2.826
 9300W        W75841  24.193  44.910  12.487
 9301W        W75842  41.281   3.819  13.324
 9302W        W75843  21.748  39.896  14.283
 9303W        W75844  39.911   8.399  13.858
 9304W        W75845   3.858  23.942   2.932
 9305W        W75846  12.136   4.044  13.514
 9306W        W75847  28.667  39.367  11.530
 9307W        W75848  25.276  30.069  14.722
 9308W        W75849  20.549  18.214  14.254
 9309W        W75850  27.884  36.562   3.069
 9310W        W75851  13.566   9.983  13.090
 9311W        W75852   3.228  40.437   3.645
 9312W        W75853  37.721  23.715  12.436
 9313W        W75854   5.968  14.057  14.251
 9314W        W75855   5.169  10.301  13.541
 9315W        W75856   0.380  10.720   3.665
 9316W        W75857  24.722  29.066   0.531
 9317W        W75858  28.941  13.568  13.483
 9318W        W75859  16.161  17.572   2.385
 9319W        W75860  13.973  22.798   3.697
 9320W        W75861  37.656  27.440  12.094
 9321W        W75862  38.117   8.084   2.298
 9322W        W75863  22.026  42.607  13.834
 9323W        W75864   0.570  14.718  11.255
 9324W        W75865  43.387  19.198   4.382
 9325W        W75866  17.778   6.194   4.597
 9326W        W75867  12.273  32.942   0.041
 9327W        W75868   3.483  34.130   1.951
 9328W        W75869   3.755  35.689   1.358
 9329W        W75870  16.601  30.647  13.489
 9330W        W75871   5.834  13.805  12.905
 9331W        W75872   4.452  37.445  11.285
 9332W        W75873  34.024   3.977  14.486
 9333W        W75874  22.799   5.253  12.864
 9334W        W75875   0.070  43.733   0.928
 9335W        W75876  16.025  32.538   5.444
 9336W        W75877  19.539  23.967  11.581
 9337W        W75878   8.872  37.975   0.350
 9338W        W75879  28.089  38.223   4.486
 9339W        W75880  43.083  36.380  11.547
 9340W        W75881   5.396   0.276   4.557
 9341W        W75882  40.768  22.796   3.208
 9342W        W75883  42.950  21.331  11.341
 9343W        W75884  19.176  26.144   4.829
 9344W        W75885   7.086  15.216  12.944
 9345W        W75886  38.823  19.570  11.832
 9346W        W75887   0.420  42.030  10.614
 9347W        W75888  36.988  30.876  14.242
 9348W        W75889   8.440  43.690   0.299
 9349W        W75890  10.779   6.923  14.006
 9350W        W75891  23.976  29.565  14.987
 9351W        W75892  30.547  26.722  14.932
 9352W        W75893  18.571   3.625  14.770
 9353W        W75894   8.167  43.807   0.797
 9354W        W75895   9.302  20.796   2.454
 9355W        W75896  15.990  41.252  13.966
 9356W        W75897   4.605  28.172   4.848
 9357W        W75898  16.403   5.821   3.351
 9358W        W75899  37.878  15.217  14.066
 9359W        W75900  17.950   4.452   0.935
 9360W        W75901  34.410  37.987  12.818
 9361W        W75902  44.547  24.842   5.272
 9362W        W75903  21.186  13.805  14.464
 9363W        W75904   3.242  32.665   5.575
 9364W        W75905  26.659   0.522   2.738
 9365W        W75906   1.759  31.413  14.963
 9366W        W75907  39.490  29.238  14.407
 9367W        W75908  16.994  39.814  11.558
 9368W        W75909  44.802  22.634   4.608
 9369W        W75910  12.784  18.331   4.138
 9370W        W75911  27.770  25.123   0.409
 9371W        W75912   8.866   0.545  12.532
 9372W        W75913  39.066  29.970  12.558
 9373W        W75914  28.213   9.785  14.308
 9374W        W75915  42.926  35.548   1.848
 9375W        W75916  14.680   0.241  12.884
 9376W        W75917  30.720   3.448  13.510
 9377W        W75918  43.890  29.856  11.982
 9378W        W75919   7.933  19.254  13.370
 9379W        W75920  29.455  38.980   2.686
 9380W        W75921  22.737  17.679   1.522
 9381W        W75922  39.793  29.602  12.855
 9382W        W75923   0.019  16.358  12.943
 9383W        W75924  12.108  27.979  14.944
 9384W        W75925   9.021   4.885  12.821
 9385W        W75926  36.739  28.642   4.229
 9386W        W75927   5.895  21.783   1.395
 9387W        W75928   8.679  20.492   4.303
 9388W        W75929   2.057  35.087  13.376
 9389W        W75930   6.817  32.107  13.341
 9390W        W75931  27.648  19.550  14.526
 9391W        W75932   6.194  25.003  13.545
 9392W        W75933  27.435   9.637  11.992
 9393W        W75934  42.889  44.442   0.731
 9394W        W75935   9.273  10.273   1.306
 9395W        W75936  19.228  43.570  14.287
 9396W        W75937  14.750  19.542   4.429
 9397W        W75938  23.031  13.545   4.756
 9398W        W75939  10.300  36.728  11.081
 9399W        W75940  27.564  34.183   2.441
 9400W        W75941  23.837   3.688  10.566
 9401W        W75942  25.801  43.425   2.472
 9402W        W75943   6.870  29.173   0.848
 9403W        W75944  28.706  35.974   4.634
 9404W        W75945  22.600  19.218  11.107
 9405W        W75946   9.415  40.513  13.499
 9406W        W75947  42.479  32.130   0.953
 9407W        W75948  11.646  29.084  11.027
 9408W        W75949   7.649  37.997   4.928
 9409W        W75950   7.850  29.934  14.746
 9410W        W75951  41.852  39.947  11.827
 9411W        W75952  10.869  29.183  14.741
 9412W        W75953  38.990  31.455  11.725
 9413W        W75954  17.627  33.109  14.022
 9414W        W75955   0.080  38.945  14.915
 9415W        W75956  28.816   0.289  12.340
 9416W        W75957  34.363  14.094  11.041
 9417W        W75958  41.489  42.774   0.480
 9418W        W75959  20.658  30.626   4.711
 9419W        W75960  19.515  12.657   9.911
 9420W        W75961  14.111   7.900  12.028
 9421W        W75962  38.421   1.789   1.891
 9422W        W75963  11.090  39.024   1.663
 9423W        W75964  38.545  26.100  12.594
 9424W        W75965  31.652   7.716   2.257
 9425W        W75966  30.947  33.651   2.266
 9426W        W75967  36.120  23.118   3.995
 9427W        W75968  16.266  18.476   0.688
 9428W        W75969  28.867  16.606  11.042
 9429W        W75970   3.192  41.436   2.271
 9430W        W75971   0.968   8.196   2.358
 9431W        W75972   0.589   2.407  12.926
 9432W        W75973  17.332   2.347   3.179
 9433W        W75974  14.330   8.941  13.910
 9434W        W75975  11.481  27.080   0.941
 9435W        W75976  20.664  26.460   0.307
 9436W        W75977  21.571  42.580  11.171
 9437W        W75978   6.255  14.448  10.230
 9438W        W75979  10.799  32.571  11.198
 9439W        W75980  17.363  28.907   3.717
 9440W        W75981  43.077  41.834   1.160
 9441W        W75982  15.092  10.006  11.936
 9442W        W75983  11.324  12.347  12.636
 9443W        W75984  40.796  16.071  10.748
 9444W        W75985  18.663  30.209   3.401
 9445W        W75986  23.063  21.285  14.354
 9446W        W75987  22.271  24.453  13.018
 9447W        W75988  12.691  23.966  13.327
 9448W        W75989  21.596  41.699   1.156
 9449W        W75990   1.819   5.328  11.157
 9450W        W75991   5.840  38.628  13.964
 9451W        W75992   2.863  35.718   1.160
 9452W        W75993  39.970  36.595   1.296
 9453W        W75994  35.589  31.627   0.030
 9454W        W75995  30.374   8.326   1.859
 9455W        W75996  30.166  10.875  12.061
 9456W        W75997  24.706   2.789  14.134
 9457W        W75998  18.004  26.514  13.374
 9458W        W75999  36.935   6.855  14.049
 9459W        W76000  25.183  44.278   1.692
 9460W        W76001   9.391  17.025   1.144
 9461W        W76002  37.730  13.817  14.870
 9462W        W76003   1.141  26.986  10.523
 9463W        W76004  25.281  12.534   2.440
 9464W        W76005  26.875   6.774   1.435
 9465W        W76006   8.778  34.381  14.672
 9466W        W76007   0.437  11.471   4.093
 9467W        W76008  24.204  41.570  12.129
 9468W        W76009  19.292  21.636   0.240
 9469W        W76010  39.023  13.815   2.831
 9470W        W76011  19.094  12.092  13.511
 9471W        W76012  26.525  32.561  11.904
 9472W        W76013   3.670  11.159   1.122
 9473W        W76014  13.319   2.704   3.284
 9474W        W76015  32.900  29.984   2.290
 9475W        W76016  17.117  24.915   0.496
 9476W        W76017  11.126   3.387  12.236
 9477W        W76018   1.911  13.152  12.528
 9478W        W76019  44.844  32.440   2.334
 9479W        W76020  43.932  31.986   3.621
 9480W        W76021  24.997  15.132   4.973
 9481W        W76022  22.729  22.547  14.130
 9482W        W76023  39.864   1.888   4.059
 9483W        W76024   7.870  35.376   2.173
 9484W        W76025   4.777   4.866   9.792
 9485W        W76026  22.689  40.496   1.040
 9486W        W76027  41.914  23.157  11.880
 9487W        W76028  11.271   1.754   4.603
 9488W        W76029  31.070  44.238  11.575
 9489W        W76030  31.964  34.919  14.329
 9490W        W76031  39.053  23.580  12.028
 9491W        W76032  31.969  19.566  14.943
 9492W        W76033  12.387  38.052   2.249
 9493W        W76034  36.779   9.575   1.495
 9494W        W76035   2.665  22.607  11.119
 9495W        W76036  27.483  37.324  13.314
 9496W        W76037  35.464  38.039   4.538
 9497W        W76038  43.508   4.341  12.407
 9498W        W76039  13.251  44.020   1.208
 9499W        W76040   8.171  33.317   0.962
 9500W        W76041  44.992   4.163  12.535
 9501W        W76042   5.434  12.086  12.375
 9502W        W76043   2.971  30.188  14.898
 9503W        W76044  24.132  23.365  10.371
 9504W        W76045  38.379  30.204  11.541
 9505W        W76046  43.990  38.049   1.685
 9506W        W76047   9.179  41.215   0.762
 9507W        W76048  25.925  12.661   0.784
 9508W        W76049  15.726  43.880  13.469
 9509W        W76050  34.316  23.601  13.923
 9510W        W76051  19.837  29.104   0.866
 9511W        W76052  44.708  43.282  13.919
 9512W        W76053  15.380  43.844  13.873
 9513W        W76054  20.535  38.063   0.093
 9514W        W76055  33.452  26.180   0.193
 9515W        W76056  10.603  14.622  13.302
 9516W        W76057  33.321   7.186  10.198
 9517W        W76058   4.918   3.678  12.576
 9518W        W76059  11.564  32.195   4.236
 9519W        W76060  16.522  24.280  12.534
 9520W        W76061   0.411   0.421   4.088
 9521W        W76062  12.573  20.167  10.697
 9522W        W76063  27.176  44.249  13.385
 9523W        W76064   4.334  26.946   3.726
 9524W        W76065  33.444  11.821  10.433
 9525W        W76066  23.109  33.117   0.041
 9526W        W76067   0.654  15.746  13.471
 9527W        W76068  36.519   9.907  10.641
 9528W        W76069  29.436  33.717  12.849
 9529W        W76070  17.927   9.236  11.052
 9530W        W76071  30.435  22.404  10.179
 9531W        W76072  26.413  32.164   2.677
 9532W        W76073  36.341  19.546   1.355
 9533W        W76074  30.833  10.061   1.353
 9534W        W76075  31.957  18.458   3.635
 9535W        W76076   4.485  28.108  12.367
 9536W        W76077  18.833   8.860  13.573
 9537W        W76078   9.910   8.572  11.176
 9538W        W76079  16.720  10.654   4.838
 9539W        W76080  28.717  38.027  14.458
 9540W        W76081  18.451  30.500   1.877
 9541W        W76082   2.350  43.299  13.591
 9542W        W76083   2.763  11.239   3.807
 9543W        W76084  27.091   0.492  11.698
 9544W        W76085  35.283  28.949  11.194
 9545W        W76086  10.169  39.223   3.607
 9546W        W76087   7.790   3.204  13.401
 9547W        W76088  40.623   1.939  13.893
 9548W        W76089  10.408  40.107  10.131
 9549W        W76090  15.365   6.801  14.936
 9550W        W76091   5.644  44.815   1.335
 9551W        W76092  14.401  18.842   0.268
 9552W        W76093  13.868  36.383   2.861
 9553W        W76094   8.538  22.500  13.465
 9554W        W76095  28.538   1.989  12.435
 9555W        W76096  12.835  30.962  14.474
 9556W        W76097  10.888  16.616   4.003
 9557W        W76098   9.144  17.164  12.632
 9558W        W76099  39.492   3.961   2.369
 9559W        W76100  20.638  39.631  13.914
 9560W        W76101  34.530  41.998   2.907
 9561W        W76102   2.457  39.754   4.684
 9562W        W76103  19.042  14.722  13.983
 9563W        W76104  31.963  22.680   3.768
 9564W        W76105  42.134  22.371  14.274
 9565W        W76106  26.905  32.087   3.608
 9566W        W76107   3.733  29.285   1.838
 9567W        W76108   7.670   5.072  13.201
 9568W        W76109   2.380   7.949   1.246
 9569W        W76110  23.070  34.084   4.148
 9570W        W76111  26.762  11.635  14.336
 9571W        W76112   3.386  43.302  12.667
 9572W        W76113  15.879  27.840   3.988
 9573W        W76114  28.222   4.666   4.387
 9574W        W76115   3.627   4.388   4.674
 9575W        W76116  30.035  26.854  11.456
 9576W        W76117  42.979  20.500  11.512
 9577W        W76118  42.453  19.541   2.363
 9578W        W76119   0.420  26.038   3.697
 9579W        W76120   2.279  10.199   1.621
 9580W        W76121  13.108  15.288  11.658
 9581W        W76122  14.157  25.188  14.726
 9582W        W76123  29.654  23.984  11.654
 9583W        W76124  23.139  24.741   1.871
 9584W        W76125   2.953  22.086   2.322
 9585W        W76126  32.985  43.074  10.122
 9586W        W76127  29.862  33.363  10.991
 9587W        W76128  21.719  35.541  13.572
 9588W        W76129  40.000  22.005  13.766
 9589W        W76130  31.529  26.462  14.634
 9590W        W76131  17.203  34.995  10.796
 9591W        W76132  36.496   3.962  14.814
 9592W        W76133  25.979  21.630   4.459
 9593W        W76134  18.978  32.554   5.040
 9594W        W76135  30.990  11.296   1.719
 9595W        W76136   8.382   2.655  13.951
 9596W        W76137  30.480  27.737  10.684
 9597W        W76138  13.668  24.147  14.130
 9598W        W76139  11.935   2.122   1.809
 9599W        W76140  10.651  35.039   0.031
 9600W        W76141   3.227  35.093  13.556
 9601W        W76142  27.277  14.112   1.381
 9602W        W76143   0.396  20.571  14.606
 9603W        W76144  12.111   2.179  11.118
 9604W        W76145   1.429  42.339  14.399
 9605W        W76146  38.144  40.717   0.044
 9606W        W76147   6.389  36.282   2.939
 9607W        W76148  17.679  11.633  11.322
 9608W        W76149  23.152  41.308  12.316
 9609W        W76150  39.997  22.155  13.261
 9610W        W76151  25.406  36.342  11.447
 9611W        W76152  13.834   6.451  10.677
 9612W        W76153  44.290  13.777  11.763
 9613W        W76154  19.895  18.651  12.604
 9614W        W76155  34.353  40.647  11.148
 9615W        W76156  37.007  16.308  12.665
 9616W        W76157  12.076   0.558   3.717
 9617W        W76158   3.514   5.919   3.232
 9618W        W76159  33.643  33.633  11.392
 9619W        W76160  15.242  29.691  11.503
 9620W        W76161  29.712   0.234   2.483
 9621W        W76162  36.797  14.109  14.972
 9622W        W76163  40.546   0.469  14.887
 9623W        W76164  29.925  34.417  12.087
 9624W        W76165   8.516  23.415  13.561
 9625W        W76166  15.136  30.165  12.395
 9626W        W76167  13.335  40.004  14.370
 9627W        W76168  41.027  27.342   3.682
 9628W        W76169  32.474  10.721  14.396
 9629W        W76170  23.531  33.631  14.443
 9630W        W76171  26.698  39.841   0.815
 9631W        W76172   5.637  43.213   3.452
 9632W        W76173  18.582  34.659   0.951
 9633W        W76174  25.202   3.709  13.451
 9634W        W76175  34.610  31.170  12.555
 9635W        W76176  18.758   9.039  13.107
 9636W        W76177   1.565  24.223  14.402
 9637W        W76178  43.517  18.788  12.098
 9638W        W76179  33.783  42.799   1.417
 9639W        W76180  38.053  11.430   3.710
 9640W        W76181  39.865  36.510   4.084
 9641W        W76182   3.708  38.429  14.083
 9642W        W76183  25.988  37.639   0.365
 9643W        W76184   7.234  24.836   2.411
 9644W        W76185   8.753  18.060   1.804
 9645W        W76186  44.562   6.414   1.406
 9646W        W76187  33.749   1.304  11.505
 9647W        W76188   3.799  11.652  10.570
 9648W        W76189  12.306  31.925   0.824
 9649W        W76190  27.188  37.702  14.482
 9650W        W76191  41.725   3.787   3.142
 9651W        W76192  40.630  40.934  12.522
 9652W        W76193  44.358  34.622  11.088
 9653W        W76194  17.534  17.041   2.728
 9654W        W76195  28.838  42.035  14.541
 9655W        W76196  24.086  44.271  10.800
 9656W        W76197  21.570  13.561  13.763
 9657W        W76198   7.658  41.050  13.021
 9658W        W76199  13.620   2.720  12.759
 9659W        W76200  43.397  40.468   1.335
 9660W        W76201  14.592  25.679  10.659
 9661W        W76202  24.627  18.077   3.847
 9662W        W76203  28.556   1.009  14.969
 9663W        W76204   7.473  24.512   2.735
 9664W        W76205  30.190  33.598   4.201
 9665W        W76206  17.318  35.112   1.263
 9666W        W76207  10.437   6.804  11.413
 9667W        W76208  23.787   9.719  12.557
 9668W        W76209   6.476  27.601   0.087
 9669W        W76210   7.271  38.640  12.054
 9670W        W76211  41.921  18.701  14.954
 9671W        W76212  20.533  36.789  14.362
 9672W        W76213   5.793  39.440  11.030
 9673W        W76214  17.981  38.370  13.112
 9674W        W76215  17.054   3.460  13.677
 9675W        W76216   6.758  35.944   3.269
 9676W        W76217  31.979  38.592   1.829
 9677W        W76218   4.694  27.086  12.507
 9678W        W76219  29.869   5.305  10.706
 9679W        W76220   9.403   5.423   2.657
 9680W        W76221  18.786  20.490  14.469
 9681W        W76222   5.936  30.856   1.384
 9682W        W76223  31.534  18.476  13.071
 9683W        W76224   2.283  38.836   2.826
 9684W        W76225  11.164  38.594  12.344
 9685W        W76226  17.120  39.377  13.382
 9686W        W76227  41.818  29.842  11.463
 9687W        W76228  33.515  26.766   2.323
 9688W        W76229  41.192  38.272  14.775
 9689W        W76230   8.446  31.988  14.281
 9690W        W76231  35.971  11.564   0.498
 9691W        W76232   7.432  25.116   1.457
 9692W        W76233  41.372   8.601   1.344
 9693W        W76234   5.206  43.311   0.211
 9694W        W76235   0.347  40.858  14.858
 9695W        W76236   9.291   2.963  14.809
 9696W        W76237  22.089  35.027   2.620
 9697W        W76238  14.183  18.768  13.330
 9698W        W76239  16.328  30.094  14.644
 9699W        W76240  37.812   2.007  13.602
 9700W        W76241  42.077  38.086  14.907
 9701W        W76242  18.077   6.995   2.423
 9702W        W76243  23.403   4.671   0.150
 9703W        W76244  33.495   3.798  11.582
 9704W        W76245  20.307  42.209  13.432
 9705W        W76246  22.280  27.247   4.891
 9706W        W76247  26.555  43.986  14.495
 9707W        W76248  28.549  24.525  12.737
 9708W        W76249  34.306  19.770   5.084
 9709W        W76250  20.606  35.576  10.937
 9710W        W76251  30.994  18.279  14.914
 9711W        W76252   2.230  24.847  10.665
 9712W        W76253  37.095  12.884   1.335
 9713W        W76254  37.412   7.899  14.303
 9714W        W76255   2.252  11.190   1.893
 9715W        W76256  26.547   8.791  13.957
 9716W        W76257  26.664   4.888   1.164
 9717W        W76258   7.895   1.718   0.432
 9718W        W76259  15.694   3.940   1.226
 9719W        W76260  17.398  12.826  14.514
 9720W        W76261   6.860   2.556   4.988
 9721W        W76262   8.910  11.768   3.742
 9722W        W76263  21.802   1.634   3.172
 9723W        W76264  32.542  44.916   0.863
 9724W        W76265  33.303  39.419  13.294
 9725W        W76266   4.660   6.988   3.290
 9726W        W76267  35.432  30.526   2.482
 9727W        W76268  23.780  39.635   4.643
 9728W        W76269  22.998  17.509  12.149
 9729W        W76270  19.716   7.337  14.350
 9730W        W76271  39.408  44.971  14.225
 9731W        W76272  31.985  36.368  10.749
 9732W        W76273  17.110  19.639   1.632
 9733W        W76274  20.356  34.614   1.805
 9734W        W76275   8.384  44.862   4.662
 9735W        W76276  39.870   1.368  14.978
 9736W        W76277  12.043  27.487  11.424
 9737W        W76278  14.721  32.692   3.523
 9738W        W76279  23.982  38.538  12.858
 9739W        W76280   1.403  38.105  10.446
 9740W        W76281   3.058  24.140  10.328
 9741W        W76282  18.364  40.016   3.319
 9742W        W76283  20.727  21.352   1.761
 9743W        W76284  39.941  39.943  11.584
 9744W        W76285  22.723  18.074   2.355
 9745W        W76286  14.674  15.218  14.347
 9746W        W76287  24.284  31.091   4.224
 9747W        W76288  27.881   8.974  11.033
 9748W        W76289  13.320  11.196   1.501
 9749W        W76290  28.877  36.949   0.836
 9750W        W76291  15.390  22.848  14.362
 9751W        W76292   9.709   7.980   1.237
 9752W        W76293  29.632  30.574   0.729
 9753W        W76294  20.391  26.546  13.915
 9754W        W76295   3.006  43.991  10.121
 9755W        W76296  43.043  21.288   0.902
 9756W        W76297  10.690  40.394   0.860
 9757W        W76298   6.942  24.572   2.772
 9758W        W76299  19.649   1.509   1.276
 9759W        W76300   5.592  42.446   4.142
 9760W        W76301  31.893  15.650   0.833
 9761W        W76302  40.271   5.889  13.839
 9762W        W76303  16.333  31.087  13.586
 9763W        W76304  13.543  11.098  11.689
 9764W        W76305   9.399  40.869   0.300
 9765W        W76306  28.827  26.040  14.442
 9766W        W76307   2.745  12.693   3.817
 9767W        W76308  32.860   1.343  11.422
 9768W        W76309   9.796  42.441   0.905
 9769W        W76310  40.421   9.267   2.431
 9770W        W76311   5.126  30.652   0.382
 9771W        W76312  29.658  19.141   2.385
 9772W        W76313  24.712  24.700   2.230
 9773W        W76314  33.831  10.780   3.281
 9774W        W76315   4.529   6.478   4.570
 9775W        W76316  26.823   9.211   1.411
 9776W        W76317  17.695  27.712   0.367
 9777W        W76318  22.044  21.659  12.373
 9778W        W76319  30.905   3.159   2.842
 9779W        W76320  28.895   3.346  13.765
 9780W        W76321   1.182  21.266   0.440
 9781W        W76322  18.669  33.477   0.697
 9782W        W76323  39.663   8.444   3.231
 9783W        W76324   2.308  34.470   3.334
 9784W        W76325  29.134   8.856  14.836
 9785W        W76326  21.971  11.834   2.304
 9786W        W76327  42.368  29.777   4.138
 9787W        W76328  31.521   9.875  14.988
 9788W        W76329  39.597  19.000  13.283
 9789W        W76330  43.756  34.510  11.130
 9790W        W76331  37.811  10.309  13.799
 9791W        W76332  41.959   4.182  14.436
 9792W        W76333   1.910   6.481   1.356
 9793W        W76334   3.929  17.634   2.305
 9794W        W76335  10.761  30.083   1.679
 9795W        W76336  17.858  43.480  12.056
 9796W        W76337  33.300  43.214  12.886
 9797W        W76338   3.220  17.823  14.940
 9798W        W76339   6.245  25.961  13.480
 9799W        W76340  19.214  10.209  11.202
 9800W        W76341   8.541   8.818   4.151
 9801W        W76342  14.735  14.567  12.866
 9802W        W76343  35.398  34.258  11.574
 9803W        W76344  12.060  12.681   3.591
 9804W        W76345  27.147  30.099   2.713
 9805W        W76346  20.070  36.158   2.190
 9806W        W76347  10.066   0.772   3.615
 9807W        W76348  39.633  39.929   0.318
 9808W        W76349   7.349  29.584   3.151
 9809W        W76350  33.865  34.693   1.953
 9810W        W76351  42.693  34.420   2.595
 9811W        W76352  27.977  27.613  12.466
 9812W        W76353  12.374   7.836   4.581
 9813W        W76354  26.533  27.980   3.598
 9814W        W76355  32.867   7.279  11.430
 9815W        W76356  32.390  30.218  11.102
 9816W        W76357  34.838  23.285  14.360
 9817W        W76358   7.286  15.481  13.370
 9818W        W76359  43.738  34.134  11.485
 9819W        W76360  18.327  22.607   2.041
 9820W        W76361  39.578  15.669   0.308
 9821W        W76362  19.858  10.802   0.455
 9822W        W76363  41.137  21.973  12.236
 9823W        W76364   4.249  20.329   3.789
 9824W        W76365  36.938  11.249  13.873
 9825W        W76366  25.164  14.154  13.816
 9826W        W76367  40.060   7.175   2.321
 9827W        W76368  25.100  34.939  11.416
 9828W        W76369  19.788  26.041  11.591
 9829W        W76370   9.625  40.928   2.256
 9830W        W76371  37.362   8.559  12.372
 9831W        W76372  40.318  16.015  10.607
 9832W        W76373  20.190  11.139  13.487
 9833W        W76374  43.715  28.825   1.144
 9834W        W76375   4.961  34.643   4.205
 9835W        W76376   5.887  42.035   5.001
 9836W        W76377   2.492  22.062  13.512
 9837W        W76378  22.233  12.136   0.977
 9838W        W76379  42.800  10.060   3.598
 9839W        W76380  43.860  17.666  11.895
 9840W        W76381   8.743  28.572  12.892
 9841W        W76382  37.120  35.359   2.972
 9842W        W76383  40.415  26.806  13.971
 9843W        W76384  22.282  40.818   4.237
 9844W        W76385  25.231  13.075   0.013
 9845W        W76386  15.146  29.729  12.940
 9846W        W76387  35.671  28.411   0.401
 9847W        W76388  30.984  41.918  13.622
 9848W        W76389  18.772   6.149  11.105
 9849W        W76390  42.204   6.171   4.822
 9850W        W76391  22.746  42.662  11.647
 9851W        W76392  19.586  16.256  11.197
 9852W        W76393  13.831   5.429   0.447
 9853W        W76394  30.863  13.955  14.436
 9854W        W76395  37.596  16.766   1.368
 9855W        W76396  41.965  12.858  14.458
 9856W        W76397   9.594   3.722  13.447
 9857W        W76398  30.578  20.966  13.460
 9858W        W76399  20.491  28.179  14.294
 9859W        W76400  13.394  12.561   2.892
 9860W        W76401  22.759   4.741  10.667
 9861W        W76402  33.513   8.618  11.438
 9862W        W76403  41.427  30.877   1.025
 9863W        W76404   5.484  14.055  11.636
 9864W        W76405  22.081  19.631  14.852
 9865W        W76406  28.901   3.771  11.625
 9866W        W76407  36.085  40.791   0.469
 9867W        W76408   4.958  20.560   4.137
 9868W        W76409  30.415  44.269  14.629
 9869W        W76410   7.353  34.835  12.161
 9870W        W76411  27.888  11.076  10.291
 9871W        W76412   4.777   4.458   1.205
 9872W        W76413  26.629  33.637   1.391
 9873W        W76414  38.224  16.081   1.808
 9874W        W76415  16.633  42.207  13.561
 9875W        W76416  24.760  41.456   0.384
 9876W        W76417  26.010  27.133  13.526
 9877W        W76418  31.420  16.284   5.488
 9878W        W76419  15.202  41.303  14.446
 9879W        W76420  29.679  18.028   1.874
 9880W        W76421  13.807   5.014   1.766
 9881W        W76422  42.479  39.697  11.233
 9882W        W76423  43.795   5.001  13.457
 9883W        W76424  34.866   2.768  12.542
 9884W        W76425  44.095  32.438   1.326
 9885W        W76426  15.233  39.175   0.263
 9886W        W76427  29.398  41.460   2.654
 9887W        W76428  21.702   0.293   0.667
 9888W        W76429  19.017   8.192  14.546
 9889W        W76430  13.243  31.313   0.566
 9890W        W76431   3.241  36.948   4.152
 9891W        W76432  40.942  38.969   3.656
 9892W        W76433  38.984  27.006  10.216
 9893W        W76434  20.440  27.719   2.334
 9894W        W76435  21.588  41.003   4.846
 9895W        W76436  16.786  43.852  11.640
 9896W        W76437   8.276   8.364   1.759
 9897W        W76438  11.277  38.332   0.431
 9898W        W76439  34.709  40.560   4.061
 9899W        W76440  22.349  34.514   0.368
 9900W        W76441  20.997  10.975   0.359
 9901W        W76442  12.506  44.754  12.440
 9902W        W76443  22.164   4.250  10.167
 9903W        W76444  10.444  36.542   0.084
 9904W        W76445  38.001  31.598   3.320
 9905W        W76446  36.137   4.005  13.782
 9906W        W76447  23.500  23.293   2.815
 9907W        W76448  30.363   1.413  10.486
 9908W        W76449  14.862  39.877   4.590
 9909W        W76450  42.365   0.053   3.837
 9910W        W76451  41.427  21.855  11.384
 9911W        W76452  12.198  36.307   4.597
 9912W        W76453  14.134  17.129  10.967
 9913W        W76454  19.510  20.763  10.596
 9914W        W76455  33.373  43.740  11.124
 9915W        W76456  18.113   4.841  13.288
 9916W        W76457  13.247   1.697  13.588
 9917W        W76458  23.034  39.059  10.074
 9918W        W76459  43.885  17.882   3.837
 9919W        W76460  15.844  23.354   1.216
 9920W        W76461   4.996  16.590   4.873
 9921W        W76462  14.110  38.998   0.147
 9922W        W76463  12.254  43.453   3.769
 9923W        W76464  23.809  41.043  11.543
 9924W        W76465  35.030  39.354   4.070
 9925W        W76466  44.024  42.334  13.099
 9926W        W76467   0.442  20.247   4.618
 9927W        W76468  40.411   1.432   2.365
 9928W        W76469  38.589  38.477   3.780
 9929W        W76470   6.730  41.541  11.155
 9930W        W76471  25.690  23.179   2.598
 9931W        W76472  16.500  40.361   3.404
 9932W        W76473  34.474  11.376   4.317
 9933W        W76474  37.105  28.157  11.568
 9934W        W76475  38.745  15.648  14.810
 9935W        W76476  42.380  44.987   0.146
 9936W        W76477   9.308   3.222   0.293
 9937W        W76478  23.424  36.089   0.690
 9938W        W76479   2.274  23.900   4.254
 9939W        W76480  16.352  21.362   2.341
 9940W        W76481  31.460  21.565   3.416
 9941W        W76482   3.770  38.531   4.611
 9942W        W76483  14.782  19.191   0.443
 9943W        W76484  28.712  42.574   4.648
 9944W        W76485  33.040  13.402   3.557
 9945W        W76486   7.724  35.251  11.326
 9946W        W76487  38.912  21.453  10.737
 9947W        W76488  44.275   3.251  12.398
 9948W        W76489   8.434  43.304   1.866
 9949W        W76490  36.908  13.420  11.121
 9950W        W76491  37.253  17.165   2.779
 9951W        W76492  18.872  13.164   3.567
 9952W        W76493  10.250  21.865   1.867
 9953W        W76494  19.201   9.600  13.776
 9954W        W76495  39.803   1.730  12.565
 9955W        W76496  41.228  32.654  14.467
 9956W        W76497   7.970  31.639   1.773
 9957W        W76498  37.344  15.093   1.637
 9958W        W76499   3.993  44.765   2.203
 9959W        W76500  32.188  26.678  11.139
 9960W        W76501  30.897  29.858  12.618
 9961W        W76502  16.740  18.352  11.174
 9962W        W76503  28.020  14.090  10.697
 9963W        W76504   6.210  20.209   0.469
 9964W        W76505  29.045  40.632   3.249
 9965W        W76506  25.701  35.394   0.790
 9966W        W76507   2.019  14.063  13.851
 9967W        W76508  33.098   5.053  12.359
 9968W        W76509  23.498   9.327   1.396
 9969W        W76510  34.126   5.276  14.034
 9970W        W76511  27.993  13.186   0.368
 9971W        W76512  22.237  20.244  13.973
 9972W        W76513  12.178  27.469   4.150
 9973W        W76514  26.421  27.957   2.328
 9974W        W76515   9.401   1.450  12.357
 9975W        W76516  25.014   9.437   1.656
 9976W        W76517  44.730   2.200   4.623
 9977W        W76518  27.988  25.010   4.024
 9978W        W76519  12.807  20.634   0.104
 9979W        W76520  22.538  27.893  10.698
 9980W        W76521  15.731  22.140   3.759
 9981W        W76522  41.900   1.516  13.531
 9982W        W76523  41.457   6.470  13.026
 9983W        W76524  34.904  30.075  14.168
 9984W        W76525  37.453  26.945  11.989
 9985W        W76526  26.964   4.257   0.983
 9986W        W76527  22.758  35.784   4.201
 9987W        W76528  11.740  40.555   4.511
 9988W        W76529  14.594  10.099  12.986
 9989W        W76530  15.142  20.908  10.818
 9990W        W76531  24.945  39.032   0.343
 9991W        W76532  37.800  42.482  14.379
 9992W        W76533  34.544   2.342  12.514
 9993W        W76534   4.740  27.545   0.192
 9994W        W76535  43.876   5.775   0.926
 9995W        W76536  40.049   8.732   0.471
 9996W        W76537  25.603  43.388   3.594
 9997W        W76538   8.144  28.670   4.170
 9998W        W76539  15.813  25.649  11.168
 9999W        W76540  30.930  35.882  13.905
10000W        W76541  42.559   3.882   2.768
10001W        W76542  24.961  30.443  10.567
10002W        W76543  39.224   8.215  12.032
10003W        W76544  33.831   8.459  13.165
10004W        W76545  17.685   0.247  14.863
10005W        W76546  17.322  30.182  11.946
10006W        W76547  23.549  19.063   3.356
10007W        W76548  16.324  43.042  13.464
10008W        W76549  30.636  41.716   0.852
10009W        W76550   6.290  35.792   3.122
10010W        W76551  44.461   1.365   4.357
10011W        W76552  18.159   6.897  11.145
10012W        W76553  17.143  20.906   0.220
10013W        W76554   1.025  27.565   0.022
10014W        W76555   2.924  14.725  13.048
10015W        W76556   1.316   6.088  11.531
10016W        W76557  17.078  12.143   2.767
10017W        W76558   4.784  23.717   5.309
10018W        W76559   7.787   2.450   2.182
10019W        W76560   3.631   5.007   4.202
10020W        W76561  18.023  10.705   0.754
10021W        W76562  29.098  20.028  13.975
10022W        W76563  32.563   0.890   0.936
10023W        W76564  23.161   7.858  14.772
10024W        W76565  20.478  29.389   4.184
10025W        W76566  24.590   6.738   3.119
10026W        W76567  21.699  16.714  12.375
10027W        W76568   8.788  38.459   0.946
10028W        W76569  35.241   4.446  14.242
10029W        W76570  32.155  41.545   3.304
10030W        W76571  39.414  10.660  12.296
10031W        W76572   4.011  26.554  12.250
10032W        W76573  32.948  44.981   2.355
10033W        W76574  44.672  20.086   3.165
10034W        W76575  37.942  38.051  11.146
10035W        W76576  38.451  19.594  13.518
10036W        W76577  12.199  16.288   4.903
10037W        W76578  37.473  28.392   1.177
10038W        W76579  37.079   1.966  10.561
10039W        W76580   2.192   0.390  13.894
10040W        W76581  21.993  12.101  11.096
10041W        W76582  11.334  33.704   0.260
10042W        W76583  33.472   9.439   3.932
10043W        W76584  43.894  41.385  14.158
10044W        W76585   1.209   1.165  13.090
10045W        W76586   5.723  13.728   1.440
10046W        W76587  12.912  38.726   3.266
10047W        W76588  36.112   0.772  14.146
10048W        W76589  22.762   4.834  11.608
10049W        W76590  20.400   5.263  11.209
10050W        W76591  42.838   9.623   3.327
10051W        W76592  14.754  17.895   0.267
10052W        W76593  27.684  26.913   0.761
10053W        W76594  23.302  10.131   0.040
10054W        W76595  25.173  31.811  12.412
10055W        W76596   1.295  40.066  13.409
10056W        W76597  27.039  32.861  12.569
10057W        W76598  44.042  40.050  13.400
10058W        W76599  29.115  23.727   0.773
10059W        W76600  39.386  18.712  14.560
10060W        W76601  21.498  41.022  13.547
10061W        W76602  19.025  13.909  13.968
10062W        W76603  38.442  36.929  13.863
10063W        W76604  20.906  41.843   2.278
10064W        W76605  29.233  17.699  10.713
10065W        W76606  11.349  19.170   3.690
10066W        W76607  25.224   9.655   3.610
10067W        W76608   7.420  27.660  14.056
10068W        W76609   8.470  11.613   2.815
10069W        W76610  33.213  32.391  12.742
10070W        W76611  18.585  16.195  12.810
10071W        W76612  41.313  35.331  12.436
10072W        W76613  34.480   7.202   2.190
10073W        W76614  40.712   0.830   4.019
10074W        W76615  33.523   9.249   4.423
10075W        W76616  23.180   0.750   0.279
10076W        W76617  25.031  28.475  13.362
10077W        W76618   1.877  14.224   2.109
10078W        W76619  32.375  21.662  10.692
10079W        W76620  11.780  17.043   3.287
10080W        W76621  39.617  30.523  13.739
10081W        W76622   8.761  26.189   1.399
10082W        W76623  11.833  23.173   1.239
10083W        W76624   9.176  35.868  12.162
10084W        W76625   9.390  21.519   3.888
10085W        W76626   8.772  32.810  11.468
10086W        W76627   9.156  19.505  10.451
10087W        W76628  15.339   9.660   4.303
10088W        W76629  30.982   1.548   0.832
10089W        W76630  18.583  11.208   3.810
10090W        W76631  12.661  22.422   4.070
10091W        W76632  22.041  37.808  11.038
10092W        W76633  41.820  22.121   2.684
10093W        W76634   5.942   9.513  12.739
10094W        W76635  18.543  33.446  13.002
10095W        W76636  13.680  38.952   4.606
10096W        W76637  22.762   3.481   0.861
10097W        W76638  35.973  12.406  12.351
10098W        W76639  33.851  29.369   3.807
10099W        W76640  10.251  21.645   4.115
10100W        W76641  27.444  29.129  11.157
10101W        W76642  18.384  12.738   5.044
10102W        W76643  23.965  17.470  13.010
10103W        W76644  40.069  40.247   2.782
10104W        W76645   8.706  41.010   0.843
10105W        W76646  44.277   3.005   3.449
10106W        W76647  40.553  16.638  13.367
10107W        W76648  13.833  44.482  10.420
10108W        W76649  29.379   6.978   1.322
10109W        W76650  36.232  15.725   1.456
10110W        W76651   7.264  31.340  13.057
10111W        W76652   1.383  42.959  12.353
10112W        W76653  17.760  27.520   2.986
10113W        W76654  15.604  27.525   4.310
10114W        W76655  19.180  14.836   4.997
10115W        W76656   6.641  37.026  11.622
10116W        W76657  29.191  35.265   4.389
10117W        W76658  23.982  10.273  12.943
10118W        W76659  28.717   1.776  13.422
10119W        W76660  38.187  42.653  13.620
10120W        W76661  39.730   4.893   1.026
10121W        W76662  32.460  33.956   3.743
10122W        W76663   8.464  15.375   4.552
10123W        W76664  25.049  42.800  10.622
10124W        W76665   4.405  26.620  11.921
10125W        W76666  33.226  12.034   4.580
10126W        W76667  32.431   4.324   1.126
10127W        W76668  29.156  10.769   0.163
10128W        W76669   7.233  16.287  11.491
10129W        W76670  38.849  32.314  14.887
10130W        W76671  19.703  15.511   1.232
10131W        W76672  17.860   1.263  11.571
10132W        W76673  21.258  42.999   3.204
10133W        W76674  20.518  43.867   1.374
10134W        W76675   8.497  13.016   3.366
10135W        W76676  30.910  29.199   0.309
10136W        W76677   4.831   8.846  12.151
10137W        W76678  30.584  13.306  13.120
10138W        W76679   1.993   8.632   0.581
10139W        W76680  38.588  24.091  11.513
10140W        W76681  18.992  30.307   2.241
10141W        W76682   1.894  42.090   1.956
10142W        W76683   2.997  24.323  14.224
10143W        W76684  33.695  44.376  12.361
10144W        W76685  20.537  44.446   3.625
10145W        W76686  22.973  37.788   3.874
10146W        W76687  36.322  36.604  13.983
10147W        W76688  41.278  41.142  14.396
10148W        W76689   9.551  11.322  14.838
10149W        W76690  12.115  23.205  13.561
10150W        W76691   3.196  42.072   4.259
10151W        W76692  36.782  37.409   0.371
10152W        W76693  44.570  18.845  14.736
10153W        W76694  12.788  33.604  12.982
10154W        W76695  20.641   5.666  13.804
10155W        W76696  22.463   3.228   3.761
10156W        W76697  34.946  19.073   3.561
10157W        W76698  41.708  32.588  12.940
10158W        W76699   8.627   5.318   0.364
10159W        W76700  19.513  12.378  13.446
10160W        W76701  13.694  33.997   4.545
10161W        W76702  13.332   8.150   4.245
10162W        W76703   1.180   1.794  11.069
10163W        W76704  37.359  14.615   3.447
10164W        W76705  36.123  18.458   4.155
10165W        W76706  12.040  39.084  12.571
10166W        W76707  39.412  32.754   1.251
10167W        W76708  16.999  35.980  12.426
10168W        W76709  28.184  39.487   1.796
10169W        W76710  29.009  42.104  12.843
10170W        W76711  27.658  21.567  14.250
10171W        W76712  41.111  10.879   0.844
10172W        W76713  37.490  16.714   2.137
10173W        W76714   7.664  35.771  14.688
10174W        W76715   9.791  37.957  12.550
10175W        W76716  43.226  25.514  11.059
10176W        W76717  18.338  43.333  12.053
10177W        W76718  10.687  18.513  10.481
10178W        W76719  41.389  41.963  13.135
10179W        W76720  39.059   5.708  12.970
10180W        W76721  35.022  24.805  11.979
10181W        W76722  12.752  31.805  13.014
10182W        W76723  31.954  18.473   1.707
10183W        W76724  22.950   6.855  13.303
10184W        W76725  33.939   9.781   3.128
10185W        W76726  35.906  17.075   0.404
10186W        W76727  25.452  28.018  12.034
10187W        W76728  30.868  34.490  13.825
10188W        W76729  22.348  42.948  11.268
10189W        W76730  32.906  38.140  13.969
10190W        W76731  27.434  31.647  11.177
10191W        W76732  20.052  24.548  12.571
10192W        W76733  26.530  43.253   3.201
10193W        W76734  11.789  11.310   1.799
10194W        W76735  31.085  16.808   2.670
10195W        W76736  27.688  25.773  12.537
10196W        W76737  43.644  24.497   4.587
10197W        W76738  33.474  32.471   1.435
10198W        W76739  20.737  23.785  14.314
10199W        W76740  21.547  33.067   1.289
10200W        W76741  21.215  18.151   2.677
10201W        W76742  38.509  30.860  14.754
10202W        W76743   9.114  30.665   0.309
10203W        W76744  28.221   9.031   0.832
10204W        W76745  21.118  18.529   4.604
10205W        W76746  31.003  38.742  10.780
10206W        W76747  40.075  28.928  13.938
10207W        W76748   6.487  22.954   4.949
10208W        W76749  25.412  23.624  12.427
10209W        W76750  20.704  36.218  12.508
10210W        W76751  24.133  19.193   4.189
10211W        W76752   1.895  40.376  10.681
10212W        W76753  38.545  40.938   3.249
10213W        W76754  37.010  35.063  12.544
10214W        W76755  16.700  32.873  13.427
10215W        W76756   5.820  29.629  11.186
10216W        W76757  20.005  38.862  10.940
10217W        W76758  19.617   2.567   1.174
10218W        W76759  38.017  14.128   0.783
10219W        W76760  32.283  43.499  13.084
10220W        W76761  38.607   0.308  14.596
10221W        W76762   1.982  20.514  13.109
10222W        W76763  10.735  18.703  13.902
10223W        W76764  28.047   5.204   1.294
10224W        W76765  43.561  44.463  14.318
10225W        W76766   6.311  41.407   3.706
10226W        W76767  41.539  40.983  10.599
10227W        W76768  22.461  16.951  10.277
10228W        W76769  25.605  29.645  14.497
10229W        W76770   6.688  39.348  11.703
10230W        W76771  11.127  44.855  13.871
10231W        W76772  26.590  22.042   1.006
10232W        W76773  28.423  20.050  14.354
10233W        W76774  23.646  30.460   4.066
10234W        W76775  21.620  27.961  11.571
10235W        W76776   7.297  19.371   4.157
10236W        W76777   9.297  28.053   4.451
10237W        W76778  43.725  20.801   4.246
10238W        W76779  17.350  37.166   0.156
10239W        W76780  16.284  28.547  12.633
10240W        W76781  36.241  21.682  12.856
10241W        W76782   4.410  11.297  13.972
10242W        W76783  11.856  12.164  10.172
10243W        W76784  41.421   0.943   1.516
10244W        W76785  15.767  32.085   5.330
10245W        W76786   2.284   7.712   2.257
10246W        W76787   3.401   2.261  14.670
10247W        W76788  27.947   6.379   0.470
10248W        W76789  28.518  10.640  14.881
10249W        W76790  30.229  13.294  12.369
10250W        W76791  23.769  35.328  11.177
10251W        W76792  32.521  39.114   0.477
10252W        W76793  35.972   9.133   0.283
10253W        W76794  24.729   5.740  11.871
10254W        W76795  17.334  42.370  14.842
10255W        W76796  44.158   6.094   2.294
10256W        W76797  34.332  14.682  10.746
10257W        W76798  30.469  17.551   0.446
10258W        W76799  26.055  20.858  12.926
10259W        W76800  17.535  13.058   2.428
10260W        W76801  31.077  41.208   0.200
10261W        W76802   6.678  44.722  12.147
10262W        W76803  28.678   3.931   3.275
10263W        W76804  19.589   3.981   3.604
10264W        W76805  43.253  30.508   0.597
10265W        W76806  26.027  17.167   2.635
10266W        W76807  35.405   9.773   1.853
10267W        W76808  39.310  32.028  10.157
10268W        W76809  44.541  22.389  13.363
10269W        W76810   9.798  43.799   0.457
10270W        W76811  28.107  12.839  14.841
10271W        W76812  21.997  27.697   3.197
10272W        W76813   6.339  11.587   1.189
10273W        W76814   2.833   0.591  11.091
10274W        W76815   9.191  24.128   2.776
10275W        W76816  44.343  33.495   0.383
10276W        W76817   0.506  16.598   0.784
10277W        W76818  37.557  18.532  14.180
10278W        W76819  42.377  26.792  12.440
10279W        W76820   3.390  18.466   1.173
10280W        W76821  25.501  42.820   0.513
10281W        W76822  23.230  37.052  11.163
10282W        W76823  24.496  18.259   0.376
10283W        W76824  15.169  33.242   2.329
10284W        W76825  35.170   7.479   0.974
10285W        W76826  19.553  29.675  13.509
10286W        W76827  12.877  26.134   3.415
10287W        W76828  29.200  41.993  13.805
10288W        W76829  14.791  11.942  13.964
10289W        W76830  40.314   0.428  13.281
10290W        W76831  29.989  31.381   1.083
10291W        W76832   4.226  16.116  12.542
10292W        W76833  26.579  16.341   4.097
10293W        W76834  30.351  41.359  11.449
10294W        W76835  26.755  25.788   2.758
10295W        W76836  23.262   1.161  13.496
10296W        W76837  24.209  29.559  10.925
10297W        W76838  42.951   0.036  13.816
10298W        W76839  14.169  41.030  12.373
10299W        W76840  41.306  10.624   3.700
10300W        W76841  31.427  24.275  14.062
10301W        W76842  17.639  29.697   2.258
10302W        W76843  35.475  18.541   1.440
10303W        W76844  25.166  42.490   2.780
10304W        W76845   3.248  25.260  13.394
10305W        W76846  20.234   5.927  12.524
10306W        W76847  24.648  42.955   4.928
10307W        W76848  20.705  13.567  10.746
10308W        W76849  43.882  30.451  12.782
10309W        W76850  43.208  37.173   3.379
10310W        W76851  41.974  16.425   4.293
10311W        W76852  28.494  20.105   0.316
10312W        W76853  36.994   5.309  12.192
10313W        W76854  10.764   3.931   0.773
10314W        W76855  10.824   8.240   2.268
10315W        W76856  11.601  38.482   2.325
10316W        W76857   3.512  15.707   4.147
10317W        W76858  23.084  25.200   2.132
10318W        W76859  17.031  30.724   4.182
10319W        W76860   8.496  16.549   2.936
10320W        W76861  13.309  17.020   2.490
10321W        W76862  23.055  16.261  13.755
10322W        W76863  14.723  39.731   0.019
10323W        W76864   8.423  39.919   5.537
10324W        W76865  23.561  40.859   2.137
10325W        W76866  33.839  21.748  14.831
10326W        W76867   7.411   4.062   4.203
10327W        W76868  42.370  34.312  14.784
10328W        W76869  31.938  12.167  12.459
10329W        W76870  28.451  44.281  11.044
10330W        W76871  18.543  35.371   4.627
10331W        W76872  14.661  22.150  14.395
10332W        W76873  26.666  29.584  10.867
10333W        W76874  22.287   0.112   4.257
10334W        W76875  40.282  41.033   4.520
10335W        W76876  20.122  29.457  10.660
10336W        W76877  39.841  42.432  12.047
10337W        W76878  25.055  15.795  14.831
10338W        W76879   0.952   2.955  13.761
10339W        W76880   6.379  22.553   3.310
10340W        W76881   7.296  12.557   2.586
10341W        W76882  42.873  29.622  12.453
10342W        W76883  20.161  32.808  12.084
10343W        W76884   7.878   6.678   2.694
10344W        W76885  22.811   9.885  14.278
10345W        W76886  16.599   9.269   1.899
10346W        W76887  33.026  38.082  14.831
10347W        W76888   3.015  21.014  11.544
10348W        W76889  20.172  32.370  14.255
10349W        W76890  27.573  23.313   5.010
10350W        W76891  32.921  18.632   4.569
10351W        W76892  43.414  15.581  12.647
10352W        W76893  17.595   2.425  12.717
10353W        W76894  13.751  27.874  11.491
10354W        W76895  15.159  35.365  13.314
10355W        W76896  10.837  34.913  13.496
10356W        W76897   8.603  28.448   0.813
10357W        W76898  33.878  18.246  12.497
10358W        W76899  31.675  21.284   0.886
10359W        W76900   6.322  12.860   1.362
10360W        W76901   1.330  25.215  11.633
10361W        W76902  14.176  30.608   0.020
10362W        W76903  26.252   4.651  11.167
10363W        W76904   4.428  24.221  11.149
10364W        W76905   4.779  17.257   4.278
10365W        W76906   3.710  39.530  12.351
10366W        W76907  19.643  17.109  14.514
10367W        W76908  10.355  17.531  14.887
10368W        W76909   8.424  31.095   4.061
10369W        W76910  14.658  20.339  13.370
10370W        W76911  36.969   6.689   3.070
10371W        W76912  35.583  28.431   2.363
10372W        W76913  14.766  42.919   0.081
10373W        W76914  23.101  24.254   2.838
10374W        W76915   2.888  39.984  11.578
10375W        W76916  18.344  22.758   0.529
10376W        W76917  26.414  18.341   2.118
10377W        W76918   5.708  12.360  14.339
10378W        W76919   5.316  16.870  13.796
10379W        W76920  35.496  32.469  10.722
10380W        W76921  23.715  30.099   1.337
10381W        W76922  25.978   7.619   4.146
10382W        W76923  15.346  31.569  12.090
10383W        W76924  32.198  16.648  14.914
10384W        W76925  10.830   6.173  14.448
10385W        W76926  38.481  12.301   0.666
10386W        W76927  40.494  20.098  14.745
10387W        W76928  13.179   6.199  11.678
10388W        W76929  37.172  43.353   0.867
10389W        W76930  12.630  19.954  12.842
10390W        W76931  30.553  11.824  11.189
10391W        W76932  10.321  10.900   1.729
10392W        W76933  25.532  13.687  11.840
10393W        W76934  31.647  22.489  13.817
10394W        W76935  36.682  39.331  12.047
10395W        W76936  30.217  29.091   3.130
10396W        W76937   8.730  24.694   0.381
10397W        W76938  39.500  27.515  11.123
10398W        W76939  28.500  38.073   2.257
10399W        W76940  33.390  11.165   4.506
10400W        W76941  11.972   3.377   5.027
10401W        W76942  39.872  14.408   2.729
10402W        W76943  44.859  30.325  13.895
10403W        W76944  35.294  42.831   0.939
10404W        W76945  16.632   5.177   4.615
10405W        W76946  14.736  29.548  13.192
10406W        W76947  39.523  39.010  11.249
10407W        W76948  27.570  43.536   3.247
10408W        W76949  13.722  44.932   4.190
10409W        W76950  32.955   1.493   4.679
10410W        W76951  11.915  14.609  11.476
10411W        W76952  19.590  20.569   1.485
10412W        W76953  11.636  28.080  10.731
10413W        W76954  32.328  23.612   3.775
10414W        W76955  33.546  42.049  12.446
10415W        W76956  39.118  40.052  13.456
10416W        W76957  37.147   0.865   0.239
10417W        W76958  43.815  12.519   3.890
10418W        W76959  44.184   8.724  12.045
10419W        W76960   4.139  33.836  12.872
10420W        W76961   7.232  15.996  14.954
10421W        W76962  24.405  12.609  10.517
10422W        W76963  34.992  42.996  14.446
10423W        W76964   5.274   0.520  13.392
10424W        W76965  20.756  34.915   4.747
10425W        W76966  11.835  30.669   4.286
10426W        W76967  43.232  29.156  12.058
10427W        W76968  10.611   1.287   4.219
10428W        W76969  36.013  14.547   2.235
10429W        W76970  42.254  24.454  14.698
10430W        W76971  41.787  30.413   1.396
10431W        W76972  40.534  34.581  12.125
10432W        W76973  21.559  39.860  13.813
10433W        W76974  29.042  21.183  12.055
10434W        W76975   1.256  27.699  13.266
10435W        W76976  36.380  15.249  11.537
10436W        W76977  10.704  36.434   0.513
10437W        W76978   2.912  22.897   3.704
10438W        W76979   6.197   0.820   1.357
10439W        W76980  10.647   3.795  11.592
10440W        W76981  23.175  13.397   2.939
10441W        W76982  36.075  31.542   2.477
10442W        W76983  13.041  11.038   3.596
10443W        W76984  39.936  22.993   2.171
10444W        W76985  36.855  11.477   4.093
10445W        W76986  32.169   1.324   2.182
10446W        W76987   3.680  35.892   2.926
10447W        W76988  33.418   0.746   9.658
10448W        W76989  29.576  16.296  10.619
10449W        W76990  38.986  13.618   0.298
10450W        W76991   4.363  14.030  12.448
10451W        W76992  25.744  10.431   1.364
10452W        W76993  39.843  11.258   3.279
10453W        W76994  38.135  42.851  11.523
10454W        W76995  37.858   9.485  14.885
10455W        W76996  22.524  10.558   0.790
10456W        W76997  28.245  23.040   1.964
10457W        W76998  33.157  12.534   4.287
10458W        W76999  13.034  24.642   4.502
10459W        W77000  38.325  20.346   2.890
10460W        W77001  41.746  10.966  13.364
10461W        W77002  44.986   3.256   1.185
10462W        W77003  10.484  39.005  11.076
10463W        W77004  32.199  25.230  13.919
10464W        W77005  25.402  41.922   4.038
10465W        W77006  42.421  11.902   2.910
10466W        W77007  14.659   8.967  11.309
10467W        W77008  35.247  19.185   4.843
10468W        W77009   5.459  18.203  12.386
10469W        W77010  10.641   2.524   4.301
10470W        W77011   1.296  42.925   2.161
10471W        W77012  10.231  42.778   0.951
10472W        W77013  13.310  24.683   4.050
10473W        W77014  38.880  43.439  13.528
10474W        W77015  40.750  27.715   4.682
10475W        W77016  11.834  21.350  11.605
10476W        W77017  14.242  14.288   3.149
10477W        W77018  42.791  31.136  13.100
10478W        W77019  13.402  44.932   2.179
10479W        W77020  16.200   4.620   0.577
10480W        W77021  17.539  16.594  14.755
10481W        W77022  14.824  37.603  12.564
10482W        W77023   3.188   8.330  14.827
10483W        W77024  16.856  41.214  13.823
10484W        W77025  22.405   1.232  13.806
10485W        W77026  35.757  28.799  11.288
10486W        W77027  35.087  38.445  10.681
10487W        W77028   8.211   4.363   1.530
10488W        W77029  22.619  25.176  14.469
10489W        W77030  35.451  10.279   4.669
10490W        W77031  16.043   1.032  11.396
10491W        W77032  21.152  41.872   2.803
10492W        W77033  30.019   7.497  12.365
10493W        W77034  37.604  15.083   3.313
10494W        W77035  26.837  39.359   0.992
10495W        W77036  17.166   1.723  12.497
10496W        W77037  17.255  13.857   1.451
10497W        W77038   5.593  38.798   5.031
10498W        W77039   1.179  44.747  11.992
10499W        W77040  19.026  20.804  12.786
10500W        W77041   7.667   2.166   3.043
10501W        W77042  12.132  27.161  14.509
10502W        W77043  22.706  40.438  13.375
10503W        W77044  21.529  33.022   3.744
10504W        W77045  36.118  27.834   3.949
10505W        W77046  31.650   6.789  14.433
10506W        W77047  31.893   7.286   0.670
10507W        W77048  30.925  43.915  13.959
10508W        W77049  40.372  21.243  12.970
10509W        W77050  43.276  21.281   0.252
10510W        W77051  16.787  14.372   0.305
10511W        W77052   1.431  21.049  12.505
10512W        W77053  27.610  44.501  13.575
10513W        W77054  30.870  32.997  12.027
10514W        W77055   6.908  17.653   0.030
10515W        W77056   3.306  12.399   4.806
10516W        W77057  39.076  28.107   2.690
10517W        W77058  31.210  31.930  14.322
10518W        W77059  25.861  30.343   4.866
10519W        W77060  16.776  16.629  14.470
10520W        W77061   6.757  17.113  13.950
10521W        W77062  10.738  16.127  11.464
10522W        W77063   3.436  10.688   1.319
10523W        W77064   3.699  43.029  13.015
10524W        W77065  33.866  30.119   3.275
10525W        W77066  14.456  35.822  13.362
10526W        W77067  28.175   8.835  13.375
10527W        W77068  42.972  11.724   4.536
10528W        W77069  25.066  18.487   1.298
10529W        W77070  33.038   5.745   5.548
10530W        W77071  29.408  34.826   1.380
10531W        W77072  20.410  35.499   1.884
10532W        W77073   6.912  39.771   0.869
10533W        W77074   1.661   7.807   4.433
10534W        W77075  40.727  41.935  13.930
10535W        W77076   4.449  35.873  12.090
10536W        W77077   4.823   6.008  10.740
10537W        W77078  40.546  40.360  14.461
10538W        W77079  15.274  37.522   1.768
10539W        W77080   3.207  43.998   1.698
10540W        W77081  29.105  19.020   4.192
10541W        W77082  41.779  26.129   3.406
10542W        W77083  11.269  26.069   4.062
10543W        W77084   3.721  21.740   0.395
10544W        W77085  25.416  23.113  11.898
10545W        W77086  16.763  34.511   2.390
10546W        W77087  44.962  24.253   4.569
10547W        W77088  31.401   8.241   4.407
10548W        W77089  10.122  17.618  11.653
10549W        W77090  29.115   7.158   3.754
10550W        W77091  42.263   4.386  13.874
10551W        W77092  10.269  16.885  13.020
10552W        W77093  35.989   9.131  13.000
10553W        W77094  18.933  38.746   3.520
10554W        W77095  10.969  28.206   2.544
10555W        W77096  37.562  18.336   4.616
10556W        W77097  33.042  21.329   1.430
10557W        W77098  36.541   4.795  12.376
10558W        W77099  22.097  38.542   0.937
10559W        W77100  21.142  19.539   3.648
10560W        W77101  14.692  30.898  12.461
10561W        W77102  23.537  37.424  14.033
10562W        W77103  32.147  31.442  11.624
10563W        W77104  24.619  10.718  13.991
10564W        W77105  18.217   5.330  14.946
10565W        W77106  44.258   5.509   1.152
10566W        W77107  24.662  18.305   2.861
10567W        W77108  13.108   8.601   4.935
10568W        W77109  22.817  17.722  14.371
10569W        W77110  31.088  21.938  10.815
10570W        W77111  14.278  39.473  14.947
10571W        W77112  35.951  35.501   4.501
10572W        W77113  30.871  22.054   4.116
10573W        W77114  20.226  20.365   4.973
10574W        W77115  39.077  31.310  13.159
10575W        W77116  28.965  38.560   4.613
10576W        W77117  25.166   9.495  14.879
10577W        W77118  12.109   8.864  12.011
10578W        W77119  39.702  42.765   1.108
10579W        W77120   5.546  39.912  13.435
10580W        W77121  18.359  29.305   2.832
10581W        W77122   5.833  34.506  10.698
10582W        W77123  21.872   7.068   4.158
10583W        W77124  34.596  29.507   3.448
10584W        W77125  19.538  39.078   2.748
10585W        W77126  38.836   5.236  11.707
10586W        W77127  25.467  39.718   0.377
10587W        W77128   2.113  17.412   0.846
10588W        W77129  21.062  10.400  14.834
10589W        W77130  28.933  17.324  10.552
10590W        W77131   1.328  11.049   1.689
10591W        W77132  25.138   4.969  12.107
10592W        W77133  42.958  23.090   1.176
10593W        W77134  23.777  36.001  10.704
10594W        W77135  41.521   5.126  14.143
10595W        W77136   1.767  31.176  13.838
10596W        W77137   5.197  27.172  11.873
10597W        W77138  11.102   4.194  13.359
10598W        W77139   4.251  41.300   3.320
10599W        W77140  17.905   7.950   3.032
10600W        W77141  39.064  35.683   3.675
10601W        W77142  32.464  10.788   4.669
10602W        W77143   6.201  23.764   1.856
10603W        W77144  31.028  13.210  10.280
10604W        W77145  22.907  23.118   0.917
10605W        W77146   9.426  15.318   4.054
10606W        W77147  32.558  44.122  12.375
10607W        W77148  16.966  44.884   4.030
10608W        W77149   5.693  27.517  12.525
10609W        W77150  32.399   5.648   1.768
10610W        W77151  39.472  12.311  10.266
10611W        W77152  33.944  33.728   2.609
10612W        W77153  17.117  41.277   5.034
10613W        W77154   4.826  13.329  12.393
10614W        W77155  18.325   8.874   3.348
10615W        W77156  22.479  38.270  12.516
10616W        W77157   7.163  28.786  13.361
10617W        W77158  36.181  20.044   1.306
10618W        W77159  41.392  39.357   4.746
10619W        W77160  29.518  17.281   2.661
10620W        W77161  11.722  22.130   1.509
10621W        W77162  27.596  41.714   3.626
10622W        W77163  18.950  12.121   1.430
10623W        W77164  30.149  33.053   1.954
10624W        W77165  12.867  22.614   2.579
10625W        W77166  35.869  14.061   0.905
10626W        W77167  27.768  25.794  13.385
10627W        W77168  32.639  24.834  13.605
10628W        W77169  32.553  44.417   0.290
10629W        W77170  21.620  26.174   3.275
10630W        W77171  17.201  27.591  10.752
10631W        W77172  21.815  10.557   0.305
10632W        W77173  40.028  11.680  14.209
10633W        W77174  39.574   8.192  12.425
10634W        W77175  18.124  33.544   2.392
10635W        W77176   9.624  26.016   2.638
10636W        W77177  40.359  38.286  11.567
10637W        W77178  22.092  40.063  13.221
10638W        W77179   5.985   8.266  13.306
10639W        W77180  14.803   0.894   1.648
10640W        W77181  27.391  30.145  12.438
10641W        W77182   1.867  29.155  14.707
10642W        W77183   3.778  28.153  11.037
10643W        W77184  32.530   7.485   1.286
10644W        W77185   5.602  36.882   1.875
10645W        W77186  18.264  41.024   0.538
10646W        W77187  43.821  18.110  13.335
10647W        W77188   1.787  44.940  13.038
10648W        W77189   0.998  36.857   0.215
10649W        W77190  34.655  25.526   0.398
10650W        W77191   3.048  22.463   2.684
10651W        W77192   2.718  17.257   3.392
10652W        W77193  21.298  13.138  10.660
10653W        W77194   2.297  35.313   1.878
10654W        W77195   3.657  43.679  12.493
10655W        W77196  33.837  19.560   2.198
10656W        W77197  44.229  11.635   3.228
10657W        W77198  20.214   0.865  14.975
10658W        W77199   1.321  42.945  10.908
10659W        W77200  31.130   3.801   0.464
10660W        W77201   8.214  39.816   1.048
10661W        W77202  26.614  31.982   4.043
10662W        W77203   1.865   7.872   1.433
10663W        W77204  42.124  42.359   0.199
10664W        W77205  34.922  43.757  10.586
10665W        W77206   4.165  26.933   4.204
10666W        W77207  12.627  23.752  13.815
10667W        W77208  26.452  44.290  10.419
10668W        W77209  34.074  35.480   4.456
10669W        W77210  25.508  30.631  12.680
10670W        W77211  30.924  16.196  10.653
10671W        W77212  10.077  15.042  11.686
10672W        W77213  15.954  39.117  12.671
10673W        W77214  44.076  29.433  14.479
10674W        W77215  33.714  21.441   1.897
10675W        W77216  12.193  30.475  13.337
10676W        W77217  29.479  19.579   5.137
10677W        W77218  22.991   3.785  10.933
10678W        W77219   4.182  44.374  10.695
10679W        W77220   5.849  42.419   2.778
10680W        W77221   8.197  23.687  12.328
10681W        W77222   6.740   8.229  11.129
10682W        W77223  26.768  40.396  12.126
10683W        W77224  22.474  10.576  13.051
10684W        W77225  39.486  35.891   1.470
10685W        W77226  27.391  14.503  12.063
10686W        W77227  35.188  24.633  11.526
10687W        W77228  16.782  37.443  11.175
10688W        W77229   6.739   1.352   0.807
10689W        W77230  36.826  15.139   9.632
10690W        W77231  35.445   7.863   3.307
10691W        W77232  29.075  16.983   1.483
10692W        W77233  28.150  30.084  14.555
10693W        W77234   7.240  37.059   0.962
10694W        W77235  13.520  25.639   3.793
10695W        W77236  39.594   5.176   3.706
10696W        W77237   0.884  42.278  14.431
10697W        W77238  23.686  18.294  11.950
10698W        W77239   0.056   4.326   9.682
10699W        W77240  42.445  28.716  13.947
10700W        W77241  17.289  14.167   0.505
10701W        W77242  28.418  41.253   1.447
10702W        W77243   9.414   5.857   1.804
10703W        W77244  20.832  42.434   3.938
10704W        W77245   7.320  33.112  10.818
10705W        W77246  39.961  32.224  12.422
10706W        W77247  11.685  10.557  13.478
10707W        W77248  18.820   7.849   2.676
10708W        W77249  32.934  20.108   4.601
10709W        W77250   8.139  39.726   2.248
10710W        W77251  25.463  11.833  10.974
10711W        W77252   2.168  44.605  12.904
10712W        W77253  39.613   2.886   1.750
10713W        W77254  19.782  27.247   4.133
10714W        W77255  26.541  20.539  11.255
10715W        W77256  26.298  30.430   4.527
10716W        W77257  32.150  13.329  14.370
10717W        W77258  43.789  33.429  12.627
10718W        W77259  26.161  20.370  13.818
10719W        W77260  31.466  27.614   4.554
10720W        W77261   3.838   4.394   5.163
10721W        W77262  16.898   8.599   0.691
10722W        W77263  37.573  22.488   0.815
10723W        W77264  38.043  33.466   2.211
10724W        W77265  26.208  20.165  14.781
10725W        W77266  43.186  34.074   0.752
10726W        W77267   4.344  22.330  10.699
10727W        W77268   8.146  27.421   2.721
10728W        W77269   6.164   5.326  14.119
10729W        W77270  33.668  32.148   0.549
10730W        W77271  21.930  31.344  14.999
10731W        W77272   9.701  17.412  14.471
10732W        W77273  22.615  19.404  12.476
10733W        W77274  13.156  22.391   1.724
10734W        W77275  23.042  38.541   2.196
10735W        W77276   6.674  24.091  13.904
10736W        W77277   4.699  17.719   4.023
10737W        W77278  15.878  36.029   2.031
10738W        W77279  26.626  23.204  11.179
10739W        W77280  28.629  30.534  13.399
10740W        W77281  43.674  14.792   2.864
10741W        W77282   0.150  22.654   2.762
10742W        W77283   7.431   8.129   0.014
10743W        W77284  19.576  23.455  11.666
10744W        W77285  24.098  25.407  10.843
10745W        W77286  34.020  41.582   4.535
10746W        W77287  24.509  17.326   4.778
10747W        W77288   9.284  41.329   4.212
10748W        W77289  37.420   2.385  13.846
10749W        W77290  16.610  22.146  13.785
10750W        W77291  24.734  42.382   2.123
10751W        W77292  11.356  11.841   2.712
10752W        W77293  22.687  34.146   3.232
10753W        W77294   4.680  40.325   2.222
10754W        W77295  20.728  30.444  10.546
10755W        W77296  12.673  36.580  11.204
10756W        W77297   0.471  20.153  13.896
10757W        W77298  13.284  44.236   3.481
10758W        W77299  16.295  10.708   0.985
10759W        W77300  14.230  19.365   3.674
10760W        W77301  13.601  44.999  11.644
10761W        W77302  20.727  11.016   4.988
10762W        W77303  38.992  39.547   0.177
10763W        W77304  36.671   9.637  11.916
10764W        W77305  42.863  35.890   4.349
10765W        W77306  34.811   8.677  14.536
10766W        W77307   7.685   3.895   2.719
10767W        W77308   2.027  14.719  12.435
10768W        W77309   3.444  26.756  11.604
10769W        W77310  14.534  10.218  12.165
10770W        W77311  22.782  31.590   1.861
10771W        W77312  38.167  26.998  12.387
10772W        W77313  34.859  35.360   3.622
10773W        W77314  27.506   6.460   4.621
10774W        W77315  35.815   9.651   1.530
10775W        W77316  34.034   2.958  12.991
10776W        W77317   8.441   6.747   1.508
10777W        W77318   6.346  33.041  13.442
10778W        W77319  10.731  20.332   2.716
10779W        W77320  25.637  18.348  12.476
10780W        W77321  44.945  26.154   4.575
10781W        W77322  40.730   3.301  12.426
10782W        W77323  16.713  40.034  14.752
10783W        W77324   9.452   8.185  12.399
10784W        W77325  30.979  29.443  11.871
10785W        W77326  44.598   1.993  12.970
10786W        W77327  13.192  19.298   0.562
10787W        W77328  22.082  37.355   4.784
10788W        W77329  35.133  29.605   4.962
10789W        W77330  27.729  17.018   3.199
10790W        W77331  37.798  35.271  12.980
10791W        W77332  39.944  21.526  10.513
10792W        W77333  42.802   8.397   0.443
10793W        W77334  18.621   9.085  11.111
10794W        W77335   4.957  43.018  10.375
10795W        W77336  39.414   5.867  10.971
10796W        W77337  16.030  17.089   2.427
10797W        W77338  29.236   9.200   0.661
10798W        W77339  12.088  12.029   0.457
10799W        W77340  26.457   3.942   0.849
10800W        W77341   7.132  30.040   3.220
10801W        W77342  23.672  25.932   3.888
10802W        W77343  44.054  38.866  14.918
10803W        W77344   3.176  33.200   1.482
10804W        W77345   2.850  13.654  14.068
10805W        W77346  44.680  38.855  13.693
10806W        W77347  11.270  31.815   2.753
10807W        W77348  34.881  19.783  14.384
10808W        W77349   5.290   4.128  13.915
10809W        W77350  35.346  10.837  13.101
10810W        W77351  32.500  39.808   2.316
10811W        W77352  35.855  16.669   1.423
10812W        W77353   1.020   2.170  13.082
10813W        W77354  41.067   7.657  14.312
10814W        W77355   7.285  37.013   2.581
10815W        W77356  39.954  15.005   0.973
10816W        W77357  22.034   3.710  11.114
10817W        W77358  26.944   3.817   0.667
10818W        W77359  42.736   0.924  14.973
10819W        W77360   0.082  22.567   0.381
10820W        W77361  24.096  42.168   3.972
10821W        W77362  41.380  40.205   3.199
10822W        W77363  18.121  35.850  14.503
10823W        W77364  27.472  16.983  11.640
10824W        W77365  37.065  37.170  13.534
10825W        W77366  21.476  17.299   0.892
10826W        W77367  19.235  20.741  14.244
10827W        W77368  32.657  22.297  13.135
10828W        W77369  28.105  26.628  13.814
10829W        W77370  27.645  39.995   0.777
10830W        W77371  10.405   4.385  12.907
10831W        W77372  19.574  15.870   4.628
10832W        W77373   4.228  15.097   1.196
10833W        W77374  30.616  25.945  10.340
10834W        W77375  33.532  36.278   4.316
10835W        W77376  19.218  19.127  12.007
10836W        W77377  35.561  28.491   3.867
10837W        W77378  28.725   5.049   1.810
10838W        W77379  20.500  29.580  14.379
10839W        W77380  14.723  42.285   4.985
10840W        W77381  10.317  27.097  14.249
10841W        W77382  13.182  21.851  14.346
10842W        W77383  36.628  14.222  10.716
10843W        W77384  23.454  42.803   1.437
10844W        W77385  31.385   4.777  12.359
10845W        W77386  24.653  24.042   4.523
10846W        W77387  24.843  11.421   4.117
10847W        W77388  12.775   0.457   1.747
10848W        W77389  16.798  14.174   4.173
10849W        W77390  33.581   1.519  12.128
10850W        W77391   5.681  22.650   4.724
10851W        W77392  34.177   1.304   4.126
10852W        W77393   0.371  19.564  10.688
10853W        W77394   3.367   7.053  12.408
10854W        W77395  16.833  30.354   4.970
10855W        W77396   3.937  19.257   2.695
10856W        W77397  18.343  16.047   0.556
10857W        W77398  37.916  35.487  10.791
10858W        W77399  36.558  36.412  14.906
10859W        W77400  44.715  44.449   0.360
10860W        W77401   2.624  44.448   3.658
10861W        W77402  25.085  18.289  11.978
10862W        W77403  33.369  15.986  13.341
10863W        W77404  43.264  25.187  14.487
10864W        W77405  14.887  15.993   1.320
10865W        W77406  11.338   4.898  13.116
10866W        W77407  34.110  28.433  10.635
10867W        W77408  17.609  43.839  13.533
10868W        W77409  44.302  23.536   1.156
10869W        W77410  30.098  22.190  11.129
10870W        W77411  39.613  20.882   1.671
10871W        W77412   9.109  13.897  11.990
10872W        W77413  29.467  11.310   4.215
10873W        W77414  41.283  41.375   3.619
10874W        W77415   3.642  28.598  14.798
10875W        W77416  42.569  18.053  14.909
10876W        W77417   2.850  40.719  14.917
10877W        W77418  41.273   3.875   4.307
10878W        W77419  14.375  29.202   3.715
10879W        W77420  36.636  18.356   4.397
10880W        W77421  29.361  13.850   2.113
10881W        W77422   2.551   6.719  13.929
10882W        W77423  14.109  13.722  10.671
10883W        W77424  12.333   0.507  12.636
10884W        W77425  17.218   4.667  12.429
10885W        W77426  40.968  19.242   0.331
10886W        W77427  21.556  37.452  14.942
10887W        W77428  33.498   2.442   3.569
10888W        W77429  27.411  14.133  13.052
10889W        W77430   8.346   0.639   2.333
10890W        W77431  33.021  21.456   2.353
10891W        W77432  28.649   9.130  12.514
10892W        W77433  41.746   4.040   4.613
10893W        W77434  14.802  22.712   4.080
10894W        W77435   4.996  18.778   4.650
10895W        W77436  16.264   5.503   3.765
10896W        W77437  35.324  40.462  11.159
10897W        W77438  23.139  15.509   0.875
10898W        W77439  42.843  26.515  11.670
10899W        W77440  40.575   1.712   4.490
10900W        W77441  15.298  38.607   4.053
10901W        W77442  25.528   1.813  11.512
10902W        W77443   8.630  14.036  12.175
10903W        W77444  40.829  39.461   1.200
10904W        W77445  33.444  40.878   3.266
10905W        W77446  15.641  44.276   2.141
10906W        W77447  32.958  41.450  14.831
10907W        W77448  10.875  22.886   0.410
10908W        W77449   1.168   2.682  13.385
10909W        W77450  28.944  17.591  12.144
10910W        W77451   5.904  12.876  10.671
10911W        W77452  19.692  29.721  14.866
10912W        W77453  43.285  18.784  11.195
10913W        W77454  29.941  20.294   0.466
10914W        W77455  30.157  18.984  12.418
10915W        W77456   5.444  32.734  13.608
10916W        W77457  11.189  32.767  12.998
10917W        W77458   7.433  43.469  12.202
10918W        W77459   5.560  39.511   4.112
10919W        W77460   1.356  29.126  14.877
10920W        W77461  19.236  16.607  13.866
10921W        W77462  29.074  39.299   3.542
10922W        W77463  12.033  23.174   3.152
10923W        W77464  11.406  20.595  14.968
10924W        W77465  19.643  31.170  12.534
10925W        W77466  32.840  40.139   1.941
10926W        W77467  19.749  28.669   1.994
10927W        W77468  20.844  36.474  13.986
10928W        W77469  10.235  30.570   2.055
10929W        W77470  25.657   5.774  14.322
10930W        W77471  30.059  41.860   3.256
10931W        W77472  26.628   4.326   1.988
10932W        W77473  43.404   8.917  10.840
10933W        W77474  19.484   3.276   0.652
10934W        W77475  15.617  34.165  10.636
10935W        W77476  39.938  36.480  11.164
10936W        W77477  18.007  10.800  13.428
10937W        W77478  34.000  37.848  13.956
10938W        W77479  35.001  42.865  11.670
10939W        W77480  43.846  38.951   4.317
10940W        W77481  28.564   0.208   3.530
10941W        W77482  21.236  16.052   0.760
10942W        W77483  34.984  19.808   1.265
10943W        W77484  42.329  42.382   1.966
10944W        W77485  29.422   3.113   3.648
10945W        W77486   6.809  26.685   3.214
10946W        W77487   8.359  42.118   4.983
10947W        W77488  40.316  16.280  13.056
10948W        W77489  31.485  26.538   3.643
10949W        W77490  12.775   0.683  12.835
10950W        W77491  29.343  19.964  11.164
10951W        W77492  42.362  15.224   2.572
10952W        W77493   1.323  20.668  11.100
10953W        W77494   9.177   5.347  13.025
10954W        W77495   5.389  28.666   2.437
10955W        W77496  18.205   5.393  12.898
10956W        W77497   3.230  19.097   4.169
10957W        W77498  24.871   7.360   3.727
10958W        W77499  12.467  38.481   3.291
10959W        W77500   6.999  36.932  10.282
10960W        W77501  33.529   8.305   1.245
10961W        W77502  30.125   7.860   4.126
10962W        W77503  43.908   7.306   2.633
10963W        W77504  18.474  33.781  10.371
10964W        W77505   9.673   1.084   4.715
10965W        W77506  34.435  27.614  11.938
10966W        W77507  27.095   8.257   1.146
10967W        W77508  24.643  26.182   1.320
10968W        W77509  43.079  10.096   1.898
10969W        W77510  11.064  20.273  10.742
10970W        W77511  36.745  31.965   4.957
10971W        W77512  25.129  16.629   1.978
10972W        W77513  41.377  43.850   1.962
10973W        W77514  29.056  33.414   4.081
10974W        W77515  29.459  28.492   2.782
10975W        W77516  14.128  27.098   3.788
10976W        W77517   9.834  34.481  12.182
10977W        W77518  24.970  11.685  12.987
10978W        W77519  41.024  35.010   4.686
10979W        W77520   1.097  21.798  14.057
10980W        W77521  14.591  38.545  11.002
10981W        W77522  30.446   2.266  10.655
10982W        W77523  38.885   6.909  11.199
10983W        W77524   7.681  22.343   3.697
10984W        W77525  25.020   4.128   4.178
10985W        W77526  40.539  28.151   1.420
10986W        W77527  34.132  22.210  14.925
10987W        W77528  14.078  16.234   0.949
10988W        W77529  22.557  37.564   4.745
10989W        W77530  35.133  38.940  13.604
10990W        W77531  29.842  34.572  13.687
10991W        W77532  10.243   5.672  14.900
10992W        W77533   8.553  28.823   2.658
10993W        W77534   4.416  18.665   0.961
10994W        W77535  28.697   6.443  11.796
10995W        W77536  35.836  33.843  14.902
10996W        W77537  41.937  41.023   0.652
10997W        W77538  31.118   5.160   2.576
10998W        W77539  44.050  11.383   1.250
10999W        W77540  40.599  38.609   0.246
11000W        W77541  43.098  32.836  14.143
11001W        W77542   8.181  43.509   1.219
11002W        W77543  31.573   4.660  13.232
11003W        W77544  40.416  31.560  12.029
11004W        W77545  21.182  13.288   2.753
11005W        W77546  35.398   1.502  14.370
11006W        W77547  42.255  15.250   0.358
11007W        W77548  41.490  37.493   3.102
11008W        W77549  35.912   3.991  11.841
11009W        W77550  35.784  33.311  14.936
11010W        W77551  39.175  33.650   3.680
11011W        W77552  18.235   1.000   4.553
11012W        W77553  31.589  21.671  11.617
11013W        W77554   0.336  32.506  10.740
11014W        W77555  13.823  32.408   3.255
11015W        W77556   1.228   9.783  14.090
11016W        W77557   2.723  14.325  12.145
11017W        W77558  36.503   3.790  10.671
11018W        W77559  22.000  42.095   4.519
11019W        W77560  38.564   8.392  11.123
11020W        W77561   7.599   7.773  12.441
11021W        W77562  15.111  17.682   1.429
11022W        W77563  14.575  37.078   3.212
11023W        W77564  18.336   5.326   0.450
11024W        W77565  13.234  43.438   2.840
11025W        W77566  31.120   5.907  10.581
11026W        W77567  12.427  11.703   0.755
11027W        W77568   6.434  38.024   1.222
11028W        W77569  27.998  24.654  14.798
11029W        W77570  15.354  29.922   2.393
11030W        W77571  18.216   2.334   2.787
11031W        W77572  36.700  41.176  11.241
11032W        W77573   9.183  14.538   3.854
11033W        W77574   1.253   2.978  11.932
11034W        W77575  26.567   4.709   3.615
11035W        W77576  24.404  33.126   2.377
11036W        W77577  18.002  15.047   2.420
11037W        W77578  38.365  41.824   3.546
11038W        W77579  18.207  28.057  10.684
11039W        W77580  11.446  38.511   3.229
11040W        W77581  27.107  12.241  13.514
11041W        W77582   8.847   5.615  12.716
11042W        W77583  11.548  44.664   1.350
11043W        W77584  31.639  18.058   3.517
11044W        W77585  14.098  39.273  10.760
11045W        W77586  16.093  32.166  12.265
11046W        W77587  19.771   3.695   3.230
11047W        W77588  10.399  38.547  10.384
11048W        W77589  16.019  17.768   1.926
11049W        W77590  41.339  12.186  11.103
11050W        W77591  20.468  22.104  12.775
11051W        W77592   6.346   4.658  13.448
11052W        W77593  11.169  30.660   0.791
11053W        W77594  18.919   5.968  13.565
11054W        W77595   4.055  12.737  12.941
11055W        W77596  41.429  37.033  13.578
11056W        W77597  35.879   8.153   2.369
11057W        W77598   0.271  44.826   1.792
11058W        W77599   7.834  26.892   0.969
11059W        W77600   0.276   2.491   2.627
11060W        W77601  19.346   5.272  14.998
11061W        W77602   6.609  38.487   1.064
11062W        W77603  38.956  38.507  10.237
11063W        W77604  32.392  18.953   2.198
11064W        W77605   9.257  36.090  14.039
11065W        W77606  25.706  20.063  14.835
11066W        W77607  30.575   5.006   3.049
11067W        W77608  10.139   6.336   2.692
11068W        W77609  21.100  35.106  12.641
11069W        W77610  35.966  12.549  10.689
11070W        W77611   5.409  16.301   2.373
11071W        W77612   8.718   5.575   0.966
11072W        W77613  42.944   5.649  12.381
11073W        W77614   2.250   9.417   2.645
11074W        W77615   3.230   0.891   5.015
11075W        W77616  14.233  40.827  12.853
11076W        W77617  32.322   1.694  10.783
11077W        W77618  28.880  39.460   2.667
11078W        W77619  28.972  41.537  10.777
11079W        W77620  44.041  25.606  14.778
11080W        W77621  34.960  41.263   3.069
11081W        W77622  18.586  26.051  11.709
11082W        W77623   9.584   2.889   2.435
11083W        W77624  42.787   0.527  13.171
11084W        W77625  18.112  42.946  12.314
11085W        W77626  28.940   7.101  14.738
11086W        W77627  42.533  32.915  10.472
11087W        W77628   6.854  33.016  13.531
11088W        W77629   2.143  17.084  14.456
11089W        W77630  32.834  35.403   3.351
11090W        W77631  35.099  28.319   2.224
11091W        W77632  40.061   6.217   3.289
11092W        W77633  43.522  44.715  12.192
11093W        W77634  18.037  29.708  14.579
11094W        W77635  11.369  19.348   0.346
11095W        W77636  30.440  32.348  11.515
11096W        W77637  23.020   3.657  10.167
11097W        W77638  18.361   1.366  13.920
11098W        W77639  16.614  31.434  13.961
11099W        W77640  35.023  37.409  10.379
11100W        W77641  34.388  32.546  13.869
11101W        W77642  11.460  41.198  12.911
11102W        W77643  25.722  36.782  11.416
11103W        W77644  31.958  31.916  11.652
11104W        W77645   7.935  16.001   1.080
11105W        W77646  38.424  13.185   3.221
11106W        W77647   5.384   0.331  14.800
11107W        W77648  42.378  29.174  10.791
11108W        W77649  23.742  16.313   2.327
11109W        W77650  31.769  16.794   1.197
11110W        W77651  23.327  31.465  12.617
11111W        W77652  31.480  27.986  13.498
11112W        W77653  42.938  41.082  14.871
11113W        W77654  40.926  20.781  14.484
11114W        W77655  29.057  33.881   0.997
11115W        W77656  44.384  12.594   0.526
11116W        W77657  34.432  28.663   3.421
11117W        W77658   5.333  20.004  13.864
11118W        W77659  11.211  28.000   4.012
11119W        W77660  42.429   4.794  14.884
11120W        W77661  19.595  43.979  12.016
11121W        W77662  25.638  21.122   0.710
11122W        W77663   4.151   0.899  14.968
11123W        W77664  41.369  43.646  11.282
11124W        W77665  14.510   2.360   4.832
11125W        W77666  25.224  30.741   2.861
11126W        W77667  15.136  19.550  11.085
11127W        W77668  17.377  12.372   3.141
11128W        W77669   7.744  22.206   1.423
11129W        W77670  25.966   2.738  11.950
11130W        W77671  26.204  41.106  12.493
11131W        W77672  36.591  42.891  11.457
11132W        W77673  40.713  23.200  14.465
11133W        W77674  18.579  25.467   4.141
11134W        W77675  24.976  32.418   1.939
11135W        W77676  36.067  38.509  14.495
11136W        W77677   1.621   6.869   1.183
11137W        W77678  25.796  36.820   3.202
11138W        W77679  15.802  13.407   2.709
11139W        W77680  14.929  43.740   1.770
11140W        W77681  11.734  10.162  12.982
11141W        W77682  17.708   8.424   3.048
11142W        W77683  40.956  33.545   4.913
11143W        W77684  11.316  29.426  14.628
11144W        W77685  40.987   2.879  12.348
11145W        W77686   8.327   1.472   2.871
11146W        W77687  41.611  12.206   3.256
11147W        W77688  13.361   2.533  12.274
11148W        W77689  25.301   3.407   3.065
11149W        W77690  13.979  35.511  11.034
11150W        W77691  31.610  17.903  14.385
11151W        W77692  29.644  24.100  12.930
11152W        W77693  10.603  19.254   1.903
11153W        W77694   7.476   2.859  10.874
11154W        W77695  37.777   7.236   1.462
11155W        W77696   0.832  43.533   2.157
11156W        W77697  11.253   8.685   3.079
11157W        W77698  20.403  25.557  11.182
11158W        W77699  43.763  35.800   0.282
11159W        W77700  44.927  11.110  13.594
11160W        W77701  43.957  37.063   4.038
11161W        W77702   2.637  33.483  14.294
11162W        W77703  38.114  25.172  12.558
11163W        W77704   6.899  35.908   0.780
11164W        W77705  36.472  17.375   4.617
11165W        W77706   3.849   2.863  12.685
11166W        W77707  27.172   7.419  13.084
11167W        W77708  21.799  25.930  14.853
11168W        W77709  38.622   3.812   3.405
11169W        W77710  13.910  43.457  14.868
11170W        W77711  22.649   8.470   2.975
11171W        W77712  25.320   6.194   4.727
11172W        W77713  41.290  39.151  10.759
11173W        W77714   4.784  41.039   0.020
11174W        W77715  29.923  31.330   0.291
11175W        W77716  21.062  13.630  14.001
11176W        W77717  20.644  21.878   1.840
11177W        W77718  40.904   9.256   0.506
11178W        W77719  22.683  35.831   2.154
11179W        W77720   0.027  15.629   2.658
11180W        W77721   5.804  31.273   4.325
11181W        W77722   2.281  22.094   2.042
11182W        W77723  10.032  35.596   2.433
11183W        W77724  16.165   5.157   2.302
11184W        W77725  13.879  24.668  11.226
11185W        W77726  10.753  42.965   2.754
11186W        W77727  18.976  29.884  11.303
11187W        W77728  19.083  13.002   4.054
11188W        W77729  42.534   4.830  13.963
11189W        W77730  35.859  15.059  11.435
11190W        W77731  40.185  44.682   0.778
11191W        W77732  19.021  12.163  10.747
11192W        W77733  23.540   0.166   0.816
11193W        W77734  28.188   3.373  10.717
11194W        W77735  12.888  14.318   3.122
11195W        W77736  12.627   4.254   3.289
11196W        W77737  35.088  32.405  14.838
11197W        W77738  33.883  17.657   2.545
11198W        W77739  30.404  30.108   0.927
11199W        W77740  16.076  44.524  12.736
11200W        W77741  32.593  34.120  14.375
11201W        W77742  42.698  37.911  12.678
11202W        W77743  18.165  38.090  11.061
11203W        W77744  16.379  25.005  11.687
11204W        W77745  35.990  37.785  13.862
11205W        W77746  36.122  33.997   2.352
11206W        W77747  29.873  42.876   1.212
11207W        W77748  21.975  43.049   1.245
11208W        W77749  23.166   3.326  11.679
11209W        W77750  13.643  38.201   4.238
11210W        W77751  10.770  22.205   1.360
11211W        W77752  38.056  34.511   4.125
11212W        W77753   5.972  20.115   0.923
11213W        W77754   8.611   0.526   2.790
11214W        W77755   5.137  17.585   2.763
11215W        W77756  24.656   5.578   5.123
11216W        W77757  42.023  17.941   4.637
11217W        W77758  13.223  23.288   4.388
11218W        W77759  33.407  23.264   2.371
11219W        W77760  25.509   2.946  11.459
11220W        W77761   1.507  18.754  10.560
11221W        W77762  39.804   0.678  13.400
11222W        W77763  14.908   6.395  12.004
11223W        W77764  19.254   1.175  10.660
11224W        W77765  39.437   2.460  14.458
11225W        W77766  18.162  42.078  12.415
11226W        W77767  11.803  29.366  11.434
11227W        W77768  34.136  31.920   0.695
11228W        W77769  18.752  30.141   1.696
11229W        W77770   9.595  44.792   3.582
11230W        W77771  25.702  34.609   1.711
11231W        W77772  18.672  27.423   2.584
11232W        W77773  22.388   2.223  10.247
11233W        W77774   8.851  35.415  13.910
11234W        W77775  15.776  29.396  12.540
11235W        W77776  35.495  37.489   3.850
11236W        W77777  43.740   1.845   4.945
11237W        W77778  34.552  23.262  11.442
11238W        W77779  22.618  20.066  13.272
11239W        W77780  44.781  20.846  14.275
11240W        W77781  19.769   4.938  10.266
11241W        W77782  12.560  44.389   4.121
11242W        W77783  12.343  14.384   3.786
11243W        W77784  41.746   7.622  10.499
11244W        W77785  19.230  29.085   2.873
11245W        W77786   2.035  36.611  10.751
11246W        W77787  18.381  21.052  12.795
11247W        W77788  15.834  44.992  14.255
11248W        W77789   7.335  40.840  13.495
11249W        W77790  36.843  22.511   0.216
11250W        W77791  17.646  43.490   2.592
11251W        W77792  21.657  13.079   3.642
11252W        W77793   7.636  10.688   0.793
11253W        W77794  12.235  38.789   1.481
11254W        W77795  37.226  28.515  14.317
11255W        W77796  16.494  36.119   1.722
11256W        W77797  15.646   8.424  13.927
11257W        W77798   4.317   4.261   1.320
11258W        W77799  24.020  32.074  13.791
11259W        W77800  13.754  19.466  13.047
11260W        W77801  36.451  18.707   4.712
11261W        W77802   4.378  16.141  13.461
11262W        W77803   6.575  18.111   1.248
11263W        W77804  18.458  10.529  14.524
11264W        W77805  31.115   3.652   5.596
11265W        W77806  17.902   1.927   1.466
11266W        W77807  19.270  41.802   2.749
11267W        W77808  36.767  29.046  11.196
11268W        W77809  13.387   1.303   4.576
11269W        W77810  40.085  29.754  11.961
11270W        W77811  31.246   1.096   1.263
11271W        W77812   9.618  30.132   4.040
11272W        W77813  21.261  31.057   2.878
11273W        W77814  21.060  23.152   1.670
11274W        W77815  17.292  23.973  14.711
11275W        W77816  39.371  15.164  11.894
11276W        W77817  12.309  28.635  14.214
11277W        W77818  18.042  11.051   4.919
11278W        W77819  43.619  13.112   4.110
11279W        W77820  37.334  34.811   3.663
11280W        W77821  44.019   0.328   0.845
11281W        W77822  34.427  16.130   0.718
11282W        W77823  25.244   6.511  14.799
11283W        W77824  16.490  36.086  12.520
11284W        W77825  44.954  30.910   5.119
11285W        W77826  20.681   8.455  10.723
11286W        W77827  36.978  16.387   1.271
11287W        W77828  36.082  22.074  14.038
11288W        W77829  33.862   6.787  14.272
11289W        W77830   6.270  43.815   4.002
11290W        W77831  27.075   0.837   2.604
11291W        W77832  31.019   3.328   1.260
11292W        W77833  31.058   3.430   9.920
11293W        W77834  25.259  40.754  12.878
11294W        W77835   0.410  33.208  11.287
11295W        W77836  37.072  20.008   5.103
11296W        W77837  18.229  34.571  12.070
11297W        W77838  18.473   4.332   0.934
11298W        W77839  41.236  30.773  14.591
11299W        W77840  17.245  42.853  13.325
11300W        W77841  31.900  18.624  14.910
11301W        W77842  22.632   0.131   2.732
11302W        W77843  38.350  16.075  14.496
11303W        W77844  25.968  41.011   0.487
11304W        W77845   8.331  19.627  11.948
11305W        W77846  33.862  25.873  13.508
11306W        W77847  26.177  39.566   1.922
11307W        W77848  38.891  31.919  11.489
11308W        W77849  15.293  26.763  13.812
11309W        W77850   2.366   7.770  12.757
11310W        W77851  26.248   4.045  14.343
11311W        W77852  20.570  26.796   0.798
11312W        W77853  40.231  15.903   5.443
11313W        W77854  23.193  36.080  10.752
11314W        W77855  39.907  28.054   4.718
11315W        W77856   9.778  23.500  14.299
11316W        W77857  31.985  16.459  13.348
11317W        W77858  31.356  42.222  12.628
11318W        W77859  42.953  27.941   0.958
11319W        W77860  32.514  42.942  12.430
11320W        W77861  30.221  42.874  10.463
11321W        W77862  36.057   6.751  11.487
11322W        W77863   7.604  42.825   3.731
11323W        W77864  39.966  41.982  14.075
11324W        W77865  21.096  24.571  14.208
11325W        W77866   8.874  42.351  14.340
11326W        W77867  23.324  39.852  12.109
11327W        W77868  43.466  27.695   1.703
11328W        W77869  16.374  22.325  12.130
11329W        W77870  16.523  25.753   1.895
11330W        W77871   3.877   8.860   1.674
11331W        W77872  35.559  36.180   1.359
11332W        W77873  41.351   9.703  12.054
11333W        W77874  27.698  43.238  11.450
11334W        W77875   1.955  43.881   4.969
11335W        W77876  38.439  19.320  12.090
11336W        W77877  11.370   1.631  11.055
11337W        W77878  25.481  17.600   0.001
11338W        W77879  12.289  37.479   0.366
11339W        W77880  27.507  22.098  12.405
11340W        W77881  18.731  25.418   3.157
11341W        W77882  21.679  32.027  11.571
11342W        W77883   9.223  41.724   2.600
11343W        W77884  36.032  28.619   1.183
11344W        W77885  28.147  40.404  10.117
11345W        W77886  25.002  31.437  14.027
11346W        W77887  36.362  19.122  12.469
11347W        W77888  17.577  26.043  11.458
11348W        W77889  36.499  38.797  14.603
11349W        W77890  43.736  13.872  14.836
11350W        W77891  18.136  13.107   1.422
11351W        W77892  10.762  15.902  11.923
11352W        W77893  18.956  18.629  11.243
11353W        W77894  43.860  24.947   0.973
11354W        W77895  37.814   0.317   3.641
11355W        W77896  19.074  42.963  10.758
11356W        W77897  14.997  38.823  11.201
11357W        W77898  28.378   1.972  10.424
11358W        W77899  32.289  26.445  10.325
11359W        W77900   1.782  31.159  11.116
11360W        W77901  16.790  40.921   1.491
11361W        W77902   5.342  44.832  10.863
11362W        W77903  27.187  37.052   2.883
11363W        W77904   1.380  14.235  11.042
11364W        W77905   0.366  41.020  13.323
11365W        W77906  35.629   3.749   0.992
11366W        W77907  32.381   4.601   4.400
11367W        W77908  40.452  14.616  14.472
11368W        W77909  41.646  33.996  10.875
11369W        W77910  41.842   0.496  13.387
11370W        W77911  29.116  33.016   4.424
11371W        W77912  26.712   5.164   0.429
11372W        W77913  19.255  12.274   1.008
11373W        W77914   0.735  18.544   3.155
11374W        W77915  18.818  41.465  11.950
11375W        W77916   4.120  37.092  12.495
11376W        W77917  30.542   6.520   4.714
11377W        W77918  39.035  38.599  14.311
11378W        W77919  22.198   1.868  14.718
11379W        W77920  27.875  25.970  11.092
11380W        W77921  20.534  25.972   1.954
11381W        W77922  43.412   0.892  11.580
11382W        W77923  37.320   2.032  14.841
11383W        W77924  12.828  37.307   3.630
11384W        W77925  20.019   3.779  14.699
11385W        W77926  26.450   6.138   0.481
11386W        W77927  14.703  23.677  13.006
11387W        W77928  11.216   9.709  13.771
11388W        W77929  42.635  16.823  10.010
11389W        W77930  12.712  39.518  11.691
11390W        W77931  19.205  11.399   4.979
11391W        W77932  25.699  12.263   1.746
11392W        W77933  33.593  43.510  12.569
11393W        W77934  24.036  38.911  11.059
11394W        W77935  31.915  34.525   0.639
11395W        W77936  44.540  21.287   3.863
11396W        W77937  32.367  24.213   1.758
11397W        W77938  34.067  33.225   2.736
11398W        W77939  21.125  44.751  14.759
11399W        W77940   0.309  11.456   2.253
11400W        W77941  44.987  13.800  13.835
11401W        W77942  35.026  40.906   2.207
11402W        W77943  31.407   1.985  12.848
11403W        W77944  22.765   2.756  14.758
11404W        W77945  24.158  33.585   4.103
11405W        W77946  31.064   0.030   0.552
11406W        W77947   7.699   9.643   0.876
11407W        W77948  39.085  28.510  14.070
11408W        W77949  26.608  40.521  11.657
11409W        W77950  24.294   4.787  12.470
11410W        W77951   5.877  28.605   2.716
11411W        W77952  22.025   8.660   3.010
11412W        W77953  41.233  35.813   4.580
11413W        W77954  20.132  43.064  14.727
11414W        W77955  21.352  33.533  10.173
11415W        W77956  30.991  24.051  10.511
11416W        W77957  25.713  10.941  12.593
11417W        W77958  21.545  18.657   4.337
11418W        W77959  19.251   4.088   0.257
11419W        W77960  28.611  20.958  11.839
11420W        W77961  38.457  33.811   2.241
11421W        W77962   8.968  19.768   1.682
11422W        W77963  15.908  21.751   0.910
11423W        W77964   0.463   1.716  13.496
11424W        W77965   2.773  21.637  13.532
11425W        W77966  18.580  30.059  11.619
11426W        W77967  34.446   4.527  11.076
11427W        W77968  35.016  15.669   5.361
11428W        W77969  20.107   9.328  14.916
11429W        W77970  23.094   0.073  11.000
11430W        W77971  30.547  29.379  10.544
11431W        W77972   0.964  16.913  11.605
11432W        W77973  16.665  19.243  13.029
11433W        W77974  21.451  41.442  10.763
11434W        W77975  25.592  17.136   4.512
11435W        W77976   1.438   9.673   1.062
11436W        W77977   3.482  43.956  10.331
11437W        W77978  27.044  43.280  12.065
11438W        W77979  14.346  36.143  14.797
11439W        W77980  42.987  20.527   0.469
11440W        W77981  37.939  39.837  11.623
11441W        W77982  43.065   0.501  14.147
11442W        W77983  10.002  38.040  12.070
11443W        W77984  35.329  23.166  14.460
11444W        W77985  22.952  28.218   4.691
11445W        W77986  16.235  16.187  12.865
11446W        W77987  15.305  14.057  11.105
11447W        W77988  30.519  43.252   2.794
11448W        W77989   1.709  15.566  14.384
11449W        W77990  12.332  35.407   3.785
11450W        W77991  16.203  18.121   3.301
11451W        W77992  11.546  42.473  11.947
11452W        W77993  25.496  37.235  11.525
11453W        W77994  15.895  14.478   4.148
11454W        W77995  18.995  33.938   4.195
11455W        W77996  14.211  44.858   3.883
11456W        W77997   4.575  15.467   1.108
11457W        W77998  21.066  18.559   1.604
11458W        W77999  22.958  16.089   3.681
11459W        W78000  21.643  22.686   3.169
11460W        W78001  18.587  29.520  11.501
11461W        W78002   2.865  33.772  11.638
11462W        W78003   3.386  40.015  14.817
11463W        W78004   2.427  13.001   2.334
11464W        W78005   6.615  34.689   4.763
11465W        W78006  21.644  33.169  10.382
11466W        W78007  44.227  11.613   2.185
11467W        W78008  12.844  22.534   4.545
11468W        W78009   4.532  16.799   1.412
11469W        W78010   0.861  26.086   9.521
11470W        W78011   3.168   4.830  14.168
11471W        W78012  43.260   2.473   4.283
11472W        W78013  34.137  42.902  10.660
11473W        W78014   2.895   9.788  11.472
11474W        W78015  30.676  42.245  14.198
11475W        W78016  16.048  32.874  14.789
11476W        W78017  16.162  40.885  14.377
11477W        W78018  18.769  23.935   1.332
11478W        W78019  44.338  29.684   2.912
11479W        W78020   7.166  21.988   2.440
11480W        W78021  32.707  31.094   1.309
11481W        W78022  18.315   4.660   4.194
11482W        W78023  16.639  35.405  11.911
11483W        W78024   5.206  18.938   0.013
11484W        W78025  17.702  44.388  11.712
11485W        W78026  31.397  32.883  11.177
11486W        W78027  24.249   6.647   2.692
11487W        W78028  39.031  28.984  11.722
11488W        W78029   1.922  12.675  11.615
11489W        W78030  38.363   9.817  10.432
11490W        W78031   3.397   4.397  10.592
11491W        W78032  16.750  11.418   1.144
11492W        W78033   2.320   3.817   0.293
11493W        W78034   5.031  19.726   3.160
11494W        W78035  14.690  30.083  12.997
11495W        W78036   3.853  20.134   0.719
11496W        W78037   5.265  39.057   1.458
11497W        W78038   1.926  24.197  11.015
11498W        W78039  30.532  36.108  13.072
11499W        W78040  19.275  23.684  12.116
11500W        W78041  44.348  24.941   3.196
11501W        W78042   5.125  31.882  12.152
11502W        W78043   4.353  19.808   3.746
11503W        W78044  33.416  32.287   4.542
11504W        W78045  11.957  34.657   3.123
11505W        W78046  14.133  27.498  13.284
11506W        W78047  24.223  22.024   2.599
11507W        W78048  18.202  43.842   3.842
11508W        W78049   5.270  24.647  14.769
11509W        W78050   6.557   0.345   2.833
11510W        W78051  41.994  43.292   1.275
11511W        W78052   9.826  17.729  14.046
11512W        W78053  13.730   4.703  14.320
11513W        W78054   5.172  30.590   3.153
11514W        W78055   5.831  12.919   1.177
11515W        W78056  13.305  10.219  14.977
11516W        W78057  17.698  24.037  12.623
11517W        W78058  19.548   3.742   4.049
11518W        W78059  23.924   0.020   2.920
11519W        W78060  32.551  24.115  14.318
11520W        W78061  17.525  12.265   4.032
11521W        W78062  12.006  40.373   3.286
11522W        W78063  24.580   4.979  13.471
11523W        W78064  27.396  25.110  11.614
11524W        W78065   7.006  11.630  12.920
11525W        W78066  23.993  12.998  12.172
11526W        W78067   3.827  37.562   4.190
11527W        W78068   3.213   5.328   4.552
11528W        W78069  34.519  39.834  13.980
11529W        W78070  16.392  18.227   3.762
11530W        W78071  17.579   2.492   3.973
11531W        W78072   9.288  34.836  11.614
11532W        W78073   6.140  25.480  13.329
11533W        W78074   6.916   5.900   4.563
11534W        W78075  44.737   6.815  14.727
11535W        W78076  25.164  27.218  12.364
11536W        W78077  22.711   5.044   4.988
11537W        W78078  30.025  43.990   0.788
11538W        W78079  27.485  41.869  10.892
11539W        W78080  38.890   5.201   0.875
11540W        W78081   3.316  11.854  13.407
11541W        W78082   2.102   6.689  12.212
11542W        W78083   6.404  20.931  13.726
11543W        W78084   6.400  25.765   3.481
11544W        W78085  16.297   2.305   4.247
11545W        W78086   8.477  41.106   5.176
11546W        W78087  14.799  32.313  11.110
11547W        W78088  44.853  12.737  14.858
11548W        W78089  38.342  21.455  11.218
11549W        W78090  18.968  43.542   3.347
11550W        W78091   4.404  17.356  11.934
11551W        W78092  37.609   4.795   0.061
11552W        W78093  22.513  27.980   4.849
11553W        W78094  24.501   3.046  13.009
11554W        W78095   0.207  44.436  11.981
11555W        W78096  21.762  35.946   1.870
11556W        W78097  36.525  22.036   2.670
11557W        W78098  19.770  35.394   0.907
11558W        W78099  22.430  31.701   4.973
11559W        W78100  19.484  35.972   0.847
11560W        W78101  18.839  33.022   3.650
11561W        W78102   2.811  34.132   2.776
11562W        W78103  33.931  33.301  14.869
11563W        W78104  12.128  40.826   3.569
11564W        W78105  25.055  44.029   0.416
11565W        W78106   1.929   5.468  12.899
11566W        W78107  27.378   6.712   3.118
11567W        W78108   1.746  35.118  13.832
11568W        W78109  15.067   5.372  14.789
11569W        W78110  16.255  23.177  14.569
11570W        W78111  10.757   4.866   2.237
11571W        W78112  33.789  27.127  13.923
11572W        W78113  41.774  35.048  14.290
11573W        W78114  41.580   1.220  14.356
11574W        W78115  27.562   5.420   3.346
11575W        W78116  15.094   7.763   1.879
11576W        W78117  35.478   9.802  14.716
11577W        W78118  40.682  44.760   0.834
11578W        W78119  40.119  10.226  13.404
11579W        W78120   7.821  43.219  11.928
11580W        W78121  15.276  13.677  13.938
11581W        W78122   9.723  15.030  10.895
11582W        W78123  28.656  35.527   4.358
11583W        W78124  32.748  39.783  14.561
11584W        W78125   4.984  16.432   4.025
11585W        W78126  19.100  23.713  11.637
11586W        W78127  33.337  31.560   1.827
11587W        W78128  25.045  20.287  11.335
11588W        W78129  30.698  12.194   0.069
11589W        W78130  20.703  25.753  12.074
11590W        W78131  26.009  34.650   0.448
11591W        W78132  29.978  41.352  14.139
11592W        W78133  39.686  15.340   1.352
11593W        W78134   1.868  24.578  11.874
11594W        W78135  38.800   8.665  11.485
11595W        W78136  20.267  10.257   2.616
11596W        W78137  20.534  31.524  11.230
11597W        W78138  35.665  11.372  10.404
11598W        W78139   7.178   9.756  14.566
11599W        W78140  42.149  12.788   5.029
11600W        W78141   0.795  10.319  14.159
11601W        W78142  25.321  44.823  11.554
11602W        W78143   5.434  21.732   1.033
11603W        W78144   1.951  25.998  10.149
11604W        W78145   3.531   8.020  12.502
11605W        W78146  26.624  26.979  11.662
11606W        W78147  37.137  25.672  11.601
11607W        W78148   8.693  26.273  14.256
11608W        W78149  33.128   4.932  14.021
11609W        W78150  39.007  36.855   4.030
11610W        W78151  38.373  10.984  13.351
11611W        W78152  42.201  43.386  10.764
11612W        W78153  31.160  34.480   4.272
11613W        W78154  44.358  10.763   3.103
11614W        W78155  32.521   8.473   1.189
11615W        W78156  12.453   4.935  12.094
11616W        W78157  15.251  44.934  12.985
11617W        W78158   4.731  37.047   1.661
11618W        W78159  36.066  10.648   3.669
11619W        W78160  33.957  21.605   4.832
11620W        W78161  32.534  27.466  12.547
11621W        W78162  24.349  15.176  11.564
11622W        W78163  14.050  43.058   0.906
11623W        W78164  11.132  13.376   0.926
11624W        W78165  28.171  29.789  13.424
11625W        W78166  35.889  15.887   3.138
11626W        W78167   5.326  33.690   0.590
11627W        W78168  10.456   9.671   3.634
11628W        W78169   3.200  31.046   2.458
11629W        W78170   2.752  38.072   2.646
11630W        W78171  22.469   6.522  12.398
11631W        W78172  22.711   1.229  12.455
11632W        W78173   8.802  25.158   2.376
11633W        W78174  20.752   7.886  14.195
11634W        W78175  14.204  33.643   1.213
11635W        W78176  44.275  44.796   1.788
11636W        W78177  41.028  41.708   3.904
11637W        W78178  24.274  41.832  14.028
11638W        W78179  34.380  29.117  11.129
11639W        W78180  20.497  27.942  11.584
11640W        W78181  29.113  38.093   0.131
11641W        W78182  17.792  23.381  10.536
11642W        W78183  11.217   0.020   3.597
11643W        W78184  38.166  15.752   2.617
11644W        W78185  29.454  12.811   1.872
11645W        W78186   1.969  15.132   4.000
11646W        W78187  15.227  43.045  14.795
11647W        W78188   3.979  31.325   0.838
11648W        W78189  27.419  34.920  14.311
11649W        W78190  25.738  43.886   2.207
11650W        W78191   9.577  13.815  12.210
11651W        W78192  12.176  37.525   3.173
11652W        W78193   2.210  29.601   4.126
11653W        W78194  31.430  17.224   5.039
11654W        W78195   2.849  11.471  10.732
11655W        W78196  19.645  39.260  11.656
11656W        W78197  29.522   4.213   0.254
11657W        W78198   4.053  31.186   4.692
11658W        W78199  17.320   6.807   0.057
11659W        W78200  16.696  36.359   0.948
11660W        W78201  42.632   8.129   0.018
11661W        W78202   1.461  31.067   3.917
11662W        W78203  22.464  43.888   1.470
11663W        W78204   3.501  35.009   5.011
11664W        W78205   0.828  38.671   0.315
11665W        W78206  15.674  24.539   3.614
11666W        W78207  29.539  36.154  14.950
11667W        W78208  40.241   0.888  11.681
11668W        W78209   6.701  18.609   3.096
11669W        W78210  31.797   8.686   1.054
11670W        W78211  30.925  30.933  13.360
11671W        W78212  40.541  13.496   4.537
11672W        W78213  38.094   5.956   3.183
11673W        W78214  10.875  40.635   0.412
11674W        W78215   5.779  21.817  12.963
11675W        W78216  42.400  11.624  13.855
11676W        W78217  42.494  31.379  13.582
11677W        W78218  38.184   2.423  11.866
11678W        W78219   6.773  43.024  13.497
11679W        W78220  32.135  36.311   4.648
11680W        W78221   6.806  41.028   1.341
11681W        W78222  14.253  19.505  14.288
11682W        W78223  10.561   0.447   0.755
11683W        W78224   1.388  29.278   2.782
11684W        W78225  21.107  20.048   2.773
11685W        W78226  37.099   3.937   4.509
11686W        W78227  38.955  10.871  12.532
11687W        W78228   1.043  35.622  14.731
11688W        W78229  30.144  35.751   4.718
11689W        W78230  28.157  17.356  14.090
11690W        W78231   3.241  14.718   1.879
11691W        W78232  18.659  30.574  11.693
11692W        W78233  28.018  18.822  11.356
11693W        W78234  36.278  35.366  11.359
11694W        W78235  28.505  37.358   2.737
11695W        W78236   9.009  31.990   0.171
11696W        W78237  35.207  14.019   2.725
11697W        W78238  25.591   8.151   1.154
11698W        W78239  16.112  37.527  11.880
11699W        W78240  37.325  27.303   3.364
11700W        W78241   5.581  22.038  13.554
11701W        W78242  28.063  12.095  11.614
11702W        W78243  11.326   7.638   2.348
11703W        W78244  23.931  15.658  13.890
11704W        W78245  27.724  19.548   2.904
11705W        W78246  24.940  35.420   4.092
11706W        W78247  43.895  30.067   3.472
11707W        W78248   4.190  12.057  11.430
11708W        W78249  32.675   5.269  12.160
11709W        W78250  29.974  22.632   0.812
11710W        W78251  22.750   7.757   5.372
11711W        W78252  33.884   2.734   0.962
11712W        W78253  14.663  32.824  14.903
11713W        W78254  23.974  19.074   1.682
11714W        W78255  24.001  12.679   4.049
11715W        W78256   5.279  41.124   2.885
11716W        W78257  26.669  38.888  13.405
11717W        W78258   3.273  12.841   1.858
11718W        W78259  36.350  14.645  11.930
11719W        W78260  41.522   8.209  13.561
11720W        W78261  13.258  30.318   0.340
11721W        W78262  22.706  29.234   1.377
11722W        W78263   2.384  30.701  11.684
11723W        W78264   1.773  16.377  12.482
11724W        W78265  25.945  17.968   5.046
11725W        W78266   3.192  30.983   1.246
11726W        W78267  20.578  33.591   3.190
11727W        W78268  26.323   9.327   1.292
11728W        W78269  11.081  30.829   2.838
11729W        W78270  25.193  34.123  13.000
11730W        W78271   6.878  21.135   3.190
11731W        W78272   6.843  34.477  10.685
11732W        W78273  44.775  22.239   2.957
11733W        W78274  29.627  13.733   2.995
11734W        W78275  24.509  26.531  12.535
11735W        W78276  30.807  25.065  11.639
11736W        W78277  26.842   6.594  11.971
11737W        W78278   8.957   5.700  11.667
11738W        W78279  28.302   1.120   1.707
11739W        W78280  43.270  38.053   3.354
11740W        W78281  27.715  21.537   4.481
11741W        W78282  42.089  32.062   4.386
11742W        W78283  31.552  41.803  12.438
11743W        W78284  14.397  20.111   4.933
11744W        W78285   0.864  14.758  14.952
11745W        W78286  17.785  10.074   1.747
11746W        W78287   1.980  11.614   2.685
11747W        W78288   4.368  24.021   5.467
11748W        W78289  33.872  12.849  11.110
11749W        W78290  30.629  28.497  13.333
11750W        W78291  14.022   4.870   1.317
11751W        W78292   2.635  36.328   0.358
11752W        W78293  21.111  31.686   4.982
11753W        W78294  15.692  25.460  13.807
11754W        W78295   3.308  16.076   1.208
11755W        W78296   5.200   6.028   2.645
11756W        W78297  24.497  26.745  12.053
11757W        W78298   1.110  39.208  14.571
11758W        W78299  34.550  35.602  13.557
11759W        W78300  22.716   9.323   3.759
11760W        W78301  24.641  31.399  12.161
11761W        W78302  26.258  42.200   4.976
11762W        W78303  32.189  39.381  13.278
11763W        W78304  27.612  35.153   4.345
11764W        W78305  24.975   7.757   0.321
11765W        W78306  42.351  30.869  13.232
11766W        W78307  42.802   9.657   1.806
11767W        W78308  28.432   3.852   0.048
11768W        W78309   0.443  41.694   1.373
11769W        W78310  13.204   0.991  13.038
11770W        W78311   4.935  35.433   0.951
11771W        W78312  13.861   5.899   2.281
11772W        W78313   2.717  17.279  12.776
11773W        W78314  11.748  40.118   0.230
11774W        W78315  16.382  39.896   0.792
11775W        W78316   6.099  14.157  13.747
11776W        W78317  36.621  27.675   1.830
11777W        W78318   1.866  27.428  14.419
11778W        W78319  10.864  43.251   4.802
11779W        W78320  14.838   3.945   0.922
11780W        W78321  17.255   9.902  11.598
11781W        W78322  22.179  28.381   0.016
11782W        W78323  10.846  21.691   4.795
11783W        W78324   8.940  11.548   1.862
11784W        W78325  26.808   9.337   2.212
11785W        W78326  21.925   0.541  13.341
11786W        W78327  44.503  32.500   0.506
11787W        W78328   5.270  24.346   3.050
11788W        W78329  30.706  26.955   3.519
11789W        W78330   3.389  23.289   4.164
11790W        W78331  21.981  15.769  14.028
11791W        W78332   8.699  22.763  10.731
11792W        W78333   9.744   6.797  14.139
11793W        W78334  22.075  36.849  13.531
11794W        W78335  15.140  20.578   1.733
11795W        W78336  26.430  43.510  14.041
11796W        W78337   2.409  15.909   5.089
11797W        W78338  20.302  30.998   3.627
11798W        W78339   6.176  23.360   2.290
11799W        W78340   4.955  38.366   2.390
11800W        W78341  11.874   3.966   1.393
11801W        W78342  31.088  29.663   0.326
11802W        W78343  12.773  27.966   2.658
11803W        W78344  19.034  21.556   2.226
11804W        W78345   2.272  18.703   0.132
11805W        W78346  41.061  17.358  13.474
11806W        W78347  20.931   9.668  12.999
11807W        W78348  32.025  42.326   0.931
11808W        W78349  19.812  39.344  13.589
11809W        W78350  30.900  28.011  13.021
11810W        W78351  34.965  33.599   3.011
11811W        W78352  17.496   0.977   4.162
11812W        W78353  31.567   6.873   0.751
11813W        W78354   4.326   2.826   2.257
11814W        W78355  35.540  32.339   2.832
11815W        W78356  22.221  38.011  12.879
11816W        W78357  25.689   2.496   0.186
11817W        W78358  29.029  40.525  12.147
11818W        W78359  34.407  28.130   4.728
11819W        W78360  43.979  41.398   0.009
11820W        W78361   9.849  16.385  14.558
11821W        W78362  23.222  27.893   3.134
11822W        W78363  39.818  25.306  14.587
11823W        W78364  16.947  18.844  11.169
11824W        W78365   9.524  32.580   1.723
11825W        W78366  23.037  19.523  13.835
11826W        W78367  33.553   0.384  10.000
11827W        W78368  33.558  30.452   4.159
11828W        W78369  38.436  15.517  10.372
11829W        W78370  24.965   7.733  11.516
11830W        W78371  35.074  24.508   4.036
11831W        W78372  29.193  42.248   1.657
11832W        W78373  35.927   9.624  14.349
11833W        W78374  34.853   2.007   3.204
11834W        W78375  32.494  43.031   4.162
11835W        W78376  11.292  15.864   3.957
11836W        W78377  37.422   4.978   3.352
11837W        W78378  38.825  25.034   0.461
11838W        W78379  12.751   0.186  12.643
11839W        W78380  30.108  20.179  14.075
11840W        W78381  20.486  28.233   2.827
11841W        W78382   1.925  42.984  13.545
11842W        W78383   9.716   7.018   0.975
11843W        W78384  41.917  25.256  12.909
11844W        W78385   3.907  12.358   1.703
11845W        W78386  13.169   4.559  14.809
11846W        W78387  38.903  15.889  12.258
11847W        W78388  34.851  36.132   4.767
11848W        W78389  25.118  28.004   3.891
11849W        W78390   1.423  33.627  12.361
11850W        W78391  27.908  19.199  13.561
11851W        W78392   8.578  20.299   4.780
11852W        W78393  13.488  21.594  11.985
11853W        W78394  42.990  14.173  12.532
11854W        W78395  11.804   5.299   0.715
11855W        W78396   2.314  33.572  10.706
11856W        W78397  17.276  11.415  11.086
11857W        W78398  30.321   7.667  10.706
11858W        W78399  13.752  40.904  12.042
11859W        W78400   0.351  32.160  14.777
11860W        W78401  17.794  18.059   1.810
11861W        W78402  22.093   9.305   5.168
11862W        W78403  41.777  20.793  13.497
11863W        W78404  31.869  38.529   4.246
11864W        W78405  40.245  26.232  11.049
11865W        W78406   4.743  32.378   4.152
11866W        W78407   0.094  27.116   4.102
11867W        W78408  28.202   8.301  10.950
11868W        W78409   2.768  41.331   1.971
11869W        W78410  39.524  42.026  10.703
11870W        W78411  27.721  35.978   3.497
11871W        W78412   5.979  11.120   3.186
11872W        W78413  44.098  19.929   1.866
11873W        W78414  24.128  22.952   1.107
11874W        W78415  26.297  42.942   4.576
11875W        W78416  18.145  38.017   4.692
11876W        W78417  16.223  23.620  12.116
11877W        W78418   6.355  29.926   3.652
11878W        W78419  32.110  13.869  13.435
11879W        W78420  19.583  35.682   1.292
11880W        W78421  38.008  18.046   4.627
11881W        W78422   2.072  25.507   2.719
11882W        W78423  39.722   9.086   3.666
11883W        W78424   0.171  40.952  13.824
11884W        W78425  37.169  16.932  13.303
11885W        W78426  19.775  20.461   1.965
11886W        W78427  20.913   3.455   4.578
11887W        W78428  30.460  41.951  12.245
11888W        W78429  19.004   6.871   5.819
11889W        W78430  19.574  28.133   0.332
11890W        W78431  19.078  33.422  11.203
11891W        W78432  41.495  21.285   2.545
11892W        W78433  29.520  23.160   1.443
11893W        W78434  34.635  25.563   3.375
11894W        W78435  28.188  10.561   5.113
11895W        W78436  29.171  40.458   4.163
11896W        W78437  39.132   6.286  14.383
11897W        W78438  39.126  41.392   4.419
11898W        W78439  23.935   0.029  12.920
11899W        W78440  25.465  19.739   5.004
11900W        W78441  36.092  26.552   4.216
11901W        W78442  37.513   9.709  12.958
11902W        W78443  40.406   5.965  13.012
11903W        W78444  20.638  32.115  14.261
11904W        W78445  21.035  41.224   3.883
11905W        W78446   0.095  32.537  12.053
11906W        W78447  28.994   3.355   0.814
11907W        W78448  44.994  36.088   4.922
11908W        W78449  10.238   1.139   3.258
11909W        W78450  19.491  40.473   0.005
11910W        W78451  43.423  26.559   1.655
11911W        W78452   7.391  44.436  14.736
11912W        W78453  25.778  30.996  13.653
11913W        W78454  24.381  34.866   0.903
11914W        W78455  25.934  19.774   0.880
11915W        W78456   4.091  34.998   0.077
11916W        W78457  20.737  36.401   3.816
11917W        W78458  32.580  37.681   3.237
11918W        W78459  17.310  23.102  13.275
11919W        W78460  13.130  13.665  12.579
11920W        W78461   0.189  19.322  14.126
11921W        W78462  31.610  39.125  10.697
11922W        W78463  24.240  23.591  14.815
11923W        W78464  30.659  36.149  11.687
11924W        W78465  17.885   9.204   2.629
11925W        W78466   6.708  20.223   3.104
11926W        W78467  32.227  34.471  10.611
11927W        W78468  38.791   4.970   4.533
11928W        W78469   8.584  22.612  11.613
11929W        W78470  28.698  21.521  12.758
11930W        W78471   7.849  23.237  10.664
11931W        W78472  43.328  23.042   4.774
11932W        W78473  18.174  38.055   3.284
11933W        W78474  16.055  13.690   4.326
11934W        W78475  17.044   6.359  14.982
11935W        W78476  18.270  15.992   4.937
11936W        W78477  44.471  12.550   2.304
11937W        W78478   6.836   4.847  10.764
11938W        W78479   5.164  31.020  12.950
11939W        W78480   3.949  35.817  12.563
11940W        W78481  11.524   9.710   1.446
11941W        W78482  44.842  43.173   4.491
11942W        W78483  25.543  37.278   0.444
11943W        W78484  29.616  44.940  12.226
11944W        W78485  14.091  26.128   1.294
11945W        W78486  25.476  19.854   3.112
11946W        W78487  38.030  39.960  13.386
11947W        W78488  42.694  29.687   0.405
11948W        W78489  23.566  29.600  13.319
11949W        W78490  40.907   3.762   1.368
11950W        W78491  27.850  30.591   4.999
11951W        W78492   7.302  17.203   2.229
11952W        W78493   6.801  43.486  13.787
11953W        W78494  37.946  44.939  14.060
11954W        W78495  40.738  25.987   3.247
11955W        W78496  42.878  38.471  11.676
11956W        W78497  14.735   8.166  10.764
11957W        W78498   8.063  36.787  11.116
11958W        W78499  40.523   5.324   0.029
11959W        W78500   3.843  36.340  12.507
11960W        W78501  25.990  23.681  10.695
11961W        W78502  32.102  28.148  12.405
11962W        W78503  41.990  43.478   2.638
11963W        W78504  34.806   4.462   4.934
11964W        W78505  31.422  34.443   1.846
11965W        W78506  30.129  30.631  11.773
11966W        W78507   6.357  43.593  14.074
11967W        W78508  44.830  26.888   2.094
11968W        W78509  11.563   4.955   3.750
11969W        W78510  35.416  14.276   0.130
11970W        W78511   2.233   1.709   1.417
11971W        W78512  12.685  37.725   3.202
11972W        W78513  41.482  23.469  12.085
11973W        W78514  20.321  11.229  10.275
11974W        W78515   4.660  16.547   3.495
11975W        W78516  14.142   1.209  14.409
11976W        W78517  24.724  30.003  10.655
11977W        W78518  34.909   5.322  12.382
11978W        W78519   0.987  30.887   3.150
11979W        W78520  17.675  19.835  11.556
11980W        W78521  39.244  40.937  13.385
11981W        W78522  31.069  17.309   0.560
11982W        W78523   6.189  23.973  10.360
11983W        W78524  31.112   9.276   2.566
11984W        W78525   3.798  22.476  14.943
11985W        W78526  40.331   5.177   4.166
11986W        W78527   0.199  22.600  13.494
11987W        W78528  10.701  34.857  11.143
11988W        W78529   0.942  24.017   4.711
11989W        W78530  40.950  12.826  13.592
11990W        W78531  37.126   7.525   3.145
11991W        W78532  33.886  10.835  14.429
11992W        W78533  14.602   2.436   1.465
11993W        W78534  32.995  41.795  11.802
11994W        W78535   1.309  40.929   0.888
11995W        W78536  17.785  37.317  14.951
11996W        W78537   4.994   1.496   1.504
11997W        W78538  10.395  31.530  14.693
11998W        W78539  34.014   7.861  11.866
11999W        W78540  38.397  37.920  11.371
12000W        W78541   6.881  10.503  11.707
12001W        W78542  35.509  18.520  10.742
12002W        W78543  31.372  26.644  13.787
12003W        W78544   8.623  20.458   2.182
12004W        W78545  33.156  27.915   2.000
12005W        W78546  21.665  16.749  10.608
12006W        W78547  16.304  31.235  13.071
12007W        W78548  11.706  27.741  13.946
12008W        W78549  41.922  34.816  12.397
12009W        W78550  39.334  29.168   4.696
12010W        W78551   6.398  43.965   2.547
12011W        W78552   0.784  40.986  11.129
12012W        W78553  20.413   7.401  12.011
12013W        W78554  27.386  44.828   1.394
12014W        W78555  34.348  10.994  12.885
12015W        W78556  24.033  37.969  10.762
12016W        W78557  30.890  16.877   5.009
12017W        W78558  17.197  32.470   4.849
12018W        W78559  37.267  24.049  13.054
12019W        W78560   3.383  11.833  10.837
12020W        W78561  31.746  35.424  10.639
12021W        W78562  23.789  13.833  14.327
12022W        W78563  27.578  24.440   1.911
12023W        W78564  23.642  32.096  13.318
12024W        W78565   5.036   7.902  12.581
12025W        W78566  31.176  43.511  14.853
12026W        W78567   3.401  31.358   2.083
12027W        W78568   5.194  41.135   0.319
12028W        W78569  13.094   7.554   9.981
12029W        W78570   9.249   9.476  12.864
12030W        W78571  34.280  27.099  11.026
12031W        W78572   4.228  11.551  13.561
12032W        W78573  12.784   2.603  14.485
12033W        W78574  44.433   4.352   3.831
12034W        W78575  20.907  20.824   3.396
12035W        W78576  22.416  43.710   3.574
12036W        W78577  18.473  32.559   0.855
12037W        W78578  37.866  21.014   2.695
12038W        W78579  19.358  32.973  11.167
12039W        W78580  38.375  33.546   1.799
12040W        W78581  34.071   4.758  13.891
12041W        W78582   7.644  22.287   0.894
12042W        W78583   3.809  39.592   3.138
12043W        W78584  14.577   0.227   3.688
12044W        W78585  12.086   6.545  10.956
12045W        W78586  31.945  37.168   4.368
12046W        W78587  24.543  13.614  13.839
12047W        W78588   0.727  38.557   1.848
12048W        W78589  20.137  40.756  11.142
12049W        W78590  41.009  17.615   5.033
12050W        W78591  11.887  14.226   1.342
12051W        W78592  30.219   9.827   3.248
12052W        W78593  33.039  34.964   2.783
12053W        W78594  21.125  17.113  12.234
12054W        W78595   7.094  40.915   2.493
12055W        W78596  13.848  38.962  12.070
12056W        W78597  23.239   1.439   4.236
12057W        W78598  18.222  32.452   2.671
12058W        W78599  44.194   1.312  10.924
12059W        W78600  10.613  23.643  10.961
12060W        W78601  17.723   4.777   2.751
12061W        W78602  22.558  24.572   2.364
12062W        W78603  20.760  20.294  13.070
12063W        W78604   8.142  38.100   3.132
12064W        W78605   3.102  38.564  13.290
12065W        W78606  10.334  44.848  12.849
12066W        W78607  41.512  40.970   3.362
12067W        W78608   5.609  40.302   1.984
12068W        W78609  41.344  20.704  12.152
12069W        W78610  12.203   5.331   1.676
12070W        W78611   4.188  44.825  11.021
12071W        W78612  16.779  34.008   2.170
12072W        W78613  15.250  17.198  13.942
12073W        W78614  16.270  28.263   2.947
12074W        W78615  20.092  31.104  13.802
12075W        W78616  28.651   5.333  12.427
12076W        W78617   9.775   6.682   2.976
12077W        W78618  29.849  41.109   0.397
12078W        W78619  42.026  14.311  12.999
12079W        W78620  39.285  26.203  11.184
12080W        W78621  24.913  16.819  12.001
12081W        W78622  29.035  25.609  12.224
12082W        W78623  40.447  17.632   1.110
12083W        W78624  42.524   4.468   2.711
12084W        W78625   4.803  27.068   4.768
12085W        W78626  14.047  24.403  13.820
12086W        W78627  10.789   5.167  14.324
12087W        W78628  24.624  15.682  11.446
12088W        W78629  21.632  36.467  13.562
12089W        W78630  15.736  15.154  13.567
12090W        W78631  37.506  11.337  10.507
12091W        W78632  16.325  27.860   2.251
12092W        W78633  13.482  44.483  14.394
12093W        W78634  42.161  24.137   1.593
12094W        W78635  40.845  11.619   0.270
12095W        W78636  23.006  29.081  12.906
12096W        W78637   6.251  43.049   4.597
12097W        W78638  37.816   9.215  14.347
12098W        W78639  11.801   0.848   3.154
12099W        W78640   5.423  23.938  11.504
12100W        W78641   9.001  35.531  12.507
12101W        W78642  19.215  27.049  11.169
12102W        W78643  10.619  40.005   4.081
12103W        W78644  15.076  24.915  14.831
12104W        W78645  36.335  24.184   1.298
12105W        W78646  10.253  20.205   5.057
12106W        W78647  38.936  30.651  13.523
12107W        W78648  18.478  37.857   0.813
12108W        W78649  17.697  33.417   0.677
12109W        W78650   8.812   7.129  13.973
12110W        W78651  30.349  38.098  13.131
12111W        W78652  35.810  28.860   2.182
12112W        W78653  24.216  44.460  13.669
12113W        W78654  32.887  43.786  12.579
12114W        W78655   4.196  21.068  14.794
12115W        W78656   1.263  27.210  13.041
12116W        W78657   1.862  21.638  12.473
12117W        W78658  33.393  15.834   4.897
12118W        W78659  42.285   8.742  12.208
12119W        W78660  21.202  23.682  12.034
12120W        W78661  35.352  29.908   4.160
12121W        W78662  17.594  18.622   0.991
12122W        W78663  28.108   2.945   1.857
12123W        W78664   8.276  26.382   3.999
12124W        W78665   0.734  10.669  10.395
12125W        W78666  25.027   1.918  14.919
12126W        W78667  41.037   6.685  12.821
12127W        W78668   3.650  30.839   4.617
12128W        W78669  20.684  35.401  14.135
12129W        W78670   4.287  37.395  12.948
12130W        W78671  10.141   8.843   4.709
12131W        W78672  23.164  21.925   1.211
12132W        W78673  12.396   4.263   3.783
12133W        W78674  15.921  34.635  14.735
12134W        W78675  30.708  42.769   1.639
12135W        W78676   4.464  19.824  12.038
12136W        W78677  36.326   4.349  12.563
12137W        W78678  14.034   2.359  10.718
12138W        W78679   9.276   9.619  10.554
12139W        W78680  25.646   5.175  13.289
12140W        W78681   6.224  29.035  11.237
12141W        W78682  27.084  15.807   2.812
12142W        W78683  27.097  11.696   1.832
12143W        W78684  29.879  33.914   0.016
12144W        W78685  22.980   4.745  12.907
12145W        W78686   8.406  16.019  14.045
12146W        W78687  13.399   9.591  12.431
12147W        W78688  20.148  10.084   3.752
12148W        W78689  14.600  26.058  13.237
12149W        W78690  14.178  30.993  14.026
12150W        W78691   7.158  11.656   2.377
12151W        W78692  37.354  12.967  13.079
12152W        W78693   0.302   0.286  12.586
12153W        W78694  27.669  36.964   3.368
12154W        W78695  29.504  36.361  14.065
12155W        W78696  44.776  20.863   3.673
12156W        W78697   2.547  29.938   1.835
12157W        W78698  35.382  20.023   0.960
12158W        W78699  10.076  40.858  14.887
12159W        W78700   8.333   6.870  13.966
12160W        W78701  25.677  41.594   4.352
12161W        W78702  43.467  31.043   4.546
12162W        W78703   2.996  16.175  13.963
12163W        W78704   9.195  21.962  14.974
12164W        W78705  34.715  12.332  12.894
12165W        W78706  16.542  34.361  12.864
12166W        W78707   2.767   1.094  11.127
12167W        W78708   8.383  37.652   5.363
12168W        W78709  25.420   3.392  11.994
12169W        W78710  16.333  28.381   2.433
12170W        W78711  19.048  12.920  12.964
12171W        W78712   8.301  14.500   0.356
12172W        W78713  18.732  19.773   1.300
12173W        W78714  18.800   5.787  10.453
12174W        W78715  34.350  21.167  14.264
12175W        W78716  29.915  41.835   2.762
12176W        W78717  13.378   3.638  12.961
12177W        W78718  41.942  18.030  12.943
12178W        W78719  43.317  10.652  14.289
12179W        W78720  24.433  26.957   1.869
12180W        W78721   6.783  37.243  11.133
12181W        W78722  38.212  43.900  12.546
12182W        W78723  28.055  22.561   4.714
12183W        W78724  28.027  18.815  13.885
12184W        W78725  34.193  18.595  13.877
12185W        W78726  41.608  40.068   0.297
12186W        W78727   4.894  42.328   3.741
12187W        W78728  33.569   1.040  14.339
12188W        W78729  42.556   0.269  10.867
12189W        W78730  22.081  23.082  10.661
12190W        W78731  42.938   0.104  12.923
12191W        W78732  43.062  19.407   1.081
12192W        W78733  41.326  35.372  13.839
12193W        W78734  36.533  23.048  12.392
12194W        W78735  17.724  35.884  13.800
12195W        W78736  29.923  29.915   4.989
12196W        W78737   2.407  11.707  12.988
12197W        W78738  14.996  21.208   3.341
12198W        W78739  24.695  22.781   4.104
12199W        W78740  41.845  41.571  10.266
12200W        W78741   4.967  18.092   1.812
12201W        W78742  12.784  41.337   3.087
12202W        W78743  40.280  38.367  12.419
12203W        W78744  10.834  28.302   4.201
12204W        W78745  26.161   4.421  11.658
12205W        W78746  13.663  35.747  11.542
12206W        W78747  12.753  36.896   3.952
12207W        W78748   9.795   8.305   4.122
12208W        W78749  25.370   9.434  13.386
12209W        W78750  31.109  40.861   4.598
12210W        W78751  15.983   7.220   2.813
12211W        W78752  15.378  35.027   1.065
12212W        W78753  10.676  44.394  12.179
12213W        W78754   8.834  37.951  11.136
12214W        W78755   2.547   5.334   2.793
12215W        W78756  38.050  42.713   1.755
12216W        W78757  41.538  30.511   1.896
12217W        W78758  13.651  42.570   1.634
12218W        W78759  10.633   9.247   0.470
12219W        W78760   2.742   3.920   4.530
12220W        W78761   6.701   9.884  14.369
12221W        W78762   9.640  23.752   1.887
12222W        W78763   3.627  26.427  14.932
12223W        W78764  36.637  39.290   4.880
12224W        W78765  33.997   6.839   3.806
12225W        W78766   8.365  20.627  12.193
12226W        W78767  22.195  12.602   4.930
12227W        W78768  26.232   3.765  11.201
12228W        W78769   9.283  31.622   3.740
12229W        W78770  34.443   7.412  10.650
12230W        W78771  29.190  33.128  14.436
12231W        W78772   0.919  11.912  10.349
12232W        W78773  40.987   2.414  11.605
12233W        W78774   3.248  36.684   3.407
12234W        W78775   9.939  30.943  13.199
12235W        W78776  44.306   0.260  13.894
12236W        W78777  44.194  27.044   2.685
12237W        W78778  19.924  31.091   4.539
12238W        W78779  20.025  17.425   3.643
12239W        W78780   4.175  27.584  13.554
12240W        W78781  37.377  15.270  13.102
12241W        W78782   6.113  23.703  14.458
12242W        W78783  42.982  44.665   3.206
12243W        W78784  20.498  24.077   3.681
12244W        W78785  43.239  22.055   2.703
12245W        W78786  14.073  27.588   2.722
12246W        W78787  32.657  40.315   2.415
12247W        W78788   0.274  22.649   4.807
12248W        W78789  13.747   6.920   0.298
12249W        W78790  25.432  33.053   2.413
12250W        W78791  44.191  30.653  13.734
12251W        W78792  25.136  16.993  11.474
12252W        W78793  40.545  28.621   2.218
12253W        W78794   3.232  37.490   0.917
12254W        W78795  25.714  23.192  12.303
12255W        W78796  26.464  36.183  13.999
12256W        W78797   6.106  44.418  14.585
12257W        W78798  36.475   5.837   3.258
12258W        W78799  36.950   9.979  12.875
12259W        W78800  31.695  27.686   0.736
12260W        W78801  17.263   3.598   3.111
12261W        W78802  23.950  34.611   1.774
12262W        W78803   2.088  25.600   5.352
12263W        W78804  23.539  44.348   4.508
12264W        W78805  14.771  38.515   4.143
12265W        W78806  41.585  18.252   4.633
12266W        W78807  43.288  38.016   0.364
12267W        W78808  38.811  40.322  11.255
12268W        W78809   4.782  25.148   2.645
12269W        W78810  33.976   5.431   0.031
12270W        W78811   4.721  44.382  10.669
12271W        W78812  29.586  30.202   2.105
12272W        W78813  35.036  13.602   1.156
12273W        W78814  15.853  31.650  11.168
12274W        W78815  19.452  23.886   1.808
12275W        W78816   4.784  32.486   1.171
12276W        W78817  40.140  26.604   0.893
12277W        W78818  11.586   0.526   0.853
12278W        W78819  18.700   4.767  13.290
12279W        W78820  39.211  34.020   0.955
12280W        W78821   3.299   7.582  12.334
12281W        W78822  20.247  17.519   0.227
12282W        W78823  22.213   5.280  12.158
12283W        W78824  21.670  42.337   0.498
12284W        W78825  38.496  38.836  13.760
12285W        W78826  32.005  41.949   1.946
12286W        W78827  10.200   1.963  13.486
12287W        W78828  44.927  14.849  12.953
12288W        W78829  24.514  37.084   1.686
12289W        W78830  17.068  32.599   4.349
12290W        W78831  31.137  10.969  14.012
12291W        W78832  14.112  36.855   3.048
12292W        W78833  14.064  17.677  12.674
12293W        W78834  11.743  21.768  13.409
12294W        W78835  43.500  31.158   3.633
12295W        W78836  35.012   2.839  14.430
12296W        W78837  42.438  36.947   0.428
12297W        W78838  21.950  41.802  12.411
12298W        W78839  34.685  35.844  12.479
12299W        W78840  12.849  19.007   4.780
12300W        W78841  21.109  21.619  13.787
12301W        W78842  26.362  43.717   3.420
12302W        W78843  18.040  17.724  13.279
12303W        W78844  12.872  27.659  14.968
12304W        W78845  36.928   9.950   4.439
12305W        W78846  42.487  38.531   3.251
12306W        W78847  11.773   3.326   1.190
12307W        W78848  22.285   4.220   3.651
12308W        W78849   0.516  25.482  12.535
12309W        W78850   1.011  31.399   3.229
12310W        W78851  41.019  32.721  13.690
12311W        W78852  43.237  26.574  10.679
12312W        W78853  10.347  43.295   4.786
12313W        W78854  32.420  40.664   4.124
12314W        W78855  26.452   2.424   2.255
12315W        W78856  33.210   8.191   2.887
12316W        W78857   7.447  17.776   1.382
12317W        W78858  15.371  27.073  14.527
12318W        W78859  35.885  40.955  10.708
12319W        W78860  10.058  31.605   3.130
12320W        W78861  23.788  13.364   0.810
12321W        W78862  33.835   5.871  12.507
12322W        W78863  40.731  40.191   1.823
12323W        W78864   5.307  21.142  12.462
12324W        W78865  18.006  23.900  12.236
12325W        W78866  43.365  37.401   1.176
12326W        W78867   7.312  22.766   2.228
12327W        W78868  39.384  18.947  13.739
12328W        W78869  44.700  37.631  11.937
12329W        W78870  33.838   0.039  14.849
12330W        W78871  19.249  41.074   4.608
12331W        W78872  14.545   5.734   4.507
12332W        W78873  18.636   0.224  13.175
12333W        W78874  33.972  12.800  12.690
12334W        W78875  34.620  29.596  11.254
12335W        W78876   3.652  39.451   3.638
12336W        W78877   8.866  27.987  12.132
12337W        W78878  10.684  12.815  13.783
12338W        W78879  21.571  20.584  12.014
12339W        W78880  17.058  33.338  11.023
12340W        W78881  33.167  25.109   2.970
12341W        W78882  18.822  15.312   1.422
12342W        W78883  21.285  34.839   0.425
12343W        W78884  38.046   2.831  10.673
12344W        W78885  22.052  37.912  10.522
12345W        W78886  19.130  32.063   1.292
12346W        W78887   7.125  39.812   0.379
12347W        W78888  19.278  15.431   3.629
12348W        W78889  43.303  27.489   2.686
12349W        W78890  42.152  34.327  12.580
12350W        W78891  21.257  29.731   1.790
12351W        W78892   7.986  42.962   0.765
12352W        W78893  32.089  26.446   4.514
12353W        W78894  19.039  26.429   4.225
12354W        W78895  13.744  44.399   3.264
12355W        W78896  26.962  44.418   3.243
12356W        W78897  44.700  32.940  11.550
12357W        W78898  13.796  10.309  11.256
12358W        W78899  18.320  43.541  13.839
12359W        W78900  22.791  13.160  12.945
12360W        W78901  20.147  43.343  11.572
12361W        W78902  33.331  35.818   2.454
12362W        W78903  27.140  33.838  10.629
12363W        W78904  26.680  25.991   0.953
12364W        W78905  38.887  24.564   3.733
12365W        W78906  29.530  44.725   2.518
12366W        W78907  42.850  39.349  11.303
12367W        W78908  29.711  34.273  11.180
12368W        W78909  42.809  43.013   2.842
12369W        W78910  33.589  20.601  13.527
12370W        W78911   8.178  12.791  11.995
12371W        W78912   9.768  44.317   0.422
12372W        W78913  31.380  30.358  14.866
12373W        W78914  30.847  40.801   4.162
12374W        W78915  38.463  37.010  12.847
12375W        W78916  23.735  10.722  11.606
12376W        W78917   6.316  35.426  14.489
12377W        W78918  27.508  13.161  13.107
12378W        W78919   7.401  41.452   1.314
12379W        W78920   3.915  17.636   4.618
12380W        W78921  38.695  32.350   3.236
12381W        W78922  27.969  38.751  10.043
12382W        W78923   5.143  12.822   5.283
12383W        W78924  39.964   0.694   1.392
12384W        W78925  33.370  38.319  10.721
12385W        W78926   4.673  28.658   3.922
12386W        W78927   1.803  36.361  14.783
12387W        W78928  26.707  20.651  14.550
12388W        W78929  39.436  29.166  11.396
12389W        W78930  43.962  24.307   2.400
12390W        W78931  18.939  24.042   1.851
12391W        W78932  31.383  26.640  11.558
12392W        W78933  36.526  40.864  12.749
12393W        W78934   4.208  29.265  11.438
12394W        W78935  37.886  41.390  14.248
12395W        W78936  30.068  36.676   4.650
12396W        W78937  44.919  42.156  13.064
12397W        W78938  10.165  19.333   4.161
12398W        W78939  44.168   0.661   3.197
12399W        W78940  24.945  30.075  12.147
12400W        W78941   9.373  17.836   1.223
12401W        W78942   9.617  36.159  14.993
12402W        W78943   6.454  30.096  11.990
12403W        W78944  12.381   9.407   3.129
12404W        W78945  29.167   7.496  10.429
12405W        W78946   7.860  31.690  14.931
12406W        W78947   3.292  27.976  12.669
12407W        W78948  30.575  41.577   4.734
12408W        W78949  37.470   4.196   2.845
12409W        W78950  23.635  43.459  14.497
12410W        W78951  26.570  23.976  13.487
12411W        W78952  39.933  20.106   1.510
12412W        W78953  31.399  39.460   2.724
12413W        W78954  27.133  15.829  11.404
12414W        W78955  43.366  26.505  13.386
12415W        W78956  22.130  25.911   4.511
12416W        W78957  22.952  17.291  13.051
12417W        W78958  35.045   3.965   3.634
12418W        W78959   7.450   4.317  12.912
12419W        W78960   2.045  22.488   1.335
12420W        W78961  22.622   3.713   1.316
12421W        W78962  30.997  15.224   4.340
12422W        W78963  41.406  44.717   2.158
12423W        W78964  32.059   7.416  13.906
12424W        W78965  18.971  43.085  12.605
12425W        W78966  40.008  30.903  13.908
12426W        W78967   3.113  28.558  14.831
12427W        W78968  23.182  36.728  11.850
12428W        W78969   4.232  15.769   0.395
12429W        W78970  29.684  26.334  10.315
12430W        W78971  27.102  15.358   4.550
12431W        W78972   9.007   8.667  14.730
12432W        W78973   7.274  17.387  14.470
12433W        W78974  35.161  37.833   2.662
12434W        W78975   8.891  44.779  13.115
12435W        W78976  20.166  24.125  13.741
12436W        W78977  14.339   9.238   2.629
12437W        W78978  19.270  33.284   4.717
12438W        W78979   2.168   0.881   0.738
12439W        W78980  17.794  24.117  13.116
12440W        W78981  38.255  37.605   1.969
12441W        W78982   8.625  27.578   4.982
12442W        W78983  29.290  20.480  11.214
12443W        W78984  22.258   6.714   4.029
12444W        W78985  28.750  17.833  10.822
12445W        W78986   0.715   2.828   2.057
12446W        W78987  19.025  16.751  10.809
12447W        W78988  18.654  38.479   3.852
12448W        W78989  38.308  33.370  14.037
12449W        W78990  11.865  22.663   2.307
12450W        W78991  19.175  35.694  12.956
12451W        W78992   9.175  34.497   4.210
12452W        W78993  40.816   5.734   0.000
12453W        W78994  26.212  41.482  13.484
12454W        W78995  17.474  18.640   3.112
12455W        W78996  20.503   4.528  12.071
12456W        W78997  25.076  32.853  13.315
12457W        W78998  37.348  23.595   3.375
12458W        W78999  42.798  12.221  11.103
12459W        W79000  19.549  11.346  14.362
12460W        W79001   7.434  36.479  14.243
12461W        W79002  19.185  32.556   1.502
12462W        W79003   8.474  37.647   0.490
12463W        W79004  16.703   6.693   2.642
12464W        W79005  43.135  26.290  12.049
12465W        W79006  37.378  34.318   0.446
12466W        W79007  27.967  24.659  14.265
12467W        W79008  16.187  44.037  12.552
12468W        W79009  32.397  16.154   4.573
12469W        W79010  13.817  29.565   1.838
12470W        W79011  42.821  12.726   1.477
12471W        W79012  22.935  32.032  13.226
12472W        W79013   1.434  40.110   3.225
12473W        W79014   9.896  13.578  12.592
12474W        W79015  23.594  19.513   3.616
12475W        W79016  20.524  16.363   4.656
12476W        W79017  29.624  14.887   2.467
12477W        W79018  40.780  10.583   3.740
12478W        W79019  44.449  17.413  13.329
12479W        W79020  37.537   2.571   0.716
12480W        W79021  20.584   2.933  13.580
12481W        W79022   2.235  34.420  11.449
12482W        W79023  42.246  19.639   0.880
12483W        W79024  34.976  33.973  13.107
12484W        W79025   0.434   8.749   4.948
12485W        W79026  23.727  17.254  13.427
12486W        W79027  32.521  41.790   0.167
12487W        W79028  16.596  36.662  14.105
12488W        W79029   6.250  23.732  12.974
12489W        W79030  35.851  33.842   4.574
12490W        W79031  20.018   3.844  10.901
12491W        W79032  39.891  28.971  11.611
12492W        W79033  23.161  26.599   0.943
12493W        W79034  33.832  43.407   4.461
12494W        W79035  44.662   1.909   2.222
12495W        W79036  10.586  41.354   2.767
12496W        W79037   0.531  23.473  13.975
12497W        W79038  11.178  27.735  12.093
12498W        W79039  13.850   5.189   0.937
12499W        W79040  44.062  42.422  12.081
12500W        W79041   4.221  10.107   2.881
12501W        W79042  27.396   7.315   3.615
12502W        W79043  10.167  10.807  11.918
12503W        W79044  38.444  26.117   0.910
12504W        W79045  44.946  34.505  11.743
12505W        W79046  39.400  24.260  11.530
12506W        W79047  41.956  33.949   2.421
12507W        W79048  10.896  44.886   4.730
12508W        W79049  28.987  15.853   1.106
12509W        W79050  28.714  31.830  11.952
12510W        W79051  19.144  34.064   1.237
12511W        W79052  27.464  36.929  10.622
12512W        W79053  36.556  44.756   4.586
12513W        W79054  32.073  43.983  13.314
12514W        W79055   8.165  22.516   3.646
12515W        W79056  42.372  18.246   2.972
12516W        W79057  25.513  33.549  10.266
12517W        W79058  37.991  30.574  11.255
12518W        W79059  13.088  25.236  11.579
12519W        W79060   2.183   7.252   0.752
12520W        W79061  14.743  10.444   1.872
12521W        W79062  39.120  19.217   0.487
12522W        W79063  29.847   5.945  13.283
12523W        W79064  28.640  10.402  13.086
12524W        W79065  21.072  31.417  13.706
12525W        W79066  19.782  31.403   0.334
12526W        W79067  28.499  10.498  11.620
12527W        W79068  21.756  36.019  13.309
12528W        W79069  36.802  24.090  13.305
12529W        W79070  20.799  22.080  12.354
12530W        W79071  44.196  25.298  14.355
12531W        W79072  32.908   2.290   3.521
12532W        W79073  30.871  16.145   0.009
12533W        W79074  10.383  14.860  12.527
12534W        W79075   9.675   6.196   1.358
12535W        W79076  22.731  36.505   0.292
12536W        W79077  21.318  22.613  12.482
12537W        W79078   1.493   6.638   1.699
12538W        W79079  38.370  42.484   2.304
12539W        W79080   6.379  11.132  12.841
12540W        W79081  19.240  31.000  14.457
12541W        W79082  13.139  25.175   4.494
12542W        W79083  25.075  34.542   3.008
12543W        W79084   9.689  16.255   4.831
12544W        W79085   4.158  14.591   4.691
12545W        W79086   1.100  37.459   4.575
12546W        W79087  34.358  26.173  11.060
12547W        W79088  21.835  20.600   3.335
12548W        W79089   5.452  17.341  13.637
12549W        W79090  16.400  43.971  12.085
12550W        W79091  23.502  16.284  13.481
12551W        W79092  18.660  10.197  14.200
12552W        W79093  11.876  35.872   1.280
12553W        W79094  23.266   4.214  12.094
12554W        W79095   1.239  22.933  14.790
12555W        W79096  10.860  32.169  14.929
12556W        W79097  12.426  35.955  13.477
12557W        W79098  36.004  35.551   0.767
12558W        W79099   4.309  21.674   1.715
12559W        W79100  33.951  43.343   1.226
12560W        W79101  36.748  22.779  10.196
12561W        W79102  26.644   2.273   0.110
12562W        W79103  31.994   0.615   3.718
12563W        W79104  31.297   7.609  10.759
12564W        W79105  27.685  39.626   2.074
12565W        W79106  34.141  18.872  10.767
12566W        W79107  27.760   3.327  10.426
12567W        W79108  43.149   7.812  11.653
12568W        W79109   6.164  34.101   4.671
12569W        W79110   5.415  12.749   0.441
12570W        W79111  13.885  34.612   3.215
12571W        W79112  17.601  42.494  12.890
12572W        W79113  31.319  30.000   2.343
12573W        W79114   3.351  20.244  10.795
12574W        W79115  36.887   8.333   2.122
12575W        W79116  30.692  21.173   4.530
12576W        W79117  43.544  23.559   3.731
12577W        W79118  15.903  15.522   1.782
12578W        W79119   1.792  39.185  13.411
12579W        W79120  10.445  40.690   4.586
12580W        W79121  12.698   1.262  14.964
12581W        W79122   2.149  18.597   1.449
12582W        W79123  15.052  35.772   1.742
12583W        W79124  18.743  37.649   5.123
12584W        W79125  36.414   1.203  12.009
12585W        W79126  12.727  23.799   0.297
12586W        W79127  42.581  21.701  12.797
12587W        W79128  12.767  22.188   2.305
12588W        W79129  24.501  44.688  12.119
12589W        W79130  24.947   7.702  12.875
12590W        W79131  22.970   7.139  14.054
12591W        W79132  13.372  30.511   3.625
12592W        W79133  30.683  21.627   2.351
12593W        W79134  29.960   8.095   3.651
12594W        W79135  31.473   1.485  12.667
12595W        W79136  14.997  28.924  10.205
12596W        W79137  33.610  19.256  12.095
12597W        W79138  21.754  24.032   0.419
12598W        W79139  26.639  26.204   3.667
12599W        W79140   4.857  13.087  14.044
12600W        W79141  27.040  27.125   2.427
12601W        W79142  39.991  32.712   2.773
12602W        W79143  12.647  20.036   1.383
12603W        W79144   9.942  32.391  11.249
12604W        W79145   4.911  11.787  13.262
12605W        W79146  27.438   0.815   0.296
12606W        W79147  31.142  39.772   0.544
12607W        W79148   4.721  15.799   0.187
12608W        W79149  41.554  27.012  11.521
12609W        W79150  19.307  40.786   2.904
12610W        W79151  35.681   1.274   5.036
12611W        W79152  26.393  43.786   3.925
12612W        W79153  40.725  10.986  13.827
12613W        W79154  35.568  44.906  11.166
12614W        W79155  11.646   5.413  12.585
12615W        W79156   1.405  41.993   2.070
12616W        W79157   3.283  13.909   3.265
12617W        W79158  41.825   1.196   1.277
12618W        W79159  11.167  35.534  14.425
12619W        W79160  22.365   0.249  13.340
12620W        W79161  20.163   9.406  12.935
12621W        W79162  26.178   8.950   1.656
12622W        W79163  20.452  28.688   1.313
12623W        W79164  33.804  36.936   2.791
12624W        W79165  27.769  30.731   2.783
12625W        W79166  23.903  21.449   0.212
12626W        W79167   8.275  40.773   2.289
12627W        W79168  39.612  29.613  12.153
12628W        W79169  27.168  28.201  11.533
12629W        W79170  41.027   8.803  11.249
12630W        W79171  17.141  16.176  12.945
12631W        W79172  20.365  44.596  13.327
12632W        W79173  21.088  10.446  11.310
12633W        W79174  34.366  15.178   2.225
12634W        W79175   6.227   4.579  12.440
12635W        W79176  30.995  41.425  12.997
12636W        W79177  26.887  34.839   4.998
12637W        W79178  37.559  27.270   4.089
12638W        W79179  10.826  26.486   2.695
12639W        W79180  12.059  21.917  10.955
12640W        W79181  18.642  18.110   0.685
12641W        W79182  13.079  34.935   3.699
12642W        W79183   5.932  33.130  12.263
12643W        W79184  12.194  10.469  14.273
12644W        W79185  32.921   8.379   3.722
12645W        W79186  22.643  10.293  13.501
12646W        W79187  15.346  19.816  11.511
12647W        W79188  26.439   7.865   1.414
12648W        W79189  25.564   9.456  11.672
12649W        W79190  33.113  33.510   4.287
12650W        W79191  15.547  23.391   2.041
12651W        W79192  17.267   9.779   2.380
12652W        W79193  20.769  12.621  14.379
12653W        W79194  12.315  27.240  12.875
12654W        W79195   1.458  20.550   0.525
12655W        W79196  29.620  11.188   3.362
12656W        W79197   1.974   8.158   3.054
12657W        W79198  15.363   7.549   2.267
12658W        W79199  20.616  30.561  11.407
12659W        W79200  29.231  26.627  14.943
12660W        W79201  31.460  20.464  10.807
12661W        W79202  30.878   3.341   1.775
12662W        W79203   1.081  10.050  14.914
12663W        W79204  39.577  32.411   1.904
12664W        W79205  28.539  38.442  10.744
12665W        W79206  27.217  20.367  14.693
12666W        W79207  18.078  19.383   1.469
12667W        W79208  28.186  18.682   2.615
12668W        W79209  14.130  21.125  10.823
12669W        W79210  37.930   4.001   1.661
12670W        W79211  28.629  36.104   0.818
12671W        W79212  29.448  29.540   2.853
12672W        W79213   0.753  38.492  11.398
12673W        W79214  31.140  39.520  14.589
12674W        W79215  31.236   9.825   0.445
12675W        W79216   5.427   0.194   3.719
12676W        W79217  39.453  32.039  13.419
12677W        W79218   3.019  29.120   2.391
12678W        W79219  30.177  12.108  13.788
12679W        W79220  25.670  18.611   1.755
12680W        W79221  39.819  38.865  13.069
12681W        W79222  25.685  16.173  12.673
12682W        W79223  36.621  16.268  12.287
12683W        W79224  13.538  12.849  14.984
12684W        W79225  42.889  44.906   4.053
12685W        W79226  37.828   7.962  11.080
12686W        W79227  20.684   8.927  10.926
12687W        W79228  30.131  23.546   4.685
12688W        W79229  35.947  16.178   0.004
12689W        W79230   3.349   4.727  13.121
12690W        W79231   3.530  22.234   3.742
12691W        W79232  43.513  36.090  10.067
12692W        W79233  24.047  14.630  10.824
12693W        W79234  10.841  15.079   1.123
12694W        W79235  42.482  16.243  12.148
12695W        W79236  22.648   7.668  11.624
12696W        W79237  20.220  23.937   1.393
12697W        W79238   8.669  27.469   2.849
12698W        W79239  14.202  43.237   3.123
12699W        W79240  30.968   2.762   3.353
12700W        W79241   3.390  22.216  11.045
12701W        W79242  27.354  12.354   0.301
12702W        W79243  41.961  41.588   3.248
12703W        W79244  36.351  17.141  10.845
12704W        W79245  44.246  20.192   4.049
12705W        W79246  23.676  14.778  12.479
12706W        W79247  41.911  26.976  12.650
12707W        W79248   3.007   1.671  11.792
12708W        W79249  17.373  11.578   1.819
12709W        W79250  44.921  11.401   4.910
12710W        W79251  37.856  32.283   4.802
12711W        W79252   7.010  27.996  11.397
12712W        W79253   4.095  42.089  12.962
12713W        W79254  17.292  27.359   3.829
12714W        W79255  17.830  25.894   0.896
12715W        W79256  21.779  36.414  11.550
12716W        W79257   1.248  40.075  10.656
12717W        W79258   8.179  10.175  12.086
12718W        W79259   4.256   6.338  14.382
12719W        W79260   3.900  22.618   3.650
12720W        W79261  35.726   7.484   0.896
12721W        W79262  24.574   4.802   0.099
12722W        W79263   3.245  20.618  14.017
12723W        W79264  14.352   0.157   1.029
12724W        W79265  29.073  29.390   4.109
12725W        W79266  16.842  28.672   0.290
12726W        W79267  23.673  23.722  12.020
12727W        W79268  31.443   2.765  10.321
12728W        W79269   2.337  14.588  11.459
12729W        W79270  31.053  18.787  11.410
12730W        W79271   8.720   0.287  13.921
12731W        W79272  42.433  41.098  12.924
12732W        W79273  30.139  14.373   4.088
12733W        W79274   7.252  15.618  12.209
12734W        W79275  19.834  14.287   0.525
12735W        W79276  42.284   1.972  13.383
12736W        W79277  19.970   1.566   4.967
12737W        W79278  25.619  21.548   4.858
12738W        W79279  38.510  37.951  12.413
12739W        W79280  18.763  20.036   0.850
12740W        W79281  20.985  41.615  13.957
12741W        W79282  10.265  22.166  10.155
12742W        W79283  22.509  35.993   9.959
12743W        W79284   7.172  11.386  12.487
12744W        W79285  18.001  19.708   1.947
12745W        W79286  38.172  34.274  12.070
12746W        W79287  43.646   6.911   2.464
12747W        W79288   6.854  13.580  12.995
12748W        W79289  26.203  22.711  14.894
12749W        W79290  19.302  21.216   0.911
12750W        W79291  43.271  13.149   0.925
12751W        W79292  32.976  17.843  12.196
12752W        W79293   4.154   4.622  12.397
12753W        W79294   3.889  36.990   2.776
12754W        W79295  18.481  43.997  13.192
12755W        W79296  31.363   4.466   4.100
12756W        W79297   4.373  14.739  11.452
12757W        W79298   6.835  22.246   1.375
12758W        W79299  36.928  42.382   1.840
12759W        W79300  24.625  15.553   3.020
12760W        W79301  40.865   8.842   1.791
12761W        W79302   4.842   0.203   3.289
12762W        W79303  13.912  43.872  12.257
12763W        W79304  41.321  10.084  14.767
12764W        W79305  25.070  42.436   4.072
12765W        W79306  29.075  17.860  13.021
12766W        W79307  17.775  12.628  12.427
12767W        W79308  29.730   2.318   4.251
12768W        W79309  44.853   6.432   1.826
12769W        W79310  38.151  20.268   0.377
12770W        W79311  23.570  15.324  10.698
12771W        W79312  23.258   8.860  10.518
12772W        W79313  41.025  41.156   3.253
12773W        W79314   6.728  15.650   1.759
12774W        W79315  27.544  32.716  11.063
12775W        W79316  37.967  12.060  12.394
12776W        W79317   3.438   3.716  13.512
12777W        W79318  28.229  17.068  11.154
12778W        W79319  20.675  41.978  12.014
12779W        W79320   2.443   5.691   4.981
12780W        W79321  25.089  30.523  11.889
12781W        W79322  44.245  11.295  10.698
12782W        W79323  37.014  29.396   3.490
12783W        W79324  10.946  22.081   3.242
12784W        W79325  12.256  26.630   3.682
12785W        W79326  27.001  34.362   3.619
12786W        W79327  33.334  42.415  11.543
12787W        W79328  32.581   6.830   0.344
12788W        W79329  28.120  10.241  12.964
12789W        W79330  24.559  35.131   3.857
12790W        W79331  20.277  16.231  14.345
12791W        W79332  26.078  36.467  14.961
12792W        W79333  34.807  22.611   2.203
12793W        W79334  25.865   3.239  10.569
12794W        W79335  26.761  35.376   4.225
12795W        W79336  37.963  38.563  12.047
12796W        W79337   0.235  43.377  14.835
12797W        W79338  12.933  43.557  10.619
12798W        W79339   6.804  23.789   1.235
12799W        W79340  25.063  15.636  11.083
12800W        W79341  29.231  21.193   2.635
12801W        W79342  31.422  20.324  12.848
12802W        W79343  20.453  19.405  11.492
12803W        W79344  24.629  40.807   3.254
12804W        W79345  16.792  35.374   4.125
12805W        W79346   4.653  43.374  10.144
12806W        W79347  43.459  40.757   0.907
12807W        W79348  25.112   2.752   3.235
12808W        W79349   5.336   5.206   1.317
12809W        W79350  37.660   7.175  12.087
12810W        W79351  44.272   7.109  13.144
12811W        W79352  15.096  29.622  12.381
12812W        W79353  27.768   1.179  12.567
12813W        W79354  31.311   0.809  12.983
12814W        W79355   9.716  43.456  13.493
12815W        W79356  33.412  20.508   1.203
12816W        W79357  25.090  28.675   0.723
12817W        W79358  39.682   5.393  11.049
12818W        W79359  25.697  18.393  14.063
12819W        W79360  19.581  14.548  14.324
12820W        W79361  16.063  43.491  13.344
12821W        W79362  38.491  28.955   1.607
12822W        W79363  27.491  24.846  14.228
12823W        W79364  34.013  20.489   4.511
12824W        W79365  20.046  26.449  11.331
12825W        W79366   6.758  15.086   4.195
12826W        W79367  33.474  31.731  13.408
12827W        W79368  20.996  39.371  12.900
12828W        W79369  22.969  12.746   4.136
12829W        W79370  26.140  25.999  14.426
12830W        W79371  29.581   4.703   0.947
12831W        W79372   3.241   5.289  12.829
12832W        W79373  12.234  38.505   0.330
12833W        W79374  40.953  44.702  10.373
12834W        W79375  25.269  29.137  14.842
12835W        W79376  17.103  15.549  10.704
12836W        W79377  34.177  38.338  12.477
12837W        W79378  20.072  19.516   1.758
12838W        W79379  26.921  27.095  14.016
12839W        W79380  17.309  30.834  10.429
12840W        W79381  13.805  24.250   1.797
12841W        W79382   6.674  17.619   2.763
12842W        W79383  12.296  30.448  14.911
12843W        W79384   0.990  27.408   2.873
12844W        W79385  26.349  37.690  11.399
12845W        W79386  15.758  24.070  13.810
12846W        W79387  40.361  32.143  12.887
12847W        W79388  40.146   2.782  14.855
12848W        W79389  31.986  27.964  14.166
12849W        W79390  40.460  16.797  12.872
12850W        W79391  20.450  17.707   3.768
12851W        W79392   4.188  22.573   5.247
12852W        W79393   3.811  11.581  12.563
12853W        W79394  30.487  31.520   1.049
12854W        W79395  42.393   4.985   0.366
12855W        W79396  11.835  24.712   2.781
12856W        W79397  41.016  39.707  11.526
12857W        W79398   6.879  19.508  10.434
12858W        W79399  12.888  12.523   2.785
12859W        W79400  44.228  11.669  12.768
12860W        W79401  30.026  15.692   4.681
12861W        W79402  27.496  18.211  10.756
12862W        W79403  22.251  36.059  14.851
12863W        W79404  39.258  35.430  11.084
12864W        W79405  25.777  30.905   3.984
12865W        W79406  13.602  23.963   1.432
12866W        W79407  15.838   5.404  14.293
12867W        W79408  42.966  40.762   1.849
12868W        W79409  24.361  25.738   1.359
12869W        W79410   8.373  18.704   1.686
12870W        W79411  29.811  24.565   4.050
12871W        W79412  10.304  34.474   9.894
12872W        W79413  43.825  33.074  14.351
12873W        W79414  10.090  18.197  14.046
12874W        W79415  10.034  34.661   3.370
12875W        W79416   0.665   1.836   0.971
12876W        W79417  11.116  20.550   1.741
12877W        W79418  35.824  35.610   3.766
12878W        W79419  15.374  14.453  14.645
12879W        W79420  28.529  41.307  13.272
12880W        W79421  29.403   9.809  12.649
12881W        W79422  19.781  35.847  11.627
12882W        W79423  29.725  32.632   2.702
12883W        W79424  13.263   7.714  12.380
12884W        W79425  42.774   9.096   1.270
12885W        W79426   3.473  13.705  12.078
12886W        W79427  42.220  16.133  12.993
12887W        W79428   3.723  39.813  14.507
12888W        W79429  23.759   8.152   4.504
12889W        W79430   8.851  42.266   1.430
12890W        W79431  13.339  12.865  13.162
12891W        W79432  26.975   6.880  11.552
12892W        W79433   6.221  10.417   3.570
12893W        W79434  20.106   1.261  10.933
12894W        W79435  12.594  36.555   2.178
12895W        W79436  15.576   7.816  12.490
12896W        W79437   2.961  44.186   4.804
12897W        W79438  29.752  35.883   3.762
12898W        W79439  33.270  19.721   0.169
12899W        W79440  23.847  25.667   2.392
12900W        W79441  33.640  26.940  12.641
12901W        W79442  40.766   0.845  13.508
12902W        W79443  14.757  21.295  12.686
12903W        W79444  42.400  10.681   1.710
12904W        W79445   9.430  37.853   4.862
12905W        W79446  38.803  42.340  12.886
12906W        W79447  33.012  24.533   5.071
12907W        W79448  42.700  20.907  11.125
12908W        W79449  44.740  31.499   3.651
12909W        W79450  16.323  38.299  12.935
12910W        W79451   9.708   0.269  13.851
12911W        W79452  42.469  19.455  10.990
12912W        W79453  43.904  30.658  14.791
12913W        W79454  21.766  28.390  12.959
12914W        W79455  27.098  19.575  13.121
12915W        W79456  14.121  41.924   3.641
12916W        W79457  15.804  33.930  10.232
12917W        W79458   3.033  12.119  12.618
12918W        W79459  37.030  13.390  10.596
12919W        W79460  17.020   7.956  11.645
12920W        W79461   9.740  34.087  14.514
12921W        W79462   2.412  22.294   3.164
12922W        W79463  18.986   9.438  10.710
12923W        W79464  29.561   2.944  13.455
12924W        W79465   0.527  34.360  13.477
12925W        W79466  23.604   0.954  14.481
12926W        W79467  10.711  37.570   0.483
12927W        W79468  24.060   1.679   3.807
12928W        W79469  44.540  25.723  12.224
12929W        W79470  37.073   2.912   2.329
12930W        W79471  16.581   0.452  11.431
12931W        W79472  19.620  29.059   3.714
12932W        W79473  10.518   9.871  14.270
12933W        W79474  32.911  11.126   1.147
12934W        W79475  24.762   8.124  14.986
12935W        W79476   9.859  21.446  11.133
12936W        W79477  19.064   2.006  12.495
12937W        W79478  39.460  29.604   4.964
12938W        W79479  14.057   8.148  14.292
12939W        W79480  19.004  26.665  14.869
12940W        W79481   4.754  39.038   1.911
12941W        W79482  44.491  33.463  13.561
12942W        W79483  22.056  38.304   3.705
12943W        W79484  44.280   7.400   1.441
12944W        W79485  24.624  23.036   4.549
12945W        W79486  24.004  20.698  12.101
12946W        W79487  44.226  40.467  14.737
12947W        W79488  14.225  41.910   4.530
12948W        W79489  22.520   1.515   0.813
12949W        W79490  10.291  17.105   0.668
12950W        W79491  18.367  36.130   4.570
12951W        W79492   9.570   0.317   3.699
12952W        W79493  16.284  26.714  12.894
12953W        W79494   2.923  44.254  12.373
12954W        W79495  34.425  21.240   4.270
12955W        W79496  21.022   2.895  13.068
12956W        W79497   7.375  29.211   1.770
12957W        W79498  19.517  11.679   0.703
12958W        W79499  20.833  28.679  11.254
12959W        W79500  23.022  31.917   3.311
12960W        W79501  22.920   0.003  12.940
12961W        W79502  31.651   3.439   3.258
12962W        W79503  31.380  12.776  14.307
12963W        W79504  11.816  24.270   0.940
12964W        W79505   2.979  14.127  10.541
12965W        W79506  44.796  18.234  10.445
12966W        W79507  26.018  15.003  12.191
12967W        W79508  25.269  34.782  12.224
12968W        W79509  14.870   7.688   2.343
12969W        W79510  43.627  31.526  11.031
12970W        W79511   4.324   3.526   5.395
12971W        W79512  39.948   0.436   3.248
12972W        W79513  18.915   1.826   4.745
12973W        W79514   8.067  36.491  13.451
12974W        W79515  41.660  32.168  10.362
12975W        W79516   5.380  15.560   4.087
12976W        W79517  32.047  40.402  14.836
12977W        W79518   5.350   0.484  14.314
12978W        W79519  19.635  28.116   3.714
12979W        W79520   8.223  12.191   2.804
12980W        W79521   9.477  37.308   1.142
12981W        W79522   9.563  30.819   4.744
12982W        W79523  19.757  26.417  14.291
12983W        W79524  19.736  28.500  12.899
12984W        W79525  17.590  37.939   0.469
12985W        W79526  24.277  14.781   3.817
12986W        W79527  37.337  30.641   0.549
12987W        W79528   7.334  30.356   3.603
12988W        W79529  23.080   8.374  10.580
12989W        W79530  34.207   9.561   0.783
12990W        W79531  32.176  42.837   0.875
12991W        W79532   5.950  33.192   2.402
12992W        W79533   7.795   5.045  13.805
12993W        W79534   6.846  16.214   4.383
12994W        W79535  25.996  26.632  11.846
12995W        W79536  20.100  39.604   0.757
12996W        W79537  36.838  31.161   4.947
12997W        W79538   8.108  21.958  11.925
12998W        W79539  14.309  17.703  13.133
12999W        W79540   9.199   9.434  14.247
13000W        W79541  37.356  10.790   2.297
13001W        W79542  27.124   8.303   2.120
13002W        W79543  28.683   3.783   0.510
13003W        W79544  26.184   1.348   3.826
13004W        W79545  12.178   5.253   2.671
13005W        W79546  41.893  30.319   5.019
13006W        W79547  30.605  28.894  10.726
13007W        W79548  39.955  12.406   4.983
13008W        W79549  22.434  36.082   0.338
13009W        W79550  25.896  40.543   3.110
13010W        W79551  35.290   6.479   3.798
13011W        W79552  21.670  10.956  14.231
13012W        W79553  40.088  10.539  11.039
13013W        W79554  35.341  18.776  12.246
13014W        W79555  24.271  21.123   0.391
13015W        W79556  13.452  36.032  14.384
13016W        W79557  13.053  19.002  12.488
13017W        W79558   8.789  14.510   0.579
13018W        W79559  30.860  35.304  14.939
13019W        W79560  19.165  22.007   1.975
13020W        W79561  44.064  35.318  12.735
13021W        W79562   2.534  14.150  11.687
13022W        W79563  14.696  38.766   4.628
13023W        W79564   9.571  37.107  14.208
13024W        W79565  31.538   4.353   1.026
13025W        W79566  20.978   3.839   4.201
13026W        W79567  31.022   2.722  10.039
13027W        W79568   2.829  40.207   3.872
13028W        W79569  20.643  18.017   2.460
13029W        W79570   8.698  14.801   3.596
13030W        W79571   8.325  44.946   0.972
13031W        W79572  10.336  34.566   0.864
13032W        W79573   3.220  38.421  10.707
13033W        W79574  36.325  19.377  11.048
13034W        W79575  24.539  20.987  12.015
13035W        W79576  11.941   4.904  12.021
13036W        W79577  13.263   2.361   2.336
13037W        W79578  21.148  32.483   2.258
13038W        W79579  10.251   5.109  14.354
13039W        W79580  30.535  14.735   4.963
13040W        W79581  30.114  35.571   2.862
13041W        W79582  11.510  13.661  14.385
13042W        W79583  35.009   8.671   3.209
13043W        W79584  43.481  14.842  14.376
13044W        W79585   5.988  15.455   1.272
13045W        W79586  21.521  32.010  13.064
13046W        W79587  13.936  18.692  13.817
13047W        W79588  16.116  14.576   2.302
13048W        W79589   1.654  18.405  12.155
13049W        W79590  37.061  31.891  12.036
13050W        W79591  30.753   0.346   0.252
13051W        W79592  30.984  20.170   3.743
13052W        W79593  15.135  21.599  12.900
13053W        W79594  35.074  35.383  14.895
13054W        W79595   2.361  23.677  14.305
13055W        W79596  39.188  24.259  12.413
13056W        W79597   1.605  38.782   3.383
13057W        W79598  23.115  33.047   3.965
13058W        W79599  13.156  34.437   2.921
13059W        W79600  21.792  25.708   3.092
13060W        W79601  15.197  43.140   3.396
13061W        W79602  23.970   2.169   3.674
13062W        W79603  18.270  39.549   2.189
13063W        W79604  41.406   3.843  14.729
13064W        W79605  13.931  36.572   4.085
13065W        W79606  35.473  39.096  14.880
13066W        W79607  17.001  38.077   3.162
13067W        W79608  12.041  37.576   0.831
13068W        W79609   1.345  34.303  13.166
13069W        W79610  24.668  37.948  11.552
13070W        W79611  41.551  38.745   3.426
13071W        W79612  11.290  23.196   3.872
13072W        W79613  41.453  27.197  12.499
13073W        W79614  13.500  25.033  14.251
13074W        W79615  31.125  19.473   2.927
13075W        W79616  12.075  21.522  12.120
13076W        W79617  35.639  17.074  12.553
13077W        W79618  16.731  38.058   4.250
13078W        W79619  12.235  29.547   4.303
13079W        W79620   7.436  35.224  10.778
13080W        W79621  37.509  25.705   4.559
13081W        W79622   4.420   2.400  11.277
13082W        W79623  35.103  24.054  13.490
13083W        W79624  22.789  26.204   3.753
13084W        W79625  41.991   3.289   2.276
13085W        W79626  31.179  39.903   2.838
13086W        W79627  44.530   9.088  11.910
13087W        W79628  33.372  30.017   3.406
13088W        W79629  33.492  38.570   2.712
13089W        W79630   2.207  43.049  10.884
13090W        W79631  20.800   9.917   3.301
13091W        W79632  19.867  24.444   0.047
13092W        W79633  17.794  17.844   0.376
13093W        W79634   3.244   9.095  14.326
13094W        W79635   1.523  33.396   0.833
13095W        W79636  25.626  13.261   4.521
13096W        W79637  29.409   7.065   4.723
13097W        W79638  37.524  42.823   1.653
13098W        W79639   9.140   3.005   0.734
13099W        W79640  12.878  32.788  12.539
13100W        W79641  11.565  17.337  12.331
13101W        W79642   0.209   7.342  12.194
13102W        W79643  11.699  43.377  13.440
13103W        W79644  33.121   7.328   1.426
13104W        W79645  41.783  25.165  11.571
13105W        W79646  29.627  28.442   4.101
13106W        W79647  37.831   3.808  14.335
13107W        W79648   8.108  27.410   1.055
13108W        W79649   2.494   1.171  13.037
13109W        W79650  27.034  12.593  14.059
13110W        W79651  13.347  19.181   2.408
13111W        W79652  12.191  18.568  11.956
13112W        W79653   4.412  33.917  13.297
13113W        W79654  11.803  10.132   1.424
13114W        W79655  44.011  33.293  10.249
13115W        W79656  33.946  35.699  10.409
13116W        W79657  36.818  18.136   1.694
13117W        W79658  37.646  41.292   0.843
13118W        W79659  13.936  22.061   3.083
13119W        W79660  41.283  25.755   0.287
13120W        W79661  44.988  32.955   1.440
13121W        W79662  16.225  39.041  13.595
13122W        W79663  29.917   7.278   0.855
13123W        W79664  30.973  19.256   3.400
13124W        W79665  12.576  23.069  14.819
13125W        W79666  32.162  41.790   0.880
13126W        W79667   0.683  38.871  13.443
13127W        W79668  33.015  10.762  13.117
13128W        W79669  30.525  44.195  14.140
13129W        W79670  15.668  41.586  14.404
13130W        W79671  22.472  15.851   4.204
13131W        W79672  25.403  41.785   2.858
13132W        W79673  25.478  17.859  14.564
13133W        W79674  19.749   5.282   4.462
13134W        W79675   2.801  14.141   4.062
13135W        W79676  21.392  31.316   3.371
13136W        W79677   5.582  14.508  11.836
13137W        W79678  11.385  44.865   4.557
13138W        W79679  12.336   4.688   4.758
13139W        W79680  33.145  23.996  14.457
13140W        W79681  12.278  29.031  10.249
13141W        W79682   1.752  30.612   4.011
13142W        W79683   7.761  17.114   3.154
13143W        W79684  44.720   5.155  12.447
13144W        W79685  22.804  31.498  13.356
13145W        W79686  44.944  18.449  11.656
13146W        W79687  38.585  17.830   2.801
13147W        W79688  18.721  22.935  13.045
13148W        W79689  24.026  42.945   3.303
13149W        W79690  41.877  22.023  11.246
13150W        W79691  33.539  30.209  13.786
13151W        W79692  28.049  13.602   2.333
13152W        W79693  40.439   7.271   4.663
13153W        W79694  39.968  44.730   2.342
13154W        W79695  11.107   1.320  14.855
13155W        W79696  42.965  31.080  12.619
13156W        W79697   6.059  30.421  10.753
13157W        W79698  12.438  21.740   4.585
13158W        W79699  10.411  36.992   0.365
13159W        W79700  37.508  31.746   3.255
13160W        W79701  37.738   5.739  11.198
13161W        W79702   4.523  32.045   3.230
13162W        W79703  15.332  21.048   2.650
13163W        W79704   4.874   4.336   3.927
13164W        W79705  23.950  26.789  14.759
13165W        W79706  22.121  43.537  13.904
13166W        W79707  14.291  14.751  13.106
13167W        W79708   1.004   8.776   2.846
13168W        W79709  11.942  27.324  12.478
13169W        W79710   9.266  42.360  12.939
13170W        W79711  10.087  20.843   1.821
13171W        W79712   2.741  10.725   3.313
13172W        W79713  10.165  38.578  11.175
13173W        W79714  32.747  15.039  13.822
13174W        W79715  32.342  20.636  11.117
13175W        W79716  34.081   5.765  10.448
13176W        W79717  33.923   6.507  11.884
13177W        W79718   0.849  16.148   0.516
13178W        W79719  17.176  39.023   1.689
13179W        W79720   6.517  21.235   4.566
13180W        W79721  10.839  21.920  14.033
13181W        W79722  36.907  14.912   1.393
13182W        W79723  20.186  34.252   1.425
13183W        W79724  28.472  23.536  10.648
13184W        W79725  23.727  17.571  14.654
13185W        W79726   8.815  25.282  14.721
13186W        W79727  24.394  30.983  11.943
13187W        W79728   5.322  24.058  10.986
13188W        W79729   5.662  30.067  13.373
13189W        W79730  24.887  41.378  12.471
13190W        W79731  18.496  17.229   1.712
13191W        W79732  34.567  14.221   5.032
13192W        W79733  26.158  24.708   3.185
13193W        W79734  40.510  44.239   0.915
13194W        W79735   1.329  31.386  12.617
13195W        W79736  11.233  34.670   0.339
13196W        W79737  31.303  24.842   0.888
13197W        W79738   5.286  43.515   3.196
13198W        W79739  24.248  27.058  14.379
13199W        W79740   4.710  31.492   1.830
13200W        W79741  36.106  12.797  11.106
13201W        W79742   4.506  24.620   3.728
13202W        W79743  31.682  22.926   0.448
13203W        W79744  24.257  38.973  14.154
13204W        W79745   8.292  11.888  11.578
13205W        W79746  36.507  27.071   0.826
13206W        W79747  15.919  15.170  14.966
13207W        W79748  43.984  27.392   0.126
13208W        W79749   9.554  29.921  13.870
13209W        W79750  24.280  34.046  10.823
13210W        W79751  17.595  10.176   1.253
13211W        W79752  17.484  26.600   2.184
13212W        W79753  11.329  17.733  13.223
13213W        W79754  27.112  33.436   3.641
13214W        W79755  25.500  11.734   1.723
13215W        W79756  11.826  38.112  11.899
13216W        W79757  25.225   4.367  12.966
13217W        W79758   7.447  44.791  11.855
13218W        W79759   8.891  23.766   2.408
13219W        W79760  35.845  30.369   0.891
13220W        W79761  30.613  38.039   4.427
13221W        W79762  31.508   8.158  14.017
13222W        W79763  15.013  33.183  11.608
13223W        W79764  24.437  34.473   1.751
13224W        W79765   3.308  10.157   4.053
13225W        W79766  17.095  40.506   4.617
13226W        W79767  25.540  36.328   3.324
13227W        W79768  30.638  19.287   0.835
13228W        W79769  21.211  22.532   2.938
13229W        W79770  43.440  37.296  13.315
13230W        W79771  22.553  20.256   1.166
13231W        W79772  27.252  12.213  12.961
13232W        W79773  21.987   1.420   4.399
13233W        W79774  31.973   7.326   1.187
13234W        W79775  11.351  29.959   2.289
13235W        W79776   6.865  21.577  14.739
13236W        W79777  10.642  11.015  11.885
13237W        W79778  28.469  13.799  12.430
13238W        W79779  20.400  35.236  12.105
13239W        W79780   3.532  13.166  14.914
13240W        W79781  21.390   6.175   1.415
13241W        W79782  10.256  42.556  12.323
13242W        W79783   7.419  22.707  11.334
13243W        W79784  26.244   7.161   4.167
13244W        W79785   4.484   4.291   0.808
13245W        W79786   1.954  35.321  12.937
13246W        W79787  19.533   2.867   4.560
13247W        W79788  44.767  21.778   3.810
13248W        W79789  39.963   9.011   0.044
13249W        W79790   3.056   7.194   2.445
13250W        W79791   2.200   8.357  13.479
13251W        W79792  35.644   5.700   3.789
13252W        W79793   3.442   0.565  12.512
13253W        W79794   9.985  18.375   0.336
13254W        W79795   2.856   8.419   4.661
13255W        W79796  15.496  17.764  14.763
13256W        W79797   3.272  44.465  11.620
13257W        W79798  18.564   5.412   3.414
13258W        W79799  41.147  21.923   0.970
13259W        W79800  15.654  35.944  14.355
13260W        W79801  44.332  35.918  10.880
13261W        W79802  23.911  36.358  13.513
13262W        W79803   1.809  27.032   2.784
13263W        W79804  16.259  26.423  11.336
13264W        W79805  32.064  26.097   1.450
13265W        W79806  11.129  20.505  13.992
13266W        W79807  26.452  20.117  11.534
13267W        W79808  41.691  32.473   4.549
13268W        W79809  21.661  26.712  12.036
13269W        W79810  15.319  16.155  12.416
13270W        W79811  24.006  35.659  11.629
13271W        W79812  40.538   2.191   2.830
13272W        W79813  34.940  23.328   2.910
13273W        W79814  34.692   0.315   3.425
13274W        W79815  14.514   1.045  12.510
13275W        W79816  12.261  25.149  13.915
13276W        W79817  35.405  40.142  14.868
13277W        W79818  43.360  40.315   3.854
13278W        W79819  25.179   3.609  10.261
13279W        W79820  19.383  34.200  10.677
13280W        W79821  26.036   3.296  13.500
13281W        W79822  20.262   8.610  11.137
13282W        W79823  33.375   2.072   1.402
13283W        W79824  34.681  16.559   4.050
13284W        W79825  43.883  25.246  10.739
13285W        W79826  38.844  19.585   0.219
13286W        W79827   6.380  14.335   4.917
13287W        W79828  16.202   6.138  12.082
13288W        W79829  21.184  30.506  13.586
13289W        W79830  12.259  19.259   0.297
13290W        W79831  18.861  18.281  10.841
13291W        W79832   7.924  38.856  12.432
13292W        W79833  37.405  31.133  14.071
13293W        W79834   7.287  34.689   3.128
13294W        W79835  39.398   1.946  10.126
13295W        W79836  34.656   1.944   2.096
13296W        W79837   9.208  24.384  12.032
13297W        W79838  38.966  30.034   3.863
13298W        W79839  22.347   9.278  11.378
13299W        W79840  21.501  26.463  10.426
13300W        W79841  38.070  37.653   1.455
13301W        W79842   9.388  32.986  12.519
13302W        W79843  10.733  27.677  13.976
13303W        W79844  12.250   4.435  11.555
13304W        W79845  36.071  20.610  11.480
13305W        W79846  30.252  21.757   1.990
13306W        W79847  17.320   2.757  13.422
13307W        W79848  21.208  37.549   3.102
13308W        W79849  20.035   1.411  12.965
13309W        W79850  29.906  30.137   0.757
13310W        W79851  23.155  30.178   1.918
13311W        W79852  36.604  40.499  11.898
13312W        W79853  35.527  31.829   2.858
13313W        W79854   1.898  11.232   0.895
13314W        W79855  28.254  13.325   9.852
13315W        W79856  19.426  23.640  14.245
13316W        W79857  19.198  29.072   4.754
13317W        W79858  10.113  28.684  13.631
13318W        W79859  30.138  38.104  10.757
13319W        W79860  41.148  22.477   3.272
13320W        W79861  26.652  29.804   2.223
13321W        W79862   4.811  43.712   3.118
13322W        W79863   7.097  38.350  12.443
13323W        W79864  24.154  41.581  14.461
13324W        W79865  11.117  12.183  13.084
13325W        W79866  31.366  38.827   2.297
13326W        W79867   2.401  24.642   3.189
13327W        W79868   6.790   9.701  14.936
13328W        W79869   8.964   4.708   0.955
13329W        W79870   5.348   6.399   3.618
13330W        W79871  18.657  13.601   0.353
13331W        W79872   6.179   8.212  11.203
13332W        W79873  28.611  43.822   3.603
13333W        W79874  34.521   7.733  12.476
13334W        W79875   5.019  31.365  14.818
13335W        W79876  43.425  32.379   3.100
13336W        W79877  16.750   2.713  10.662
13337W        W79878  31.227  37.449   0.010
13338W        W79879   9.780  29.631  13.122
13339W        W79880  19.923   9.516   3.193
13340W        W79881  18.475  25.995   3.797
13341W        W79882   7.703  14.379  12.856
13342W        W79883   9.184  38.428  11.953
13343W        W79884  44.414   8.891  14.843
13344W        W79885   3.492  17.502  11.532
13345W        W79886  24.102   9.179   0.491
13346W        W79887   5.311  27.069   5.196
13347W        W79888  36.994  15.592   4.544
13348W        W79889  33.440  32.799   4.588
13349W        W79890  15.072  14.157  10.653
13350W        W79891  44.514  23.643   1.660
13351W        W79892   8.282  19.730   0.303
13352W        W79893  28.161  14.621  10.336
13353W        W79894   1.299  23.800  12.360
13354W        W79895   6.624  41.794   4.529
13355W        W79896  21.096  40.150  13.088
13356W        W79897   6.866  40.961   3.445
13357W        W79898  35.822  13.096  12.962
13358W        W79899  44.146  10.685  13.645
13359W        W79900  27.070   2.924   4.295
13360W        W79901  41.769  19.997   3.791
13361W        W79902  30.783  21.567  11.079
13362W        W79903  44.858   5.136  11.527
13363W        W79904  19.440   9.090  10.791
13364W        W79905  21.608  20.486  12.623
13365W        W79906  25.779  22.876  11.545
13366W        W79907  34.778  13.569   0.702
13367W        W79908  19.633  36.540  14.303
13368W        W79909  12.665  30.119  13.799
13369W        W79910  19.765  19.226   4.587
13370W        W79911   2.892  14.869   0.794
13371W        W79912  40.902  39.538   0.168
13372W        W79913   9.124  30.199  12.952
13373W        W79914  41.824  20.929   3.257
13374W        W79915   8.179  43.722   3.156
13375W        W79916   7.713   7.526  13.871
13376W        W79917  40.385  40.393  14.978
13377W        W79918  25.585  26.263  11.131
13378W        W79919  32.877  44.834   1.488
13379W        W79920  14.655  15.653  13.926
13380W        W79921   2.824   9.149   0.844
13381W        W79922  32.878  28.979  14.161
13382W        W79923  33.852  26.623   0.750
13383W        W79924  29.303  26.187   3.395
13384W        W79925  28.494  25.743   1.447
13385W        W79926  42.031   7.403  14.742
13386W        W79927  12.182  34.040  12.596
13387W        W79928  28.499  43.492  13.383
13388W        W79929   9.898   3.843   0.369
13389W        W79930  25.071  31.954  13.297
13390W        W79931   4.840   1.666   0.698
13391W        W79932  42.353  28.373   4.742
13392W        W79933  20.371  32.388   0.963
13393W        W79934  13.576  30.388   5.013
13394W        W79935  39.109  35.549  14.526
13395W        W79936  21.196  43.281  10.714
13396W        W79937  40.244  33.970   4.338
13397W        W79938   5.975   2.440   3.866
13398W        W79939  42.150  19.733  12.601
13399W        W79940  32.937  28.451   1.210
13400W        W79941  38.477  37.171   0.963
13401W        W79942  12.673  21.218  14.343
13402W        W79943  27.893  44.376   4.776
13403W        W79944  28.026  18.323  14.335
13404W        W79945   4.140  33.892  11.218
13405W        W79946  27.516   3.347   2.418
13406W        W79947  18.626   1.398   4.589
13407W        W79948   2.782  32.764  13.269
13408W        W79949  27.688  34.104  12.725
13409W        W79950  10.979   8.933   4.403
13410W        W79951  23.189   8.411   3.814
13411W        W79952   3.156  14.592  12.119
13412W        W79953  30.637  39.051   4.808
13413W        W79954  33.887   5.384   3.339
13414W        W79955  24.981  38.317   0.681
13415W        W79956  32.390  16.122   3.639
13416W        W79957  37.869  12.589  12.918
13417W        W79958  17.492   7.540  11.133
13418W        W79959  43.284  38.283   1.119
13419W        W79960   6.486  40.836  11.651
13420W        W79961  16.120  15.580   4.051
13421W        W79962  24.546  26.657  10.693
13422W        W79963  17.032  23.785   1.387
13423W        W79964  39.434  30.503  14.776
13424W        W79965  29.947   4.780   4.073
13425W        W79966  33.061   9.459   3.622
13426W        W79967  25.935  21.063   4.168
13427W        W79968  16.074   2.900  11.846
13428W        W79969  13.313  19.019  11.064
13429W        W79970   1.778   7.341  14.247
13430W        W79971  34.839   1.495   0.228
13431W        W79972  21.521   4.783  13.970
13432W        W79973  41.972  41.424   2.756
13433W        W79974   5.667  27.651  13.831
13434W        W79975  34.295   4.994  10.858
13435W        W79976  36.093  33.787  13.018
13436W        W79977   9.198  24.643   0.671
13437W        W79978  34.935  15.303   1.468
13438W        W79979  18.272  35.467  11.283
13439W        W79980  40.867   8.839  12.890
13440W        W79981   9.643  35.053  10.776
13441W        W79982   4.406   5.745   2.346
13442W        W79983  26.108  12.100   3.716
13443W        W79984  22.064  22.981   1.591
13444W        W79985  39.262  22.410  12.554
13445W        W79986  35.498  41.398   4.793
13446W        W79987  31.665   9.864  10.708
13447W        W79988   5.273  39.976  10.149
13448W        W79989   2.482   6.270  14.744
13449W        W79990  25.187   2.249  11.553
13450W        W79991  44.023  44.680   3.322
13451W        W79992  23.914  31.588  11.450
13452W        W79993  23.390  30.031  11.065
13453W        W79994  44.915  32.847  12.910
13454W        W79995  12.670   5.960  13.921
13455W        W79996  25.055  21.267   3.351
13456W        W79997   1.746  33.122   1.745
13457W        W79998  36.271   2.418   3.174
13458W        W79999  30.200  36.551   0.209
13459W        W80000   0.370  12.835  14.766
13460W        W80001  12.222  40.362   0.460
13461W        W80002  25.672  40.272   1.377
13462W        W80003  13.510  21.250  13.383
13463W        W80004  29.283  20.525  14.088
13464W        W80005   7.509  43.609   0.420
13465W        W80006   0.347  43.454   2.806
13466W        W80007  43.187  15.343   0.084
13467W        W80008  36.108  27.424   2.903
13468W        W80009  18.331  41.001  11.493
13469W        W80010   4.444  40.635   0.844
13470W        W80011   9.641  27.510   0.791
13471W        W80012  23.549  34.350  11.617
13472W        W80013  30.650   8.770   4.407
13473W        W80014  11.595  17.077   4.588
13474W        W80015  19.044  18.704   1.928
13475W        W80016  30.600  34.838   2.803
13476W        W80017  27.402  33.373   1.222
13477W        W80018  34.336  24.594  13.064
13478W        W80019  26.428  20.545   0.027
13479W        W80020  11.206  12.977  11.061
13480W        W80021  10.867  41.816   4.125
13481W        W80022  35.775  28.952  14.025
13482W        W80023  33.533   0.004  14.413
13483W        W80024   2.916  27.246   3.723
13484W        W80025  42.012  29.698  12.183
13485W        W80026  36.406   2.219   0.389
13486W        W80027  33.072  16.032   1.811
13487W        W80028  39.516  14.208  14.884
13488W        W80029   8.711   6.585  13.070
13489W        W80030  32.570  41.616  12.044
13490W        W80031  11.895   4.867  10.591
13491W        W80032  36.952   3.124   1.284
13492W        W80033  16.864  34.049   0.725
13493W        W80034  42.031  33.842   3.813
13494W        W80035  37.137  44.522   0.806
13495W        W80036  32.179  11.597   4.032
13496W        W80037  26.174  29.407  12.479
13497W        W80038   7.005  29.400  11.848
13498W        W80039  43.880  33.805  12.965
13499W        W80040   2.938  19.654  11.847
13500W        W80041  25.533  35.013  13.881
13501W        W80042  24.972  29.673   1.839
13502W        W80043  23.051  21.244  13.449
13503W        W80044  22.268   8.346   2.655
13504W        W80045  25.287  23.028   3.577
13505W        W80046  31.654   5.885  14.288
13506W        W80047  19.947  33.046  13.972
13507W        W80048  20.704  34.875  12.908
13508W        W80049  20.978  37.459  13.233
13509W        W80050  30.673  17.052  13.385
13510W        W80051   9.266   8.726  10.767
13511W        W80052  11.505  27.141  11.145
13512W        W80053   1.768  26.715   1.476
13513W        W80054  22.677  28.429   4.273
13514W        W80055  28.598   2.748  11.962
13515W        W80056  21.941  40.765  10.711
13516W        W80057  16.293  17.599   3.276
13517W        W80058  10.212  24.706   4.568
13518W        W80059   8.424  17.565   1.316
13519W        W80060  38.424   2.721   0.324
13520W        W80061  21.220  25.983  11.584
13521W        W80062  44.349   0.406   0.416
13522W        W80063  41.306   3.887   4.885
13523W        W80064  13.803  23.843  14.552
13524W        W80065  22.275  20.799   0.275
13525W        W80066  31.218  10.839  11.021
13526W        W80067  40.390  42.394  14.845
13527W        W80068  36.459  34.876   4.198
13528W        W80069  32.028  42.785   4.085
13529W        W80070   0.441  34.892  13.627
13530W        W80071   4.652   6.829  14.971
13531W        W80072  39.075   9.117  11.252
13532W        W80073  12.414  34.533  14.800
13533W        W80074  38.699  44.649  12.015
13534W        W80075   9.393  22.507  12.039
13535W        W80076   1.295  23.047  14.295
13536W        W80077  29.452   0.847  12.597
13537W        W80078   7.219  44.913  14.777
13538W        W80079  20.294  34.937   3.066
13539W        W80080  37.859  18.633  11.274
13540W        W80081  24.436  41.473   4.799
13541W        W80082  11.870  17.683  14.939
13542W        W80083   9.692  34.122  10.702
13543W        W80084  41.717  29.059  11.638
13544W        W80085  22.647  20.430   0.288
13545W        W80086  11.688  44.361  10.269
13546W        W80087  32.416  13.427   1.844
13547W        W80088  13.409  20.165   4.858
13548W        W80089   0.494   0.213  14.516
13549W        W80090  40.864  23.778   0.579
13550W        W80091  28.460  10.758  12.055
13551W        W80092  30.075   4.898   1.963
13552W        W80093   2.559  27.020   1.457
13553W        W80094  34.800   3.244   0.073
13554W        W80095   1.672   6.281   4.580
13555W        W80096  18.235  34.176  14.455
13556W        W80097  19.108  22.064   3.245
13557W        W80098   0.447  15.690  13.926
13558W        W80099  38.842  17.180  10.181
13559W        W80100  23.205  34.066   3.228
13560W        W80101  41.823  44.776   2.492
13561W        W80102  32.399  31.868   1.817
13562W        W80103  26.228  37.583  13.877
13563W        W80104  19.201   2.021   1.907
13564W        W80105  41.523  12.602  11.407
13565W        W80106  30.642  25.153  11.070
13566W        W80107  34.617  13.286   2.373
13567W        W80108  41.329  27.595   0.373
13568W        W80109  40.698  23.580   4.125
13569W        W80110  11.155   7.218  11.413
13570W        W80111  26.546  24.508   1.877
13571W        W80112  38.441  33.023  10.833
13572W        W80113  16.718  26.956  13.966
13573W        W80114  33.134  25.196   2.466
13574W        W80115  19.517  11.237   0.160
13575W        W80116   5.809   5.490  10.262
13576W        W80117  17.064  41.753   3.861
13577W        W80118   5.469  20.467   3.735
13578W        W80119  44.795  26.740  14.468
13579W        W80120  25.689  14.689   0.381
13580W        W80121  21.405  11.535   4.248
13581W        W80122  28.101  13.392   3.657
13582W        W80123  16.716  11.582  11.971
13583W        W80124  33.868  29.158  11.271
13584W        W80125  11.124  30.482  11.552
13585W        W80126  40.311   4.207  13.957
13586W        W80127  25.171  11.830  11.688
13587W        W80128  40.462  32.468  11.895
13588W        W80129  17.014  20.603   3.713
13589W        W80130   6.648   2.732   2.742
13590W        W80131  12.731  24.152   2.591
13591W        W80132   4.765  24.287   2.630
13592W        W80133   8.953  23.616  13.336
13593W        W80134  28.698  44.770  12.405
13594W        W80135  29.966   3.068   1.542
13595W        W80136  39.005  39.157   3.216
13596W        W80137  42.323   0.855  12.556
13597W        W80138  31.144  19.728   0.333
13598W        W80139   1.277  10.900  14.935
13599W        W80140  34.826  28.881  10.935
13600W        W80141  39.453  15.718  10.445
13601W        W80142   2.035  36.409  11.677
13602W        W80143   4.115  23.883   5.044
13603W        W80144  43.751  32.888   4.055
13604W        W80145  36.894  17.090   4.642
13605W        W80146  28.884  13.263  14.925
13606W        W80147  41.882  10.599  14.331
13607W        W80148  29.947   2.940   2.049
13608W        W80149  11.601  39.485   0.863
13609W        W80150   3.316   3.433   1.988
13610W        W80151   7.670  22.093   0.108
13611W        W80152  14.132  44.242   1.338
13612W        W80153  30.586  16.593  10.718
13613W        W80154   7.204  24.192   0.910
13614W        W80155   7.666  12.829  12.037
13615W        W80156   9.925  24.383  12.553
13616W        W80157   2.760  29.155  12.490
13617W        W80158   2.269  16.199  14.658
13618W        W80159  12.267  28.214  12.497
13619W        W80160  24.189  33.652   0.301
13620W        W80161   3.226   9.722   4.314
13621W        W80162  40.748   6.758  13.988
13622W        W80163  31.397  26.603  10.652
13623W        W80164   5.242  13.054   1.926
13624W        W80165  35.928   6.248  11.621
13625W        W80166  32.905  28.733   0.031
13626W        W80167   4.862  35.045  13.147
13627W        W80168  23.448  38.982  14.247
13628W        W80169  39.913  36.917   0.857
13629W        W80170   6.648  34.088   3.222
13630W        W80171   5.388  14.340   4.536
13631W        W80172  22.604  29.485   1.826
13632W        W80173  16.691  30.855   1.858
13633W        W80174  19.692   0.958  12.478
13634W        W80175   3.208  41.538   4.178
13635W        W80176   7.196   4.822  12.638
13636W        W80177  34.272  27.332  11.545
13637W        W80178   3.032  32.385   3.066
13638W        W80179  43.968  20.945   1.852
13639W        W80180  36.439  14.569   1.846
13640W        W80181  26.223  42.506   1.341
13641W        W80182  33.810  12.989   4.976
13642W        W80183  24.277  18.023  13.460
13643W        W80184  30.192  34.862  13.448
13644W        W80185  28.167   3.193  11.181
13645W        W80186  27.878   2.611  11.950
13646W        W80187  36.699  30.117   3.587
13647W        W80188   7.023   9.883   1.468
13648W        W80189  13.165  38.875  14.083
13649W        W80190  41.926   4.971   3.688
13650W        W80191  23.744  28.159   4.315
13651W        W80192  38.539  40.549   4.167
13652W        W80193  20.306  23.706   4.464
13653W        W80194  34.682  15.250  12.678
13654W        W80195   0.521  40.892   4.446
13655W        W80196  33.920   7.618   1.521
13656W        W80197   5.883  40.842   1.645
13657W        W80198  15.644   1.616  11.145
13658W        W80199  29.154  19.272  11.854
13659W        W80200  10.851  42.431   4.615
13660W        W80201  41.078  25.549   1.917
13661W        W80202  41.870   6.634  11.547
13662W        W80203  33.888  28.355   3.686
13663W        W80204  25.660   4.218  11.955
13664W        W80205   5.352  42.781   3.388
13665W        W80206  17.002  37.342  13.373
13666W        W80207   3.960   5.595   2.570
13667W        W80208  19.661  22.790   4.084
13668W        W80209  33.990  44.724  14.460
13669W        W80210  13.666  26.930   0.860
13670W        W80211  19.255  24.140   1.400
13671W        W80212  31.024  28.290   4.144
13672W        W80213   6.731  18.728  13.440
13673W        W80214  19.801   5.117  14.849
13674W        W80215  33.120  40.137  13.555
13675W        W80216  35.352  22.964  14.936
13676W        W80217  12.161   3.289   3.225
13677W        W80218  38.170  33.521  13.139
13678W        W80219  24.216  27.964   3.544
13679W        W80220  27.386  30.831  11.984
13680W        W80221  13.066  30.180   2.859
13681W        W80222  32.676   0.835  10.407
13682W        W80223   7.948  30.204  11.943
13683W        W80224   2.272  21.641  10.835
13684W        W80225  19.048  26.654  13.538
13685W        W80226  15.791  41.380   2.173
13686W        W80227   4.343  13.826  11.387
13687W        W80228  27.025  40.685   1.705
13688W        W80229  22.927  17.775  10.702
13689W        W80230  23.530  26.983  13.208
13690W        W80231  19.028   7.362  11.134
13691W        W80232   6.395   8.177  12.661
13692W        W80233  23.109   7.210  12.085
13693W        W80234  20.504  22.464  10.637
13694W        W80235  32.249  43.027  12.870
13695W        W80236  19.738  23.512  12.419
13696W        W80237  31.044  41.753   4.584
13697W        W80238   9.761  12.179  12.645
13698W        W80239  13.163  44.853  10.691
13699W        W80240  11.341  36.636  10.439
13700W        W80241   2.281   6.191  13.043
13701W        W80242   8.819  32.509  14.545
13702W        W80243  14.219  39.746   0.427
13703W        W80244   1.995  26.235  14.909
13704W        W80245  20.024  37.559   1.966
13705W        W80246  43.097  38.478   2.444
13706W        W80247  21.947   9.833  12.973
13707W        W80248  30.779  16.799   9.765
13708W        W80249  33.491  32.529  11.015
13709W        W80250  22.251   5.927   0.248
13710W        W80251  41.212  17.095  10.540
13711W        W80252  13.806   7.717  14.489
13712W        W80253  38.827  17.824   2.274
13713W        W80254  20.729  30.518  13.325
13714W        W80255  21.012  17.105  14.954
13715W        W80256  30.006  28.051   0.385
13716W        W80257  25.669  38.111   4.141
13717W        W80258  13.673  37.003  11.889
13718W        W80259   5.659  19.272  14.950
13719W        W80260  12.175  26.875   2.445
13720W        W80261   8.855   8.387  12.880
13721W        W80262  15.160  29.669   5.483
13722W        W80263  43.494  30.916   0.833
13723W        W80264  22.898  12.826   0.712
13724W        W80265  36.356   3.888  12.075
13725W        W80266  23.817   0.443   3.280
13726W        W80267  41.991  11.046  14.688
13727W        W80268  23.968  21.459   1.444
13728W        W80269  44.005  39.898  10.466
13729W        W80270   6.730  17.836  13.065
13730W        W80271  34.009  42.554   4.607
13731W        W80272  19.060   2.310  12.938
13732W        W80273  16.444   3.287  14.997
13733W        W80274   3.391  16.222   2.572
13734W        W80275  14.535  14.670  14.434
13735W        W80276  28.517  28.406  14.049
13736W        W80277  10.789  38.922  10.672
13737W        W80278  38.873  19.140   1.832
13738W        W80279  37.124   7.959   1.367
13739W        W80280  27.460  24.326   3.484
13740W        W80281  11.675  41.205  11.506
13741W        W80282  33.546  28.047   0.665
13742W        W80283  23.007  18.799  13.361
13743W        W80284  44.264   4.150   3.384
13744W        W80285  32.880   0.440  10.683
13745W        W80286  32.278   0.791   2.824
13746W        W80287   6.757  25.873   2.854
13747W        W80288  36.866  17.172  12.986
13748W        W80289  44.373  17.653  12.021
13749W        W80290   6.749  23.908  13.011
13750W        W80291  14.727   8.717   5.002
13751W        W80292  18.322  33.395  10.675
13752W        W80293  13.751  18.242  14.070
13753W        W80294  29.871  42.364   3.313
13754W        W80295  22.041  35.510   2.751
13755W        W80296   1.682  24.874   0.263
13756W        W80297  42.798  41.310   3.789
13757W        W80298  31.064   6.462  12.832
13758W        W80299  34.022  26.974   2.204
13759W        W80300  39.196  39.963  11.268
13760W        W80301  25.195  24.543   1.257
13761W        W80302  15.131  12.123  12.331
13762W        W80303  40.391  35.404  13.411
13763W        W80304  32.202  28.644  12.565
13764W        W80305  41.029   4.862  11.381
13765W        W80306  17.553   4.917   4.067
13766W        W80307   1.547  27.143   1.225
13767W        W80308  27.654  33.709   2.260
13768W        W80309   4.163  36.817   4.283
13769W        W80310  39.206  43.476  12.661
13770W        W80311  24.577  25.610  10.839
13771W        W80312   2.377  37.654  11.434
13772W        W80313  39.403  29.573  10.658
13773W        W80314  41.984  33.394   1.436
13774W        W80315  37.347  20.690  14.130
13775W        W80316  39.822  39.591   2.103
13776W        W80317  28.670  40.769  11.079
13777W        W80318  44.349  23.633   2.396
13778W        W80319  44.389  25.120  10.735
13779W        W80320  32.406  16.713  13.971
13780W        W80321  35.506  16.246   1.364
13781W        W80322  24.942  37.429  13.421
13782W        W80323  12.834   2.399   2.013
13783W        W80324  43.733  21.539  12.433
13784W        W80325  44.888  37.128   3.958
13785W        W80326   0.719  23.608  14.542
13786W        W80327  21.935   1.485  12.038
13787W        W80328   3.755  11.610   2.094
13788W        W80329   5.162   2.501   0.810
13789W        W80330   2.285  24.250   1.787
13790W        W80331  27.788   7.706   4.997
13791W        W80332  30.485  15.904   4.764
13792W        W80333   5.702  15.150   4.088
13793W        W80334  41.936  17.244   1.400
13794W        W80335  33.095  19.061   3.756
13795W        W80336  21.003  23.137   1.107
13796W        W80337  41.990  21.431  11.194
13797W        W80338  33.824  29.128   5.075
13798W        W80339  44.269  18.285   4.652
13799W        W80340  25.435  35.377  10.637
13800W        W80341  17.544  38.845   1.369
13801W        W80342  43.702  15.836  11.436
13802W        W80343  20.212  12.731   4.542
13803W        W80344   2.729  31.099  11.608
13804W        W80345  37.339  27.058   1.009
13805W        W80346  37.784  23.222   2.692
13806W        W80347  38.918  38.587  14.816
13807W        W80348  10.662  26.595  13.550
13808W        W80349  28.969  40.423  14.024
13809W        W80350   0.238  31.260   0.647
13810W        W80351  33.496   6.472  10.740
13811W        W80352   8.439  26.315   2.564
13812W        W80353  21.318   1.451  11.163
13813W        W80354  36.822  25.399   2.342
13814W        W80355  11.288  29.642  13.597
13815W        W80356  27.623   4.030   4.072
13816W        W80357  15.237  17.028  10.949
13817W        W80358  27.154  36.830   3.354
13818W        W80359  12.670  26.036  12.542
13819W        W80360  38.017   9.652   1.835
13820W        W80361  21.740  37.460   0.455
13821W        W80362  19.394   7.261  12.988
13822W        W80363   7.008   2.492  13.928
13823W        W80364   9.257  41.935   2.123
13824W        W80365  30.963  17.935  10.194
13825W        W80366  37.730   8.696   0.196
13826W        W80367  30.254  34.516  11.658
13827W        W80368  18.242   4.727   2.698
13828W        W80369   8.335  35.283  11.800
13829W        W80370  19.797   7.957  11.458
13830W        W80371   1.745   4.155   3.484
13831W        W80372  19.461  22.179  13.170
13832W        W80373  27.903  24.125  14.007
13833W        W80374  27.511  18.949   1.211
13834W        W80375  39.764  19.323   0.801
13835W        W80376  21.305  28.553  12.072
13836W        W80377  30.057  39.948   2.075
13837W        W80378  14.727  37.206  10.658
13838W        W80379   5.813  24.514  13.750
13839W        W80380  39.937  32.451  12.875
13840W        W80381   2.847  33.359  11.954
13841W        W80382  16.226  40.812  11.997
13842W        W80383   5.180   8.374  13.910
13843W        W80384  26.475   1.523   2.772
13844W        W80385  19.002   5.472  13.423
13845W        W80386  22.184  41.008   2.700
13846W        W80387  39.131  43.706  12.182
13847W        W80388   0.267  14.610  14.754
13848W        W80389  17.143  26.387   1.816
13849W        W80390  16.857  42.291  14.024
13850W        W80391  14.086  22.206   2.269
13851W        W80392  26.008  14.852  12.709
13852W        W80393  17.391   3.771   4.226
13853W        W80394  39.454  40.486  11.960
13854W        W80395   9.595  29.034   2.121
13855W        W80396  29.956   0.403   1.900
13856W        W80397   8.835   4.406  12.955
13857W        W80398  43.855  20.462  13.421
13858W        W80399  20.969  40.492   3.357
13859W        W80400  12.112  22.215   2.182
13860W        W80401   6.362  19.737  11.164
13861W        W80402   1.734   9.642  14.094
13862W        W80403  18.267  36.719  10.709
13863W        W80404   0.010  25.738  10.673
13864W        W80405  22.724  33.706  12.261
13865W        W80406  21.236  39.875  12.000
13866W        W80407  28.493   3.908   4.562
13867W        W80408  42.525  30.217  11.151
13868W        W80409   2.264  10.380  13.529
13869W        W80410  24.635   5.168   3.563
13870W        W80411  36.326   0.722  11.083
13871W        W80412  34.032  14.190   2.783
13872W        W80413  23.067  20.195  10.578
13873W        W80414  39.548  21.591   4.143
13874W        W80415  32.394  17.129  14.834
13875W        W80416  34.495   7.152  11.084
13876W        W80417  29.712  38.987  10.286
13877W        W80418  28.506   9.240  10.594
13878W        W80419  30.737  34.084   4.702
13879W        W80420  24.926  14.542  11.024
13880W        W80421  20.571  40.657   3.003
13881W        W80422  32.489  44.080   4.706
13882W        W80423  10.620  35.817   2.706
13883W        W80424  37.465  32.841  13.965
13884W        W80425  41.585  36.122   3.770
13885W        W80426  31.344  19.005   3.143
13886W        W80427  15.864  13.260   4.987
13887W        W80428  19.865  29.432  12.899
13888W        W80429  13.276  29.650   3.573
13889W        W80430  29.507   8.928   3.640
13890W        W80431  28.221  36.907   2.806
13891W        W80432   4.874  26.649  14.061
13892W        W80433  18.155   2.304   4.841
13893W        W80434  39.875  23.219  12.029
13894W        W80435  38.407  33.490   2.640
13895W        W80436  21.652  39.894  12.922
13896W        W80437  11.135  29.837  14.953
13897W        W80438  41.489  40.467  13.030
13898W        W80439  10.553  21.986  12.659
13899W        W80440  38.942   8.709   2.298
13900W        W80441  43.560  14.691   1.211
13901W        W80442   2.812  10.366   4.532
13902W        W80443  24.422  27.666  12.544
13903W        W80444  12.686  32.539  14.249
13904W        W80445   6.087  10.854  11.498
13905W        W80446  14.901   9.425  11.176
13906W        W80447   3.933  32.285   2.929
13907W        W80448  41.024  36.396   0.300
13908W        W80449  13.745   8.002   3.646
13909W        W80450  44.997  11.661  10.660
13910W        W80451  31.537  19.643   3.193
13911W        W80452  39.391  26.488   1.336
13912W        W80453  35.874   1.670   2.714
13913W        W80454  23.108  15.110  10.795
13914W        W80455  27.110  38.674  14.879
13915W        W80456   2.885   0.270   4.386
13916W        W80457  30.207  11.338   2.144
13917W        W80458   7.673  16.925  11.543
13918W        W80459   8.961  15.733  10.041
13919W        W80460  27.860  23.245   4.187
13920W        W80461   6.301  28.624  10.955
13921W        W80462  20.619  28.056  12.520
13922W        W80463  20.406  30.529  12.890
13923W        W80464  10.856  39.387   4.424
13924W        W80465  44.683  37.237   4.437
13925W        W80466  41.966  10.723   1.422
13926W        W80467  11.566  25.587   1.397
13927W        W80468   0.918  25.211   2.650
13928W        W80469  28.223   5.235  13.354
13929W        W80470  32.634  10.662  12.098
13930W        W80471  28.994  31.476   1.203
13931W        W80472  25.722  12.821  12.833
13932W        W80473  30.677   2.381   1.332
13933W        W80474   5.013  29.988   1.831
13934W        W80475  26.021  42.722  14.268
13935W        W80476   4.591  17.688  12.263
13936W        W80477  42.015  20.570  12.956
13937W        W80478  37.779  39.317   2.787
13938W        W80479  40.934   1.091   0.541
13939W        W80480  20.350  39.216  11.086
13940W        W80481   4.818  44.277  13.920
13941W        W80482   6.336   1.772  13.098
13942W        W80483  43.875  43.990   4.963
13943W        W80484  20.258  24.674   0.289
13944W        W80485  27.303  32.997   0.018
13945W        W80486  44.939   8.097  10.740
13946W        W80487   1.827  41.024  11.527
13947W        W80488  13.569  17.487  14.934
13948W        W80489  10.906  35.273   0.897
13949W        W80490  36.089   8.814  14.017
13950W        W80491  30.848  35.703  11.531
13951W        W80492  33.627  11.241   3.098
13952W        W80493  26.976  42.775   1.776
13953W        W80494   9.135   3.897  11.643
13954W        W80495  42.401   0.498  11.301
13955W        W80496  32.610  26.578   9.924
13956W        W80497  36.755   4.071   3.227
13957W        W80498   7.481  10.375   4.827
13958W        W80499  17.658  43.501   1.740
13959W        W80500  11.394   3.688   0.884
13960W        W80501  23.804   4.402   0.917
13961W        W80502  22.590   9.366  12.569
13962W        W80503   6.881   3.798   3.317
13963W        W80504  26.587   6.349   1.434
13964W        W80505  12.915  44.728   4.843
13965W        W80506  11.253  24.103   4.052
13966W        W80507  17.196  38.918  11.568
13967W        W80508  30.556  23.536  14.968
13968W        W80509  30.870  16.597  12.000
13969W        W80510  27.961  16.872   2.767
13970W        W80511   2.978   0.744  14.233
13971W        W80512  16.652  24.667  13.596
13972W        W80513  17.152  27.165  14.731
13973W        W80514  24.962  10.310  14.279
13974W        W80515  43.888  33.054  13.024
13975W        W80516  39.504  43.222   4.155
13976W        W80517  44.969  24.440   3.285
13977W        W80518  16.130   3.808   2.317
13978W        W80519   2.559  14.835  12.480
13979W        W80520  11.851  33.107  10.548
13980W        W80521   4.337   9.344   4.646
13981W        W80522   2.851   9.684   2.210
13982W        W80523  36.986  37.030  13.025
13983W        W80524  30.608  28.092  11.617
13984W        W80525  37.871  29.435   4.581
13985W        W80526  30.168  29.631   3.012
13986W        W80527  24.811  14.240   3.584
13987W        W80528  33.960  18.102   3.759
13988W        W80529  42.517   3.353   3.733
13989W        W80530  39.808   1.209   1.364
13990W        W80531  27.926  16.330   4.120
13991W        W80532   7.876  10.796   3.164
13992W        W80533  26.546  26.404   4.125
13993W        W80534  27.088  25.740  14.758
13994W        W80535  32.325  33.446   1.256
13995W        W80536  26.153  18.291   0.036
13996W        W80537  15.021  20.032   0.557
13997W        W80538  13.436   3.323  11.570
13998W        W80539   8.350  42.872  10.101
13999W        W80540  10.439  42.788  12.817
14000W        W80541   3.017  30.106   4.601
14001W        W80542  13.195  39.335  13.874
14002W        W80543  39.202   5.160  13.629
14003W        W80544  19.969  21.630   2.442
14004W        W80545  15.326  41.001   4.642
14005W        W80546  37.866  32.804   0.835
14006W        W80547  37.007  24.233   4.719
14007W        W80548  21.116  39.564   4.786
14008W        W80549   0.350  23.583  14.896
14009W        W80550  23.220  22.435  13.973
14010W        W80551  30.242  10.581   1.719
14011W        W80552  34.755  33.293   2.073
14012W        W80553  33.958  21.112   4.464
14013W        W80554   6.584  30.776   0.357
14014W        W80555  32.367   6.988   1.334
14015W        W80556   2.411   5.170   4.970
14016W        W80557  40.409   0.054   4.564
14017W        W80558  44.603   4.124  12.883
14018W        W80559  25.803  33.142  11.625
14019W        W80560  37.120  20.058  11.285
14020W        W80561   6.013  35.968   0.293
14021W        W80562  28.606  38.851  11.469
14022W        W80563  25.621  14.215  11.866
14023W        W80564  22.706   5.878  13.399
14024W        W80565  11.529  25.271   3.830
14025W        W80566  29.539  28.022  12.836
14026W        W80567  38.728   6.801   3.973
14027W        W80568  20.721  26.690  11.906
14028W        W80569  42.959  10.769   3.196
14029W        W80570  32.430   7.856   0.407
14030W        W80571   3.830  31.081   1.781
14031W        W80572  33.564   5.866   0.380
14032W        W80573  15.574  16.661  11.907
14033W        W80574  41.773  43.621  12.396
14034W        W80575  18.761  18.754  11.762
14035W        W80576   4.585  24.054  12.145
14036W        W80577   3.019  21.589  13.976
14037W        W80578  16.961  27.429  12.840
14038W        W80579   5.160  33.357   3.149
14039W        W80580  43.335  38.380  11.491
14040W        W80581  41.715   6.858  14.043
14041W        W80582   6.199  36.067  11.575
14042W        W80583  23.975  43.846   0.807
14043W        W80584   0.965  34.862  11.460
14044W        W80585  41.075  25.462   3.739
14045W        W80586  31.078  42.064  14.601
14046W        W80587  36.814  26.581  11.511
14047W        W80588   3.687   0.130  11.265
14048W        W80589  30.349  33.144   4.060
14049W        W80590   2.695  33.914  14.012
14050W        W80591  37.357  15.369  14.455
14051W        W80592  21.062   1.758   1.189
14052W        W80593  21.336  19.315   0.865
14053W        W80594  15.611  32.693   3.139
14054W        W80595  43.813  34.207   4.355
14055W        W80596  29.911  11.254   5.132
14056W        W80597  35.362  40.080   1.686
14057W        W80598   3.525  29.338   2.354
14058W        W80599  29.988   4.138  11.585
14059W        W80600  14.308  10.309   2.118
14060W        W80601  13.625  28.392  13.337
14061W        W80602   3.864  14.247   0.218
14062W        W80603  33.927  16.171   4.656
14063W        W80604  35.107   5.120  14.398
14064W        W80605  32.832  11.173   0.351
14065W        W80606  35.690  43.220  14.710
14066W        W80607  20.005  34.470   0.960
14067W        W80608   2.801  16.767  12.794
14068W        W80609  31.198  38.904  12.047
14069W        W80610  40.762  23.952  11.400
14070W        W80611  10.216  40.186  11.257
14071W        W80612  22.379   1.588  13.428
14072W        W80613  26.565   1.290   1.453
14073W        W80614  14.605  37.604   3.260
14074W        W80615  21.240  34.649  11.998
14075W        W80616  38.843  40.370  13.942
14076W        W80617   3.028  14.050  14.821
14077W        W80618  27.935  40.540  14.010
14078W        W80619  15.492  10.257  12.881
14079W        W80620   9.042  44.458   1.136
14080W        W80621  25.200   3.974   4.867
14081W        W80622  15.128  39.061   4.660
14082W        W80623  23.560  20.358  14.440
14083W        W80624   9.740  24.846  11.616
14084W        W80625  27.528  31.081  14.513
14085W        W80626  42.392  42.277   3.087
14086W        W80627  23.663   8.724   0.758
14087W        W80628  11.760  41.073   4.529
14088W        W80629  31.111  25.712   0.328
14089W        W80630  15.072  38.638  12.377
14090W        W80631  19.971  41.268   1.324
14091W        W80632  15.140  40.230   0.375
14092W        W80633  15.718  39.927  11.190
14093W        W80634  37.947  20.069  11.986
14094W        W80635  37.304  26.550   1.410
14095W        W80636   4.446   0.196   1.233
14096W        W80637   2.416  31.590   2.124
14097W        W80638  24.964  37.481  10.728
14098W        W80639  28.682  17.079  13.118
14099W        W80640   7.376  14.921  14.039
14100W        W80641  27.566  37.114   4.128
14101W        W80642  33.608  44.912  10.548
14102W        W80643  29.167   0.209  11.570
14103W        W80644  18.636  33.027  13.696
14104W        W80645   0.993   4.800  13.480
14105W        W80646  34.982  34.488  11.355
14106W        W80647  28.165   3.037  12.031
14107W        W80648  23.641   0.339   2.461
14108W        W80649  24.992  38.446   4.668
14109W        W80650  29.588  15.424  13.088
14110W        W80651  15.652   5.300   2.349
14111W        W80652  20.448   3.484  12.440
14112W        W80653  43.817  41.139   0.859
14113W        W80654  39.482  34.073  11.618
14114W        W80655   5.640   4.245  10.976
14115W        W80656  13.628  25.973  11.625
14116W        W80657  23.967  20.099   4.158
14117W        W80658   0.419  30.926  12.179
14118W        W80659  20.293  31.526  10.732
14119W        W80660  20.836  37.142   5.061
14120W        W80661  27.476  22.478   0.762
14121W        W80662  30.816  25.077   0.699
14122W        W80663   6.315  25.724   1.094
14123W        W80664   1.229  19.205  10.641
14124W        W80665  42.807  25.177  12.969
14125W        W80666   5.806  24.052   0.817
14126W        W80667  30.097  15.131   4.663
14127W        W80668   6.718   8.688   3.572
14128W        W80669  14.094  43.784   3.823
14129W        W80670   2.467  40.294  11.512
14130W        W80671  22.034  21.088   4.155
14131W        W80672  31.551  25.099  12.371
14132W        W80673  22.067  22.884  14.907
14133W        W80674   3.806  39.533  11.443
14134W        W80675  32.941  12.065   2.391
14135W        W80676  41.444   4.788  10.446
14136W        W80677   2.549  43.526   4.662
14137W        W80678  44.295  34.490  10.035
14138W        W80679   0.384  21.691  13.392
14139W        W80680  30.739  35.407  12.558
14140W        W80681  28.913  40.736  14.496
14141W        W80682  14.250  34.149  11.522
14142W        W80683  18.689   5.448   1.804
14143W        W80684   0.184  25.638   2.756
14144W        W80685  33.581  33.385   2.753
14145W        W80686   8.398  30.100   1.369
14146W        W80687  39.358   0.785   1.885
14147W        W80688   3.480   8.237  11.735
14148W        W80689  14.204  20.330   0.419
14149W        W80690   7.105   1.503  12.998
14150W        W80691  30.643  26.684   1.306
14151W        W80692  15.491  40.957   1.008
14152W        W80693  36.029  36.391  14.918
14153W        W80694  37.545  15.411   4.117
14154W        W80695   9.003  24.698   2.626
14155W        W80696   8.177  17.729   2.590
14156W        W80697  42.828  21.471   0.420
14157W        W80698   5.934  34.462   4.382
14158W        W80699  14.571  24.886  14.850
14159W        W80700  29.088  21.622   3.271
14160W        W80701  35.449  26.773  12.444
14161W        W80702   1.840   3.779   0.052
14162W        W80703  37.843  11.572  13.015
14163W        W80704   4.873  42.438   1.290
14164W        W80705   4.838  16.107  13.819
14165W        W80706  33.155  11.542   4.764
14166W        W80707  33.033  21.517  11.672
14167W        W80708   3.426  26.455  13.984
14168W        W80709  11.642  39.987   3.172
14169W        W80710  34.481   9.625   2.177
14170W        W80711  23.663  15.142   3.269
14171W        W80712   9.416  29.431   2.387
14172W        W80713  13.046  27.405   4.096
14173W        W80714   9.951  27.613   1.204
14174W        W80715   8.108  30.234  13.092
14175W        W80716  12.842   0.731   0.861
14176W        W80717  44.125  15.555  11.531
14177W        W80718  10.838  10.253  14.391
14178W        W80719   1.972  37.055  11.022
14179W        W80720   9.131  28.783  14.136
14180W        W80721  19.620  28.503   2.489
14181W        W80722  34.417  18.837   4.655
14182W        W80723   5.946  41.814   1.802
14183W        W80724  10.344   8.229  14.126
14184W        W80725  17.768  44.271   4.799
14185W        W80726  42.961  21.528   1.819
14186W        W80727  31.075  38.051   1.540
14187W        W80728  29.540  21.580   1.361
14188W        W80729  18.606  42.721  10.805
14189W        W80730  14.748  44.202   4.515
14190W        W80731  36.629  40.296  14.410
14191W        W80732   1.509   5.816   3.240
14192W        W80733  37.384  32.102   2.794
14193W        W80734  21.033  26.445  14.764
14194W        W80735  41.503   8.761   3.326
14195W        W80736  40.090  23.133  13.432
14196W        W80737  32.809  34.546   0.910
14197W        W80738  26.479  29.056  12.253
14198W        W80739   2.872  43.918  13.370
14199W        W80740  12.302  42.649  13.492
14200W        W80741  26.643  19.389   0.164
14201W        W80742  31.904  42.641   0.489
14202W        W80743  15.300  23.569  11.300
14203W        W80744   5.262   2.366  13.497
14204W        W80745  27.981   2.803   4.816
14205W        W80746   9.955  33.709  11.479
14206W        W80747  23.816  15.425  11.168
14207W        W80748   4.872  28.460   0.336
14208W        W80749  30.020   9.133  14.504
14209W        W80750   6.276   7.351   3.643
14210W        W80751  33.581  11.551  14.014
14211W        W80752  44.345  22.686   1.385
14212W        W80753   1.893  16.368  11.549
14213W        W80754  18.782  25.106   0.363
14214W        W80755  12.350  13.882  12.016
14215W        W80756  36.495  40.857  13.290
14216W        W80757  33.925  32.611   0.439
14217W        W80758  23.106  19.592   0.958
14218W        W80759  29.009   6.421   3.046
14219W        W80760   2.377  44.648  10.360
14220W        W80761  43.603  29.486   1.861
14221W        W80762  18.548  13.201  11.380
14222W        W80763   7.879  32.092  10.205
14223W        W80764  37.631  27.203  14.588
14224W        W80765  35.345  40.563   0.175
14225W        W80766  13.188  24.261  10.822
14226W        W80767   0.486   9.175   0.344
14227W        W80768  12.678  28.200  10.772
14228W        W80769  34.038   0.275  13.522
14229W        W80770   4.429  10.307   1.997
14230W        W80771  36.166  23.199  12.748
14231W        W80772  39.951   2.266   1.307
14232W        W80773   2.883  24.623   3.385
14233W        W80774  33.971  25.589   1.162
14234W        W80775  25.536  10.615  12.992
14235W        W80776  41.623   6.446   2.294
14236W        W80777  42.459  24.498   1.821
14237W        W80778  14.897   1.203  12.202
14238W        W80779   6.782  14.691  14.859
14239W        W80780  35.612  11.171  12.840
14240W        W80781  32.107  13.370   1.018
14241W        W80782   9.357  27.739  14.052
14242W        W80783  40.960  15.905   9.916
14243W        W80784  26.988  38.581   0.381
14244W        W80785  28.556  24.749  11.079
14245W        W80786   2.005   5.878   0.787
14246W        W80787  26.661  19.183   1.143
14247W        W80788  23.995  13.523   3.601
14248W        W80789   7.656   8.924  14.207
14249W        W80790   3.985  24.550   3.721
14250W        W80791  31.066  13.208  14.418
14251W        W80792  30.898  16.195  14.497
14252W        W80793  36.945  42.825  14.110
14253W        W80794   7.508  30.083   1.682
14254W        W80795  13.711  21.091   2.427
14255W        W80796  37.621  14.961   3.823
14256W        W80797  20.519  14.895  14.907
14257W        W80798  44.750  23.696  10.456
14258W        W80799  42.852  15.183   4.609
14259W        W80800   8.573  23.421  11.091
14260W        W80801  33.873   8.919   1.292
14261W        W80802  13.120   7.975  13.307
14262W        W80803  44.015  18.678  10.631
14263W        W80804   4.361  36.911   2.002
14264W        W80805  17.737  41.495  11.111
14265W        W80806  36.089   3.656   1.209
14266W        W80807  27.436  36.559   2.810
14267W        W80808  13.070  27.536  13.440
14268W        W80809  37.144  44.901  10.207
14269W        W80810  33.371  15.674  11.482
14270W        W80811  41.075   3.517   4.612
14271W        W80812   3.751  40.312   2.398
14272W        W80813  10.599   8.650  13.455
14273W        W80814   4.636  33.986  13.756
14274W        W80815  36.629  20.981  12.939
14275W        W80816   5.791  34.355  12.872
14276W        W80817  23.734  27.876   3.311
14277W        W80818  21.993  28.683   1.392
14278W        W80819  13.566  36.553  11.168
14279W        W80820  21.218  13.554  11.694
14280W        W80821   6.155  13.646  10.123
14281W        W80822  44.019  21.893   2.527
14282W        W80823  19.067   4.364  11.073
14283W        W80824  20.271  34.443   2.845
14284W        W80825  42.195   4.437   2.028
14285W        W80826  14.146  22.581  13.137
14286W        W80827   8.300  12.436   0.708
14287W        W80828  33.563  13.997   2.660
14288W        W80829  34.116  40.396  14.600
14289W        W80830  18.625  31.183   3.094
14290W        W80831  44.591  40.577  11.101
14291W        W80832  40.234  10.317   1.079
14292W        W80833  38.782  17.630   0.394
14293W        W80834  35.449  13.261   4.228
14294W        W80835  31.563  40.076   1.336
14295W        W80836  32.572  43.314  13.483
14296W        W80837  39.407   5.857   2.150
14297W        W80838  16.300  35.095   3.807
14298W        W80839  36.944  10.950  14.378
14299W        W80840   3.857   8.246  13.552
14300W        W80841  30.232  15.801  14.580
14301W        W80842  29.745  14.658   3.756
14302W        W80843  20.134   9.889   0.749
14303W        W80844  34.566  29.822   1.624
14304W        W80845   4.265   9.511  11.640
14305W        W80846  24.655  26.219  14.828
14306W        W80847  24.703   0.099   1.239
14307W        W80848  37.807  36.056  11.749
14308W        W80849  19.967   0.413  13.163
14309W        W80850  25.588  22.266   4.182
14310W        W80851  41.683  20.619  12.571
14311W        W80852   9.141  37.119   0.778
14312W        W80853  28.819  25.911   4.128
14313W        W80854  44.531  11.269   2.990
14314W        W80855  28.772  10.450  14.419
14315W        W80856  19.024  35.559  14.354
14316W        W80857   7.635  42.577  10.338
14317W        W80858  40.305   4.176  11.123
14318W        W80859   9.249  32.839   4.251
14319W        W80860  32.960  15.239  13.380
14320W        W80861  24.095  21.550   2.376
14321W        W80862  24.539  24.586   0.503
14322W        W80863  41.301  28.501   0.320
14323W        W80864  38.562  37.303   2.253
14324W        W80865  27.030  14.141   4.699
14325W        W80866  41.281  26.391  12.923
14326W        W80867  32.984   2.921  13.359
14327W        W80868   3.793  28.976  11.433
14328W        W80869  24.542  10.078  13.518
14329W        W80870  21.051   2.254   1.316
14330W        W80871  30.506  15.579  11.852
14331W        W80872   8.548  11.003   4.199
14332W        W80873  26.532  40.264  13.515
14333W        W80874   1.003  10.050   2.710
14334W        W80875   6.968  44.500   0.967
14335W        W80876  19.016  15.876  10.584
14336W        W80877  19.402  43.424   1.862
14337W        W80878   5.259  34.112   2.241
14338W        W80879  33.167  42.333  12.029
14339W        W80880   7.946  37.677   0.505
14340W        W80881  31.006  23.682  14.344
14341W        W80882  24.448  28.625  14.919
14342W        W80883   1.892   0.777  12.544
14343W        W80884  17.619   2.734  11.721
14344W        W80885  42.515  41.812   3.888
14345W        W80886   9.704  32.487  14.873
14346W        W80887  11.351  41.095   9.820
14347W        W80888   6.383  26.071   2.012
14348W        W80889  36.114  13.644   4.284
14349W        W80890   6.327  34.963   4.106
14350W        W80891   0.523  43.599   0.215
14351W        W80892  28.213  26.633  11.526
14352W        W80893  38.852  12.231  13.549
14353W        W80894  15.338   3.755  10.310
14354W        W80895  30.653   6.639   1.153
14355W        W80896  13.716  14.287  12.482
14356W        W80897   5.284  41.033  14.365
14357W        W80898  38.598   4.744  11.571
14358W        W80899  42.803   6.811   2.954
14359W        W80900  43.715  20.057   4.777
14360W        W80901  38.363  15.614   3.080
14361W        W80902  27.484  24.814   2.670
14362W        W80903   1.594  30.150   2.322
14363W        W80904  26.007  28.255   4.796
14364W        W80905   4.215  40.528   2.315
14365W        W80906   4.442  30.194   3.195
14366W        W80907  43.395   2.416   4.964
14367W        W80908  25.449  31.384  11.102
14368W        W80909  21.480   0.922   0.403
14369W        W80910  32.276  14.298   4.677
14370W        W80911  33.361   6.313   1.343
14371W        W80912  43.105   2.770   0.438
14372W        W80913  24.799   9.159   2.480
14373W        W80914  10.425   1.902  14.736
14374W        W80915  17.383  32.097  10.982
14375W        W80916  42.676   6.816   4.352
14376W        W80917  35.086  13.066   1.287
14377W        W80918  36.889  21.150   4.673
14378W        W80919  33.288  41.110   4.122
14379W        W80920  28.545  43.960   2.626
14380W        W80921  21.724   2.625   2.974
14381W        W80922  10.187  24.512  11.662
14382W        W80923  11.597  37.994   9.970
14383W        W80924   4.330  12.144   3.628
14384W        W80925   0.161  10.541  13.418
14385W        W80926   1.696  25.737   4.110
14386W        W80927  32.617  25.403  11.112
14387W        W80928  20.075  25.743   2.180
14388W        W80929  39.778  19.624  14.819
14389W        W80930  20.284   3.430   1.953
14390W        W80931   1.976  27.036  13.565
14391W        W80932  27.433  11.398  11.665
14392W        W80933  39.465  28.668  13.683
14393W        W80934  37.452   4.407   0.995
14394W        W80935   2.152   3.735   3.946
14395W        W80936  43.583  37.611   3.354
14396W        W80937  25.663  28.880  13.172
14397W        W80938  18.256  22.747  14.362
14398W        W80939  23.694  25.879   2.891
14399W        W80940  22.968  26.450   5.098
14400W        W80941  39.515  37.334  14.788
14401W        W80942  13.386  25.172   2.622
14402W        W80943   7.142  21.788   3.258
14403W        W80944  25.390  23.487   4.636
14404W        W80945  21.842   6.485   3.160
14405W        W80946   8.366  17.818  13.409
14406W        W80947   5.845   6.722   2.927
14407W        W80948  21.713  29.084  13.475
14408W        W80949  24.640  32.199   2.614
14409W        W80950  41.549  12.857  11.854
14410W        W80951   3.471  15.790  12.177
14411W        W80952  26.264  14.287   2.184
14412W        W80953  37.593  27.640   2.639
14413W        W80954  33.298  41.852  12.872
14414W        W80955   4.862  12.037  10.993
14415W        W80956  39.486  36.984  11.809
14416W        W80957   4.787  18.237  11.712
14417W        W80958  34.374  37.170   0.357
14418W        W80959   8.897   7.468   4.536
14419W        W80960  20.969  18.473  11.363
14420W        W80961   5.686   0.961   1.753
14421W        W80962  11.287  13.844  12.498
14422W        W80963  19.653   5.755   0.204
14423W        W80964  40.033  41.368  14.936
14424W        W80965   8.599   8.836  12.859
14425W        W80966   9.599  35.428  13.437
14426W        W80967  20.283  30.117  12.330
14427W        W80968  20.063  39.309   2.794
14428W        W80969   5.457  15.540   1.362
14429W        W80970   8.922   9.267  10.726
14430W        W80971  37.306  25.115  14.985
14431W        W80972  35.374  43.785  12.077
14432W        W80973  23.980  10.936  11.998
14433W        W80974  26.765  40.516   0.529
14434W        W80975  16.600  33.575  12.465
14435W        W80976  43.755  16.815  12.382
14436W        W80977  11.820  33.130  12.404
14437W        W80978  35.944  41.593   1.732
14438W        W80979  30.616  14.865  14.808
14439W        W80980  43.895  44.218   2.386
14440W        W80981  17.016  33.788   2.843
14441W        W80982  12.669   6.996  11.591
14442W        W80983  41.417  40.926   3.871
14443W        W80984  25.266  12.647  13.057
14444W        W80985   9.470  13.067   0.784
14445W        W80986   6.862   0.838   2.481
14446W        W80987  32.545  19.245   1.766
14447W        W80988  11.326  13.283  10.518
14448W        W80989  31.821  16.718   3.252
14449W        W80990  31.863  25.108  11.503
14450W        W80991  36.252   1.616  10.260
14451W        W80992  40.085  15.612   0.208
14452W        W80993   5.409  34.561  11.486
14453W        W80994  20.599  13.819  13.839
14454W        W80995  25.218  32.436  11.568
14455W        W80996  28.008  30.626   3.771
14456W        W80997   1.868  10.884  11.996
14457W        W80998  27.922  43.619   1.401
14458W        W80999   0.111  30.985  12.933
14459W        W81000   2.246  11.954  14.483
14460W        W81001   0.074  21.346  10.603
14461W        W81002  20.802  11.804  13.808
14462W        W81003   5.121  12.183   3.701
14463W        W81004   5.777  32.526   3.129
14464W        W81005   3.960  20.156   1.756
14465W        W81006  43.020  27.727   2.291
14466W        W81007  19.895   0.375   4.128
14467W        W81008  31.475  10.355  10.662
14468W        W81009  13.655  40.499   4.472
14469W        W81010  37.613  42.837  11.494
14470W        W81011  35.326  13.161  14.895
14471W        W81012   9.546  17.257   2.422
14472W        W81013  24.751  23.046   3.651
14473W        W81014  30.854   4.411   1.918
14474W        W81015  21.583   2.822  12.476
14475W        W81016  33.592  10.374  10.707
14476W        W81017  44.377  34.557   4.357
14477W        W81018  25.446   0.970  14.830
14478W        W81019  23.931  26.274   5.204
14479W        W81020  39.984   7.899  13.546
14480W        W81021  25.615  31.112   4.452
14481W        W81022   3.418   7.351   2.135
14482W        W81023  40.852   6.985  12.453
14483W        W81024  43.872  37.968  12.818
14484W        W81025  10.242  26.146   4.907
14485W        W81026  13.127  32.715   2.361
14486W        W81027  28.859  27.061   1.171
14487W        W81028  19.736  19.001   3.619
14488W        W81029  27.974   2.689   2.294
14489W        W81030  25.272  20.950  14.392
14490W        W81031  23.437   7.763  11.113
14491W        W81032  17.397  18.187   3.594
14492W        W81033   2.600   6.186   0.249
14493W        W81034   0.512  11.376  12.562
14494W        W81035  15.933  11.406   4.185
14495W        W81036  27.917   2.133  10.266
14496W        W81037   2.726  28.458   4.018
14497W        W81038  16.073  11.689   2.370
14498W        W81039  38.043   7.759  11.580
14499W        W81040   8.886   4.387   2.421
14500W        W81041  37.963  12.124  14.570
14501W        W81042  27.776   2.981   3.308
14502W        W81043  24.651  27.162   3.405
14503W        W81044  16.556  34.869   4.773
14504W        W81045  38.133  39.445   0.042
14505W        W81046  13.800  17.180   0.259
14506W        W81047  40.344   3.017  12.060
14507W        W81048  16.309  38.848   4.048
14508W        W81049   1.063  31.885   2.488
14509W        W81050   0.767  43.292  13.083
14510W        W81051   7.258  25.809   2.730
14511W        W81052  43.952  21.816  13.781
14512W        W81053  27.438  42.999  13.492
14513W        W81054  39.980  33.561   1.373
14514W        W81055  26.621  13.653   4.642
14515W        W81056  26.218  11.588  12.109
14516W        W81057  15.385   8.695  11.482
14517W        W81058  20.960  13.726   4.056
14518W        W81059   0.981   9.366  12.662
14519W        W81060  20.683  33.071   1.827
14520W        W81061   3.617  14.645   2.829
14521W        W81062  24.439  42.088  13.594
14522W        W81063   8.391  29.900  12.693
14523W        W81064  14.201  33.755   0.685
14524W        W81065   1.798  39.738  14.556
14525W        W81066   4.245   1.788   3.335
14526W        W81067  42.721   3.130  10.514
14527W        W81068  29.646  34.085   1.746
14528W        W81069  41.059  38.967  11.712
14529W        W81070  12.583  13.594   2.667
14530W        W81071  31.514  12.807   1.386
14531W        W81072  41.212  44.302   1.759
14532W        W81073  30.141  14.105   2.979
14533W        W81074  17.374  44.810  12.959
14534W        W81075  28.250  37.793   2.894
14535W        W81076  44.956  24.232   0.948
14536W        W81077   9.264  17.359  13.120
14537W        W81078  44.157  39.975  14.934
14538W        W81079  31.112  10.928  12.822
14539W        W81080  13.619  24.015  12.934
14540W        W81081  43.436  12.839   5.039
14541W        W81082  29.621  25.255   1.250
14542W        W81083  12.011  13.638   4.402
14543W        W81084  20.389  16.159   2.792
14544W        W81085  40.854  18.530  12.457
14545W        W81086  32.877   8.596  13.588
14546W        W81087  19.522  21.494   3.707
14547W        W81088  14.788  22.170   1.260
14548W        W81089   4.115  25.416  11.643
14549W        W81090  35.568   0.529  12.634
14550W        W81091  37.356  27.469  12.563
14551W        W81092  24.958   2.882  13.185
14552W        W81093  37.487   2.389   5.523
14553W        W81094  14.038  16.949  11.428
14554W        W81095  23.476   3.506   1.831
14555W        W81096  43.165  40.866   4.563
14556W        W81097  35.502  44.974  11.701
14557W        W81098   2.652  17.622   3.751
14558W        W81099  20.609  17.795   1.007
14559W        W81100   3.155  21.611  11.543
14560W        W81101  44.777  23.674   2.095
14561W        W81102  37.797   3.299  12.093
14562W        W81103   4.441  26.497   2.286
14563W        W81104  21.282   5.262   3.232
14564W        W81105  38.356  29.846  14.846
14565W        W81106   0.100  24.448  12.470
14566W        W81107  15.577  22.122   4.800
14567W        W81108   7.449   4.954  14.773
14568W        W81109  28.710  17.813   4.325
14569W        W81110   9.405  33.666  12.859
14570W        W81111  44.369  38.147   2.359
14571W        W81112  32.062  10.237   0.761
14572W        W81113  25.018   4.508  14.437
14573W        W81114  31.801  35.522  13.884
14574W        W81115  27.008  12.271  11.504
14575W        W81116  41.803  41.290   2.268
14576W        W81117   9.646  15.286   0.472
14577W        W81118  21.134  16.693   1.379
14578W        W81119  33.460   9.858   2.871
14579W        W81120  37.752  19.548   3.696
14580W        W81121  22.867  34.856  11.030
14581W        W81122  37.840   1.741  13.129
14582W        W81123  32.171   6.102  11.926
14583W        W81124  24.522  40.592  13.466
14584W        W81125  20.696  25.883  12.586
14585W        W81126  38.018   2.660  14.970
14586W        W81127  32.936  34.070  10.900
14587W        W81128   2.325  16.254   1.067
14588W        W81129  37.458   6.132  10.475
14589W        W81130   4.307   2.466   2.713
14590W        W81131  23.645  43.651  14.989
14591W        W81132   3.300  41.826   4.778
14592W        W81133  40.984  38.615   0.607
14593W        W81134   8.431  10.797  12.454
14594W        W81135  32.906  43.363   0.957
14595W        W81136  41.514  29.515  12.346
14596W        W81137   0.259  23.279   1.209
14597W        W81138   6.425  20.573  12.903
14598W        W81139  25.833  37.258  13.575
14599W        W81140  19.669  41.524   1.867
14600W        W81141  35.477   5.752  14.128
14601W        W81142  39.316  34.107  12.487
14602W        W81143   6.429  34.438   4.347
14603W        W81144  38.116   4.244   0.337
14604W        W81145  41.960   8.828   0.374
14605W        W81146   8.772  30.011   4.279
14606W        W81147  36.490  32.339   4.344
14607W        W81148  33.692  20.617   0.394
14608W        W81149  27.449  34.400   3.367
14609W        W81150  25.930  19.148  10.730
14610W        W81151  35.110  22.064   3.503
14611W        W81152   1.481  11.703   0.911
14612W        W81153   2.706  17.969   4.931
14613W        W81154  10.114  19.065  12.354
14614W        W81155   5.574   7.741  12.532
14615W        W81156   3.788  15.667  13.052
14616W        W81157  42.690   8.699   0.966
14617W        W81158  24.682  26.590   4.176
14618W        W81159  31.969  26.961   1.797
14619W        W81160  42.675  28.813  11.118
14620W        W81161   1.341  29.830   0.452
14621W        W81162  35.460  40.708   3.435
14622W        W81163  17.773  38.924   2.830
14623W        W81164  42.476  18.147   4.466
14624W        W81165  15.128  18.335   3.120
14625W        W81166   7.341  39.017   0.754
14626W        W81167   5.762   3.876   4.067
14627W        W81168  10.930  11.787   1.766
14628W        W81169   6.158  40.487  12.523
14629W        W81170  44.025  39.192  14.435
14630W        W81171  14.113   9.288   3.094
14631W        W81172  16.115  37.396  12.893
14632W        W81173   0.076  38.760   1.293
14633W        W81174   3.394   6.840   1.913
14634W        W81175   2.922   5.937   1.755
14635W        W81176  18.055  27.467  12.961
14636W        W81177  38.988  40.732  10.430
14637W        W81178  37.237  42.020  13.458
14638W        W81179  37.139  10.898   4.232
14639W        W81180  43.954  20.338   2.690
14640W        W81181  29.947  28.273   2.751
14641W        W81182   7.932  19.543  12.939
14642W        W81183  32.542  10.840  12.907
14643W        W81184  29.565  44.916   0.862
14644W        W81185  16.126  31.377   2.332
14645W        W81186   6.721  12.080  12.855
14646W        W81187  29.208  20.665  10.597
14647W        W81188   8.709   2.786   4.324
14648W        W81189   1.821   4.839  10.996
14649W        W81190  20.650  44.826   1.154
14650W        W81191  18.983  31.595  11.207
14651W        W81192   2.963   3.152   2.779
14652W        W81193  30.443  28.220   1.225
14653W        W81194  42.375  14.347   0.524
14654W        W81195  24.313  15.317  13.836
14655W        W81196   6.236  16.271  13.873
14656W        W81197  19.302  31.445  13.433
14657W        W81198   2.729   3.505  14.075
14658W        W81199   5.799  12.681   3.663
14659W        W81200   8.719  30.628  12.024
14660W        W81201  18.082  26.095  11.590
14661W        W81202   6.241  12.794   0.853
14662W        W81203  38.029  41.035   3.230
14663W        W81204   8.305  42.462   2.734
14664W        W81205   9.760  15.568   3.663
14665W        W81206  11.995  21.514  10.037
14666W        W81207  24.257  36.765  13.438
14667W        W81208  31.896   9.822  12.719
14668W        W81209  37.402  24.937  12.120
14669W        W81210  34.791  30.099  11.505
14670W        W81211   6.967  38.935  13.802
14671W        W81212   7.827  40.795   3.577
14672W        W81213   7.526   2.022   0.171
14673W        W81214   0.395  28.555  12.515
14674W        W81215  17.226  34.348  12.001
14675W        W81216   8.179  33.508   4.234
14676W        W81217  23.684  44.824  12.491
14677W        W81218  27.122   9.882  10.996
14678W        W81219   6.553  43.929  11.137
14679W        W81220  17.246  33.367  14.441
14680W        W81221   2.328  26.309   0.705
14681W        W81222   6.825  26.144  14.818
14682W        W81223   3.428   6.140  13.490
14683W        W81224  11.905  21.002   2.119
14684W        W81225   5.503   2.045  12.328
14685W        W81226  31.204  28.989  12.808
14686W        W81227  16.305   0.933   0.015
14687W        W81228   2.299  13.143   1.857
14688W        W81229  37.234   7.235   0.338
14689W        W81230  14.825  14.642  13.948
14690W        W81231  32.474   8.713   3.667
14691W        W81232  41.926  36.644  14.795
14692W        W81233   0.849  34.667  12.126
14693W        W81234  36.581  28.461  14.032
14694W        W81235  12.088  25.093   1.738
14695W        W81236  13.050   9.847  11.156
14696W        W81237  15.726   2.351  11.520
14697W        W81238  33.097   4.768  14.948
14698W        W81239  10.559   0.201  14.456
14699W        W81240  19.032   3.210  11.479
14700W        W81241  10.079   9.478   2.248
14701W        W81242   6.636  19.152  13.757
14702W        W81243  12.725  33.158   3.681
14703W        W81244   9.371  41.028  12.566
14704W        W81245  28.044   1.311  12.148
14705W        W81246  22.809  22.704   4.574
14706W        W81247  18.526  11.669   4.601
14707W        W81248  35.619  15.387  13.566
14708W        W81249  29.892  37.108   4.851
14709W        W81250  18.252  18.714  14.291
14710W        W81251   8.370   0.623  12.413
14711W        W81252   9.108  27.818  10.636
14712W        W81253  44.400  39.504   3.316
14713W        W81254  40.177   4.936   3.718
14714W        W81255  42.222  16.823  14.554
14715W        W81256  11.849  39.428  11.351
14716W        W81257   4.309  30.028   4.772
14717W        W81258   3.493  16.144   3.793
14718W        W81259  35.417  11.588   4.412
14719W        W81260  34.615  18.013  14.825
14720W        W81261  41.026  18.541  11.971
14721W        W81262  20.451  17.132   2.727
14722W        W81263   4.981  21.189   4.770
14723W        W81264  26.510  28.669   0.643
14724W        W81265   2.753  35.922  12.016
14725W        W81266  42.569  42.346  11.940
14726W        W81267  33.798   1.928   0.466
14727W        W81268   0.715   5.681   3.227
14728W        W81269   8.474   2.939  10.868
14729W        W81270  19.280  43.143   0.439
14730W        W81271  25.789  14.233   1.231
14731W        W81272  19.838   1.532  13.835
14732W        W81273   3.873  18.221   4.200
14733W        W81274  18.110  42.245  11.923
14734W        W81275   4.793  22.552   4.320
14735W        W81276   6.049  11.544   0.385
14736W        W81277  16.870  37.080  13.812
14737W        W81278  35.133  14.587  13.455
14738W        W81279  42.434  18.761  11.652
14739W        W81280  40.469   9.461  11.791
14740W        W81281   2.797  15.970   1.981
14741W        W81282  21.235  10.369  13.496
14742W        W81283  15.868  43.992   1.745
14743W        W81284  38.066  32.164  13.508
14744W        W81285   2.377  32.107   2.204
14745W        W81286  27.786  23.808   2.411
14746W        W81287  20.805  40.656  12.444
14747W        W81288  34.535   5.341   5.009
14748W        W81289   8.278  23.268   4.299
14749W        W81290  30.931  23.501  11.615
14750W        W81291  18.051  11.153   0.217
14751W        W81292  24.702  43.386   4.577
14752W        W81293  16.925   1.407  13.453
14753W        W81294  31.763  24.577   0.885
14754W        W81295  25.690   7.898  13.074
14755W        W81296  23.531  24.003   1.768
14756W        W81297  14.278  30.465  12.144
14757W        W81298   3.335  28.562  14.362
14758W        W81299  20.837  22.329  13.578
14759W        W81300   1.010  35.525   2.389
14760W        W81301  43.989  35.983  11.762
14761W        W81302  31.162  43.802  10.869
14762W        W81303   7.138  14.711   1.637
14763W        W81304   5.502  19.243   0.880
14764W        W81305  17.463  30.257   0.803
14765W        W81306   0.202  39.251   2.253
14766W        W81307   4.627  30.661   3.100
14767W        W81308  19.543  19.736   3.906
14768W        W81309   1.506   9.427  12.809
14769W        W81310   8.882   3.226  14.979
14770W        W81311  43.313  23.656   4.192
14771W        W81312  34.887  31.476  10.628
14772W        W81313  29.082  21.115  11.544
14773W        W81314  16.585  27.739  14.517
14774W        W81315  19.494   0.769   1.881
14775W        W81316  16.670   2.328  14.727
14776W        W81317  33.006   8.465  11.948
14777W        W81318  35.370   0.824   4.864
14778W        W81319   0.817   4.349  12.317
14779W        W81320  18.670   0.274   2.307
14780W        W81321   9.842  29.082   3.125
14781W        W81322  41.487   7.927   4.542
14782W        W81323  16.596  31.562  11.600
14783W        W81324   6.565  36.722   3.757
14784W        W81325  29.530  38.104  11.387
14785W        W81326  14.547  39.840  10.738
14786W        W81327  36.439   3.929  11.154
14787W        W81328   4.347  41.243  12.536
14788W        W81329   3.276   7.051   4.671
14789W        W81330  19.625   1.993  12.518
14790W        W81331  27.420   5.721  10.691
14791W        W81332  24.359   4.635  10.377
14792W        W81333  38.257  28.240   0.914
14793W        W81334  25.599  43.344   0.504
14794W        W81335   0.211  37.486   4.192
14795W        W81336  28.925  34.090  12.138
14796W        W81337  11.343  21.636  10.667
14797W        W81338  25.502  38.995   3.196
14798W        W81339  35.210  15.770  11.179
14799W        W81340   0.981  41.538  12.379
14800W        W81341  35.634  36.449  13.455
14801W        W81342  24.370  37.850  14.800
14802W        W81343   2.278  40.705   4.691
14803W        W81344  41.500  11.903  12.124
14804W        W81345  42.805  16.688   4.311
14805W        W81346  16.178  10.312   1.304
14806W        W81347  15.169  42.490   4.097
14807W        W81348  22.086  25.676   1.252
14808W        W81349   7.899  38.588   0.465
14809W        W81350  21.976  22.568  10.966
14810W        W81351  18.806  22.228   4.117
14811W        W81352  15.770  31.033  12.935
14812W        W81353  34.442  16.224   3.758
14813W        W81354  23.806  43.841   2.526
14814W        W81355  30.244   8.161  11.578
14815W        W81356  26.545  19.783   4.829
14816W        W81357  32.995  36.646   3.604
14817W        W81358  29.878  31.020   2.786
14818W        W81359   1.580  36.919   2.421
14819W        W81360   7.850  36.976   4.994
14820W        W81361  15.775  30.385  14.036
14821W        W81362  34.861  12.420  14.272
14822W        W81363  16.617  11.690  14.498
14823W        W81364  44.737   4.248  12.075
14824W        W81365  34.902  13.272  13.994
14825W        W81366  24.108   7.927   2.310
14826W        W81367  26.441  13.553  13.072
14827W        W81368  24.741  44.449   1.898
14828W        W81369   6.053  10.162  10.096
14829W        W81370  43.540  33.346  11.330
14830W        W81371  18.581   1.410  12.050
14831W        W81372  30.993  21.528   0.815
14832W        W81373  25.669  37.509  11.935
14833W        W81374  13.215  24.691  13.509
14834W        W81375  16.808  14.709  14.870
14835W        W81376  17.310  35.406  14.449
14836W        W81377   7.363  14.014  13.949
14837W        W81378   1.748  10.367   0.360
14838W        W81379  26.072   7.254   3.241
14839W        W81380  33.907  38.468   1.748
14840W        W81381  44.753  43.549  11.536
14841W        W81382  13.612  34.954  13.037
14842W        W81383   6.304  19.003  12.842
14843W        W81384  44.360  42.764   4.564
14844W        W81385  12.793   5.829   2.247
14845W        W81386  35.892   5.726  12.366
14846W        W81387  14.833   2.815  13.486
14847W        W81388  21.795   0.987  12.061
14848W        W81389  25.052   7.559  13.362
14849W        W81390  43.813   0.025   4.213
14850W        W81391  10.597  25.467  12.460
14851W        W81392  35.247   6.840   4.170
14852W        W81393  15.936   3.013  14.304
14853W        W81394  36.914  44.262  14.569
14854W        W81395   4.745  40.295   0.256
14855W        W81396  34.024  11.744   9.709
14856W        W81397  10.871  16.624   1.593
14857W        W81398   8.291   2.597   2.254
14858W        W81399   9.945  42.259  14.292
14859W        W81400  44.951  36.377   0.281
14860W        W81401  44.935   1.218   1.246
14861W        W81402  27.216  34.393  13.872
14862W        W81403  22.763  35.365  13.584
14863W        W81404  17.304  43.854   2.412
14864W        W81405  25.571  32.680   1.710
14865W        W81406  44.288  44.641   0.894
14866W        W81407  23.947  28.013  14.732
14867W        W81408  29.018  34.424  10.634
14868W        W81409  44.605  13.938   3.717
14869W        W81410  17.183   9.286  10.309
14870W        W81411  44.252  28.096  14.038
14871W        W81412  20.285  26.047   3.474
14872W        W81413  15.031  17.551   3.811
14873W        W81414  25.022   6.450  12.329
14874W        W81415  27.573  26.754   1.306
14875W        W81416   0.258  30.336   0.404
14876W        W81417  24.761  10.546  13.502
14877W        W81418  41.001  10.567  13.929
14878W        W81419  11.094   9.083   0.281
14879W        W81420  17.772   1.636   1.879
14880W        W81421  35.607  10.846  14.554
14881W        W81422  14.585   4.369  12.073
14882W        W81423  22.612   4.201   9.570
14883W        W81424  35.020  42.762  10.774
14884W        W81425  18.596   4.155   3.725
14885W        W81426  21.160   6.377  11.416
14886W        W81427  17.165  36.410   3.613
14887W        W81428  15.767  10.753   0.941
14888W        W81429  33.384  38.422   1.812
14889W        W81430   2.789  22.711  13.077
14890W        W81431  43.507  25.161   0.019
14891W        W81432  13.602  39.041  11.598
14892W        W81433  24.095  17.518  14.308
14893W        W81434  13.824  32.667   4.130
14894W        W81435  19.709  36.775  11.759
14895W        W81436  20.743  12.068   3.115
14896W        W81437  22.660  22.187   1.783
14897W        W81438  42.118  13.814  12.892
14898W        W81439   1.018  10.792   0.899
14899W        W81440  20.071  30.872   1.012
14900W        W81441  37.107  30.286  13.798
14901W        W81442  15.494  17.202   0.810
14902W        W81443  44.110   6.649   2.520
14903W        W81444  14.851  13.105  10.423
14904W        W81445  43.796   7.070  14.741
14905W        W81446  19.110  28.954  12.220
14906W        W81447  19.465   8.746   1.494
14907W        W81448  26.463  26.725   3.327
14908W        W81449  24.229  34.114   2.858
14909W        W81450   8.218   2.039   1.408
14910W        W81451  25.919  44.806   1.721
14911W        W81452  16.725  26.589  11.506
14912W        W81453  19.085  23.289   2.837
14913W        W81454  11.683  12.706   0.859
14914W        W81455  41.420  38.043   4.911
14915W        W81456  38.672  10.182   4.008
14916W        W81457   3.332  37.846  12.888
14917W        W81458  14.432   3.776   0.619
14918W        W81459   5.706  15.089  14.103
14919W        W81460  26.112  37.466  14.393
14920W        W81461  13.588  16.825   1.884
14921W        W81462   7.805   6.154   2.579
14922W        W81463  37.888  17.749  13.067
14923W        W81464  35.403  21.666   3.383
14924W        W81465  34.598  37.940  11.070
14925W        W81466  33.846  16.403  14.358
14926W        W81467  19.091  14.042   1.663
14927W        W81468  14.795  11.791  12.025
14928W        W81469  25.880  17.645  14.343
14929W        W81470   7.665  22.947   1.876
14930W        W81471  10.734  31.158   1.422
14931W        W81472  34.945  16.602   0.422
14932W        W81473  36.937   6.263  11.479
14933W        W81474   0.786  37.264  11.016
14934W        W81475  38.861  18.032   4.837
14935W        W81476  21.138  39.829   1.798
14936W        W81477  39.464  18.767  12.846
14937W        W81478  13.985  28.565   2.832
14938W        W81479  26.980   8.248  12.772
14939W        W81480  31.094   0.747  13.480
14940W        W81481  41.025  30.580   1.841
14941W        W81482  18.034  20.622  10.994
14942W        W81483   7.266  14.332  14.337
14943W        W81484  12.718  42.800  13.832
14944W        W81485  20.984  43.319  12.048
14945W        W81486  21.721  44.422   3.386
14946W        W81487  42.001  14.613  14.005
14947W        W81488  44.438   8.908   1.241
14948W        W81489  14.077  28.938   4.067
14949W        W81490  36.199  43.745  11.108
14950W        W81491  41.029  15.817   0.524
14951W        W81492  36.992  43.785   0.525
14952W        W81493  38.960   3.636  12.950
14953W        W81494  20.594  11.584  12.493
14954W        W81495  42.243   0.825   3.147
14955W        W81496  16.780  40.447   3.825
14956W        W81497   5.664  32.097   4.285
14957W        W81498  43.723  43.128  11.493
14958W        W81499  35.236  17.694  13.093
14959W        W81500  44.513  41.892  14.434
14960W        W81501  20.038  40.532   3.275
14961W        W81502  38.566   0.897  14.845
14962W        W81503  41.862  34.865   2.634
14963W        W81504  14.264  33.715  12.410
14964W        W81505  34.403  17.251  11.138
14965W        W81506  12.760  25.043   3.693
14966W        W81507  19.656  23.490   0.947
14967W        W81508  19.592  19.480  13.877
14968W        W81509  43.515   5.432  10.940
14969W        W81510   4.198   4.896  14.331
14970W        W81511   7.635   5.871  11.190
14971W        W81512  29.365   8.635  12.427
14972W        W81513   0.552   7.687   1.839
14973W        W81514  38.452  10.317   4.493
14974W        W81515  10.598   0.356   4.723
14975W        W81516  33.931  30.078  14.398
14976W        W81517  32.219  16.411  11.099
14977W        W81518  28.190   7.221   3.328
14978W        W81519   9.829  21.806   2.555
14979W        W81520   4.502   9.725  13.009
14980W        W81521  29.722  37.910   2.827
14981W        W81522  14.110  26.354   9.991
14982W        W81523  12.342  32.208   4.581
14983W        W81524   1.257  36.219   0.762
14984W        W81525  31.402  43.392  12.803
14985W        W81526  15.536  25.761   2.403
14986W        W81527  10.829  18.196  13.375
14987W        W81528   6.072  17.935   1.256
14988W        W81529  19.325  33.492  13.603
14989W        W81530  24.134   2.566   3.962
14990W        W81531  35.470  38.844   1.962
14991W        W81532   8.209  37.888  14.290
14992W        W81533  25.941   8.393   0.833
14993W        W81534  33.514   0.863  13.829
14994W        W81535  11.294  38.301  12.767
14995W        W81536  22.387  44.382   0.671
14996W        W81537  16.189  20.598   2.740
14997W        W81538   0.734  32.409  14.464
14998W        W81539  37.104  15.570  13.843
14999W        W81540  43.830  38.341   0.211
15000W        W81541  21.603  34.315  12.636
15001W        W81542  30.352  37.646  11.961
15002W        W81543  32.179  14.155  14.829
15003W        W81544  30.630  30.493   0.574
15004W        W81545  35.448  10.580   0.437
15005W        W81546  37.480  43.206  14.769
15006W        W81547  26.532  22.959   4.006
15007W        W81548  43.920  12.576  14.325
15008W        W81549  23.464  38.047   3.851
15009W        W81550  35.606  27.535   1.953
15010W        W81551  26.291  40.345   2.304
15011W        W81552  18.593  38.926   1.334
15012W        W81553  19.116  15.138  12.472
15013W        W81554   4.888  14.569  12.093
15014W        W81555  21.234  16.768   2.332
15015W        W81556  35.576  16.241   2.319
15016W        W81557  44.232  42.226  10.603
15017W        W81558   6.427   9.790  13.883
15018W        W81559  41.617  13.966  13.017
15019W        W81560  10.408  21.371   0.308
15020W        W81561   8.801  17.112   0.882
15021W        W81562  10.317  10.245   0.621
15022W        W81563   5.695  17.147  10.596
15023W        W81564   0.273   0.150  11.385
15024W        W81565   7.241  29.012   4.822
15025W        W81566   4.773  11.600  13.716
15026W        W81567   6.875  20.864   3.693
15027W        W81568  12.832  11.797   0.455
15028W        W81569   9.224   1.497   0.903
15029W        W81570  12.182  13.865  10.599
15030W        W81571  27.990  17.706   2.217
15031W        W81572  41.103   5.341   0.885
15032W        W81573  34.855  37.460   0.997
15033W        W81574  34.919  38.897   3.223
15034W        W81575  29.751  27.116   3.257
15035W        W81576  12.060  20.072  13.705
15036W        W81577  22.226   0.044  11.961
15037W        W81578  16.546  40.160  11.590
15038W        W81579  12.367  25.193  13.396
15039W        W81580  21.131  28.508  14.125
15040W        W81581   1.625  28.370  14.442
15041W        W81582  10.141  12.279   2.691
15042W        W81583  25.513  16.681  10.834
15043W        W81584  29.372   5.967   4.487
15044W        W81585   4.477  41.429  10.413
15045W        W81586  30.101   9.119   0.892
15046W        W81587  16.004   1.973  14.555
15047W        W81588  34.084  13.399  13.487
15048W        W81589  13.669  13.829  13.277
15049W        W81590  17.771   9.689   4.592
15050W        W81591   5.482   5.443   5.467
15051W        W81592  36.472   1.157  13.926
15052W        W81593  15.271  20.574  14.834
15053W        W81594   2.002  30.675  11.135
15054W        W81595  32.943  20.734  14.841
15055W        W81596   2.960  23.685  11.049
15056W        W81597   5.817  18.224  10.606
15057W        W81598   1.939  14.862  13.560
15058W        W81599  41.960   1.523   2.620
15059W        W81600  10.166  13.629   4.629
15060W        W81601  16.457  16.868   4.494
15061W        W81602  29.530  23.191  14.016
15062W        W81603  26.964  22.266   1.295
15063W        W81604  19.871   7.977  13.834
15064W        W81605   4.924  21.057   2.344
15065W        W81606  34.627  30.071  14.994
15066W        W81607  30.986   4.358  14.179
15067W        W81608   3.170   5.710  11.166
15068W        W81609  10.968  34.514   1.461
15069W        W81610  17.312  27.502   1.140
15070W        W81611   7.059  25.279  14.807
15071W        W81612  43.024   3.791  12.239
15072W        W81613   7.875  27.341  11.063
15073W        W81614  44.803   4.034   3.579
15074W        W81615  33.409  37.370   0.770
15075W        W81616  40.249  25.244   0.983
15076W        W81617  38.889  20.138   3.541
15077W        W81618  33.200  42.445  13.977
15078W        W81619  25.942  26.925  13.971
15079W        W81620   9.285  34.987   4.776
15080W        W81621   8.125  34.911  13.456
15081W        W81622  20.102  29.660   3.211
15082W        W81623  36.835  33.387  13.624
15083W        W81624  44.522  10.915  12.426
15084W        W81625  18.803  30.474   1.323
15085W        W81626   9.931  16.020  12.151
15086W        W81627  20.153  23.450   1.224
15087W        W81628  31.137  22.527   1.306
15088W        W81629  16.285   9.302   1.222
15089W        W81630   6.073  30.188   0.344
15090W        W81631  43.583  29.621  11.614
15091W        W81632   1.287  30.658   4.242
15092W        W81633   0.413  13.343   1.955
15093W        W81634  16.567  32.347   3.249
15094W        W81635  17.273  11.520   4.021
15095W        W81636  13.552   3.268  10.688
15096W        W81637  23.001  41.340   0.898
15097W        W81638  38.956  43.777  11.642
15098W        W81639  23.355  10.684   2.692
15099W        W81640  42.494   4.515   3.785
15100W        W81641  24.632  17.136  11.543
15101W        W81642  27.210   8.977   3.360
15102W        W81643  21.919  25.788   1.757
15103W        W81644   1.813  26.992  14.048
15104W        W81645  40.054   3.321   3.629
15105W        W81646   6.813  20.100   1.342
15106W        W81647  41.363   1.449   1.393
15107W        W81648   8.943  16.813   1.313
15108W        W81649  42.738  10.241   4.068
15109W        W81650  38.576   7.669  10.807
15110W        W81651  12.606  22.288   0.393
15111W        W81652   7.919  20.990  12.007
15112W        W81653  14.223  42.047   0.908
15113W        W81654  26.607  25.996   1.842
15114W        W81655  25.518   7.436  13.988
15115W        W81656  10.877  13.763  13.418
15116W        W81657  20.717   3.361   3.194
15117W        W81658  35.900  36.964   4.914
15118W        W81659  28.198   1.861   4.408
15119W        W81660  11.720  21.230  13.556
15120W        W81661   5.642  23.718   3.156
15121W        W81662  30.952  25.799  13.196
15122W        W81663  28.627  20.890  12.950
15123W        W81664   7.941  29.111  13.561
15124W        W81665  25.975   6.805  11.665
15125W        W81666  25.482  33.975   3.933
15126W        W81667  10.960  17.377   3.811
15127W        W81668  37.462  42.498   2.433
15128W        W81669  25.503   3.429   3.555
15129W        W81670  17.767   5.893   1.860
15130W        W81671   2.336   0.010   2.413
15131W        W81672  29.725  43.770  12.469
15132W        W81673   5.465  32.955   2.260
15133W        W81674  44.982  21.935   3.355
15134W        W81675  26.100  15.897  10.622
15135W        W81676   8.317  24.454  13.931
15136W        W81677  24.478  36.524  11.673
15137W        W81678  21.193  39.648   1.297
15138W        W81679  36.838  34.425   2.616
15139W        W81680  43.484  13.727  11.445
15140W        W81681  39.821   1.830  10.919
15141W        W81682   0.738   4.212   3.099
15142W        W81683  11.314  17.344  13.586
15143W        W81684  42.979   1.270   2.267
15144W        W81685  34.965   2.326  14.261
15145W        W81686   4.876  34.066  14.697
15146W        W81687  12.698  34.647  13.016
15147W        W81688  15.871  28.521  14.951
15148W        W81689  13.343  20.150  13.621
15149W        W81690  38.510   0.264   2.327
15150W        W81691   8.890  36.350   4.228
15151W        W81692   2.743  24.305   3.007
15152W        W81693  43.944  43.275   2.174
15153W        W81694  36.900  32.960   3.799
15154W        W81695  37.166   5.302  14.501
15155W        W81696  31.121  33.202   0.281
15156W        W81697  33.015   0.794   0.687
15157W        W81698  37.653   5.230  14.749
15158W        W81699  33.893  31.428  12.238
15159W        W81700   8.261  28.507  14.610
15160W        W81701  28.288  14.374   2.751
15161W        W81702  43.929  28.193   2.304
15162W        W81703  32.417   0.812  13.901
15163W        W81704  13.359  16.756  12.616
15164W        W81705  27.752  10.257   3.678
15165W        W81706   5.138  44.809   4.625
15166W        W81707  23.066  14.525   1.937
15167W        W81708   5.139  29.574  14.481
15168W        W81709  10.376  33.834   2.578
15169W        W81710  43.948   6.211  11.465
15170W        W81711  26.634  32.251   1.366
15171W        W81712  34.306  30.498   3.772
15172W        W81713  25.021  27.410  13.502
15173W        W81714  20.609  15.275  10.360
15174W        W81715  10.264  17.603  12.235
15175W        W81716  17.497  31.694   1.218
15176W        W81717  17.529  42.897   4.035
15177W        W81718  38.282   1.196  14.516
15178W        W81719  40.995   7.898   3.184
15179W        W81720  44.828  19.543   2.272
15180W        W81721  34.833  36.883  11.553
15181W        W81722  25.014  35.482   0.926
15182W        W81723  29.078  15.794   0.248
15183W        W81724   8.677  11.898   1.548
15184W        W81725  15.498  34.000   0.415
15185W        W81726  12.107  30.349  11.547
15186W        W81727  42.606  39.606  12.101
15187W        W81728  15.340  35.368   1.768
15188W        W81729  31.997  13.505  11.228
15189W        W81730  31.182  44.528   0.827
15190W        W81731  26.934  26.052  13.834
15191W        W81732  16.353  40.331   2.260
15192W        W81733  44.951  21.295  14.096
15193W        W81734   3.335  22.729  14.990
15194W        W81735  20.243   5.174  10.715
15195W        W81736  20.080  41.030   3.110
15196W        W81737  32.397  25.639   1.800
15197W        W81738  30.720  37.386   0.073
15198W        W81739  24.702  28.466  11.118
15199W        W81740  34.512  16.632  13.909
15200W        W81741  25.353  39.922  10.809
15201W        W81742  42.052  25.528   0.686
15202W        W81743  11.169  26.740  10.433
15203W        W81744  31.027  16.039   0.905
15204W        W81745   8.624  31.082  13.862
15205W        W81746  35.907  26.138   2.962
15206W        W81747  37.844  25.646  12.026
15207W        W81748  15.859  32.905   1.347
15208W        W81749   0.702  15.654   0.277
15209W        W81750   7.787  43.809   2.372
15210W        W81751  23.039  21.255   4.270
15211W        W81752   4.801  21.765   2.220
15212W        W81753  34.010  40.044  12.869
15213W        W81754  26.424  43.009   3.799
15214W        W81755  29.932  31.683   3.327
15215W        W81756   3.907  20.182  10.985
15216W        W81757  29.860  36.848  14.224
15217W        W81758  29.473  43.016   5.039
15218W        W81759  42.233   5.278  14.974
15219W        W81760  39.377  18.118   3.167
15220W        W81761  19.592   7.482   2.286
15221W        W81762  30.135  20.987  11.627
15222W        W81763  18.802   1.753  13.412
15223W        W81764  20.211  34.559  11.547
15224W        W81765  41.938   8.749   4.778
15225W        W81766  24.178  23.519  10.877
15226W        W81767  14.279   9.630  12.547
15227W        W81768  34.810  42.507   0.308
15228W        W81769  44.167  15.292   9.803
15229W        W81770  44.334  35.077   4.285
15230W        W81771  20.942  35.414  11.442
15231W        W81772   0.903  41.836  11.586
15232W        W81773  13.404  21.616  10.994
15233W        W81774  10.416  20.623  11.434
15234W        W81775  29.895  19.148  13.307
15235W        W81776  35.663  42.524  12.527
15236W        W81777  39.088  44.909  10.601
15237W        W81778  16.219  43.314  11.043
15238W        W81779   0.233   3.808   0.380
15239W        W81780  14.755  31.991  11.536
15240W        W81781  26.707  23.723  14.458
15241W        W81782  35.363  13.582   3.041
15242W        W81783  23.270  13.190   1.304
15243W        W81784  33.501  15.593   2.865
15244W        W81785  40.458  16.586   2.591
15245W        W81786  34.026  16.254   0.384
15246W        W81787  12.116  44.789  14.607
15247W        W81788  21.060  25.675  10.630
15248W        W81789   7.818  24.304  10.704
15249W        W81790   3.055   4.431  13.831
15250W        W81791  20.596   5.425   1.463
15251W        W81792  18.129  34.979  13.417
15252W        W81793  23.992   8.883  14.859
15253W        W81794  17.299  43.419   4.212
15254W        W81795  10.750  37.722  11.390
15255W        W81796  14.171  19.137  13.949
15256W        W81797  39.018  30.890  14.882
15257W        W81798  28.031  24.772  12.053
15258W        W81799  38.506   7.101  14.535
15259W        W81800  33.236  12.257   5.506
15260W        W81801  19.446  44.051   4.200
15261W        W81802  29.179   2.702  12.436
15262W        W81803  37.158  10.114  12.399
15263W        W81804   3.679  35.115  10.564
15264W        W81805  37.873  29.696  11.127
15265W        W81806  13.323  31.058  14.580
15266W        W81807  27.120  12.056  12.397
15267W        W81808   7.950   9.772   1.731
15268W        W81809  19.134  29.480   3.215
15269W        W81810  23.668   5.005  13.348
15270W        W81811  18.033  44.375   3.739
15271W        W81812  27.360  16.257  12.283
15272W        W81813  44.867  34.376   1.330
15273W        W81814   6.924  28.498   2.617
15274W        W81815  28.786  11.067   5.024
15275W        W81816  34.233  44.204  11.100
15276W        W81817  37.264  21.314   1.815
15277W        W81818  37.793  27.189   3.609
15278W        W81819  11.906  23.169  13.093
15279W        W81820  12.239  34.946  11.455
15280W        W81821  44.321  22.502   0.907
15281W        W81822  41.043  31.427   0.479
15282W        W81823   5.367  40.521  14.391
15283W        W81824  15.097  28.961   1.961
15284W        W81825  21.819  10.422  10.673
15285W        W81826  28.134  31.917  14.831
15286W        W81827   8.207  42.536   4.158
15287W        W81828   5.938  28.859  12.456
15288W        W81829   7.711  13.018   3.752
15289W        W81830  12.464  23.991   3.584
15290W        W81831  40.409   0.344   2.603
15291W        W81832   9.087  10.833   2.822
15292W        W81833   0.973  42.713   1.022
15293W        W81834  37.013  24.559   0.456
15294W        W81835  40.707   6.491  11.883
15295W        W81836  37.999  29.406   3.697
15296W        W81837  32.664  11.784  12.806
15297W        W81838  42.931  41.897   2.162
15298W        W81839  41.087   5.553   3.923
15299W        W81840  42.500   8.453  12.576
15300W        W81841  13.784   5.270   4.074
15301W        W81842  37.395  42.351  12.132
15302W        W81843  23.524  34.069   2.041
15303W        W81844  41.874  38.218   1.312
15304W        W81845  40.878  10.147   0.053
15305W        W81846  25.697  27.887   4.583
15306W        W81847   3.887  20.141  14.648
15307W        W81848   0.023   6.223   0.982
15308W        W81849  15.209  33.145   0.319
15309W        W81850  21.456  34.661   4.549
15310W        W81851  10.765  29.480  13.403
15311W        W81852  39.466  27.996   1.353
15312W        W81853  37.335  44.267   4.674
15313W        W81854  33.372   7.201  12.122
15314W        W81855   7.168  21.119   2.733
15315W        W81856  17.685   6.280  14.328
15316W        W81857   7.359  12.255   3.331
15317W        W81858  29.869   4.977   2.978
15318W        W81859  29.532  19.626  11.986
15319W        W81860  11.713  29.461   4.443
15320W        W81861  14.236  13.553   2.652
15321W        W81862   3.844  44.485  10.200
15322W        W81863  23.259  17.255   2.286
15323W        W81864  11.100   9.247  12.491
15324W        W81865  23.986  12.337  10.356
15325W        W81866  14.853  41.807   1.933
15326W        W81867  17.883   1.848  14.986
15327W        W81868   5.675   1.477   3.572
15328W        W81869   2.875   8.991   3.770
15329W        W81870   5.626  14.668   0.601
15330W        W81871   8.536  16.323  10.742
15331W        W81872  20.663   1.737  14.950
15332W        W81873  33.651   4.901  11.704
15333W        W81874  34.239  41.254   2.254
15334W        W81875  35.189  23.036  12.440
15335W        W81876   2.264  11.152   4.567
15336W        W81877  17.088   3.506   1.775
15337W        W81878  21.636   4.365  14.326
15338W        W81879  39.872  34.407  11.587
15339W        W81880  27.957   4.771  12.086
15340W        W81881  18.476   2.320  13.851
15341W        W81882  42.742  28.942  11.986
15342W        W81883  24.145  37.922   2.143
15343W        W81884  32.087  28.137  14.636
15344W        W81885  15.358  34.937  13.584
15345W        W81886   7.084  29.297   1.330
15346W        W81887  40.504  41.769   0.822
15347W        W81888   7.341  37.313   4.242
15348W        W81889  36.335   3.509  12.458
15349W        W81890  37.104  34.443  13.848
15350W        W81891  25.672   5.642   1.894
15351W        W81892  29.479  16.545  13.959
15352W        W81893   1.460  30.782  10.917
15353W        W81894  12.220  33.526  11.152
15354W        W81895   0.700  31.815   2.155
15355W        W81896  15.657  42.961   3.653
15356W        W81897  13.154  38.068  10.827
15357W        W81898  22.577  25.122   2.949
15358W        W81899  33.670  27.714   1.926
15359W        W81900   0.658  22.698  12.819
15360W        W81901  33.978  30.021   2.324
15361W        W81902   8.397  25.588  14.756
15362W        W81903  10.769  22.487   4.885
15363W        W81904  15.087  36.605  12.534
15364W        W81905  33.631  22.824  11.167
15365W        W81906  36.887   8.268   4.054
15366W        W81907  15.271  40.016  13.835
15367W        W81908  38.894  44.828   1.166
15368W        W81909   4.164  28.478  13.491
15369W        W81910  28.324   0.267   0.724
15370W        W81911  34.467   1.567  14.350
15371W        W81912  22.570  32.523  10.791
15372W        W81913  21.731  30.394   1.286
15373W        W81914  21.608  35.591  14.519
15374W        W81915  22.126  42.409  12.971
15375W        W81916  33.402  21.485   2.729
15376W        W81917  26.638   5.816  11.928
15377W        W81918  34.638  18.247   0.671
15378W        W81919  38.551  22.579   3.685
15379W        W81920  38.087   6.456   1.748
15380W        W81921  14.772  21.626  11.019
15381W        W81922  21.604  33.169  11.857
15382W        W81923   9.623  27.918  14.472
15383W        W81924  23.653  21.281   2.383
15384W        W81925  29.643  26.669  11.800
15385W        W81926   4.774   1.155   1.207
15386W        W81927  28.582   5.841   1.563
15387W        W81928   6.223  21.395   9.837
15388W        W81929  32.608  27.006   2.202
15389W        W81930   5.944  30.197  12.008
15390W        W81931   6.355   4.923   9.889
15391W        W81932  39.763  27.999   3.768
15392W        W81933   0.953  15.787  14.063
15393W        W81934   5.720  39.348  12.079
15394W        W81935  12.645   7.708   2.355
15395W        W81936  20.019  10.384  14.691
15396W        W81937   8.021   6.691   3.666
15397W        W81938   3.290  32.251   1.244
15398W        W81939  44.290  25.662   4.343
15399W        W81940  44.430  28.434  11.264
15400W        W81941  22.627   5.621   0.452
15401W        W81942  35.668  15.264   4.226
15402W        W81943  26.126  34.157  11.144
15403W        W81944  22.497  35.151  10.739
15404W        W81945  18.662   6.448  11.519
15405W        W81946  37.942  37.358  12.977
15406W        W81947   2.920  28.116   0.035
15407W        W81948  28.043   0.213  13.464
15408W        W81949  37.895  15.196  11.513
15409W        W81950  27.549   9.806  13.002
15410W        W81951  41.993  12.163   2.764
15411W        W81952  22.521  36.915  12.954
15412W        W81953  13.791  22.870  13.983
15413W        W81954  44.523  37.925  14.939
15414W        W81955  32.482  17.165  10.686
15415W        W81956   5.686  37.566  10.566
15416W        W81957  26.164  36.439  11.443
15417W        W81958  20.849   0.521  11.144
15418W        W81959   4.054   9.397  13.717
15419W        W81960   7.007   4.186  14.544
15420W        W81961  27.940  22.182   2.648
15421W        W81962   0.716  12.788   0.702
15422W        W81963   9.877   9.636   1.316
15423W        W81964   1.806   5.974  12.905
15424W        W81965  26.873   7.376   0.914
15425W        W81966  10.428  33.024   3.046
15426W        W81967  43.010  11.261  10.366
15427W        W81968  37.959  27.749   0.458
15428W        W81969  31.624  16.128   5.046
15429W        W81970  41.877  29.096  10.808
15430W        W81971   7.326   0.335  11.208
15431W        W81972   5.344  23.657  13.427
15432W        W81973  31.620  20.686  14.249
15433W        W81974  12.388  32.858  13.712
15434W        W81975  22.475  13.892  11.197
15435W        W81976  44.008  12.061   2.301
15436W        W81977  22.891  31.145  14.015
15437W        W81978  38.403  34.865  10.447
15438W        W81979  17.081  19.497  11.681
15439W        W81980  36.072  36.731  13.482
15440W        W81981  39.429  40.852  12.850
15441W        W81982  13.690  29.637   2.760
15442W        W81983   6.610  14.724   3.361
15443W        W81984  12.855  21.566  14.869
15444W        W81985  24.166  15.681   3.823
15445W        W81986   8.675  43.828   0.733
15446W        W81987  26.285  10.487   2.050
15447W        W81988   3.769  25.038  12.478
15448W        W81989   6.609  40.348   1.726
15449W        W81990  44.179  33.710  14.933
15450W        W81991   0.302  34.118  11.596
15451W        W81992  28.124   4.123  10.891
15452W        W81993  21.770  29.606   2.931
15453W        W81994   3.558  32.883   3.656
15454W        W81995  27.500   1.461   3.212
15455W        W81996  15.758  44.275  11.573
15456W        W81997  18.872  12.875  11.099
15457W        W81998  37.306  33.452  13.371
15458W        W81999  12.411   5.284  14.879
15459W        W82000  12.296  33.478  10.072
15460W        W82001  17.184  34.765   0.789
15461W        W82002  21.732  28.046   4.558
15462W        W82003  16.206  36.886  11.246
15463W        W82004  30.964  25.612  11.927
15464W        W82005  17.365  39.462  11.093
15465W        W82006  28.609  19.618   3.750
15466W        W82007  25.082  12.234   3.699
15467W        W82008  41.318  23.570   1.752
15468W        W82009  37.855  27.022  13.749
15469W        W82010  27.411  20.432  14.160
15470W        W82011  13.474  33.859   1.852
15471W        W82012  35.910  27.176  13.276
15472W        W82013  28.298  15.532  14.057
15473W        W82014  23.316   4.476  13.903
15474W        W82015  35.130  11.833  11.572
15475W        W82016  27.497  40.556  13.307
15476W        W82017  17.985   9.389  14.963
15477W        W82018   5.650  17.683   2.884
15478W        W82019  25.479  23.568   0.825
15479W        W82020   4.633  42.020   1.448
15480W        W82021  30.528   0.912  13.614
15481W        W82022  16.390  14.947   5.404
15482W        W82023  43.589  40.444  14.110
15483W        W82024  18.854  23.988  11.993
15484W        W82025  21.541  39.467   0.630
15485W        W82026  27.594   0.567   1.295
15486W        W82027   8.640  42.898   2.821
15487W        W82028  36.903  34.797  12.115
15488W        W82029   4.865  28.043  14.993
15489W        W82030   6.373  33.408   0.495
15490W        W82031   4.521  22.180  14.437
15491W        W82032  35.834  30.551  12.502
15492W        W82033   4.269  15.599   4.566
15493W        W82034   1.422   7.051   3.970
15494W        W82035  35.456  18.149   1.059
15495W        W82036  28.601  28.794   2.412
15496W        W82037  36.857  18.559  11.147
15497W        W82038  20.067  27.110  10.762
15498W        W82039  20.766  26.882  14.846
15499W        W82040   0.863  44.778  13.615
15500W        W82041  12.124  40.385   4.819
15501W        W82042  11.045  23.326   0.140
15502W        W82043   4.657  26.254  13.820
15503W        W82044  36.581  35.407  11.756
15504W        W82045  26.100  15.372  14.785
15505W        W82046  44.842   4.965   1.711
15506W        W82047  31.726  32.412   4.939
15507W        W82048  38.007  29.782  12.427
15508W        W82049  10.180  44.577  11.512
15509W        W82050   5.821  36.241   4.765
15510W        W82051  19.787  10.328   2.386
15511W        W82052  11.659  41.739  10.614
15512W        W82053  18.310  11.934  10.261
15513W        W82054  30.612  23.035  12.336
15514W        W82055  37.400  10.546  14.830
15515W        W82056  20.137  26.383  13.423
15516W        W82057  37.023  30.035  14.305
15517W        W82058  39.777  15.243   1.918
15518W        W82059  19.701   0.303  10.832
15519W        W82060  37.870  33.936  13.233
15520W        W82061  24.939  20.570  14.527
15521W        W82062   0.780  34.579  13.863
15522W        W82063   4.277  13.106   2.907
15523W        W82064  24.129  17.047   4.608
15524W        W82065  20.526  11.641  11.030
15525W        W82066  31.853  41.806   3.653
15526W        W82067  20.302  22.452   2.442
15527W        W82068  14.710   7.395  12.512
15528W        W82069  12.333  36.050   4.179
15529W        W82070  32.560  22.810   4.579
15530W        W82071  24.462  20.024   4.309
15531W        W82072  35.374  26.134   3.698
15532W        W82073  41.886  29.600  12.684
15533W        W82074  22.423  42.539   2.695
15534W        W82075  28.529  40.375   1.739
15535W        W82076  23.608  29.715   4.684
15536W        W82077  23.768  21.113  14.447
15537W        W82078  10.805  14.222  14.029
15538W        W82079  13.376  36.133   4.140
15539W        W82080  17.668  26.481   1.708
15540W        W82081  41.371  14.297  11.746
15541W        W82082   2.033  41.878   0.076
15542W        W82083  28.131   0.622   1.721
15543W        W82084  26.606   4.295  12.008
15544W        W82085  17.782   1.912  13.580
15545W        W82086  38.978  15.886  13.873
15546W        W82087  22.949   4.625   4.073
15547W        W82088  34.928   5.700   3.157
15548W        W82089  42.832  37.746   0.372
15549W        W82090   0.233  31.639   2.265
15550W        W82091  30.912  43.363  11.642
15551W        W82092  10.632   2.512  13.030
15552W        W82093  17.675  41.843  14.111
15553W        W82094  44.974   3.321   0.290
15554W        W82095  40.994  25.002   1.365
15555W        W82096  34.033   9.868   2.158
15556W        W82097  41.621   3.407  12.124
15557W        W82098  43.555  30.557   0.166
15558W        W82099  30.654  22.490  14.876
15559W        W82100  19.609   3.297  14.649
15560W        W82101   8.169  35.612   0.892
15561W        W82102  25.223  30.217  11.510
15562W        W82103   8.155  41.066   1.859
15563W        W82104  30.095  10.392   5.012
15564W        W82105   7.337  42.885   3.088
15565W        W82106   2.760  35.086   1.726
15566W        W82107  31.585   4.157   4.449
15567W        W82108  28.755  40.895  13.977
15568W        W82109  10.229  12.759  14.013
15569W        W82110  17.199  42.109   4.805
15570W        W82111  10.181  23.003   3.843
15571W        W82112  43.963  14.159  12.152
15572W        W82113   8.615  36.094   3.858
15573W        W82114  40.860  27.587   3.250
15574W        W82115  34.133  31.963  11.409
15575W        W82116  43.902   0.678   0.316
15576W        W82117  22.937  33.396  13.610
15577W        W82118  21.140  25.902   2.208
15578W        W82119  10.855  40.502   3.276
15579W        W82120  11.933   9.640  13.515
15580W        W82121  19.729  39.876   4.496
15581W        W82122   2.236  17.220  12.528
15582W        W82123   0.467  11.162  13.606
15583W        W82124  12.572   7.412   1.191
15584W        W82125  20.106   8.185   4.411
15585W        W82126   7.326   5.077  11.135
15586W        W82127  24.100  40.053  11.440
15587W        W82128  35.851  19.829  12.652
15588W        W82129  40.372  20.356  11.178
15589W        W82130  20.042  23.921  13.258
15590W        W82131  44.369   4.926  10.862
15591W        W82132  28.110  20.747   1.420
15592W        W82133   0.319  44.872  12.278
15593W        W82134  27.962   5.308  12.052
15594W        W82135   5.464  39.852  14.793
15595W        W82136  23.729  31.188   3.090
15596W        W82137  23.700  34.985  12.943
15597W        W82138  43.754  20.122  14.869
15598W        W82139  29.725  20.472   2.626
15599W        W82140  38.735   4.725   3.634
15600W        W82141   8.091  11.272   1.372
15601W        W82142  36.311  26.016  10.699
15602W        W82143  39.867  35.178   2.644
15603W        W82144  15.142  29.901  10.249
15604W        W82145  23.393  27.206   2.828
15605W        W82146  22.293  26.664   1.201
15606W        W82147   9.436  27.153  13.009
15607W        W82148  42.491  24.951   3.191
15608W        W82149  42.394   5.194   0.858
15609W        W82150  15.684  28.867  10.787
15610W        W82151  12.835  14.492   5.085
15611W        W82152   1.176  33.898   3.744
15612W        W82153  18.180  15.388   9.832
15613W        W82154   4.368  14.981  14.231
15614W        W82155  32.123  30.732   4.673
15615W        W82156  44.830   0.265   3.248
15616W        W82157  18.777  29.979   4.908
15617W        W82158  16.759  12.632  14.041
15618W        W82159   9.742  24.929   4.687
15619W        W82160  43.501  24.176   4.100
15620W        W82161  28.636  22.911   2.698
15621W        W82162  35.828  42.440  14.393
15622W        W82163  11.397  14.271   4.788
15623W        W82164   2.177  29.586   1.686
15624W        W82165  27.031  25.554  13.873
15625W        W82166  44.510  18.667   3.932
15626W        W82167   6.485  14.687   3.883
15627W        W82168  27.132  40.456  14.528
15628W        W82169  14.068  11.342  14.092
15629W        W82170  38.225  11.905  11.937
15630W        W82171  33.859   3.254   0.825
15631W        W82172  43.903  26.421   2.655
15632W        W82173  40.668   5.981  11.947
15633W        W82174   5.994  19.689   3.682
15634W        W82175  31.659  43.982   3.552
15635W        W82176  25.708   9.135   3.116
15636W        W82177   2.118  13.586   3.711
15637W        W82178  44.201  26.224  13.906
15638W        W82179  22.768  25.679  10.916
15639W        W82180   9.683  20.788   1.299
15640W        W82181  30.235  35.076   0.305
15641W        W82182  18.195  37.549   3.330
15642W        W82183  13.858  43.899  12.784
15643W        W82184  17.161   6.007  11.947
15644W        W82185  11.176   2.716   2.060
15645W        W82186  43.577  16.572   3.801
15646W        W82187  14.161   5.716   1.881
15647W        W82188  41.108  29.636  11.993
15648W        W82189  10.044  12.525  12.399
15649W        W82190  19.772  34.137   2.340
15650W        W82191  13.712  39.929   0.341
15651W        W82192  39.064  26.146  12.599
15652W        W82193  32.659  35.409   1.455
15653W        W82194   4.209  26.063  14.339
15654W        W82195   8.016  10.184  14.443
15655W        W82196  31.721   1.995   5.438
15656W        W82197  27.192  32.500   3.704
15657W        W82198  36.006  29.846  11.191
15658W        W82199  25.770  29.998  11.505
15659W        W82200  41.520  15.561  13.918
15660W        W82201  44.317  16.123   2.664
15661W        W82202  30.619   9.640   1.126
15662W        W82203  29.418  10.763   3.568
15663W        W82204  34.034  34.634   2.791
15664W        W82205  17.943  38.449   4.866
15665W        W82206  26.143  10.572   4.940
15666W        W82207  28.808   0.293  14.243
15667W        W82208  24.471  31.889  12.072
15668W        W82209  30.177   3.348   3.288
15669W        W82210  15.351   1.300   4.432
15670W        W82211  30.677  31.152  12.098
15671W        W82212  15.288  34.976   2.107
15672W        W82213  27.961  20.333  14.272
15673W        W82214   0.178   3.803   3.870
15674W        W82215   2.836  33.578  12.429
15675W        W82216  23.150  25.710   4.773
15676W        W82217   3.452  37.429   0.460
15677W        W82218   5.466  40.444   4.311
15678W        W82219  44.264  36.961  10.237
15679W        W82220  41.735  10.247   1.463
15680W        W82221  13.574   1.697  11.927
15681W        W82222   9.297  18.540   5.068
15682W        W82223  28.034  41.961   2.660
15683W        W82224   9.084   8.365   3.669
15684W        W82225   2.387  43.664   4.097
15685W        W82226  25.151  19.533  14.461
15686W        W82227  33.048  35.922  10.961
15687W        W82228  11.748  26.585  13.412
15688W        W82229   6.945  16.234   1.345
15689W        W82230  11.160   8.607   0.442
15690W        W82231   1.455  16.659   4.637
15691W        W82232   3.377  44.724  10.614
15692W        W82233  10.323  38.723  13.961
15693W        W82234  15.232  42.836   1.678
15694W        W82235  22.870  15.759   1.257
15695W        W82236   1.893  29.747   1.080
15696W        W82237  19.093  11.231   2.515
15697W        W82238  28.433   6.690  12.152
15698W        W82239   7.175  26.659  12.519
15699W        W82240  22.120  13.185  14.456
15700W        W82241  44.167  21.801  12.603
15701W        W82242  18.507   1.944  13.002
15702W        W82243  14.748  21.909   0.266
15703W        W82244   3.145  12.239  10.650
15704W        W82245  43.884  39.088   1.643
15705W        W82246  21.942  16.835   3.322
15706W        W82247  22.540  28.174   1.931
15707W        W82248  44.747  35.119   2.831
15708W        W82249  37.871  43.624   2.836
15709W        W82250   0.221  30.867  11.241
15710W        W82251  44.480   1.747   1.729
15711W        W82252   3.776   9.939   4.191
15712W        W82253  41.068   9.267  14.093
15713W        W82254  44.449  26.697   1.809
15714W        W82255   9.204  28.213  14.518
15715W        W82256  31.144   1.490  13.045
15716W        W82257  19.181  31.747   2.389
15717W        W82258  22.268  15.753   3.284
15718W        W82259   5.911  16.517  14.815
15719W        W82260  36.617   5.918   0.475
15720W        W82261   0.995  23.021  13.023
15721W        W82262  10.150   4.256  14.034
15722W        W82263  44.805  42.496   3.301
15723W        W82264  36.894  25.205  13.771
15724W        W82265   3.311   9.837   2.904
15725W        W82266  21.223  12.896  14.370
15726W        W82267  27.817  25.115  14.512
15727W        W82268   4.252   9.124  11.292
15728W        W82269  32.119  13.767   0.713
15729W        W82270  37.605   4.031  12.828
15730W        W82271   0.732   8.191   3.606
15731W        W82272  25.007   4.857  13.072
15732W        W82273  24.273  18.028  14.437
15733W        W82274   2.773  37.512   1.822
15734W        W82275  38.949  40.754  12.981
15735W        W82276  36.973   5.497   1.924
15736W        W82277  14.893  37.751  10.419
15737W        W82278  35.351  28.961   3.640
15738W        W82279  38.860  21.331  12.530
15739W        W82280  28.497  39.862  12.451
15740W        W82281   8.974   1.934  11.611
15741W        W82282   8.327  18.626   0.453
15742W        W82283  38.144  30.099   2.393
15743W        W82284  29.616  14.220   4.614
15744W        W82285  10.351  43.366  10.380
15745W        W82286  38.462  20.506  12.551
15746W        W82287   3.552  36.325   2.688
15747W        W82288  37.893  25.135  10.710
15748W        W82289  40.275  22.379  10.679
15749W        W82290  27.000  19.109   1.914
15750W        W82291  37.802  44.100   4.984
15751W        W82292  31.341  33.613  10.693
15752W        W82293   5.377  40.394   0.832
15753W        W82294  27.012  22.163  10.622
15754W        W82295  12.689  14.474   2.654
15755W        W82296  23.737  28.928   2.193
15756W        W82297   3.085  34.432   0.244
15757W        W82298  16.353  16.139   2.253
15758W        W82299  35.469  21.767  11.652
15759W        W82300   6.179  27.088  10.712
15760W        W82301   7.097  31.432  11.049
15761W        W82302  22.890  33.360   1.849
15762W        W82303  36.146   5.302  12.490
15763W        W82304  27.634  21.117   0.861
15764W        W82305  35.980  17.711   3.555
15765W        W82306  25.434  30.865   1.197
15766W        W82307  22.055  42.575  12.077
15767W        W82308  38.801  21.680   3.184
15768W        W82309  36.108  12.173   0.846
15769W        W82310  22.963   1.317   2.451
15770W        W82311  44.739  18.263   0.152
15771W        W82312  20.623  26.268  12.231
15772W        W82313  18.583  35.587   1.251
15773W        W82314  25.542  23.009  14.828
15774W        W82315  22.337  30.172   3.523
15775W        W82316  12.235  44.342   2.617
15776W        W82317  25.800  40.435   2.328
15777W        W82318  28.896   0.917   3.542
15778W        W82319   0.318   9.112   4.541
15779W        W82320  12.131  38.012  13.319
15780W        W82321  18.293  12.659  12.331
15781W        W82322  25.056   6.673  13.069
15782W        W82323  11.705  35.878  14.025
15783W        W82324  26.419  22.733  14.406
15784W        W82325  38.414   8.455   4.076
15785W        W82326  23.575  24.344   2.621
15786W        W82327  10.665  24.987   2.174
15787W        W82328   7.085  37.915  11.606
15788W        W82329  16.073  11.431  10.540
15789W        W82330  33.554  34.077  14.256
15790W        W82331  12.273   1.597  11.926
15791W        W82332  23.911  44.714   1.975
15792W        W82333  30.987  38.162   3.642
15793W        W82334   4.959  33.720  12.876
15794W        W82335  31.213  40.427  13.398
15795W        W82336  41.813  18.185  14.432
15796W        W82337  44.484  28.849  10.871
15797W        W82338  13.102  43.437  12.862
15798W        W82339   4.023  43.541   0.683
15799W        W82340   9.410  43.142   5.196
15800W        W82341  42.118  24.520   4.546
15801W        W82342  16.817  13.695  13.801
15802W        W82343  25.537  26.974   2.923
15803W        W82344  30.077  10.022   4.611
15804W        W82345  40.344  23.453   0.434
15805W        W82346  28.135   0.494  11.502
15806W        W82347  14.309  23.025  12.498
15807W        W82348   1.789  42.413   0.250
15808W        W82349  42.392  20.799   0.833
15809W        W82350  40.704  32.940  12.786
15810W        W82351  10.993  10.254   3.599
15811W        W82352  17.305   5.969   4.539
15812W        W82353  31.969   9.749   4.068
15813W        W82354  12.407  44.251   3.366
15814W        W82355  23.483  32.415  11.800
15815W        W82356  15.842  28.564   1.865
15816W        W82357  19.316   5.397   5.519
15817W        W82358   1.253  24.761  13.380
15818W        W82359  13.626  22.442  14.265
15819W        W82360  21.020   4.755   3.224
15820W        W82361  16.096   9.476  14.910
15821W        W82362  29.535  15.628   2.103
15822W        W82363  43.752  22.698  12.973
15823W        W82364  34.080  37.826   4.929
15824W        W82365  22.585  26.515   0.005
15825W        W82366  37.437   5.461  11.514
15826W        W82367  13.578  37.701   4.081
15827W        W82368   0.011  14.968   1.516
15828W        W82369  44.754   6.086   0.485
15829W        W82370   8.890  20.574   0.255
15830W        W82371  38.381  43.209   1.209
15831W        W82372   5.959   6.693   0.475
15832W        W82373  19.328  42.248  12.453
15833W        W82374  20.701  42.444  14.878
15834W        W82375  16.718  38.567   4.152
15835W        W82376  23.566  40.072   3.734
15836W        W82377   5.564  32.535  10.947
15837W        W82378  30.506  21.116  13.941
15838W        W82379  23.056  29.410   2.359
15839W        W82380  22.066  15.238   3.322
15840W        W82381  11.648  26.761   4.203
15841W        W82382  21.538  25.574  14.471
15842W        W82383   2.355   5.419   2.316
15843W        W82384  40.059  31.378   3.651
15844W        W82385  22.830  38.892  12.927
15845W        W82386  38.524   9.821  13.954
15846W        W82387  31.861  12.973  12.122
15847W        W82388  36.864  33.537   0.052
15848W        W82389  28.228  43.939  14.317
15849W        W82390  28.668  18.081   2.668
15850W        W82391   8.881  19.718   2.916
15851W        W82392  24.427  33.959  11.360
15852W        W82393   9.552  25.807  11.633
15853W        W82394  27.532  43.191   2.340
15854W        W82395  20.598  22.729  11.554
15855W        W82396  22.200  10.831  10.668
15856W        W82397  15.663   4.362  12.864
15857W        W82398  15.502   7.417   4.100
15858W        W82399  24.489   3.256  11.144
15859W        W82400   9.814  26.547  14.905
15860W        W82401  34.873   6.784  14.565
15861W        W82402  35.955  40.810   3.587
15862W        W82403  20.693  35.169   2.834
15863W        W82404  20.581  19.647  14.207
15864W        W82405  39.053   5.801   4.147
15865W        W82406   2.681  22.185  12.123
15866W        W82407  14.548  35.424  11.080
15867W        W82408   3.676  43.711   0.314
15868W        W82409  19.008   2.660   4.607
15869W        W82410   3.704  39.493   1.355
15870W        W82411  43.480  36.024   1.269
15871W        W82412  28.737  19.742   3.275
15872W        W82413  30.932  12.788  12.473
15873W        W82414  43.993  19.572  13.125
15874W        W82415  16.388  28.654  12.113
15875W        W82416  19.392  35.189  13.932
15876W        W82417  29.131  32.107   4.650
15877W        W82418   0.368  35.655   4.235
15878W        W82419   6.698  10.003   1.850
15879W        W82420   0.834  30.458  12.475
15880W        W82421   7.654   1.642  13.397
15881W        W82422  29.777  40.904  13.286
15882W        W82423  44.470  31.588   0.428
15883W        W82424  22.512  18.913  12.601
15884W        W82425  27.658  25.477   1.966
15885W        W82426  44.455  16.866  14.741
15886W        W82427  11.678  31.418   2.439
15887W        W82428  33.939   0.551  13.071
15888W        W82429   7.840  41.607  14.204
15889W        W82430  42.548  27.204   1.800
15890W        W82431   3.085  37.165  13.878
15891W        W82432  21.981  17.892   2.358
15892W        W82433  33.095  27.918  11.223
15893W        W82434   0.125  34.092  11.088
15894W        W82435  26.989  32.141  10.162
15895W        W82436   2.556  24.178   3.461
15896W        W82437  14.924  24.926   2.952
15897W        W82438  31.507  43.411  11.840
15898W        W82439  44.495  29.905  12.174
15899W        W82440  38.135  32.662  13.163
15900W        W82441  19.403  13.125   2.460
15901W        W82442   7.265  34.562  13.834
15902W        W82443  35.065   7.762  14.584
15903W        W82444  24.186  33.537  14.349
15904W        W82445  32.065   9.459   2.256
15905W        W82446  25.273  34.583   3.492
15906W        W82447  36.731   0.569  14.942
15907W        W82448   2.171  29.516  10.754
15908W        W82449   5.455  11.355  10.456
15909W        W82450  13.906  16.112   2.293
15910W        W82451  22.534   9.746  11.162
15911W        W82452  29.907  28.957  12.666
15912W        W82453  31.011  32.642   2.540
15913W        W82454   7.991   2.483  11.931
15914W        W82455  15.211  21.425  10.843
15915W        W82456  25.021   6.781   2.157
15916W        W82457  25.120  41.527  12.036
15917W        W82458  15.304  41.462   4.365
15918W        W82459   6.920  13.912  14.285
15919W        W82460  36.489  32.779   4.022
15920W        W82461   3.269  43.597   4.128
15921W        W82462  11.626  20.696   1.784
15922W        W82463   2.696  29.370  14.507
15923W        W82464  33.051  12.123   5.046
15924W        W82465  17.563  21.491   0.817
15925W        W82466  20.156  22.706  14.018
15926W        W82467  44.472  21.160  11.994
15927W        W82468   2.926   5.579  14.799
15928W        W82469  15.762  36.825   2.896
15929W        W82470  22.512  13.450   2.632
15930W        W82471   2.677  34.879  12.525
15931W        W82472  16.819  35.073  10.441
15932W        W82473  31.599  41.029  14.023
15933W        W82474  30.880  41.140   3.227
15934W        W82475   5.893  20.756  13.817
15935W        W82476  37.551  12.278   3.311
15936W        W82477  38.169  22.782   2.749
15937W        W82478  10.641   5.806  10.488
15938W        W82479  19.999  38.846   1.407
15939W        W82480  22.628   3.059   3.305
15940W        W82481  42.330   6.594   1.100
15941W        W82482  44.003  33.900  13.919
15942W        W82483  14.665  34.695  12.029
15943W        W82484   3.729  24.223   2.004
15944W        W82485   6.427  43.342   3.890
15945W        W82486   7.954  44.205  12.208
15946W        W82487  41.385  38.983  12.131
15947W        W82488   0.536  20.510   3.344
15948W        W82489  37.300  29.093  14.987
15949W        W82490   0.996  29.975   0.831
15950W        W82491   6.124  34.570   4.865
15951W        W82492  21.092  20.381   2.316
15952W        W82493  32.683  11.879   0.690
15953W        W82494  34.595  33.422  14.380
15954W        W82495  34.089   1.510   9.850
15955W        W82496  37.370  30.330   0.969
15956W        W82497  10.062  33.959  14.940
15957W        W82498  35.391  44.630   1.221
15958W        W82499  30.985  40.904  11.542
15959W        W82500   9.774  30.297   0.338
15960W        W82501  31.911   0.638   5.028
15961W        W82502  37.274  37.513  12.956
15962W        W82503  37.272  13.463  13.308
15963W        W82504  35.301  30.714  11.191
15964W        W82505   9.828   0.468   1.489
15965W        W82506  25.883  38.875  14.979
15966W        W82507  26.530  32.091  11.369
15967W        W82508  25.140  21.185  13.926
15968W        W82509  22.062  37.496   0.027
15969W        W82510   2.228  31.928  10.945
15970W        W82511  29.153  35.236   3.081
15971W        W82512  15.525  41.866   2.192
15972W        W82513  18.500  31.670  13.795
15973W        W82514  39.342  43.244  11.888
15974W        W82515  38.824  25.259   1.840
15975W        W82516  31.555  28.978   4.645
15976W        W82517   7.775  24.831  12.903
15977W        W82518  19.054  24.665   3.764
15978W        W82519  44.051  42.996  12.526
15979W        W82520  27.543  44.223  12.575
15980W        W82521  42.991  25.055   2.915
15981W        W82522  15.865  43.733  14.051
15982W        W82523  38.237   7.903  12.056
15983W        W82524  12.663  15.681  13.841
15984W        W82525   9.651  35.805   2.766
15985W        W82526  15.366   2.146   4.148
15986W        W82527   9.095  16.015   1.257
15987W        W82528  30.396   7.252   3.591
15988W        W82529  41.519   2.949   1.291
15989W        W82530  28.613  34.563  14.348
15990W        W82531  24.228  25.156  13.993
15991W        W82532  39.123  38.622   1.356
15992W        W82533   5.796  14.227  10.361
15993W        W82534   5.519  33.245   0.765
15994W        W82535  24.976  28.522   4.626
15995W        W82536  22.290  13.806   2.970
15996W        W82537  44.523  10.906  13.347
15997W        W82538  21.646  11.577   3.795
15998W        W82539  33.982  25.333   2.813
15999W        W82540  24.989   2.352   4.467
16000W        W82541  20.557  37.406   2.830
16001W        W82542  13.673  25.665   3.308
16002W        W82543  38.647  11.696  14.080
16003W        W82544   6.451  36.655   1.802
16004W        W82545   4.464   6.766   1.809
16005W        W82546   1.383  29.316   0.386
16006W        W82547  32.120  25.520   0.223
16007W        W82548   1.679  17.773  12.822
16008W        W82549  26.919   6.667   0.534
16009W        W82550  11.797  20.423  12.965
16010W        W82551  37.167  14.815  11.766
16011W        W82552  20.643  26.770   3.821
16012W        W82553  42.809  16.740   0.248
16013W        W82554   0.032  18.584  10.747
16014W        W82555  44.137  32.585   4.228
16015W        W82556  16.000   0.541  14.256
16016W        W82557  33.994  36.480   3.520
16017W        W82558   9.299   8.932  11.712
16018W        W82559  30.089   6.281   2.629
16019W        W82560  35.068  33.944   3.411
16020W        W82561   2.264  39.343   1.261
16021W        W82562  37.391   4.610  11.853
16022W        W82563  39.112  22.105   3.376
16023W        W82564   5.975  18.229  13.640
16024W        W82565  31.084  36.072  10.644
16025W        W82566   7.684   3.318  10.901
16026W        W82567  17.263  13.693  12.783
16027W        W82568  16.984  32.038  14.822
16028W        W82569  32.047  38.839   0.466
16029W        W82570   5.255  44.358  10.678
16030W        W82571  41.313   0.864  14.647
16031W        W82572  28.483   5.240   0.868
16032W        W82573  10.291   6.753   2.967
16033W        W82574  34.363  41.617   3.691
16034W        W82575  32.650  25.004  14.704
16035W        W82576  22.662  33.183   0.321
16036W        W82577  42.311  27.914  13.387
16037W        W82578   9.896  40.830  14.388
16038W        W82579   5.888  41.737   9.743
16039W        W82580   8.111   5.324  10.693
16040W        W82581  25.713   7.747   3.405
16041W        W82582  30.023  26.321  12.072
16042W        W82583  29.900  11.107  12.465
16043W        W82584   7.754  28.354  11.604
16044W        W82585  20.371  28.970  10.708
16045W        W82586   8.922  27.124  12.130
16046W        W82587   1.911  31.817   1.276
16047W        W82588  42.256  21.732  11.990
16048W        W82589  38.803  11.807  13.004
16049W        W82590  44.135  24.160   0.437
16050W        W82591  14.667  41.489  14.451
16051W        W82592   4.856   4.762   3.590
16052W        W82593   4.995  25.147   3.095
16053W        W82594  39.512  13.540   2.117
16054W        W82595  11.310   6.386  12.852
16055W        W82596   5.201  28.051   1.450
16056W        W82597   8.649  10.402  12.042
16057W        W82598  11.877  36.763   3.520
16058W        W82599  23.829  35.440  13.277
16059W        W82600   7.193  12.086  13.101
16060W        W82601   6.653  37.823   3.796
16061W        W82602  28.940   5.402   3.137
16062W        W82603  43.758  32.593  12.391
16063W        W82604  35.404   9.824   2.780
16064W        W82605   5.577  17.698  13.996
16065W        W82606  42.012  39.944  11.355
16066W        W82607  11.377  26.582   2.703
16067W        W82608  23.023  15.591  10.612
16068W        W82609  37.822  12.681   2.645
16069W        W82610   9.903  31.103   4.218
16070W        W82611   4.761   2.351   0.511
16071W        W82612  27.029  23.668  13.801
16072W        W82613  14.289  23.014  11.079
16073W        W82614  40.283  33.021  14.872
16074W        W82615   5.675  31.585   0.483
16075W        W82616  41.095  25.141  13.900
16076W        W82617  34.852  20.276  13.527
16077W        W82618  10.421   2.845  12.428
16078W        W82619  33.858  37.611  10.817
16079W        W82620  31.414  15.290  14.227
16080W        W82621  40.744  30.963  13.435
16081W        W82622  18.037  43.245  13.499
16082W        W82623   0.622  12.360   0.985
16083W        W82624  13.216  39.439   1.887
16084W        W82625  26.586  16.068   4.536
16085W        W82626  39.274   6.728  13.010
16086W        W82627  39.303  21.901  12.551
16087W        W82628  34.848  38.530  11.984
16088W        W82629  21.089  31.479  11.447
16089W        W82630   0.527  23.737   1.355
16090W        W82631  44.700  29.685  10.919
16091W        W82632  12.328  26.955   3.303
16092W        W82633   4.541  32.447   5.067
16093W        W82634   9.955  20.598   3.680
16094W        W82635  30.438   6.562   0.351
16095W        W82636  34.556  11.824   4.944
16096W        W82637  34.477  12.294   2.249
16097W        W82638  15.122  19.653  14.363
16098W        W82639   1.164  18.445  12.062
16099W        W82640  27.020  14.086   0.930
16100W        W82641  39.112   9.429  11.672
16101W        W82642   5.865  26.879   4.386
16102W        W82643   3.336  39.026  13.402
16103W        W82644  10.268  30.984   2.382
16104W        W82645   2.348  25.302   0.914
16105W        W82646  20.624  33.228  13.499
16106W        W82647   3.012  35.015   9.815
16107W        W82648  13.368  34.855  10.730
16108W        W82649  25.045  19.080   2.013
16109W        W82650   6.985  41.098  11.242
16110W        W82651  41.739  34.017  12.084
16111W        W82652  41.323   6.747  12.412
16112W        W82653  31.083  24.896   1.684
16113W        W82654  28.490  28.134  14.501
16114W        W82655  10.641  15.705  14.342
16115W        W82656   4.910   7.921   1.218
16116W        W82657  11.811  18.643   0.773
16117W        W82658  40.036  12.600   4.503
16118W        W82659  39.393  38.547   2.784
16119W        W82660  33.433   7.343  13.566
16120W        W82661  20.237  26.553   1.109
16121W        W82662  16.693  15.853  14.951
16122W        W82663  36.047  34.512   0.997
16123W        W82664  21.734  28.962   4.323
16124W        W82665  32.210  37.862   2.304
16125W        W82666  19.300  19.517   4.628
16126W        W82667  27.557  37.802  13.554
16127W        W82668   0.671  10.725  13.864
16128W        W82669  41.098   4.793   3.218
16129W        W82670  25.917   0.453  12.449
16130W        W82671  31.363   9.141  14.480
16131W        W82672  25.064  35.873  14.355
16132W        W82673  25.237  25.063  11.236
16133W        W82674  28.103  36.570   1.235
16134W        W82675  19.003  18.576   4.199
16135W        W82676   7.886   9.250   2.722
16136W        W82677   2.244  37.466  10.457
16137W        W82678  13.138  14.797   4.809
16138W        W82679  40.552   1.763  12.125
16139W        W82680  13.409  33.998   2.714
16140W        W82681  27.535  18.044   3.139
16141W        W82682  23.732  38.533   2.644
16142W        W82683  34.151   7.800  14.535
16143W        W82684   3.600   3.330  12.618
16144W        W82685  26.857  24.147  13.899
16145W        W82686   0.980  30.600  11.049
16146W        W82687  13.669  21.040   0.663
16147W        W82688  37.939  15.559   4.527
16148W        W82689  20.622  15.352  11.818
16149W        W82690   2.927  28.085   2.129
16150W        W82691  34.362  24.645   0.433
16151W        W82692  39.053  36.493  13.487
16152W        W82693  10.676  36.435  10.764
16153W        W82694  31.910   7.197  10.343
16154W        W82695   0.217  20.623   2.436
16155W        W82696  26.126  33.140   3.408
16156W        W82697  32.184   7.510  14.932
16157W        W82698  36.325   7.173  10.273
16158W        W82699  26.597  33.992  11.451
16159W        W82700  35.559   2.763  13.939
16160W        W82701  32.854  29.096   3.615
16161W        W82702  14.153  42.048  12.142
16162W        W82703  30.501  13.032  11.129
16163W        W82704  30.633  28.394  10.608
16164W        W82705  32.188  35.521  12.344
16165W        W82706  26.182   1.623   2.377
16166W        W82707  19.290  17.232  13.211
16167W        W82708  11.353   9.319   4.448
16168W        W82709  27.151  26.075   3.639
16169W        W82710  27.519  29.490   4.020
16170W        W82711  12.737  39.343   2.168
16171W        W82712  26.192  18.705   1.759
16172W        W82713  19.073  25.643   2.732
16173W        W82714  17.089  35.545  12.106
16174W        W82715  35.044  12.983   4.758
16175W        W82716  12.629  26.722  10.687
16176W        W82717  42.951  35.498   3.572
16177W        W82718  33.158  18.803  10.688
16178W        W82719  19.283   6.592   1.404
16179W        W82720  25.405  16.671   4.690
16180W        W82721  18.267  27.034   1.954
16181W        W82722  38.413  31.534  13.541
16182W        W82723  27.155   4.992   3.642
16183W        W82724   5.321  14.557  12.824
16184W        W82725  17.384  25.003   0.066
16185W        W82726   3.872  11.890   4.212
16186W        W82727  34.444   0.820   5.316
16187W        W82728  32.215  20.832  10.098
16188W        W82729  43.452  17.125   0.490
16189W        W82730  15.609   4.271   2.250
16190W        W82731  11.140  22.314  11.170
16191W        W82732  21.144  43.704   4.381
16192W        W82733   5.746  14.643  14.598
16193W        W82734  39.969   4.647  14.116
16194W        W82735  16.658  27.931  13.053
16195W        W82736  28.275  34.582  11.168
16196W        W82737  42.539  13.907  12.326
16197W        W82738  26.422  16.865  10.763
16198W        W82739  44.407   3.175  11.466
16199W        W82740  23.178  12.193   1.291
16200W        W82741  26.944  18.707   3.226
16201W        W82742  21.270  13.413   1.841
16202W        W82743  39.914  23.137  12.536
16203W        W82744  40.828  35.423   2.985
16204W        W82745  34.903  20.241  10.931
16205W        W82746  29.899   5.365  11.207
16206W        W82747  19.379  26.224   3.887
16207W        W82748  37.074  30.528   4.168
16208W        W82749  34.638  42.559   1.888
16209W        W82750  40.163  32.473  11.474
16210W        W82751  15.212   0.543  11.430
16211W        W82752   2.407  37.017  10.701
16212W        W82753   3.828   4.603  13.350
16213W        W82754  30.402  33.363  11.716
16214W        W82755   1.843  15.831   1.619
16215W        W82756  27.583  29.407   1.040
16216W        W82757  29.083  33.492   0.220
16217W        W82758   9.505  35.503  12.455
16218W        W82759  37.972  18.517  11.834
16219W        W82760  31.811  32.493  13.820
16220W        W82761  29.552   1.266   0.912
16221W        W82762  32.922  18.078   1.333
16222W        W82763  36.594   2.003   1.811
16223W        W82764   9.494  12.775  11.549
16224W        W82765   6.636   7.691  14.772
16225W        W82766  41.301  26.879   3.721
16226W        W82767  38.974  16.190   0.197
16227W        W82768  20.801  35.015  13.800
16228W        W82769  37.372  40.836   0.902
16229W        W82770  31.576  16.712  10.447
16230W        W82771  19.066  12.710   0.782
16231W        W82772  31.876   5.456   4.139
16232W        W82773  28.437   7.401   1.449
16233W        W82774   7.457  10.474  12.369
16234W        W82775  37.139  14.223   2.751
16235W        W82776  10.663   3.394  13.614
16236W        W82777   2.322  19.565   0.508
16237W        W82778  29.840  32.087  10.489
16238W        W82779   3.438  41.296   0.260
16239W        W82780  21.082  17.591  10.973
16240W        W82781   5.490   6.928   2.574
16241W        W82782  41.540   6.675  13.524
16242W        W82783  21.149   5.232  12.095
16243W        W82784  35.512  28.497   4.844
16244W        W82785  40.791  21.693  11.969
16245W        W82786  30.169   1.238   3.409
16246W        W82787   5.669  11.207   0.065
16247W        W82788  16.277  14.732  14.514
16248W        W82789  30.769  12.587   4.041
16249W        W82790  12.837  29.228  11.139
16250W        W82791  41.487  30.466  14.053
16251W        W82792   1.267   5.727   3.735
16252W        W82793  40.359   0.821  12.573
16253W        W82794  28.150  24.035   3.883
16254W        W82795  33.083  32.497  13.221
16255W        W82796   9.190  12.702  11.150
16256W        W82797   4.729  33.098   4.378
16257W        W82798  27.127  40.204   0.810
16258W        W82799  27.614  13.183  12.205
16259W        W82800   0.522  38.933  11.415
16260W        W82801  27.004  15.371  14.044
16261W        W82802  38.829   2.765   2.254
16262W        W82803  29.860  15.454  10.520
16263W        W82804  13.197  26.045  11.887
16264W        W82805  19.231   2.274   1.459
16265W        W82806  16.980   6.634   3.391
16266W        W82807  18.016  25.781  11.105
16267W        W82808  14.097  31.360   2.188
16268W        W82809  10.353  20.219  14.746
16269W        W82810  25.505  31.368   1.305
16270W        W82811  28.947  17.614   2.822
16271W        W82812  40.716   5.697   2.885
16272W        W82813   9.568  25.407  12.462
16273W        W82814   1.862  20.315   0.795
16274W        W82815  25.196  28.488  11.983
16275W        W82816   1.485  36.404   2.103
16276W        W82817  31.123  11.853  13.893
16277W        W82818  15.272   8.269   1.825
16278W        W82819  11.151   8.200  10.375
16279W        W82820  40.990  18.690   0.458
16280W        W82821  41.807  25.508   1.738
16281W        W82822  15.699  40.263  14.050
16282W        W82823  38.321   2.788   2.111
16283W        W82824  44.879  23.380  14.877
16284W        W82825  19.765   7.398   4.241
16285W        W82826  20.995  17.559  14.028
16286W        W82827  25.274  41.517   0.401
16287W        W82828  33.525  42.300  12.912
16288W        W82829  19.232  14.913   3.659
16289W        W82830   7.273   8.089   1.736
16290W        W82831  10.875  15.125  10.565
16291W        W82832  27.656  31.485   2.035
16292W        W82833   6.351   3.339   5.178
16293W        W82834  21.751  27.027   3.643
16294W        W82835   0.439   5.447   1.237
16295W        W82836  23.481  35.091  12.461
16296W        W82837  19.255  31.887  14.503
16297W        W82838   9.565  44.876   0.266
16298W        W82839  31.094  33.556  13.768
16299W        W82840  38.931  14.410   3.652
16300W        W82841  26.452   3.381  10.875
16301W        W82842  34.327  27.701  14.035
16302W        W82843   6.611  29.561  13.879
16303W        W82844   9.411  34.574   3.776
16304W        W82845  16.117  24.460   3.904
16305W        W82846  40.820   6.038   4.653
16306W        W82847   7.014   1.027  13.888
16307W        W82848  10.059  10.453   1.601
16308W        W82849   1.712  37.557  12.686
16309W        W82850  34.362  16.084   2.754
16310W        W82851  18.844   8.192  11.758
16311W        W82852   2.409  24.211  12.962
16312W        W82853  19.808  15.540  12.198
16313W        W82854  31.104  11.870  11.969
16314W        W82855  39.343  22.765  11.594
16315W        W82856   0.257  33.061  13.378
16316W        W82857  40.224  19.058   3.751
16317W        W82858  16.853  44.205   4.682
16318W        W82859   7.646  33.915   1.428
16319W        W82860  43.474   4.746  10.806
16320W        W82861  14.170   9.878   0.507
16321W        W82862  14.507  14.037  12.582
16322W        W82863   8.272  14.814   3.884
16323W        W82864  30.119  26.826  11.956
16324W        W82865  38.453  31.949   0.826
16325W        W82866  24.603  31.899  13.056
16326W        W82867  16.657  38.742   3.653
16327W        W82868   7.181  25.570   0.221
16328W        W82869  18.168   3.872  14.973
16329W        W82870  16.050  24.901   5.146
16330W        W82871   7.327  35.933  13.070
16331W        W82872  35.909  30.045   1.566
16332W        W82873   2.434  14.534   3.294
16333W        W82874  37.043   7.802  13.939
16334W        W82875  29.651   2.046   2.583
16335W        W82876   7.758  36.351  13.846
16336W        W82877  16.500   3.630  10.636
16337W        W82878  14.698   2.235   2.203
16338W        W82879  28.003  38.344   4.967
16339W        W82880  34.733  13.850  11.658
16340W        W82881  14.493  31.493  11.660
16341W        W82882  25.295  10.261   2.780
16342W        W82883  43.223  18.147  12.513
16343W        W82884   1.030   2.765   1.646
16344W        W82885  22.111   0.965   4.932
16345W        W82886  26.530  42.503   0.914
16346W        W82887   9.030  12.854   2.287
16347W        W82888  31.902  15.881   1.309
16348W        W82889  24.185  28.438  11.194
16349W        W82890  32.981  29.633   1.475
16350W        W82891  10.837  14.118  12.547
16351W        W82892   5.160  15.014  12.981
16352W        W82893  18.269   9.808   4.635
16353W        W82894  25.299  26.479  14.533
16354W        W82895  32.375  38.454   4.922
16355W        W82896  18.197   0.752  14.482
16356W        W82897  28.572  40.648  11.928
16357W        W82898  13.264  25.344   2.143
16358W        W82899   2.064  20.328   4.360
16359W        W82900  32.178  25.486   0.759
16360W        W82901  40.017  43.907  11.869
16361W        W82902  27.538   9.159   0.794
16362W        W82903   0.433  19.322   2.203
16363W        W82904  20.470   4.415   3.235
16364W        W82905   9.763  44.538  14.362
16365W        W82906  22.996  19.541   3.549
16366W        W82907   7.111  27.528   4.643
16367W        W82908  35.606  12.772  12.592
16368W        W82909  44.984  24.693  12.899
16369W        W82910  33.464  10.581   0.876
16370W        W82911  30.383  39.348  13.942
16371W        W82912  39.843  19.156   1.737
16372W        W82913  37.785  29.625   4.107
16373W        W82914   3.354  26.330   3.542
16374W        W82915  20.052  20.755  12.213
16375W        W82916   8.424   4.738  12.967
16376W        W82917  14.385   3.811  12.925
16377W        W82918  35.354  28.663  11.659
16378W        W82919  16.320   6.362  13.414
16379W        W82920  14.887  11.287  13.042
16380W        W82921  33.142  34.026   0.232
16381W        W82922  24.571   4.860   1.694
16382W        W82923  29.630  41.571  14.451
16383W        W82924  31.346  36.267   1.789
16384W        W82925  41.015  44.794   1.819
16385W        W82926   6.803  18.102   2.880
16386W        W82927  44.436   8.115  12.837
16387W        W82928  28.439   1.062   3.723
16388W        W82929  28.116   8.618   4.695
16389W        W82930  37.034  41.789  10.604
16390W        W82931  32.419   3.329   0.292
16391W        W82932  12.792   0.293  13.159
16392W        W82933   4.270   6.844  14.618
16393W        W82934  14.309   5.646   3.720
16394W        W82935  12.936  30.547  11.129
16395W        W82936  28.426  42.884   3.827
16396W        W82937  20.510   9.867  11.196
16397W        W82938  33.551  26.478  12.391
16398W        W82939  43.340  35.996   4.181
16399W        W82940  35.847  44.540   3.641
16400W        W82941   7.275  40.755   1.381
16401W        W82942  12.228  39.778  13.985
16402W        W82943  44.249  21.763   4.969
16403W        W82944  41.335  13.025   2.248
16404W        W82945  12.771   5.943  11.468
16405W        W82946  42.868   1.998   0.896
16406W        W82947  36.872  41.040   4.549
16407W        W82948   4.427   2.758   0.347
16408W        W82949   7.760   0.059  13.054
16409W        W82950  36.685  31.852  11.210
16410W        W82951  34.826  30.077   2.916
16411W        W82952  26.859  19.822   5.264
16412W        W82953  14.082  39.234  11.471
16413W        W82954   2.725   1.327   3.856
16414W        W82955   0.766   6.321   5.146
16415W        W82956  15.606  12.860  13.334
16416W        W82957   8.725   8.233  10.634
16417W        W82958  37.528  20.233  12.211
16418W        W82959  35.128  37.060   3.121
16419W        W82960  31.669   4.810   0.831
16420W        W82961  28.591  28.676  13.092
16421W        W82962   9.757  29.014  10.606
16422W        W82963  27.121  27.582   0.268
16423W        W82964   8.608   1.566  11.566
16424W        W82965  34.933  23.970   1.610
16425W        W82966  14.761  13.121  10.964
16426W        W82967  34.479  14.617   4.403
16427W        W82968  40.427  37.483   3.131
16428W        W82969  35.718  29.614  14.438
16429W        W82970  39.701  27.603   4.563
16430W        W82971  37.439   8.197  13.831
16431W        W82972  29.289  23.073   4.591
16432W        W82973  28.433  15.699  11.976
16433W        W82974  41.879   7.764  11.156
16434W        W82975   8.682  32.330  11.602
16435W        W82976  34.215  15.111  13.930
16436W        W82977   0.263  15.814   1.311
16437W        W82978  13.764  20.535  12.976
16438W        W82979  29.699  26.181   4.378
16439W        W82980  44.283  36.969   2.716
16440W        W82981  39.916   8.903   3.184
16441W        W82982   9.698  21.910  13.016
16442W        W82983  42.031  44.098  12.376
16443W        W82984   1.908  25.945  12.933
16444W        W82985  37.832  13.745  10.253
16445W        W82986  10.032  14.191   1.034
16446W        W82987  12.873  32.307  12.381
16447W        W82988  20.021   4.724  10.695
16448W        W82989  22.238  22.275  11.385
16449W        W82990  17.306  37.570   4.570
16450W        W82991  19.553  39.811  13.549
16451W        W82992  19.149   8.463   3.322
16452W        W82993  27.606  37.944  11.314
16453W        W82994  34.630  40.554   0.745
16454W        W82995  32.884  10.641  10.634
16455W        W82996  34.358   8.214  14.084
16456W        W82997  33.240  13.425   9.891
16457W        W82998  34.292  43.031   3.727
16458W        W82999  15.530  34.835  14.998
16459W        W83000  18.527  39.704   0.763
16460W        W83001  13.289   8.032   0.814
16461W        W83002  24.240   9.279  11.096
16462W        W83003  13.279  20.139  12.031
16463W        W83004  41.603  28.251   2.606
16464W        W83005  37.548  43.316  13.409
16465W        W83006  44.285  20.981   0.409
16466W        W83007  37.597  32.478  14.410
16467W        W83008  41.944  19.565  12.140
16468W        W83009   1.919  26.672  10.658
16469W        W83010  17.001  10.141  11.956
16470W        W83011  40.604  42.883   3.265
16471W        W83012  35.665  15.749   1.426
16472W        W83013   1.339  43.950   4.173
16473W        W83014  29.897  41.929   0.419
16474W        W83015  13.320   5.242   0.938
16475W        W83016  12.039  33.623  13.456
16476W        W83017  21.061  22.254   4.415
16477W        W83018  11.431  43.734   0.988
16478W        W83019  36.412  38.370  11.894
16479W        W83020  17.546   4.200  13.891
16480W        W83021   5.422   8.634   0.894
16481W        W83022   9.328  27.148   4.896
16482W        W83023  32.201  39.322  11.508
16483W        W83024   5.317  28.223   0.448
16484W        W83025  35.088   5.944   5.447
16485W        W83026  44.466  10.236   5.209
16486W        W83027  40.509  12.289   0.367
16487W        W83028  27.720  25.109   4.760
16488W        W83029  18.312  41.513   4.145
16489W        W83030  27.132  18.800   2.750
16490W        W83031  35.473   9.063  11.618
16491W        W83032  21.013  40.815  12.002
16492W        W83033  44.767  33.204   1.987
16493W        W83034  32.840  40.040  14.037
16494W        W83035   5.983  34.997  10.735
16495W        W83036  37.978  39.308  10.737
16496W        W83037  10.254  39.416  11.796
16497W        W83038   6.439  38.569   4.453
16498W        W83039  26.465  23.241   2.273
16499W        W83040  11.266  29.545  12.615
16500W        W83041  40.352  23.471   3.202
16501W        W83042  38.000  27.063  10.580
16502W        W83043  28.454   6.908  13.001
16503W        W83044   2.764   9.287  14.359
16504W        W83045  24.935  41.316  11.597
16505W        W83046  44.514   6.747  11.204
16506W        W83047  23.163  26.737   3.734
16507W        W83048  27.635  42.523  10.720
16508W        W83049  39.783  12.320   9.841
16509W        W83050  41.420  38.782   0.875
16510W        W83051  14.146  34.602  11.053
16511W        W83052  16.209  12.105  12.178
16512W        W83053  28.700  40.820   1.395
16513W        W83054  16.262  34.393  14.434
16514W        W83055  25.616  18.870   4.108
16515W        W83056   9.064  28.408  11.910
16516W        W83057  26.139  16.806  13.987
16517W        W83058  39.697  37.869  10.549
16518W        W83059   9.710  44.762  11.376
16519W        W83060  39.110  11.590   0.796
16520W        W83061   6.094  33.839   0.602
16521W        W83062  35.377  39.533   1.729
16522W        W83063  39.895  27.696   0.263
16523W        W83064  24.134  26.049   2.588
16524W        W83065  26.893  20.159  11.195
16525W        W83066  23.193   6.729  12.341
16526W        W83067  31.547  35.113   4.540
16527W        W83068   1.610   8.026   3.714
16528W        W83069   9.053  14.171   4.223
16529W        W83070  36.883   9.103   0.427
16530W        W83071   6.354  33.315  14.447
16531W        W83072  15.581  14.808  10.165
16532W        W83073  38.331  28.738   0.753
16533W        W83074  15.989  16.477   9.894
16534W        W83075  30.655  43.267   0.205
16535W        W83076  17.598   3.681  13.029
16536W        W83077  41.529  17.497  13.284
16537W        W83078  10.147   6.463   2.199
16538W        W83079  14.884  23.500   1.340
16539W        W83080  19.481   4.404   0.721
16540W        W83081  13.435  34.559   1.164
16541W        W83082  33.998  27.481   0.352
16542W        W83083  31.377  14.253   1.737
16543W        W83084  24.927  10.227   4.424
16544W        W83085  32.615   9.942   2.267
16545W        W83086   1.297  28.381   4.468
16546W        W83087  25.813  18.305   0.428
16547W        W83088   4.633  13.794   4.636
16548W        W83089  39.822  32.476   1.439
16549W        W83090  34.582   0.790   3.647
16550W        W83091  44.780  37.660  14.021
16551W        W83092   1.828  30.544  14.463
16552W        W83093  40.699  23.483  11.602
16553W        W83094  12.767   0.942   0.388
16554W        W83095   9.438  35.610  11.157
16555W        W83096  40.290  27.618   3.196
16556W        W83097  27.500  33.954  13.954
16557W        W83098  12.774  31.065   5.127
16558W        W83099  39.749  25.995  11.111
16559W        W83100   1.498   2.856   1.812
16560W        W83101  44.124  11.254  12.435
16561W        W83102  31.385  41.944   3.321
16562W        W83103   7.749   0.196   4.347
16563W        W83104  27.249  33.936  12.516
16564W        W83105  40.092  16.106   3.329
16565W        W83106  17.233  32.883  14.282
16566W        W83107  43.933  32.903   3.567
16567W        W83108  29.480  11.851   3.118
16568W        W83109  17.797   9.859   2.245
16569W        W83110   5.260  21.844  13.132
16570W        W83111  33.065   4.198   3.970
16571W        W83112  15.340  33.032   5.266
16572W        W83113  14.483   4.723  14.550
16573W        W83114  32.878  41.091  13.760
16574W        W83115  20.220  29.201   2.480
16575W        W83116  36.936  26.197  11.960
16576W        W83117  28.672   4.354  14.332
16577W        W83118   1.056   6.325  13.587
16578W        W83119  44.488  16.209  10.831
16579W        W83120  23.104   4.489   1.430
16580W        W83121  18.743  43.750  14.082
16581W        W83122  23.739  28.401   1.009
16582W        W83123  42.710  17.293   2.782
16583W        W83124  28.446  30.471  11.139
16584W        W83125  25.137  42.131   1.069
16585W        W83126  23.522   6.376   2.558
16586W        W83127   3.455  10.819  10.667
16587W        W83128  43.934  40.939  12.890
16588W        W83129  15.755   3.963   0.330
16589W        W83130  21.913   9.158   3.172
16590W        W83131   4.831  32.570  13.018
16591W        W83132  23.195   5.833  13.601
16592W        W83133  24.191  34.165   0.447
16593W        W83134  36.389  26.255   2.356
16594W        W83135  24.655  22.290  11.479
16595W        W83136  30.478  21.550   0.990
16596W        W83137  34.398   9.338  11.469
16597W        W83138  14.525  18.624   4.248
16598W        W83139  35.802  13.776  14.295
16599W        W83140  16.821  37.837   1.749
16600W        W83141  21.047  24.168  14.551
16601W        W83142  28.523  18.614  12.601
16602W        W83143  30.694   3.301   4.175
16603W        W83144  25.365  15.585  14.441
16604W        W83145  15.809  34.628  14.235
16605W        W83146   1.207  36.292  13.086
16606W        W83147  13.175  22.800  10.673
16607W        W83148  10.674  17.558   1.934
16608W        W83149  21.668  15.588  13.514
16609W        W83150  36.971  24.620   3.901
16610W        W83151  32.960   0.526   3.758
16611W        W83152  27.516  43.942   1.246
16612W        W83153   7.459  32.664   1.917
16613W        W83154  26.016  21.722  10.529
16614W        W83155  13.628  26.381  13.033
16615W        W83156  42.059   0.340   3.117
16616W        W83157  41.232  33.420   1.016
16617W        W83158  17.293  31.516   1.954
16618W        W83159  19.154  32.442  11.040
16619W        W83160  36.242  32.659  14.281
16620W        W83161  13.107  34.963  13.004
16621W        W83162  16.752  40.776  10.697
16622W        W83163   8.404   3.903   0.452
16623W        W83164  10.325  22.181   4.936
16624W        W83165  12.349  25.697  12.845
16625W        W83166  28.358   7.030   4.217
16626W        W83167  31.052  35.327   1.912
16627W        W83168  18.787  16.469  13.632
16628W        W83169  16.230  13.688   0.033
16629W        W83170  19.573   7.642  14.776
16630W        W83171   1.238  20.622  12.110
16631W        W83172  10.317   3.709   5.034
16632W        W83173  30.435  31.188  14.052
16633W        W83174  38.500   2.830  11.968
16634W        W83175  39.206  16.158  13.489
16635W        W83176  20.559  22.667   3.794
16636W        W83177  12.580  12.078  12.069
16637W        W83178   8.660  16.142  12.480
16638W        W83179  22.635  14.731   3.286
16639W        W83180  44.301  32.598   2.686
16640W        W83181   8.458   9.121  10.537
16641W        W83182  36.744  29.120   0.035
16642W        W83183  17.134  30.772  11.791
16643W        W83184   7.788  24.205  14.059
16644W        W83185  27.017   9.113   0.925
16645W        W83186  44.855  37.154  13.959
16646W        W83187  24.734  38.503   4.235
16647W        W83188  29.565   4.014   2.303
16648W        W83189  26.455  33.048  14.148
16649W        W83190  42.542  17.811  11.705
16650W        W83191  44.320  17.405  14.731
16651W        W83192   7.293   5.565  14.598
16652W        W83193  28.486   1.531   4.683
16653W        W83194  40.983  14.808   1.336
16654W        W83195  40.369  37.719   4.054
16655W        W83196   0.663  27.536  12.385
16656W        W83197  11.765   5.702  14.372
16657W        W83198  18.581  15.845   3.866
16658W        W83199  15.794  19.639  13.898
16659W        W83200  22.040  25.651  12.422
16660W        W83201  14.686   7.078  14.911
16661W        W83202   7.212  18.282   3.698
16662W        W83203   0.863   7.901  11.531
16663W        W83204  14.177  16.849   2.266
16664W        W83205  37.858  13.685   3.743
16665W        W83206  44.996  13.842  12.874
16666W        W83207  10.189  15.702   2.882
16667W        W83208  25.648  33.439   1.389
16668W        W83209  27.695   9.914  14.365
16669W        W83210  16.344  33.894  13.818
16670W        W83211  19.082  29.992   3.143
16671W        W83212  16.566   7.124   1.073
16672W        W83213  16.683  26.595  12.421
16673W        W83214  25.669  35.938   4.156
16674W        W83215  27.655   3.338  13.509
16675W        W83216  37.480  11.300  13.864
16676W        W83217  10.408  14.562  14.756
16677W        W83218   3.702  44.686  11.021
16678W        W83219  27.114   5.305   0.747
16679W        W83220  28.515  44.777   0.696
16680W        W83221  18.533  23.714   0.235
16681W        W83222   3.529  28.163  13.562
16682W        W83223  17.639  11.258   4.307
16683W        W83224  17.703  32.470  12.823
16684W        W83225  21.432  22.600  13.822
16685W        W83226   2.002  24.828   4.144
16686W        W83227  43.023  39.965  13.345
16687W        W83228  40.010   2.439  13.813
16688W        W83229  25.420  27.417  11.502
16689W        W83230  22.321  43.054   3.157
16690W        W83231  43.018  37.286   4.278
16691W        W83232  14.548  40.307   4.571
16692W        W83233  10.660  23.133  12.147
16693W        W83234   4.974  15.299   4.781
16694W        W83235  26.716  23.132  12.600
16695W        W83236  26.418  41.604  11.839
16696W        W83237  27.425   1.692  10.954
16697W        W83238   1.504  23.588   3.867
16698W        W83239   9.606  34.894  14.865
16699W        W83240  15.763  33.034  10.246
16700W        W83241  37.678  10.431   4.062
16701W        W83242  19.778   8.123   3.277
16702W        W83243  40.367  36.937  11.619
16703W        W83244   2.381  18.508  10.803
16704W        W83245   2.491  12.629  12.925
16705W        W83246  43.349  36.877  12.818
16706W        W83247  39.060  34.583   4.111
16707W        W83248   2.843  38.499   2.335
16708W        W83249  36.243   2.459   2.661
16709W        W83250  19.119  25.317   0.756
16710W        W83251  14.159  34.162   3.788
16711W        W83252   0.082  32.358  12.951
16712W        W83253   3.919   1.495  11.967
16713W        W83254  28.032  17.069   3.608
16714W        W83255  14.096   9.879  12.970
16715W        W83256   6.396  29.465   1.765
16716W        W83257  40.768  12.299  12.925
16717W        W83258  25.933  44.810  14.835
16718W        W83259  27.457  19.466   1.257
16719W        W83260  13.658   7.803   3.150
16720W        W83261  25.590  20.300   2.258
16721W        W83262  23.236  24.945  11.353
16722W        W83263  23.627  25.531   1.806
16723W        W83264   1.887  40.056   0.966
16724W        W83265  37.032  12.140  13.517
16725W        W83266  26.137  44.345   1.701
16726W        W83267   0.506  32.025  12.580
16727W        W83268  14.177  39.408  12.816
16728W        W83269   2.764  27.430   3.285
16729W        W83270  38.268   3.466   0.997
16730W        W83271  19.476   4.535  13.449
16731W        W83272   0.521  27.190  13.515
16732W        W83273  34.035   0.738   4.486
16733W        W83274  44.009  17.688  12.412
16734W        W83275  25.413  14.209  14.446
16735W        W83276  10.458  38.772   3.227
16736W        W83277  13.942  28.174  11.093
16737W        W83278  21.207  36.489   4.032
16738W        W83279  31.454  38.070  12.484
16739W        W83280  18.477  40.484  11.206
16740W        W83281  13.399  33.226  13.496
16741W        W83282  28.151  36.466  13.013
16742W        W83283  41.561  14.270   0.838
16743W        W83284  20.013  36.371  11.463
16744W        W83285  10.719   4.566   4.134
16745W        W83286  17.064   5.682  12.348
16746W        W83287   0.898   6.865  11.443
16747W        W83288  20.582  31.657   2.032
16748W        W83289  15.993   5.833   4.678
16749W        W83290  38.472  38.262   4.236
16750W        W83291  42.847  41.003   0.902
16751W        W83292  36.830  16.297   3.488
16752W        W83293  44.331   5.327   3.659
16753W        W83294  26.945  21.806  14.424
16754W        W83295   7.760  12.004   3.980
16755W        W83296  27.861  12.674  14.416
16756W        W83297   8.501   1.162   3.764
16757W        W83298   3.976  41.770  13.382
16758W        W83299  14.813   5.560  12.928
16759W        W83300  43.370  37.930  10.725
16760W        W83301  11.121  36.829   2.708
16761W        W83302   8.315  16.468  11.227
16762W        W83303  27.874  23.666  12.837
16763W        W83304  37.163  41.763   2.622
16764W        W83305  17.687   4.941   0.875
16765W        W83306  31.971   8.636   0.133
16766W        W83307  44.852  23.617  11.980
16767W        W83308   8.810   6.910   1.167
16768W        W83309  20.752  13.182  14.842
16769W        W83310  29.355  18.847  12.069
16770W        W83311  10.231  40.944   4.134
16771W        W83312  15.166  42.022   0.760
16772W        W83313  24.261  17.721   1.720
16773W        W83314   1.755  11.632   4.869
16774W        W83315  40.925   1.414  11.699
16775W        W83316   4.005  25.160  14.771
16776W        W83317  27.467  10.203   1.417
16777W        W83318  38.975   5.875   2.864
16778W        W83319  17.744  27.476   2.047
16779W        W83320  17.298   9.335   3.842
16780W        W83321  19.088   6.365   0.790
16781W        W83322  24.494   1.420   2.167
16782W        W83323   3.985   3.888  11.965
16783W        W83324  15.056  26.893   4.537
16784W        W83325  18.797  36.075  12.942
16785W        W83326  18.431  41.503   1.331
16786W        W83327  36.530  27.462  13.558
16787W        W83328  14.200  11.997   4.545
16788W        W83329  30.390   2.534  11.105
16789W        W83330  28.693  34.850  11.129
16790W        W83331   4.787   6.489   3.221
16791W        W83332  15.102  16.275   0.946
16792W        W83333  34.368  37.283   1.801
16793W        W83334  22.628  12.045   4.586
16794W        W83335  24.498  28.655   3.911
16795W        W83336  22.614   5.483  12.430
16796W        W83337  29.685  13.238  11.543
16797W        W83338   6.781   3.667  11.689
16798W        W83339  28.887   0.867   0.364
16799W        W83340  25.726  20.811   2.231
16800W        W83341  24.704  14.866   1.823
16801W        W83342  32.849   7.765  11.133
16802W        W83343  31.937  16.275  14.420
16803W        W83344  35.592   4.856  11.998
16804W        W83345  22.785  13.794  13.280
16805W        W83346  15.803  23.122  14.811
16806W        W83347  42.837  29.480  11.933
16807W        W83348   7.291  21.021  13.453
16808W        W83349   9.064  15.548   3.719
16809W        W83350  31.263   9.302  12.631
16810W        W83351  25.006  41.821  11.605
16811W        W83352  33.545  35.367   1.509
16812W        W83353  16.265  20.499  14.496
16813W        W83354  37.841  28.738   2.350
16814W        W83355   1.700   1.918  12.000
16815W        W83356  15.635   3.436  12.465
16816W        W83357  17.513  40.609   1.105
16817W        W83358  22.095   8.103  13.734
16818W        W83359  33.942  19.211   1.835
16819W        W83360  28.604   8.437   1.380
16820W        W83361  36.353  31.623   2.926
16821W        W83362  28.052   4.846   0.921
16822W        W83363  31.021  39.435   3.067
16823W        W83364  14.805  26.643  12.043
16824W        W83365  22.237  25.103   2.344
16825W        W83366  42.626   9.624  10.681
16826W        W83367  19.526  28.724  13.326
16827W        W83368  23.012  20.654   4.570
16828W        W83369  20.819   3.265  14.913
16829W        W83370  40.112  39.159  11.349
16830W        W83371  12.687  26.450  13.449
16831W        W83372   6.823   4.883   2.827
16832W        W83373  11.925  21.434   5.156
16833W        W83374  24.173  39.407  10.297
16834W        W83375  28.576  26.432   0.737
16835W        W83376   6.119  24.300   1.911
16836W        W83377  36.144  41.215  13.435
16837W        W83378  41.317   8.889   2.804
16838W        W83379  21.666   9.408  11.896
16839W        W83380  12.191   8.062   1.295
16840W        W83381  31.509   6.340  14.654
16841W        W83382   3.154  14.112  11.916
16842W        W83383   8.899   7.790  13.489
16843W        W83384   7.085  25.957   1.502
16844W        W83385  25.460  24.166   0.453
16845W        W83386  11.110  24.217   1.465
16846W        W83387  28.051  13.570  10.614
16847W        W83388  42.018  42.889   0.463
16848W        W83389  20.181   7.381  10.714
16849W        W83390  20.438   0.636  13.111
16850W        W83391  32.990  39.350  11.757
16851W        W83392  27.583  26.693  13.788
16852W        W83393  30.510  41.727  13.536
16853W        W83394  24.616   6.088   0.909
16854W        W83395  15.565  38.129   2.620
16855W        W83396  43.894  16.401   2.845
16856W        W83397  27.490  13.643  11.425
16857W        W83398  25.590  11.956  13.846
16858W        W83399  24.282  28.468  12.259
16859W        W83400  23.056  28.623  14.052
16860W        W83401  31.952  22.831  11.067
16861W        W83402   7.390  15.532  14.759
16862W        W83403  44.945  44.898   2.368
16863W        W83404  35.886  22.020  10.567
16864W        W83405  37.088   5.820  11.670
16865W        W83406  32.093   6.494  14.456
16866W        W83407  30.882  42.411   1.957
16867W        W83408   5.394  44.248  13.039
16868W        W83409  25.501  14.709  11.792
16869W        W83410  40.459  30.544   4.092
16870W        W83411  11.055   2.743  11.558
16871W        W83412  26.735  27.880   4.638
16872W        W83413  32.006   5.700  13.091
16873W        W83414  17.801  20.208   0.544
16874W        W83415   8.563  11.932  14.410
16875W        W83416  22.687  10.215   5.106
16876W        W83417  13.065  30.333  10.685
16877W        W83418  31.035   7.961   4.682
16878W        W83419  31.389  30.929  11.582
16879W        W83420  41.929  21.083  12.124
16880W        W83421  10.570  36.485  13.826
16881W        W83422  34.327   4.368  11.981
16882W        W83423  42.751  38.885  14.023
16883W        W83424  32.333  20.795  11.935
16884W        W83425  17.349   1.082  14.834
16885W        W83426  42.976  34.820   0.929
16886W        W83427   6.524  25.135  12.548
16887W        W83428   8.073  31.215  14.881
16888W        W83429  12.808  32.032   0.856
16889W        W83430   1.868  37.896  14.457
16890W        W83431  33.892  15.226   2.871
16891W        W83432  44.402  10.861   2.099
16892W        W83433  16.063  39.451  13.893
16893W        W83434   8.334   4.986  13.436
16894W        W83435  17.266   5.455  12.896
16895W        W83436  23.096  23.448   0.309
16896W        W83437   6.370   7.900   1.237
16897W        W83438   2.943   2.368   2.405
16898W        W83439  12.071   7.533   1.243
16899W        W83440   9.748   7.323  12.489
16900W        W83441   1.190   7.809  13.390
16901W        W83442   9.757  40.001   3.268
16902W        W83443  31.584   8.616   3.686
16903W        W83444   2.958  18.074  11.816
16904W        W83445  13.296  31.896  14.321
16905W        W83446   1.521   1.913   5.394
16906W        W83447  10.565  30.993  12.591
16907W        W83448  38.011   1.954   5.128
16908W        W83449  15.801  17.182   5.095
16909W        W83450  31.700  12.400  14.124
16910W        W83451  44.481  26.198   1.688
16911W        W83452  23.688  29.606  10.995
16912W        W83453  15.247   4.806   2.850
16913W        W83454  39.469   9.667  11.945
16914W        W83455   7.741  30.565   2.765
16915W        W83456  29.145   5.942   0.748
16916W        W83457  30.454  31.765   4.179
16917W        W83458  37.055   0.242   1.323
16918W        W83459  42.990  22.709  12.518
16919W        W83460  20.707  13.626  12.365
16920W        W83461  13.735  10.142   0.316
16921W        W83462  44.791  27.024  10.435
16922W        W83463  29.925  16.854   2.032
16923W        W83464  16.514  11.593  11.481
16924W        W83465  26.140  20.479   2.886
16925W        W83466  40.093  36.880   2.900
16926W        W83467  44.566  10.092   1.689
16927W        W83468  28.122   6.044   3.293
16928W        W83469  16.837  23.393  11.447
16929W        W83470  25.932  30.439  12.395
16930W        W83471  27.681  37.382   3.704
16931W        W83472  16.525   9.367   4.237
16932W        W83473   2.199   2.840  11.625
16933W        W83474  37.964  23.523  12.019
16934W        W83475  42.263  30.270  13.763
16935W        W83476  27.517  42.320  14.007
16936W        W83477  15.360  26.084   1.970
16937W        W83478   1.153  33.442  12.981
16938W        W83479  43.685  26.156  12.148
16939W        W83480  24.870  11.789  12.473
16940W        W83481  12.095  42.104   1.266
16941W        W83482  19.604  28.607   4.002
16942W        W83483  30.213  18.793  13.097
16943W        W83484  26.189   7.374  11.198
16944W        W83485   4.219  19.156   0.913
16945W        W83486  23.766  35.924  14.756
16946W        W83487  25.267   3.277   1.191
16947W        W83488  27.572  35.825  14.026
16948W        W83489  20.013  31.112  10.420
16949W        W83490  27.184  36.050  12.422
16950W        W83491  14.225  19.680  12.802
16951W        W83492  29.987  31.166  13.754
16952W        W83493  36.628  40.698  11.409
16953W        W83494  34.393  32.557  14.960
16954W        W83495  37.020  32.642  14.790
16955W        W83496  29.229  33.630  11.610
16956W        W83497  24.652  34.469   0.262
16957W        W83498  37.570   8.717  13.743
16958W        W83499   3.154  19.768  10.888
16959W        W83500  35.885  42.043  13.289
16960W        W83501   4.969  19.858  12.114
16961W        W83502  15.493  21.992   9.974
16962W        W83503  16.148   9.963   2.844
16963W        W83504  18.301  33.467  11.587
16964W        W83505  34.003  28.684  12.608
16965W        W83506  16.297  18.793   1.099
16966W        W83507  39.439  44.497  14.930
16967W        W83508  40.024  35.070   1.738
16968W        W83509  14.033   3.726  13.309
16969W        W83510   9.176  13.710  10.582
16970W        W83511  12.295   3.196   0.266
16971W        W83512  29.411  39.021  11.755
16972W        W83513  19.356  18.556  13.474
16973W        W83514  34.805  34.901   0.848
16974W        W83515  16.475  15.706  12.003
16975W        W83516  44.176  44.110  13.162
16976W        W83517   0.517  39.131  13.053
16977W        W83518  17.216  33.438  14.957
16978W        W83519  27.469  29.149   2.762
16979W        W83520  16.783  28.860   4.118
16980W        W83521  38.029   6.816  12.057
16981W        W83522  23.992  33.928  12.566
16982W        W83523  26.202  32.632  13.961
16983W        W83524   4.850  25.954   1.135
16984W        W83525  27.637   5.336   0.402
16985W        W83526   5.251  31.434  14.048
16986W        W83527  12.334  26.209  10.844
16987W        W83528   8.319  16.026   1.458
16988W        W83529   3.726  36.174   1.572
16989W        W83530   6.109  39.817  11.913
16990W        W83531  27.540  17.978  13.371
16991W        W83532   1.772  38.393   2.368
16992W        W83533  44.077  11.130   4.640
16993W        W83534  17.825  22.515   1.893
16994W        W83535  23.490  32.931   3.344
16995W        W83536  41.079  19.455   3.858
16996W        W83537  12.414  20.190  12.436
16997W        W83538  24.933  27.851   5.161
16998W        W83539  26.469  11.941   2.307
16999W        W83540   1.393  16.370  13.427
17000W        W83541   5.881  15.498  13.793
17001W        W83542  14.595  34.054   0.457
17002W        W83543   8.914  24.437   3.062
17003W        W83544   6.463   2.619   1.911
17004W        W83545  15.237  20.541   2.560
17005W        W83546   1.867  32.686   9.827
17006W        W83547  32.650  25.499  12.802
17007W        W83548  31.481  20.516   2.819
17008W        W83549   5.293   7.168  11.527
17009W        W83550  33.144   2.591   2.290
17010W        W83551   1.462  31.896  14.486
17011W        W83552  34.828   3.001   2.805
17012W        W83553  11.136   3.446  11.052
17013W        W83554  29.233  15.253   3.779
17014W        W83555  23.255  14.287  10.615
17015W        W83556  30.350  39.554   2.787
17016W        W83557  31.992  41.740  11.695
17017W        W83558  24.084   6.370   2.236
17018W        W83559   7.673  20.996   0.511
17019W        W83560  26.307  35.438  10.931
17020W        W83561   4.157  37.421   2.205
17021W        W83562  12.164  19.592  13.941
17022W        W83563  39.027  41.982   0.758
17023W        W83564   8.780  12.581   3.343
17024W        W83565  35.923  16.877   1.902
17025W        W83566  35.424  21.854   0.792
17026W        W83567  24.055  29.257  10.166
17027W        W83568  22.239  14.428   2.262
17028W        W83569  40.187  32.040  11.999
17029W        W83570  30.903  15.750   4.284
17030W        W83571  35.014  13.872  11.236
17031W        W83572  39.646  25.984  12.537
17032W        W83573  23.613  29.331   3.654
17033W        W83574  17.089  35.271   2.834
17034W        W83575  38.221  13.676   9.921
17035W        W83576  28.599  32.930   1.864
17036W        W83577  16.229  30.572   3.707
17037W        W83578  38.365  39.776  13.860
17038W        W83579   6.422  22.591   4.220
17039W        W83580  29.470  30.344   0.285
17040W        W83581   9.988   9.898   0.864
17041W        W83582   9.921  37.878  11.579
17042W        W83583  20.730  27.490  13.000
17043W        W83584  18.247  44.707   2.193
17044W        W83585  28.278   1.949   1.293
17045W        W83586  24.135  26.659   4.931
17046W        W83587  30.045  41.132   2.154
17047W        W83588  10.023  40.398   4.499
17048W        W83589  13.448  43.197  11.580
17049W        W83590   2.834  26.820   0.056
17050W        W83591  36.381  15.771  11.543
17051W        W83592  20.667  32.913  13.061
17052W        W83593  16.979  28.028   5.010
17053W        W83594  33.345   7.245  13.048
17054W        W83595   6.733  24.057   0.740
17055W        W83596   0.976   7.875   2.748
17056W        W83597  43.942  33.860   2.436
17057W        W83598  22.496  25.740  12.203
17058W        W83599  38.658   8.510  14.303
17059W        W83600  43.244  39.516   0.541
17060W        W83601   3.399  44.565   0.463
17061W        W83602   8.746  14.725  13.270
17062W        W83603  39.489  23.700  12.872
17063W        W83604  25.672  25.670   0.887
17064W        W83605  38.425  15.910  12.480
17065W        W83606   8.151  29.564  12.348
17066W        W83607  25.694  15.284  13.044
17067W        W83608  35.611  18.060   3.681
17068W        W83609  37.572  36.418  14.869
17069W        W83610  26.892  43.677   4.078
17070W        W83611  26.700   3.328  12.301
17071W        W83612  30.089  22.934   1.241
17072W        W83613   5.346   3.281  11.840
17073W        W83614  32.923  23.155  12.356
17074W        W83615   9.717  28.714   3.979
17075W        W83616  17.789  42.426   0.200
17076W        W83617  27.508  35.623   2.784
17077W        W83618  10.179  21.478  13.561
17078W        W83619  43.300  29.672  12.020
17079W        W83620  32.852  23.560   1.341
17080W        W83621  29.044  14.696   0.330
17081W        W83622   7.752  34.822   3.350
17082W        W83623  34.944   1.971  13.889
17083W        W83624  17.506  19.188   0.849
17084W        W83625  35.056  20.509  13.974
17085W        W83626   3.802  30.544   1.855
17086W        W83627  14.342   2.799  12.101
17087W        W83628  38.540  31.475   3.114
17088W        W83629  43.264  42.479   2.009
17089W        W83630  10.629  22.817   1.767
17090W        W83631   6.338  21.837  11.596
17091W        W83632  37.886  14.056  14.415
17092W        W83633   5.229  20.195   3.349
17093W        W83634  44.501   8.384   2.473
17094W        W83635  16.519  27.084  12.480
17095W        W83636   1.870  14.071   4.484
17096W        W83637  22.762   5.313  11.407
17097W        W83638  19.589   9.406  11.170
17098W        W83639   7.696   3.966   0.911
17099W        W83640  34.022   5.574   9.968
17100W        W83641  13.014  20.128  14.959
17101W        W83642   8.306  15.320   0.672
17102W        W83643  19.074   3.433   3.919
17103W        W83644   8.296   3.307  11.597
17104W        W83645  18.677   1.883  11.593
17105W        W83646   3.162   6.405   1.777
17106W        W83647  36.129  12.136  14.900
17107W        W83648  33.658  10.821  10.141
17108W        W83649  11.148  22.852   1.788
17109W        W83650  18.308  13.574   3.213
17110W        W83651  19.563  42.499   3.941
17111W        W83652  16.378  43.578   2.314
17112W        W83653   2.474  34.624  11.861
17113W        W83654  32.436  37.393  14.474
17114W        W83655  29.850  14.083  12.520
17115W        W83656  28.739  27.078   3.030
17116W        W83657  21.254  34.005   4.740
17117W        W83658  26.545  34.825  12.513
17118W        W83659   5.043  34.938  10.741
17119W        W83660  29.061  26.347   1.722
17120W        W83661  10.773   6.831   2.749
17121W        W83662  26.358   7.300   0.864
17122W        W83663   2.582  19.297   1.277
17123W        W83664   9.241  20.587  13.099
17124W        W83665   1.213  37.378  10.697
17125W        W83666  18.131  28.222  11.543
17126W        W83667  25.237  39.041   2.772
17127W        W83668  30.679  11.218   2.307
17128W        W83669  42.133  42.678   2.379
17129W        W83670  28.340   5.136   4.197
17130W        W83671   8.425  31.664   3.138
17131W        W83672  15.170  37.614  14.397
17132W        W83673  19.668  33.100   0.773
17133W        W83674  18.527   7.731  13.820
17134W        W83675  17.744  21.430  10.559
17135W        W83676  15.466  22.646   1.599
17136W        W83677  38.005  36.946   3.838
17137W        W83678  22.975  19.948   1.324
17138W        W83679  44.233  30.659   2.802
17139W        W83680  11.696   1.308   2.268
17140W        W83681  22.966  19.805   1.824
17141W        W83682  17.905  15.909   4.572
17142W        W83683   9.204  14.907  13.059
17143W        W83684  37.424  42.456   0.519
17144W        W83685  41.409  17.303   3.048
17145W        W83686  18.168  14.838  12.046
17146W        W83687   8.793  23.259  10.644
17147W        W83688  43.352   3.757   0.052
17148W        W83689  17.698  15.263   0.478
17149W        W83690   2.772  34.678  11.435
17150W        W83691  11.255   2.261   3.316
17151W        W83692  17.020  24.420   0.430
17152W        W83693  15.808  36.050  13.837
17153W        W83694   5.435   2.972  12.244
17154W        W83695  33.649  39.752   1.405
17155W        W83696  13.669  33.189   0.381
17156W        W83697  16.021  15.727  12.785
17157W        W83698  31.365  30.095   0.322
17158W        W83699   3.424  16.336  11.094
17159W        W83700  19.625  27.900  13.575
17160W        W83701   5.940   3.626  14.821
17161W        W83702  41.377  10.900   0.150
17162W        W83703  27.725  17.627   1.777
17163W        W83704  12.342   1.928  13.086
17164W        W83705   2.787  23.815   3.150
17165W        W83706  26.208  35.903   1.720
17166W        W83707   3.720   2.270  13.366
17167W        W83708  29.250  12.679  12.036
17168W        W83709  13.225  16.530  13.044
17169W        W83710  28.727  19.531   2.282
17170W        W83711  40.101  29.558  12.436
17171W        W83712  35.619  40.926   1.388
17172W        W83713  15.656  37.922   4.575
17173W        W83714  25.011  38.782   2.376
17174W        W83715  43.905  11.800   0.988
17175W        W83716   2.826  10.957  13.380
17176W        W83717   4.727  27.007  11.992
17177W        W83718  28.730   4.217  13.499
17178W        W83719  33.201  33.831  13.382
17179W        W83720  37.359   3.333   2.129
17180W        W83721  13.044  24.047   4.963
17181W        W83722  34.549  14.608   0.505
17182W        W83723  42.298  31.998   1.431
17183W        W83724  17.603  22.738   2.324
17184W        W83725  14.618   6.880   2.215
17185W        W83726   6.683  30.022  14.391
17186W        W83727  20.025  12.162  11.449
17187W        W83728  13.673  18.308  14.575
17188W        W83729  28.981  24.547  12.395
17189W        W83730  37.641   6.898   1.859
17190W        W83731   9.948   3.842  12.523
17191W        W83732  11.294   3.399   0.262
17192W        W83733  10.093  11.895   2.340
17193W        W83734  33.948  28.103   0.989
17194W        W83735   6.711  30.576  12.013
17195W        W83736  22.127   6.744   0.010
17196W        W83737   7.364  13.681  11.697
17197W        W83738   5.648  27.503   5.034
17198W        W83739  27.029   9.190  10.574
17199W        W83740   2.997   8.707   5.130
17200W        W83741  10.679  42.359  11.040
17201W        W83742   6.270  24.451   3.596
17202W        W83743  43.178  39.665  11.059
17203W        W83744  21.749  26.910   0.515
17204W        W83745  21.748  16.283   1.741
17205W        W83746  23.405  27.395  11.674
17206W        W83747  33.498   0.236   1.475
17207W        W83748  12.909  25.166   0.222
17208W        W83749  15.086  30.890   0.857
17209W        W83750  38.506  39.316   3.344
17210W        W83751   8.955  14.591  12.752
17211W        W83752   1.538  17.338  13.338
17212W        W83753  33.474  15.572  13.068
17213W        W83754  17.211   5.016  14.792
17214W        W83755  32.301   0.831   4.097
17215W        W83756  17.278  29.877  13.030
17216W        W83757  18.567   4.165  11.877
17217W        W83758   7.696  13.064   1.230
17218W        W83759  35.510  42.962  14.318
17219W        W83760  32.571  17.783   3.889
17220W        W83761  16.481   1.319  14.719
17221W        W83762  19.968  18.567   1.511
17222W        W83763  35.968  14.744   0.383
17223W        W83764   7.909  35.499  12.006
17224W        W83765  28.451  18.548   2.172
17225W        W83766  11.247   0.543   3.587
17226W        W83767  34.805  37.899   1.305
17227W        W83768  22.735  41.384   2.289
17228W        W83769  39.437   3.494  14.505
17229W        W83770  11.761  25.601   2.427
17230W        W83771   8.791   2.332  13.844
17231W        W83772  13.447  43.283   1.687
17232W        W83773  44.808   4.623  11.583
17233W        W83774  32.628  32.967   0.420
17234W        W83775  23.172  23.708   2.826
17235W        W83776   5.427  35.704  13.793
17236W        W83777  26.693   5.212   3.669
17237W        W83778   3.392  10.035  11.029
17238W        W83779  34.015  38.766   4.733
17239W        W83780  36.318  16.025  10.950
17240W        W83781  17.381  34.514  10.781
17241W        W83782  18.156  44.436  14.049
17242W        W83783  11.748  18.831  12.604
17243W        W83784  16.155  35.379  13.088
17244W        W83785  16.856   8.570  13.324
17245W        W83786  14.886  44.365   0.903
17246W        W83787   6.938  22.038  12.930
17247W        W83788   5.710  33.643   2.365
17248W        W83789   7.131  28.733   1.047
17249W        W83790  32.111  35.422   2.831
17250W        W83791  14.191  21.248  11.661
17251W        W83792   8.395   8.393  12.624
17252W        W83793  31.077  22.576   4.147
17253W        W83794  34.962  40.766   3.253
17254W        W83795  25.996  43.879  12.518
17255W        W83796  34.173  24.094  13.585
17256W        W83797  42.741  39.556   0.647
17257W        W83798   8.445  12.639  10.487
17258W        W83799  42.423  41.822   3.372
17259W        W83800   8.475  38.284  14.484
17260W        W83801   4.786  38.786  11.141
17261W        W83802  40.127   7.174  13.000
17262W        W83803   1.461  22.594   2.469
17263W        W83804  14.337  10.707   4.278
17264W        W83805   8.790   0.198   1.046
17265W        W83806  12.181   7.625   2.589
17266W        W83807  23.114   2.071  11.005
17267W        W83808  35.423  19.944  11.152
17268W        W83809  10.917  40.008   2.645
17269W        W83810  34.115  28.109   4.126
17270W        W83811   7.667  29.185   3.070
17271W        W83812  21.176   7.641   2.685
17272W        W83813  29.062  30.163  14.940
17273W        W83814   8.716  42.668  11.911
17274W        W83815   2.281   8.831  11.696
17275W        W83816   1.483  42.639   1.205
17276W        W83817  29.503  37.903   4.147
17277W        W83818  31.057   5.795  11.085
17278W        W83819  38.357  32.073  12.387
17279W        W83820   8.895  36.118   0.765
17280W        W83821  36.557  11.170   2.659
17281W        W83822   8.572  32.823   2.758
17282W        W83823  29.037  31.579   2.320
17283W        W83824  16.384  30.732   4.189
17284W        W83825  25.145  22.966   1.861
17285W        W83826  11.597  14.218  11.619
17286W        W83827   1.173   8.291  12.092
17287W        W83828  38.945  23.418   4.202
17288W        W83829   8.227   3.390  10.156
17289W        W83830   5.763  38.026  13.089
17290W        W83831  20.085   1.240   4.073
17291W        W83832  32.465  31.179   0.446
17292W        W83833  22.664   1.828   4.921
17293W        W83834  25.812   9.225   1.372
17294W        W83835  33.364  16.547  10.737
17295W        W83836  25.852  30.535  14.452
17296W        W83837  33.573  27.742   0.253
17297W        W83838  22.475  12.846  11.144
17298W        W83839   8.459  29.238  14.726
17299W        W83840  33.166  24.004  13.451
17300W        W83841   0.929  38.463   2.888
17301W        W83842  44.019  21.221  12.926
17302W        W83843  17.996   3.818   2.704
17303W        W83844   7.371  28.330   2.075
17304W        W83845  12.857   6.397   0.374
17305W        W83846  34.601   2.769  11.296
17306W        W83847  19.736   8.973   2.310
17307W        W83848  28.158   8.081   3.046
17308W        W83849  11.315  18.937  11.907
17309W        W83850  16.778  39.087   4.041
17310W        W83851  38.486  43.444  14.671
17311W        W83852   0.995  22.338  11.735
17312W        W83853  28.247  29.895   1.499
17313W        W83854  23.487  41.947   2.121
17314W        W83855  30.603  15.300  12.964
17315W        W83856  34.398  36.242  13.308
17316W        W83857  13.871  21.279   2.905
17317W        W83858  26.884  29.985  12.402
17318W        W83859  30.420  33.618   1.877
17319W        W83860  41.702  31.410  13.387
17320W        W83861  34.445  37.995   3.272
17321W        W83862  17.359  42.831   3.204
17322W        W83863   1.289  35.020  13.077
17323W        W83864  24.168  10.699   4.439
17324W        W83865  27.678  44.402   1.450
17325W        W83866  15.970  39.896  10.761
17326W        W83867   1.024  21.077  12.194
17327W        W83868   8.537   4.196  12.586
17328W        W83869  36.852  40.104  13.505
17329W        W83870  26.746  28.156  14.382
17330W        W83871   4.901   9.007  10.799
17331W        W83872   8.144  38.806  14.223
17332W        W83873  11.836   6.969  12.026
17333W        W83874   2.448   5.914   2.009
17334W        W83875  25.697   0.855   2.497
17335W        W83876  43.525  15.103  11.620
17336W        W83877  13.784  42.920  14.845
17337W        W83878  14.596  36.419  14.039
17338W        W83879  41.266  10.370  10.323
17339W        W83880  44.799  32.827   3.263
17340W        W83881   8.677  19.561   2.460
17341W        W83882  12.767   9.225   0.926
17342W        W83883  29.901  16.803   0.451
17343W        W83884  10.250  28.905   0.968
17344W        W83885  13.388  28.427   0.005
17345W        W83886  25.239  18.213   0.738
17346W        W83887  27.395  15.606  12.816
17347W        W83888  29.243   7.723   2.915
17348W        W83889  21.996  34.085   3.657
17349W        W83890  42.813   3.978   4.102
17350W        W83891  41.804  33.007   3.268
17351W        W83892  15.947  15.775   2.239
17352W        W83893  22.300   6.158  13.555
17353W        W83894  42.902  28.427  13.010
17354W        W83895   5.717  32.833   9.597
17355W        W83896  15.565  22.114  10.486
17356W        W83897   3.780  15.020  10.511
17357W        W83898  37.806  30.371   0.664
17358W        W83899  19.712  25.791   1.442
17359W        W83900  43.981  13.776   1.410
17360W        W83901  29.422  17.769   2.857
17361W        W83902   6.728  41.975  10.854
17362W        W83903   3.936  28.222  13.889
17363W        W83904  33.780  31.903  13.791
17364W        W83905  31.106  38.409  11.873
17365W        W83906  43.778   3.397  11.194
17366W        W83907   1.351  43.741  13.480
17367W        W83908  27.662  13.609   3.364
17368W        W83909  32.171  23.708  10.236
17369W        W83910  27.450  15.694   2.204
17370W        W83911  44.463   9.797  10.636
17371W        W83912   4.838  13.822   0.901
17372W        W83913   9.014  41.023   5.220
17373W        W83914  10.070  11.828   4.711
17374W        W83915  12.095  21.034   0.337
17375W        W83916  33.656   4.171  12.745
17376W        W83917   7.720   8.988  14.751
17377W        W83918  38.418  10.716  11.596
17378W        W83919  25.326   9.573  10.907
17379W        W83920   2.039  39.756   4.263
17380W        W83921  33.998   9.082  12.615
17381W        W83922  38.833   6.414  13.965
17382W        W83923  31.438   8.654  13.933
17383W        W83924  36.794  22.986   2.776
17384W        W83925   2.829  24.010   0.227
17385W        W83926  28.082  13.173   4.492
17386W        W83927  14.318  13.352  14.938
17387W        W83928  37.903   6.182   3.642
17388W        W83929  17.152  43.986   0.763
17389W        W83930  24.046  15.149  10.767
17390W        W83931  15.650  39.401   4.492
17391W        W83932  21.025  11.257   3.276
17392W        W83933  20.755  30.984   2.718
17393W        W83934  32.013  34.725   1.849
17394W        W83935  32.558  21.748   2.282
17395W        W83936  13.207   1.359  11.779
17396W        W83937  39.943   1.226  12.591
17397W        W83938  43.510  34.122   1.242
17398W        W83939  30.923   4.444  10.960
17399W        W83940  33.193  29.614  14.811
17400W        W83941  36.384   8.734   3.404
17401W        W83942  31.017  20.080  12.105
17402W        W83943  41.347   8.923  13.839
17403W        W83944  32.627   7.905  13.915
17404W        W83945  27.916   8.887   4.093
17405W        W83946  24.995  27.548   3.241
17406W        W83947  23.529  19.180   0.306
17407W        W83948  11.033  22.660  14.013
17408W        W83949  38.857  23.549   0.354
17409W        W83950  27.948  37.848   4.828
17410W        W83951  18.700  28.177  11.213
17411W        W83952  21.798  18.043   0.501
17412W        W83953  20.033  19.718  13.062
17413W        W83954  42.917  24.991   4.351
17414W        W83955  16.461  23.531   3.986
17415W        W83956   6.775  31.497  12.931
17416W        W83957  11.354   0.186   0.477
17417W        W83958  27.016  36.596   0.351
17418W        W83959  41.838  38.844  12.993
17419W        W83960  36.509   2.889   1.498
17420W        W83961  27.719  16.282  10.909
17421W        W83962  15.548  15.136   1.809
17422W        W83963  22.091   2.703  12.830
17423W        W83964   8.333   7.460  12.278
17424W        W83965   0.963  12.096  12.936
17425W        W83966  41.866  28.420   3.793
17426W        W83967  23.919  31.476   4.342
17427W        W83968   3.819  30.946  13.587
17428W        W83969  15.070  44.444   1.360
17429W        W83970   2.560   3.282   1.409
17430W        W83971  41.059  19.169  11.293
17431W        W83972  15.266  29.108  13.759
17432W        W83973  13.093  28.713   3.123
17433W        W83974  40.498  11.561  13.491
17434W        W83975  20.480   7.820   0.045
17435W        W83976  41.539  43.551   1.182
17436W        W83977  21.252  23.761  14.295
17437W        W83978   8.813  17.761   3.248
17438W        W83979  23.711  10.374  10.745
17439W        W83980  13.113   8.848  11.133
17440W        W83981  27.760  40.289   0.336
17441W        W83982  11.711  19.134  14.486
17442W        W83983  33.774  15.681   1.277
17443W        W83984  39.340  41.483   0.237
17444W        W83985  11.587  19.493  10.364
17445W        W83986  20.085  21.071  12.815
17446W        W83987  16.649  19.705   0.714
17447W        W83988  44.314  37.138  13.412
17448W        W83989  24.960   0.822  12.911
17449W        W83990   4.951   1.455   5.700
17450W        W83991  39.495  33.856   3.103
17451W        W83992  18.560  32.137   5.061
17452W        W83993   7.206   2.360  13.014
17453W        W83994  27.371  28.123   2.706
17454W        W83995  25.037  40.303  12.848
17455W        W83996  37.281  19.174   2.093
17456W        W83997  40.588  43.409   3.424
17457W        W83998   3.122  20.716  10.997
17458W        W83999  11.088  44.731  11.539
17459W        W84000   3.656   5.528  11.029
17460W        W84001  32.072  16.699  10.280
17461W        W84002  38.306  34.019   4.088
17462W        W84003  25.693  10.234   2.299
17463W        W84004   1.773  23.083  13.606
17464W        W84005  18.685  24.805  11.279
17465W        W84006   6.712  16.718   2.734
17466W        W84007   4.668   1.501  13.026
17467W        W84008  41.566  10.634   0.599
17468W        W84009  35.944  41.506  11.585
17469W        W84010  28.207   1.850  13.408
17470W        W84011  31.044  15.024   2.825
17471W        W84012  38.976   1.127   2.197
17472W        W84013  12.921  21.320  10.249
17473W        W84014   9.862   4.164   3.963
17474W        W84015  32.995  17.643   3.112
17475W        W84016   4.468  37.898  10.519
17476W        W84017   1.346  30.857   0.480
17477W        W84018  44.521  43.536   2.914
17478W        W84019   1.549  25.047  10.328
17479W        W84020   1.023  28.132  13.630
17480W        W84021  41.738   3.024   0.816
17481W        W84022  19.153  10.261  14.411
17482W        W84023  13.856  27.036  11.164
17483W        W84024   0.134  25.507   0.407
17484W        W84025  18.794  38.939   3.998
17485W        W84026  25.259  25.725   4.269
17486W        W84027  16.110  29.748   1.418
17487W        W84028  43.774  35.554   3.212
17488W        W84029  27.858  33.015  13.412
17489W        W84030  37.851  19.033  13.483
17490W        W84031   9.049  35.880   4.062
17491W        W84032  16.087  16.623   3.309
17492W        W84033   3.685  20.401  12.383
17493W        W84034  10.205  18.039   1.804
17494W        W84035  39.762  27.257  12.974
17495W        W84036   9.358  41.755  11.192
17496W        W84037  23.052  25.597   0.868
17497W        W84038  22.606   7.851  12.109
17498W        W84039  25.176  17.587  12.589
17499W        W84040  44.980  17.278   3.660
17500W        W84041  36.809  39.345   3.854
17501W        W84042   2.801  37.449  11.661
17502W        W84043  34.757  22.444  12.682
17503W        W84044  14.105   4.962   3.236
17504W        W84045   4.715  11.820   3.659
17505W        W84046  28.718  41.494   1.810
17506W        W84047  20.103  33.343   1.906
17507W        W84048  39.537  35.535  14.808
17508W        W84049  25.378  12.078  12.122
17509W        W84050  40.028  21.497   4.331
17510W        W84051   7.223  13.089  12.957
17511W        W84052  14.785  37.442   4.589
17512W        W84053   9.409  18.074  12.422
17513W        W84054  28.435  25.218   4.185
17514W        W84055  33.308  19.169   2.465
17515W        W84056  43.525  17.892   2.583
17516W        W84057  30.090   4.243   4.675
17517W        W84058  23.534  21.681  10.535
17518W        W84059  22.096  14.660   3.132
17519W        W84060  20.038  13.376   1.169
17520W        W84061  33.841  33.920  12.262
17521W        W84062   3.898  21.318  11.381
17522W        W84063  17.808   7.453  13.459
17523W        W84064  26.090  44.788   0.744
17524W        W84065  19.570  42.350  13.056
17525W        W84066  44.952  33.527  13.283
17526W        W84067  10.889   8.339   3.265
17527W        W84068  40.488  29.552   4.867
17528W        W84069   0.357  18.288  12.964
17529W        W84070  24.255  11.871  14.805
17530W        W84071  30.477  37.856  12.406
17531W        W84072  23.456  17.661   1.184
17532W        W84073  21.711   5.242   0.463
17533W        W84074  16.568  43.442   2.779
17534W        W84075  17.777  20.503  12.131
17535W        W84076  37.266  31.332   0.017
17536W        W84077  22.163  38.438  10.615
17537W        W84078   6.085  23.888   2.367
17538W        W84079  10.287  35.656   0.294
17539W        W84080   6.078  41.885   2.309
17540W        W84081  25.010  43.805   1.439
17541W        W84082  30.314  29.906   3.914
17542W        W84083  33.429   5.934  10.706
17543W        W84084  17.270  18.277   1.815
17544W        W84085  44.898  35.625  13.051
17545W        W84086  12.318   8.876   3.099
17546W        W84087  32.652  24.699   4.661
17547W        W84088  31.259  27.297   0.069
17548W        W84089  14.295  15.299  13.981
17549W        W84090   2.530  19.584  11.534
17550W        W84091  31.038  17.326  13.866
17551W        W84092  36.017  44.929  13.894
17552W        W84093  12.883  43.849  13.057
17553W        W84094  15.298  33.174  12.449
17554W        W84095  31.447  42.683   1.430
17555W        W84096  18.677  41.397   2.626
17556W        W84097  14.245  29.967  11.123
17557W        W84098   6.924   3.819  13.346
17558W        W84099  30.124  15.222   3.780
17559W        W84100  39.304  32.565   2.359
17560W        W84101  41.405  30.998   0.029
17561W        W84102   7.292  37.506  13.804
17562W        W84103   6.000  29.151   1.692
17563W        W84104   4.711  11.661  10.616
17564W        W84105  27.414  17.278   4.537
17565W        W84106  29.157  19.250   2.381
17566W        W84107  42.588  14.193   0.974
17567W        W84108   2.427   5.281   1.299
17568W        W84109  16.069  37.074  12.484
17569W        W84110  33.622  40.420   0.770
17570W        W84111  37.049   1.531  12.527
17571W        W84112  22.881  22.084  12.033
17572W        W84113  12.368  25.764  11.148
17573W        W84114  31.620  40.754   3.818
17574W        W84115  31.984  40.997   4.099
17575W        W84116   0.296  27.704  14.410
17576W        W84117  26.264  33.378   2.297
17577W        W84118  27.759  39.051  12.401
17578W        W84119  43.243  15.843   4.233
17579W        W84120  11.298  18.602   0.986
17580W        W84121  27.071  13.560  14.986
17581W        W84122  23.475  14.607  12.961
17582W        W84123  40.923  30.167   3.391
17583W        W84124  36.653   2.692  10.278
17584W        W84125  27.723  20.115   4.479
17585W        W84126  29.007  13.773  14.782
17586W        W84127   5.882  21.319   3.736
17587W        W84128   6.398   6.809  13.518
17588W        W84129  24.984  29.615  10.446
17589W        W84130  15.696  32.321   2.738
17590W        W84131  30.757  13.243  13.615
17591W        W84132  24.175  32.673  11.035
17592W        W84133   3.888  40.818   2.602
17593W        W84134  22.644   2.485   2.469
17594W        W84135  13.847   0.691  14.785
17595W        W84136  25.805   4.293   3.048
17596W        W84137  30.332  15.693  12.742
17597W        W84138  10.448  29.110   1.909
17598W        W84139  32.491   7.937  14.903
17599W        W84140   3.934  15.228   2.313
17600W        W84141   3.795  41.587   3.423
17601W        W84142   1.335  20.606   1.942
17602W        W84143  26.956  30.602   2.319
17603W        W84144  36.914  39.203  13.884
17604W        W84145   6.846   7.426  12.861
17605W        W84146   7.356  43.188   1.749
17606W        W84147   9.618  43.537  12.000
17607W        W84148  31.727  19.664   3.665
17608W        W84149  20.370  16.156  12.084
17609W        W84150  12.369  32.530   3.225
17610W        W84151   8.300  43.459  12.013
17611W        W84152  18.815  16.067  13.247
17612W        W84153   4.418  32.306   2.743
17613W        W84154  10.623  25.082   3.669
17614W        W84155  16.791  20.492  12.145
17615W        W84156  13.762  20.200  14.409
17616W        W84157  38.417  44.349  12.792
17617W        W84158  37.919  29.938  11.607
17618W        W84159  21.699  18.781   3.375
17619W        W84160  26.039  42.620   2.368
17620W        W84161  18.798  35.819   4.446
17621W        W84162  37.574   0.414   1.477
17622W        W84163  38.435  12.734  10.744
17623W        W84164  41.525  20.717   1.736
17624W        W84165  36.517  10.658   3.434
17625W        W84166  21.207  36.022  10.575
17626W        W84167  14.772  15.107   3.336
17627W        W84168  19.673   6.079  11.274
17628W        W84169   7.155   2.788   2.838
17629W        W84170  28.010  14.361   3.748
17630W        W84171  31.952  19.705  11.380
17631W        W84172  26.575  36.295   4.200
17632W        W84173   6.141  39.306   2.829
17633W        W84174  18.086  13.319  13.042
17634W        W84175  31.435  33.323  13.453
17635W        W84176   6.841   5.749  13.780
17636W        W84177  36.737  37.950  12.540
17637W        W84178   8.766  10.149   3.128
17638W        W84179   3.225  38.221  14.001
17639W        W84180   5.892  12.752   2.632
17640W        W84181   8.153  38.445  12.654
17641W        W84182  30.088   1.730   3.717
17642W        W84183  32.729  14.173  14.665
17643W        W84184  26.458  33.579  11.095
17644W        W84185  28.987  16.640   4.859
17645W        W84186  19.579  38.504   4.312
17646W        W84187  29.193  42.714   1.924
17647W        W84188  33.189  26.305  14.759
17648W        W84189  12.863   4.855   3.702
17649W        W84190   9.349  44.847  11.718
17650W        W84191  15.385  30.499   3.078
17651W        W84192  44.782  32.409   3.619
17652W        W84193  34.086   3.596   2.369
17653W        W84194  38.910  40.481  14.441
17654W        W84195  20.130  16.096   0.688
17655W        W84196   3.965   4.075  14.205
17656W        W84197   1.182  33.736  14.806
17657W        W84198  19.864  16.693  11.135
17658W        W84199  30.401  11.167   4.269
17659W        W84200  24.173  15.227   1.209
17660W        W84201  21.167   8.253   4.070
17661W        W84202  41.805  37.905   4.202
17662W        W84203  37.772  33.367   3.588
17663W        W84204  41.061  41.379  14.818
17664W        W84205  39.364  30.654   3.545
17665W        W84206  34.812  37.845  12.336
17666W        W84207  38.598   5.331   2.219
17667W        W84208   0.085   0.999  12.937
17668W        W84209  19.421  44.981   4.491
17669W        W84210  37.465  25.062  12.962
17670W        W84211  30.989  32.482  14.351
17671W        W84212   1.939  42.881   4.165
17672W        W84213   0.664  16.730  10.670
17673W        W84214   4.500  16.116   1.906
17674W        W84215  41.062  18.046  12.710
17675W        W84216   5.437  40.762   1.257
17676W        W84217  41.029  29.257   3.922
17677W        W84218  17.802  21.878   0.577
17678W        W84219  26.980   5.447  12.005
17679W        W84220  11.705  38.013  14.020
17680W        W84221  39.305   7.686  14.043
17681W        W84222  19.605   9.408   0.421
17682W        W84223  32.876  15.870   0.760
17683W        W84224  30.474  35.544  13.005
17684W        W84225   3.642  34.891  12.410
17685W        W84226  10.100  40.492  13.832
17686W        W84227   4.267  37.917  12.963
17687W        W84228  14.826   3.427  11.900
17688W        W84229   4.784  21.231  12.511
17689W        W84230  37.644   4.440   2.428
17690W        W84231  33.079   4.900   0.892
17691W        W84232   7.689  21.739  14.348
17692W        W84233  39.397  44.981  12.395
17693W        W84234   4.742  25.439  13.367
17694W        W84235  15.640  10.161  10.703
17695W        W84236  14.016  22.063   0.044
17696W        W84237   4.304  10.597   0.781
17697W        W84238  36.451  41.391   3.795
17698W        W84239  26.501   3.866  11.662
17699W        W84240  32.387  36.055   0.251
17700W        W84241   1.653  16.027   2.068
17701W        W84242   2.505  39.501  14.787
17702W        W84243  11.396  19.844   0.479
17703W        W84244  37.382  14.588  10.775
17704W        W84245  26.518  15.195   0.741
17705W        W84246  26.671  25.364  12.898
17706W        W84247  44.628  28.814   4.006
17707W        W84248  30.930  34.571   4.735
17708W        W84249  26.507  21.708  11.988
17709W        W84250  22.217  25.826   2.807
17710W        W84251   6.196  17.161   2.105
17711W        W84252  21.190  38.156  10.089
17712W        W84253  44.525  30.543   3.260
17713W        W84254  29.074   4.511  11.278
17714W        W84255  13.293  27.640  11.575
17715W        W84256  11.314  16.796  10.374
17716W        W84257  13.384   4.718   1.800
17717W        W84258   2.704  10.837   4.251
17718W        W84259   5.411  25.611   3.644
17719W        W84260  38.550  23.421   1.505
17720W        W84261  19.768  10.873  13.292
17721W        W84262  24.048  39.743   1.629
17722W        W84263  25.559   8.825  13.574
17723W        W84264  14.090  28.631  12.469
17724W        W84265  11.645  42.294   0.447
17725W        W84266  13.823  30.928  13.392
17726W        W84267  26.691   2.153   1.184
17727W        W84268  18.880   6.421   3.139
17728W        W84269  11.319  21.993   2.875
17729W        W84270  21.125  25.437   1.318
17730W        W84271  17.111  38.653  13.897
17731W        W84272  14.767   1.218   4.660
17732W        W84273  11.683  39.355   3.822
17733W        W84274  22.699  17.235   3.188
17734W        W84275  34.478  36.375   2.758
17735W        W84276   2.044  19.571   1.973
17736W        W84277  15.275  39.214  13.272
17737W        W84278  16.110  27.189   3.705
17738W        W84279  12.265   8.722   4.108
17739W        W84280  32.702  27.959   3.743
17740W        W84281  35.335  43.198  13.890
17741W        W84282   3.007  38.596  12.015
17742W        W84283  38.690  32.589   0.457
17743W        W84284  36.833  30.048   4.253
17744W        W84285   3.642  44.964  14.852
17745W        W84286  22.150   5.717   0.704
17746W        W84287   3.419   1.862  13.510
17747W        W84288  43.050  25.059  12.471
17748W        W84289  40.369  37.379  11.353
17749W        W84290  39.627  22.866  11.117
17750W        W84291  32.390  37.853   3.708
17751W        W84292   7.453  25.946   5.554
17752W        W84293   4.285   9.093   2.883
17753W        W84294  24.117  35.851  10.353
17754W        W84295  33.478   7.256   0.425
17755W        W84296  22.731  26.220  12.917
17756W        W84297  21.530  44.312   0.433
17757W        W84298  41.414  29.435  11.444
17758W        W84299  38.912  22.230   3.844
17759W        W84300  31.450   8.486  14.437
17760W        W84301  15.467  28.485   2.272
17761W        W84302  18.008  36.730  14.377
17762W        W84303   0.321   3.768   1.924
17763W        W84304   4.359  28.670   3.457
17764W        W84305  38.902  26.134   3.590
17765W        W84306  29.984  20.221  13.599
17766W        W84307  40.710   5.817  10.579
17767W        W84308  16.507  18.064  10.801
17768W        W84309   6.719   5.348  14.787
17769W        W84310  32.922  23.558  13.754
17770W        W84311  18.836  42.326  11.044
17771W        W84312  36.232  37.362  12.536
17772W        W84313  36.513  26.137  14.452
17773W        W84314   9.835  43.246   0.213
17774W        W84315  41.365  23.755   0.751
17775W        W84316  32.721   1.805   2.598
17776W        W84317  41.026  42.039   2.144
17777W        W84318  13.370  38.101  14.247
17778W        W84319   7.223   1.921  13.281
17779W        W84320  40.326   1.802  10.744
17780W        W84321   0.556  11.655  10.629
17781W        W84322  39.015  16.269  11.942
17782W        W84323  25.660  21.241  11.012
17783W        W84324  19.192  36.282  10.667
17784W        W84325  13.785   9.655  10.722
17785W        W84326  17.044  15.432   2.261
17786W        W84327   2.842  33.091   1.061
17787W        W84328  31.134  40.030   5.074
17788W        W84329  44.340  36.456  10.452
17789W        W84330  31.772  30.932   1.079
17790W        W84331  41.415  23.695   2.850
17791W        W84332  37.771  13.663   0.752
17792W        W84333  40.035  42.321   1.317
17793W        W84334  43.007   0.734   0.386
17794W        W84335  41.985  40.943   3.631
17795W        W84336  18.187  12.659  10.614
17796W        W84337  28.365   3.372   0.255
17797W        W84338  39.555  41.844   3.188
17798W        W84339   4.658  19.697   1.720
17799W        W84340  42.058  19.345  14.736
17800W        W84341  19.805   8.345   1.440
17801W        W84342  15.094  30.933   3.232
17802W        W84343  14.020  12.175  12.866
17803W        W84344  12.231  27.234  11.907
17804W        W84345  33.673  12.266   4.701
17805W        W84346   0.358  42.407   4.524
17806W        W84347  12.419  43.566  12.404
17807W        W84348  24.289   7.170  12.226
17808W        W84349  25.769  32.388   0.478
17809W        W84350   7.022  11.390  13.560
17810W        W84351  26.073  33.825   0.495
17811W        W84352  22.683   9.810   4.666
17812W        W84353  23.383  39.324   1.366
17813W        W84354   8.952   1.804   3.216
17814W        W84355  30.561  14.367   2.088
17815W        W84356  13.028  10.271  14.020
17816W        W84357  20.538  27.003   1.753
17817W        W84358  19.552  30.897  12.102
17818W        W84359  14.678  43.694  10.719
17819W        W84360  10.649  40.798  12.149
17820W        W84361  41.083  30.610   0.749
17821W        W84362   5.418  26.486   1.420
17822W        W84363  34.665   8.259   0.475
17823W        W84364  43.832  43.314   4.170
17824W        W84365  26.116  33.429  14.258
17825W        W84366  28.130  23.488  11.077
17826W        W84367  20.754  13.576   3.618
17827W        W84368  18.556  36.619  14.475
17828W        W84369  36.006  20.540  13.948
17829W        W84370   5.814  17.484   1.041
17830W        W84371   7.932  21.556   4.222
17831W        W84372  13.753   6.206   4.018
17832W        W84373  15.840   2.781  10.667
17833W        W84374  12.630   2.869   1.963
17834W        W84375   4.284   3.818   4.100
17835W        W84376  23.539  38.378   2.176
17836W        W84377   5.336   4.011  12.489
17837W        W84378  19.223  39.985  12.846
17838W        W84379   1.675  17.098  14.726
17839W        W84380  16.156  33.006  12.733
17840W        W84381  14.221  21.839   0.478
17841W        W84382   8.172  13.807   5.035
17842W        W84383  17.731  25.222   4.564
17843W        W84384  33.392  37.578   0.296
17844W        W84385   4.205  29.036   1.731
17845W        W84386  35.411   0.393   4.064
17846W        W84387   1.893  25.905   1.245
17847W        W84388  21.444  13.812   4.163
17848W        W84389  37.099  20.721   3.823
17849W        W84390  39.499  30.099  14.025
17850W        W84391  34.865   2.335  12.903
17851W        W84392   1.893   4.241  11.591
17852W        W84393   1.967  10.093  13.867
17853W        W84394  20.649  16.572  13.349
17854W        W84395   3.363  44.524  12.538
17855W        W84396  31.093  32.614  10.700
17856W        W84397  22.790  36.718  12.541
17857W        W84398   6.024   2.402  13.968
17858W        W84399  44.259  44.409  11.258
17859W        W84400  24.913  33.061   2.382
17860W        W84401  30.356   6.273   3.663
17861W        W84402   5.622  15.243  12.940
17862W        W84403  25.445  11.112  13.848
17863W        W84404  21.002  32.989   3.779
17864W        W84405  11.590  18.699  13.385
17865W        W84406  28.754  35.068   4.613
17866W        W84407   7.802  29.741   5.115
17867W        W84408  12.869  10.591  13.139
17868W        W84409  17.159   1.380   4.098
17869W        W84410  19.787  17.704   1.923
17870W        W84411   4.421  24.453   0.238
17871W        W84412  36.482  22.647   2.234
17872W        W84413  14.725   4.638   4.074
17873W        W84414  27.635   9.965  11.096
17874W        W84415  20.654  40.525   2.447
17875W        W84416  34.970  28.325   1.711
17876W        W84417  41.317   2.973   2.646
17877W        W84418  30.123  39.917  14.533
17878W        W84419  23.957  17.552   1.251
17879W        W84420  28.633   2.447   3.132
17880W        W84421  35.427  12.182  13.493
17881W        W84422  33.506  34.586  14.335
17882W        W84423  42.962  12.787   2.421
17883W        W84424  28.350  27.453  14.700
17884W        W84425  35.550  39.534   1.221
17885W        W84426  39.546   5.735  11.429
17886W        W84427   0.294  27.486   0.712
17887W        W84428  12.249  20.717  12.465
17888W        W84429  22.003   4.371  13.240
17889W        W84430  37.725  32.475   2.121
17890W        W84431   2.931  42.035  14.610
17891W        W84432  17.659  30.564   5.000
17892W        W84433  15.292  30.919  10.215
17893W        W84434  44.430  16.729   1.937
17894W        W84435  37.490  24.711  14.188
17895W        W84436  35.514  37.484  11.448
17896W        W84437   5.650  15.881   0.233
17897W        W84438  36.951  13.370   1.230
17898W        W84439  16.220  15.053  12.009
17899W        W84440  27.819  16.435  14.557
17900W        W84441  40.785  19.508   2.855
17901W        W84442  40.776  20.532  11.500
17902W        W84443   1.836  26.086   0.760
17903W        W84444  24.047  39.818  14.762
17904W        W84445  36.440  17.461  13.101
17905W        W84446  38.458  37.777  10.368
17906W        W84447  16.355  23.683  10.739
17907W        W84448  28.628  13.661   0.201
17908W        W84449  20.593  23.144  12.947
17909W        W84450  34.851  43.052   0.753
17910W        W84451  38.199  32.421   0.552
17911W        W84452   0.782   3.868  13.340
17912W        W84453  44.222   3.565   0.344
17913W        W84454   1.535  14.245  11.535
17914W        W84455  34.871  39.804   4.320
17915W        W84456  18.369   6.071  13.593
17916W        W84457  44.622   5.169   3.228
17917W        W84458  22.723  23.176   1.466
17918W        W84459  18.755  39.256   0.954
17919W        W84460  38.933  12.097  11.517
17920W        W84461  37.838  13.294  11.063
17921W        W84462  32.009   6.599  12.125
17922W        W84463  23.711   2.775  12.484
17923W        W84464  31.124  43.786  12.624
17924W        W84465   9.457  31.043   0.196
17925W        W84466  42.193   6.904  14.239
17926W        W84467  40.767  25.711  11.086
17927W        W84468  36.755   2.356  10.667
17928W        W84469  31.510   0.057  11.459
17929W        W84470  13.566  21.110   3.317
17930W        W84471  12.815  31.111   4.234
17931W        W84472  33.409   2.016   0.835
17932W        W84473   3.507  41.588   2.873
17933W        W84474  35.948  28.543  12.926
17934W        W84475  29.642   6.850   4.230
17935W        W84476  20.578  24.504   2.161
17936W        W84477  38.837   0.522   4.617
17937W        W84478   1.098  41.456  12.871
17938W        W84479   8.078  16.572  13.429
17939W        W84480  25.706  36.030   2.614
17940W        W84481  16.448  25.369   2.260
17941W        W84482  24.493  17.101   0.847
17942W        W84483   3.966  34.084   3.368
17943W        W84484   7.992  10.224  13.908
17944W        W84485   8.308  15.547  13.849
17945W        W84486   7.457  33.841   2.819
17946W        W84487  19.727   6.313  13.291
17947W        W84488  21.130  41.230  14.376
17948W        W84489  40.356   4.051   3.388
17949W        W84490   8.942  19.730  14.777
17950W        W84491   4.219  43.612   2.936
17951W        W84492  35.470  39.019  12.358
17952W        W84493   8.154  31.866   2.744
17953W        W84494   0.462  33.515  13.251
17954W        W84495   0.392  12.921   4.225
17955W        W84496  27.675  36.096   2.983
17956W        W84497  37.107  29.672   1.479
17957W        W84498  41.275   1.154   4.573
17958W        W84499  43.888  22.634   1.152
17959W        W84500  10.682   4.953   3.221
17960W        W84501  21.016   8.978   3.637
17961W        W84502   1.784  41.551   4.788
17962W        W84503   3.208  25.937  12.703
17963W        W84504  39.079  22.555   1.173
17964W        W84505   4.437  31.686   2.285
17965W        W84506  10.297  21.182   4.540
17966W        W84507   9.925  21.657  14.906
17967W        W84508  27.016  43.331   1.773
17968W        W84509  28.175  35.596  13.409
17969W        W84510  30.589  15.288   0.229
17970W        W84511  21.180  25.728  12.944
17971W        W84512  42.829  34.939  11.181
17972W        W84513  23.194   7.332   0.682
17973W        W84514   4.982  33.546  14.850
17974W        W84515  34.695  34.733  13.084
17975W        W84516  25.179  36.985  14.398
17976W        W84517  31.937  40.859  11.987
17977W        W84518  22.935  27.103  11.708
17978W        W84519  14.287  32.883   4.140
17979W        W84520  19.020  29.813  12.606
17980W        W84521  40.865  40.902  13.529
17981W        W84522   8.708  25.515   2.779
17982W        W84523  31.227  30.909   1.771
17983W        W84524  42.822  44.825   2.176
17984W        W84525  22.274  33.055   1.264
17985W        W84526  23.033   7.476   2.331
17986W        W84527   7.192  10.643  10.790
17987W        W84528  27.344   4.907  12.210
17988W        W84529  13.262   2.577   3.794
17989W        W84530  39.792   9.312   2.869
17990W        W84531  21.838   1.479   1.421
17991W        W84532  43.501  42.964  13.425
17992W        W84533  20.969  31.585   3.838
17993W        W84534  33.833   7.263  14.464
17994W        W84535  27.000  40.465   1.238
17995W        W84536  44.827  28.156  14.700
17996W        W84537  40.255   6.849  13.857
17997W        W84538  22.215  34.541   1.293
17998W        W84539  38.433  39.103  10.593
17999W        W84540  28.655  13.131  13.550
18000W        W84541  12.482  11.892   1.877
18001W        W84542  42.391   1.897   4.942
18002W        W84543  19.267   2.412  14.289
18003W        W84544  23.710  19.630   2.228
18004W        W84545  19.549  24.512  12.449
18005W        W84546  37.361  20.870   2.829
18006W        W84547  23.136  40.260  14.371
18007W        W84548  23.774  19.397   2.963
18008W        W84549   1.518   3.388   2.293
18009W        W84550   5.875  16.061   2.178
18010W        W84551  16.555  27.913  11.670
18011W        W84552  44.204  28.692   0.267
18012W        W84553  44.405  30.452  12.933
18013W        W84554  19.042  43.977  13.727
18014W        W84555  40.444  40.104  11.223
18015W        W84556  38.428  13.833  13.324
18016W        W84557  39.135  21.951  11.533
18017W        W84558  32.785   5.989   1.794
18018W        W84559   0.222  18.716  13.556
18019W        W84560   2.815  22.988   1.844
18020W        W84561   2.205   2.024  12.026
18021W        W84562  34.391  17.257  12.044
18022W        W84563  16.036   3.482  13.445
18023W        W84564  17.853  38.087  11.476
18024W        W84565   8.593  17.776  10.653
18025W        W84566  44.516  40.104  13.593
18026W        W84567  28.455  29.945   2.828
18027W        W84568  11.946  12.207   3.721
18028W        W84569  27.498   1.895  10.486
18029W        W84570  41.488  28.675  13.963
18030W        W84571  37.302  11.634   1.271
18031W        W84572  14.853  29.891   9.813
18032W        W84573  17.747  16.673   0.871
18033W        W84574   9.457  22.346   3.170
18034W        W84575  43.403  39.176  11.940
18035W        W84576  39.686  26.515  11.604
18036W        W84577  43.538   4.799  14.794
18037W        W84578  29.399  37.044   4.623
18038W        W84579  28.087  24.951  13.443
18039W        W84580  40.535  33.860  14.232
18040W        W84581   8.708  34.629  10.443
18041W        W84582   6.733  41.588   2.933
18042W        W84583   9.709   4.401  13.823
18043W        W84584  24.951  32.004  12.001
18044W        W84585  40.621  32.291   1.721
18045W        W84586  24.172  18.107  12.045
18046W        W84587   6.824   3.684  10.721
18047W        W84588  11.686   6.682   0.453
18048W        W84589  23.263  29.009  13.354
18049W        W84590  29.066   7.880  13.950
18050W        W84591  40.707  21.854   1.270
18051W        W84592  23.468  14.192   1.818
18052W        W84593  38.513   4.261  13.534
18053W        W84594   2.357  13.515   2.303
18054W        W84595  14.820   9.903  13.424
18055W        W84596  22.309  36.540   4.949
18056W        W84597   7.741  36.129   1.652
18057W        W84598  18.097  40.447  14.534
18058W        W84599  34.504   6.484   1.715
18059W        W84600  38.159  35.881  14.375
18060W        W84601  38.614   3.772   0.771
18061W        W84602  40.970  33.881   3.651
18062W        W84603   1.049  37.018   2.473
18063W        W84604  43.283  18.139  13.349
18064W        W84605   9.094  30.127   3.423
18065W        W84606  26.910   0.439  10.113
18066W        W84607  34.941  27.700  12.042
18067W        W84608  28.948  13.300  13.960
18068W        W84609  28.749  11.103  13.385
18069W        W84610   9.197  25.719   2.830
18070W        W84611  40.535  12.857   1.231
18071W        W84612  34.495  13.612  12.066
18072W        W84613  24.009  34.130   3.412
18073W        W84614   4.478   3.405   2.809
18074W        W84615  12.626  26.632  11.510
18075W        W84616  21.060   9.684   2.425
18076W        W84617   8.184  41.701  14.617
18077W        W84618  38.206  41.225   0.050
18078W        W84619  25.606  36.720  14.250
18079W        W84620  31.476  33.717   1.277
18080W        W84621  34.478   8.880  10.635
18081W        W84622  15.716   6.667  11.554
18082W        W84623   0.425  32.744  12.973
18083W        W84624  11.839  20.069   0.589
18084W        W84625  13.639  15.352  11.095
18085W        W84626   9.068  15.496   1.303
18086W        W84627  36.805  17.042   0.432
18087W        W84628   9.082   8.253  13.320
18088W        W84629  27.269   5.774   1.411
18089W        W84630   2.820  16.177   0.399
18090W        W84631   4.329  35.808  12.946
18091W        W84632  39.071  42.607   3.643
18092W        W84633   3.710  16.241  14.798
18093W        W84634  29.957  23.258   3.641
18094W        W84635  25.654   4.205   0.384
18095W        W84636   9.867  33.440  12.873
18096W        W84637  14.288   8.321   0.389
18097W        W84638  22.096  16.738  11.601
18098W        W84639   5.853   7.719   1.202
18099W        W84640  12.902   2.224  10.616
18100W        W84641  37.386  19.488   0.035
18101W        W84642  40.350  26.201   1.871
18102W        W84643  29.211  40.879  13.074
18103W        W84644  36.875  13.836  14.482
18104W        W84645   6.934  33.059   0.865
18105W        W84646  44.496  25.618  12.784
18106W        W84647   8.152  35.998   4.113
18107W        W84648  10.056  20.075  10.693
18108W        W84649  44.291  10.100   0.762
18109W        W84650   7.087  25.245  10.921
18110W        W84651  14.054   7.796   2.790
18111W        W84652  11.760  35.653  10.727
18112W        W84653  17.247   3.453  11.969
18113W        W84654  40.420  20.070  12.471
18114W        W84655   3.205  34.406   2.922
18115W        W84656  37.798  39.920  12.531
18116W        W84657  32.692  32.859  11.132
18117W        W84658  26.435  12.492   0.675
18118W        W84659  29.466  21.062   5.088
18119W        W84660  32.434  17.738   1.894
18120W        W84661  39.051  44.812   1.679
18121W        W84662  30.180  24.914   3.184
18122W        W84663  29.986  31.849   4.675
18123W        W84664  40.273  36.654  13.055
18124W        W84665  32.612  17.626  13.112
18125W        W84666  25.396   8.212  10.874
18126W        W84667   8.865  33.011  12.346
18127W        W84668  40.135  42.745  13.789
18128W        W84669  13.873  44.341   1.767
18129W        W84670  39.429  37.794   2.251
18130W        W84671  36.281  15.964   4.084
18131W        W84672  27.786  30.413   0.108
18132W        W84673   2.380  33.557   3.744
18133W        W84674  28.988  28.046  12.861
18134W        W84675   8.963   2.206  11.074
18135W        W84676   3.407   2.377  13.764
18136W        W84677  12.761  38.525   1.726
18137W        W84678  38.058   5.878  13.643
18138W        W84679  18.036  20.210  11.615
18139W        W84680  39.111   5.444  11.071
18140W        W84681  20.331  32.355   2.868
18141W        W84682  31.963  33.478  14.380
18142W        W84683  33.888  17.222   2.807
18143W        W84684  42.754  31.293   3.117
18144W        W84685  24.993  31.117   3.778
18145W        W84686  37.455  34.012   1.848
18146W        W84687  37.944  24.735   0.875
18147W        W84688  38.232  42.996   2.149
18148W        W84689  28.130  25.528  12.526
18149W        W84690  13.763   6.169  11.120
18150W        W84691  41.351  43.890   2.495
18151W        W84692   3.305   9.513  11.338
18152W        W84693   4.623  35.112  10.993
18153W        W84694  35.542  12.802   1.400
18154W        W84695  11.530  40.921   1.068
18155W        W84696  10.813  34.516  14.007
18156W        W84697   5.744   5.737   4.172
18157W        W84698   2.418   4.894  13.476
18158W        W84699  36.543  26.675   2.074
18159W        W84700  15.565  10.141  14.658
18160W        W84701  18.566  41.910  11.810
18161W        W84702  34.012  25.151   0.879
18162W        W84703  10.907  35.993  14.513
18163W        W84704  22.480  32.089  11.044
18164W        W84705   4.174  43.886  10.904
18165W        W84706  42.833  21.719   4.343
18166W        W84707  22.463  31.498   1.458
18167W        W84708  21.030  32.925   1.007
18168W        W84709  17.656  24.161   3.827
18169W        W84710  23.344  27.643  13.403
18170W        W84711   9.882  18.547   2.994
18171W        W84712  44.014   6.296   0.849
18172W        W84713  40.247  36.410   1.839
18173W        W84714  13.261  29.911   0.016
18174W        W84715  21.515  21.855   2.473
18175W        W84716   1.281  25.933   3.168
18176W        W84717  43.341  30.385  12.658
18177W        W84718   8.799   8.712   0.777
18178W        W84719  16.810  24.099  12.934
18179W        W84720  39.959  31.656  12.257
18180W        W84721  39.665  21.570   2.836
18181W        W84722  20.721   6.874  12.098
18182W        W84723   2.028  12.096   3.800
18183W        W84724  17.993  35.729   0.918
18184W        W84725  18.454   9.876   4.152
18185W        W84726  27.144  19.161   0.887
18186W        W84727   1.392   2.952   1.310
18187W        W84728  37.862  39.068  11.167
18188W        W84729   4.368  29.661  12.971
18189W        W84730   7.275  18.022  13.818
18190W        W84731  38.341   8.074  14.209
18191W        W84732  15.336  17.998   2.655
18192W        W84733   1.219  39.136  12.161
18193W        W84734  24.556  26.443   0.807
18194W        W84735   8.399  26.026   0.048
18195W        W84736   4.704  35.878   0.832
18196W        W84737  41.616  24.614   2.328
18197W        W84738  32.461  14.245  13.412
18198W        W84739  19.571   1.738   3.561
18199W        W84740  16.596  42.527   2.836
18200W        W84741  44.019   4.897   2.232
18201W        W84742  17.042  27.083   0.737
18202W        W84743  25.424  12.629  14.406
18203W        W84744  43.766  14.669  11.433
18204W        W84745   2.006  31.592  13.447
18205W        W84746   0.182  22.760   1.121
18206W        W84747  27.653  13.747   1.425
18207W        W84748  18.047  35.517  12.186
18208W        W84749  36.316  26.054   1.489
18209W        W84750  16.885  33.119   4.392
18210W        W84751  30.108  19.469  12.582
18211W        W84752  43.357  25.418   3.310
18212W        W84753  31.083  28.482   3.628
18213W        W84754  20.999  16.609  13.736
18214W        W84755  17.330   0.415   4.291
18215W        W84756  33.083   9.583   2.614
18216W        W84757  16.341  27.659  10.478
18217W        W84758  44.507  34.197   1.725
18218W        W84759  25.489  17.893   0.427
18219W        W84760  25.287  34.925  14.572
18220W        W84761  28.580  28.570   1.762
18221W        W84762  41.560  29.512  10.967
18222W        W84763  19.040  39.738  13.269
18223W        W84764  35.440  30.868  14.264
18224W        W84765  16.675   1.791  11.223
18225W        W84766  36.181  24.631  11.691
18226W        W84767  27.836  28.465   0.220
18227W        W84768  39.846  15.861   3.721
18228W        W84769  34.505  36.344  12.439
18229W        W84770   5.233  26.282   1.880
18230W        W84771  44.440   4.825   5.152
18231W        W84772   8.177  17.295  10.649
18232W        W84773  34.495  21.003  13.053
18233W        W84774  34.505  16.184   1.220
18234W        W84775  30.570   1.711   2.376
18235W        W84776  23.927  28.663  14.164
18236W        W84777  19.548  34.553  14.189
18237W        W84778  35.102  38.483   0.415
18238W        W84779  22.947  18.284   3.285
18239W        W84780  23.954  31.711   2.167
18240W        W84781   4.046  19.771   5.270
18241W        W84782  43.060  21.140   3.750
18242W        W84783  33.583   9.088  10.267
18243W        W84784  30.776  16.271   4.155
18244W        W84785  13.946  32.999   1.789
18245W        W84786  42.712   4.299  11.107
18246W        W84787  15.362  28.422  11.248
18247W        W84788  12.229   6.714  14.830
18248W        W84789  12.711  41.426   4.548
18249W        W84790  22.409   3.460  13.438
18250W        W84791  36.077   5.775  11.873
18251W        W84792  39.556  18.583  14.074
18252W        W84793  21.865   6.879   1.998
18253W        W84794   6.887  35.521   0.279
18254W        W84795   3.966  25.983  11.824
18255W        W84796  27.785  41.411  14.990
18256W        W84797  37.929  40.436   0.429
18257W        W84798  41.905   5.745  12.107
18258W        W84799  10.077  40.031   2.322
18259W        W84800  39.313  11.612   5.371
18260W        W84801  16.507  37.266  12.080
18261W        W84802  34.983   3.991   1.744
18262W        W84803  43.981  10.185  13.854
18263W        W84804   5.350   1.090   5.574
18264W        W84805  39.900   2.854   4.327
18265W        W84806   9.179   5.226  11.556
18266W        W84807  19.587  30.928  13.903
18267W        W84808  34.762  17.880  13.093
18268W        W84809  13.599  13.580  11.788
18269W        W84810  36.116  23.589  10.658
18270W        W84811  36.947   2.915   1.791
18271W        W84812   0.312   4.233   1.710
18272W        W84813   8.157  37.852   4.931
18273W        W84814   1.460  22.518  11.881
18274W        W84815  39.419  12.435  11.999
18275W        W84816  43.527   3.730  12.479
18276W        W84817  29.292  19.622   0.633
18277W        W84818   2.402   9.269   1.740
18278W        W84819  11.823  43.892   3.975
18279W        W84820  36.488  40.716   4.367
18280W        W84821  11.642  19.764  12.356
18281W        W84822  24.241  13.237   1.003
18282W        W84823  23.987   7.684   4.541
18283W        W84824  10.820  17.303  13.407
18284W        W84825  33.380  18.790  12.007
18285W        W84826  39.492   6.926  13.530
18286W        W84827  42.108  19.581   1.853
18287W        W84828  38.463   1.338   4.419
18288W        W84829  34.473  26.878  12.611
18289W        W84830  33.873   1.580   2.643
18290W        W84831   3.730  42.949  12.493
18291W        W84832  33.992   8.776  11.444
18292W        W84833   6.446  38.813   2.098
18293W        W84834   4.255   0.747  10.199
18294W        W84835  32.538  23.231  11.541
18295W        W84836  10.356  37.365   2.838
18296W        W84837  23.948  17.775  10.760
18297W        W84838  24.867  10.561  10.762
18298W        W84839  12.514  25.722   1.265
18299W        W84840   6.113   3.699  11.925
18300W        W84841  12.780  31.939  14.339
18301W        W84842   4.772   6.532   2.204
18302W        W84843  43.897  36.574  12.995
18303W        W84844   5.334  36.098   0.828
18304W        W84845  12.166  41.710   1.901
18305W        W84846   1.947  23.159  10.288
18306W        W84847  39.097  43.977   4.619
18307W        W84848   3.857   2.522   1.484
18308W        W84849  33.856  15.749  13.389
18309W        W84850  18.081  37.439   2.047
18310W        W84851  36.845  18.129  14.454
18311W        W84852   4.793   8.698   0.167
18312W        W84853  36.100  34.012   1.804
18313W        W84854  25.391  44.528   4.205
18314W        W84855  40.491  43.063  11.186
18315W        W84856  29.412   6.396   0.766
18316W        W84857  42.126   9.293   1.737
18317W        W84858   8.267  40.557   2.798
18318W        W84859   5.907   1.287  13.969
18319W        W84860  12.601  22.115  13.976
18320W        W84861  13.137  27.744  12.457
18321W        W84862   6.663  41.996   1.332
18322W        W84863   2.861  44.271  14.434
18323W        W84864  21.873  21.644  12.876
18324W        W84865  13.762  14.639  10.671
18325W        W84866  14.551   9.358   3.334
18326W        W84867   6.343  15.766  14.017
18327W        W84868  36.379  21.191  10.743
18328W        W84869   5.635  35.792   4.926
18329W        W84870  14.286  30.467   3.034
18330W        W84871  44.243  12.566   4.665
18331W        W84872   2.967  16.813  14.957
18332W        W84873  34.912  11.575  11.976
18333W        W84874  10.875  12.209   4.637
18334W        W84875  41.195  24.331   2.373
18335W        W84876  14.301  22.562   0.857
18336W        W84877  32.917  31.808   4.155
18337W        W84878  30.688  34.694  13.375
18338W        W84879   6.304   4.437  14.776
18339W        W84880   0.392  11.199   1.805
18340W        W84881  16.776   8.435  10.634
18341W        W84882   3.963  18.590  14.800
18342W        W84883   2.859  39.743  10.737
18343W        W84884  34.576  31.626   3.273
18344W        W84885  32.143  26.446   0.282
18345W        W84886  32.613  38.576   1.358
18346W        W84887  44.685   7.176   4.389
18347W        W84888  27.205  41.557  13.135
18348W        W84889  25.166  19.708  13.964
18349W        W84890  16.514  11.509   3.125
18350W        W84891   0.628  23.573   2.432
18351W        W84892  12.258  27.920   2.402
18352W        W84893   0.437  17.696   2.872
18353W        W84894  27.970  42.905  10.547
18354W        W84895  13.668   5.851  10.710
18355W        W84896  23.021   7.271  12.997
18356W        W84897  35.558   1.820   3.510
18357W        W84898  15.856  33.979  11.047
18358W        W84899  18.305  34.587   3.093
18359W        W84900  11.822  37.601   1.323
18360W        W84901  20.364  19.259  10.769
18361W        W84902  11.240  20.050  13.726
18362W        W84903  44.965  32.303  11.071
18363W        W84904   2.461   2.739  13.910
18364W        W84905  17.084  23.285   1.303
18365W        W84906   3.247   3.472  13.937
18366W        W84907   7.353  27.541   3.122
18367W        W84908  37.247   4.673   3.767
18368W        W84909  19.751   9.860  12.401
18369W        W84910  26.739  17.855   2.787
18370W        W84911  24.149  21.603  14.795
18371W        W84912  36.391  42.547   3.289
18372W        W84913   5.474  29.842   1.698
18373W        W84914  36.813  42.564  11.771
18374W        W84915   7.249  12.069  14.846
18375W        W84916  37.605  23.202  12.536
18376W        W84917  42.497  41.880   1.835
18377W        W84918  11.223  35.639  11.408
18378W        W84919   7.844  31.242  10.712
18379W        W84920  10.915  18.973   4.593
18380W        W84921  20.061  24.079   0.936
18381W        W84922   7.973  14.070  12.432
18382W        W84923   2.765  16.118   4.701
18383W        W84924  37.569  21.811   1.778
18384W        W84925  12.103  23.523  11.042
18385W        W84926  22.471   0.807  12.666
18386W        W84927  38.327   3.013   3.336
18387W        W84928  13.558  30.147   2.777
18388W        W84929  41.095   9.351   1.011
18389W        W84930   4.800  21.689  14.607
18390W        W84931  34.197  28.699   1.775
18391W        W84932  26.691   1.353  14.567
18392W        W84933  28.144  13.308  13.548
18393W        W84934  28.408   8.776   0.394
18394W        W84935  31.582  30.029   1.896
18395W        W84936   9.669  18.166  13.133
18396W        W84937  31.705  34.060   3.211
18397W        W84938  24.695  12.413   0.374
18398W        W84939  15.183  35.441   3.233
18399W        W84940   4.781   3.879   4.171
18400W        W84941  26.451   8.618   0.329
18401W        W84942   5.410  20.228  14.359
18402W        W84943   6.375  42.360  10.975
18403W        W84944  39.533  28.476   2.371
18404W        W84945  29.867   8.186   4.570
18405W        W84946  20.071  21.735  11.113
18406W        W84947  16.250   8.619   2.298
18407W        W84948  30.492   1.730  14.940
18408W        W84949  41.346  32.442   0.991
18409W        W84950  43.077  37.785   1.310
18410W        W84951  41.865  40.098   3.059
18411W        W84952  23.101   8.871   4.018
18412W        W84953  36.515  13.163   1.002
18413W        W84954   7.895  35.505   0.406
18414W        W84955  32.267  42.840   1.735
18415W        W84956  28.060  39.283  11.535
18416W        W84957  11.222   5.920   4.349
18417W        W84958   1.350  30.003  11.955
18418W        W84959  36.987  40.397   1.801
18419W        W84960  43.687   6.159   1.226
18420W        W84961   3.765  22.740   4.584
18421W        W84962  43.642   3.893   1.520
18422W        W84963  41.862  23.056  12.378
18423W        W84964  19.420  25.740  11.356
18424W        W84965   3.351   5.867   0.968
18425W        W84966  41.976   4.205  10.672
18426W        W84967  23.113   1.026   1.239
18427W        W84968  28.710  15.824  11.495
18428W        W84969   0.442  30.515  10.282
18429W        W84970   0.121  35.596  10.786
18430W        W84971   4.191  16.279  10.621
18431W        W84972  41.869  40.981   4.663
18432W        W84973   8.462  38.211   1.284
18433W        W84974   0.554  15.859  12.162
18434W        W84975  32.567  35.127   2.903
18435W        W84976   2.455  12.326   1.475
18436W        W84977   0.703  15.271  14.884
18437W        W84978  13.732  33.616  13.541
18438W        W84979   6.397  14.205  12.167
18439W        W84980   1.879  10.393  14.698
18440W        W84981  43.772   6.204   4.183
18441W        W84982  22.647  24.758   3.314
18442W        W84983  43.639  35.194  12.996
18443W        W84984  13.782   0.306  12.411
18444W        W84985   2.916   3.882   1.348
18445W        W84986   8.257  40.586  12.093
18446W        W84987  17.614  33.839  13.826
18447W        W84988   3.898  22.620  10.149
18448W        W84989   1.670   5.491  10.343
18449W        W84990  29.882   4.444   2.203
18450W        W84991  26.265  14.789  11.457
18451W        W84992   0.312  38.828  14.415
18452W        W84993   1.092  42.539   3.321
18453W        W84994  42.352  44.695  13.385
18454W        W84995  30.780  29.190   1.232
18455W        W84996   4.224  39.027   2.568
18456W        W84997  14.695  15.757  14.882
18457W        W84998  27.472  39.332  11.360
18458W        W84999  14.165   0.046  11.662
18459W        W85000  31.467  39.951  14.380
18460W        W85001  41.028  25.504  13.011
18461W        W85002  30.959  17.404   5.018
18462W        W85003  21.260  43.382  12.981
18463W        W85004  21.407   7.418   1.422
18464W        W85005  18.301  25.914   4.743
18465W        W85006   8.672  29.941  11.271
18466W        W85007  13.803  32.994   0.836
18467W        W85008  19.638  42.824   1.227
18468W        W85009  14.486  43.524   4.068
18469W        W85010  29.769  32.420   0.329
18470W        W85011   8.737  34.467   2.231
18471W        W85012  40.043  43.803  14.414
18472W        W85013   7.704  43.800   3.837
18473W        W85014  17.384  17.555   3.849
18474W        W85015  36.602  25.527   4.106
18475W        W85016   2.774  35.855  13.399
18476W        W85017  29.425   0.451   1.926
18477W        W85018  20.654  18.740  14.222
18478W        W85019  33.514  12.369  14.435
18479W        W85020  10.565  26.826   0.397
18480W        W85021  41.639  35.657  12.640
18481W        W85022  11.333  27.925   2.181
18482W        W85023  35.092  35.048  14.508
18483W        W85024  39.897  15.720   0.717
18484W        W85025  22.703  25.446   0.477
18485W        W85026  19.632  15.998   2.809
18486W        W85027   4.424   1.860  11.332
18487W        W85028  41.253   4.181  13.978
18488W        W85029  20.033   7.900   1.035
18489W        W85030  40.788   9.229  11.086
18490W        W85031  41.991  31.173  10.660
18491W        W85032  23.802  21.583  11.992
18492W        W85033  24.670   3.248  12.538
18493W        W85034  43.853  11.031  11.614
18494W        W85035  25.310  43.551   2.324
18495W        W85036  19.118  28.088   2.842
18496W        W85037  16.609  41.505  12.858
18497W        W85038  41.269   9.743   4.129
18498W        W85039  29.204  15.829  14.007
18499W        W85040  30.623   6.083   0.511
18500W        W85041  13.139  34.089  11.136
18501W        W85042   3.413  24.713  12.042
18502W        W85043  14.173   5.893   4.162
18503W        W85044  24.704   2.804   4.551
18504W        W85045  10.868  34.605   2.330
18505W        W85046  14.125  34.067  11.019
18506W        W85047  43.260  44.243  10.992
18507W        W85048  14.788   1.365   2.410
18508W        W85049  13.181  42.854  13.587
18509W        W85050  38.464   8.172  14.682
18510W        W85051  27.348  36.997   1.945
18511W        W85052   2.808   9.153  12.599
18512W        W85053  11.699   2.165  10.202
18513W        W85054  14.825  10.594  13.984
18514W        W85055   6.257   2.046   0.693
18515W        W85056  18.329  26.663  11.918
18516W        W85057  20.862  18.104   4.458
18517W        W85058  15.099  36.898  11.519
18518W        W85059   1.522  17.630  13.905
18519W        W85060  25.031  15.792   3.282
18520W        W85061  16.654  36.574  12.502
18521W        W85062   6.943  34.946   0.955
18522W        W85063   3.349  22.699  12.398
18523W        W85064  35.412  37.685  11.899
18524W        W85065   1.895  31.514  11.665
18525W        W85066  44.849  32.675  10.710
18526W        W85067  13.634  14.237   0.048
18527W        W85068  38.295  29.622   4.182
18528W        W85069  16.434  28.105   0.320
18529W        W85070  31.686  16.422   4.164
18530W        W85071  34.105  24.629  11.639
18531W        W85072  23.520  16.488   2.783
18532W        W85073  17.037  44.398   4.181
18533W        W85074  35.933   1.473   3.443
18534W        W85075  25.470  31.754   2.126
18535W        W85076  34.455  15.989   4.749
18536W        W85077  18.469   6.475  12.006
18537W        W85078  41.485  13.375   0.388
18538W        W85079  37.398  16.376  14.514
18539W        W85080  19.145  23.743   0.766
18540W        W85081  19.083  19.502   4.124
18541W        W85082  37.869  23.475  12.899
18542W        W85083   0.955   5.782   1.878
18543W        W85084  33.447  39.511  12.456
18544W        W85085  31.013   9.845  14.953
18545W        W85086   3.738  36.998   0.600
18546W        W85087  26.550  30.154   3.210
18547W        W85088  19.758  32.575   0.661
18548W        W85089  10.634  23.098  12.654
18549W        W85090   7.743  12.663   3.361
18550W        W85091   2.403  29.221  11.629
18551W        W85092  18.127  27.557  10.472
18552W        W85093  32.381   9.182   4.776
18553W        W85094  14.523   8.402  10.369
18554W        W85095   9.136  18.968   3.012
18555W        W85096  42.979  36.076   1.890
18556W        W85097   5.329   9.669  12.369
18557W        W85098  26.022  23.974  12.023
18558W        W85099  36.326  29.440  11.197
18559W        W85100  12.409  21.338   4.908
18560W        W85101  16.382  38.851   2.703
18561W        W85102  18.567  20.985   4.596
18562W        W85103  26.667  15.236  13.264
18563W        W85104  42.567  41.382   1.679
18564W        W85105  28.285  41.329  14.276
18565W        W85106  13.246  22.282   4.261
18566W        W85107  27.307  29.854  13.527
18567W        W85108   3.935   3.411   2.820
18568W        W85109   1.052  23.214  11.701
18569W        W85110  10.357   4.412   1.529
18570W        W85111   6.866  25.699  14.476
18571W        W85112  15.357  24.061   0.894
18572W        W85113  32.917  39.270   4.705
18573W        W85114  24.267  12.601  11.390
18574W        W85115  18.483  18.586  13.036
18575W        W85116   9.408  40.715  11.279
18576W        W85117   8.545  21.652   3.399
18577W        W85118  31.454  31.374  14.925
18578W        W85119  22.944  16.753  13.013
18579W        W85120  44.277  32.882   3.144
18580W        W85121  26.928  35.905   4.069
18581W        W85122  30.543  23.894   5.116
18582W        W85123  29.467  30.922   4.285
18583W        W85124  37.040   4.191   3.653
18584W        W85125  20.239  10.807   3.383
18585W        W85126  35.878  25.200  10.621
18586W        W85127  30.137  36.808   1.325
18587W        W85128   4.265  26.330   4.938
18588W        W85129   0.247  17.913   4.582
18589W        W85130  14.397   8.871   3.209
18590W        W85131  23.414   0.878  10.675
18591W        W85132  31.161  16.202  14.035
18592W        W85133  44.258  28.944  11.933
18593W        W85134   1.263  35.661   4.767
18594W        W85135  33.441  18.616   0.884
18595W        W85136  18.553   2.456  12.916
18596W        W85137   7.880  29.584  13.351
18597W        W85138  30.113  34.685   0.645
18598W        W85139   6.957   4.991   4.341
18599W        W85140  39.073  32.384  10.755
18600W        W85141  29.176  14.725   3.755
18601W        W85142   5.960  31.171  11.109
18602W        W85143  36.419  41.815   1.703
18603W        W85144   1.679   1.266  12.934
18604W        W85145  32.155  25.691  12.783
18605W        W85146  18.646  19.768  12.858
18606W        W85147  39.075  16.651   4.353
18607W        W85148   4.426   9.363   3.286
18608W        W85149  38.261  33.840  14.282
18609W        W85150  19.270  40.296   2.724
18610W        W85151  43.918  29.444  10.465
18611W        W85152   1.984  12.622  13.894
18612W        W85153  33.331   4.672  14.438
18613W        W85154  28.106   1.237   0.880
18614W        W85155   6.909   7.719  11.091
18615W        W85156   6.785  14.755  12.840
18616W        W85157   2.745  14.861  11.215
18617W        W85158  37.339  22.726   3.317
18618W        W85159   4.672   6.259   1.771
18619W        W85160  34.483  22.465   2.899
18620W        W85161  22.320  18.242  13.856
18621W        W85162  31.667   2.332   3.151
18622W        W85163   1.762  24.649   2.341
18623W        W85164  42.374  16.587  13.517
18624W        W85165  22.774  16.941  14.763
18625W        W85166  23.309  24.017  12.207
18626W        W85167  11.161  12.894  13.564
18627W        W85168  26.623  22.212  12.849
18628W        W85169  39.902  13.830   1.869
18629W        W85170   4.414  18.349  12.040
18630W        W85171  25.531  14.222   2.581
18631W        W85172   5.271  29.807   4.621
18632W        W85173   2.635  15.524   2.214
18633W        W85174   1.936  31.057   3.146
18634W        W85175   0.846  26.606   3.484
18635W        W85176  17.658  24.687  13.877
18636W        W85177  31.403  16.434   4.628
18637W        W85178   4.350   0.101  13.632
18638W        W85179  27.947  36.876  11.520
18639W        W85180   0.367  26.954  11.995
18640W        W85181  33.508  31.175  12.008
18641W        W85182  36.345  18.265  11.978
18642W        W85183  36.583  29.414  11.640
18643W        W85184  18.146  15.992   0.059
18644W        W85185  26.319  11.397   1.524
18645W        W85186  20.282  32.054   2.236
18646W        W85187  27.608  26.912  10.870
18647W        W85188  35.072  17.993  13.485
18648W        W85189  32.428  30.669   9.763
18649W        W85190  44.259   2.001   4.963
18650W        W85191  11.151  20.669   2.733
18651W        W85192   6.863   4.411  10.471
18652W        W85193   9.905  13.789   0.257
18653W        W85194   2.918   9.281   1.849
18654W        W85195  35.553   0.182  13.974
18655W        W85196  33.699   4.903   4.344
18656W        W85197  33.047  19.261  13.812
18657W        W85198  17.306  19.576   4.654
18658W        W85199  42.239  38.547   2.603
18659W        W85200  44.567  16.451   2.361
18660W        W85201  11.495  12.086  14.477
18661W        W85202  14.683  35.801  14.605
18662W        W85203  23.560  14.199  11.688
18663W        W85204  15.611  27.457  11.026
18664W        W85205  38.374  35.608   1.740
18665W        W85206   2.364   1.924  14.372
18666W        W85207  33.117  29.188  13.294
18667W        W85208  14.041   2.420   1.354
18668W        W85209  36.028  20.620  13.398
18669W        W85210  31.617  10.140   1.766
18670W        W85211  40.596  18.578  14.195
18671W        W85212  43.458  15.401   1.004
18672W        W85213  23.481  26.563   3.374
18673W        W85214  17.865  22.596   3.317
18674W        W85215  25.766   1.144   0.830
18675W        W85216  23.225  26.661   4.560
18676W        W85217  21.194   6.183   2.901
18677W        W85218  20.977   4.313  13.540
18678W        W85219  23.114   0.824  11.486
18679W        W85220   4.352   5.871  10.395
18680W        W85221  27.841  10.209   5.004
18681W        W85222   4.800  40.866  14.528
18682W        W85223   7.771   1.060  11.694
18683W        W85224   5.129  15.120   4.118
18684W        W85225  37.608   9.372  12.529
18685W        W85226  17.611   5.268  11.586
18686W        W85227  11.374  40.201   3.737
18687W        W85228   7.325  12.101  14.012
18688W        W85229  35.440  38.730   0.722
18689W        W85230   2.196  33.838  13.472
18690W        W85231  23.608  14.420  11.007
18691W        W85232   9.289  39.648   1.854
18692W        W85233  19.256  36.582   4.467
18693W        W85234  26.474  16.388   0.492
18694W        W85235   2.406   5.692  11.611
18695W        W85236  27.722  42.546  13.600
18696W        W85237  20.308  23.054  14.839
18697W        W85238  13.248   7.258   1.811
18698W        W85239  37.390   0.704   2.653
18699W        W85240  40.245  36.386  12.596
18700W        W85241  37.990  42.921   0.395
18701W        W85242  18.238   8.378   4.277
18702W        W85243  35.431   2.185   1.030
18703W        W85244   9.381  27.074   0.762
18704W        W85245   6.323  18.263   2.690
18705W        W85246  14.997  12.568   3.169
18706W        W85247   1.536  41.034  14.020
18707W        W85248  44.434  42.302   3.808
18708W        W85249  35.208  38.280  12.418
18709W        W85250  29.851   4.825   0.523
18710W        W85251  28.640  28.094  13.280
18711W        W85252  17.640  28.221  14.475
18712W        W85253  29.691   0.777   0.807
18713W        W85254   2.762  17.515   2.836
18714W        W85255  33.445  19.114   1.977
18715W        W85256   7.895  32.930  13.173
18716W        W85257   3.277   0.629   2.366
18717W        W85258  35.613   1.525   2.244
18718W        W85259  22.135  13.124   4.435
18719W        W85260  37.796  44.720  14.997
18720W        W85261  36.920   3.190  11.083
18721W        W85262  40.566  11.152  11.653
18722W        W85263  20.688  27.710  14.410
18723W        W85264  31.029  31.811   4.745
18724W        W85265  17.656  33.605   0.185
18725W        W85266  39.984  26.442   0.411
18726W        W85267  12.278  15.139  14.959
18727W        W85268  27.933   2.759   3.765
18728W        W85269   3.697  43.793  11.992
18729W        W85270  25.035   3.394  13.816
18730W        W85271  43.342  31.118   1.782
18731W        W85272  32.120  43.551  13.567
18732W        W85273   2.440  25.089  14.754
18733W        W85274  34.998  42.558  12.092
18734W        W85275  20.250  40.245  13.308
18735W        W85276  15.209  12.156   2.820
18736W        W85277  35.377  44.209   3.626
18737W        W85278   1.053  26.440   5.319
18738W        W85279  32.775  16.994   4.075
18739W        W85280  19.590   8.946  12.224
18740W        W85281  31.100   2.912   0.972
18741W        W85282  19.715   4.027  13.400
18742W        W85283  14.138  27.792   2.248
18743W        W85284  17.800  17.267   1.376
18744W        W85285  26.262   3.546  14.278
18745W        W85286   7.789   0.043   3.391
18746W        W85287  39.284  38.821  13.088
18747W        W85288   2.959  41.187   0.044
18748W        W85289  22.775   1.009   0.087
18749W        W85290  14.768   6.292  14.401
18750W        W85291  29.126  13.880  11.096
18751W        W85292  42.465   3.558   2.359
18752W        W85293  32.503  15.840   0.385
18753W        W85294  43.902  12.724   0.668
18754W        W85295  38.004  24.806  14.357
18755W        W85296  11.847  21.582  10.543
18756W        W85297   9.757  31.087  11.340
18757W        W85298   6.747  10.703   3.756
18758W        W85299   4.445  12.677  12.610
18759W        W85300  14.714  37.413   0.454
18760W        W85301  14.184  13.200  12.960
18761W        W85302  43.958   2.289   4.088
18762W        W85303   5.088  12.598  11.638
18763W        W85304  11.577   9.166   2.145
18764W        W85305  44.403  33.619   1.306
18765W        W85306  11.634  34.944  14.893
18766W        W85307  14.748   5.386   0.792
18767W        W85308  39.531   3.782   3.792
18768W        W85309  29.486   3.265  12.037
18769W        W85310  16.161   7.693   2.725
18770W        W85311  43.065   7.281   3.804
18771W        W85312  27.053  40.940   4.393
18772W        W85313  12.655  36.612  14.990
18773W        W85314  17.186  41.008   1.171
18774W        W85315  42.440  38.460  13.447
18775W        W85316   6.120  39.879  10.291
18776W        W85317  20.015  34.376  12.401
18777W        W85318  33.429  15.328   1.421
18778W        W85319  42.833  39.282   0.229
18779W        W85320  26.062   3.688  12.538
18780W        W85321  26.483   2.044   2.662
18781W        W85322   3.427  42.542   1.069
18782W        W85323  41.388  23.032  12.901
18783W        W85324  39.416  39.385   0.967
18784W        W85325   7.886  24.014  11.135
18785W        W85326  40.289   8.727   1.971
18786W        W85327  26.736   2.931  13.656
18787W        W85328   6.207   2.343  10.348
18788W        W85329  41.386  15.777  11.526
18789W        W85330  10.877   5.235  11.108
18790W        W85331  35.810   6.877   1.918
18791W        W85332  40.937  40.317   3.852
18792W        W85333  15.352  15.186   4.162
18793W        W85334  43.777   6.776   2.934
18794W        W85335  29.202  17.671   3.347
18795W        W85336  20.292  23.581  14.851
18796W        W85337   3.292  44.750  12.081
18797W        W85338  43.825   7.319  11.953
18798W        W85339  10.184  15.752  14.915
18799W        W85340  30.251  20.239  11.137
18800W        W85341  27.370  12.572   0.772
18801W        W85342  30.392   4.834  12.037
18802W        W85343  19.570  22.567  14.875
18803W        W85344  37.940  35.377   1.954
18804W        W85345  25.702  16.874   0.422
18805W        W85346  12.084  43.694   0.298
18806W        W85347   1.337  16.971  14.189
18807W        W85348  25.106  33.748  12.041
18808W        W85349  43.473  21.371  11.988
18809W        W85350  40.568  42.295   2.733
18810W        W85351  20.135  33.228  13.099
18811W        W85352  27.068   0.613  12.466
18812W        W85353  25.168  35.225   0.509
18813W        W85354  37.114  26.157  11.476
18814W        W85355  22.089  30.695  12.504
18815W        W85356  39.056  31.593  14.363
18816W        W85357  42.633  32.950   3.690
18817W        W85358  11.710  14.236  12.502
18818W        W85359  35.321  13.033  13.061
18819W        W85360  26.688  31.645  12.723
18820W        W85361  40.399  10.158  10.838
18821W        W85362  32.970  14.646  14.074
18822W        W85363  42.908  39.904   1.775
18823W        W85364   9.330  30.670  13.082
18824W        W85365  10.124  28.239  13.382
18825W        W85366   7.774  37.994  12.166
18826W        W85367  14.159  42.555   0.861
18827W        W85368  37.524  40.532  10.500
18828W        W85369   5.388  35.556   0.707
18829W        W85370  11.633  13.362  12.667
18830W        W85371  31.466  39.369  11.999
18831W        W85372   5.406  26.128  12.858
18832W        W85373  30.028   4.486   2.852
18833W        W85374  30.478  24.981   1.080
18834W        W85375  40.700  43.495   1.707
18835W        W85376  44.575   3.286   4.404
18836W        W85377  29.939  26.134  12.560
18837W        W85378  42.986   4.213  13.522
18838W        W85379  23.696   2.325   4.103
18839W        W85380  35.066  11.056  12.025
18840W        W85381  37.167  10.980  10.700
18841W        W85382  43.978  32.860  13.905
18842W        W85383  29.283  26.937  14.385
18843W        W85384  16.403   6.299   2.826
18844W        W85385  11.606  13.393   2.576
18845W        W85386  42.887  26.411   1.998
18846W        W85387  23.429   9.470   5.447
18847W        W85388  20.569  29.360  13.889
18848W        W85389  35.877   0.860  14.619
18849W        W85390   1.374  34.881   0.359
18850W        W85391  24.563  32.406  10.721
18851W        W85392  42.891  19.289   4.184
18852W        W85393  43.824  24.946   4.324
18853W        W85394  27.736  37.461  11.598
18854W        W85395   6.190  26.779  11.127
18855W        W85396  23.300   5.289   3.103
18856W        W85397  36.881  17.128  11.074
18857W        W85398   7.156   1.009  11.991
18858W        W85399  10.263  24.095  10.363
18859W        W85400  21.668  34.514  11.205
18860W        W85401  18.855  16.413  12.020
18861W        W85402  35.909   6.734  10.998
18862W        W85403   0.850  41.056   2.180
18863W        W85404  21.307  40.808  13.973
18864W        W85405   3.721  14.351   4.029
18865W        W85406  32.800   3.949  12.997
18866W        W85407  31.571  39.446  14.302
18867W        W85408  44.036  33.367  13.857
18868W        W85409  21.509  24.517  13.876
18869W        W85410  30.595  23.501  11.068
18870W        W85411  44.907  15.024  13.449
18871W        W85412  44.449  41.482  10.976
18872W        W85413  36.995  24.574   2.934
18873W        W85414  22.815  18.566   2.254
18874W        W85415   7.867  29.168  13.047
18875W        W85416   9.285   6.928   3.171
18876W        W85417  19.200  32.047  11.380
18877W        W85418  32.660  39.068  11.472
18878W        W85419   9.505  14.150  11.764
18879W        W85420  13.690  32.606  11.907
18880W        W85421   5.860  41.492   0.215
18881W        W85422  18.736  28.238  12.971
18882W        W85423  37.215  12.677   3.194
18883W        W85424  29.389   8.230   1.696
18884W        W85425   0.035  16.597   4.719
18885W        W85426  38.482  44.819   3.986
18886W        W85427  37.086  24.958   2.275
18887W        W85428  36.277  37.908   3.719
18888W        W85429  16.900  41.122  14.825
18889W        W85430  20.169  17.610   9.916
18890W        W85431  16.076  15.312   3.608
18891W        W85432   4.740  43.861  13.612
18892W        W85433  38.639  24.378   0.989
18893W        W85434   2.066   7.382   1.360
18894W        W85435  39.959  22.633  12.430
18895W        W85436   4.959   0.981   0.148
18896W        W85437  35.774  15.138   2.811
18897W        W85438  28.850  29.717   0.270
18898W        W85439  26.702   0.909  14.277
18899W        W85440  27.509   3.778  10.331
18900W        W85441  12.224  14.777   4.705
18901W        W85442  36.978  39.604  11.194
18902W        W85443  38.116  38.060   0.201
18903W        W85444  27.108  12.171   2.103
18904W        W85445   0.694   6.214  10.833
18905W        W85446  14.361  37.032   2.619
18906W        W85447  42.110  41.047  13.342
18907W        W85448  39.001   6.692  13.461
18908W        W85449  40.094  14.141   3.188
18909W        W85450  29.510  21.299  11.828
18910W        W85451  35.396  30.163   0.700
18911W        W85452  31.587  32.279  13.383
18912W        W85453  39.852  21.484   2.330
18913W        W85454  36.453  29.397   1.397
18914W        W85455  19.817  13.263   3.717
18915W        W85456  24.809  11.323  14.417
18916W        W85457  21.502  32.153  11.091
18917W        W85458   0.769  18.489  11.270
18918W        W85459   4.746   7.760  14.822
18919W        W85460  21.485  39.796  10.641
18920W        W85461  33.673  34.991   3.380
18921W        W85462  10.847   8.173  12.081
18922W        W85463  10.805   6.617  13.040
18923W        W85464  27.967  25.840  14.268
18924W        W85465  13.674  14.962  14.265
18925W        W85466  37.925  35.852   0.886
18926W        W85467  17.110  21.994  11.695
18927W        W85468   4.801  21.496   1.753
18928W        W85469   9.690   6.170   4.260
18929W        W85470  22.165  21.310  13.605
18930W        W85471  22.675  21.085  10.666
18931W        W85472  22.555  30.000  12.915
18932W        W85473  37.921   9.570   2.770
18933W        W85474  22.572  14.342   2.698
18934W        W85475  34.308  22.663   0.846
18935W        W85476  26.887  17.051  14.711
18936W        W85477  35.451   1.711   4.843
18937W        W85478  33.097   3.122   2.303
18938W        W85479  29.027  36.668   4.495
18939W        W85480  27.979  22.527   0.466
18940W        W85481  34.357  27.964  10.576
18941W        W85482  29.557  39.044  13.608
18942W        W85483  39.241  26.766   1.768
18943W        W85484  26.548  42.806   2.208
18944W        W85485  17.010  37.853  13.427
18945W        W85486   3.996  16.652  14.968
18946W        W85487   9.824  31.064   0.940
18947W        W85488  11.367  37.297   2.741
18948W        W85489  24.507  29.521  11.378
18949W        W85490  40.105  44.007  13.943
18950W        W85491  21.545  34.660   3.132
18951W        W85492  42.044  20.086  13.890
18952W        W85493  43.227  28.706  14.332
18953W        W85494  10.617   9.753  12.015
18954W        W85495  44.043   5.786  13.802
18955W        W85496  43.981  25.147   1.451
18956W        W85497  34.143  21.232   0.980
18957W        W85498  25.505  39.828   3.474
18958W        W85499  24.762   4.328  10.237
18959W        W85500  31.302  42.109   4.307
18960W        W85501  36.487  40.342  12.938
18961W        W85502  30.040  31.921  10.959
18962W        W85503  17.099  20.429  12.546
18963W        W85504  13.259  25.667  14.460
18964W        W85505   6.817  34.329   0.567
18965W        W85506  29.115  29.344   2.015
18966W        W85507   1.443  33.101  12.380
18967W        W85508   4.424  29.072   0.299
18968W        W85509  28.926  19.669  11.145
18969W        W85510  28.419   9.214   0.098
18970W        W85511  31.381  13.235  14.828
18971W        W85512  16.235  43.471  14.281
18972W        W85513  41.572  22.440   0.036
18973W        W85514  40.819   0.244   2.303
18974W        W85515   3.223  21.025   2.368
18975W        W85516   6.234   9.974  11.545
18976W        W85517  29.957  25.811   1.771
18977W        W85518  37.025  12.494   2.752
18978W        W85519  36.942  12.497  10.703
18979W        W85520  27.974  30.862  14.812
18980W        W85521   5.809   7.833  12.044
18981W        W85522  40.690  17.739  10.161
18982W        W85523  38.913  18.728  14.747
18983W        W85524  10.258  18.792   1.191
18984W        W85525  37.264  22.083   0.788
18985W        W85526  24.027  36.623  12.977
18986W        W85527  27.270  14.799  10.162
18987W        W85528  10.187  32.620  13.743
18988W        W85529  31.119   6.696   0.902
18989W        W85530  40.066  34.710   2.766
18990W        W85531  30.928   6.916   3.470
18991W        W85532  29.308  10.427   2.778
18992W        W85533   9.770  42.922   1.136
18993W        W85534   9.792  19.016   4.339
18994W        W85535  30.088  38.883  11.146
18995W        W85536   6.179  16.623   4.700
18996W        W85537  42.554  34.591   1.172
18997W        W85538  19.369   4.799   1.828
18998W        W85539   7.162  26.048  10.524
18999W        W85540  28.493  36.998   2.355
19000W        W85541  33.136  38.943  13.183
19001W        W85542  21.430   5.448  11.699
19002W        W85543  40.866  38.558   4.429
19003W        W85544  40.120  32.933   2.311
19004W        W85545  38.864   7.455  13.919
19005W        W85546  22.269  11.264   4.299
19006W        W85547   6.684  29.265   3.190
19007W        W85548  12.927  44.805   0.411
19008W        W85549  20.220  32.842   1.873
19009W        W85550  40.075  38.142   3.189
19010W        W85551  21.555  29.683  14.074
19011W        W85552  27.617  23.595   1.934
19012W        W85553   5.171  22.273   3.268
19013W        W85554  12.591  32.199   2.694
19014W        W85555   3.211  12.892   4.729
19015W        W85556  15.141  17.658   1.924
19016W        W85557  41.330   5.297  10.643
19017W        W85558  27.198  27.562  12.930
19018W        W85559  32.609  11.322  12.583
19019W        W85560  16.624  25.086   2.683
19020W        W85561  40.621  44.663  14.558
19021W        W85562  35.389  13.530   3.586
19022W        W85563  29.452  13.656   3.853
19023W        W85564  40.931  38.160   0.364
19024W        W85565  19.223  39.444   1.692
19025W        W85566  31.650  31.894  12.509
19026W        W85567  30.346   8.407  12.525
19027W        W85568  28.058   5.623  11.471
19028W        W85569  28.741  17.140   1.092
19029W        W85570   3.959  20.616  14.805
19030W        W85571  33.602  38.045   4.108
19031W        W85572  31.095   7.407   3.373
19032W        W85573  38.515  21.269  14.790
19033W        W85574  38.110  19.144   0.383
19034W        W85575  10.379  20.167   4.518
19035W        W85576  32.538  36.546  12.907
19036W        W85577   1.650  10.167  10.701
19037W        W85578  22.276  17.857  13.507
19038W        W85579  43.688   1.310  10.487
19039W        W85580  10.291  38.230   3.572
19040W        W85581  14.614  42.276  11.953
19041W        W85582   5.216  28.073  10.714
19042W        W85583  37.580  21.095  13.858
19043W        W85584  34.997  31.742  11.619
19044W        W85585  20.602  43.458  12.392
19045W        W85586  24.492  33.170   4.325
19046W        W85587   1.164  39.755   1.457
19047W        W85588  39.418   1.504  13.495
19048W        W85589  18.221  31.704  13.106
19049W        W85590  42.870  44.585  12.871
19050W        W85591  37.839  22.291  13.369
19051W        W85592   6.724  33.403   4.720
19052W        W85593  30.045  22.682   2.611
19053W        W85594  37.927  32.188  14.935
19054W        W85595  12.336  39.423   3.171
19055W        W85596  34.069  17.333  13.387
19056W        W85597  41.361  21.647  11.835
19057W        W85598  15.518  30.188   4.326
19058W        W85599   1.559  27.363  11.455
19059W        W85600  38.770  33.388  10.596
19060W        W85601  39.212   4.419  14.307
19061W        W85602   3.151  44.867   5.406
19062W        W85603  13.140  21.296   1.145
19063W        W85604   9.068   7.751   0.459
19064W        W85605  16.859  23.714  10.979
19065W        W85606  25.499  20.950   4.782
19066W        W85607  14.818  26.087  10.893
19067W        W85608  25.324  28.985   1.060
19068W        W85609  44.008  43.539  10.774
19069W        W85610  19.064  14.796  11.164
19070W        W85611  22.608   4.641   0.203
19071W        W85612  12.451  30.862   9.823
19072W        W85613  42.953  31.437   1.841
19073W        W85614  42.979   8.308  11.624
19074W        W85615   4.209  17.674   2.745
19075W        W85616  30.355   3.854   3.728
19076W        W85617  20.602  18.519  11.877
19077W        W85618  37.572  34.816   0.477
19078W        W85619  42.941  26.202   3.252
19079W        W85620   7.326  37.439   1.753
19080W        W85621   0.031  33.463   4.025
19081W        W85622  36.990  11.472  10.627
19082W        W85623   6.282   1.040   0.821
19083W        W85624   4.491  14.571  12.439
19084W        W85625  34.296   0.532   3.199
19085W        W85626  38.348  23.538   0.449
19086W        W85627  13.280  19.762   0.214
19087W        W85628   7.773  16.011   4.271
19088W        W85629  37.545  15.226  10.198
19089W        W85630  30.160  31.166  12.074
19090W        W85631  22.354   2.486   0.958
19091W        W85632  38.283  15.233   2.672
19092W        W85633  20.981  39.066   4.599
19093W        W85634  38.390  36.995  13.347
19094W        W85635  38.497   5.764  12.401
19095W        W85636  33.345  17.093   1.748
19096W        W85637   5.689  41.866   4.544
19097W        W85638  37.512  21.689   0.323
19098W        W85639  11.862  35.864  13.012
19099W        W85640  40.859  35.338  13.211
19100W        W85641   3.126  44.994   4.041
19101W        W85642  20.249  33.913  12.325
19102W        W85643  34.566  14.215  14.090
19103W        W85644  11.525  13.765   4.286
19104W        W85645  29.649  38.820  10.786
19105W        W85646  27.886  34.831  11.435
19106W        W85647  40.502   6.490   3.266
19107W        W85648  41.760  26.644   0.207
19108W        W85649  37.595  32.184   0.359
19109W        W85650  18.272  32.047  10.915
19110W        W85651  37.111   4.166  10.772
19111W        W85652  32.385  22.121  12.138
19112W        W85653   8.242   6.354  14.896
19113W        W85654  18.183   5.761   4.151
19114W        W85655   1.897   0.747   1.409
19115W        W85656  42.050   9.744  11.243
19116W        W85657  42.362   2.982   0.031
19117W        W85658  16.245  28.408   1.521
19118W        W85659  32.566   5.445  13.130
19119W        W85660  20.241  43.603  13.030
19120W        W85661  10.535  21.203  12.612
19121W        W85662  44.303  31.816   4.568
19122W        W85663  27.016  33.734  11.909
19123W        W85664  20.701  17.252  11.613
19124W        W85665  34.926   1.727  13.440
19125W        W85666   2.363  26.553   3.240
19126W        W85667  10.896  38.035   3.565
19127W        W85668  44.924  28.118   2.324
19128W        W85669  28.597   2.393  12.763
19129W        W85670  27.937  34.361   3.195
19130W        W85671  30.475  15.773   0.030
19131W        W85672  34.950  10.052  11.660
19132W        W85673  43.453  27.296  14.457
19133W        W85674  41.368  15.130   1.656
19134W        W85675  13.910   9.474  11.801
19135W        W85676  25.855  42.734   3.661
19136W        W85677  34.884   1.001   1.912
19137W        W85678  26.593  44.065   0.003
19138W        W85679   1.341  22.675  13.240
19139W        W85680  14.081  14.319   4.316
19140W        W85681  37.623  40.285   3.772
19141W        W85682   4.646   5.407   3.695
19142W        W85683  18.179  22.815   3.003
19143W        W85684  38.390  27.355   0.529
19144W        W85685   2.033  31.020  12.911
19145W        W85686   6.389  44.479  12.491
19146W        W85687  40.370  42.913   5.180
19147W        W85688   3.630  29.854   0.966
19148W        W85689  32.631   9.398   4.354
19149W        W85690  28.217  21.000   1.865
19150W        W85691  24.493  23.178   1.384
19151W        W85692  28.492  20.118  12.539
19152W        W85693   7.043  16.294  10.440
19153W        W85694  32.258   9.216  13.753
19154W        W85695  43.416  35.515   2.821
19155W        W85696  29.045  29.039   0.709
19156W        W85697  22.789  20.678  11.471
19157W        W85698  13.827   7.704  13.957
19158W        W85699  33.966  14.089   3.808
19159W        W85700  12.820   4.201  14.898
19160W        W85701   5.808  43.172  12.402
19161W        W85702  28.031  42.832   3.505
19162W        W85703  15.264  10.957   4.507
19163W        W85704  25.464  33.871   3.194
19164W        W85705  43.424   6.349   3.519
19165W        W85706  37.379   2.998  11.982
19166W        W85707   3.861   6.357  10.940
19167W        W85708   2.187  29.726   0.205
19168W        W85709  19.991  19.394  13.505
19169W        W85710  28.569   4.807   2.549
19170W        W85711  18.710  41.763   4.501
19171W        W85712  42.493  41.059  14.522
19172W        W85713  22.245  29.463  12.370
19173W        W85714  36.379  43.537   2.219
19174W        W85715  41.977  30.905   2.800
19175W        W85716  35.038  27.162   4.446
19176W        W85717  10.136  19.559   2.829
19177W        W85718   6.930  33.920   3.622
19178W        W85719  42.358  12.603  14.857
19179W        W85720   5.437  12.716   1.480
19180W        W85721  23.194   2.653   0.908
19181W        W85722   4.179   7.800  13.113
19182W        W85723  35.589  43.428   2.670
19183W        W85724  10.291  20.569   2.857
19184W        W85725  25.238  14.930  11.136
19185W        W85726  22.147   7.292  10.587
19186W        W85727  39.395  10.360   4.592
19187W        W85728  19.653  23.182   4.396
19188W        W85729  28.150  19.621  13.311
19189W        W85730  21.716   4.006   2.867
19190W        W85731  27.991  16.286   1.482
19191W        W85732   1.316  30.602   3.731
19192W        W85733   1.493  34.339   1.889
19193W        W85734  37.365  27.168   0.501
19194W        W85735   0.376  44.840  13.768
19195W        W85736  28.102  41.901   3.655
19196W        W85737   4.904  23.517  10.528
19197W        W85738  20.930  27.883   4.148
19198W        W85739  30.443   9.180   1.306
19199W        W85740   1.818  33.413  10.685
19200W        W85741  34.571   8.511   0.929
19201W        W85742  30.977  10.186   5.158
19202W        W85743  23.138  38.568   0.680
19203W        W85744  27.379   1.057   1.208
19204W        W85745  16.433  14.639   9.768
19205W        W85746  44.903   9.097   4.188
19206W        W85747  28.258  33.442  10.282
19207W        W85748  19.125  42.297   2.758
19208W        W85749   6.814   4.751   3.334
19209W        W85750   7.269  37.057   9.850
19210W        W85751   1.510  40.557   3.002
19211W        W85752  14.621   6.150   4.241
19212W        W85753   0.105  39.953   5.178
19213W        W85754  17.511  17.316  12.604
19214W        W85755  10.956   7.420   3.789
19215W        W85756   9.547  38.693   3.172
19216W        W85757  39.538  31.851  12.455
19217W        W85758  30.368   2.028  11.104
19218W        W85759  19.182  23.208  13.976
19219W        W85760   6.226   9.718   4.318
19220W        W85761  33.486  21.048   0.679
19221W        W85762   2.417  36.497   1.232
19222W        W85763   1.336   2.926  10.959
19223W        W85764  29.213  20.638  12.513
19224W        W85765  38.996  38.603   2.271
19225W        W85766  24.287  42.034  11.944
19226W        W85767  43.387  35.548   1.047
19227W        W85768  14.730  28.163  13.754
19228W        W85769  44.556   3.727  10.172
19229W        W85770  40.025  37.321  11.753
19230W        W85771   2.045  23.184  11.198
19231W        W85772  26.925  42.070  11.570
19232W        W85773  38.009  13.926  12.274
19233W        W85774  18.291  37.263   2.815
19234W        W85775  14.302  20.310  14.519
19235W        W85776  40.028   1.359   1.829
19236W        W85777  12.627  30.994  11.128
19237W        W85778  12.706  22.821   0.298
19238W        W85779  43.468  30.135  14.890
19239W        W85780  29.830  30.542  12.586
19240W        W85781   0.994  18.610   4.183
19241W        W85782  11.359   5.427  13.030
19242W        W85783  43.998  35.974  13.318
19243W        W85784  37.993   1.905  12.583
19244W        W85785  17.823  26.510  10.667
19245W        W85786  22.507  41.206   4.611
19246W        W85787   2.941  11.621   5.086
19247W        W85788  41.322  26.184  13.782
19248W        W85789  23.179  18.081   2.854
19249W        W85790  37.248  19.514   3.802
19250W        W85791  10.635  29.257  11.013
19251W        W85792  25.756  33.405   0.352
19252W        W85793  42.345  38.438  11.528
19253W        W85794  11.350   7.318   0.081
19254W        W85795  40.963   7.391   0.704
19255W        W85796   7.733  25.272   3.020
19256W        W85797   5.246  10.275   1.836
19257W        W85798  12.933  34.175  12.960
19258W        W85799  23.484  13.268   4.668
19259W        W85800  26.997   0.004  10.963
19260W        W85801  21.299  38.108  11.631
19261W        W85802  13.151  14.882  14.452
19262W        W85803  32.956  39.308   4.134
19263W        W85804  37.998   0.887  13.469
19264W        W85805  44.323  27.519   3.919
19265W        W85806  14.118  18.500  11.219
19266W        W85807  26.328  22.000  11.185
19267W        W85808  22.646  14.689   0.277
19268W        W85809   3.410  22.665  10.318
19269W        W85810  43.952  30.581  11.493
19270W        W85811  20.743  30.902   4.234
19271W        W85812  11.144  30.265   1.936
19272W        W85813  23.004   3.201   2.809
19273W        W85814  39.427  13.702  12.570
19274W        W85815  34.608  25.989  12.815
19275W        W85816  12.387  35.688  12.060
19276W        W85817  30.082  22.988  12.437
19277W        W85818  39.450   7.290   4.622
19278W        W85819   0.595  40.287   0.741
19279W        W85820   3.682  31.043   9.874
19280W        W85821  26.313  11.337  13.562
19281W        W85822  34.438  15.200   1.358
19282W        W85823   2.135  26.214  10.580
19283W        W85824  36.893  18.338   2.584
19284W        W85825  18.346   5.623   2.177
19285W        W85826  21.707   0.508   2.318
19286W        W85827  29.376   3.407   2.736
19287W        W85828   8.800  42.974   0.222
19288W        W85829  38.162  36.260  12.096
19289W        W85830  40.551  11.755   4.938
19290W        W85831  22.788  33.390   3.717
19291W        W85832  29.366  26.007   2.887
19292W        W85833  36.506  28.835   4.669
19293W        W85834  19.527  33.710  10.912
19294W        W85835  13.703  12.150   2.734
19295W        W85836  20.454  22.347   1.908
19296W        W85837  11.502  12.276  13.986
19297W        W85838  12.969  19.314   3.933
19298W        W85839  22.550   3.820   4.098
19299W        W85840  12.848  28.116  13.909
19300W        W85841  10.316  15.770   0.807
19301W        W85842   8.052  16.003  11.259
19302W        W85843   3.351  22.911  14.208
19303W        W85844  18.202  21.541  11.244
19304W        W85845  40.194   0.895   4.032
19305W        W85846  44.103  31.771   5.059
19306W        W85847  11.757  33.335   5.036
19307W        W85848  36.947  43.461   4.756
19308W        W85849  44.824  27.469   2.910
19309W        W85850  40.757  29.635   4.156
19310W        W85851  43.130  10.542  12.193
19311W        W85852  30.292  21.610  12.348
19312W        W85853  11.993  16.826  14.385
19313W        W85854  37.905  33.102  12.983
19314W        W85855  34.018  21.178  13.081
19315W        W85856  21.775  43.897   2.861
19316W        W85857  37.867  14.585  14.384
19317W        W85858  24.730   9.843   3.539
19318W        W85859   9.686  31.517   4.443
19319W        W85860  16.650  10.495   1.305
19320W        W85861   8.586  38.300   3.360
19321W        W85862   4.319  27.755   3.609
19322W        W85863  26.437  19.260  11.656
19323W        W85864   0.833  21.954   3.906
19324W        W85865  13.234  21.702   3.486
19325W        W85866  18.684  35.360   0.194
19326W        W85867  11.624  41.559   3.639
19327W        W85868   5.927  31.734   4.545
19328W        W85869  10.955   3.082   2.895
19329W        W85870  35.670  16.647  10.854
19330W        W85871   6.709  26.203   2.433
19331W        W85872   7.735   0.834  14.658
19332W        W85873  18.522  32.821  11.941
19333W        W85874  35.459  20.435  11.053
19334W        W85875  35.423  37.856  12.895
19335W        W85876  41.459  36.795   1.726
19336W        W85877  33.095   3.842   0.685
19337W        W85878  23.143  30.410   4.167
19338W        W85879  38.802   9.108   2.612
19339W        W85880  19.622  18.634  10.312
19340W        W85881  40.840   1.767   4.067
19341W        W85882  20.627  42.308   2.249
19342W        W85883  10.094   7.390   0.709
19343W        W85884   4.487  16.776   2.206
19344W        W85885  39.979  30.911  12.453
19345W        W85886  25.991  44.499  12.564
19346W        W85887   5.449   7.919  13.939
19347W        W85888  32.907   0.286   0.805
19348W        W85889   9.252  44.489   0.375
19349W        W85890  42.741  12.195  12.053
19350W        W85891   4.736  19.178   4.880
19351W        W85892   1.920  33.218   9.843
19352W        W85893   5.373  35.149  12.026
19353W        W85894  13.873  32.963  12.510
19354W        W85895  13.404  34.780   2.374
19355W        W85896  31.584  12.735   1.886
19356W        W85897  27.057  24.582   3.301
19357W        W85898   4.027  10.330   4.579
19358W        W85899  16.133  14.401   1.804
19359W        W85900  20.957  23.934  10.780
19360W        W85901   4.284  19.100   4.627
19361W        W85902  38.773  29.507  11.220
19362W        W85903  25.103  33.643   4.057
19363W        W85904   5.168  41.011  11.482
19364W        W85905  44.897  25.208  10.744
19365W        W85906  44.788   0.999   0.747
19366W        W85907  18.228  10.321   1.901
19367W        W85908  11.397   8.150   0.454
19368W        W85909  21.701  43.957   4.667
19369W        W85910  14.151  24.560   0.439
19370W        W85911  10.705  19.060  13.076
19371W        W85912  10.183  22.085   1.366
19372W        W85913   5.826   5.303   0.503
19373W        W85914  34.945  21.526   3.584
19374W        W85915   9.077  40.285  12.157
19375W        W85916  21.595   6.135   2.211
19376W        W85917   8.263   6.275  11.565
19377W        W85918   6.845  23.693  12.513
19378W        W85919  35.829   5.648   2.868
19379W        W85920  29.119   6.674   3.896
19380W        W85921  43.063  27.070  11.935
19381W        W85922  16.637   9.950   2.326
19382W        W85923  38.986  28.328  14.909
19383W        W85924  25.511  18.130  13.085
19384W        W85925   5.586  20.483  12.092
19385W        W85926  15.768   3.874   4.058
19386W        W85927   8.291  27.615  11.170
19387W        W85928   1.262  28.594   3.991
19388W        W85929  42.064  33.423   4.101
19389W        W85930  21.799  18.359  11.954
19390W        W85931  44.927  25.799  11.736
19391W        W85932  41.116   1.660   4.498
19392W        W85933  31.598   9.311   0.484
19393W        W85934  23.716  37.768   0.355
19394W        W85935   9.576  26.529  13.543
19395W        W85936  15.467  21.705   3.635
19396W        W85937  23.292  37.613  11.019
19397W        W85938  41.944  28.036   0.795
19398W        W85939  23.727  34.465   0.258
19399W        W85940   7.472  39.559  12.993
19400W        W85941  25.657   5.383  13.785
19401W        W85942  16.343  17.794   4.941
19402W        W85943   3.329  20.406   4.670
19403W        W85944  43.443  15.784   3.387
19404W        W85945   5.411  31.649   4.303
19405W        W85946  14.525  24.048  13.314
19406W        W85947  17.678  24.591  10.708
19407W        W85948  14.693  21.793   4.110
19408W        W85949  25.516  12.176   3.294
19409W        W85950   8.756  26.686  11.094
19410W        W85951  17.958   2.754   4.639
19411W        W85952   5.398   1.152  12.581
19412W        W85953  22.218  30.159  11.664
19413W        W85954  29.892  34.213   3.477
19414W        W85955  20.111  23.077  11.461
19415W        W85956   5.507  43.326   3.985
19416W        W85957  34.897  11.696   0.937
19417W        W85958  30.499  23.767   2.352
19418W        W85959  26.101  31.856  14.334
19419W        W85960  24.752  17.282   2.221
19420W        W85961  39.784   4.767  11.992
19421W        W85962  32.666  19.036  11.616
19422W        W85963   3.710  32.637  14.516
19423W        W85964   3.504  15.239  13.382
19424W        W85965  16.329  10.639   0.480
19425W        W85966  24.983  13.564   0.104
19426W        W85967  38.085  42.063  11.076
19427W        W85968  28.805  22.421   4.128
19428W        W85969  35.596  42.735   4.384
19429W        W85970   3.299   4.315  12.440
19430W        W85971  37.326  26.606  11.605
19431W        W85972  13.765   2.287   4.577
19432W        W85973  43.555  39.866  13.285
19433W        W85974  17.140  32.701  13.176
19434W        W85975  16.654  30.371   3.947
19435W        W85976  29.642  22.488   2.885
19436W        W85977  17.757  26.533  11.550
19437W        W85978   5.966  14.151   2.238
19438W        W85979  36.903  32.273   1.679
19439W        W85980  13.890  13.394  12.591
19440W        W85981  38.601   9.317  11.111
19441W        W85982  26.801  28.961  12.995
19442W        W85983  43.866  19.106  10.903
19443W        W85984  36.805   9.611  14.159
19444W        W85985   3.112  37.541   4.769
19445W        W85986  22.617  26.977   0.290
19446W        W85987  21.140  32.908  14.387
19447W        W85988   2.332  19.702   0.026
19448W        W85989  12.641  29.233   1.238
19449W        W85990  39.009  37.965  12.610
19450W        W85991  24.100  24.673  13.395
19451W        W85992  26.123  26.700   4.818
19452W        W85993  38.513  29.902  12.397
19453W        W85994  44.190  28.636  14.007
19454W        W85995  37.208  41.197   1.900
19455W        W85996  41.435  28.886  12.979
19456W        W85997   4.699  23.814   3.594
19457W        W85998  14.682  16.605   3.272
19458W        W85999   7.454  12.761  10.713
19459W        W86000  29.921  25.066   4.028
19460W        W86001   9.679  31.457  12.550
19461W        W86002  43.808  25.502  12.840
19462W        W86003  34.871   4.216  14.527
19463W        W86004  37.056   6.212   3.836
19464W        W86005  43.585  34.476  12.546
19465W        W86006  20.176  15.326   3.675
19466W        W86007   1.868  40.317  12.844
19467W        W86008  40.011  42.286  10.766
19468W        W86009  30.395  11.279  12.417
19469W        W86010   8.734   7.102  13.050
19470W        W86011  30.582  32.502  10.663
19471W        W86012  31.683  10.321   0.403
19472W        W86013  12.430  10.746  12.018
19473W        W86014  26.699  25.504   4.101
19474W        W86015  19.176  27.346   3.395
19475W        W86016  26.080   5.430  13.493
19476W        W86017   6.458  11.643  12.971
19477W        W86018  36.581  13.175  10.454
19478W        W86019  30.576   8.103  13.861
19479W        W86020   8.972   8.411  11.048
19480W        W86021  29.958  35.620  12.959
19481W        W86022  27.958  42.821  14.459
19482W        W86023  18.977  41.753  12.624
19483W        W86024   1.041  41.969   1.656
19484W        W86025   4.980   9.688  10.100
19485W        W86026   4.777  39.518  14.264
19486W        W86027   0.380   1.716  14.233
19487W        W86028  13.862  37.002  10.922
19488W        W86029  21.158   8.525   1.399
19489W        W86030  14.823  18.140  13.984
19490W        W86031  15.852  30.617   0.770
19491W        W86032   2.320  43.429   2.519
19492W        W86033  23.052   9.745  13.829
19493W        W86034   5.211  43.424   2.143
19494W        W86035  15.692   9.336   2.247
19495W        W86036  18.291  27.506   2.965
19496W        W86037  11.169  34.885   3.672
19497W        W86038  11.167   3.197   4.378
19498W        W86039  43.540  42.991   0.487
19499W        W86040  41.793  33.361   4.537
19500W        W86041  29.019  39.272   1.386
19501W        W86042  15.421  12.741  14.290
19502W        W86043  33.650  34.136   2.411
19503W        W86044  14.533  21.997  13.872
19504W        W86045  36.010  17.210   2.313
19505W        W86046  37.343  18.147   4.139
19506W        W86047  21.710   1.791  14.900
19507W        W86048  42.736  23.449   0.368
19508W        W86049  18.809  18.740   2.381
19509W        W86050  44.407  15.713   0.779
19510W        W86051  44.428  20.726  14.635
19511W        W86052  24.768  38.931  14.256
19512W        W86053  37.918  32.095   3.564
19513W        W86054  25.072   9.336   0.742
19514W        W86055  12.660  32.152   3.717
19515W        W86056  21.093  23.274  12.932
19516W        W86057   1.737  20.754  12.212
19517W        W86058  41.224  26.110   2.440
19518W        W86059   1.871  26.746   3.211
19519W        W86060  29.687  33.621  13.285
19520W        W86061  37.375  15.790   0.396
19521W        W86062  38.413  18.171  14.449
19522W        W86063  19.809  21.079   3.622
19523W        W86064  18.776  28.744   1.867
19524W        W86065   0.361  28.130  11.615
19525W        W86066  35.777  44.287   1.377
19526W        W86067  15.327  23.533   0.603
19527W        W86068  38.300  41.332  10.810
19528W        W86069  14.188   5.980  13.897
19529W        W86070  20.511  10.221   1.487
19530W        W86071   4.970  25.490  11.215
19531W        W86072  31.520  28.223   2.205
19532W        W86073  15.237   6.774  11.949
19533W        W86074  11.582  42.210   2.276
19534W        W86075  31.612  28.059   3.083
19535W        W86076  27.935  14.986   2.120
19536W        W86077   6.231  23.239   1.774
19537W        W86078  37.570  33.826   0.495
19538W        W86079  24.927  34.008   0.919
19539W        W86080  29.052  26.491  13.472
19540W        W86081  43.829  44.494   1.083
19541W        W86082  42.079  17.253   1.907
19542W        W86083  18.054   2.330   4.343
19543W        W86084  40.621  28.407   2.691
19544W        W86085  27.021   2.737  10.675
19545W        W86086  30.678  21.613  14.011
19546W        W86087  37.426  24.746   2.668
19547W        W86088  18.202   5.491  11.947
19548W        W86089  38.019  16.310  14.817
19549W        W86090  31.541  34.963   2.712
19550W        W86091  21.775  16.221   0.140
19551W        W86092  43.187  21.037  11.700
19552W        W86093  17.032  25.886   1.853
19553W        W86094   5.105  23.116   2.248
19554W        W86095   1.970  22.146   4.450
19555W        W86096   3.825  23.137  14.259
19556W        W86097  42.373   9.779   3.455
19557W        W86098  33.033  17.185  12.859
19558W        W86099  30.686  38.089   0.703
19559W        W86100  38.613  43.821  12.046
19560W        W86101  32.719  18.548   2.251
19561W        W86102  11.673   5.574   4.081
19562W        W86103  37.692  10.945  10.777
19563W        W86104   3.169   0.279   0.724
19564W        W86105  24.174   4.611  11.379
19565W        W86106  33.850  19.216   4.277
19566W        W86107  40.808  39.341  13.827
19567W        W86108  22.048  31.585   4.620
19568W        W86109  15.693  27.547   0.298
19569W        W86110  24.509  33.085  11.174
19570W        W86111  42.835   6.343   4.227
19571W        W86112  34.587  19.677   4.131
19572W        W86113  10.387  41.030  14.472
19573W        W86114  23.010  23.701   4.221
19574W        W86115  26.416  17.072   3.611
19575W        W86116  34.963  11.433   4.836
19576W        W86117   6.444  34.874   2.253
19577W        W86118  19.220  44.040  14.502
19578W        W86119  37.927  43.001  12.497
19579W        W86120  38.098  38.295  10.712
19580W        W86121  24.242   3.962  12.118
19581W        W86122  12.314  23.431   2.772
19582W        W86123  41.066  37.837   2.254
19583W        W86124  28.011  19.003  11.925
19584W        W86125  11.886  43.313   2.334
19585W        W86126  10.401  16.741   2.257
19586W        W86127   3.944  26.408   2.400
19587W        W86128   0.733  15.723   2.267
19588W        W86129  15.120  22.122   0.845
19589W        W86130  21.644   7.723  14.281
19590W        W86131  28.734  37.524   4.727
19591W        W86132  15.488  34.336  11.099
19592W        W86133  23.028  17.045   3.788
19593W        W86134  36.443  38.613   2.357
19594W        W86135  29.920  20.097   4.378
19595W        W86136  10.243  26.130  12.486
19596W        W86137  40.766  20.119  13.836
19597W        W86138  24.507  10.900  12.996
19598W        W86139   0.720  26.429   2.061
19599W        W86140  39.011  18.069   1.839
19600W        W86141  39.666  16.055   3.038
19601W        W86142  43.951  44.025  10.558
19602W        W86143  33.969  20.829  14.879
19603W        W86144  15.091   4.259  11.989
19604W        W86145  23.010  28.094  11.486
19605W        W86146  23.060   9.597   1.363
19606W        W86147   7.222  21.081  10.916
19607W        W86148   8.667   1.938   4.577
19608W        W86149  39.282  39.498   2.917
19609W        W86150  38.527   9.701  14.929
19610W        W86151  26.004  39.816  12.989
19611W        W86152   9.720  21.075   3.644
19612W        W86153  12.323   3.747  13.893
19613W        W86154   5.446  37.952  10.801
19614W        W86155   6.896  43.479   2.632
19615W        W86156  36.314  17.415   0.278
19616W        W86157  40.408   7.231  12.492
19617W        W86158  42.896  24.763  10.665
19618W        W86159  24.679  41.539  14.300
19619W        W86160  42.418  14.644  12.946
19620W        W86161  12.857  41.381   3.600
19621W        W86162  43.477  27.649  10.689
19622W        W86163  17.500  35.587   2.772
19623W        W86164   5.364  18.212  14.503
19624W        W86165   2.742  43.416  13.258
19625W        W86166  19.128  21.993  14.612
19626W        W86167  19.708  16.834   0.516
19627W        W86168  17.198   2.847   3.845
19628W        W86169  36.840   6.504   1.720
19629W        W86170  17.611   4.992  12.541
19630W        W86171  16.322  27.661   3.774
19631W        W86172   1.487  16.395  10.682
19632W        W86173  42.552  41.506  14.807
19633W        W86174   5.967  10.215   2.301
19634W        W86175  28.173  15.159   1.098
19635W        W86176   4.219  32.616  14.453
19636W        W86177  42.799  29.644   3.262
19637W        W86178   7.895  13.382   4.142
19638W        W86179   2.698  24.963  13.493
19639W        W86180  18.124  19.643   0.565
19640W        W86181  39.015  11.796   1.241
19641W        W86182  19.237  14.267   0.135
19642W        W86183  27.747  22.990  12.536
19643W        W86184  22.778  38.094   2.118
19644W        W86185  17.040   0.379   3.874
19645W        W86186  37.756  36.278  11.278
19646W        W86187   7.246  22.586   4.626
19647W        W86188  10.950  30.033  13.454
19648W        W86189  16.151   1.823   5.083
19649W        W86190  13.065  40.044  10.507
19650W        W86191  30.776  28.988   0.756
19651W        W86192  41.214   3.192   0.934
19652W        W86193  31.949   4.231  11.670
19653W        W86194  40.954  18.154   0.487
19654W        W86195  26.078  39.017   3.228
19655W        W86196  20.712   4.200  10.700
19656W        W86197  20.845  38.014  13.108
19657W        W86198  27.830  11.229   4.037
19658W        W86199   7.626  30.980   3.623
19659W        W86200  22.726  35.471   2.537
19660W        W86201   6.721   7.212  13.521
19661W        W86202  25.082  23.931  14.783
19662W        W86203  20.139  41.271   3.574
19663W        W86204  34.659   9.059  11.089
19664W        W86205  40.984  14.479  11.186
19665W        W86206   7.455  19.227   2.305
19666W        W86207  27.842  13.296  14.873
19667W        W86208  30.546  35.116  14.302
19668W        W86209  16.632  37.873  13.783
19669W        W86210  10.051  26.637  11.936
19670W        W86211  21.206  18.458   1.034
19671W        W86212  40.012  17.655  14.078
19672W        W86213  19.169   9.943   4.639
19673W        W86214  30.115   8.658   0.651
19674W        W86215  22.455  35.888  12.430
19675W        W86216  24.164  16.512  14.426
19676W        W86217   3.283   8.912   0.725
19677W        W86218  34.708  37.648  11.863
19678W        W86219  23.419  35.039  14.580
19679W        W86220  19.172  33.308   0.734
19680W        W86221  34.536  33.326  11.244
19681W        W86222  40.888  42.253  14.852
19682W        W86223  34.900  25.504  11.170
19683W        W86224  41.844  35.794   2.401
19684W        W86225   9.992   3.193   1.841
19685W        W86226  33.855  43.329   3.276
19686W        W86227  10.123   3.333   1.333
19687W        W86228   4.600  18.180  13.034
19688W        W86229   8.451  22.749   5.011
19689W        W86230   7.482  44.938   4.697
19690W        W86231  22.774  11.974  13.823
19691W        W86232  34.469   2.185   3.902
19692W        W86233  43.082   6.355  10.748
19693W        W86234  39.500  32.926  10.670
19694W        W86235   7.341  13.352   0.396
19695W        W86236  24.153   9.372   4.925
19696W        W86237   8.353  15.704   1.022
19697W        W86238  14.804   8.734  14.403
19698W        W86239  26.417  31.309   2.317
19699W        W86240   4.659  23.094  13.558
19700W        W86241  27.967  31.163   3.098
19701W        W86242  13.189  28.947  14.996
19702W        W86243  37.130  13.125  12.466
19703W        W86244  24.617  41.559  13.769
19704W        W86245  38.388  35.821  14.935
19705W        W86246   8.316  16.521  12.192
19706W        W86247  38.884  31.028   2.415
19707W        W86248  40.084  32.188   3.299
19708W        W86249  30.739  15.326  13.886
19709W        W86250   1.025  21.109   4.018
19710W        W86251  14.738  43.283  14.265
19711W        W86252  24.748  30.530  11.487
19712W        W86253  23.408  41.624   4.563
19713W        W86254  36.085  16.686  11.505
19714W        W86255   2.247  20.952  12.948
19715W        W86256  40.552  22.728  13.733
19716W        W86257   5.312  16.548  13.411
19717W        W86258  20.975  30.989   0.821
19718W        W86259  38.093  13.506  13.529
19719W        W86260   9.511  30.391   4.462
19720W        W86261  39.004  11.794   0.335
19721W        W86262  11.067  41.348   4.108
19722W        W86263  27.623  10.533   2.368
19723W        W86264  11.339  15.386   4.817
19724W        W86265  39.937  23.570  11.521
19725W        W86266   1.405  21.499  12.234
19726W        W86267  23.008  38.058   1.481
19727W        W86268   4.427  28.552   1.001
19728W        W86269  41.538  33.423   0.030
19729W        W86270  15.403   9.392  11.092
19730W        W86271  13.659   0.365   3.315
19731W        W86272  25.152  27.651  13.062
19732W        W86273  12.010   6.289   4.481
19733W        W86274  26.351  35.975  12.051
19734W        W86275  31.837   1.662  12.353
19735W        W86276  11.063   1.414   3.083
19736W        W86277   8.133   0.438  11.981
19737W        W86278   8.378   7.316   0.260
19738W        W86279  10.785   4.802  12.533
19739W        W86280   6.666  22.696  10.795
19740W        W86281   8.294  17.681   4.572
19741W        W86282  15.348  38.132  11.496
19742W        W86283  24.103  44.111   1.278
19743W        W86284  24.144  25.297  11.716
19744W        W86285  11.032  25.481   0.105
19745W        W86286  27.611  18.012  14.445
19746W        W86287  36.546  24.198  14.449
19747W        W86288  15.823  17.620  11.903
19748W        W86289   6.882  10.567   4.558
19749W        W86290  29.181  13.413  11.659
19750W        W86291  26.127   8.195   2.216
19751W        W86292   2.906  44.793  14.605
19752W        W86293  39.313  34.748  13.841
19753W        W86294  23.812  14.044   1.462
19754W        W86295  36.551  34.891   0.222
19755W        W86296  17.655   4.067   2.255
19756W        W86297  40.455  26.723  11.997
19757W        W86298  27.203  15.556  13.500
19758W        W86299  36.053  12.276   2.688
19759W        W86300  34.047  14.410  13.304
19760W        W86301   6.034  35.622  12.449
19761W        W86302  32.973  37.647   2.884
19762W        W86303   0.705  13.336   4.102
19763W        W86304  29.393  12.592  13.295
19764W        W86305   3.681  19.697   1.743
19765W        W86306  30.591   6.950   2.617
19766W        W86307  30.470  18.408   0.036
19767W        W86308  40.350  40.587   0.487
19768W        W86309  33.398  41.506  12.515
19769W        W86310  34.154  26.451   1.127
19770W        W86311  44.822  28.590   1.422
19771W        W86312  27.926  31.150   1.728
19772W        W86313  19.433   0.004  12.658
19773W        W86314  31.214   9.830  11.594
19774W        W86315  10.931   2.891   3.409
19775W        W86316  13.191  28.678   3.615
19776W        W86317  24.582  28.072   0.303
19777W        W86318   2.938  15.254   2.559
19778W        W86319  23.099  18.799   4.561
19779W        W86320   9.896   4.646   1.734
19780W        W86321   9.287  10.864   3.295
19781W        W86322  18.182  20.225   3.553
19782W        W86323  22.516  28.408  10.701
19783W        W86324  25.476   7.856   1.554
19784W        W86325  13.711  31.496   0.703
19785W        W86326  17.727   4.165  10.829
19786W        W86327  41.354  35.349  14.862
19787W        W86328  33.364  10.880  10.621
19788W        W86329  12.749  37.642   0.051
19789W        W86330   8.331  28.273  13.728
19790W        W86331  11.551  26.583  10.739
19791W        W86332  26.195   9.662   4.680
19792W        W86333  22.157  18.325  13.315
19793W        W86334  29.287  35.720   3.074
19794W        W86335  39.291  15.651  13.530
19795W        W86336  33.461   1.694   3.001
19796W        W86337   4.145   1.630  14.554
19797W        W86338  37.295  31.377  11.984
19798W        W86339   1.317   4.386  12.563
19799W        W86340  44.323  28.583   3.662
19800W        W86341  22.153  35.151  12.886
19801W        W86342  22.554   6.227  12.988
19802W        W86343  44.788  16.039   3.401
19803W        W86344   7.107  10.344   1.721
19804W        W86345  17.528  19.990  14.276
19805W        W86346  39.974  38.269   1.231
19806W        W86347   1.736  44.061  14.879
19807W        W86348  24.239  23.520   1.701
19808W        W86349   9.354  31.018  11.714
19809W        W86350  25.540  22.501   0.949
19810W        W86351   3.914  14.721  14.464
19811W        W86352  24.244  42.625  13.638
19812W        W86353  35.148  40.555   0.701
19813W        W86354   4.842  20.831  12.137
19814W        W86355  29.347  15.183  11.380
19815W        W86356  11.813   7.896   4.539
19816W        W86357  14.165  41.288  14.300
19817W        W86358  44.812  14.574   0.049
19818W        W86359   1.187  27.382  12.330
19819W        W86360  42.699  16.122   1.748
19820W        W86361  43.526  14.220  11.247
19821W        W86362  11.145  40.830  13.053
19822W        W86363   6.813   1.955  12.954
19823W        W86364  43.722  43.814   0.881
19824W        W86365  38.425   7.196  13.934
19825W        W86366  21.718  29.097   2.320
19826W        W86367   3.659   6.728   0.855
19827W        W86368  34.495   1.432  13.381
19828W        W86369   2.284  27.471  12.097
19829W        W86370  38.504  23.489  12.068
19830W        W86371  10.643  29.547   4.578
19831W        W86372   9.398  31.309   2.004
19832W        W86373  15.753   1.057  12.036
19833W        W86374  13.295  36.246  10.793
19834W        W86375  43.701   9.395   0.948
19835W        W86376  21.033   5.429   2.395
19836W        W86377  44.386   4.988   4.673
19837W        W86378  37.942  22.427   0.428
19838W        W86379  30.644  39.492  10.755
19839W        W86380   8.688  14.540   4.503
19840W        W86381  39.739  12.750   5.355
19841W        W86382  27.654  17.002  12.353
19842W        W86383  39.372  15.775   3.913
19843W        W86384  40.837  21.646  10.587
19844W        W86385  25.672  19.707   4.521
19845W        W86386   6.894  39.865   2.775
19846W        W86387  37.417  40.520   0.431
19847W        W86388   3.893  10.215  14.174
19848W        W86389  18.212  42.972   5.054
19849W        W86390  17.682  13.488   2.176
19850W        W86391  12.222  27.408   0.628
19851W        W86392  44.263  20.690  13.634
19852W        W86393   3.325  18.877   4.639
19853W        W86394  27.055  32.524   2.013
19854W        W86395   3.533  29.470  10.816
19855W        W86396   1.463  12.349   1.249
19856W        W86397  28.924   8.039  11.706
19857W        W86398  13.235  26.275  13.810
19858W        W86399  43.951  27.483   1.693
19859W        W86400  32.629  44.007  14.304
19860W        W86401   1.793  27.181   1.787
19861W        W86402  22.655  35.021  11.987
19862W        W86403  43.665   7.008   4.254
19863W        W86404  38.401  44.377   3.731
19864W        W86405  16.826  39.956   2.494
19865W        W86406  23.048   4.459   9.753
19866W        W86407  39.611   7.873   2.779
19867W        W86408   9.007  19.591  12.694
19868W        W86409  37.845  18.173   4.151
19869W        W86410  24.680  35.437   2.246
19870W        W86411  15.925  37.862   2.862
19871W        W86412  33.317  44.974  13.148
19872W        W86413  20.202  26.524   3.648
19873W        W86414  32.577   1.095   3.123
19874W        W86415  28.919   6.423  14.035
19875W        W86416  12.032   2.460  11.958
19876W        W86417   8.375  29.459  14.271
19877W        W86418  29.724  20.498   3.667
19878W        W86419  39.832   3.017   2.236
19879W        W86420  18.582   4.768   5.066
19880W        W86421  38.665  44.370  13.224
19881W        W86422  32.994  18.058  13.781
19882W        W86423  22.014  15.320  13.791
19883W        W86424  21.266  28.175  10.428
19884W        W86425  37.900  20.401  14.875
19885W        W86426  12.728  32.570   1.711
19886W        W86427  27.675  31.609   3.780
19887W        W86428  11.999  14.817   0.247
19888W        W86429  42.358   6.684  11.354
19889W        W86430  40.070  39.894   4.612
19890W        W86431  15.634  37.158   0.321
19891W        W86432  18.950  41.786   0.281
19892W        W86433   4.348  39.968   4.576
19893W        W86434  13.682  30.421  14.298
19894W        W86435  18.926  22.052   1.483
19895W        W86436  41.592   3.719   3.937
19896W        W86437  15.023  23.540  10.521
19897W        W86438  23.103  39.415   3.191
19898W        W86439  28.452   7.908  13.012
19899W        W86440  41.361  34.865  14.538
19900W        W86441  33.491   9.879  10.834
19901W        W86442  42.852   0.546  13.687
19902W        W86443  32.437  39.358   1.796
19903W        W86444  16.471  39.910  10.699
19904W        W86445  29.098   6.256   0.339
19905W        W86446   7.267  37.523   2.709
19906W        W86447  40.282  23.260   4.141
19907W        W86448  40.099  13.275  13.520
19908W        W86449  26.684  19.693   2.836
19909W        W86450  30.728  44.746  14.223
19910W        W86451  31.103  27.579  12.776
19911W        W86452  35.960  16.040   0.537
19912W        W86453  31.789   0.974   2.936
19913W        W86454  36.049  10.312   4.062
19914W        W86455  30.069  42.942  14.362
19915W        W86456  22.532  21.032   4.316
19916W        W86457  34.834  23.506   1.803
19917W        W86458  13.268  18.615   4.078
19918W        W86459  14.215  19.651   4.156
19919W        W86460  25.292  21.103   1.099
19920W        W86461  42.311   9.300  11.157
19921W        W86462  40.487  29.476   3.013
19922W        W86463  23.494  37.489  11.574
19923W        W86464  39.305   4.878   4.501
19924W        W86465  19.718  43.822   0.710
19925W        W86466  13.821  11.789  11.707
19926W        W86467  38.656  10.918   0.401
19927W        W86468  32.658   3.887   0.955
19928W        W86469  43.491  10.747   3.848
19929W        W86470  21.158  19.216  11.656
19930W        W86471  42.762   6.165  13.274
19931W        W86472  10.315  42.984  10.041
19932W        W86473  10.437   3.868   1.211
19933W        W86474  34.660   5.250   3.225
19934W        W86475  11.565   2.722  11.596
19935W        W86476   4.706  44.815  13.389
19936W        W86477  33.692  27.913  12.383
19937W        W86478  12.907  39.842   1.836
19938W        W86479  36.072  33.088  11.710
19939W        W86480  29.619  26.621   5.163
19940W        W86481  37.795  22.916   0.442
19941W        W86482   4.929  36.862  13.399
19942W        W86483  33.879  32.809   2.367
19943W        W86484   3.863   7.467  11.588
19944W        W86485  32.855  19.681   1.969
19945W        W86486  23.153   3.163   0.858
19946W        W86487  41.044  37.010   3.750
19947W        W86488  36.797  18.171  13.917
19948W        W86489  35.065  44.313  14.588
19949W        W86490   6.160  39.964  14.541
19950W        W86491  27.937  14.646   1.683
19951W        W86492  44.859   4.026   2.696
19952W        W86493  19.626  43.584  13.652
19953W        W86494  33.054  14.156  14.231
19954W        W86495  44.285  25.025   3.701
19955W        W86496  27.314   8.790  10.737
19956W        W86497  25.656  26.536   4.464
19957W        W86498  10.939   3.711  12.607
19958W        W86499   7.715  37.054  10.117
19959W        W86500   1.609  34.020   9.945
19960W        W86501  31.468  38.284  13.964
19961W        W86502   1.472  33.668   2.190
19962W        W86503   0.547  18.645  10.785
19963W        W86504  20.620   4.693   4.057
19964W        W86505  18.773   8.707   2.120
19965W        W86506  38.255  20.008  14.919
19966W        W86507  18.098   2.791  12.992
19967W        W86508   6.280  15.492   4.899
19968W        W86509  33.353  36.703  11.542
19969W        W86510  13.731  26.266  14.802
19970W        W86511   4.046  15.548   1.403
19971W        W86512   7.954  15.668   5.133
19972W        W86513  30.930  22.754  12.041
19973W        W86514   6.495   8.460  11.503
19974W        W86515  32.933  20.069  13.108
19975W        W86516  37.856  22.713  11.564
19976W        W86517  13.817  40.488   0.211
19977W        W86518  38.380  39.598   4.324
19978W        W86519   0.166   0.201   4.522
19979W        W86520   7.895  38.057  10.344
19980W        W86521  44.421  25.711   2.268
19981W        W86522  34.372   8.801   1.369
19982W        W86523  28.798  32.387   1.467
19983W        W86524   4.917  12.335  14.860
19984W        W86525  42.036  13.781  14.250
19985W        W86526   7.962   2.906   3.150
19986W        W86527  14.353  14.222   3.895
19987W        W86528  44.186  37.496   4.284
19988W        W86529  14.771  15.771   4.692
19989W        W86530  39.969  35.555  13.167
19990W        W86531  33.632  23.137   9.768
19991W        W86532  26.709  36.523  10.599
19992W        W86533  37.429  36.241  13.954
19993W        W86534   9.307  19.824   2.644
19994W        W86535  25.582   3.940  12.532
19995W        W86536  20.261  42.477   4.193
19996W        W86537  17.263  40.773   5.026
19997W        W86538  37.026   8.030   3.077
19998W        W86539   9.311   1.841   2.849
19999W        W86540  18.409   1.893   4.593
20000W        W86541  42.457  35.759  11.892
20001W        W86542  28.904  13.524  12.418
20002W        W86543  17.593  23.579   1.397
20003W        W86544   3.923  14.007   4.994
20004W        W86545   0.993   6.471  11.794
20005W        W86546   3.824   0.369   4.415
20006W        W86547  12.093  32.153   1.266
20007W        W86548   9.780  23.583   4.204
20008W        W86549  27.213  44.007   2.406
20009W        W86550  28.755  22.275  11.053
20010W        W86551   4.631   0.873  14.763
20011W        W86552  32.569   3.784   0.460
20012W        W86553  24.609   0.254  11.050
20013W        W86554  41.616  16.179   4.620
20014W        W86555  28.562  44.488   4.746
20015W        W86556   5.369  11.779   0.935
20016W        W86557  25.253  12.854   3.804
20017W        W86558  25.631  18.120  13.630
20018W        W86559  15.493   6.124  13.870
20019W        W86560  11.625  24.078  12.519
20020W        W86561  20.754  34.817   0.437
20021W        W86562  28.100  17.234   1.776
20022W        W86563  26.611   8.765   4.619
20023W        W86564  39.095  25.733   2.639
20024W        W86565  20.242   3.935  11.356
20025W        W86566  26.205  29.351   2.199
20026W        W86567  13.057  34.435  12.511
20027W        W86568   7.921  32.431   1.010
20028W        W86569  43.363  44.369  11.835
20029W        W86570  26.246  23.610   1.416
20030W        W86571   4.071  32.939   3.518
20031W        W86572   5.883  26.807   3.753
20032W        W86573  27.560  19.231   4.698
20033W        W86574  11.233  37.518   1.785
20034W        W86575  20.939   9.262  14.264
20035W        W86576  30.216  31.914  14.444
20036W        W86577  39.456  27.692   2.777
20037W        W86578  25.097   6.457   3.161
20038W        W86579   7.260  35.890   3.268
20039W        W86580  42.275  36.262  13.135
20040W        W86581  10.858  26.784  14.934
20041W        W86582  38.618  23.990   3.314
20042W        W86583  36.353  40.927   2.681
20043W        W86584  15.088   8.831  12.859
20044W        W86585   8.811  40.078  11.507
20045W        W86586   7.417  13.672  13.573
20046W        W86587  25.373  39.091   4.111
20047W        W86588   6.301  29.335  14.258
20048W        W86589  37.310   8.768  11.112
20049W        W86590   6.095  37.042   1.869
20050W        W86591   4.583  17.089   0.739
20051W        W86592   8.260  40.585   3.776
20052W        W86593   0.301  30.323   4.591
20053W        W86594   5.502  33.233  12.026
20054W        W86595  14.851  11.624  10.992
20055W        W86596  26.079  20.929   2.637
20056W        W86597  15.688  19.662   2.449
20057W        W86598  22.899  37.678   2.421
20058W        W86599   5.449  38.885  12.580
20059W        W86600   0.383   5.885   3.976
20060W        W86601   5.745  41.993  14.345
20061W        W86602   8.405  20.822   2.523
20062W        W86603  29.118   9.200  10.684
20063W        W86604  43.710  29.715   0.098
20064W        W86605  15.118  14.680  12.486
20065W        W86606   9.453   3.860   4.413
20066W        W86607  24.221   2.497  10.598
20067W        W86608  34.271   2.472  12.089
20068W        W86609  29.404  37.051  14.409
20069W        W86610  34.830  41.052   4.228
20070W        W86611  38.646  11.494  14.570
20071W        W86612   6.788  27.221  14.930
20072W        W86613   6.767  24.265  13.421
20073W        W86614  40.437  30.862   3.132
20074W        W86615  31.979  34.960  10.454
20075W        W86616  17.176  42.044   1.388
20076W        W86617  12.734  12.061  11.079
20077W        W86618   9.332  12.685   5.070
20078W        W86619  29.801  31.124   1.857
20079W        W86620  34.918  24.394   3.547
20080W        W86621  18.435   2.392   1.013
20081W        W86622  34.937  44.724  13.407
20082W        W86623  37.909  13.835   4.436
20083W        W86624  29.590  28.220   2.345
20084W        W86625  13.900  32.155  11.799
20085W        W86626  30.710  40.856   3.651
20086W        W86627  37.095  36.770   3.106
20087W        W86628  11.876  34.475  11.505
20088W        W86629  29.286  41.795  13.139
20089W        W86630  34.994   0.224   0.374
20090W        W86631  36.484  19.377   4.145
20091W        W86632   1.624   4.146  13.473
20092W        W86633  15.372  29.446  11.947
20093W        W86634  36.611   1.465   2.704
20094W        W86635   5.776  13.088  11.116
20095W        W86636  43.247   3.243   2.846
20096W        W86637   2.696  32.560   3.759
20097W        W86638  26.982   2.558   1.404
20098W        W86639  16.604   5.944   0.582
20099W        W86640  25.094  14.769   2.742
20100W        W86641  19.777  44.716  12.970
20101W        W86642  17.638  27.422  13.976
20102W        W86643  33.983  25.509  11.460
20103W        W86644   2.398  26.282   1.902
20104W        W86645  10.169  16.212   3.055
20105W        W86646  39.972   7.991  12.658
20106W        W86647  26.545  22.066   1.509
20107W        W86648  23.353  39.546  12.538
20108W        W86649   6.379  12.878  13.585
20109W        W86650  37.680  19.878  12.588
20110W        W86651  30.604   4.903   1.799
20111W        W86652  23.504  42.956  14.493
20112W        W86653  34.404  29.956   0.759
20113W        W86654  20.707   1.236   0.815
20114W        W86655  30.171  40.934  14.408
20115W        W86656  40.124  15.841   2.862
20116W        W86657  23.486   3.464   4.574
20117W        W86658  32.855  15.015   2.778
20118W        W86659  13.564   8.381  14.215
20119W        W86660  13.086  18.818   2.736
20120W        W86661  16.112  36.465   3.779
20121W        W86662  27.669  24.070  12.559
20122W        W86663  35.831  19.020   2.736
20123W        W86664  13.897  42.481  13.524
20124W        W86665   4.423  20.244  10.952
20125W        W86666  22.602  21.836  11.060
20126W        W86667  14.244  26.086   2.725
20127W        W86668  35.590  21.194  12.180
20128W        W86669  11.204  31.671   0.393
20129W        W86670  35.646   2.540  12.633
20130W        W86671   1.812  28.741   4.114
20131W        W86672  33.195  38.456   2.281
20132W        W86673  43.991  31.984   1.558
20133W        W86674  18.132  19.008  13.898
20134W        W86675  30.912  24.544   2.981
20135W        W86676   5.794  38.321   4.298
20136W        W86677  32.842  29.551   2.783
20137W        W86678  16.812   0.199  13.986
20138W        W86679  12.355  17.382  10.553
20139W        W86680  13.052  41.627   4.108
20140W        W86681  37.595  18.084   3.680
20141W        W86682  24.545  41.871   3.816
20142W        W86683  18.087  42.845   0.114
20143W        W86684  19.225  12.297   2.401
20144W        W86685   9.384  14.111   4.645
20145W        W86686  30.940  15.667   1.253
20146W        W86687  38.607  10.923  11.152
20147W        W86688  26.887  25.717   4.527
20148W        W86689   6.897  14.528  11.367
20149W        W86690  39.901   5.888   2.382
20150W        W86691  35.202  41.061   2.657
20151W        W86692  41.815  15.246   3.331
20152W        W86693  43.033  12.235  11.595
20153W        W86694  25.169  26.929  14.267
20154W        W86695   2.676  39.625   1.416
20155W        W86696  12.095  20.011  14.746
20156W        W86697  39.778   6.375  11.914
20157W        W86698   3.392  26.963  13.861
20158W        W86699  13.036  31.725  13.458
20159W        W86700  39.663  37.192  12.713
20160W        W86701  14.729   4.854   1.006
20161W        W86702  25.674  13.382   0.832
20162W        W86703  15.172  31.098  12.367
20163W        W86704  25.776  43.032  11.622
20164W        W86705  12.421  25.729  14.859
20165W        W86706  31.825   1.287  11.759
20166W        W86707  19.621  20.197   3.216
20167W        W86708  27.133  36.982  11.056
20168W        W86709  27.469  22.677  13.455
20169W        W86710  39.203   2.794   0.756
20170W        W86711  25.870  27.812   2.366
20171W        W86712   6.520  40.513   4.038
20172W        W86713   9.244  24.487  13.440
20173W        W86714   6.300   9.090  14.441
20174W        W86715   4.308  39.921  12.521
20175W        W86716   6.581   0.637  13.870
20176W        W86717  11.869  44.279   2.234
20177W        W86718  19.298   5.338  13.007
20178W        W86719  16.649  22.765  10.685
20179W        W86720  42.398  13.388   2.841
20180W        W86721  30.453  26.542   3.732
20181W        W86722   4.640  41.758   3.723
20182W        W86723  30.109   9.786  12.892
20183W        W86724  44.271  30.649   0.173
20184W        W86725   2.154  15.149   1.093
20185W        W86726  16.115  36.838  14.215
20186W        W86727   8.868  32.962   1.246
20187W        W86728   5.866  29.492  13.393
20188W        W86729   2.491  11.596  14.812
20189W        W86730  38.399  26.932   3.826
20190W        W86731  42.592  13.022   9.963
20191W        W86732  15.539  19.232  11.117
20192W        W86733  33.027  20.298   1.501
20193W        W86734   4.892  40.846   3.774
20194W        W86735  23.017  10.209   3.295
20195W        W86736  17.572  36.076   0.890
20196W        W86737  11.790  30.333  13.050
20197W        W86738  31.159  19.174  14.934
20198W        W86739  28.466   5.840  11.710
20199W        W86740  12.585   2.466   2.752
20200W        W86741  21.955  20.749   1.242
20201W        W86742  32.592  27.155   4.317
20202W        W86743  25.983  24.376   4.601
20203W        W86744  31.218  16.214  11.963
20204W        W86745  23.131   3.339  11.158
20205W        W86746   1.391  28.169   0.774
20206W        W86747  12.870  29.895   3.245
20207W        W86748  14.584  35.848   2.021
20208W        W86749  21.784  41.076  11.102
20209W        W86750   9.650  20.210  10.364
20210W        W86751  12.701  31.586  10.616
20211W        W86752  40.221  28.366   1.863
20212W        W86753  28.158  19.234   0.908
20213W        W86754  35.404  38.885  11.524
20214W        W86755  40.604  32.062   4.160
20215W        W86756   2.453  35.491  12.098
20216W        W86757   9.682  37.225  10.717
20217W        W86758  35.064   6.845   4.653
20218W        W86759   8.391  35.456   1.718
20219W        W86760  42.677  32.865   2.941
20220W        W86761  33.891   0.858   4.954
20221W        W86762  39.877   0.153  12.438
20222W        W86763   7.566  16.833   1.768
20223W        W86764  31.954  11.432   0.278
20224W        W86765   0.236  20.653  12.084
20225W        W86766   1.817   6.785   2.085
20226W        W86767   1.830  25.453   3.654
20227W        W86768  14.080  44.362  12.922
20228W        W86769  15.776  38.713  10.476
20229W        W86770  33.924  11.265   2.382
20230W        W86771  28.104  28.483  12.959
20231W        W86772  37.248   5.963  11.200
20232W        W86773  24.624  34.985  11.175
20233W        W86774  18.201  18.062   1.452
20234W        W86775  21.221   7.291  10.947
20235W        W86776  12.921   6.393  12.820
20236W        W86777  14.174  40.034  11.083
20237W        W86778  13.275  33.875  10.684
20238W        W86779  36.984   7.456  14.930
20239W        W86780  28.927  18.412   0.033
20240W        W86781  20.969  37.479   2.208
20241W        W86782   7.749  41.897   3.634
20242W        W86783  29.423  42.231  13.376
20243W        W86784  30.081  12.922   3.616
20244W        W86785  33.886  39.895  11.153
20245W        W86786   8.784   4.651   3.124
20246W        W86787  14.940  27.472   1.722
20247W        W86788  38.061  35.719   4.866
20248W        W86789  44.444  31.337   1.881
20249W        W86790  22.506  37.953   1.638
20250W        W86791   0.894  28.845  14.772
20251W        W86792  14.992   4.781   1.470
20252W        W86793  12.286   6.726  11.373
20253W        W86794   7.410  13.349   3.996
20254W        W86795  15.326  26.447   3.644
20255W        W86796  35.128   5.916   0.350
20256W        W86797  44.386  10.334  11.449
20257W        W86798  38.067   4.681   2.145
20258W        W86799  44.895  12.541  11.783
20259W        W86800  17.519  21.672  14.753
20260W        W86801  14.675   6.867  12.025
20261W        W86802  43.402  19.223   3.864
20262W        W86803  32.233   9.912   4.870
20263W        W86804  16.537  44.069  11.231
20264W        W86805  44.006  17.281   1.380
20265W        W86806  12.812  22.171   2.836
20266W        W86807  41.282  30.091  14.979
20267W        W86808  17.542  28.203   4.586
20268W        W86809  27.716  31.060   4.855
20269W        W86810  30.628  31.596  13.772
20270W        W86811  16.873   2.504  13.447
20271W        W86812  19.666  31.843   3.733
20272W        W86813  31.180  16.881  12.424
20273W        W86814   1.473  16.638  14.843
20274W        W86815  27.532  28.510  11.941
20275W        W86816  16.805  27.572  13.731
20276W        W86817  17.444  29.971   4.489
20277W        W86818   1.177  37.890  13.466
20278W        W86819   2.613   1.458  12.592
20279W        W86820  14.034  25.594  12.416
20280W        W86821  41.237  33.569   2.809
20281W        W86822   2.374  13.638   1.791
20282W        W86823  22.501  11.764  10.229
20283W        W86824   3.908  13.903   4.197
20284W        W86825  21.023  19.080  12.662
20285W        W86826  18.138  15.863   2.686
20286W        W86827  39.946  42.445   0.764
20287W        W86828   3.307  27.239  14.488
20288W        W86829  42.941  13.607   0.420
20289W        W86830  12.612  12.964   4.847
20290W        W86831  12.670  33.011   4.745
20291W        W86832  22.665  32.299   0.393
20292W        W86833   9.437  37.739  11.463
20293W        W86834   3.684  17.365  13.059
20294W        W86835  26.662   9.372   4.576
20295W        W86836  25.987   8.777  13.312
20296W        W86837   7.935  26.890  11.324
20297W        W86838  29.439  17.835  12.077
20298W        W86839   5.204   3.935   1.735
20299W        W86840  31.049   0.406  14.819
20300W        W86841  17.303  17.262   1.689
20301W        W86842   3.356  38.072  12.430
20302W        W86843  35.996  24.791  14.818
20303W        W86844  43.803  12.649   2.870
20304W        W86845   6.181   1.412   4.246
20305W        W86846  38.005   4.064  12.477
20306W        W86847   4.715  20.007   0.105
20307W        W86848  37.173  13.332  14.351
20308W        W86849  26.206  30.865  14.634
20309W        W86850  35.846  41.934   3.024
20310W        W86851   7.322  21.824  14.741
20311W        W86852  15.741  30.343   3.862
20312W        W86853  22.585   3.757   2.266
20313W        W86854  36.266  12.333  11.946
20314W        W86855  43.499   1.077   4.221
20315W        W86856  18.861  44.740  10.696
20316W        W86857   6.779  19.491   2.843
20317W        W86858   3.841   8.161  12.112
20318W        W86859  10.590   2.241  13.854
20319W        W86860   6.352  26.733   4.509
20320W        W86861   7.787  25.782   4.553
20321W        W86862   4.309  20.244   4.302
20322W        W86863   8.639   0.403   4.642
20323W        W86864  38.403  41.716   4.523
20324W        W86865   8.195   1.267  11.476
20325W        W86866  22.023  12.690  13.899
20326W        W86867   3.208  18.550   0.229
20327W        W86868   4.170  23.729  12.016
20328W        W86869  21.997  17.670  13.925
20329W        W86870   0.780  39.938   4.370
20330W        W86871  24.932   8.083  11.134
20331W        W86872  25.035  10.674   2.049
20332W        W86873  25.663  24.266   1.807
20333W        W86874  38.065   0.740  14.912
20334W        W86875  44.165   5.421   0.633
20335W        W86876  27.221   6.961   2.643
20336W        W86877   4.929   4.885  14.925
20337W        W86878  14.120  22.710  10.696
20338W        W86879  40.329  28.689  14.345
20339W        W86880  35.689  44.764  12.157
20340W        W86881  20.142   0.624   3.140
20341W        W86882  21.034  10.656  10.814
20342W        W86883  23.131  21.419   1.106
20343W        W86884  40.324  30.131   3.783
20344W        W86885  35.907  14.850   1.278
20345W        W86886  23.031   4.183  10.215
20346W        W86887  20.264   3.785  14.241
20347W        W86888  11.732  38.930   1.564
20348W        W86889  16.503  37.420  13.526
20349W        W86890   4.690  41.109   1.048
20350W        W86891  23.966  43.851   3.494
20351W        W86892   4.993  40.709  11.048
20352W        W86893   5.674  24.090  14.046
20353W        W86894  36.521  19.443   3.282
20354W        W86895  31.018  19.667  11.788
20355W        W86896  34.918  25.945  13.772
20356W        W86897  32.366   7.211   0.861
20357W        W86898  21.602   9.823   3.554
20358W        W86899  24.538  31.371   3.790
20359W        W86900   7.202  42.988  12.112
20360W        W86901   1.206  15.106  14.014
20361W        W86902  28.362  19.849   0.885
20362W        W86903  36.660  24.827  14.044
20363W        W86904   6.795   2.953  13.842
20364W        W86905   2.188  28.492  13.569
20365W        W86906  43.976  17.601  13.504
20366W        W86907  13.824  10.776   0.848
20367W        W86908  24.538   5.311  14.850
20368W        W86909  15.200  27.459   1.252
20369W        W86910  22.553   7.506  12.511
20370W        W86911  31.028  14.909   5.589
20371W        W86912   5.502   4.491   3.296
20372W        W86913  24.608   9.079   0.685
20373W        W86914  15.237  11.498   1.283
20374W        W86915  29.139  32.680   4.017
20375W        W86916  39.417  20.062   3.322
20376W        W86917  33.120  12.156   0.528
20377W        W86918  29.930  39.199  14.978
20378W        W86919  44.377  24.075   3.925
20379W        W86920  10.693  42.870   3.278
20380W        W86921  14.274  29.445  12.047
20381W        W86922  15.654  26.082   4.584
20382W        W86923   1.910   3.312  11.921
20383W        W86924  33.610  42.860  13.966
20384W        W86925  16.340  28.915  11.256
20385W        W86926  14.725  19.552  13.975
20386W        W86927  42.288  43.047   2.725
20387W        W86928  13.334  25.156  10.674
20388W        W86929  42.890  12.635   2.903
20389W        W86930  21.151  39.674  12.485
20390W        W86931  41.869  25.507  13.795
20391W        W86932  27.051  16.334   2.744
20392W        W86933  37.345  38.518  11.628
20393W        W86934  14.932  18.534  12.425
20394W        W86935   1.448   7.832  11.213
20395W        W86936  41.993  28.409   2.286
20396W        W86937  27.731  37.837   2.850
20397W        W86938   0.794  13.057   3.045
20398W        W86939  22.067  21.725  14.254
20399W        W86940  20.782  32.429   2.629
20400W        W86941  20.904  38.107   0.514
20401W        W86942  29.872  10.714   2.966
20402W        W86943  38.084   4.988  14.862
20403W        W86944  19.273  14.706   1.496
20404W        W86945  19.225  31.103   1.847
20405W        W86946  33.461  13.413  10.703
20406W        W86947  38.328  14.358  14.465
20407W        W86948  14.854  28.016   2.715
20408W        W86949   5.830  43.415  14.766
20409W        W86950   7.817   2.681  13.397
20410W        W86951   2.662  10.224   3.531
20411W        W86952  35.466  39.511   2.671
20412W        W86953   2.369  27.928  13.475
20413W        W86954  10.837  24.989  10.846
20414W        W86955   4.721  32.518  14.362
20415W        W86956  35.346  15.756  12.417
20416W        W86957  19.269  21.156   4.520
20417W        W86958  16.209  30.481   1.616
20418W        W86959  14.063  14.120  11.609
20419W        W86960  22.244  26.198   1.821
20420W        W86961   8.325  42.802   1.891
20421W        W86962  41.286   4.320   0.476
20422W        W86963  26.263  44.036  12.041
20423W        W86964  43.449  37.418  10.676
20424W        W86965  42.774   4.378  13.970
20425W        W86966   6.119  41.062   2.838
20426W        W86967  23.239  44.669   4.207
20427W        W86968  28.561  21.783   1.688
20428W        W86969  32.495  28.289   1.407
20429W        W86970  10.160  13.865  10.659
20430W        W86971  31.116  40.163   1.905
20431W        W86972   0.552  34.268   0.247
20432W        W86973  10.772  34.886   0.520
20433W        W86974  36.030  29.134   1.239
20434W        W86975  17.368  26.126   0.965
20435W        W86976  22.814  28.868   3.182
20436W        W86977  40.173  43.518  12.177
20437W        W86978  30.531   9.238  11.561
20438W        W86979  33.381   9.874  12.612
20439W        W86980  21.309  42.480  12.476
20440W        W86981  16.495   7.533   1.374
20441W        W86982  30.399  10.093   4.187
20442W        W86983  15.276  23.632   1.668
20443W        W86984  44.970   6.653   2.290
20444W        W86985   6.305  30.700   2.117
20445W        W86986  22.309  29.685   4.814
20446W        W86987  43.677  26.118  11.635
20447W        W86988  39.318  41.860  11.550
20448W        W86989  43.772  25.195  14.604
20449W        W86990   1.873  11.675  11.347
20450W        W86991  41.680  33.850  11.379
20451W        W86992  22.134  20.286   0.300
20452W        W86993  22.257   3.857   4.520
20453W        W86994  26.097  13.180  13.000
20454W        W86995   2.243   9.887   0.771
20455W        W86996  27.957  30.453  14.027
20456W        W86997  26.915  33.583   4.121
20457W        W86998   5.427   9.650  14.826
20458W        W86999  41.453  18.469   3.689
20459W        W87000  23.683   0.469   0.433
20460W        W87001  14.530  22.849  12.940
20461W        W87002  44.748  13.393   1.274
20462W        W87003  11.886   1.693  11.077
20463W        W87004  17.867  28.710   2.321
20464W        W87005  24.597  11.049   2.543
20465W        W87006  31.580  21.231   2.074
20466W        W87007  16.765  38.277   0.970
20467W        W87008   8.616  20.132   0.359
20468W        W87009  37.428  19.267   0.601
20469W        W87010  38.644  15.122   1.058
20470W        W87011  17.190  44.732  14.380
20471W        W87012  30.723  29.769  13.910
20472W        W87013   9.723  42.048  10.974
20473W        W87014  17.907  19.212   4.579
20474W        W87015  28.615  39.280  14.352
20475W        W87016  20.828   6.791   0.844
20476W        W87017  44.838  28.182  11.095
20477W        W87018  37.926  43.175   1.510
20478W        W87019  25.700  28.052  14.506
20479W        W87020  42.695   7.296  12.415
20480W        W87021   6.435   9.817  12.955
20481W        W87022  31.894  23.202  13.281
20482W        W87023  21.660   7.842   2.800
20483W        W87024  42.788   3.402  10.954
20484W        W87025  43.461  21.206   4.074
20485W        W87026  42.421  27.625  14.825
20486W        W87027  17.152  20.307   1.079
20487W        W87028   6.981  35.481   3.389
20488W        W87029  25.022  37.607   1.167
20489W        W87030   2.534  17.000   1.720
20490W        W87031  30.158  20.294   3.517
20491W        W87032  40.440  30.531   4.679
20492W        W87033  15.309  13.966   3.685
20493W        W87034  20.310  25.554  11.710
20494W        W87035  18.297  10.064  13.840
20495W        W87036  18.761   9.775  14.471
20496W        W87037  29.200  32.269  14.342
20497W        W87038   1.489   7.921  12.984
20498W        W87039  25.932  25.471  12.116
20499W        W87040  29.283  10.731  13.860
20500W        W87041   7.386  32.959  13.546
20501W        W87042  35.891  25.006   3.208
20502W        W87043  39.391  15.601   4.930
20503W        W87044  27.756   4.509   4.244
20504W        W87045  41.288  35.462  12.951
20505W        W87046  34.649  23.957   2.291
20506W        W87047  23.942  33.016   2.021
20507W        W87048  14.823  29.834  14.924
20508W        W87049  42.093  31.780   2.604
20509W        W87050  10.089   3.751   3.702
20510W        W87051  31.854   4.745  12.118
20511W        W87052  19.566  26.353   0.364
20512W        W87053  35.111  32.420   3.242
20513W        W87054  34.703   3.202  13.018
20514W        W87055  15.565   1.764   2.346
20515W        W87056  36.735  34.546  10.449
20516W        W87057  22.303  20.232   2.451
20517W        W87058  43.258  12.383   2.642
20518W        W87059  28.975  23.978   0.326
20519W        W87060  37.259   6.714   0.347
20520W        W87061  28.059  27.169  10.772
20521W        W87062  32.025  15.152   1.797
20522W        W87063  36.562  14.309  11.593
20523W        W87064  17.738  22.191   1.000
20524W        W87065   1.020  39.545   4.095
20525W        W87066  36.181  19.711   2.055
20526W        W87067  35.587   8.600   2.361
20527W        W87068  27.668  20.463   1.377
20528W        W87069  14.678  42.800   4.798
20529W        W87070  38.331  23.066   1.184
20530W        W87071  42.688   7.968   3.578
20531W        W87072  13.620  31.116  12.059
20532W        W87073  24.797  14.829   0.501
20533W        W87074  34.459  43.227  12.359
20534W        W87075  25.682   6.246   4.387
20535W        W87076  15.382  38.094   4.132
20536W        W87077  19.222  22.708  12.887
20537W        W87078  33.398  23.037  10.723
20538W        W87079   9.879  25.991  14.682
20539W        W87080   6.834  12.869  13.318
20540W        W87081  44.747  31.156   0.512
20541W        W87082  42.011  15.709  13.721
20542W        W87083   9.326  37.605  13.103
20543W        W87084   7.627  10.520   3.529
20544W        W87085  14.378  23.547  13.387
20545W        W87086  28.429  20.101   2.669
20546W        W87087  37.187  27.990  14.519
20547W        W87088  33.673  33.492   0.509
20548W        W87089  30.462  33.113   2.817
20549W        W87090  27.948  12.158   4.590
20550W        W87091   2.001   0.039  13.487
20551W        W87092  35.710  40.593   1.879
20552W        W87093  44.673   0.238   0.018
20553W        W87094  24.503  10.473  14.467
20554W        W87095  44.319   4.753  11.695
20555W        W87096   1.531   3.700  12.592
20556W        W87097   6.162  18.120  11.458
20557W        W87098  30.289  20.651  13.884
20558W        W87099   4.459  15.331   0.184
20559W        W87100   7.933  24.286   3.281
20560W        W87101  33.655  43.986  11.515
20561W        W87102   6.149  34.685  10.333
20562W        W87103  29.898   2.736   4.542
20563W        W87104   4.793   6.760   4.227
20564W        W87105  25.979  16.623   1.833
20565W        W87106  13.285  16.982  13.732
20566W        W87107  39.878  30.920   0.764
20567W        W87108  35.900  23.195  11.695
20568W        W87109  36.678  43.969   1.472
20569W        W87110  19.997   0.752  10.983
20570W        W87111  10.514  41.818   9.699
20571W        W87112   0.756   0.719  13.355
20572W        W87113  37.896  36.912  10.467
20573W        W87114  28.125  28.632   2.159
20574W        W87115  17.719  34.077   2.342
20575W        W87116  27.954   0.822   2.541
20576W        W87117  16.047  14.914  12.492
20577W        W87118  22.512  44.343  13.084
20578W        W87119  12.450  25.619   4.113
20579W        W87120  11.253  26.610   3.542
20580W        W87121  12.465  26.024  13.251
20581W        W87122  38.878  41.315  13.860
20582W        W87123  26.003  33.309  14.745
20583W        W87124  42.025   6.823  13.389
20584W        W87125  19.262   6.682  14.047
20585W        W87126  21.387  27.686  11.929
20586W        W87127   7.358  14.702  12.033
20587W        W87128  37.920   6.109   2.639
20588W        W87129  17.380  23.801  11.090
20589W        W87130  27.427  42.998   1.857
20590W        W87131  10.180  39.528  14.687
20591W        W87132  42.020  28.325   3.288
20592W        W87133  33.700  12.083  14.041
20593W        W87134   6.925   8.937   1.742
20594W        W87135  20.793  26.622  10.970
20595W        W87136   8.314  27.598   0.301
20596W        W87137  25.768  41.459   0.880
20597W        W87138  29.474  34.454   3.165
20598W        W87139   2.405  41.049  13.877
20599W        W87140  28.435  29.518   3.645
20600W        W87141  38.081  31.725  14.466
20601W        W87142  29.339  41.221  11.554
20602W        W87143  40.262  18.273   3.275
20603W        W87144   2.438   8.045  11.953
20604W        W87145  26.486  38.678  11.733
20605W        W87146  43.532  23.061   0.789
20606W        W87147   2.967   0.301   4.888
20607W        W87148   1.707  20.543  10.352
20608W        W87149  30.551  31.203  13.049
20609W        W87150  27.651   8.155  14.946
20610W        W87151  24.419  24.101   2.255
20611W        W87152  35.084  30.276  11.151
20612W        W87153  32.822  19.601  12.949
20613W        W87154  26.953  34.239  14.797
20614W        W87155   3.305   3.982   0.443
20615W        W87156  26.978   9.799  14.403
20616W        W87157  14.285  23.171   0.230
20617W        W87158  28.421  38.573   2.186
20618W        W87159  35.810  23.707  11.513
20619W        W87160   3.284  21.241   1.343
20620W        W87161  28.668   3.371   2.192
20621W        W87162  29.488  22.726   4.262
20622W        W87163   6.678   0.696  12.531
20623W        W87164  36.599  34.673   0.696
20624W        W87165  27.922  23.331   2.255
20625W        W87166  39.794   8.227  11.964
20626W        W87167   8.888  18.495   3.543
20627W        W87168  12.129  28.231  14.494
20628W        W87169   4.909   5.212   2.651
20629W        W87170  26.723   5.190   2.781
20630W        W87171  15.277  17.775  11.911
20631W        W87172   4.656   5.287  12.001
20632W        W87173   0.206  19.852   1.292
20633W        W87174   6.461  24.075  10.789
20634W        W87175  29.201  42.551   0.788
20635W        W87176  39.958  43.334  10.601
20636W        W87177  21.548  37.257  11.566
20637W        W87178  38.115  40.354   0.908
20638W        W87179  23.659  13.883   2.214
20639W        W87180  25.153  38.092  11.489
20640W        W87181  22.692  26.681  13.432
20641W        W87182  21.427  13.319   0.576
20642W        W87183  22.237  10.858   3.355
20643W        W87184  24.231  13.198  14.959
20644W        W87185  37.803  43.925  14.541
20645W        W87186  34.290  43.530   3.440
20646W        W87187   1.088  44.783   2.924
20647W        W87188  44.216  33.016  13.458
20648W        W87189  32.940  21.673  14.823
20649W        W87190  35.476  36.967   4.037
20650W        W87191   2.873   2.749   0.419
20651W        W87192   1.474   9.127  11.517
20652W        W87193  30.084  28.861  11.282
20653W        W87194   1.831  34.612  14.731
20654W        W87195  42.999  25.614  13.171
20655W        W87196  22.237  41.010   1.791
20656W        W87197  36.376  38.867  11.118
20657W        W87198  29.887  18.494  10.666
20658W        W87199  17.651  13.830  14.450
20659W        W87200  21.083  32.418   1.741
20660W        W87201  37.288   7.205   1.615
20661W        W87202  44.236   6.996   2.871
20662W        W87203   3.831   0.469  14.990
20663W        W87204  42.626  12.849  10.556
20664W        W87205   8.231  43.928   2.119
20665W        W87206  44.338   4.325   2.843
20666W        W87207  37.323  14.976  13.530
20667W        W87208  12.431   0.571   0.544
20668W        W87209  40.993  10.447   3.274
20669W        W87210  40.619  21.727   2.331
20670W        W87211  37.070  18.191  13.025
20671W        W87212   7.775   3.487   4.621
20672W        W87213  44.547  18.292   2.259
20673W        W87214  30.686  42.787  14.946
20674W        W87215   9.567  27.220   0.281
20675W        W87216  19.234   1.998  14.984
20676W        W87217  42.557  21.251   4.725
20677W        W87218  35.868  34.397   2.900
20678W        W87219  15.090  33.101  14.823
20679W        W87220  12.199  31.596   2.375
20680W        W87221  30.025  37.919  14.959
20681W        W87222  28.880  11.064  12.066
20682W        W87223  13.094  39.816  11.505
20683W        W87224  31.512  14.835   4.951
20684W        W87225  11.395  16.328  13.902
20685W        W87226   6.363  26.039   3.935
20686W        W87227  32.333   6.751  14.862
20687W        W87228  26.905  34.692  12.174
20688W        W87229  26.488  23.799  13.988
20689W        W87230  25.995  13.240   2.698
20690W        W87231  22.242  42.219  12.414
20691W        W87232  42.514  10.705  11.095
20692W        W87233  16.241  41.380   0.346
20693W        W87234  34.494  35.373   2.716
20694W        W87235  15.248  18.752  14.767
20695W        W87236   5.494  19.099   2.629
20696W        W87237  32.064  37.344  11.544
20697W        W87238  41.593  14.267   1.737
20698W        W87239   7.859  14.602   3.671
20699W        W87240  39.635  24.735  11.060
20700W        W87241   9.866  18.824  11.893
20701W        W87242  40.009   7.148   0.863
20702W        W87243   9.607  14.122   3.288
20703W        W87244  15.597  29.605  14.434
20704W        W87245  27.174  27.259  14.439
20705W        W87246  39.780  15.752  11.776
20706W        W87247  42.423  42.835   3.179
20707W        W87248   4.835  44.140   4.145
20708W        W87249   0.991  22.264   4.670
20709W        W87250  39.323   4.264   1.911
20710W        W87251  43.799  20.602   1.512
20711W        W87252  29.229  43.900  13.281
20712W        W87253  44.413  19.367   1.354
20713W        W87254  26.028  24.393   3.604
20714W        W87255  23.216  40.927   3.854
20715W        W87256  25.020  27.850   0.461
20716W        W87257  33.469  15.628  13.715
20717W        W87258  16.165  27.390   2.434
20718W        W87259  31.081  41.930   2.554
20719W        W87260   9.925  43.968   3.732
20720W        W87261  23.076  40.462   4.012
20721W        W87262   9.615  36.517  13.432
20722W        W87263  34.125   1.953   1.339
20723W        W87264  14.590   9.418   3.850
20724W        W87265  17.528  37.428   2.263
20725W        W87266   2.503  19.734   3.220
20726W        W87267  37.931  42.770   3.877
20727W        W87268  36.904  36.837   2.617
20728W        W87269  20.303  31.594   1.316
20729W        W87270  31.315  20.165  11.700
20730W        W87271   3.398  41.312   1.206
20731W        W87272  11.210  11.911  10.652
20732W        W87273  37.203  31.676   5.056
20733W        W87274  14.167  17.230   1.221
20734W        W87275  12.767  17.090  10.644
20735W        W87276  25.018  36.771  12.160
20736W        W87277  16.308  16.305   3.634
20737W        W87278  15.091  42.766  13.306
20738W        W87279  30.008  39.115   1.903
20739W        W87280  27.474  19.470  13.481
20740W        W87281  26.048  23.155  10.707
20741W        W87282  26.485  13.079   1.517
20742W        W87283   0.763  43.376   4.616
20743W        W87284  34.486  25.119   0.667
20744W        W87285  29.101   9.283   1.176
20745W        W87286  28.181  15.277  10.326
20746W        W87287  44.399  23.470  12.212
20747W        W87288   1.933  12.974  11.203
20748W        W87289   6.675  14.759   0.369
20749W        W87290  42.889  12.786   3.384
20750W        W87291   9.873  28.487  11.564
20751W        W87292  25.961  22.213   2.671
20752W        W87293  14.604  17.734   1.708
20753W        W87294  27.498   3.057   4.540
20754W        W87295  29.094  30.022   2.144
20755W        W87296  34.939  41.358  11.214
20756W        W87297   3.783  37.834   3.189
20757W        W87298  40.585  19.033  10.491
20758W        W87299  28.959  13.229  13.092
20759W        W87300  22.561   0.506  10.248
20760W        W87301   9.248  30.810  14.364
20761W        W87302  41.976  13.127   0.426
20762W        W87303  41.092  15.786  13.140
20763W        W87304  39.978  24.820  12.719
20764W        W87305   6.908   1.516   5.095
20765W        W87306   8.383  10.289  14.784
20766W        W87307  15.710  29.375  13.957
20767W        W87308  12.556  11.029  12.431
20768W        W87309  44.574  12.174   4.636
20769W        W87310  44.532  31.838  12.912
20770W        W87311  12.272  33.437  14.814
20771W        W87312   3.224   9.686   1.721
20772W        W87313   6.467  28.940   1.760
20773W        W87314  39.894  21.349  12.752
20774W        W87315  38.581  14.034  12.279
20775W        W87316  29.909  31.556  12.392
20776W        W87317   3.551  43.038  11.358
20777W        W87318   1.775  41.821   1.012
20778W        W87319   7.309  33.878  12.181
20779W        W87320   5.648   9.209  14.298
20780W        W87321   4.452  23.944   2.388
20781W        W87322  43.069  29.723  11.085
20782W        W87323  35.549  22.387   3.972
20783W        W87324  42.287  39.760  13.930
20784W        W87325  30.581  23.367  10.573
20785W        W87326   8.851  41.946   3.808
20786W        W87327  26.809   1.813   4.888
20787W        W87328   8.252  28.390  10.701
20788W        W87329  22.338  24.161  11.114
20789W        W87330  41.274  10.802  10.641
20790W        W87331  28.613  11.238   2.230
20791W        W87332  12.214  10.952   3.196
20792W        W87333  27.394  27.582   2.769
20793W        W87334  30.509  13.806   0.755
20794W        W87335  44.952  18.020   3.204
20795W        W87336  14.336  28.450  12.064
20796W        W87337   1.851  13.859  14.982
20797W        W87338  19.466  43.454   3.285
20798W        W87339  32.108  34.658  13.875
20799W        W87340  39.508  42.938   4.740
20800W        W87341  32.320  40.933   1.029
20801W        W87342  31.607  40.446   0.775
20802W        W87343   8.254  39.530  14.871
20803W        W87344  18.711  35.224   2.114
20804W        W87345  27.599  31.647  12.216
20805W        W87346  32.459   8.194   3.681
20806W        W87347  42.782  20.988   0.583
20807W        W87348  13.177  28.640  13.472
20808W        W87349   9.738  24.530  12.044
20809W        W87350  37.296  39.518   0.599
20810W        W87351  11.774  32.507  11.621
20811W        W87352  12.662   9.790   3.642
20812W        W87353  14.587  40.777   1.775
20813W        W87354  29.999  12.103   3.169
20814W        W87355  35.772  11.294   2.232
20815W        W87356  13.707  19.443   2.858
20816W        W87357  14.305   9.737  11.603
20817W        W87358  15.237  30.175   3.892
20818W        W87359  16.828  24.305   2.192
20819W        W87360  32.935  26.577  10.355
20820W        W87361  36.266  12.413   3.921
20821W        W87362  13.497  28.201   0.727
20822W        W87363  44.508  43.964   0.277
20823W        W87364  37.408  28.300  11.967
20824W        W87365  36.475  43.711   4.594
20825W        W87366  19.596  38.884  14.546
20826W        W87367  29.932  43.235   4.931
20827W        W87368  36.885  21.160  12.491
20828W        W87369  39.364  44.802   3.519
20829W        W87370   5.304   7.604   0.963
20830W        W87371  37.057  28.648  13.825
20831W        W87372   0.337  34.105   4.094
20832W        W87373  41.226  33.893  11.165
20833W        W87374  22.229  15.175  10.688
20834W        W87375  42.313  41.352   4.085
20835W        W87376  20.486  24.719  13.513
20836W        W87377  36.301   8.661  13.184
20837W        W87378  15.939  13.814  12.521
20838W        W87379  19.601   0.819  11.963
20839W        W87380  27.990  36.097   2.144
20840W        W87381  24.954   1.221   3.685
20841W        W87382  22.206  30.557   1.012
20842W        W87383  27.258   6.181   3.085
20843W        W87384  15.374   9.343  11.955
20844W        W87385  36.070  39.605  13.058
20845W        W87386  14.345  21.585   4.425
20846W        W87387   7.393  37.028  13.659
20847W        W87388  12.406   3.409  13.063
20848W        W87389  17.756  44.473   0.354
20849W        W87390  43.837  35.802   3.677
20850W        W87391  41.459  15.311   4.117
20851W        W87392   2.859   5.461   1.570
20852W        W87393  43.610   9.620   1.417
20853W        W87394   6.431  16.811   4.269
20854W        W87395  17.123  34.351   1.108
20855W        W87396  11.626  31.337  14.575
20856W        W87397   5.163  25.481  11.683
20857W        W87398  16.223  11.158   4.533
20858W        W87399  33.285  22.551  10.883
20859W        W87400  18.335  39.668   1.676
20860W        W87401   2.552   7.310   1.181
20861W        W87402   7.576   4.349   2.955
20862W        W87403  11.672  41.055   3.675
20863W        W87404   5.277  27.174  10.693
20864W        W87405   4.185  40.465   4.894
20865W        W87406   8.839  19.603  11.778
20866W        W87407  28.434  24.058  10.595
20867W        W87408  35.557  24.072  14.381
20868W        W87409  18.951  29.517  14.361
20869W        W87410   3.609   5.177  11.883
20870W        W87411  28.118  39.683  13.913
20871W        W87412  12.192  33.968   1.360
20872W        W87413  19.744  15.760  12.690
20873W        W87414  40.349  33.438  10.381
20874W        W87415  12.325  14.580   4.252
20875W        W87416  29.597   2.447  13.635
20876W        W87417  24.896  40.378   3.119
20877W        W87418   3.792  32.538   1.225
20878W        W87419   5.357  20.938  11.998
20879W        W87420  11.326  28.953   3.660
20880W        W87421   5.696  20.620  10.412
20881W        W87422   1.511  10.694  14.469
20882W        W87423  20.147  31.330  12.553
20883W        W87424  29.090  43.345   4.916
20884W        W87425  12.301  33.620   3.152
20885W        W87426  30.947  39.479   0.969
20886W        W87427  14.342  23.571   3.308
20887W        W87428  14.341  23.879  14.731
20888W        W87429  12.613  20.040   3.251
20889W        W87430  18.019  25.094   3.693
20890W        W87431  30.134   4.150  12.501
20891W        W87432  35.947  44.761   4.115
20892W        W87433   6.598   1.307   2.614
20893W        W87434  22.800  40.833  13.035
20894W        W87435  41.828  38.602   4.572
20895W        W87436  31.522  42.444  14.297
20896W        W87437   7.656  12.279  10.680
20897W        W87438  25.038  23.843  11.986
20898W        W87439  40.666  21.666  11.093
20899W        W87440  23.371  22.384  12.115
20900W        W87441   1.305  36.037   1.381
20901W        W87442  34.559  40.763   3.601
20902W        W87443  18.760   4.065  13.465
20903W        W87444   4.249   1.199   1.283
20904W        W87445  40.468  15.631  11.948
20905W        W87446  44.975  37.830   4.501
20906W        W87447  38.145  29.891   3.772
20907W        W87448   0.983  32.996  12.142
20908W        W87449  44.973  12.283  13.569
20909W        W87450  33.110  42.399   2.668
20910W        W87451  38.356  10.054   1.264
20911W        W87452  10.835  42.667  11.446
20912W        W87453  15.121  32.378  14.809
20913W        W87454  23.584  34.566  12.079
20914W        W87455  31.475  19.681   1.755
20915W        W87456  42.916  33.419   4.315
20916W        W87457  27.384  36.024   0.944
20917W        W87458  42.428   9.444   2.142
20918W        W87459  12.302  28.810   3.683
20919W        W87460  18.091  42.608  14.232
20920W        W87461  32.502  34.013  10.637
20921W        W87462  21.247  18.391  12.109
20922W        W87463  10.647  29.168  13.873
20923W        W87464  29.312  29.494  14.817
20924W        W87465  42.858  11.570  13.199
20925W        W87466  42.006  37.172   1.403
20926W        W87467  17.239  18.226  14.583
20927W        W87468   7.743  29.852  14.237
20928W        W87469   5.307   9.275  10.612
20929W        W87470   0.677  19.185  14.007
20930W        W87471   7.621   5.412  11.549
20931W        W87472   4.827  23.297   3.609
20932W        W87473   2.425   9.907  11.351
20933W        W87474  42.311   9.248  12.073
20934W        W87475  12.559  24.932   0.955
20935W        W87476   3.939  27.069   4.641
20936W        W87477  19.105  41.873   0.800
20937W        W87478  20.549  19.749  13.708
20938W        W87479  29.232  11.092  11.657
20939W        W87480  42.459  44.905  12.916
20940W        W87481  38.411  24.132  14.679
20941W        W87482  23.410   9.428   2.235
20942W        W87483  10.306  41.988   0.518
20943W        W87484   7.902  38.528   4.204
20944W        W87485  34.254  39.447  11.074
20945W        W87486  37.836  40.526   4.639
20946W        W87487  28.168  33.545   1.376
20947W        W87488  44.587  31.664   2.822
20948W        W87489  39.861  16.379   1.277
20949W        W87490  23.988  44.485   4.270
20950W        W87491  29.004  31.646  13.852
20951W        W87492   9.749  16.076  13.147
20952W        W87493  34.274   2.659   4.000
20953W        W87494  21.467  42.269  10.780
20954W        W87495  36.111   6.747   2.795
20955W        W87496  28.157  35.219   3.300
20956W        W87497  44.842   8.684  10.697
20957W        W87498  31.904   5.327  11.083
20958W        W87499  22.087   7.765   1.993
20959W        W87500  34.103  12.077   4.940
20960W        W87501  20.316   2.269  11.166
20961W        W87502   0.270  32.212   3.577
20962W        W87503  23.473  27.736   4.133
20963W        W87504  19.475   6.442   5.116
20964W        W87505   4.352  35.478  12.440
20965W        W87506  10.294  37.875   0.504
20966W        W87507  37.460  16.706   4.061
20967W        W87508   6.375  40.520   2.136
20968W        W87509  29.783   1.038   4.630
20969W        W87510  21.050   8.170   3.117
20970W        W87511  24.052   7.017   4.559
20971W        W87512   6.433  41.318  11.488
20972W        W87513   5.490  44.641   3.827
20973W        W87514  17.875   2.180  10.903
20974W        W87515  36.277  44.396   2.456
20975W        W87516  43.775  10.706   4.713
20976W        W87517  18.441  43.001  12.714
20977W        W87518  28.237  16.716   2.354
20978W        W87519  41.401  12.196  10.567
20979W        W87520  16.699   2.840  14.798
20980W        W87521  20.301  20.548   0.326
20981W        W87522  13.761   9.292  14.837
20982W        W87523   2.514  11.205   3.331
20983W        W87524   7.452  18.236  12.134
20984W        W87525  31.618  33.582   3.024
20985W        W87526   5.141  10.283  10.753
20986W        W87527  27.051  10.392  13.945
20987W        W87528  13.866  35.749   0.462
20988W        W87529  38.998  44.404   2.974
20989W        W87530  20.832  29.651  11.163
20990W        W87531  39.324  35.691   2.720
20991W        W87532  17.049  43.867   3.424
20992W        W87533  37.041  20.666  12.462
20993W        W87534  14.704  43.282  10.378
20994W        W87535  25.534  24.610   4.661
20995W        W87536  12.532  10.664   1.328
20996W        W87537  42.061  25.479  14.810
20997W        W87538  38.369   2.813  12.987
20998W        W87539  43.986  36.461   0.347
20999W        W87540  11.140  34.385   0.820
21000W        W87541   5.715   6.726   3.432
21001W        W87542  19.156  27.519  10.996
21002W        W87543  18.125  32.408   5.051
21003W        W87544  29.523   9.159  12.000
21004W        W87545  19.323   2.594   3.334
21005W        W87546  24.276   5.181  14.402
21006W        W87547  21.745  12.952  10.800
21007W        W87548  11.397  26.572  12.624
21008W        W87549  13.541  13.135   3.272
21009W        W87550  21.160   4.809   1.322
21010W        W87551  17.781   6.842  10.667
21011W        W87552  33.178  24.609   1.846
21012W        W87553  17.498  42.354  10.340
21013W        W87554  44.555  39.667  14.797
21014W        W87555   4.226  16.268   3.393
21015W        W87556  41.816  34.559  12.927
21016W        W87557  37.679   3.778  11.539
21017W        W87558  38.766   9.546   0.358
21018W        W87559   8.287   5.789   4.505
21019W        W87560  31.448  14.386  13.906
21020W        W87561  12.476  36.063   4.957
21021W        W87562  22.992  24.697   4.563
21022W        W87563  35.903  12.068   0.384
21023W        W87564  33.640  25.725  13.961
21024W        W87565  36.588  19.676  10.668
21025W        W87566   8.398  18.523  11.182
21026W        W87567   8.085  19.798  13.380
21027W        W87568   9.814  41.894   3.343
21028W        W87569  13.625   6.187   3.529
21029W        W87570  32.531  18.112   0.966
21030W        W87571  36.570  40.473   2.597
21031W        W87572  19.485   6.426  11.999
21032W        W87573  24.161   2.981  14.068
21033W        W87574  41.568  22.951  14.901
21034W        W87575  34.670  44.400   0.487
21035W        W87576  43.361   5.563  11.406
21036W        W87577   6.488  26.881   0.234
21037W        W87578  22.707  12.811  14.329
21038W        W87579  19.656  29.364  13.912
21039W        W87580  39.759   4.080  12.888
21040W        W87581  29.341  15.886   0.693
21041W        W87582   9.837  40.023  11.917
21042W        W87583  37.029  44.767   2.708
21043W        W87584  19.489  16.034   3.315
21044W        W87585  41.430  34.575   2.662
21045W        W87586  11.389  39.601  10.136
21046W        W87587  15.193  43.886  10.399
21047W        W87588  39.921  27.953  11.572
21048W        W87589  15.741  41.938   2.657
21049W        W87590  34.792  31.958   3.756
21050W        W87591  39.966  24.686   2.240
21051W        W87592   3.542  31.995   2.678
21052W        W87593  16.866   0.023  10.678
21053W        W87594  15.967  43.889   3.615
21054W        W87595  42.388  18.102  10.720
21055W        W87596  32.082  35.585   3.681
21056W        W87597  15.757  43.266   0.921
21057W        W87598  33.662  38.121  14.384
21058W        W87599   9.307  43.901  12.257
21059W        W87600  13.920  44.583  11.641
21060W        W87601  15.110   7.651   3.727
21061W        W87602  42.557  29.208  11.569
21062W        W87603  21.997  24.090  13.460
21063W        W87604   5.461  27.954  12.688
21064W        W87605  19.661  11.056   4.149
21065W        W87606  13.121  12.543   1.454
21066W        W87607  24.994  13.393   1.887
21067W        W87608  24.975  19.708   4.842
21068W        W87609  41.007  12.440  11.560
21069W        W87610  25.951   0.230  13.353
21070W        W87611  12.135   1.972   3.669
21071W        W87612  31.929  15.138   3.784
21072W        W87613  23.237   8.253   5.148
21073W        W87614  41.383  32.031   4.632
21074W        W87615  11.143   3.941   3.726
21075W        W87616   1.554  36.255  11.555
21076W        W87617  31.809  33.876   4.552
21077W        W87618  28.634  36.326  12.967
21078W        W87619  34.086  27.766   4.523
21079W        W87620  24.607  12.037   4.565
21080W        W87621  36.128  33.074  10.714
21081W        W87622  23.919  37.812   4.666
21082W        W87623   6.880   5.407  11.017
21083W        W87624   0.810  24.931   5.020
21084W        W87625  35.454   1.734   4.040
21085W        W87626  20.065  16.463  12.971
21086W        W87627  13.629  44.393   1.300
21087W        W87628  33.584   0.492  11.827
21088W        W87629  12.786  24.407  13.600
21089W        W87630  16.697   6.275  14.609
21090W        W87631  17.989   3.708  13.950
21091W        W87632  30.969   3.354   0.213
21092W        W87633  14.250  25.712  12.889
21093W        W87634   1.803   9.863  12.956
21094W        W87635   7.327   5.489  14.030
21095W        W87636  37.128  41.798  14.424
21096W        W87637  12.554  20.812  11.964
21097W        W87638  19.748  16.062  13.468
21098W        W87639  23.619  38.018   0.853
21099W        W87640  11.081  12.557  13.987
21100W        W87641  43.282  39.334   2.410
21101W        W87642   5.692  17.397   4.770
21102W        W87643  25.806  26.586   0.943
21103W        W87644   1.906  23.079   4.589
21104W        W87645  37.614  27.974   1.846
21105W        W87646   5.932  43.930   1.177
21106W        W87647  33.515  35.807  12.529
21107W        W87648   6.709   8.911  11.998
21108W        W87649  24.400  44.556   5.038
21109W        W87650   7.650  23.319   1.015
21110W        W87651  35.663  26.469  13.920
21111W        W87652   7.417  36.017   2.805
21112W        W87653  44.884   2.870   2.686
21113W        W87654  30.246  27.016  13.720
21114W        W87655  38.417  26.703  14.027
21115W        W87656  26.766   9.192   3.139
21116W        W87657  23.994  11.452  12.009
21117W        W87658   3.353  21.453   4.715
21118W        W87659  33.660  40.256   3.661
21119W        W87660  30.117  22.524   3.137
21120W        W87661  16.284   8.757   1.377
21121W        W87662  23.464   6.945   2.181
21122W        W87663  21.750  40.372   2.261
21123W        W87664   1.984  28.388  11.903
21124W        W87665  37.013  27.926   2.695
21125W        W87666  25.414  30.273   4.593
21126W        W87667   2.247   6.501  14.319
21127W        W87668  41.458  20.196  13.426
21128W        W87669   9.188  43.588  13.462
21129W        W87670  24.476   8.419  11.536
21130W        W87671  42.048  20.525  14.240
21131W        W87672  16.641  13.426   2.988
21132W        W87673  16.292  32.901   3.245
21133W        W87674  18.909  15.197  12.924
21134W        W87675   0.244   4.698   1.961
21135W        W87676   5.340  32.390   0.426
21136W        W87677  37.635  17.036  13.015
21137W        W87678   1.753  37.251   4.110
21138W        W87679  19.619   0.573  14.057
21139W        W87680   5.706  44.347  10.124
21140W        W87681  12.685  25.100  14.264
21141W        W87682  21.320  30.437  12.381
21142W        W87683  26.646  39.881   3.336
21143W        W87684  19.152   8.273  10.756
21144W        W87685  37.859  11.220   4.158
21145W        W87686  21.138  25.251  13.192
21146W        W87687   0.447  36.941   1.866
21147W        W87688  39.922   6.143  10.451
21148W        W87689   5.045  21.284  14.850
21149W        W87690   5.866   1.964  12.987
21150W        W87691  44.766  24.100   1.807
21151W        W87692  37.954   1.463   0.289
21152W        W87693   9.859   3.770  10.901
21153W        W87694  10.257   6.262   3.689
21154W        W87695   4.275  34.988  12.228
21155W        W87696  43.093  28.516  12.534
21156W        W87697  12.793  15.600   4.977
21157W        W87698  40.020  10.056  11.188
21158W        W87699   7.117  30.952  11.186
21159W        W87700   9.259  27.639  12.911
21160W        W87701  37.294  40.683   2.870
21161W        W87702  33.609  42.512   4.920
21162W        W87703   0.470  26.270   4.182
21163W        W87704  19.097   3.429   2.854
21164W        W87705  35.228  38.096  14.456
21165W        W87706  23.742  26.450   4.665
21166W        W87707  38.093  13.975  12.911
21167W        W87708  16.673  12.511  11.501
21168W        W87709  26.504   5.104  11.147
21169W        W87710   9.822  41.785  11.431
21170W        W87711  14.395  15.857   0.833
21171W        W87712  41.537  26.348   2.842
21172W        W87713  38.308  34.809   3.663
21173W        W87714  44.860   6.350   4.657
21174W        W87715  14.313  28.632   1.691
21175W        W87716  36.730   1.069   3.176
21176W        W87717   2.196  25.726   4.079
21177W        W87718  25.145  35.420   3.157
21178W        W87719  16.155  18.568   3.016
21179W        W87720  19.180  38.365   1.822
21180W        W87721  17.643  24.000   1.044
21181W        W87722   6.401  11.437   4.533
21182W        W87723  12.893  33.014   1.881
21183W        W87724  36.235  16.301   0.938
21184W        W87725  43.434  38.408  12.429
21185W        W87726  19.031  37.990   1.308
21186W        W87727  26.403   7.364   3.631
21187W        W87728   0.731  40.230  11.617
21188W        W87729   5.409  25.173  13.933
21189W        W87730  10.774  32.111   1.802
21190W        W87731   4.261  16.556   1.802
21191W        W87732  42.340  33.567   2.752
21192W        W87733   3.770  10.103  14.707
21193W        W87734  12.626  35.495  13.349
21194W        W87735   6.811  34.555   3.303
21195W        W87736  38.967   4.847   3.190
21196W        W87737  44.814  19.047  14.337
21197W        W87738  27.495   2.723   0.293
21198W        W87739   4.377   3.029  13.000
21199W        W87740  17.720  41.590  13.252
21200W        W87741  14.421  40.979   4.498
21201W        W87742   2.648  11.128  11.170
21202W        W87743  22.818  17.016   4.556
21203W        W87744  19.685   7.100  13.501
21204W        W87745  34.541  21.624  13.491
21205W        W87746   1.726  29.988  11.570
21206W        W87747  24.273  14.796  13.902
21207W        W87748  43.776   6.366   0.399
21208W        W87749  18.168  30.155   3.266
21209W        W87750   6.775   1.791   2.472
21210W        W87751  42.286  29.093   2.669
21211W        W87752  27.016   5.283   4.075
21212W        W87753  30.521  32.371   3.173
21213W        W87754   1.365  25.139   2.862
21214W        W87755   5.770  28.447   0.357
21215W        W87756   1.669  29.010   1.779
21216W        W87757   6.326   3.445  11.504
21217W        W87758   6.786  44.426   1.453
21218W        W87759   1.662   5.930  11.969
21219W        W87760  24.048  18.028  11.185
21220W        W87761  11.407  43.759  11.660
21221W        W87762  43.387  18.057   3.928
21222W        W87763   5.096  42.116  13.112
21223W        W87764   6.889   0.279   2.451
21224W        W87765  16.867   6.926   4.154
21225W        W87766   9.284   1.995   0.779
21226W        W87767  41.966  38.617  11.123
21227W        W87768  15.804  23.609   1.657
21228W        W87769  24.120  23.805   0.822
21229W        W87770  17.996  24.670   0.345
21230W        W87771   2.023  32.652   3.020
21231W        W87772   0.950  31.029  12.381
21232W        W87773  11.711  11.093  10.678
21233W        W87774   8.446  31.768   0.868
21234W        W87775  22.522  27.896  11.577
21235W        W87776  33.145   6.958   1.795
21236W        W87777  15.854  32.823   2.697
21237W        W87778  28.220   2.429   1.881
21238W        W87779  33.880   1.305   0.819
21239W        W87780  32.105  33.070   0.340
21240W        W87781  32.468  34.173   0.932
21241W        W87782  29.858  43.788   0.339
21242W        W87783  38.371  32.454   1.414
21243W        W87784  24.533   7.458   0.342
21244W        W87785  22.639   1.896  11.060
21245W        W87786  40.642  43.741   1.165
21246W        W87787  12.622   6.380   1.514
21247W        W87788   9.237  18.814   1.981
21248W        W87789  33.545  17.370  14.253
21249W        W87790  12.277  27.782  12.824
21250W        W87791  34.418  38.149   3.848
21251W        W87792   0.413  26.481  12.388
21252W        W87793  38.471  12.282  11.685
21253W        W87794  28.623  29.958  14.730
21254W        W87795  41.674  21.523  13.198
21255W        W87796  29.159  17.976   1.815
21256W        W87797   7.466  24.948  14.124
21257W        W87798  24.655  34.521   4.088
21258W        W87799  19.272  23.170  12.119
21259W        W87800  26.603  24.490   4.198
21260W        W87801  13.560  24.025   4.136
21261W        W87802   4.708  38.971  13.583
21262W        W87803  42.533  44.831  11.154
21263W        W87804  22.468  40.175  13.788
21264W        W87805  14.644  11.668   4.552
21265W        W87806  38.403   9.191  14.924
21266W        W87807  18.497  23.002  12.079
21267W        W87808   6.344  41.875  11.213
21268W        W87809  19.997  32.901   2.794
21269W        W87810  12.233  40.380   3.787
21270W        W87811  34.957  12.785   3.170
21271W        W87812  29.998  44.351  12.852
21272W        W87813  13.143  18.150   3.147
21273W        W87814   7.586  20.342   0.567
21274W        W87815  18.245  30.535   3.604
21275W        W87816  31.848  38.785  10.376
21276W        W87817   2.194   8.730  13.884
21277W        W87818   7.897  15.621  13.475
21278W        W87819   5.349  35.046   0.491
21279W        W87820  23.429  20.902   4.289
21280W        W87821  27.988  17.553   1.334
21281W        W87822  34.823  16.122  12.041
21282W        W87823  44.756   6.432  11.987
21283W        W87824  42.429  25.473   0.332
21284W        W87825  31.949   8.291   1.912
21285W        W87826   3.760  40.086  12.979
21286W        W87827  23.389  14.860   4.066
21287W        W87828  12.158  43.335  11.190
21288W        W87829   5.380  33.121   4.960
21289W        W87830   4.708  25.055   3.511
21290W        W87831  13.883  27.001   3.342
21291W        W87832  44.001   2.930   0.935
21292W        W87833  31.878   1.706  12.939
21293W        W87834  36.661  24.137   2.166
21294W        W87835   3.483   1.974  12.488
21295W        W87836  19.131   2.811  13.986
21296W        W87837  39.921  44.012   0.814
21297W        W87838  39.838  21.104   0.234
21298W        W87839  13.726  11.797  13.100
21299W        W87840  36.788  11.338  12.301
21300W        W87841  33.790  41.280  10.471
21301W        W87842  30.445  34.621   1.989
21302W        W87843  22.716  16.202   0.960
21303W        W87844  30.016  24.719  13.563
21304W        W87845  18.236  11.513   5.047
21305W        W87846   6.734  24.980   0.705
21306W        W87847  12.334  14.243   4.643
21307W        W87848  16.612  40.613  14.482
21308W        W87849   8.241  38.388   2.320
21309W        W87850  15.118  24.164  10.551
21310W        W87851  14.464  19.143   4.658
21311W        W87852  15.348   8.184   0.601
21312W        W87853  34.185   8.253   2.863
21313W        W87854  25.120  42.166   2.391
21314W        W87855  38.906  44.552  10.977
21315W        W87856  17.690  13.430   9.765
21316W        W87857  41.479   5.356  12.582
21317W        W87858  32.691  28.508  12.471
21318W        W87859   5.911  28.430   4.626
21319W        W87860  14.291  39.046  13.416
21320W        W87861  32.586  19.146  12.914
21321W        W87862   0.348  27.043  10.543
21322W        W87863  14.981   9.200  14.254
21323W        W87864  37.668  26.533  10.703
21324W        W87865  36.640  37.946  12.035
21325W        W87866  41.275   4.948  12.832
21326W        W87867   1.556   3.757  13.827
21327W        W87868   6.304  34.156  12.956
21328W        W87869   9.437  19.301   1.295
21329W        W87870  42.880   7.016   3.419
21330W        W87871   4.453   5.193  10.712
21331W        W87872  27.808  44.462   2.931
21332W        W87873  24.121   3.840   4.358
21333W        W87874  32.445  38.834   0.912
21334W        W87875  22.326   1.991  11.452
21335W        W87876  40.495  15.049   1.677
21336W        W87877  22.735   3.986   2.771
21337W        W87878  14.087  41.507   0.107
21338W        W87879   3.242  16.864  14.533
21339W        W87880   3.933  10.258  12.099
21340W        W87881  10.326  15.412   4.132
21341W        W87882  10.796  43.440  10.692
21342W        W87883  34.644  36.832   1.877
21343W        W87884  17.491  21.235   0.381
21344W        W87885   4.176  14.849  13.747
21345W        W87886  35.649  15.697   2.333
21346W        W87887  26.648  14.727  11.120
21347W        W87888  38.318   6.865   3.603
21348W        W87889  19.855  16.044  12.178
21349W        W87890  23.202  44.308   0.308
21350W        W87891   1.316  14.305   1.944
21351W        W87892   0.829   8.264  12.543
21352W        W87893  37.125  11.625  13.576
21353W        W87894  39.833  33.222   2.680
21354W        W87895  11.261  34.996  12.487
21355W        W87896  43.234  20.913   2.348
21356W        W87897  28.686  32.951   2.356
21357W        W87898  22.456  31.365  14.290
21358W        W87899   8.306   3.298   4.822
21359W        W87900  22.156  14.875   0.211
21360W        W87901  40.295  26.963  14.862
21361W        W87902  14.320  38.351   2.358
21362W        W87903  34.453  42.282  11.196
21363W        W87904  25.194  11.106   2.317
21364W        W87905   1.272   3.380  10.622
21365W        W87906   0.216  24.721   4.564
21366W        W87907  11.335  10.229  11.568
21367W        W87908   9.215  36.231   4.998
21368W        W87909  44.466  27.009  11.493
21369W        W87910  30.151  33.345  13.340
21370W        W87911  28.712   4.836  12.604
21371W        W87912  24.471   2.272  11.029
21372W        W87913  20.175  33.390  14.487
21373W        W87914  29.019  12.661   0.186
21374W        W87915   2.626   2.946  13.456
21375W        W87916   7.977  42.068   4.098
21376W        W87917  34.413  30.643   2.931
21377W        W87918  14.562  40.476   1.327
21378W        W87919  39.036  40.842  13.876
21379W        W87920  39.500  20.247  11.444
21380W        W87921  21.111  19.813   4.076
21381W        W87922  10.280  34.434  14.828
21382W        W87923   3.829   2.373  12.510
21383W        W87924  32.398  37.951  12.498
21384W        W87925  44.537  14.069  13.870
21385W        W87926   3.772  31.966  13.447
21386W        W87927  38.606  37.779   4.112
21387W        W87928  12.162  39.823  10.933
21388W        W87929  14.002  39.479  12.314
21389W        W87930  26.655   2.926   1.583
21390W        W87931   7.907   4.774   3.168
21391W        W87932  19.495  17.327   4.853
21392W        W87933  16.223  23.491   0.888
21393W        W87934   4.151  23.057  11.845
21394W        W87935  16.635  25.659  13.518
21395W        W87936  18.787  25.949   2.390
21396W        W87937   0.031  10.770  11.837
21397W        W87938  39.015  15.869  10.734
21398W        W87939  15.133  30.245  13.404
21399W        W87940  12.847  33.455  13.837
21400W        W87941  18.736  16.656  12.589
21401W        W87942   0.031  18.039  11.358
21402W        W87943   7.649   6.242   0.693
21403W        W87944   9.541  26.633   4.832
21404W        W87945   0.893   6.465   1.439
21405W        W87946  33.377  30.632  10.079
21406W        W87947  11.142  18.436  12.053
21407W        W87948   4.996  28.441  10.976
21408W        W87949  37.864  28.930   9.975
21409W        W87950  18.546  32.548   4.299
21410W        W87951  40.739  24.236   1.431
21411W        W87952  24.603  24.549  11.689
21412W        W87953   3.294  33.374  12.538
21413W        W87954  37.804  31.283  14.433
21414W        W87955  15.397  13.849   1.887
21415W        W87956  43.486  38.113  14.880
21416W        W87957  29.889   3.909  12.053
21417W        W87958  21.601  22.714  14.772
21418W        W87959  35.690  37.016   3.099
21419W        W87960  31.224  21.572   1.635
21420W        W87961  37.488   1.902   1.367
21421W        W87962   3.687   4.768   1.726
21422W        W87963  32.003  11.333   3.631
21423W        W87964  26.412  27.631   1.448
21424W        W87965  31.914  15.049  12.576
21425W        W87966  39.103  33.044   3.670
21426W        W87967  36.348  42.239  13.424
21427W        W87968  39.911  33.603   4.163
21428W        W87969  22.194  11.301   0.650
21429W        W87970  40.396  15.687   3.304
21430W        W87971  33.310  31.169  14.431
21431W        W87972  27.745  33.811   3.942
21432W        W87973  36.078  12.671  12.783
21433W        W87974  21.404  26.436   4.352
21434W        W87975   0.441  33.927   1.925
21435W        W87976  23.493   4.950  12.034
21436W        W87977  30.315  11.058  12.962
21437W        W87978  28.117   1.832  12.147
21438W        W87979  11.796  23.641  12.913
21439W        W87980   9.825  17.529   3.187
21440W        W87981  41.146  19.330  14.846
21441W        W87982  32.076  23.070   4.295
21442W        W87983  22.456  39.041   2.835
21443W        W87984   9.356  28.598   0.447
21444W        W87985  28.732  39.016   3.818
21445W        W87986   0.251  30.098  12.548
21446W        W87987  30.195  25.649  12.533
21447W        W87988  41.995   6.011   2.856
21448W        W87989  42.425   8.798  13.119
21449W        W87990  20.410  29.624   2.775
21450W        W87991  19.497  38.839   4.706
21451W        W87992  32.504  38.364   3.851
21452W        W87993  39.326  40.074   4.103
21453W        W87994  33.693  13.760   1.864
21454W        W87995  18.067  20.719  14.886
21455W        W87996  23.955   7.196   3.602
21456W        W87997  39.733  41.993   3.662
21457W        W87998   3.870  31.001   3.711
21458W        W87999  34.647  15.442   0.946
21459W        W88000  29.480   4.566   4.103
21460W        W88001  36.087  27.962   2.989
21461W        W88002  11.941  12.662  10.762
21462W        W88003  12.638  39.394   0.654
21463W        W88004  44.941  39.493  12.585
21464W        W88005  31.610  12.754  14.780
21465W        W88006   2.283  19.978   4.046
21466W        W88007  21.661  11.739   2.791
21467W        W88008  16.222   2.709   4.544
21468W        W88009   3.829  44.239  14.427
21469W        W88010  14.900   1.247   0.514
21470W        W88011  40.028   7.185   3.256
21471W        W88012  43.301  33.037  12.179
21472W        W88013  33.690  38.439  12.649
21473W        W88014  35.881  44.707   1.068
21474W        W88015   4.365  37.617   3.821
21475W        W88016  18.060  17.731  14.213
21476W        W88017  30.414  41.247   3.497
21477W        W88018   7.718  19.741  12.525
21478W        W88019   8.374  34.965   1.574
21479W        W88020   7.706  30.035   0.797
21480W        W88021  42.087  18.208   1.958
21481W        W88022  28.998  12.353  14.262
21482W        W88023  15.792   6.741  12.639
21483W        W88024  43.382  30.133   4.123
21484W        W88025  39.875  34.935  11.510
21485W        W88026  36.821  17.086   2.485
21486W        W88027   2.474  38.366   3.034
21487W        W88028  22.492  28.858   1.088
21488W        W88029  13.483  33.420  12.620
21489W        W88030  23.644  37.878   2.243
21490W        W88031  40.381  11.471   2.406
21491W        W88032   2.975  40.655   0.939
21492W        W88033  18.508  18.307  11.720
21493W        W88034  38.349  43.798   2.694
21494W        W88035  17.864  39.197  13.977
21495W        W88036  27.576  20.059  14.468
21496W        W88037  31.644  12.302   1.304
21497W        W88038  37.887  23.665   2.397
21498W        W88039   5.412  35.028  14.404
21499W        W88040  14.496   4.309  11.168
21500W        W88041  37.914  33.166  14.878
21501W        W88042  40.765  34.053  13.511
21502W        W88043   6.152  40.254  10.744
21503W        W88044  18.730  41.503  11.446
21504W        W88045   0.306  43.549  13.002
21505W        W88046  42.974  20.944   2.791
21506W        W88047  25.714  35.607   2.295
21507W        W88048   9.907  21.215   0.293
21508W        W88049  14.895  42.768   2.892
21509W        W88050  36.331  20.779  11.896
21510W        W88051  36.110   6.157  12.534
21511W        W88052  14.963  15.575   2.188
21512W        W88053   9.954  40.396   3.547
21513W        W88054  35.075  40.899  10.971
21514W        W88055  23.086  32.849  11.981
21515W        W88056  36.093  39.988   4.588
21516W        W88057  24.724   0.244  10.550
21517W        W88058   6.579  31.902  12.348
21518W        W88059  29.999   2.340  11.388
21519W        W88060   7.848  42.288  13.398
21520W        W88061  20.171  31.902   4.879
21521W        W88062   1.440  23.533  11.014
21522W        W88063   0.405  18.628  14.902
21523W        W88064   8.175  11.781   2.390
21524W        W88065  41.338  31.666   2.313
21525W        W88066  16.853  18.593   1.880
21526W        W88067  30.364  22.046   3.189
21527W        W88068  28.734  41.529  14.413
21528W        W88069   7.307  43.296   4.977
21529W        W88070  38.532  42.981  12.192
21530W        W88071   5.539  31.408  14.993
21531W        W88072  23.407   6.926   3.132
21532W        W88073   2.691  29.836   2.672
21533W        W88074  38.649  36.979  11.085
21534W        W88075  23.155  21.546  12.877
21535W        W88076  11.619  18.293  13.839
21536W        W88077   5.614  42.473  10.523
21537W        W88078  27.159  28.537   1.222
21538W        W88079  29.948   6.597  11.633
21539W        W88080  24.595  22.304   2.126
21540W        W88081   0.739  44.953  12.640
21541W        W88082   3.893  11.365   1.627
21542W        W88083  27.078  38.333   3.231
21543W        W88084   3.734  15.177  12.891
21544W        W88085   3.930   5.332  10.632
21545W        W88086  17.028  42.541   4.564
21546W        W88087   3.700  24.993   3.738
21547W        W88088  35.938  35.619  11.650
21548W        W88089  22.588  38.095   2.607
21549W        W88090   0.899  15.726  13.007
21550W        W88091  40.159  40.068  10.801
21551W        W88092  36.891  37.706  11.606
21552W        W88093  10.032  33.580   0.830
21553W        W88094   4.959  20.281  14.104
21554W        W88095  36.931  40.194   4.324
21555W        W88096  39.945  34.331   1.970
21556W        W88097  12.100  22.962   2.677
21557W        W88098  14.267  43.731   1.295
21558W        W88099  32.762  25.179   3.753
21559W        W88100  32.544  34.432  11.965
21560W        W88101  31.949  10.911   1.187
21561W        W88102  11.507  31.845  11.037
21562W        W88103  26.401   2.998  12.025
21563W        W88104  17.604  13.175   4.072
21564W        W88105   6.474   3.322  11.972
21565W        W88106  29.676   2.860   0.698
21566W        W88107   5.812   5.333  12.458
21567W        W88108  31.048  10.292  10.257
21568W        W88109  23.105   2.516  13.859
21569W        W88110  19.035   3.859  14.830
21570W        W88111  22.164   2.878   3.161
21571W        W88112  16.044  18.053  11.700
21572W        W88113  31.942  19.949  13.992
21573W        W88114   3.994   2.148  11.168
21574W        W88115   9.688   4.245  13.344
21575W        W88116  37.830  20.277   2.192
21576W        W88117  26.258  35.286   4.117
21577W        W88118  40.755  24.471   2.601
21578W        W88119  27.269   1.088  12.467
21579W        W88120   8.006   3.627  11.139
21580W        W88121   2.318  42.074  12.710
21581W        W88122  43.969  34.359   1.361
21582W        W88123  20.351   7.422  12.545
21583W        W88124  31.661  32.587  12.993
21584W        W88125   3.935  21.740   2.094
21585W        W88126  42.229  21.038  10.900
21586W        W88127  36.294  28.423   4.462
21587W        W88128  26.175  43.519   1.231
21588W        W88129  20.486  24.204   0.013
21589W        W88130   9.630  26.214   1.226
21590W        W88131  37.284  23.842  11.450
21591W        W88132  14.813  17.387   0.344
21592W        W88133  43.474  37.049  13.816
21593W        W88134   7.533  21.503  10.916
21594W        W88135  32.538  38.032  10.394
21595W        W88136  30.587   3.392  12.670
21596W        W88137  33.897  20.948   2.495
21597W        W88138  22.448  36.900  12.188
21598W        W88139  27.508  15.259   0.291
21599W        W88140  29.572   2.958  10.818
21600W        W88141   4.802  42.865   3.659
21601W        W88142  34.504   6.663  14.943
21602W        W88143  23.750  23.566   1.874
21603W        W88144  21.747  18.257   2.627
21604W        W88145  25.582  28.371  11.673
21605W        W88146   4.782  42.707   2.272
21606W        W88147  36.076  34.999   2.304
21607W        W88148  37.612   1.927  12.207
21608W        W88149  18.111  31.411  14.902
21609W        W88150  26.042  18.209  10.695
21610W        W88151  39.733  17.828   4.461
21611W        W88152   2.684   3.674   4.072
21612W        W88153  35.025  16.663   4.846
21613W        W88154  18.145  27.881  13.558
21614W        W88155  34.535   2.782   3.155
21615W        W88156  43.408  23.610  14.973
21616W        W88157  32.962   6.450  11.827
21617W        W88158  33.815  39.524   0.923
21618W        W88159  26.501   5.780  11.439
21619W        W88160  23.959  41.976  13.358
21620W        W88161  30.562  37.940   3.396
21621W        W88162  39.022  32.523   3.587
21622W        W88163  27.352  43.257  12.483
21623W        W88164  15.537  10.967   1.497
21624W        W88165  44.973   1.391   4.275
21625W        W88166  17.804  32.974  13.037
21626W        W88167  30.057  32.158   3.192
21627W        W88168  13.818  10.180  10.256
21628W        W88169  18.948  41.457   4.860
21629W        W88170  35.559  20.716  11.477
21630W        W88171  19.529  34.171   0.912
21631W        W88172  15.711  10.008   4.276
21632W        W88173  25.558  15.291  13.581
21633W        W88174  26.232   0.384   4.278
21634W        W88175  11.810  21.478  12.915
21635W        W88176  40.876  29.461   0.728
21636W        W88177  33.545   3.937   2.373
21637W        W88178  33.111  10.472   0.468
21638W        W88179  37.475  10.378   4.968
21639W        W88180   1.879   9.633  12.478
21640W        W88181  14.548  13.686   0.962
21641W        W88182  23.201   1.700  14.290
21642W        W88183  24.629  30.097   2.184
21643W        W88184   1.017  14.290   4.011
21644W        W88185  35.040  28.179  11.493
21645W        W88186   6.326  13.078  14.067
21646W        W88187   5.471   1.948   2.696
21647W        W88188  31.919  28.029  11.079
21648W        W88189   6.683  35.356   1.397
21649W        W88190   9.899  28.368   3.634
21650W        W88191  20.410  15.216  10.909
21651W        W88192  13.313  20.016   1.894
21652W        W88193   5.703  28.224  13.089
21653W        W88194  17.076  17.733  14.710
21654W        W88195   2.815   7.689  11.980
21655W        W88196  29.916  19.638  11.635
21656W        W88197   6.673  25.692  12.475
21657W        W88198  22.214   9.725   4.408
21658W        W88199   8.468  23.487  11.930
21659W        W88200  14.083  41.041  13.470
21660W        W88201  41.114   8.601  10.551
21661W        W88202  17.953  37.556   2.518
21662W        W88203  41.913  29.489  14.023
21663W        W88204  26.900   6.528   3.185
21664W        W88205   3.567  34.751   2.864
21665W        W88206  24.435  17.849   3.057
21666W        W88207  22.443  37.823   0.249
21667W        W88208  22.552  39.606   3.703
21668W        W88209  41.402  41.859   0.512
21669W        W88210  24.493  13.695  12.767
21670W        W88211  42.273  13.247   0.828
21671W        W88212   2.300  18.150   1.819
21672W        W88213  28.395  31.606   4.306
21673W        W88214  13.132  23.044   2.862
21674W        W88215  27.536  30.994  12.865
21675W        W88216  18.223  18.251   0.968
21676W        W88217  36.802   7.009   4.633
21677W        W88218  16.168  15.420  10.233
21678W        W88219  12.705   0.887  12.364
21679W        W88220  18.508   6.737   3.307
21680W        W88221  44.039  23.996  14.949
21681W        W88222  17.763  44.643   4.430
21682W        W88223   0.293   1.530   2.761
21683W        W88224  31.115  25.458  12.855
21684W        W88225  26.708   7.142   0.473
21685W        W88226  29.746  19.372  11.199
21686W        W88227  13.113  35.586   3.335
21687W        W88228  26.059  29.630   2.641
21688W        W88229  44.100  17.619  10.383
21689W        W88230   6.230   3.330   2.221
21690W        W88231  15.102   2.909   0.819
21691W        W88232  42.502  31.157   3.670
21692W        W88233  32.581  19.279  12.053
21693W        W88234  35.545  27.275  12.513
21694W        W88235  18.241  31.021   3.413
21695W        W88236  12.095  41.732   3.643
21696W        W88237  19.754  40.465   4.081
21697W        W88238  33.682  34.869   0.271
21698W        W88239  10.276  37.484  13.010
21699W        W88240  24.111  22.844  12.254
21700W        W88241  14.374  43.715   2.826
21701W        W88242  35.592  38.336   1.901
21702W        W88243  44.966   2.927  13.890
21703W        W88244  24.111  11.392   3.883
21704W        W88245   9.136  34.280   1.724
21705W        W88246  15.328  25.100  10.653
21706W        W88247  31.137  27.246   1.371
21707W        W88248   8.718  31.634  10.719
21708W        W88249  11.340  16.772   4.241
21709W        W88250  36.143   9.172  11.150
21710W        W88251  22.591  22.078  14.309
21711W        W88252  11.166  29.189  11.706
21712W        W88253  24.556  31.003   1.221
21713W        W88254  10.804  18.102   4.286
21714W        W88255   7.614  28.142  14.142
21715W        W88256  18.236  39.276  14.845
21716W        W88257  35.710  34.168   3.350
21717W        W88258  11.317   3.210   3.227
21718W        W88259  30.903  35.362  13.751
21719W        W88260  39.720  30.902  11.150
21720W        W88261  12.283  26.949   0.402
21721W        W88262  16.095  31.439  13.886
21722W        W88263  11.356  36.321  14.187
21723W        W88264  12.350   7.687  10.787
21724W        W88265  21.022  14.974  11.825
21725W        W88266  10.800   8.397  10.764
21726W        W88267  30.768  18.690  13.751
21727W        W88268  30.460  25.450   0.766
21728W        W88269  10.613  37.191  11.207
21729W        W88270  29.320  20.327  13.599
21730W        W88271   1.413  17.863   2.452
21731W        W88272  11.691  18.135   0.229
21732W        W88273   6.550  35.897   4.160
21733W        W88274   2.440  13.389   4.078
21734W        W88275  23.209  44.385  13.559
21735W        W88276  34.647  10.605  12.717
21736W        W88277  31.472  18.602   2.840
21737W        W88278   7.873   6.314   3.076
21738W        W88279   9.121  31.610  11.958
21739W        W88280  25.604  16.185  12.165
21740W        W88281   1.774  21.815   2.709
21741W        W88282  22.283   8.251   1.315
21742W        W88283  43.426  38.348  14.413
21743W        W88284  19.184   5.167   3.522
21744W        W88285   2.906  38.546  13.770
21745W        W88286  34.851  36.518   1.429
21746W        W88287   2.238  31.984   0.737
21747W        W88288  13.056  35.018  12.062
21748W        W88289  13.231  24.311  13.872
21749W        W88290  32.271  20.171   3.810
21750W        W88291   5.784  36.724   4.475
21751W        W88292  40.471   3.908   2.251
21752W        W88293  41.972  30.857   4.642
21753W        W88294  33.598   4.692   1.853
21754W        W88295  26.467   5.362   2.351
21755W        W88296   8.648   4.763   2.136
21756W        W88297  36.164  16.770  14.527
21757W        W88298  38.866   2.457   2.675
21758W        W88299  24.182  25.473   4.770
21759W        W88300   1.300  28.923  13.990
21760W        W88301  14.299  26.479  12.125
21761W        W88302  13.165  30.642  11.739
21762W        W88303  23.688  17.989   3.780
21763W        W88304  41.742   8.147  14.312
21764W        W88305  16.035  43.900  14.526
21765W        W88306   4.244  30.703   3.485
21766W        W88307  41.545  10.449  12.286
21767W        W88308  44.585  44.200   3.764
21768W        W88309   2.911  35.858   3.354
21769W        W88310  37.927   2.009   1.966
21770W        W88311  29.472  30.354  10.451
21771W        W88312  36.355  27.281   3.356
21772W        W88313  22.130   0.564  11.970
21773W        W88314  35.389  26.387  11.096
21774W        W88315  23.754  35.049   1.947
21775W        W88316  44.836  41.034  11.144
21776W        W88317   2.583  35.008   3.145
21777W        W88318  42.899  42.235  11.567
21778W        W88319  38.009  38.798  10.676
21779W        W88320   1.453  17.880   1.947
21780W        W88321   2.304  25.839   0.941
21781W        W88322  14.397  11.563  11.332
21782W        W88323  35.826  20.719   4.384
21783W        W88324  44.212   0.690   1.848
21784W        W88325  23.588  19.066   1.992
21785W        W88326  11.230   9.217  14.751
21786W        W88327  26.665   8.420  12.388
21787W        W88328  14.811  44.280  12.563
21788W        W88329  39.031  15.710  13.057
21789W        W88330   8.395  18.687   3.748
21790W        W88331  26.015  15.291  13.848
21791W        W88332  12.304  24.590   1.850
21792W        W88333  37.837  16.184  10.701
21793W        W88334  34.489  41.947  11.609
21794W        W88335  18.958  38.359  14.038
21795W        W88336  28.108  34.989   4.327
21796W        W88337  25.729   3.082   2.532
21797W        W88338  12.544  22.475   0.887
21798W        W88339  34.945  24.556  13.373
21799W        W88340  31.764   3.292  11.184
21800W        W88341   4.277   9.372   1.432
21801W        W88342  43.612  35.641  12.030
21802W        W88343  20.511   4.894   3.037
21803W        W88344   3.109  16.851   1.702
21804W        W88345  33.467  30.963   4.169
21805W        W88346   2.313  30.582   9.965
21806W        W88347   2.344  25.856   9.811
21807W        W88348   4.218  22.724   3.251
21808W        W88349   0.718  43.631   4.159
21809W        W88350  24.487  14.582   0.856
21810W        W88351  19.164  40.989  13.015
21811W        W88352   4.275  10.842   3.320
21812W        W88353   9.615  36.281  12.950
21813W        W88354  23.436  17.755  10.703
21814W        W88355  19.228   6.837  12.166
21815W        W88356  11.357  25.353   2.212
21816W        W88357  12.339  38.031   0.894
21817W        W88358  43.568   0.496  14.281
21818W        W88359  20.187  15.868   3.874
21819W        W88360  16.205  43.034   3.502
21820W        W88361  38.928  38.689   2.967
21821W        W88362  32.549   8.946  14.871
21822W        W88363  14.299  26.066  10.867
21823W        W88364   9.732  10.159   3.228
21824W        W88365  23.070   4.308   0.319
21825W        W88366   6.651  41.016   2.798
21826W        W88367  23.792  31.403   1.730
21827W        W88368  31.716  10.855   3.352
21828W        W88369   7.456  19.343  14.398
21829W        W88370  21.621  36.064  14.317
21830W        W88371  44.181  30.873   1.688
21831W        W88372  23.554   1.379  12.318
21832W        W88373  18.789   8.384  10.377
21833W        W88374  43.570   0.550  11.186
21834W        W88375  35.668  18.295   4.540
21835W        W88376  33.571  26.445  10.977
21836W        W88377  21.530  36.918  14.333
21837W        W88378  38.213  15.884  13.364
21838W        W88379  30.940   4.664  12.592
21839W        W88380  17.601  38.016   1.002
21840W        W88381  34.384  12.384  11.570
21841W        W88382  44.276  33.992   4.487
21842W        W88383   8.600  15.157  11.518
21843W        W88384  25.533   6.430   0.225
21844W        W88385   7.446  20.257   2.944
21845W        W88386  10.373  18.075   0.485
21846W        W88387   1.964  30.781   1.354
21847W        W88388  28.942  19.608  13.091
21848W        W88389  38.423  18.550  13.396
21849W        W88390   9.819   0.406  11.438
21850W        W88391  10.803  13.422   0.524
21851W        W88392  29.878  33.896   0.539
21852W        W88393  16.880  26.912   4.114
21853W        W88394  21.534  13.549   2.364
21854W        W88395  11.605   6.640   3.141
21855W        W88396  34.357  13.756   4.808
21856W        W88397   9.903   9.499  14.923
21857W        W88398  17.672  21.678   1.294
21858W        W88399  37.119   7.356   0.859
21859W        W88400  37.168  33.126  14.922
21860W        W88401  26.353  29.280  13.809
21861W        W88402  37.649  13.408   4.596
21862W        W88403  31.972  39.100   1.812
21863W        W88404   0.342  25.216   1.501
21864W        W88405  25.798  26.532   2.802
21865W        W88406  15.682  26.860   3.683
21866W        W88407   7.243   1.472   4.152
21867W        W88408  20.743  26.796   1.300
21868W        W88409  40.276  17.096  12.491
21869W        W88410  26.782  10.135  12.319
21870W        W88411   5.922  26.861  13.333
21871W        W88412  44.061   4.203   1.689
21872W        W88413  42.785  44.979  14.777
21873W        W88414  41.746  22.838  11.501
21874W        W88415  15.517  14.678   4.426
21875W        W88416   8.565  14.881   2.192
21876W        W88417  23.756  36.984  12.381
21877W        W88418  11.320  43.382   4.060
21878W        W88419  10.830  25.605   2.898
21879W        W88420  29.541  37.518   1.765
21880W        W88421  31.612  26.637   4.640
21881W        W88422   9.257  13.652   1.955
21882W        W88423  32.490  22.768   3.622
21883W        W88424  40.255  14.669  14.936
21884W        W88425  39.280  35.889   0.491
21885W        W88426  43.224  21.673  10.546
21886W        W88427   2.927  10.667   1.352
21887W        W88428   9.813  12.283   4.640
21888W        W88429   6.946  38.263  11.954
21889W        W88430  17.377   8.435   0.801
21890W        W88431  30.419  29.546  13.491
21891W        W88432  41.281  15.307   5.091
21892W        W88433  16.224   3.364  14.012
21893W        W88434  22.102  37.784   3.855
21894W        W88435   6.208   6.816   1.983
21895W        W88436  29.162  27.315   1.516
21896W        W88437  20.342  19.662  12.661
21897W        W88438  42.613   3.913  12.533
21898W        W88439  14.848   3.350  13.882
21899W        W88440  10.328  42.025   3.326
21900W        W88441  30.526  12.708   2.737
21901W        W88442  37.162  13.681  13.959
21902W        W88443  38.458  36.167   2.772
21903W        W88444   5.462  43.711   3.648
21904W        W88445  43.715   2.295   2.278
21905W        W88446  41.813  31.654  10.485
21906W        W88447   2.326  33.064   2.373
21907W        W88448  26.945  32.126   0.430
21908W        W88449  32.793  20.965  12.456
21909W        W88450  28.394  19.697  13.944
21910W        W88451  15.421  27.483  10.544
21911W        W88452  19.237   9.648   2.179
21912W        W88453  13.069  12.325   3.225
21913W        W88454  28.142  39.220   4.627
21914W        W88455  18.488  20.322   3.155
21915W        W88456  28.658  34.458  11.531
21916W        W88457  27.450   7.040  13.319
21917W        W88458  26.778  42.020  12.932
21918W        W88459  42.380  43.495   2.982
21919W        W88460  17.387  31.878  10.502
21920W        W88461  16.994   6.959   2.951
21921W        W88462  22.804  22.855  13.308
21922W        W88463  44.740  33.108   0.769
21923W        W88464  42.677  18.778   1.352
21924W        W88465  34.016  31.815  10.065
21925W        W88466  44.067  44.313   1.901
21926W        W88467  14.471   0.023  12.473
21927W        W88468  27.110  13.793  12.798
21928W        W88469  42.717  32.971   1.118
21929W        W88470  36.133  38.389  11.446
21930W        W88471  31.987  22.064  13.917
21931W        W88472  23.022  33.049   4.477
21932W        W88473  38.518  41.992   4.083
21933W        W88474  13.031  16.171   0.853
21934W        W88475  26.165  14.025  14.079
21935W        W88476  32.063  35.016   0.687
21936W        W88477   6.491  26.005   5.140
21937W        W88478  38.034  33.477   4.481
21938W        W88479  31.637  42.902  11.047
21939W        W88480  21.743  10.730   3.732
21940W        W88481  18.293  18.224   3.338
21941W        W88482   3.334  14.152  11.015
21942W        W88483  34.883  35.958  14.053
21943W        W88484   3.800  32.134   3.597
21944W        W88485  14.684  40.753  14.943
21945W        W88486  37.097  20.759  12.988
21946W        W88487   2.287  27.975  14.855
21947W        W88488   9.337  34.416  11.915
21948W        W88489  40.578  19.178  14.937
21949W        W88490  44.981  30.512   9.999
21950W        W88491  19.799  16.029   0.282
21951W        W88492  28.649  13.091   2.415
21952W        W88493   1.855  25.504  13.396
21953W        W88494   4.662  17.746  11.735
21954W        W88495  31.015  43.373   3.497
21955W        W88496  11.120  25.695  12.494
21956W        W88497  11.876   5.689   1.481
21957W        W88498  20.617  31.462   4.223
21958W        W88499  35.100  13.944   4.377
21959W        W88500  22.019  10.650  11.113
21960W        W88501   1.782  16.903  12.470
21961W        W88502  13.352  35.938   1.585
21962W        W88503  37.410  31.574   2.770
21963W        W88504  19.335   3.389  13.811
21964W        W88505   0.794   8.893  12.637
21965W        W88506  16.368   5.535  12.864
21966W        W88507  19.773  14.994   1.197
21967W        W88508  29.476  27.491   0.667
21968W        W88509  44.591  31.434  10.745
21969W        W88510   6.118   1.361   2.377
21970W        W88511  39.874  28.269  12.878
21971W        W88512  13.871  29.118  11.982
21972W        W88513  38.954  24.504  11.623
21973W        W88514   8.367  36.311  12.053
21974W        W88515  13.253  42.789  10.788
21975W        W88516  35.081  22.540   0.103
21976W        W88517  33.791   6.239   4.532
21977W        W88518   7.371  36.393   3.209
21978W        W88519  10.831  27.168   3.218
21979W        W88520  38.015   1.236   1.299
21980W        W88521  35.339  43.999  10.787
21981W        W88522  11.201   2.239  11.585
21982W        W88523  33.837  40.501   0.140
21983W        W88524  22.792  40.886   4.170
21984W        W88525  10.549  15.691   0.323
21985W        W88526  27.521   3.644  11.777
21986W        W88527   6.264   2.886   3.993
21987W        W88528   3.848  21.005   3.121
21988W        W88529  20.107  11.622  13.645
21989W        W88530  41.898   7.923   1.483
21990W        W88531  25.858   7.471  13.359
21991W        W88532  34.093  30.479  12.062
21992W        W88533  43.446  28.597  11.553
21993W        W88534  11.261   5.106  11.400
21994W        W88535  20.655  38.391  13.948
21995W        W88536  33.458  34.002  12.687
21996W        W88537  35.501  18.866   0.460
21997W        W88538   0.944  23.583  13.172
21998W        W88539  29.901  31.167  14.782
21999W        W88540  44.418  34.150   1.214
22000W        W88541  36.905   5.876  13.863
22001W        W88542  43.876  36.199  10.433
22002W        W88543  27.705  44.793  10.745
22003W        W88544  37.112  30.098   2.317
22004W        W88545  41.379  41.103  11.412
22005W        W88546  10.226  10.307  10.903
22006W        W88547  39.165  37.568  13.916
22007W        W88548  26.116  15.121   1.101
22008W        W88549   3.429   6.749  11.374
22009W        W88550  16.346  26.984   2.181
22010W        W88551  32.470  21.721  14.534
22011W        W88552  27.093   6.862   3.581
22012W        W88553  19.285  32.460   2.744
22013W        W88554  36.254  43.458  13.864
22014W        W88555  25.985  39.342   3.677
22015W        W88556  11.799   6.927   3.640
22016W        W88557  26.149  35.535  11.880
22017W        W88558  10.329  43.285   4.263
22018W        W88559  25.632  20.163   3.662
22019W        W88560   1.761  18.933   4.015
22020W        W88561  19.306  35.065  14.428
22021W        W88562  12.647  41.291   0.286
22022W        W88563  22.140  34.602  11.478
22023W        W88564  25.921  34.619  13.201
22024W        W88565  29.495  22.666  11.922
22025W        W88566  31.546   0.124   2.693
22026W        W88567   3.906  34.597   3.291
22027W        W88568  33.428  12.670  13.467
22028W        W88569  36.554   2.187  13.956
22029W        W88570  20.031  20.051  11.223
22030W        W88571  21.686  44.507   4.813
22031W        W88572  32.083  35.843  10.741
22032W        W88573  16.841   0.046   1.307
22033W        W88574  30.384  35.948   2.360
22034W        W88575  38.050  40.843  12.844
22035W        W88576  28.340  41.874  14.369
22036W        W88577  25.534  28.053  10.756
22037W        W88578  14.377  18.775   1.120
22038W        W88579  33.738  12.055  12.109
22039W        W88580  34.470   0.477  14.383
22040W        W88581  23.086  20.202   2.685
22041W        W88582   3.959  18.969   0.406
22042W        W88583  40.572  40.865   0.008
22043W        W88584   4.000  38.113  11.299
22044W        W88585   5.821  41.778  12.630
22045W        W88586  10.095  37.289   4.270
22046W        W88587  33.477   9.931   3.377
22047W        W88588  17.895   7.100   2.890
22048W        W88589   9.352   3.970   3.281
22049W        W88590   7.368  38.551   3.540
22050W        W88591  38.981  10.349  10.386
22051W        W88592   6.921  27.619   3.732
22052W        W88593   9.834   5.576  11.102
22053W        W88594   1.134  11.580   2.376
22054W        W88595  20.566  41.872  13.747
22055W        W88596  34.826  31.442   2.813
22056W        W88597   8.739  44.000  11.565
22057W        W88598  41.634   8.922  10.608
22058W        W88599  10.654  38.531  12.440
22059W        W88600   5.018  34.855  12.353
22060W        W88601  39.266   4.755   3.643
22061W        W88602   6.821   2.253  13.413
22062W        W88603  43.521   4.853   4.926
22063W        W88604  23.086   0.208  11.946
22064W        W88605   5.304  41.984   2.275
22065W        W88606  41.018  25.695   0.759
22066W        W88607   0.371  28.343   0.293
22067W        W88608  28.869   6.001  12.012
22068W        W88609  33.634  43.458   0.296
22069W        W88610  26.037  30.174  12.819
22070W        W88611  19.980   4.472  13.373
22071W        W88612  40.529  17.181   4.657
22072W        W88613  25.198  30.456  13.052
22073W        W88614  15.075  26.995   1.551
22074W        W88615   0.367  17.359  13.239
22075W        W88616  32.861  12.886   0.780
22076W        W88617  42.868  18.762   1.830
22077W        W88618  42.501  41.571  11.213
22078W        W88619  10.370   4.008   4.078
22079W        W88620  35.405  39.626  14.807
22080W        W88621  15.319  26.862  11.699
22081W        W88622  24.537   6.757   3.667
22082W        W88623  23.721  41.303  11.106
22083W        W88624  20.724  36.323  14.453
22084W        W88625  21.703  13.047  13.550
22085W        W88626   5.191  16.253  10.706
22086W        W88627  25.082  34.716  10.977
22087W        W88628  13.176  13.481   3.795
22088W        W88629   8.875   3.295  10.822
22089W        W88630   1.767  22.595   4.687
22090W        W88631  22.913  32.741   0.350
22091W        W88632  24.202  44.698   0.248
22092W        W88633  27.992  43.920   0.955
22093W        W88634   1.056  30.229  12.892
22094W        W88635  23.054   5.379   3.549
22095W        W88636  41.904  38.797   0.365
22096W        W88637  15.085  44.998   4.861
22097W        W88638  44.027  31.513   4.257
22098W        W88639   1.989  20.212  14.002
22099W        W88640   5.161   4.366  13.484
22100W        W88641  18.684  38.716  13.771
22101W        W88642   3.049   6.274  12.524
22102W        W88643  24.716  29.639   0.487
22103W        W88644   1.868  25.751  14.807
22104W        W88645  33.396  14.234  12.390
22105W        W88646  23.542  10.180   4.832
22106W        W88647  11.106  24.717   0.148
22107W        W88648   7.428   0.318  12.484
22108W        W88649  14.080  15.681  14.833
22109W        W88650  19.356  35.242   3.613
22110W        W88651  41.360  23.075  13.544
22111W        W88652  28.036   9.165  11.475
22112W        W88653   6.471   6.109   4.327
22113W        W88654  14.706  25.701   4.523
22114W        W88655  37.515   0.548   0.401
22115W        W88656   2.796   5.951  14.480
22116W        W88657  28.903  20.150  11.349
22117W        W88658  32.093   5.607   0.556
22118W        W88659  39.189  30.181  14.443
22119W        W88660  12.140   5.681   0.511
22120W        W88661  30.464  16.836   4.725
22121W        W88662  26.665   0.767  11.580
22122W        W88663  17.784  19.153  12.332
22123W        W88664  30.901  31.004  11.484
22124W        W88665  30.542  26.905   0.832
22125W        W88666  30.217  27.402  11.024
22126W        W88667  12.718   2.974   0.993
22127W        W88668  11.293   5.311  11.865
22128W        W88669  10.412  11.658   0.549
22129W        W88670  13.330  23.499   0.179
22130W        W88671   6.735  20.750   4.568
22131W        W88672  44.394  36.903  13.853
22132W        W88673  36.316  23.931  12.069
22133W        W88674  37.880  39.356  12.580
22134W        W88675  18.686  18.122  11.281
22135W        W88676  12.301  33.959  10.875
22136W        W88677  11.111  27.992  14.313
22137W        W88678  31.863  13.713  12.029
22138W        W88679   5.491  14.996  14.879
22139W        W88680  18.527  25.673   2.766
22140W        W88681  31.168   1.499  11.940
22141W        W88682  20.722   2.321   2.646
22142W        W88683  37.452   7.371  11.651
22143W        W88684  11.812  18.591   1.798
22144W        W88685  12.891  34.055   2.700
22145W        W88686   7.299  25.873  10.057
22146W        W88687  13.057  42.892   3.487
22147W        W88688  12.334  28.459  11.051
22148W        W88689  23.610  42.016   2.608
22149W        W88690  19.882  37.411   4.748
22150W        W88691   5.823  28.442   2.221
22151W        W88692   0.564   7.425  10.746
22152W        W88693  40.519  20.814  12.025
22153W        W88694  32.169  19.301  11.152
22154W        W88695   9.372   6.360   1.742
22155W        W88696  25.611  17.808   4.150
22156W        W88697  11.278  30.467  13.065
22157W        W88698  33.946  36.469   4.921
22158W        W88699  11.366  17.500  11.842
22159W        W88700   3.491   4.437   3.733
22160W        W88701  16.294   4.615  10.673
22161W        W88702  11.868  17.508   3.481
22162W        W88703  27.011  43.520   0.405
22163W        W88704  12.984  39.153  11.468
22164W        W88705   5.124   5.384  13.598
22165W        W88706  36.886  23.231   3.649
22166W        W88707  30.190  27.347  12.023
22167W        W88708  12.291  42.928   4.694
22168W        W88709  15.701  23.541  11.993
22169W        W88710   5.457  34.361   1.796
22170W        W88711  29.200   7.295   3.220
22171W        W88712   7.777   3.886   2.191
22172W        W88713  36.094   7.933  11.540
22173W        W88714  12.616   9.759  11.959
22174W        W88715   6.568  28.245  11.176
22175W        W88716  15.607  38.861   4.583
22176W        W88717  33.141  37.353   4.761
22177W        W88718  18.148   8.696   0.369
22178W        W88719  35.107   9.043  14.325
22179W        W88720  34.795   6.427  10.069
22180W        W88721  21.787  26.663  10.826
22181W        W88722   0.746  23.626   4.451
22182W        W88723  19.068  19.896  13.155
22183W        W88724  33.317  19.191   4.250
22184W        W88725  36.985   7.149  12.520
22185W        W88726   0.180  32.957  10.434
22186W        W88727   0.355  41.420  14.050
22187W        W88728   5.135  22.318   1.847
22188W        W88729  44.431  26.621  10.174
22189W        W88730  23.652  11.414  10.867
22190W        W88731  43.410  20.471   3.444
22191W        W88732  38.990   4.319  13.830
22192W        W88733  10.643  25.578   3.739
22193W        W88734  32.227  17.695  12.762
22194W        W88735  41.241  38.097  10.793
22195W        W88736  34.534   6.116  14.961
22196W        W88737  22.940  39.502   4.029
22197W        W88738  12.970  11.028   2.720
22198W        W88739   6.276   3.263  12.804
22199W        W88740  21.297   4.559  10.213
22200W        W88741  40.274  14.267   0.387
22201W        W88742  42.416  29.624  14.815
22202W        W88743   4.511  32.117   0.792
22203W        W88744  17.595  24.262  11.154
22204W        W88745  12.285  16.221   0.371
22205W        W88746  16.234  16.784   1.143
22206W        W88747  27.736   5.379   1.744
22207W        W88748  24.580  25.944   2.866
22208W        W88749  44.449  32.855   4.608
22209W        W88750  12.176  16.314  10.784
22210W        W88751  10.811  37.312   0.043
22211W        W88752  20.840  16.510   2.554
22212W        W88753   2.961   0.725  12.888
22213W        W88754  23.707  25.156   0.880
22214W        W88755   7.828  18.816   3.953
22215W        W88756  31.175  29.457  13.927
22216W        W88757  41.023  37.882  13.959
22217W        W88758   5.878  10.403  13.321
22218W        W88759  10.329   6.692  13.428
22219W        W88760   4.967  37.400   0.196
22220W        W88761  13.251   9.228   3.650
22221W        W88762  27.627   7.860  13.561
22222W        W88763  12.759  23.887  11.653
22223W        W88764  21.020  19.808  14.420
22224W        W88765   9.377   5.688  11.383
22225W        W88766   0.487  33.430  14.280
22226W        W88767  29.281  23.422  14.453
22227W        W88768   9.558   5.947   0.901
22228W        W88769  26.111  12.726   2.795
22229W        W88770  15.004  36.304   3.084
22230W        W88771  35.650   2.243  13.962
22231W        W88772  12.135  16.908   3.771
22232W        W88773  36.545  29.596   3.588
22233W        W88774  30.662  38.441  11.550
22234W        W88775   9.356  26.063  13.429
22235W        W88776  41.795  42.861  13.008
22236W        W88777  33.166  33.501  11.500
22237W        W88778  32.500  36.844   3.687
22238W        W88779  15.193  34.519  12.089
22239W        W88780  31.226  32.212  14.759
22240W        W88781  41.208  10.367   0.885
22241W        W88782  42.948  18.979   4.594
22242W        W88783  19.589   9.851   2.523
22243W        W88784  40.631  19.551  13.877
22244W        W88785   4.426  25.142   3.096
22245W        W88786  36.118   5.874   3.734
22246W        W88787   1.256  36.776  14.403
22247W        W88788  41.556  37.960  14.013
22248W        W88789  30.599   3.705   1.203
22249W        W88790  26.090  14.158   0.809
22250W        W88791  14.800   4.157  13.004
22251W        W88792  24.385  19.609   0.969
22252W        W88793   0.724   3.253   0.801
22253W        W88794  28.878  42.845   4.157
22254W        W88795  38.464  26.028  11.437
22255W        W88796  16.107  28.057  10.197
22256W        W88797  26.574  22.597   0.253
22257W        W88798  17.379  11.639   3.537
22258W        W88799  19.078   6.771  10.291
22259W        W88800   3.939  28.746   1.164
22260W        W88801  13.370  41.730  10.910
22261W        W88802  33.929   3.462  12.140
22262W        W88803  23.409   7.217  11.653
22263W        W88804  19.197   4.611   4.250
22264W        W88805  25.528  26.608  12.139
22265W        W88806  23.701  11.258  13.091
22266W        W88807   4.203  33.128   4.437
22267W        W88808  40.266   4.694   1.590
22268W        W88809  41.571   9.760   2.249
22269W        W88810  17.311  10.635   1.674
22270W        W88811  12.663   6.432  11.572
22271W        W88812  34.939  23.982   1.032
22272W        W88813   6.974  42.282   0.492
22273W        W88814  38.536  27.446   3.812
22274W        W88815  38.268  16.752   4.589
22275W        W88816  27.890  31.688   4.229
22276W        W88817  41.100   6.601  11.540
22277W        W88818   7.591  36.884   4.075
22278W        W88819  38.032  16.584  11.610
22279W        W88820  22.700  28.673  11.114
22280W        W88821  41.783  43.530  13.429
22281W        W88822  21.871  16.641  11.143
22282W        W88823  23.876  23.129   1.587
22283W        W88824  30.843  33.479  10.819
22284W        W88825  14.625   9.143   0.805
22285W        W88826  19.194  29.062   0.184
22286W        W88827  18.352  44.740  12.498
22287W        W88828  13.640  15.760  13.917
22288W        W88829  37.921   8.502  12.982
22289W        W88830  15.831  38.896   9.976
22290W        W88831  42.310   6.816  10.340
22291W        W88832  30.111  16.065   5.086
22292W        W88833  29.122  23.455   0.323
22293W        W88834  40.362   6.434   1.943
22294W        W88835  30.131  20.420   1.824
22295W        W88836  44.469   6.344  13.836
22296W        W88837  35.098  26.170   4.121
22297W        W88838  33.197  12.900   3.650
22298W        W88839  14.120   9.644   4.672
22299W        W88840  10.853  22.619   4.382
22300W        W88841  13.238  10.319   5.039
22301W        W88842  29.886  21.747  12.035
22302W        W88843  19.703  42.733  14.721
22303W        W88844   9.843   6.749   0.545
22304W        W88845  34.536   1.016  13.763
22305W        W88846   3.622  24.163   3.773
22306W        W88847  13.211   1.304  14.422
22307W        W88848  27.124  39.466  12.126
22308W        W88849  16.308   6.071  12.585
22309W        W88850   6.144  13.669  14.691
22310W        W88851  14.812  26.325   3.701
22311W        W88852   2.328  36.087   0.753
22312W        W88853  27.918   7.149  14.381
22313W        W88854  39.469  30.863  12.385
22314W        W88855  36.008  20.617  14.888
22315W        W88856  12.729  13.690   3.655
22316W        W88857  37.622   8.781   4.127
22317W        W88858  35.553   5.584  10.666
22318W        W88859  40.013  25.741  12.867
22319W        W88860  40.269  35.358  10.529
22320W        W88861  11.019  31.040   4.548
22321W        W88862   2.217  33.738  14.052
22322W        W88863   8.696  12.680  13.877
22323W        W88864  12.505   2.247  13.568
22324W        W88865  21.675  26.615  13.482
22325W        W88866  27.570  38.157  13.936
22326W        W88867  40.556  37.996   2.291
22327W        W88868  28.482  42.719   1.240
22328W        W88869  35.897  16.598  12.830
22329W        W88870  27.226  18.683   3.665
22330W        W88871   7.310   2.451  12.511
22331W        W88872  32.482  31.694  12.805
22332W        W88873  11.344  44.808   0.884
22333W        W88874   2.036   7.952  11.202
22334W        W88875   3.835  23.985  14.537
22335W        W88876  17.099  41.025   4.574
22336W        W88877  36.892  33.502  12.592
22337W        W88878  10.045  21.167   1.374
22338W        W88879  23.522  41.001   1.234
22339W        W88880  17.554  25.966   1.933
22340W        W88881  37.565   2.229   5.000
22341W        W88882  28.516  20.050   4.030
22342W        W88883  13.967  40.918  13.978
22343W        W88884  20.973  44.026   1.176
22344W        W88885   4.913  27.515   4.553
22345W        W88886  36.776  44.508  13.174
22346W        W88887  42.591  40.083  13.043
22347W        W88888   3.684  21.716   3.695
22348W        W88889  19.403  17.744  13.147
22349W        W88890  25.950  40.916   2.527
22350W        W88891  33.900  11.257   9.907
22351W        W88892  22.377  38.832  13.211
22352W        W88893  26.289  29.537  11.212
22353W        W88894  32.403  21.508  11.175
22354W        W88895  18.810  26.389   1.402
22355W        W88896  20.134  18.586  12.124
22356W        W88897  40.332  17.729   1.589
22357W        W88898  24.979  28.493   3.344
22358W        W88899  12.014   5.961   0.941
22359W        W88900  42.301  43.858   2.229
22360W        W88901  16.350  42.130   2.001
22361W        W88902   1.452  26.600  13.921
22362W        W88903   3.592  12.133   1.254
22363W        W88904   0.522  43.850   3.741
22364W        W88905  40.581  26.456  12.403
22365W        W88906  29.423   0.063   3.804
22366W        W88907  25.709  21.279  10.500
22367W        W88908  34.662  11.795   2.389
22368W        W88909  44.533  27.481  10.669
22369W        W88910  28.573   3.155   1.738
22370W        W88911  40.964  24.764  10.766
22371W        W88912   5.396  43.754  12.989
22372W        W88913  30.948   1.430  13.942
22373W        W88914  23.141  13.757  10.650
22374W        W88915  19.680  36.697  11.260
22375W        W88916  28.557   5.221  14.847
22376W        W88917  17.004  11.347  11.549
22377W        W88918  39.896   7.310   1.853
22378W        W88919  36.416   9.380   0.346
22379W        W88920  39.287   5.880   1.394
22380W        W88921  21.735  20.293   3.823
22381W        W88922  33.309  32.317  10.594
22382W        W88923  12.337  29.255   5.094
22383W        W88924   9.975   8.344   4.992
22384W        W88925  32.629  17.604   4.903
22385W        W88926  32.668  20.550   1.131
22386W        W88927  10.217  22.945  13.520
22387W        W88928   8.820  31.084  14.338
22388W        W88929  11.324  35.135  11.555
22389W        W88930  40.076  44.746  13.474
22390W        W88931  30.745  21.255  14.397
22391W        W88932  25.229   6.570   3.651
22392W        W88933  13.694  41.853  13.911
22393W        W88934  23.614   2.517   0.395
22394W        W88935  11.197  25.661   0.585
22395W        W88936  26.253   1.349   4.352
22396W        W88937   8.236  28.403  12.710
22397W        W88938  14.102  39.480  14.410
22398W        W88939  42.881   5.198   4.867
22399W        W88940   5.754  29.470   2.266
22400W        W88941  29.384   9.938   2.912
22401W        W88942  21.290  35.444  11.064
22402W        W88943  12.830  34.666   0.098
22403W        W88944  22.207  12.848   0.365
22404W        W88945  39.670  37.266   0.269
22405W        W88946  13.982  40.052   4.614
22406W        W88947  10.776  34.369   4.087
22407W        W88948  37.646  40.991  10.347
22408W        W88949  30.976  14.231   4.414
22409W        W88950  21.092  33.590   3.157
22410W        W88951  20.161  43.133  12.041
22411W        W88952  37.255  13.595   0.776
22412W        W88953   6.198  44.370  13.455
22413W        W88954  10.824   0.125   4.293
22414W        W88955  39.993  24.987   2.844
22415W        W88956   5.688   0.288  11.066
22416W        W88957  32.658  20.780   4.492
22417W        W88958   1.022   4.320   2.152
22418W        W88959   6.208  27.201   2.716
22419W        W88960  22.516  12.262  14.478
22420W        W88961  30.979   6.677   3.960
22421W        W88962   3.278  34.819  11.298
22422W        W88963  32.516   9.289   2.450
22423W        W88964  39.047  24.112  12.880
22424W        W88965  24.982   3.692  11.796
22425W        W88966  35.786   0.286   2.884
22426W        W88967  19.823  12.593  13.068
22427W        W88968  43.066  19.541  11.405
22428W        W88969  11.779  16.242   0.339
22429W        W88970  18.611  22.448   3.691
22430W        W88971  36.248  10.220  11.942
22431W        W88972  20.176  41.037   4.628
22432W        W88973  15.866  24.207   0.953
22433W        W88974  44.720  16.556  14.278
22434W        W88975   1.413  23.216   4.692
22435W        W88976  14.663   0.930   2.755
22436W        W88977  44.565  28.501   5.001
22437W        W88978  17.547  16.870  12.345
22438W        W88979  20.233  44.341  13.757
22439W        W88980  27.960  34.842  10.848
22440W        W88981  40.391   6.503   1.441
22441W        W88982  23.051  13.775   0.012
22442W        W88983  19.597  39.399   2.335
22443W        W88984   8.376  26.175   3.109
22444W        W88985  12.934  21.703  13.919
22445W        W88986  41.798  44.128   3.262
22446W        W88987  32.447  36.699  11.595
22447W        W88988   3.025   3.763  13.063
22448W        W88989  22.214  28.018  14.366
22449W        W88990  33.420  16.310   4.664
22450W        W88991   1.352  37.837  11.581
22451W        W88992  16.347  43.739   1.793
22452W        W88993   4.756   1.001  13.102
22453W        W88994  32.383   2.255   1.817
22454W        W88995  14.732  30.128   3.580
22455W        W88996  36.913  18.592   2.033
22456W        W88997  44.335  15.581  10.238
22457W        W88998  22.430  16.034  13.111
22458W        W88999  15.658  39.962   1.205
22459W        W89000  17.315   7.503   3.717
22460W        W89001  11.073  44.987   1.306
22461W        W89002  26.862  28.815   1.558
22462W        W89003  35.725   8.366   2.818
22463W        W89004  37.718   8.877  12.666
22464W        W89005  28.832   8.980   4.192
22465W        W89006   1.872  25.079   0.733
22466W        W89007  27.600  38.004  14.443
22467W        W89008  43.030  15.485   3.658
22468W        W89009  37.630  11.975  14.948
22469W        W89010  29.272   2.401   9.773
22470W        W89011  11.333  35.361   3.626
22471W        W89012  38.278   1.369  13.989
22472W        W89013  11.243  38.916   2.956
22473W        W89014   3.785   8.749  12.051
22474W        W89015   9.391  15.280   3.416
22475W        W89016   3.793  36.099   1.039
22476W        W89017   2.028  17.572   4.533
22477W        W89018  15.718  35.671   1.250
22478W        W89019  21.203  15.958  11.150
22479W        W89020  43.887   7.187   1.108
22480W        W89021  23.659  10.121   1.839
22481W        W89022  39.381  21.318  12.665
22482W        W89023  43.762  28.949  13.027
22483W        W89024  32.106  31.769  10.082
22484W        W89025  33.934  36.597  10.790
22485W        W89026  35.011  14.827   3.164
22486W        W89027  12.593  17.223   2.543
22487W        W89028  12.129  24.617   4.655
22488W        W89029  25.723  13.216  10.712
22489W        W89030   3.750  11.444   3.979
22490W        W89031   6.857  25.946   0.333
22491W        W89032  16.506  39.191  11.038
22492W        W89033   1.898  23.242  12.109
22493W        W89034   7.724  36.236   4.663
22494W        W89035  20.615  20.584   2.380
22495W        W89036  37.477  42.783  10.661
22496W        W89037  22.562  42.294  10.676
22497W        W89038  32.449  38.473  12.612
22498W        W89039   3.767  27.648  11.011
22499W        W89040  25.794  25.057  13.821
22500W        W89041  12.767   0.457   3.150
22501W        W89042  20.667  20.587  12.442
22502W        W89043  39.491  31.441   4.552
22503W        W89044  41.300  28.340   5.034
22504W        W89045  11.648   6.131   1.376
22505W        W89046  12.151  12.195   2.705
22506W        W89047  40.019  22.417   1.992
22507W        W89048  34.535   1.440  11.984
22508W        W89049   8.484   2.440   2.711
22509W        W89050  27.395  23.884  12.971
22510W        W89051   2.235  20.047  12.694
22511W        W89052  27.468  25.325  14.016
22512W        W89053  42.466   1.826  14.930
22513W        W89054  27.277   0.379   0.906
22514W        W89055  21.229  37.714  14.043
22515W        W89056  15.013   6.784  14.513
22516W        W89057  34.152  11.629   3.060
22517W        W89058  35.584  37.645   2.424
22518W        W89059   3.370  43.360   0.536
22519W        W89060   8.691  11.324  12.593
22520W        W89061  40.528  37.267   0.181
22521W        W89062  13.654  14.140  10.639
22522W        W89063  10.252  23.402   2.781
22523W        W89064   7.364  11.908  11.257
22524W        W89065   5.338  29.852  11.161
22525W        W89066  36.601  35.597   4.185
22526W        W89067  39.463  30.810   1.484
22527W        W89068  21.152  35.433   1.305
22528W        W89069  36.613  13.097  12.353
22529W        W89070  35.411  37.392   2.843
22530W        W89071  16.182  20.526  11.369
22531W        W89072  20.324  11.372   4.119
22532W        W89073  20.520  40.727  14.837
22533W        W89074  41.609  36.935  13.093
22534W        W89075  30.724  29.197  13.189
22535W        W89076   9.717   0.824   2.597
22536W        W89077  11.786  42.325  12.467
22537W        W89078  10.853  30.892  13.003
22538W        W89079  15.648  11.360   4.618
22539W        W89080   0.353  21.647  13.938
22540W        W89081  41.894  38.851   4.126
22541W        W89082  40.526   4.035  12.204
22542W        W89083  19.087  34.508   4.913
22543W        W89084  30.871  14.116   1.769
22544W        W89085  30.874  34.913  10.678
22545W        W89086   8.657  12.044   2.036
22546W        W89087  21.548  28.366   1.338
22547W        W89088  13.809  29.966  11.664
22548W        W89089  13.780   7.133   3.944
22549W        W89090   9.851  12.869   0.231
22550W        W89091   4.918  15.832  10.725
22551W        W89092   1.016  14.498   3.246
22552W        W89093  14.672  26.932  14.245
22553W        W89094  32.455  31.603  14.831
22554W        W89095  13.415  41.601   1.491
22555W        W89096  43.036  11.812  14.477
22556W        W89097  43.849  35.188   4.085
22557W        W89098  24.455  40.534   0.822
22558W        W89099  21.514  43.515   3.732
22559W        W89100   1.782  32.030  11.534
22560W        W89101  31.739  11.683   0.963
22561W        W89102  36.405   0.528   2.660
22562W        W89103  12.822  31.142  13.831
22563W        W89104  37.958  29.645  13.522
22564W        W89105  42.538  32.452  13.847
22565W        W89106  27.028  42.064  10.178
22566W        W89107   8.389  23.758   4.194
22567W        W89108  31.800  13.330  11.689
22568W        W89109   8.586  26.626  10.206
22569W        W89110   9.310  37.957  13.812
22570W        W89111  17.113   7.942   4.095
22571W        W89112   3.283   0.386  11.092
22572W        W89113  38.063  21.555   1.796
22573W        W89114  33.595  39.630   4.073
22574W        W89115  14.776  13.627  12.842
22575W        W89116  44.411  18.746   2.031
22576W        W89117  31.584  40.960   1.811
22577W        W89118  17.721  40.164   3.759
22578W        W89119  15.677  27.064  10.308
22579W        W89120  20.481  35.542  10.432
22580W        W89121  44.475  39.804   3.743
22581W        W89122   1.870  17.159  12.021
22582W        W89123   8.882  18.121  12.433
22583W        W89124  41.844  36.651   1.381
22584W        W89125  32.426  17.344   0.318
22585W        W89126  41.037  14.329   2.204
22586W        W89127   6.606  23.468  11.199
22587W        W89128  10.199  37.551   1.885
22588W        W89129  25.527  34.458  14.699
22589W        W89130   1.515  44.013  13.901
22590W        W89131   7.211  24.606   0.153
22591W        W89132   0.398  24.628  14.841
22592W        W89133   1.286  33.567   0.286
22593W        W89134  41.404  29.397   0.582
22594W        W89135   4.024  27.682  14.534
22595W        W89136  16.994  15.261  11.129
22596W        W89137  15.381  31.445  11.124
22597W        W89138  33.626  23.324   3.889
22598W        W89139   3.902  14.691   2.422
22599W        W89140   8.314  24.040  14.261
22600W        W89141  14.617  12.324   2.863
22601W        W89142  32.419  44.432  10.584
22602W        W89143  38.363   2.281   0.016
22603W        W89144  30.913   6.221   0.929
22604W        W89145  13.677  28.904  13.313
22605W        W89146   5.649  31.681   1.751
22606W        W89147   8.467   2.788   3.123
22607W        W89148  34.406  19.855  14.538
22608W        W89149  42.490  15.771  13.945
22609W        W89150  17.303  19.600  14.554
22610W        W89151  28.575  18.100  14.279
22611W        W89152   7.819   7.757   1.011
22612W        W89153  24.686  37.941  12.065
22613W        W89154  29.250  41.621   0.801
22614W        W89155  11.777  38.960  11.582
22615W        W89156   6.859   6.879   4.174
22616W        W89157  37.033  40.768   2.197
22617W        W89158  10.255  32.139   3.860
22618W        W89159   0.949  14.772   1.042
22619W        W89160  21.667  16.750   2.637
22620W        W89161   1.268   2.287  11.228
22621W        W89162   9.918  26.120  12.056
22622W        W89163  14.851  34.448  11.626
22623W        W89164  40.467  16.652   1.858
22624W        W89165  43.080   7.290  11.515
22625W        W89166  36.055  28.899   0.753
22626W        W89167  23.267   0.357  10.582
22627W        W89168  26.575  25.487   1.878
22628W        W89169   3.495  44.315   0.003
22629W        W89170  44.699  19.985   4.169
22630W        W89171  16.239  17.677  12.987
22631W        W89172  32.612   4.932  12.542
22632W        W89173  40.206  38.062  13.627
22633W        W89174  27.204  12.788  13.586
22634W        W89175  23.240   3.910   4.699
22635W        W89176   3.867  17.062  10.848
22636W        W89177  12.546   3.280   4.212
22637W        W89178  37.883  35.823   1.700
22638W        W89179  13.764   2.292  12.494
22639W        W89180  24.068  37.330   4.052
22640W        W89181  35.252  41.848   4.903
22641W        W89182  15.720  40.930   3.353
22642W        W89183  18.621   4.372  10.826
22643W        W89184  41.617  42.023   1.426
22644W        W89185  34.092  36.964   3.240
22645W        W89186  22.644  29.123   2.244
22646W        W89187   1.487  41.420  11.613
22647W        W89188  42.448   0.471   3.490
22648W        W89189  14.097   5.520  10.743
22649W        W89190   9.029  31.083   1.655
22650W        W89191  40.617  35.823  12.499
22651W        W89192  40.061  27.866   1.968
22652W        W89193   2.859   1.017  12.463
22653W        W89194  15.528  34.475  12.768
22654W        W89195  16.190  29.035  10.778
22655W        W89196  19.143  18.146   3.944
22656W        W89197  35.907  10.922  14.955
22657W        W89198   0.767  29.953  12.507
22658W        W89199  25.453  20.295   2.767
22659W        W89200  28.698  11.951  14.480
22660W        W89201  25.363  23.595  13.369
22661W        W89202  38.598  10.883  12.912
22662W        W89203  22.057  40.581  12.853
22663W        W89204  16.969  31.700   2.699
22664W        W89205  38.404  20.057   3.309
22665W        W89206   1.372  35.394   1.971
22666W        W89207  44.561  44.195   0.786
22667W        W89208  38.805  36.502  13.966
22668W        W89209  29.426   5.827   2.312
22669W        W89210  15.213  15.284  11.840
22670W        W89211   9.176  43.370  12.193
22671W        W89212  25.789  14.821   4.609
22672W        W89213  26.195  21.297  10.741
22673W        W89214  39.618  11.227   1.443
22674W        W89215  13.579  14.472  14.108
22675W        W89216   6.724  34.054   1.782
22676W        W89217  44.329  20.268   2.230
22677W        W89218  15.521  42.760  10.719
22678W        W89219   3.448  33.030   1.877
22679W        W89220  33.621  12.272   0.332
22680W        W89221   9.159   5.740   4.233
22681W        W89222  41.324  17.019   2.608
22682W        W89223  32.503  12.337   2.607
22683W        W89224  11.427  24.323   1.922
22684W        W89225  41.533  38.247   0.880
22685W        W89226  10.387   9.585   0.172
22686W        W89227  22.574  42.532  14.419
22687W        W89228   4.435  23.488   1.436
22688W        W89229  12.652   3.190  11.966
22689W        W89230  38.826  27.519  11.966
22690W        W89231   3.262  11.360   4.757
22691W        W89232  44.986   8.874  11.738
22692W        W89233  24.359  20.430   1.375
22693W        W89234  21.967  44.135  12.042
22694W        W89235  39.933   5.735   3.384
22695W        W89236   0.974  10.751  11.900
22696W        W89237  35.384  33.191   3.143
22697W        W89238  24.609  28.054  13.875
22698W        W89239   2.851  22.942  11.528
22699W        W89240  24.544  26.173   4.442
22700W        W89241  29.988  39.299  12.032
22701W        W89242  34.038  16.250  13.441
22702W        W89243   9.283  26.528  14.002
22703W        W89244  39.509  25.963   2.402
22704W        W89245  30.086  16.342   0.639
22705W        W89246  13.262  31.516   3.130
22706W        W89247  19.316  27.434  14.412
22707W        W89248  17.300  18.525  11.017
22708W        W89249  27.562   4.805  11.745
22709W        W89250  41.462   2.760  12.423
22710W        W89251  33.013  39.681  12.189
22711W        W89252  15.350  20.582  11.156
22712W        W89253  36.502   7.217   4.254
22713W        W89254   4.174  34.715   3.754
22714W        W89255   2.085  36.974   2.360
22715W        W89256   5.478  16.669  10.662
22716W        W89257  14.707  26.627   3.287
22717W        W89258  39.055  26.010   1.292
22718W        W89259   2.241  21.952  11.817
22719W        W89260   9.192   7.594   4.131
22720W        W89261  17.783   6.524  11.084
22721W        W89262  25.314  36.786   3.297
22722W        W89263  39.139  34.108  13.126
22723W        W89264  15.168  33.604   2.711
22724W        W89265  23.745  31.432  12.057
22725W        W89266  34.466  20.793  14.615
22726W        W89267  34.075  19.032  14.551
22727W        W89268  30.436  39.620  12.905
22728W        W89269  14.304  27.973  14.003
22729W        W89270  21.988  15.039   3.785
22730W        W89271  14.521  14.236  14.066
22731W        W89272   3.394  24.951   2.361
22732W        W89273  40.067   0.992  12.153
22733W        W89274  40.854  28.987  13.476
22734W        W89275  43.338   5.794   1.355
22735W        W89276   9.674  11.837  11.651
22736W        W89277   4.668  15.088  12.945
22737W        W89278  44.281   8.230  11.954
22738W        W89279   2.517  42.828  14.754
22739W        W89280  33.216   7.779   9.837
22740W        W89281   3.261  41.962  12.686
22741W        W89282  38.264   6.651   1.149
22742W        W89283  12.070  12.590   9.924
22743W        W89284  26.486   5.761  13.533
22744W        W89285  16.733  21.071   0.728
22745W        W89286  21.684  15.168   4.184
22746W        W89287  31.930  29.702  11.969
22747W        W89288  34.539  13.023   3.375
22748W        W89289  43.477   0.300   1.945
22749W        W89290  16.619  23.688  13.639
22750W        W89291  23.106   0.674  14.303
22751W        W89292  38.562  24.489  13.395
22752W        W89293  32.731  13.829  10.766
22753W        W89294  38.036  14.919  10.904
22754W        W89295  38.504  15.367   3.520
22755W        W89296  30.668  14.290   0.880
22756W        W89297  30.440  25.124   4.018
22757W        W89298  20.863  19.017  10.444
22758W        W89299  30.544   7.745  11.612
22759W        W89300   6.647  36.855   0.759
22760W        W89301  11.513  32.858  12.078
22761W        W89302  18.735   3.312   0.694
22762W        W89303  35.143  15.416   3.431
22763W        W89304  44.015  25.550  13.820
22764W        W89305  10.011  32.658  12.170
22765W        W89306  36.916  26.223  13.246
22766W        W89307  21.332  16.547  11.983
22767W        W89308  32.197  28.983  13.549
22768W        W89309  11.558  25.252   5.046
22769W        W89310   2.508  23.446   4.098
22770W        W89311  29.900  19.714  13.877
22771W        W89312   5.264  39.948   4.155
22772W        W89313   4.237   4.329  10.706
22773W        W89314   4.919  38.124   4.197
22774W        W89315  21.972  19.322   0.246
22775W        W89316  39.452  27.481   3.609
22776W        W89317   7.358  36.900  12.137
22777W        W89318  15.852  16.392  14.890
22778W        W89319   1.686   5.334   3.117
22779W        W89320  24.179  27.928  10.967
22780W        W89321  21.081   4.800   4.282
22781W        W89322  41.355   0.273   1.027
22782W        W89323  42.795  42.818  12.927
22783W        W89324  23.682   6.849   1.713
22784W        W89325  30.916  16.625   4.547
22785W        W89326  14.367  27.204   2.418
22786W        W89327  12.367  29.398   3.809
22787W        W89328   5.860  30.908  11.572
22788W        W89329   8.719   3.484   1.389
22789W        W89330  27.485  15.771   0.166
22790W        W89331   7.691   2.939   3.603
22791W        W89332  15.862  21.596   2.272
22792W        W89333  35.480  26.907   3.250
22793W        W89334  23.695  23.053  11.502
22794W        W89335  12.869  14.105  11.182
22795W        W89336  20.316  34.790   3.767
22796W        W89337   2.501  14.361  10.718
22797W        W89338  12.309  14.107  14.933
22798W        W89339  40.600   0.989   1.198
22799W        W89340  14.243  39.396   2.433
22800W        W89341  40.977  25.670   2.882
22801W        W89342  34.373  19.242   4.322
22802W        W89343  39.349  27.214  10.561
22803W        W89344  10.906  37.311  13.572
22804W        W89345  33.956  44.016   2.615
22805W        W89346  38.292   9.366   0.960
22806W        W89347  18.861  11.938   2.223
22807W        W89348  31.880  37.369   0.799
22808W        W89349  42.305  36.442  14.492
22809W        W89350  35.115  20.640  12.678
22810W        W89351  15.713  39.223  12.228
22811W        W89352  31.616  22.521  14.336
22812W        W89353  22.782  36.504  12.071
22813W        W89354  25.213  27.255  14.646
22814W        W89355  39.528  30.165   3.165
22815W        W89356  17.366  26.647   0.845
22816W        W89357   5.230  14.106  13.581
22817W        W89358  19.660  41.349   3.132
22818W        W89359  27.585  31.631  11.685
22819W        W89360  17.152  14.909   1.461
22820W        W89361   2.263  32.229   3.695
22821W        W89362   1.268  10.271  13.931
22822W        W89363   7.471   9.690   4.131
22823W        W89364  18.310  39.791  11.925
22824W        W89365  35.526  26.019  12.925
22825W        W89366  42.048   8.985  10.273
22826W        W89367  32.623   3.797   2.321
22827W        W89368  24.827   8.317   4.599
22828W        W89369  32.932  26.496  14.354
22829W        W89370  32.326  37.761   1.818
22830W        W89371  13.036   6.291  11.207
22831W        W89372   8.186  11.206   3.405
22832W        W89373   0.225  43.428  13.942
22833W        W89374  18.099   0.897  13.992
22834W        W89375  34.971  18.983   2.647
22835W        W89376   0.310  13.107  13.496
22836W        W89377  10.213  35.944  11.532
22837W        W89378   6.493  18.139   0.272
22838W        W89379  16.294  38.035   0.986
22839W        W89380  41.915  20.089   2.904
22840W        W89381  38.919  43.471  11.034
22841W        W89382  10.559  14.469   3.822
22842W        W89383   3.281  32.651  13.266
22843W        W89384  28.143  37.502   5.157
22844W        W89385  40.743  25.702   0.270
22845W        W89386   6.238  41.861  14.433
22846W        W89387  37.547   0.872   3.175
22847W        W89388  25.959  25.637   3.389
22848W        W89389  31.915  37.799  12.523
22849W        W89390  29.041   6.157  11.545
22850W        W89391   5.210  19.988   1.494
22851W        W89392  32.329  12.333  13.420
22852W        W89393  27.359  16.118   1.823
22853W        W89394  38.526  27.431  13.310
22854W        W89395  19.600  21.449  11.072
22855W        W89396  25.013  38.820  12.086
22856W        W89397  38.026  14.333   1.300
22857W        W89398  41.830  18.201   3.230
22858W        W89399  10.900  35.487  14.891
22859W        W89400  32.093  30.657  11.176
22860W        W89401  43.036  10.700  11.074
22861W        W89402  27.914  18.111   1.855
22862W        W89403   3.993  18.628   2.330
22863W        W89404  23.241  37.953   4.314
22864W        W89405   3.289  12.642  12.498
22865W        W89406  10.222  14.857  13.043
22866W        W89407  18.725   8.981  10.245
22867W        W89408   5.109  44.485  13.398
22868W        W89409  19.533   1.768   3.053
22869W        W89410   7.269   0.213  13.496
22870W        W89411   9.281  30.534   3.154
22871W        W89412  22.623  11.597   0.777
22872W        W89413  44.840  14.551  11.991
22873W        W89414   3.841   5.746  14.801
22874W        W89415  30.630  30.644  11.940
22875W        W89416   1.892  25.987  11.458
22876W        W89417  21.040  35.588  12.811
22877W        W89418  21.498   4.895   2.924
22878W        W89419   3.879   1.676  10.169
22879W        W89420  12.956  43.328  14.746
22880W        W89421  16.821  28.452  14.827
22881W        W89422  13.812  28.604   0.915
22882W        W89423  17.565  30.172  11.196
22883W        W89424  42.294  31.868  12.952
22884W        W89425  38.325  20.703  14.632
22885W        W89426  12.906  16.858   2.781
22886W        W89427   4.486  20.178   2.888
22887W        W89428  42.449  11.317  12.928
22888W        W89429  41.920   8.343  12.307
22889W        W89430  37.109  10.339   2.232
22890W        W89431  32.396   1.379   3.527
22891W        W89432  23.801  19.616   0.214
22892W        W89433  28.175   6.753  13.444
22893W        W89434  24.066  23.194   2.070
22894W        W89435  24.740  22.003  13.962
22895W        W89436  34.180  30.917   0.779
22896W        W89437  38.966  35.540  13.519
22897W        W89438  39.950  20.131  12.202
22898W        W89439  43.319  14.351   3.729
22899W        W89440  12.279  41.975  14.792
22900W        W89441  30.663  38.528   3.770
22901W        W89442  43.427  38.064  13.527
22902W        W89443  43.270  12.265  13.533
22903W        W89444  43.376   2.796   1.910
22904W        W89445  39.177  20.034   1.965
22905W        W89446  24.408  33.035   4.896
22906W        W89447  22.451   1.327   4.675
22907W        W89448  25.741  26.043   0.286
22908W        W89449  21.122   3.295  11.949
22909W        W89450  18.677  42.975  10.369
22910W        W89451  42.942  12.314  10.515
22911W        W89452  40.470  32.394  12.408
22912W        W89453   8.633  42.844  14.341
22913W        W89454  25.544  26.785  11.134
22914W        W89455   8.235   7.823  10.975
22915W        W89456  32.282  30.397  12.510
22916W        W89457  13.879  30.886   2.230
22917W        W89458  24.276  40.374   2.245
22918W        W89459  40.392  22.094   1.743
22919W        W89460  15.807  40.771  14.012
22920W        W89461  36.322  39.543   3.856
22921W        W89462   0.654  18.973   0.814
22922W        W89463  18.775   0.229   3.268
22923W        W89464  15.776  14.821  10.650
22924W        W89465  21.132  43.817  11.676
22925W        W89466  26.085   4.324  14.765
22926W        W89467   8.363   8.626  10.626
22927W        W89468  36.470  44.284  12.814
22928W        W89469  26.370  25.495  14.503
22929W        W89470   6.383  18.448   2.205
22930W        W89471  26.541  36.406   0.244
22931W        W89472  28.808   3.997  12.091
22932W        W89473  29.112  38.407  13.959
22933W        W89474  42.964  13.077   5.174
22934W        W89475  13.736  34.931   3.615
22935W        W89476   2.663  28.722   3.578
22936W        W89477  10.527  26.979  12.852
22937W        W89478  28.881  44.342  14.811
22938W        W89479  28.031  26.527  14.331
22939W        W89480  20.111  43.155   3.611
22940W        W89481  21.150   3.797  12.362
22941W        W89482  34.950  35.246   1.896
22942W        W89483  36.552  18.152  12.993
22943W        W89484  20.006  41.146   4.125
22944W        W89485   9.371  13.108  12.396
22945W        W89486  38.436  21.423  13.907
22946W        W89487  22.319  31.007  10.942
22947W        W89488  11.227  19.715   5.086
22948W        W89489  22.084  13.722   4.661
22949W        W89490   4.946  34.632  10.320
22950W        W89491  23.979   5.619   1.294
22951W        W89492  37.426  13.802  14.418
22952W        W89493  13.230  27.429  12.043
22953W        W89494  27.710  35.593   0.847
22954W        W89495  10.874   8.366   4.208
22955W        W89496   7.433  25.592   0.721
22956W        W89497  35.630  30.073  13.839
22957W        W89498  26.565  39.724   1.302
22958W        W89499  44.484  38.493  12.455
22959W        W89500  34.082  13.154  14.380
22960W        W89501  24.039  37.444  11.483
22961W        W89502  44.312  19.542   2.904
22962W        W89503   0.301  32.507  12.524
22963W        W89504  21.647  41.623  12.026
22964W        W89505   2.752   4.949   3.758
22965W        W89506  37.073  37.300  14.034
22966W        W89507  39.379  29.960  14.875
22967W        W89508  42.502  21.520  11.584
22968W        W89509  22.657  20.580  14.025
22969W        W89510  34.941  33.591   4.777
22970W        W89511  19.558  37.955  13.426
22971W        W89512  33.917  11.747  13.673
22972W        W89513   5.290  39.369  13.445
22973W        W89514  37.369  19.720  14.029
22974W        W89515  26.869  24.781  11.977
22975W        W89516  44.922  16.046  14.884
22976W        W89517  16.852  29.940  11.910
22977W        W89518  27.077  16.606  14.936
22978W        W89519  20.472   4.769  13.855
22979W        W89520  39.886  32.034  13.716
22980W        W89521  34.538  13.612  11.160
22981W        W89522   6.402  43.748   0.113
22982W        W89523  36.871  43.008   2.439
22983W        W89524  29.725   1.695   0.141
22984W        W89525   3.745   6.566  10.046
22985W        W89526  27.048  18.257  12.486
22986W        W89527  44.949  17.360  12.921
22987W        W89528  28.824  13.080  11.880
22988W        W89529  26.296   5.533   3.575
22989W        W89530  42.900  42.552  11.178
22990W        W89531  29.220  43.838   4.411
22991W        W89532  22.699  43.496   3.217
22992W        W89533  17.265   8.454   4.169
22993W        W89534  33.941  25.214   3.682
22994W        W89535  30.080  41.420  14.674
22995W        W89536  14.253  20.480   3.443
22996W        W89537  30.105   6.266   4.626
22997W        W89538  39.528   7.466  13.554
22998W        W89539   8.231  10.233  13.435
22999W        W89540  33.661  44.872  11.245
23000W        W89541  22.030  39.389  14.304
23001W        W89542   3.245  19.950  12.137
23002W        W89543  34.926  14.299  12.474
23003W        W89544  27.005  16.509   1.275
23004W        W89545   0.364  43.331   2.299
23005W        W89546  14.641  29.509   3.394
23006W        W89547   6.806   8.943  13.032
23007W        W89548  32.458  41.273   0.026
23008W        W89549  37.960  12.214  11.484
23009W        W89550  15.106  32.059  12.757
23010W        W89551  43.252  16.602  11.646
23011W        W89552  21.297  22.142  11.547
23012W        W89553  11.114  40.371  11.340
23013W        W89554  15.137  42.994  10.469
23014W        W89555   7.201  25.274   3.784
23015W        W89556  42.348  38.969   4.441
23016W        W89557  13.908  32.192   2.624
23017W        W89558   8.565   1.602  13.367
23018W        W89559  27.576  32.561  14.194
23019W        W89560  35.713  21.957   3.731
23020W        W89561  15.269   2.342   0.346
23021W        W89562   2.265  21.707   2.853
23022W        W89563   0.952   7.405   3.585
23023W        W89564   0.533  30.656   3.168
23024W        W89565  22.715   8.621   0.861
23025W        W89566  41.324  20.013   1.065
23026W        W89567  22.417  13.034   0.925
23027W        W89568  26.261  40.706   0.843
23028W        W89569  18.782  43.969   3.142
23029W        W89570  27.427  33.439  12.034
23030W        W89571   4.831  14.104  13.945
23031W        W89572  24.109  43.517  12.053
23032W        W89573  22.057   8.381   4.745
23033W        W89574  16.444  44.125  10.342
23034W        W89575  21.619  29.715  11.103
23035W        W89576  31.230  30.562   4.790
23036W        W89577  44.895  24.444   1.412
23037W        W89578   9.709  42.400  14.756
23038W        W89579   0.305   4.468  11.307
23039W        W89580  27.527  35.092   2.766
23040W        W89581  12.686  15.041  13.257
23041W        W89582  38.859  29.538   4.575
23042W        W89583   5.985  41.394   3.306
23043W        W89584  44.908  20.328   2.771
23044W        W89585  35.236  25.054  14.117
23045W        W89586  36.908   9.206  11.693
23046W        W89587   7.530   7.232  11.761
23047W        W89588   2.184  34.893   0.052
23048W        W89589  30.022  40.924  11.531
23049W        W89590  28.406  29.549  10.963
23050W        W89591  30.679  41.991  10.871
23051W        W89592  30.078  14.057  11.226
23052W        W89593  21.917  42.345   1.737
23053W        W89594  14.772   2.354   2.692
23054W        W89595  11.764  27.247  13.355
23055W        W89596  24.143  43.135   9.734
23056W        W89597   6.391  36.313   0.464
23057W        W89598   9.680  34.861   1.269
23058W        W89599  43.903  39.258   1.143
23059W        W89600  29.179  41.252  14.486
23060W        W89601  19.383  16.807   4.117
23061W        W89602  20.170  41.826   2.679
23062W        W89603  42.899  20.467  12.927
23063W        W89604  16.842  34.205  11.040
23064W        W89605  11.664  36.627   1.601
23065W        W89606  11.699  28.250   1.250
23066W        W89607   3.459  37.295  11.085
23067W        W89608   4.947   7.433   3.210
23068W        W89609  41.001  18.779   3.338
23069W        W89610   6.389  42.582   2.769
23070W        W89611  13.875  41.035   4.512
23071W        W89612  33.515  30.411   1.166
23072W        W89613  26.268  22.201  14.547
23073W        W89614  37.502   5.825   2.775
23074W        W89615  40.627  38.951   1.215
23075W        W89616  33.585   6.656   4.791
23076W        W89617  16.009  38.874   0.864
23077W        W89618   4.003  31.169  11.155
23078W        W89619   9.852  31.129  10.736
23079W        W89620   2.617  42.442  10.644
23080W        W89621   2.323  29.737  14.237
23081W        W89622  38.983  13.688   1.416
23082W        W89623  29.230   7.427  12.769
23083W        W89624  32.076   6.093  14.061
23084W        W89625   6.738  21.043   4.143
23085W        W89626  37.811  31.093   3.233
23086W        W89627   3.933  41.032   1.665
23087W        W89628  44.533  18.351  14.590
23088W        W89629  23.972  29.743   3.147
23089W        W89630  24.624  17.078  14.768
23090W        W89631  32.123  44.048   0.217
23091W        W89632  40.443  40.524  10.848
23092W        W89633  30.424  23.202   0.346
23093W        W89634  41.795  43.754   2.254
23094W        W89635  23.102  10.259  13.837
23095W        W89636  34.104   4.637  11.618
23096W        W89637  11.162   0.107   2.199
23097W        W89638  17.928  30.869   4.678
23098W        W89639  37.585  34.931  13.387
23099W        W89640  15.791  28.196  14.550
23100W        W89641  35.389  40.920  10.567
23101W        W89642  24.794  26.029  13.826
23102W        W89643  25.887  10.163  12.132
23103W        W89644  15.708  22.023  14.019
23104W        W89645   6.683  22.940  13.272
23105W        W89646  18.543   5.361  12.479
23106W        W89647  19.601   9.563  14.929
23107W        W89648  12.635  14.304  13.369
23108W        W89649  17.928  11.430   1.792
23109W        W89650  22.793  41.438  13.639
23110W        W89651  31.369  44.011   0.783
23111W        W89652  39.425  24.908   3.677
23112W        W89653  37.359  38.359  13.616
23113W        W89654  13.710  24.170   0.958
23114W        W89655  13.050  17.127  14.167
23115W        W89656  22.614  15.292  14.523
23116W        W89657   3.833  43.426   1.473
23117W        W89658   1.385  38.653  10.577
23118W        W89659  24.160   4.296   0.459
23119W        W89660  29.181  14.276  14.851
23120W        W89661  23.472  27.683  14.852
23121W        W89662  25.182  17.525  11.452
23122W        W89663   9.362   1.425  13.822
23123W        W89664  29.015  32.493  10.347
23124W        W89665  44.012  27.511  10.678
23125W        W89666   1.729   3.318   1.827
23126W        W89667  12.501  13.760   4.532
23127W        W89668   0.386   9.351   4.087
23128W        W89669   7.403  34.349   2.738
23129W        W89670  11.128  40.921  12.082
23130W        W89671  14.109  19.500   3.187
23131W        W89672  40.734  28.277  12.724
23132W        W89673   7.893  33.193  12.200
23133W        W89674  37.030   0.040  12.530
23134W        W89675  24.149   6.138   2.683
23135W        W89676  25.187  13.004   4.636
23136W        W89677  22.895  43.547   4.524
23137W        W89678   0.304  40.649  12.819
23138W        W89679  16.714  34.956   2.074
23139W        W89680  10.674  15.699   1.432
23140W        W89681  14.282  30.922  13.095
23141W        W89682  19.536   5.192  12.560
23142W        W89683  16.886  17.162   1.174
23143W        W89684   7.491  11.655  12.154
23144W        W89685   6.346  23.590  11.639
23145W        W89686  26.336  40.021   3.722
23146W        W89687  21.255  29.865  11.429
23147W        W89688  12.853  30.541   1.093
23148W        W89689   0.891  40.440   4.127
23149W        W89690   2.052   2.409  12.325
23150W        W89691  23.272   7.322  14.443
23151W        W89692  18.673  14.320  12.514
23152W        W89693  17.256  13.564   1.878
23153W        W89694  35.228  39.001   0.334
23154W        W89695  10.360  40.679   3.664
23155W        W89696  16.133  15.675  13.769
23156W        W89697   4.354  12.624  10.627
23157W        W89698  25.008   6.642   0.282
23158W        W89699   1.472  30.943  12.420
23159W        W89700   6.761  40.490   4.877
23160W        W89701  11.302  20.224  11.193
23161W        W89702   9.414   7.849  13.488
23162W        W89703  43.572  14.123   4.112
23163W        W89704  13.162  26.074   4.385
23164W        W89705  24.490  32.446   1.308
23165W        W89706  11.088  10.707  14.325
23166W        W89707  12.755  35.383  14.305
23167W        W89708  37.166  24.460  13.354
23168W        W89709  38.436  37.385  14.172
23169W        W89710   3.142  29.112   4.522
23170W        W89711  21.915   8.169   1.711
23171W        W89712  25.682  10.422   3.710
23172W        W89713  36.395  19.786  14.849
23173W        W89714   3.802  10.697   0.889
23174W        W89715  41.829  40.587  13.425
23175W        W89716  41.390   7.721   2.331
23176W        W89717  43.453  30.081   3.172
23177W        W89718  13.336  23.630  10.326
23178W        W89719  29.909   7.749   0.263
23179W        W89720  13.009  29.777  10.992
23180W        W89721  28.649  16.131   1.375
23181W        W89722  27.021  29.118  11.468
23182W        W89723  26.597  27.161  14.418
23183W        W89724  23.194  18.492  11.097
23184W        W89725   9.315  30.875   2.293
23185W        W89726  42.374  29.235  13.929
23186W        W89727  20.846  21.371  11.225
23187W        W89728   7.922  33.078   3.519
23188W        W89729   7.324  32.909   1.478
23189W        W89730  13.300  23.902   3.219
23190W        W89731  24.209   6.325   3.657
23191W        W89732  38.137   8.176   3.710
23192W        W89733  17.083   7.934   2.753
23193W        W89734   8.851  31.981  10.358
23194W        W89735  29.633  20.102   0.922
23195W        W89736  44.442  21.953  13.594
23196W        W89737  11.884  12.341  11.173
23197W        W89738  14.774   1.702   1.453
23198W        W89739  17.786  13.322   5.325
23199W        W89740  35.610  20.228   0.543
23200W        W89741  41.823   0.336   2.639
23201W        W89742   9.129  29.974  10.936
23202W        W89743  43.822  32.447   2.443
23203W        W89744  26.930  13.680   3.860
23204W        W89745  24.043   5.648   2.738
23205W        W89746  37.460   6.222   0.678
23206W        W89747  38.171   4.196  13.999
23207W        W89748  36.554  23.600   4.415
23208W        W89749  16.680  29.366   2.241
23209W        W89750   0.814  23.284   4.062
23210W        W89751  29.559  25.914  10.592
23211W        W89752  13.680   0.334   1.788
23212W        W89753  26.603  33.146  12.661
23213W        W89754   5.119  23.196  12.076
23214W        W89755  13.220  29.140  14.300
23215W        W89756   4.389  11.677   4.419
23216W        W89757   3.402  27.815   2.654
23217W        W89758   1.493  42.249   0.849
23218W        W89759  40.036  26.158   1.258
23219W        W89760  39.996  41.940   2.806
23220W        W89761  19.201  29.591  13.910
23221W        W89762  26.480  41.231  11.036
23222W        W89763  10.000  22.670   4.197
23223W        W89764  22.538  32.901  13.502
23224W        W89765  25.676  15.899  10.301
23225W        W89766  43.929   7.156  13.713
23226W        W89767  12.631  43.505  13.448
23227W        W89768  19.136  15.386   4.964
23228W        W89769   7.592  30.008   2.210
23229W        W89770  26.421   0.339   0.516
23230W        W89771  17.772  24.280   4.672
23231W        W89772   8.630  28.551  11.020
23232W        W89773   4.860  43.622   0.431
23233W        W89774  33.505  28.017   4.681
23234W        W89775   3.063  26.475  11.922
23235W        W89776   4.448  30.580  12.896
23236W        W89777  28.896  39.394  11.087
23237W        W89778  26.151  31.210   0.024
23238W        W89779  11.547  27.468  11.604
23239W        W89780  14.250  13.028   4.670
23240W        W89781  33.179  20.775   0.336
23241W        W89782   1.891   1.755  12.997
23242W        W89783  43.456  26.254  14.422
23243W        W89784  23.541  40.853  14.111
23244W        W89785  38.841  34.078   4.783
23245W        W89786   2.449  28.214  11.662
23246W        W89787  44.272  33.908  12.663
23247W        W89788   1.226  14.648   3.712
23248W        W89789  14.534  38.050  11.174
23249W        W89790  25.098   3.301  12.912
23250W        W89791  10.732   2.439   1.915
23251W        W89792  20.554   9.448   3.219
23252W        W89793  32.622   5.345  11.662
23253W        W89794  15.202  15.535   3.567
23254W        W89795  34.518  37.003  14.008
23255W        W89796  13.885  15.690  10.781
23256W        W89797  15.118  12.364   0.040
23257W        W89798  12.776   3.268   0.037
23258W        W89799  38.132  26.861  11.421
23259W        W89800  19.458  27.510  12.971
23260W        W89801   2.801  26.690   2.376
23261W        W89802   6.057  33.023   4.250
23262W        W89803  14.320  13.065   2.488
23263W        W89804   5.471  32.169   1.718
23264W        W89805  12.650  44.006  13.518
23265W        W89806  14.668   5.536   2.776
23266W        W89807   2.724  25.622   1.175
23267W        W89808  23.064   5.835   0.324
23268W        W89809  27.049   1.436   1.364
23269W        W89810   4.036  40.597  11.788
23270W        W89811  17.178  18.328   0.858
23271W        W89812  31.627  41.715  14.839
23272W        W89813  33.959  35.413   3.411
23273W        W89814  21.182  25.563   0.813
23274W        W89815   2.841  15.718  11.502
23275W        W89816  36.260  12.695   2.932
23276W        W89817  17.437  30.246   1.756
23277W        W89818  27.663  19.510  12.565
23278W        W89819  35.934   0.068  13.397
23279W        W89820  11.809   0.580  11.925
23280W        W89821  39.925  21.495   1.554
23281W        W89822  41.620  19.082  14.756
23282W        W89823  10.001  18.296  14.530
23283W        W89824  16.253   2.390   2.314
23284W        W89825  42.898   1.985   2.787
23285W        W89826  20.158  30.690  10.130
23286W        W89827  42.440  14.113  13.301
23287W        W89828  41.894   5.696  12.614
23288W        W89829  17.386   8.030   3.169
23289W        W89830  20.701   4.146  14.562
23290W        W89831  20.529   4.697  12.990
23291W        W89832  28.395   7.311   0.898
23292W        W89833  16.375  30.719   0.102
23293W        W89834  10.258  41.491  11.576
23294W        W89835  40.720  25.492  13.889
23295W        W89836   7.655  21.194  11.613
23296W        W89837  23.132  43.783   3.143
23297W        W89838  44.656  25.980  13.940
23298W        W89839  30.507  25.990   3.313
23299W        W89840  10.821  25.835   0.939
23300W        W89841   4.475  20.413   1.164
23301W        W89842  25.448   3.703   0.901
23302W        W89843   7.056  34.445  11.953
23303W        W89844  41.036  35.345   2.109
23304W        W89845  34.997   6.637   3.396
23305W        W89846   6.992  40.258   4.012
23306W        W89847  41.797  28.649  12.019
23307W        W89848  16.782  19.602   0.214
23308W        W89849  27.636  17.972   0.361
23309W        W89850  13.669   9.103  11.567
23310W        W89851  17.826  20.136   2.436
23311W        W89852  12.254  19.692   3.802
23312W        W89853  32.402   7.171  11.641
23313W        W89854  21.323  20.562   3.612
23314W        W89855  29.551  21.310  12.871
23315W        W89856   3.277   8.937   3.449
23316W        W89857  12.360  44.489  11.520
23317W        W89858  34.818  25.186  14.911
23318W        W89859  26.108  12.361  12.490
23319W        W89860  25.634  15.290   4.907
23320W        W89861  37.478  19.964   3.845
23321W        W89862  42.564  19.047  13.848
23322W        W89863  37.379  23.853   4.793
23323W        W89864  43.838  25.461   4.217
23324W        W89865  32.817  39.066   9.896
23325W        W89866   8.719  31.515   4.920
23326W        W89867  16.780  20.684   1.620
23327W        W89868  39.248  35.983   4.066
23328W        W89869   6.209  24.584   0.134
23329W        W89870  25.590  22.372  10.571
23330W        W89871  10.325   3.412  13.203
23331W        W89872  26.649  41.735   1.377
23332W        W89873  14.637  19.192  10.734
23333W        W89874  33.138  30.427  13.045
23334W        W89875  17.591  17.298   2.292
23335W        W89876  22.129  32.438  12.815
23336W        W89877   4.756   5.067  10.284
23337W        W89878  38.225  39.403   1.042
23338W        W89879  16.265   0.935   3.828
23339W        W89880   1.987  35.734  13.797
23340W        W89881  17.273  15.250   0.202
23341W        W89882  30.897  41.246  12.457
23342W        W89883  35.978  35.937   2.175
23343W        W89884  23.413  37.925  12.475
23344W        W89885  35.893  40.966   0.940
23345W        W89886  40.865  42.041  10.780
23346W        W89887   8.512   2.467   1.403
23347W        W89888  17.241  31.992   4.681
23348W        W89889   2.266   1.595   3.968
23349W        W89890   1.318  44.888   3.374
23350W        W89891  23.629  20.740  14.791
23351W        W89892  23.787  10.493   2.850
23352W        W89893  14.721  30.172  12.002
23353W        W89894  40.146   1.753   2.760
23354W        W89895   8.262  11.107  11.092
23355W        W89896  22.114  26.423  12.043
23356W        W89897  31.464   6.254   1.694
23357W        W89898  27.976   5.240  11.146
23358W        W89899   0.792  28.639   0.267
23359W        W89900  44.736  26.651  11.230
23360W        W89901   1.832  33.454   5.491
23361W        W89902  24.808  18.031  14.409
23362W        W89903  16.684  13.116  10.774
23363W        W89904  43.285  22.644  10.736
23364W        W89905  29.048  12.664   0.721
23365W        W89906  40.381   2.708   2.804
23366W        W89907  34.675  18.337  13.360
23367W        W89908   4.034   0.262   3.330
23368W        W89909  22.847  39.945   4.816
23369W        W89910   2.767  12.602   4.736
23370W        W89911   1.767  24.550  13.349
23371W        W89912   1.148  28.903   1.762
23372W        W89913   1.008  11.413   3.239
23373W        W89914  40.426  11.668   1.909
23374W        W89915  40.393  35.943  13.410
23375W        W89916  35.980  32.793  12.122
23376W        W89917  42.331  18.354  14.499
23377W        W89918  43.203  26.533  10.083
23378W        W89919  32.854  32.608   2.408
23379W        W89920  39.936  13.125  12.152
23380W        W89921  43.119   5.275   2.656
23381W        W89922  15.271  15.597   3.054
23382W        W89923  33.369   0.875  10.173
23383W        W89924  34.367  25.862  12.346
23384W        W89925  13.174   3.295   0.381
23385W        W89926   8.894   0.368  13.413
23386W        W89927  44.819  20.286  11.678
23387W        W89928  16.705  42.779  12.426
23388W        W89929  18.788  17.750  12.593
23389W        W89930   8.790  13.789  14.343
23390W        W89931  21.222  38.842   4.128
23391W        W89932  37.480  37.922  12.472
23392W        W89933  40.193  38.901   1.473
23393W        W89934   9.775  27.533  13.022
23394W        W89935  21.782  33.196   4.149
23395W        W89936  33.647  29.619  14.510
23396W        W89937  28.474  36.845  11.424
23397W        W89938   8.835  20.270  12.936
23398W        W89939  13.309  19.203  12.938
23399W        W89940  24.104  13.980   5.091
23400W        W89941  24.117   0.610   1.748
23401W        W89942   2.530  22.555   3.623
23402W        W89943  37.127  43.963  11.109
23403W        W89944  27.287   0.738  13.375
23404W        W89945  14.420  25.058   2.807
23405W        W89946  24.026  13.098   1.882
23406W        W89947  22.186   5.388   0.319
23407W        W89948  39.535  35.222  12.418
23408W        W89949  30.487   6.300   2.268
23409W        W89950  14.091   1.498  13.033
23410W        W89951  37.910  13.272  10.053
23411W        W89952  15.272  13.863   4.608
23412W        W89953  38.818  34.562   2.152
23413W        W89954  21.130   9.393  14.733
23414W        W89955  25.246  33.681  14.232
23415W        W89956   2.091   0.964  10.168
23416W        W89957   7.174  38.150   9.892
23417W        W89958  37.370   2.812   0.285
23418W        W89959  18.343  15.762   1.773
23419W        W89960  11.312   8.826  14.124
23420W        W89961  21.132  37.854   1.284
23421W        W89962   1.835  29.982  13.356
23422W        W89963   9.965  33.358  11.081
23423W        W89964  34.065  32.957   1.897
23424W        W89965  36.106   9.847   2.410
23425W        W89966  40.788  32.503   1.046
23426W        W89967  26.452  30.800   2.260
23427W        W89968  40.618  21.481   2.816
23428W        W89969  35.573  26.676   0.812
23429W        W89970  34.918  22.554  11.742
23430W        W89971   3.936  13.889  12.147
23431W        W89972  37.509  43.755   4.401
23432W        W89973  32.930  14.897  12.442
23433W        W89974   4.134  26.607  14.972
23434W        W89975   9.808  22.575  12.421
23435W        W89976  38.642  31.988  10.041
23436W        W89977  43.284   6.377   4.009
23437W        W89978  28.921  30.920   1.540
23438W        W89979  22.664   6.588   0.725
23439W        W89980  38.288  35.329  14.328
23440W        W89981  11.719   2.718  14.908
23441W        W89982  21.568  17.424  12.030
23442W        W89983  39.742  17.813  11.587
23443W        W89984   0.285  43.756   3.298
23444W        W89985   3.675  29.232   4.501
23445W        W89986   7.305  26.017  14.993
23446W        W89987  31.920  18.791   2.678
23447W        W89988  43.909   3.512  14.461
23448W        W89989  32.627  41.279   3.341
23449W        W89990  33.213  13.832   1.667
23450W        W89991  20.143  17.802   1.201
23451W        W89992   8.142  29.090  11.169
23452W        W89993  23.205  42.344  12.553
23453W        W89994  16.507  39.831   1.747
23454W        W89995  15.788  21.761  14.459
23455W        W89996  20.321  18.183  13.303
23456W        W89997  26.098  18.080  12.439
23457W        W89998  13.584  26.576   0.203
23458W        W89999  19.735  16.220   1.682
23459W        W90000  11.602  43.961   3.158
23460W        W90001   8.020   1.208   4.550
23461W        W90002  12.655  26.620   2.284
23462W        W90003  43.821  31.548  14.744
23463W        W90004  13.594  35.021   0.700
23464W        W90005  28.061  33.783  12.827
23465W        W90006  37.978  11.678  11.523
23466W        W90007  40.419   0.486   1.187
23467W        W90008   1.644  26.990   0.366
23468W        W90009  37.495  29.907  12.487
23469W        W90010  33.411  33.494  10.921
23470W        W90011  44.229  43.775   0.673
23471W        W90012  14.030  14.416   2.303
23472W        W90013   9.156  32.122  12.077
23473W        W90014  28.162  23.600   1.156
23474W        W90015  30.017  42.361   1.885
23475W        W90016  34.399  17.155   3.516
23476W        W90017  30.540  36.197   1.933
23477W        W90018  13.674  25.168   3.133
23478W        W90019  22.405   8.655   3.373
23479W        W90020  20.983  25.220   2.779
23480W        W90021  42.965  25.056   1.475
23481W        W90022  17.168  16.683   3.392
23482W        W90023   8.659  18.345  14.228
23483W        W90024  13.751  24.669   3.081
23484W        W90025  34.537  39.536   3.998
23485W        W90026  17.292   0.445  13.934
23486W        W90027  16.037  29.772   4.967
23487W        W90028  33.565  17.795  12.148
23488W        W90029  22.961   7.622  11.096
23489W        W90030  14.670   3.545   1.786
23490W        W90031  21.194  16.720  11.494
23491W        W90032  40.855   7.214  14.187
23492W        W90033  31.579  16.895   4.290
23493W        W90034  36.263  22.070   0.910
23494W        W90035  18.531  33.090  14.711
23495W        W90036   5.614  44.400   2.775
23496W        W90037   3.822  10.185  10.225
23497W        W90038  13.107  40.753  11.735
23498W        W90039  28.132  27.065  14.972
23499W        W90040  20.480  33.586  11.114
23500W        W90041  34.203  26.822   3.201
23501W        W90042  17.357  11.222  13.945
23502W        W90043  17.159  42.288  12.010
23503W        W90044  29.326  32.243   1.635
23504W        W90045   0.523   5.870   4.981
23505W        W90046  31.738   1.974  10.203
23506W        W90047  18.945  38.692  12.946
23507W        W90048  23.234  37.353  13.576
23508W        W90049   6.446  25.826  11.058
23509W        W90050  43.195  27.128  12.588
23510W        W90051  22.061  22.567  13.017
23511W        W90052  38.985  28.399  10.440
23512W        W90053  38.409  24.440   3.462
23513W        W90054  35.715  28.100   1.830
23514W        W90055   8.288  24.767   1.450
23515W        W90056  30.608   3.401  10.268
23516W        W90057  10.349   4.188  10.369
23517W        W90058   6.238   7.581  14.459
23518W        W90059   2.024  23.748   0.745
23519W        W90060  35.979  11.245  14.544
23520W        W90061  18.321  44.483   1.716
23521W        W90062   4.249  39.144   2.074
23522W        W90063   3.015   6.927  13.928
23523W        W90064  18.193  28.932   3.201
23524W        W90065  40.739   4.424   3.258
23525W        W90066   0.304  29.808   4.553
23526W        W90067  23.999  21.144  10.278
23527W        W90068  16.066  29.721  12.877
23528W        W90069  11.697   6.703  12.999
23529W        W90070  41.288  33.080   3.164
23530W        W90071  19.643  27.250  12.043
23531W        W90072   1.500   1.359   3.156
23532W        W90073   4.244  26.272  10.729
23533W        W90074   2.345  19.769  10.260
23534W        W90075   6.611  21.745   3.260
23535W        W90076  13.982  44.854  12.591
23536W        W90077   6.632  33.531   2.021
23537W        W90078   4.997  16.256  14.301
23538W        W90079  42.018   7.316   2.788
23539W        W90080  41.239   6.834   3.591
23540W        W90081  42.014  31.828  12.488
23541W        W90082   1.566   3.382   0.533
23542W        W90083  40.747   8.241   2.378
23543W        W90084  29.332  15.638   1.631
23544W        W90085  39.351   1.300   3.009
23545W        W90086  22.280  12.786   2.760
23546W        W90087  43.566  11.239   1.996
23547W        W90088  17.629  15.706  13.265
23548W        W90089  13.683  18.406   4.297
23549W        W90090  30.655  40.380   3.352
23550W        W90091   9.180  40.682   0.757
23551W        W90092  29.643  41.336   1.661
23552W        W90093  34.881  15.746   3.118
23553W        W90094  21.471  37.758   1.771
23554W        W90095  29.935  16.152  11.563
23555W        W90096  44.390  23.255  12.669
23556W        W90097  38.123  14.759  13.940
23557W        W90098  11.452  25.121   3.334
23558W        W90099   0.350  40.856  10.823
23559W        W90100  17.498  43.186  14.851
23560W        W90101  17.434  17.088   0.819
23561W        W90102   5.921  32.993   3.259
23562W        W90103   8.902  15.935  12.024
23563W        W90104  18.709  17.153   3.215
23564W        W90105  20.239  39.898  12.937
23565W        W90106  26.918  38.451  11.469
23566W        W90107  16.033  33.646   2.953
23567W        W90108   6.249   1.717   3.815
23568W        W90109   1.884   9.521   0.848
23569W        W90110   8.738   6.361  13.536
23570W        W90111  31.462  29.041  12.367
23571W        W90112  42.872  27.888  13.886
23572W        W90113  20.523  39.257   2.409
23573W        W90114  12.023  23.096  11.308
23574W        W90115  40.983   9.600   4.550
23575W        W90116  25.533  14.023  11.404
23576W        W90117   3.396   9.320   4.587
23577W        W90118  17.362  32.699  10.121
23578W        W90119  13.544  31.804   2.768
23579W        W90120  16.187  24.268   2.857
23580W        W90121   4.988  24.003  11.801
23581W        W90122  44.758  27.926   4.302
23582W        W90123  27.054  25.134   0.808
23583W        W90124  20.009   7.056  11.080
23584W        W90125  23.548  26.451  13.029
23585W        W90126   6.356  40.537  11.220
23586W        W90127   5.684  29.145  14.859
23587W        W90128  37.762  17.087   0.808
23588W        W90129  36.636  31.507  10.710
23589W        W90130  30.108  40.739  12.062
23590W        W90131  27.160   3.338   2.041
23591W        W90132  27.247  17.743   3.692
23592W        W90133  20.135  24.287   2.272
23593W        W90134  28.149  12.639   1.153
23594W        W90135  26.613  21.942   2.025
23595W        W90136  32.435  22.557  10.165
23596W        W90137  36.313  35.505   0.332
23597W        W90138  37.043  40.118  11.172
23598W        W90139  29.636  41.110  12.857
23599W        W90140  23.633  18.136   1.342
23600W        W90141  25.638  13.893   0.845
23601W        W90142  17.683  21.965   2.811
23602W        W90143  16.734  24.000   0.443
23603W        W90144  15.599  18.301   2.288
23604W        W90145   4.688  24.084  14.567
23605W        W90146  22.151  12.641   1.871
23606W        W90147  23.052  27.614  10.506
23607W        W90148   0.547   8.363  13.977
23608W        W90149   9.808  43.321   4.511
23609W        W90150  29.581  43.284   2.140
23610W        W90151   4.830  12.876   1.664
23611W        W90152  10.761  19.217  14.072
23612W        W90153  11.240  13.701   1.663
23613W        W90154  21.306  38.093   2.200
23614W        W90155  25.961  36.074   2.166
23615W        W90156  12.241  30.144  12.856
23616W        W90157  15.318  23.025   4.681
23617W        W90158  24.582  43.958   1.830
23618W        W90159  13.333   3.818  11.529
23619W        W90160  18.269  12.777   1.801
23620W        W90161  18.474  17.270   0.848
23621W        W90162  43.724  23.446   1.941
23622W        W90163   0.498   2.286   4.167
23623W        W90164  40.107  12.813  11.578
23624W        W90165   4.389  19.846  10.621
23625W        W90166  29.985  22.918   0.328
23626W        W90167  21.026  38.107  12.462
23627W        W90168  38.065   6.368  14.946
23628W        W90169  12.924   1.404   2.093
23629W        W90170  44.236  19.623  13.875
23630W        W90171   1.822  15.675  12.999
23631W        W90172  33.406  16.256   3.660
23632W        W90173   3.500  38.845   0.773
23633W        W90174  41.500  40.310  14.099
23634W        W90175  22.400  31.909   4.423
23635W        W90176  32.882  11.195  10.701
23636W        W90177  13.253  19.792  11.413
23637W        W90178  30.942  26.563   0.872
23638W        W90179  39.564  28.430   4.629
23639W        W90180  24.636   1.645  12.070
23640W        W90181  30.655  31.668  13.257
23641W        W90182  25.577  36.633  12.254
23642W        W90183   6.280  35.538  12.017
23643W        W90184   3.348  16.104   4.657
23644W        W90185  31.646  11.914  13.937
23645W        W90186  32.427  11.250   2.396
23646W        W90187  16.074   2.952  12.746
23647W        W90188  44.715  28.952  13.181
23648W        W90189   8.853  14.329   3.517
23649W        W90190  23.064  30.263  14.097
23650W        W90191  23.248  34.597   0.445
23651W        W90192  35.491  31.269  12.932
23652W        W90193  32.956  38.557   2.712
23653W        W90194  33.440  18.054   1.266
23654W        W90195  37.795  33.007   4.334
23655W        W90196  30.166  15.092  14.954
23656W        W90197  29.434   0.321  13.647
23657W        W90198   1.823   0.218   0.611
23658W        W90199  16.491  38.842   1.037
23659W        W90200  18.353  21.993   3.798
23660W        W90201   0.847  19.365  11.145
23661W        W90202  22.535  35.111  14.433
23662W        W90203  24.093  19.637   3.885
23663W        W90204  19.806  36.936  13.958
23664W        W90205  25.085  26.526   5.020
23665W        W90206  26.053  17.286  13.004
23666W        W90207  22.947   2.579  11.014
23667W        W90208  21.806  26.132   2.786
23668W        W90209  27.416  29.673  14.009
23669W        W90210  35.234  12.256  13.001
23670W        W90211  29.224   3.718   0.490
23671W        W90212   2.981   8.018  11.618
23672W        W90213   6.888  36.791   2.331
23673W        W90214   1.395  13.291   1.895
23674W        W90215  22.127  44.922   2.147
23675W        W90216  25.661  13.329   4.010
23676W        W90217   5.481   0.733   3.777
23677W        W90218   0.890  22.103   2.942
23678W        W90219  39.050   5.426   1.321
23679W        W90220  27.973  17.699  11.503
23680W        W90221  31.996   1.925   1.312
23681W        W90222  12.476  22.196  13.277
23682W        W90223  30.867   6.342  10.621
23683W        W90224  42.024  41.693  11.538
23684W        W90225  44.994   9.580   3.283
23685W        W90226   3.866  35.514   0.852
23686W        W90227  22.142   6.607  14.084
23687W        W90228  41.687   0.138  10.371
23688W        W90229  36.511   2.381   1.383
23689W        W90230   9.650   3.885  11.687
23690W        W90231  36.961   4.388   2.864
23691W        W90232  14.088  12.723   2.178
23692W        W90233  12.835   2.972  14.101
23693W        W90234  40.529  38.231   4.137
23694W        W90235   1.417   5.643  14.978
23695W        W90236  28.274  10.368  14.501
23696W        W90237   9.094  22.163   2.340
23697W        W90238   9.824  43.471   1.771
23698W        W90239   0.463   7.788   0.719
23699W        W90240  12.313   3.903  10.718
23700W        W90241   8.945  33.004   0.157
23701W        W90242  33.155   0.116   0.346
23702W        W90243  44.365  17.126  14.278
23703W        W90244  16.769   4.926   1.856
23704W        W90245  23.444  17.202   4.126
23705W        W90246   2.899   2.387   0.905
23706W        W90247   1.285  36.998   4.342
23707W        W90248  15.696  11.682  11.872
23708W        W90249  26.419  31.487   4.175
23709W        W90250  11.777   9.899   3.751
23710W        W90251  28.935   1.386  14.782
23711W        W90252   2.969   9.148   0.300
23712W        W90253   1.229  32.346  14.371
23713W        W90254   2.277   0.897  11.048
23714W        W90255  13.436  24.650   2.669
23715W        W90256  29.129  22.102   1.859
23716W        W90257  40.590   1.264   3.782
23717W        W90258  30.972  11.027   4.184
23718W        W90259   5.923  37.482   3.131
23719W        W90260  36.971   3.911   1.673
23720W        W90261  28.203  32.280  10.930
23721W        W90262  35.166  19.730  10.273
23722W        W90263  39.731  29.218   3.152
23723W        W90264  24.433  12.661  14.983
23724W        W90265  35.067  32.787  10.739
23725W        W90266  21.191  30.594  11.884
23726W        W90267  10.830  36.526   1.369
23727W        W90268   3.253  38.578   4.754
23728W        W90269  23.905  32.027   0.197
23729W        W90270  30.502  15.006   2.667
23730W        W90271  32.885  11.123   2.742
23731W        W90272  22.564  12.523   0.940
23732W        W90273  19.668  31.125   0.809
23733W        W90274  26.134  42.449  11.315
23734W        W90275  40.027  41.941  12.101
23735W        W90276  41.545  19.256   4.068
23736W        W90277  24.692  44.019   2.755
23737W        W90278  41.654  39.271  13.353
23738W        W90279  23.177  20.477   3.189
23739W        W90280  32.453   8.177  14.429
23740W        W90281  42.456   7.201   3.174
23741W        W90282  32.667  32.093   3.377
23742W        W90283  35.546  32.622   1.851
23743W        W90284   1.729   4.782   1.776
23744W        W90285  32.509  28.136  11.186
23745W        W90286  35.643  11.792   2.933
23746W        W90287  16.241  22.232  14.922
23747W        W90288  41.313  20.803   4.113
23748W        W90289  40.842  25.748   2.363
23749W        W90290  16.226  20.811   3.228
23750W        W90291  29.351  43.810   1.367
23751W        W90292  24.256  10.547  13.299
23752W        W90293   2.521  21.237  13.301
23753W        W90294   1.036  40.298   2.890
23754W        W90295  37.651  27.717  11.170
23755W        W90296   2.220  10.764   3.348
23756W        W90297   4.385  17.985   4.851
23757W        W90298  29.835  24.879  13.097
23758W        W90299  16.366  34.606   1.903
23759W        W90300  33.175  44.772   1.938
23760W        W90301  29.245  28.125   4.642
23761W        W90302  23.467  17.004  13.850
23762W        W90303   5.389  31.513  11.905
23763W        W90304  18.053  35.361  10.808
23764W        W90305  13.761  30.804  14.762
23765W        W90306  20.008   9.735   1.596
23766W        W90307  24.626  31.779  12.552
23767W        W90308  31.944  15.756  13.086
23768W        W90309  35.143  42.911   4.584
23769W        W90310  26.080   9.957  14.919
23770W        W90311  43.795  31.982  10.645
23771W        W90312  34.113  18.560   2.334
23772W        W90313   4.208   6.323  13.859
23773W        W90314  24.439  35.401   1.775
23774W        W90315  18.052   6.596  14.557
23775W        W90316  32.024  32.912   2.685
23776W        W90317   7.952  25.431   0.716
23777W        W90318  19.708   6.024   2.202
23778W        W90319  12.593  44.812   3.826
23779W        W90320  10.395  23.986   3.231
23780W        W90321  15.817  15.697  11.439
23781W        W90322  34.934  33.966   0.847
23782W        W90323   0.501  10.761  12.133
23783W        W90324  31.169  22.483  14.089
23784W        W90325  29.895  19.961   1.880
23785W        W90326  31.268  39.626   3.734
23786W        W90327  10.635  30.477  12.432
23787W        W90328   7.978  25.086   3.426
23788W        W90329   0.417  22.072  14.733
23789W        W90330   9.095  16.365   1.681
23790W        W90331  11.309  15.391  13.452
23791W        W90332  23.609  16.618   0.877
23792W        W90333  36.981  31.129  11.624
23793W        W90334  10.855  40.830  11.194
23794W        W90335   0.722   4.744   2.219
23795W        W90336   9.247  15.045  14.033
23796W        W90337  24.467  31.952  14.024
23797W        W90338  32.963  18.188   3.892
23798W        W90339  41.217  18.633   1.867
23799W        W90340   6.429  24.126  14.387
23800W        W90341  10.957  44.897   2.643
23801W        W90342  20.115   9.568   3.671
23802W        W90343  44.546  20.014  13.784
23803W        W90344  38.973  32.219  13.526
23804W        W90345  33.654  13.278   1.208
23805W        W90346  41.880  38.143  12.395
23806W        W90347  27.603   5.323  12.438
23807W        W90348  28.013   9.742  12.800
23808W        W90349   5.862  31.083   2.757
23809W        W90350   5.472  32.690   0.820
23810W        W90351  16.063  23.559  11.627
23811W        W90352  32.163  40.960  12.440
23812W        W90353  37.491  19.488  10.328
23813W        W90354   8.006  17.097   2.693
23814W        W90355  17.073  44.045  10.386
23815W        W90356  40.088  31.485   2.017
23816W        W90357  15.795   6.904   0.280
23817W        W90358  29.401  42.979   4.095
23818W        W90359  33.502  18.559  12.683
23819W        W90360  15.704  15.753  12.370
23820W        W90361  38.938  37.972   4.679
23821W        W90362   4.244  37.854   4.263
23822W        W90363  39.452  10.186  10.548
23823W        W90364  26.593  41.945   4.669
23824W        W90365  24.534  39.905   1.572
23825W        W90366  26.790  33.266   2.314
23826W        W90367   8.392   3.084   2.081
23827W        W90368  19.990  22.962   1.213
23828W        W90369  24.389  12.733   0.903
23829W        W90370  34.325  28.482  11.816
23830W        W90371  40.821  36.850  12.553
23831W        W90372   4.190  11.772   1.832
23832W        W90373  36.691  14.830  11.570
23833W        W90374  44.942  43.226   0.917
23834W        W90375  11.296  35.592   4.722
23835W        W90376  36.077  35.083  12.513
23836W        W90377   4.791  29.796   1.388
23837W        W90378  14.835  29.474   4.223
23838W        W90379   7.313  10.782   1.519
23839W        W90380  30.898  43.978   1.738
23840W        W90381  41.516  17.669   2.356
23841W        W90382   5.553  37.005   9.780
23842W        W90383  10.264  32.633  12.672
23843W        W90384  16.353  36.980  13.779
23844W        W90385  34.855  33.750   2.293
23845W        W90386  24.325  18.725   0.185
23846W        W90387  15.319  36.559   1.298
23847W        W90388  20.248  26.999  12.029
23848W        W90389  19.211  42.802  12.977
23849W        W90390  37.553  33.779   2.321
23850W        W90391   7.684  24.666   0.339
23851W        W90392  12.205  34.122   3.782
23852W        W90393  16.131   6.449  12.924
23853W        W90394  42.784  42.029  14.869
23854W        W90395   9.291   7.117   2.280
23855W        W90396  18.644  17.224  12.413
23856W        W90397  31.412   4.895  11.859
23857W        W90398   0.814  23.209   0.510
23858W        W90399  20.346   2.743   2.588
23859W        W90400  19.538   3.742  14.914
23860W        W90401  22.578   3.965  14.022
23861W        W90402  12.139  29.454   1.529
23862W        W90403  26.651   8.258   3.218
23863W        W90404  41.741  36.609  11.208
23864W        W90405  29.370  25.929  14.470
23865W        W90406  32.065  27.257   2.237
23866W        W90407   3.020  25.265  11.893
23867W        W90408  37.647  27.061  12.443
23868W        W90409  28.478  20.278  10.603
23869W        W90410   4.753   9.755   3.255
23870W        W90411  21.023  16.129  14.824
23871W        W90412  36.961  17.799  14.868
23872W        W90413  30.428  20.196   4.372
23873W        W90414  21.649  14.847  12.857
23874W        W90415  10.963  41.427  12.023
23875W        W90416   6.045  39.475   5.065
23876W        W90417  19.581   5.772   4.575
23877W        W90418   0.243  21.507   4.084
23878W        W90419  29.338   7.790   1.403
23879W        W90420  16.368   2.901  11.438
23880W        W90421  26.611  44.366   1.393
23881W        W90422  38.481  39.352   1.979
23882W        W90423  30.747  14.806   2.244
23883W        W90424  11.773   2.794   1.380
23884W        W90425  19.813  37.168   0.220
23885W        W90426  19.015  29.940   2.626
23886W        W90427   7.508  13.970   0.000
23887W        W90428  20.167  38.362  11.385
23888W        W90429  39.385  27.934   3.308
23889W        W90430   8.245  14.520   2.359
23890W        W90431   6.175  42.900   1.257
23891W        W90432   8.246  10.402   4.133
23892W        W90433  43.320  23.090   3.691
23893W        W90434  19.304   3.692   2.308
23894W        W90435  29.652  24.901   3.619
23895W        W90436  26.456  42.779  13.449
23896W        W90437  29.686  38.455   2.097
23897W        W90438  19.582  19.072  12.425
23898W        W90439  26.225   7.773   3.179
23899W        W90440  38.905  26.198   0.674
23900W        W90441  39.509  11.302  14.935
23901W        W90442   3.788  40.095   3.239
23902W        W90443  16.527  29.050   4.541
23903W        W90444  30.529  36.235  14.339
23904W        W90445  21.706  29.486   4.499
23905W        W90446   9.645  28.502   4.462
23906W        W90447  30.428   2.484   4.502
23907W        W90448  26.248  44.262   4.108
23908W        W90449   5.836  30.512   2.362
23909W        W90450  26.247  17.748  10.541
23910W        W90451  17.481  40.945  10.255
23911W        W90452  44.464   5.875  14.081
23912W        W90453  32.312   5.871  12.359
23913W        W90454  18.250  30.962  14.265
23914W        W90455  11.729  25.763   4.520
23915W        W90456  36.695  30.450  14.313
23916W        W90457   7.817  11.280   4.565
23917W        W90458   4.445  37.623  13.400
23918W        W90459  37.790  33.586  10.816
23919W        W90460   3.655  19.008   2.295
23920W        W90461  29.585   1.547   2.650
23921W        W90462  26.296  40.602   2.763
23922W        W90463  40.603  40.033   2.722
23923W        W90464  15.337  15.999  11.117
23924W        W90465  15.680  24.239   4.121
23925W        W90466  33.116  19.795   1.424
23926W        W90467  33.666  35.039  14.156
23927W        W90468   3.086  21.858  12.022
23928W        W90469  27.479   0.480   2.305
23929W        W90470  15.621   7.171  12.857
23930W        W90471  43.733  25.570   1.634
23931W        W90472  39.809  24.356   1.860
23932W        W90473   9.639  26.120   4.271
23933W        W90474  19.564  26.950  10.724
23934W        W90475  17.505  32.941   0.745
23935W        W90476   7.061  38.330  13.361
23936W        W90477  12.851  13.116   3.971
23937W        W90478   8.141  26.890  14.833
23938W        W90479  43.287   1.406  11.706
23939W        W90480  12.101  14.333  13.441
23940W        W90481   6.835  31.687   0.214
23941W        W90482  16.728  19.241  11.426
23942W        W90483  15.361  28.933  12.011
23943W        W90484   0.558  44.876   4.436
23944W        W90485  28.773  38.412   2.555
23945W        W90486   8.438   9.976   1.690
23946W        W90487  32.547  40.275  14.744
23947W        W90488  24.946  40.322  14.900
23948W        W90489  14.204   2.552   4.450
23949W        W90490  40.837  23.670   3.134
23950W        W90491  42.014   7.195  12.961
23951W        W90492  11.340  41.716  12.161
23952W        W90493   0.972   4.952  14.365
23953W        W90494  36.871   2.013  12.441
23954W        W90495  35.249   3.420   1.193
23955W        W90496  41.302  33.578  10.771
23956W        W90497  42.664  38.763   2.369
23957W        W90498  41.039   8.275  14.903
23958W        W90499   7.904  13.362  13.782
23959W        W90500  42.272  44.405   0.151
23960W        W90501   2.869   9.802   3.276
23961W        W90502  41.319  29.825  10.665
23962W        W90503  34.947  23.112  10.980
23963W        W90504   3.958  30.218  14.840
23964W        W90505  36.414  31.555  14.893
23965W        W90506  38.514  15.707   0.364
23966W        W90507   1.890  37.146   2.802
23967W        W90508   5.553  10.922   0.481
23968W        W90509  38.143   7.090   4.569
23969W        W90510   2.695  28.832   4.525
23970W        W90511  17.586  17.592  11.755
23971W        W90512   1.912  27.626  11.179
23972W        W90513  10.522   9.285   3.270
23973W        W90514  14.137  30.034   0.919
23974W        W90515  38.174   3.616   5.134
23975W        W90516  14.137  32.468   3.708
23976W        W90517  35.243  10.823  11.578
23977W        W90518  43.772  19.034  11.409
23978W        W90519  41.322  16.028  11.973
23979W        W90520  10.224  15.870  13.916
23980W        W90521  28.570  29.379   0.863
23981W        W90522  32.665  27.722  13.559
23982W        W90523  39.814  26.131   3.649
23983W        W90524  32.435   1.992  12.153
23984W        W90525  36.465   5.465  10.600
23985W        W90526  24.217  41.369   4.338
23986W        W90527  14.878  23.719  12.138
23987W        W90528   1.712   4.110  14.191
23988W        W90529  28.605  42.453  13.548
23989W        W90530  15.831  39.984  14.500
23990W        W90531  39.862   6.210   0.884
23991W        W90532   3.730  18.510   0.260
23992W        W90533  19.558  27.610   3.685
23993W        W90534  21.097  39.278  14.555
23994W        W90535  27.638  36.901  12.118
23995W        W90536  29.451   9.426  13.443
23996W        W90537  40.401  29.864  10.681
23997W        W90538   3.618  30.886   2.218
23998W        W90539   3.461  34.671   1.960
23999W        W90540  42.441  20.575   0.346
24000W        W90541   7.706  18.278   2.203
24001W        W90542  24.919  23.655   2.998
24002W        W90543  32.042   0.188  14.463
24003W        W90544  20.022  26.984   2.942
24004W        W90545  28.602  19.409  11.993
24005W        W90546  41.959  40.541  13.963
24006W        W90547  19.221  31.437   2.854
24007W        W90548   9.722  28.922   0.243
24008W        W90549  39.254  43.372   4.596
24009W        W90550  13.902   6.464   0.574
24010W        W90551  22.071  10.834   0.914
24011W        W90552  20.058  15.595   0.411
24012W        W90553   7.244  11.630   4.812
24013W        W90554  23.020  17.769   3.287
24014W        W90555   1.828  44.372   1.917
24015W        W90556  36.383  23.434   3.610
24016W        W90557  38.510   2.897   4.041
24017W        W90558  17.190  34.858   2.299
24018W        W90559  38.496  28.565  10.644
24019W        W90560  30.910   0.406  13.871
24020W        W90561  31.133  19.632  13.543
24021W        W90562  39.905   7.748  11.705
24022W        W90563  37.540  44.214   2.175
24023W        W90564   7.638  14.245   5.028
24024W        W90565  38.476   8.923  12.178
24025W        W90566  39.476  22.863  12.428
24026W        W90567  34.296  26.187   0.635
24027W        W90568  31.612  43.907   4.062
24028W        W90569  16.656  21.320  14.750
24029W        W90570  11.842  14.695  12.982
24030W        W90571   0.466  40.471  14.523
24031W        W90572  14.348  21.613  10.714
24032W        W90573  41.633  11.776   2.208
24033W        W90574  43.497   8.361   0.507
24034W        W90575  10.342  13.224   0.732
24035W        W90576  13.536   0.922   4.150
24036W        W90577   0.508  39.914  10.378
24037W        W90578  24.608  21.819  11.691
24038W        W90579  38.130  30.018   0.382
24039W        W90580  41.855  44.311  10.723
24040W        W90581  12.441  43.773  11.139
24041W        W90582  23.590  38.815   0.403
24042W        W90583   0.980  21.909   3.412
24043W        W90584   3.183  34.217   0.702
24044W        W90585  12.300  26.952  14.027
24045W        W90586  18.107  40.996  14.405
24046W        W90587   6.197  39.483   0.847
24047W        W90588  43.317  39.789  11.902
24048W        W90589  14.707  25.254   4.223
24049W        W90590   1.798  30.563  13.074
24050W        W90591  37.952  35.425  13.450
24051W        W90592  38.437  16.327   1.406
24052W        W90593  44.810  15.341  13.943
24053W        W90594   8.899  44.129   2.361
24054W        W90595  12.111   4.943   2.010
24055W        W90596  29.985  23.734   1.751
24056W        W90597  36.603  33.910   2.563
24057W        W90598   9.605  44.010   1.379
24058W        W90599  21.306  13.809   2.739
24059W        W90600  27.598  28.663   1.513
24060W        W90601  30.705  34.868  11.189
24061W        W90602  33.697   9.941  13.987
24062W        W90603   2.346  36.134   2.247
24063W        W90604   3.170  19.215  13.080
24064W        W90605   3.197  28.151   4.600
24065W        W90606  39.469  17.592  11.965
24066W        W90607  17.017  16.171   0.815
24067W        W90608  37.495   5.523   4.105
24068W        W90609  29.158  18.638   2.890
24069W        W90610  35.523  33.544   1.286
24070W        W90611   3.249  33.758   1.609
24071W        W90612  31.179  38.864  12.561
24072W        W90613   8.344   7.158   1.184
24073W        W90614  38.059   9.908  12.239
24074W        W90615  30.397  26.916  10.895
24075W        W90616  29.160  40.074  10.825
24076W        W90617  11.918  31.597   0.896
24077W        W90618  26.455  27.417  14.900
24078W        W90619  17.644  28.589   2.774
24079W        W90620   7.797  33.708   0.937
24080W        W90621  37.535  37.775   4.127
24081W        W90622  16.509  40.535   1.314
24082W        W90623  40.954  17.635   9.665
24083W        W90624  10.800  33.213   3.385
24084W        W90625  26.565  29.728  13.618
24085W        W90626  21.234  13.096  11.484
24086W        W90627  33.675  22.265   1.374
24087W        W90628  24.580  17.564  14.444
24088W        W90629  22.083  14.712   4.166
24089W        W90630  18.108  28.913  11.270
24090W        W90631  13.336   5.830  13.343
24091W        W90632  11.287  19.066  13.781
24092W        W90633   2.328  17.322   0.394
24093W        W90634  41.996  37.025   4.007
24094W        W90635   9.849  40.925   2.736
24095W        W90636  18.274  16.755   0.816
24096W        W90637  19.105  18.355   3.449
24097W        W90638   0.917   7.500  14.407
24098W        W90639  41.117  38.938   1.385
24099W        W90640   9.113  22.471   0.164
24100W        W90641   8.924   5.699   3.582
24101W        W90642  33.603  38.196   1.411
24102W        W90643  24.124  15.026   2.294
24103W        W90644  44.302   8.950   0.363
24104W        W90645  13.286  37.305   1.371
24105W        W90646  18.041   8.309   2.659
24106W        W90647  33.875  22.733   1.690
24107W        W90648  32.520   8.718  12.622
24108W        W90649  41.580  42.536  13.368
24109W        W90650  26.576  26.598  14.448
24110W        W90651  35.475   9.818  14.200
24111W        W90652  41.351   3.797   3.480
24112W        W90653  19.526  39.397  14.486
24113W        W90654  26.064  16.384  11.526
24114W        W90655  20.507  22.854   1.235
24115W        W90656  37.787  37.985   1.173
24116W        W90657  39.669  31.718   2.692
24117W        W90658  21.465  35.933   1.438
24118W        W90659  21.182  19.646   5.055
24119W        W90660  24.542   2.557   3.204
24120W        W90661   7.532   0.659  11.988
24121W        W90662  24.174  21.601   2.918
24122W        W90663  31.493  23.399  13.552
24123W        W90664  10.379  28.071  12.553
24124W        W90665  23.297   9.214   2.728
24125W        W90666  24.224  38.000   1.171
24126W        W90667  15.144   6.472  10.687
24127W        W90668  28.317  14.048   2.350
24128W        W90669  32.262  29.478  12.423
24129W        W90670  32.639   8.769   3.178
24130W        W90671  44.365  23.579  11.731
24131W        W90672  20.874  36.169  13.488
24132W        W90673   1.482  34.838  14.435
24133W        W90674  39.806   9.925   1.823
24134W        W90675   3.404  36.430  14.980
24135W        W90676  31.320  11.208  11.445
24136W        W90677  39.532  38.895   4.748
24137W        W90678  42.848   2.157  11.948
24138W        W90679   0.163  42.482  10.675
24139W        W90680  44.630   7.585   0.834
24140W        W90681  19.094   6.209  10.295
24141W        W90682  26.072  35.647   3.787
24142W        W90683   5.009  18.653   4.080
24143W        W90684  29.770  10.193  14.415
24144W        W90685  26.218  12.541  14.084
24145W        W90686  20.933  40.510   4.713
24146W        W90687   9.056  21.224  11.551
24147W        W90688  31.214  16.302  11.065
24148W        W90689  31.676  20.772   0.810
24149W        W90690  11.774  25.694  14.364
24150W        W90691   1.245  18.667  11.426
24151W        W90692  26.419  37.460   4.080
24152W        W90693  41.355   6.312  14.856
24153W        W90694  18.885  13.111   2.629
24154W        W90695  17.644  26.282   0.556
24155W        W90696  23.777   2.879   4.536
24156W        W90697  14.820   6.408   1.640
24157W        W90698  40.081  40.348  13.396
24158W        W90699   2.445  30.524   1.392
24159W        W90700   1.180  13.897  11.684
24160W        W90701  43.676  26.990  12.675
24161W        W90702   8.818  11.411  12.107
24162W        W90703  27.133   9.385   0.102
24163W        W90704  38.888  24.437   3.203
24164W        W90705   4.369   4.981   3.665
24165W        W90706   8.808  15.486   4.175
24166W        W90707  38.322  31.709   2.723
24167W        W90708   4.900  12.788  12.404
24168W        W90709   7.238  22.080  14.302
24169W        W90710   4.652  15.669   3.325
24170W        W90711   8.922  43.000   4.331
24171W        W90712  19.283   4.258  12.622
24172W        W90713   1.918   0.356   2.149
24173W        W90714   7.186   2.352  11.571
24174W        W90715  26.234   9.131   3.808
24175W        W90716  27.935  29.116  12.446
24176W        W90717   4.778   4.720   2.631
24177W        W90718  25.715  44.956  12.492
24178W        W90719  26.610  33.301   3.535
24179W        W90720   4.088  10.740  11.924
24180W        W90721   0.997  25.663  12.450
24181W        W90722  35.931  38.559  11.904
24182W        W90723  29.200  32.523   1.192
24183W        W90724  42.069   9.304  14.032
24184W        W90725  31.188  21.660   2.132
24185W        W90726  14.596  44.779   0.777
24186W        W90727  42.074  12.720   4.530
24187W        W90728  44.810  27.637   2.428
24188W        W90729   2.737  17.150   4.761
24189W        W90730  15.115  43.455  10.685
24190W        W90731  40.788  21.811  14.383
24191W        W90732  30.412  26.144  11.804
24192W        W90733   9.826  23.630  12.420
24193W        W90734  11.384  43.429  10.471
24194W        W90735  25.479  19.273   0.202
24195W        W90736  25.488  32.105  13.640
24196W        W90737  42.454  36.817  11.285
24197W        W90738  13.054  19.700   3.177
24198W        W90739  43.752   6.423   2.221
24199W        W90740   5.689  35.154  14.892
24200W        W90741   3.879  31.344   3.321
24201W        W90742   1.481  11.321  10.644
24202W        W90743   5.329   1.264   4.470
24203W        W90744  25.980  40.480  11.149
24204W        W90745   6.904  17.061  11.166
24205W        W90746   2.467  39.836   2.754
24206W        W90747  32.376  15.214   4.126
24207W        W90748  12.945  34.428   1.231
24208W        W90749  30.787   2.859  12.808
24209W        W90750   2.269  15.702  12.142
24210W        W90751   6.684  42.928   3.689
24211W        W90752  38.488  41.510  14.126
24212W        W90753  38.989  16.742  12.140
24213W        W90754  11.763  42.258  10.640
24214W        W90755  22.650   8.126  13.054
24215W        W90756  41.649  17.760  14.183
24216W        W90757  13.749  35.638   1.961
24217W        W90758   7.347  14.992   2.460
24218W        W90759   6.419  39.854   1.722
24219W        W90760   4.676  34.958   2.200
24220W        W90761   7.782   3.938  11.586
24221W        W90762  20.782  28.569  12.381
24222W        W90763  40.827   2.657  13.120
24223W        W90764  36.492  21.003   2.460
24224W        W90765   1.054  15.353   4.891
24225W        W90766  21.570  36.340   3.672
24226W        W90767   3.118  41.479  12.902
24227W        W90768   4.416  34.773  14.765
24228W        W90769   8.390  31.911   1.835
24229W        W90770  29.777  39.879  12.636
24230W        W90771  10.369  42.427  10.615
24231W        W90772  26.135  15.184   3.599
24232W        W90773  35.137  13.058  12.571
24233W        W90774   5.790  41.385   4.272
24234W        W90775  41.372  26.182   1.403
24235W        W90776  29.687  17.790   2.398
24236W        W90777  35.969   6.445   1.712
24237W        W90778  21.601  24.370   0.877
24238W        W90779  13.630  24.463  11.633
24239W        W90780  25.983   0.795  12.903
24240W        W90781  23.819  44.514   3.033
24241W        W90782  39.744  40.940  11.646
24242W        W90783  19.799  17.641  11.210
24243W        W90784  19.796  21.204   2.713
24244W        W90785  37.197  16.011   1.956
24245W        W90786   1.677  33.129  11.587
24246W        W90787   7.594  27.056   0.546
24247W        W90788  13.656  18.771  13.399
24248W        W90789  26.911  35.501   1.649
24249W        W90790  24.263   5.862   2.227
24250W        W90791  42.900  20.901   0.102
24251W        W90792  24.060  20.667   0.512
24252W        W90793  28.081   1.049   9.977
24253W        W90794   3.713  37.656   4.680
24254W        W90795  35.830  29.375   2.241
24255W        W90796  13.716  41.810  14.851
24256W        W90797  16.442   0.399  13.358
24257W        W90798   4.624  37.802   3.149
24258W        W90799  19.592  28.990  12.851
24259W        W90800  26.933  13.075  14.978
24260W        W90801  42.500  25.198   3.698
24261W        W90802  44.140  22.630  14.285
24262W        W90803   4.746  18.372   2.785
24263W        W90804  36.203  44.873  14.401
24264W        W90805  25.912  16.365  14.806
24265W        W90806  15.854  36.912   0.714
24266W        W90807  30.576  13.849  14.930
24267W        W90808   8.321  11.111   4.721
24268W        W90809   2.425  44.233  13.174
24269W        W90810  34.309  12.346  13.421
24270W        W90811   0.517  42.546   5.024
24271W        W90812  40.049  42.785  14.802
24272W        W90813  12.841  19.047   2.338
24273W        W90814  14.360  29.835   3.096
24274W        W90815  22.392  34.960  12.469
24275W        W90816  31.578   8.359   2.882
24276W        W90817   6.532  29.561  12.025
24277W        W90818  39.999  29.990  14.080
24278W        W90819  44.966  25.781   3.737
24279W        W90820   7.577  25.958  13.513
24280W        W90821  15.132   3.480  14.455
24281W        W90822  28.023  15.349  11.308
24282W        W90823   2.388  33.034  14.300
24283W        W90824  31.608  29.613  11.084
24284W        W90825  21.891  22.455   4.830
24285W        W90826  27.524  26.027  10.711
24286W        W90827  34.668  26.061  11.921
24287W        W90828  18.282   8.227  13.507
24288W        W90829  12.460  11.145   2.727
24289W        W90830   0.855  36.607   1.845
24290W        W90831   9.828  15.687  13.537
24291W        W90832  31.942  10.171  10.983
24292W        W90833  10.940  19.527   1.351
24293W        W90834  28.432   7.678   3.231
24294W        W90835  11.670   4.370  10.868
24295W        W90836  29.692  35.016  14.166
24296W        W90837  11.848  13.885  13.419
24297W        W90838  15.116  33.650   0.400
24298W        W90839  42.302   9.943   4.753
24299W        W90840   1.219  41.293  11.185
24300W        W90841  31.496  22.201  10.601
24301W        W90842  22.043  25.789   3.815
24302W        W90843   5.904  42.396   1.357
24303W        W90844  10.114  19.271  11.882
24304W        W90845  25.309  16.245   4.107
24305W        W90846  44.353  22.811   1.890
24306W        W90847  16.537   5.662  12.383
24307W        W90848   8.709   6.219   2.228
24308W        W90849   4.057  25.680  13.074
24309W        W90850   7.281  31.068   3.158
24310W        W90851  13.857  19.268  12.110
24311W        W90852  14.904  11.664  12.527
24312W        W90853  20.246   8.380  12.992
24313W        W90854   1.854   1.935  14.458
24314W        W90855   4.240  43.723  13.739
24315W        W90856   1.067  40.836   3.778
24316W        W90857  18.809  39.222   3.357
24317W        W90858  29.948  24.277   3.619
24318W        W90859  27.528   9.857   4.164
24319W        W90860  42.812   1.767   2.309
24320W        W90861  22.828  34.413   0.189
24321W        W90862   7.256  40.374  12.497
24322W        W90863   1.139   4.228  11.102
24323W        W90864  14.657  25.941  14.767
24324W        W90865  14.302  27.086  14.534
24325W        W90866  15.670  10.405  11.164
24326W        W90867   3.778  41.957   1.189
24327W        W90868  25.469  14.801  14.895
24328W        W90869   5.861   1.194  13.471
24329W        W90870  44.520  44.159  12.726
24330W        W90871   5.515  37.746   2.666
24331W        W90872  31.217  21.050   0.747
24332W        W90873  17.247  39.522   3.303
24333W        W90874  33.934   5.900   4.131
24334W        W90875  11.605  17.175   2.263
24335W        W90876  24.347  31.387   0.894
24336W        W90877  29.179  11.327  10.730
24337W        W90878  14.930  30.373  14.972
24338W        W90879  13.248  22.316  14.598
24339W        W90880  16.187  31.684  12.465
24340W        W90881  29.155  37.573  12.753
24341W        W90882  20.299  21.646  12.101
24342W        W90883  10.405  21.642   0.805
24343W        W90884  11.566   7.283  10.719
24344W        W90885  37.818  20.022   0.747
24345W        W90886   1.147  39.420   1.847
24346W        W90887   9.485   2.812   3.782
24347W        W90888  38.900  44.718  13.845
24348W        W90889  44.573  11.935  12.449
24349W        W90890  36.467  23.246   0.478
24350W        W90891  22.459  44.032  12.233
24351W        W90892  42.331  21.628   2.888
24352W        W90893   6.415  13.874  11.647
24353W        W90894   4.015  32.546  10.157
24354W        W90895  40.350  23.968   0.453
24355W        W90896   8.083  22.694   1.701
24356W        W90897  24.941  20.193  10.802
24357W        W90898  34.897  20.190  10.401
24358W        W90899  38.814  27.402  12.898
24359W        W90900   9.072  33.334  13.542
24360W        W90901  20.242  17.640  10.944
24361W        W90902  39.236   6.318  11.199
24362W        W90903  24.450  39.430   1.358
24363W        W90904  14.112  17.241  12.388
24364W        W90905  24.030   2.451   0.077
24365W        W90906  23.583   3.026  11.661
24366W        W90907  26.532  20.793  13.112
24367W        W90908   6.330   8.379   4.633
24368W        W90909  34.359  33.578   2.237
24369W        W90910  42.061  24.310   3.639
24370W        W90911   5.243  34.463  14.394
24371W        W90912  43.285  37.138  11.114
24372W        W90913  15.765  10.003  12.417
24373W        W90914  28.913  25.752   3.317
24374W        W90915  20.165  25.671   1.682
24375W        W90916   0.067  37.221  11.910
24376W        W90917   7.331  22.360  12.973
24377W        W90918  41.034   3.451  14.801
24378W        W90919   1.246   2.745  11.474
24379W        W90920  19.286  44.677  13.110
24380W        W90921  26.275  36.830   3.368
24381W        W90922  11.827  25.510  12.030
24382W        W90923   4.783  10.180  12.260
24383W        W90924  21.902  17.372  11.621
24384W        W90925  37.859  22.294   2.686
24385W        W90926   8.929  30.933   4.109
24386W        W90927  22.747  34.951   4.484
24387W        W90928  14.149  43.405   4.525
24388W        W90929  22.638  30.674  11.153
24389W        W90930  35.360  37.320   0.842
24390W        W90931  10.074  28.615   3.226
24391W        W90932  14.994  40.150  11.573
24392W        W90933  40.737   7.154  13.362
24393W        W90934  20.095  25.146  10.744
24394W        W90935  23.627  37.084  14.789
24395W        W90936  15.433  41.527  11.987
24396W        W90937  24.665  15.561   2.500
24397W        W90938  33.359  29.629  11.665
24398W        W90939  15.829  29.183  12.038
24399W        W90940  32.966  22.284  11.429
24400W        W90941  31.175  21.250   2.441
24401W        W90942   1.307  26.726   3.805
24402W        W90943   5.359  13.730   0.775
24403W        W90944   5.326  16.051  13.486
24404W        W90945   0.438  19.238   4.606
24405W        W90946  43.789  44.525  14.765
24406W        W90947  20.296  29.905   0.293
24407W        W90948  40.607   5.616   4.183
24408W        W90949   1.357  14.063   4.330
24409W        W90950  11.798  33.143   4.024
24410W        W90951  13.873  34.386   1.319
24411W        W90952   2.705   3.932  11.199
24412W        W90953   6.145  10.177   0.160
24413W        W90954  11.198  41.302  12.465
24414W        W90955  25.496  11.779   4.541
24415W        W90956   3.851  16.012   1.227
24416W        W90957  27.776   9.887   1.698
24417W        W90958  10.342  42.396  13.713
24418W        W90959  17.668  29.507  11.804
24419W        W90960   4.607  32.501  13.480
24420W        W90961  28.222  30.031  11.019
24421W        W90962   2.699   8.335  13.383
24422W        W90963  23.173  14.870  12.577
24423W        W90964   5.320  27.834   2.813
24424W        W90965  37.322  16.179   3.311
24425W        W90966  24.033  29.626  14.090
24426W        W90967  38.207  12.754   1.823
24427W        W90968  43.921  16.223   1.357
24428W        W90969   6.357   4.353   3.662
24429W        W90970  30.254  29.160  13.936
24430W        W90971  18.633  30.550   0.426
24431W        W90972  41.478  25.887   1.951
24432W        W90973  27.522  39.726   1.191
24433W        W90974  13.900  37.815   4.473
24434W        W90975   6.729  20.564   1.805
24435W        W90976  42.579   9.876  13.383
24436W        W90977  34.609   3.437   4.538
24437W        W90978  10.887   2.678  12.614
24438W        W90979  20.878  31.400   3.362
24439W        W90980  38.422  15.035   4.593
24440W        W90981  24.553  10.656   1.746
24441W        W90982   6.181   5.899  13.027
24442W        W90983  42.877  18.285  10.542
24443W        W90984  20.561  34.105  11.088
24444W        W90985  34.497  22.027  10.736
24445W        W90986  35.861   4.463   0.717
24446W        W90987   9.264  26.444   0.203
24447W        W90988   3.248  39.807   1.293
24448W        W90989  42.333  27.126  14.037
24449W        W90990  13.155  14.142   0.257
24450W        W90991   5.803   0.055   1.761
24451W        W90992  26.037  27.584   1.841
24452W        W90993  16.626  28.961  12.906
24453W        W90994  15.680  35.100   0.421
24454W        W90995  19.856  16.473   2.706
24455W        W90996  26.510  19.789  14.369
24456W        W90997  20.142  32.676  10.789
24457W        W90998  30.684  16.742  12.500
24458W        W90999   1.775   8.746   0.118
24459W        W91000  39.579  23.524  13.341
24460W        W91001  26.594  14.863  12.440
24461W        W91002  35.842  12.762   2.628
24462W        W91003  24.782  20.150   4.687
24463W        W91004  40.977  10.605   4.629
24464W        W91005  34.692  11.296  10.592
24465W        W91006   8.377  31.535  14.011
24466W        W91007  13.672  23.698   1.887
24467W        W91008  35.430  10.784   1.800
24468W        W91009   1.359  24.932  14.859
24469W        W91010  12.441  15.220  14.017
24470W        W91011  43.452  40.806  12.137
24471W        W91012  44.921  27.064  12.779
24472W        W91013  30.135  14.161   0.933
24473W        W91014   6.449  18.514  12.806
24474W        W91015  22.281  40.044  12.033
24475W        W91016  27.550  43.916   0.686
24476W        W91017  34.428  36.536   2.248
24477W        W91018   0.282  20.443   0.736
24478W        W91019  22.689   7.744   1.189
24479W        W91020  36.731  41.559  10.229
24480W        W91021  39.399   7.423   2.635
24481W        W91022  11.709  39.888  11.174
24482W        W91023  26.140   3.129   5.000
24483W        W91024   5.755  39.344   3.225
24484W        W91025  24.067  30.414   2.286
24485W        W91026  38.488  31.946  13.825
24486W        W91027  18.753   5.986  14.976
24487W        W91028  31.209  23.288   3.830
24488W        W91029  19.583   7.860  11.917
24489W        W91030  36.516   1.221   0.685
24490W        W91031  18.335  35.573   2.339
24491W        W91032   7.845  32.574  14.469
24492W        W91033  17.340  37.868   1.770
24493W        W91034  28.186  24.184   5.139
24494W        W91035  12.648  28.582   2.937
24495W        W91036  19.052  36.945  12.608
24496W        W91037  21.308  16.517   1.854
24497W        W91038   1.727   3.644  10.590
24498W        W91039   4.002  28.087   3.221
24499W        W91040  33.035  11.452  11.847
24500W        W91041   9.007   6.467  11.070
24501W        W91042  11.287  43.014   4.969
24502W        W91043  32.488   2.662  14.810
24503W        W91044  37.131  27.812   1.718
24504W        W91045  14.066   7.375  11.976
24505W        W91046   3.168  31.308  13.135
24506W        W91047  21.574   5.823  14.057
24507W        W91048   9.399  27.919  11.052
24508W        W91049  43.392  33.413   4.573
24509W        W91050   1.753  16.487   3.332
24510W        W91051  28.475  10.680  13.515
24511W        W91052  35.431  44.492   1.707
24512W        W91053   8.538  10.288   0.657
24513W        W91054  31.052  29.168   2.204
24514W        W91055  24.119  38.789   0.920
24515W        W91056  38.040   6.863  14.773
24516W        W91057  19.654  24.119  13.569
24517W        W91058  19.746  18.727   4.721
24518W        W91059  43.250  36.329   2.257
24519W        W91060  33.615  13.294  11.178
24520W        W91061  23.682   6.736  11.648
24521W        W91062   8.133  28.614   4.674
24522W        W91063  11.292  16.127   3.333
24523W        W91064  25.123   3.867   2.814
24524W        W91065   1.593  42.365   3.405
24525W        W91066   9.790  30.596  12.834
24526W        W91067  21.977   6.763   3.604
24527W        W91068  13.330  30.585   3.088
24528W        W91069  44.710  25.367  14.502
24529W        W91070   8.007  23.512  13.424
24530W        W91071  24.313   3.261   1.385
24531W        W91072   7.937  20.940   2.400
24532W        W91073  43.879  18.794   0.275
24533W        W91074  21.291  11.819   1.935
24534W        W91075  27.532  41.812  11.909
24535W        W91076  11.551   9.729   4.709
24536W        W91077   6.968  22.934  12.826
24537W        W91078   3.932  36.520   0.708
24538W        W91079  42.252   1.385   4.763
24539W        W91080  38.573  23.158  12.456
24540W        W91081  32.960  23.000  14.801
24541W        W91082   7.221  18.685  12.157
24542W        W91083  44.803  14.707   4.961
24543W        W91084  15.195   3.777   2.741
24544W        W91085   5.685  21.038  11.225
24545W        W91086   4.723   6.908  11.237
24546W        W91087  23.759   9.299  11.425
24547W        W91088  25.660  18.647  13.518
24548W        W91089  12.628  18.073   3.151
24549W        W91090  29.056  33.070   3.679
24550W        W91091  24.067   3.837  14.881
24551W        W91092  42.358   9.427  14.464
24552W        W91093   3.790   2.396   2.368
24553W        W91094  17.170  14.201  12.844
24554W        W91095  21.376  28.083  14.354
24555W        W91096  13.902  33.135  13.525
24556W        W91097  21.219  44.698   0.271
24557W        W91098  35.009  28.074  13.264
24558W        W91099  26.469   9.847  14.171
24559W        W91100  41.782  37.389   4.316
24560W        W91101  25.091  35.561   4.904
24561W        W91102   0.933  11.900  10.960
24562W        W91103   3.967  16.216   0.301
24563W        W91104  26.522  28.510   2.731
24564W        W91105  27.666  27.564  13.883
24565W        W91106  31.758  25.278  14.194
24566W        W91107   2.247  12.618   4.612
24567W        W91108  35.558  37.165   2.269
24568W        W91109   2.472   1.009   2.326
24569W        W91110  41.330  10.856  13.659
24570W        W91111  19.659  10.437  11.169
24571W        W91112  38.068  37.568   0.948
24572W        W91113  39.069   1.347  12.080
24573W        W91114   3.911  35.572  10.661
24574W        W91115  25.270  12.123  13.023
24575W        W91116  37.608  20.633   4.530
24576W        W91117  23.213  15.624   4.631
24577W        W91118  11.332   7.294  14.555
24578W        W91119  15.032  14.094  14.839
24579W        W91120  21.070  34.126  11.815
24580W        W91121  31.996  39.876   3.176
24581W        W91122  27.711  41.847  13.942
24582W        W91123  37.278   0.916  12.011
24583W        W91124   7.694  12.571   1.340
24584W        W91125  36.460  29.633   4.102
24585W        W91126  36.519  22.673  10.657
24586W        W91127  37.264  25.171  11.691
24587W        W91128  36.002  16.630   4.413
24588W        W91129  27.277  35.019   1.926
24589W        W91130  17.680  26.409  12.391
24590W        W91131   9.448  24.565   3.910
24591W        W91132   8.616  25.975  12.808
24592W        W91133  12.731  18.339  13.750
24593W        W91134  41.210  21.557   1.839
24594W        W91135  18.561   0.222  12.632
24595W        W91136  13.839  23.689   3.318
24596W        W91137  31.258  36.400   2.318
24597W        W91138  33.624  42.887   4.494
24598W        W91139   8.512   3.542  11.114
24599W        W91140  20.215  23.784   2.246
24600W        W91141  37.763  20.726   3.143
24601W        W91142   1.093  26.033   0.365
24602W        W91143  26.491   0.501   4.782
24603W        W91144  25.135  15.533   3.726
24604W        W91145  29.941  24.753   1.820
24605W        W91146  19.133   8.760  12.877
24606W        W91147  30.944  13.412  12.129
24607W        W91148  38.495  16.622   3.082
24608W        W91149  12.537   8.663   2.646
24609W        W91150   9.299  37.505  14.045
24610W        W91151  30.536   7.976   2.950
24611W        W91152  27.866  41.015  11.197
24612W        W91153  22.735  40.325  10.450
24613W        W91154   3.265  38.218   2.546
24614W        W91155  43.933   3.886  11.275
24615W        W91156  40.043  15.732  13.001
24616W        W91157  19.035  13.649   0.872
24617W        W91158  35.130  18.972   0.848
24618W        W91159  32.520  16.311  11.550
24619W        W91160  25.445   3.350   2.174
24620W        W91161  14.033  39.739  11.493
24621W        W91162  32.154  26.094  11.594
24622W        W91163  17.958  18.529   1.347
24623W        W91164   3.569  37.285  13.720
24624W        W91165  25.925   2.940   0.397
24625W        W91166  20.998  21.870   4.028
24626W        W91167   4.682  23.762   4.506
24627W        W91168  44.267  15.548   0.285
24628W        W91169   1.989   4.335  12.110
24629W        W91170  29.168  18.180   2.671
24630W        W91171  22.981  26.653  11.461
24631W        W91172   2.280  21.256   3.125
24632W        W91173  39.360  30.091  10.627
24633W        W91174  15.051  28.846   4.433
24634W        W91175   0.969  22.643  14.262
24635W        W91176  36.440  20.069  13.023
24636W        W91177  10.860  25.560   2.368
24637W        W91178  26.440  13.568   3.671
24638W        W91179  32.309  10.351  13.032
24639W        W91180   1.295  24.652  14.293
24640W        W91181  37.969  12.742  13.953
24641W        W91182  38.844  30.717   1.216
24642W        W91183   9.853  22.977  14.309
24643W        W91184  32.108  25.999   2.020
24644W        W91185  14.433  39.849  14.276
24645W        W91186  21.314  35.158  12.177
24646W        W91187  39.536  11.655   2.704
24647W        W91188  43.935   0.482   2.759
24648W        W91189  14.584  28.500   2.698
24649W        W91190  34.514  12.852  14.959
24650W        W91191  37.523   2.938  13.363
24651W        W91192  40.368  44.532   4.686
24652W        W91193   8.195  14.315  11.449
24653W        W91194  39.066  22.176   4.684
24654W        W91195  23.179  23.761   2.196
24655W        W91196  16.508  20.057  14.277
24656W        W91197  19.629  21.460   5.190
24657W        W91198  40.479  17.840  12.728
24658W        W91199  27.211  22.297   1.745
24659W        W91200  20.549   0.962   0.395
24660W        W91201   9.765  23.787   0.508
24661W        W91202  27.166  28.436   1.738
24662W        W91203   7.471  43.031   0.872
24663W        W91204   0.043  23.956  14.570
24664W        W91205  40.230  38.916  14.467
24665W        W91206  25.785  28.922  10.464
24666W        W91207  34.379  10.667  11.921
24667W        W91208   0.909  17.159  10.808
24668W        W91209  29.830  44.864  11.367
24669W        W91210  41.258  36.425  14.266
24670W        W91211  34.287  23.984   0.374
24671W        W91212  11.888  30.259   1.446
24672W        W91213  31.178   4.237  12.419
24673W        W91214  44.331  24.669   2.162
24674W        W91215   8.773  40.898   2.917
24675W        W91216  42.034  17.694   2.275
24676W        W91217   2.387   4.739  12.134
24677W        W91218  22.620  27.361   2.725
24678W        W91219  23.197  11.870   1.931
24679W        W91220  32.697  30.751  12.516
24680W        W91221  16.308  20.979  11.126
24681W        W91222  11.792  37.494   1.849
24682W        W91223  33.470  19.607   0.649
24683W        W91224  25.078   5.103  14.481
24684W        W91225  36.995   7.657  12.532
24685W        W91226  30.488  14.403   3.219
24686W        W91227  36.297  34.309   4.804
24687W        W91228  26.041  35.056  13.004
24688W        W91229  27.882   7.481   3.682
24689W        W91230  40.619   4.722   4.104
24690W        W91231  41.910   0.663   2.225
24691W        W91232  38.531   7.864   4.610
24692W        W91233  30.397  18.266  13.036
24693W        W91234  37.347   6.442  14.312
24694W        W91235   8.183  28.192   4.951
24695W        W91236  19.295  14.317  13.758
24696W        W91237   1.796  43.404  12.889
24697W        W91238  33.716   4.825   3.298
24698W        W91239  38.940  16.696   3.329
24699W        W91240  31.079  18.496  10.711
24700W        W91241  19.982  30.427   2.987
24701W        W91242  18.063  18.100   2.285
24702W        W91243   3.685   0.755   5.157
24703W        W91244  23.157  23.177   3.711
24704W        W91245   0.312  11.751   3.659
24705W        W91246  14.419  12.711  10.737
24706W        W91247  26.206  43.750  14.868
24707W        W91248  22.662   0.212   2.209
24708W        W91249  38.272  12.945   4.078
24709W        W91250  17.035  39.067   3.563
24710W        W91251  40.404  31.239  13.822
24711W        W91252  13.980  38.987  14.278
24712W        W91253  43.775  41.485  12.630
24713W        W91254   4.843  14.837  11.659
24714W        W91255   8.400  33.212  13.868
24715W        W91256  20.670  35.335   0.442
24716W        W91257  16.657  13.159   4.426
24717W        W91258  12.732   0.791   3.562
24718W        W91259  36.605  34.835  13.459
24719W        W91260   8.560   1.986  10.826
24720W        W91261  19.805  29.990  12.243
24721W        W91262   1.731  42.257   2.425
24722W        W91263  31.961   5.411  14.735
24723W        W91264   0.822  35.484   4.556
24724W        W91265   7.251  33.297   4.630
24725W        W91266  18.908  24.802  14.445
24726W        W91267   9.623   9.920  10.824
24727W        W91268  41.979   1.875  10.812
24728W        W91269  10.927   4.554  12.980
24729W        W91270   7.717  39.974   3.146
24730W        W91271  42.638  14.208   5.412
24731W        W91272  17.271  39.960  11.144
24732W        W91273  22.336   0.278   1.779
24733W        W91274  36.373  22.662   4.981
24734W        W91275  17.194  11.181   2.436
24735W        W91276  42.058  26.959  14.446
24736W        W91277  40.711  21.665   1.799
24737W        W91278  14.187  16.590   2.740
24738W        W91279  18.699  16.298   1.563
24739W        W91280   1.863  17.310   2.707
24740W        W91281   4.215  20.783   4.380
24741W        W91282  13.773  19.593  12.540
24742W        W91283  19.362  15.196  10.198
24743W        W91284   5.994  18.155   1.717
24744W        W91285  20.026  27.119  12.503
24745W        W91286  24.057  21.157  11.793
24746W        W91287  31.367  26.081   3.399
24747W        W91288  23.593  21.211   1.199
24748W        W91289  31.853  31.453  10.448
24749W        W91290  23.865  19.569  13.200
24750W        W91291   7.025   2.761   3.332
24751W        W91292   8.894   1.477   2.829
24752W        W91293   5.777  20.221  11.673
24753W        W91294  37.751  33.274   4.857
24754W        W91295  13.869  33.419  12.298
24755W        W91296  16.538  12.207   4.272
24756W        W91297   9.285  28.900   3.815
24757W        W91298  43.980   5.705  14.846
24758W        W91299  26.113  43.104   2.189
24759W        W91300   2.669  15.865   3.813
24760W        W91301   7.943   7.762  11.625
24761W        W91302  39.931  16.805  12.137
24762W        W91303  38.322  37.425  11.145
24763W        W91304  40.352  30.578   3.558
24764W        W91305   7.410  40.929  12.573
24765W        W91306  22.727  33.811   1.537
24766W        W91307  12.248  15.349  11.988
24767W        W91308  23.878   3.847   0.365
24768W        W91309  39.597  14.026   2.256
24769W        W91310   3.411   0.425  10.255
24770W        W91311   7.433  34.068  12.699
24771W        W91312   1.864  27.706  13.464
24772W        W91313   6.797  42.675   2.349
24773W        W91314   9.742  36.130  11.573
24774W        W91315  37.979  30.477  13.145
24775W        W91316  16.058  39.939  11.581
24776W        W91317  26.576  23.224  12.101
24777W        W91318  40.006  40.823  10.762
24778W        W91319  39.641  35.043  11.068
24779W        W91320  41.444  17.400   1.361
24780W        W91321  43.627  35.010   4.564
24781W        W91322  19.007  14.696   0.557
24782W        W91323   3.903  26.817   1.580
24783W        W91324  28.125  14.865   0.244
24784W        W91325  36.474  40.801  14.525
24785W        W91326  13.642  10.398   3.758
24786W        W91327  19.848   7.443  13.858
24787W        W91328  10.328  27.101   3.936
24788W        W91329  30.430  42.053   1.219
24789W        W91330  41.259  24.246  13.370
24790W        W91331  27.285  25.627  13.419
24791W        W91332  41.895  43.644   3.110
24792W        W91333  34.580   5.752  10.669
24793W        W91334  43.355  30.081   1.797
24794W        W91335  18.495  41.718   0.022
24795W        W91336  35.969   9.312  13.927
24796W        W91337  37.704  44.905  12.031
24797W        W91338   1.887  25.693  12.476
24798W        W91339  20.556  18.554  10.436
24799W        W91340  44.252  22.483  11.549
24800W        W91341  15.295   5.489   0.787
24801W        W91342  36.462   0.235   2.217
24802W        W91343  14.658  39.303   4.687
24803W        W91344  11.215  10.550   3.148
24804W        W91345  11.683  34.065   0.865
24805W        W91346   2.395  22.462  13.838
24806W        W91347  41.411  40.055  12.726
24807W        W91348  10.658  36.669  12.433
24808W        W91349  10.804  34.736   1.016
24809W        W91350  40.549  21.290  13.974
24810W        W91351  10.345  17.111  10.762
24811W        W91352  19.904  43.446   1.864
24812W        W91353  16.628  25.721  11.601
24813W        W91354  21.585  24.072   4.157
24814W        W91355  32.343  41.915   4.079
24815W        W91356  11.364  15.263  10.415
24816W        W91357  39.668  32.366   0.218
24817W        W91358  20.605  39.047  11.491
24818W        W91359  17.152  29.489   4.573
24819W        W91360  39.040  39.091   4.983
24820W        W91361  15.042  23.854  10.959
24821W        W91362   3.993  17.427   9.972
24822W        W91363  23.449  19.153  11.691
24823W        W91364  35.168  17.603  11.911
24824W        W91365  33.041   9.643  10.879
24825W        W91366  36.935   0.436  13.599
24826W        W91367  35.985  10.018   5.319
24827W        W91368  14.376  21.767   2.189
24828W        W91369  13.146  25.617   0.334
24829W        W91370  39.415  42.330   0.833
24830W        W91371   3.486  28.464  10.678
24831W        W91372   4.606  24.212   1.236
24832W        W91373   4.408   7.673   0.295
24833W        W91374  31.668  19.289   0.828
24834W        W91375   1.539  41.021  12.520
24835W        W91376  42.811  34.596  11.670
24836W        W91377  38.089  32.564  10.677
24837W        W91378   8.258  40.341   4.228
24838W        W91379  34.844  21.085  10.570
24839W        W91380  12.540  37.051  13.049
24840W        W91381  43.665  19.547  10.712
24841W        W91382  18.331  39.748  12.852
24842W        W91383  13.381   2.304   0.332
24843W        W91384   6.176  31.518   1.665
24844W        W91385  22.698   9.438  14.037
24845W        W91386  38.262  38.493   2.971
24846W        W91387   5.794  12.291   2.886
24847W        W91388  29.782  25.244   3.226
24848W        W91389  25.948  31.882  13.820
24849W        W91390  16.160  42.818  11.136
24850W        W91391   8.212  27.982  14.965
24851W        W91392   3.924   1.988  12.143
24852W        W91393  40.537   3.857   3.843
24853W        W91394  29.246  15.418  13.521
24854W        W91395  17.654  18.291  11.326
24855W        W91396  13.154  29.623  13.369
24856W        W91397  24.458  22.148   1.033
24857W        W91398  10.865   3.478  13.122
24858W        W91399  16.512  11.090  11.404
24859W        W91400  40.780  26.615  14.749
24860W        W91401  11.195  13.784  14.795
24861W        W91402  29.462  30.570  11.173
24862W        W91403  15.731  24.642  13.105
24863W        W91404   9.751   8.614   2.679
24864W        W91405  35.589  35.877  12.790
24865W        W91406  43.561  31.921   0.761
24866W        W91407   8.249  35.240  12.315
24867W        W91408  12.459  30.365   2.692
24868W        W91409  21.073  39.982  14.932
24869W        W91410  25.259  13.831   1.800
24870W        W91411  19.053  25.439  12.852
24871W        W91412   7.813  27.025  13.821
24872W        W91413  18.190   4.883  10.086
24873W        W91414  10.901  20.960  12.939
24874W        W91415   9.655  38.088   4.022
24875W        W91416  43.745  26.594  11.415
24876W        W91417  38.608   5.988  12.865
24877W        W91418  18.562  22.213   0.458
24878W        W91419   3.931  40.521   0.770
24879W        W91420  32.876  28.259  14.789
24880W        W91421  20.187  37.777   2.846
24881W        W91422  22.032  12.683  12.607
24882W        W91423  27.451  42.670   2.271
24883W        W91424  11.384  19.069   0.782
24884W        W91425  28.963  17.230  14.477
24885W        W91426  22.281  30.214   1.899
24886W        W91427  14.889  12.845  14.197
24887W        W91428  19.221  37.969   4.391
24888W        W91429   0.516  23.667  12.144
24889W        W91430  10.563  19.154   1.385
24890W        W91431  44.875  26.323  11.609
24891W        W91432  41.324   0.775  12.598
24892W        W91433  10.078  30.916   4.655
24893W        W91434  24.435  38.587   3.813
24894W        W91435  30.207  42.576  14.904
24895W        W91436  17.143  10.704  12.702
24896W        W91437  28.900  25.414   4.088
24897W        W91438  15.698  21.464  12.559
24898W        W91439  16.241  39.117  13.093
24899W        W91440  14.117  24.232   2.199
24900W        W91441  16.703  20.176  11.417
24901W        W91442  18.001  31.560   0.488
24902W        W91443  43.994  20.624  11.573
24903W        W91444  20.775  37.317   3.884
24904W        W91445  36.358  20.396  11.072
24905W        W91446  33.027  34.131  12.959
24906W        W91447  31.886  27.249   3.052
24907W        W91448  28.879  23.857  13.136
24908W        W91449  35.707   4.401   2.178
24909W        W91450  40.392   7.499   3.051
24910W        W91451  32.461  40.156   4.268
24911W        W91452  23.053  30.596  14.497
24912W        W91453   4.871  26.507  12.109
24913W        W91454  16.599  42.670  13.803
24914W        W91455  10.093   7.462  12.139
24915W        W91456   4.351  27.421   1.949
24916W        W91457  30.958  31.944   4.230
24917W        W91458  44.966   9.237  14.116
24918W        W91459  19.110   1.383   3.822
24919W        W91460  26.542   9.071  10.336
24920W        W91461  12.849   9.049   5.065
24921W        W91462  16.667   0.991  14.246
24922W        W91463   3.374  37.007  10.660
24923W        W91464  12.394  22.743  11.232
24924W        W91465  38.732  43.857  14.932
24925W        W91466  28.926  25.639  14.952
24926W        W91467   9.161  40.452   2.312
24927W        W91468  26.329  14.304   1.251
24928W        W91469   0.720   7.671   3.179
24929W        W91470   0.264  39.554   2.684
24930W        W91471   1.792  21.927   1.832
24931W        W91472  29.088  15.706  10.504
24932W        W91473   0.184  40.919   4.043
24933W        W91474  43.285  40.360  10.469
24934W        W91475  37.042  22.213   3.898
24935W        W91476  44.052  21.626  14.832
24936W        W91477  37.818  34.086   3.936
24937W        W91478  42.295  33.311  14.676
24938W        W91479  32.817  11.610  13.598
24939W        W91480  37.452  26.585  12.605
24940W        W91481  12.197  32.524  14.064
24941W        W91482   8.204  41.839   4.574
24942W        W91483  13.563  32.090   2.232
24943W        W91484  23.182  29.675  12.423
24944W        W91485  41.976  33.011  14.978
24945W        W91486  29.980  39.482   3.643
24946W        W91487   2.660  20.010   1.384
24947W        W91488  42.051  35.482   1.033
24948W        W91489  14.289  28.112  13.483
24949W        W91490  41.501   4.371   4.888
24950W        W91491   2.953  33.832   5.636
24951W        W91492  31.549  42.322   0.654
24952W        W91493  30.971   4.104   2.913
24953W        W91494   3.194  29.380  14.328
24954W        W91495  32.709  14.148  12.968
24955W        W91496  13.223   6.768   4.279
24956W        W91497  24.898  10.597  14.856
24957W        W91498  35.468  21.717  10.451
24958W        W91499  34.985   2.298   0.779
24959W        W91500  43.342  12.433   0.239
24960W        W91501   9.597   7.295   3.995
24961W        W91502  37.686  13.171  13.443
24962W        W91503  44.813  40.869   0.756
24963W        W91504  42.398  33.579   1.142
24964W        W91505  14.141   4.016   4.585
24965W        W91506  38.037   9.629  12.670
24966W        W91507  30.641  26.104  12.807
24967W        W91508  33.454  34.990   1.844
24968W        W91509  30.669  19.928  11.054
24969W        W91510  22.135  26.140   2.347
24970W        W91511  19.967   4.725   2.176
24971W        W91512   8.877   1.282  13.065
24972W        W91513   2.995  41.528   0.996
24973W        W91514  38.301  13.678   0.742
24974W        W91515  19.192  17.980   5.066
24975W        W91516  41.499   3.304   3.620
24976W        W91517  31.072  32.804  11.553
24977W        W91518   4.087  26.683  13.472
24978W        W91519  19.750  13.790  11.740
24979W        W91520  17.150  27.852   1.820
24980W        W91521  37.168  20.502  11.608
24981W        W91522  38.157   8.164  12.528
24982W        W91523  42.437  34.587   4.768
24983W        W91524  17.685  27.713   3.788
24984W        W91525  11.470  12.837  12.527
24985W        W91526   6.155  41.944   1.345
24986W        W91527  34.421  13.269   1.656
24987W        W91528  36.026  25.536  12.651
24988W        W91529  42.406  14.389   2.429
24989W        W91530  10.856  31.578   1.882
24990W        W91531   9.632   6.484   0.927
24991W        W91532  31.962  35.003  12.415
24992W        W91533  35.129  25.665   0.605
24993W        W91534  15.685   3.840  13.125
24994W        W91535  16.699   6.255  11.234
24995W        W91536  11.757  26.229  14.352
24996W        W91537  19.706  20.020  13.955
24997W        W91538  21.809  39.024   0.830
24998W        W91539  20.752  17.733  14.453
24999W        W91540  31.498  28.501   4.419
25000W        W91541  23.562   1.193  14.944
25001W        W91542   6.260  25.996  12.450
25002W        W91543  36.586   3.368   1.665
25003W        W91544  17.357   9.175  12.108
25004W        W91545  25.435   5.718   3.615
25005W        W91546  35.632  16.950   4.207
25006W        W91547  12.606  42.466   0.928
25007W        W91548  32.559  42.186  14.833
25008W        W91549  12.894  12.688  13.388
25009W        W91550  33.130  44.258  13.432
25010W        W91551  43.748  37.068  14.836
25011W        W91552  26.209  41.929  13.832
25012W        W91553   1.328  10.410   2.480
25013W        W91554  29.559  22.603   0.242
25014W        W91555  28.765  40.300   0.249
25015W        W91556  25.502  16.076  14.854
25016W        W91557   0.985  22.644   3.702
25017W        W91558  29.450  39.863   4.364
25018W        W91559   3.263  30.316   0.312
25019W        W91560  15.339  40.927   1.529
25020W        W91561  38.991   5.652  14.390
25021W        W91562  39.504  33.897  10.763
25022W        W91563  38.448  30.543  11.000
25023W        W91564  30.065   9.050  11.670
25024W        W91565  34.185  43.923  11.528
25025W        W91566  16.728  26.625   4.906
25026W        W91567  29.903  11.733   2.250
25027W        W91568  21.204  19.499  10.365
25028W        W91569  24.681  19.802   2.625
25029W        W91570  25.413  16.234  13.944
25030W        W91571   6.755   8.212   3.362
25031W        W91572  20.052  28.044  13.349
25032W        W91573  40.145  36.504   0.432
25033W        W91574  35.872  22.967  10.681
25034W        W91575  28.991   9.668   0.777
25035W        W91576  24.181  24.992  14.741
25036W        W91577   9.429  31.914  12.510
25037W        W91578  26.356   4.682  13.349
25038W        W91579  30.946  16.708   2.136
25039W        W91580   6.469  32.113   2.548
25040W        W91581  17.370  17.324   4.607
25041W        W91582  38.046  22.991   4.156
25042W        W91583  14.202  17.062   3.671
25043W        W91584  14.592  22.064   4.627
25044W        W91585  13.779  12.172  13.501
25045W        W91586   7.872  23.451   4.026
25046W        W91587  21.888  38.956  10.265
25047W        W91588  10.061  38.360  11.624
25048W        W91589  36.475  30.951  14.227
25049W        W91590  37.451   4.376  14.791
25050W        W91591  39.877  38.550   2.165
25051W        W91592  18.794  32.169  12.120
25052W        W91593  41.374  19.180  10.899
25053W        W91594  21.607  13.299  12.102
25054W        W91595  10.261  38.408  13.352
25055W        W91596   3.313  44.027  12.637
25056W        W91597  14.689  34.992   0.161
25057W        W91598  35.823  12.548   0.197
25058W        W91599   7.920   0.229   1.123
25059W        W91600  39.467  38.854   2.327
25060W        W91601  21.134   1.595  13.441
25061W        W91602  38.040  29.868  13.978
25062W        W91603  12.844   8.380  11.998
25063W        W91604  25.788  15.493  11.536
25064W        W91605   6.291  40.034   3.979
25065W        W91606   8.288  34.229  14.810
25066W        W91607  33.021   8.723  14.790
25067W        W91608  32.568  21.230   2.275
25068W        W91609   2.362  14.393  14.288
25069W        W91610  38.489   9.608  12.408
25070W        W91611  32.119   0.831  10.533
25071W        W91612  23.959  15.195  11.915
25072W        W91613  26.052  44.985   3.144
25073W        W91614  28.632   2.364  11.245
25074W        W91615  36.672   9.681  12.444
25075W        W91616   9.909  43.502  14.388
25076W        W91617  33.083   5.699  14.494
25077W        W91618   0.430  23.098   4.366
25078W        W91619  24.082  11.752  10.830
25079W        W91620  21.597  36.435  13.029
25080W        W91621  44.110   1.373  14.558
25081W        W91622  20.468  19.413   1.398
25082W        W91623  32.612  34.895  13.923
25083W        W91624  18.767   2.263  13.375
25084W        W91625   3.878  43.999   3.791
25085W        W91626  15.123  44.336  12.129
25086W        W91627  17.994   5.264  13.601
25087W        W91628  16.922   7.631  11.215
25088W        W91629  26.664   5.301  12.861
25089W        W91630   5.291  24.549   1.239
25090W        W91631  37.911   3.502   1.733
25091W        W91632  43.989  26.139  14.370
25092W        W91633  23.747   9.825   3.128
25093W        W91634   6.753   0.610   3.237
25094W        W91635  24.754  42.398   0.350
25095W        W91636   9.155  33.228   1.943
25096W        W91637  42.066  41.044  14.211
25097W        W91638  29.144   6.994   4.294
25098W        W91639   8.698  31.619   0.390
25099W        W91640   4.018  16.723   1.378
25100W        W91641   7.334  23.603   2.843
25101W        W91642  24.945  27.643  12.569
25102W        W91643  21.069  27.114   1.745
25103W        W91644  17.574   7.737  13.037
25104W        W91645   5.494  43.270  13.031
25105W        W91646  24.248  17.632   2.628
25106W        W91647  19.851  41.552  14.089
25107W        W91648  26.242   5.051  14.471
25108W        W91649  11.213  29.521   3.635
25109W        W91650  27.092  38.092   0.504
25110W        W91651   9.214  28.505   1.926
25111W        W91652  39.383   3.255  13.917
25112W        W91653   4.652   0.301  11.190
25113W        W91654  24.070  32.605  10.531
25114W        W91655  44.476  38.949  12.140
25115W        W91656  20.498  10.724   3.855
25116W        W91657  31.669   1.488   2.115
25117W        W91658  14.608   5.978   1.824
25118W        W91659  11.352  43.475   3.558
25119W        W91660   9.714   7.379  10.651
25120W        W91661  27.699  20.572   0.486
25121W        W91662  36.456  24.411   1.763
25122W        W91663  33.406  40.816  14.725
25123W        W91664  15.317   7.804  13.896
25124W        W91665   5.287  27.664   9.915
25125W        W91666  31.071  34.054  10.647
25126W        W91667  35.729  20.873   0.729
25127W        W91668  23.788   8.408  14.910
25128W        W91669  12.716  40.473  11.415
25129W        W91670  44.793  22.479  10.296
25130W        W91671  41.229  34.015   4.079
25131W        W91672  41.338   8.934   4.805
25132W        W91673  18.080  30.608   2.207
25133W        W91674  20.410   6.814   4.620
25134W        W91675  33.371  29.609  13.482
25135W        W91676  17.184  34.575   4.749
25136W        W91677  29.216  14.360  13.929
25137W        W91678  37.235   6.662   0.854
25138W        W91679  18.130   5.677  13.336
25139W        W91680  12.273   5.314  11.309
25140W        W91681  41.450   2.981   2.149
25141W        W91682   4.659   1.495  11.665
25142W        W91683  38.591  16.409  12.380
25143W        W91684  20.768  21.002   4.572
25144W        W91685  16.243  24.382  13.809
25145W        W91686  39.270  41.291   2.603
25146W        W91687   7.479  25.575  14.776
25147W        W91688  10.700  26.498  12.665
25148W        W91689  22.642  14.898  11.245
25149W        W91690  16.301  32.480   0.111
25150W        W91691  38.017  23.867   5.080
25151W        W91692  25.053  43.952  13.850
25152W        W91693  31.947  11.896   1.402
25153W        W91694  33.903  11.632   1.693
25154W        W91695  15.735  38.997   0.421
25155W        W91696  12.363  35.789  11.166
25156W        W91697  10.056  31.024  12.707
25157W        W91698  16.847  29.697  13.257
25158W        W91699  40.669  14.439   9.922
25159W        W91700  24.204  24.051  11.001
25160W        W91701  36.472  33.565  14.296
25161W        W91702  41.364   0.286   2.975
25162W        W91703  39.150  18.608  12.340
25163W        W91704   8.494  42.572   3.677
25164W        W91705  34.336  25.047   4.128
25165W        W91706  33.510  14.787   3.850
25166W        W91707  43.677  10.695  13.382
25167W        W91708   2.607  34.046   3.260
25168W        W91709   8.853  21.611   0.950
25169W        W91710   9.279   5.865  12.942
25170W        W91711   7.637  20.752  10.717
25171W        W91712  17.367   6.594   0.999
25172W        W91713   7.561   4.679   1.669
25173W        W91714  29.127  25.802   1.739
25174W        W91715  38.080  17.303  11.134
25175W        W91716  13.887  39.777   4.139
25176W        W91717  29.171  11.685   3.999
25177W        W91718   5.952  28.212  14.952
25178W        W91719  16.257  12.779   2.866
25179W        W91720  43.136  42.991  14.600
25180W        W91721   2.987  43.315  12.358
25181W        W91722  10.386  34.978   1.774
25182W        W91723  36.721  22.112  12.179
25183W        W91724  36.547  28.333   4.898
25184W        W91725   3.184   7.277  11.099
25185W        W91726  14.073   9.416   4.148
25186W        W91727  15.477  21.192   3.149
25187W        W91728  22.113  41.325  11.903
25188W        W91729  27.050   9.146  11.550
25189W        W91730  19.354  38.944   1.790
25190W        W91731  24.809  12.522   2.733
25191W        W91732   9.952  30.436   4.707
25192W        W91733   3.159   7.277  11.972
25193W        W91734   9.620   9.654   3.223
25194W        W91735  28.708  18.298  13.816
25195W        W91736  29.571  40.064  13.047
25196W        W91737  36.567  15.287   4.534
25197W        W91738  12.944  10.655  11.177
25198W        W91739   2.237  22.792   3.231
25199W        W91740  41.009   5.980   2.507
25200W        W91741  39.371  44.511  13.944
25201W        W91742  40.117  10.214   3.321
25202W        W91743  21.277  44.843   4.910
25203W        W91744  34.670  24.974  13.313
25204W        W91745   0.692   2.384  10.620
25205W        W91746  22.314  11.161   2.587
25206W        W91747  30.626  16.072   1.390
25207W        W91748  25.762  26.166  11.997
25208W        W91749  43.952  24.876  14.983
25209W        W91750   6.858  25.669  11.349
25210W        W91751  40.517  27.148  10.760
25211W        W91752  28.679   3.785  12.565
25212W        W91753  21.605   2.944  13.506
25213W        W91754  19.290  43.660   0.389
25214W        W91755  30.582   0.992  11.374
25215W        W91756   9.186  32.512  11.629
25216W        W91757  37.049  34.298   1.714
25217W        W91758  34.813   2.758  10.814
25218W        W91759  38.109  26.515   0.816
25219W        W91760  22.111  33.305  11.894
25220W        W91761  38.840  39.521  12.379
25221W        W91762  21.971  22.516   1.356
25222W        W91763  19.938  12.327   1.401
25223W        W91764  27.062   3.991   3.799
25224W        W91765  21.518  33.854   0.727
25225W        W91766  32.661  44.141   2.805
25226W        W91767  14.836   6.075  12.985
25227W        W91768  39.275  12.509   2.310
25228W        W91769  18.542  41.474  12.769
25229W        W91770  16.277  15.039   2.154
25230W        W91771  38.925  44.252  14.090
25231W        W91772   6.582   3.882   3.748
25232W        W91773  30.224   3.206  10.634
25233W        W91774  40.307  32.507   3.963
25234W        W91775  17.254  22.695   2.711
25235W        W91776  27.698  37.357  13.793
25236W        W91777  33.954  31.960  12.273
25237W        W91778  11.586  43.549   1.622
25238W        W91779  14.434  18.166   2.766
25239W        W91780  36.083  43.222   2.728
25240W        W91781  17.026   6.907  11.742
25241W        W91782  22.027  11.796  14.415
25242W        W91783   8.235  37.970   0.856
25243W        W91784   0.812  30.567   2.643
25244W        W91785  24.184  36.049   3.162
25245W        W91786  13.606  12.512  13.898
25246W        W91787  27.646  39.982  11.131
25247W        W91788  10.246  17.341  12.725
25248W        W91789  40.184  32.882   4.472
25249W        W91790  31.759  39.083  13.953
25250W        W91791  40.012   8.589  11.047
25251W        W91792  14.135   6.196  11.488
25252W        W91793  20.176  27.685   4.532
25253W        W91794  38.943  10.135   4.430
25254W        W91795  16.788   7.445  10.581
25255W        W91796  40.416  15.113  14.693
25256W        W91797  21.223  14.056  14.899
25257W        W91798  38.527   9.992  13.396
25258W        W91799  22.034  24.183  14.990
25259W        W91800   6.148   2.058   5.215
25260W        W91801  40.795  41.481  11.063
25261W        W91802  38.513   7.267   2.314
25262W        W91803  29.940  41.043   3.305
25263W        W91804  16.129  36.031   4.306
25264W        W91805  42.487  22.145   3.624
25265W        W91806  10.607   6.427   2.450
25266W        W91807  27.522  32.669  12.483
25267W        W91808  26.940  17.804   0.377
25268W        W91809  39.068  18.063   2.683
25269W        W91810   0.248  20.450   0.116
25270W        W91811   5.071  31.818   1.673
25271W        W91812  24.527  37.745  10.752
25272W        W91813   4.511   3.830   3.137
25273W        W91814   1.381  34.604  12.762
25274W        W91815  25.197  26.606   2.806
25275W        W91816   8.894  39.038  11.532
25276W        W91817  31.035  23.006  11.604
25277W        W91818   3.829  27.241  14.333
25278W        W91819  32.713   4.942   4.136
25279W        W91820  31.930  26.994  13.060
25280W        W91821  32.628  37.342  14.963
25281W        W91822  12.511  13.882  14.111
25282W        W91823  13.120  26.649  11.337
25283W        W91824  39.085  12.749   0.307
25284W        W91825  11.919  35.335  12.935
25285W        W91826  33.775  29.878   3.746
25286W        W91827  29.566  25.459  14.309
25287W        W91828  24.463   7.715  14.458
25288W        W91829  10.261  17.786   3.192
25289W        W91830  21.648  28.418   3.646
25290W        W91831  13.315  31.595  13.876
25291W        W91832  21.659   4.091  10.243
25292W        W91833   8.370   5.530  12.471
25293W        W91834  33.686  15.927  10.913
25294W        W91835  20.805  36.602   5.008
25295W        W91836  11.169  17.459   0.713
25296W        W91837  21.055  19.633  14.962
25297W        W91838  13.066  21.516  13.447
25298W        W91839  14.389  28.000   4.022
25299W        W91840  16.778  40.248   0.876
25300W        W91841  30.698  36.421   0.245
25301W        W91842   7.887  17.553  14.988
25302W        W91843  26.581  43.072  12.005
25303W        W91844  41.170  28.201  12.431
25304W        W91845  35.568   5.234  11.626
25305W        W91846  25.578  32.088   2.970
25306W        W91847  16.745  26.172   3.306
25307W        W91848  31.019  34.321   1.085
25308W        W91849   2.351  36.021   3.218
25309W        W91850  37.467   7.825   3.383
25310W        W91851   4.021  12.853   2.472
25311W        W91852  44.244  32.840   5.095
25312W        W91853  22.950  22.126   2.993
25313W        W91854  19.389  20.060  11.162
25314W        W91855  30.102  38.613  10.688
25315W        W91856   7.706  18.051   0.925
25316W        W91857  16.701  37.180   2.747
25317W        W91858  25.886  11.963   3.010
25318W        W91859  35.848  18.732  11.518
25319W        W91860  28.577  26.016  14.965
25320W        W91861  26.273   4.353   3.340
25321W        W91862  29.225  30.693  10.740
25322W        W91863  39.036   0.212   4.243
25323W        W91864   2.562  27.830   1.758
25324W        W91865  19.205   0.880  13.845
25325W        W91866  38.132  31.810  10.196
25326W        W91867  16.204  11.374   0.059
25327W        W91868   3.541  21.412   2.190
25328W        W91869  29.759  41.768  14.932
25329W        W91870  31.590   4.405  10.599
25330W        W91871  11.113  19.246   1.853
25331W        W91872  35.534   6.637  11.587
25332W        W91873   3.003  13.868   1.336
25333W        W91874   2.475  15.764   1.278
25334W        W91875  43.199  16.009  12.873
25335W        W91876  24.125  39.553  11.302
25336W        W91877  14.863  27.941  14.201
25337W        W91878  13.073  30.007   0.918
25338W        W91879  17.952  33.071   4.904
25339W        W91880  13.661  42.041   2.651
25340W        W91881  26.164  25.495  13.110
25341W        W91882  35.577  10.608   2.310
25342W        W91883  13.747  33.703   0.405
25343W        W91884   2.235  44.437   1.227
25344W        W91885  32.329  36.786   4.215
25345W        W91886  34.640  13.346  10.677
25346W        W91887  36.139  36.740  12.955
25347W        W91888   2.376  24.743  12.962
25348W        W91889  25.012  32.540  14.873
25349W        W91890  38.078  34.815   2.795
25350W        W91891   4.916   4.323  14.323
25351W        W91892  12.177  10.181   2.662
25352W        W91893  33.307  37.490  12.476
25353W        W91894  41.359  41.051   2.329
25354W        W91895  26.153  29.454  13.349
25355W        W91896  16.060  25.111  12.615
25356W        W91897  19.415  34.784   1.590
25357W        W91898  24.742   0.777  10.597
25358W        W91899  35.006  26.675   4.186
25359W        W91900  38.478  19.819   1.498
25360W        W91901  33.471  32.494   0.896
25361W        W91902   4.294  32.185   2.248
25362W        W91903  18.593  12.314  10.069
25363W        W91904  41.052  17.631  10.524
25364W        W91905  34.376  28.383  12.312
25365W        W91906   1.257  43.568  13.971
25366W        W91907   5.235   3.369  11.351
25367W        W91908  29.000  34.282   4.578
25368W        W91909  24.710  32.259  12.379
25369W        W91910  42.559   5.930   4.134
25370W        W91911  10.419   8.418  12.133
25371W        W91912  37.471   7.567   1.177
25372W        W91913   3.593  32.328  11.480
25373W        W91914  13.755  22.578   2.350
25374W        W91915   5.794  33.334   2.885
25375W        W91916  38.057   4.634   4.148
25376W        W91917  13.861  41.622  11.051
25377W        W91918  38.374  43.255   0.677
25378W        W91919  31.485  32.003   4.552
25379W        W91920  41.894  41.514   4.703
25380W        W91921  36.466  31.032   3.579
25381W        W91922   7.861  16.104   2.414
25382W        W91923  23.688  43.288   0.367
25383W        W91924  32.660  34.931   3.402
25384W        W91925  21.636  40.545   4.569
25385W        W91926  20.178  36.832  12.005
25386W        W91927  30.222  16.522  12.507
25387W        W91928   9.118  40.022   3.605
25388W        W91929  24.767  19.239   4.508
25389W        W91930  28.845  37.150   1.688
25390W        W91931   3.694  31.957  12.141
25391W        W91932  29.558   0.199   0.136
25392W        W91933  20.903   0.559  11.874
25393W        W91934  41.269  42.201  13.966
25394W        W91935  30.681  26.203  14.024
25395W        W91936   2.283  31.676   3.603
25396W        W91937  19.670  29.874  13.989
25397W        W91938  40.323  13.724  10.818
25398W        W91939  19.217  13.884   5.177
25399W        W91940  35.420  38.700   1.236
25400W        W91941  31.826   6.620  14.957
25401W        W91942  13.336   7.236  10.951
25402W        W91943   3.860  16.695   4.576
25403W        W91944  38.348  17.068   3.748
25404W        W91945   7.287   5.418  13.077
25405W        W91946   9.894  35.381   2.923
25406W        W91947   9.881  35.092   1.689
25407W        W91948   8.004  42.759   2.314
25408W        W91949  23.644   2.622  14.788
25409W        W91950  22.561  30.572   3.757
25410W        W91951  44.628  41.784   3.966
25411W        W91952  14.386   4.044  12.450
25412W        W91953   1.397  25.964  14.937
25413W        W91954  44.395  29.956   4.200
25414W        W91955  41.830  13.173   2.436
25415W        W91956  41.896  11.470  10.708
25416W        W91957   9.241   6.432  13.585
25417W        W91958  28.680  21.441  11.490
25418W        W91959   9.597   8.173   2.980
25419W        W91960  41.797  13.784  14.689
25420W        W91961  16.217  37.553   0.831
25421W        W91962  41.333  19.947  14.566
25422W        W91963  33.427  27.997  13.981
25423W        W91964  33.460  17.882  14.267
25424W        W91965  21.563   2.280   0.616
25425W        W91966  21.335   7.173  10.456
25426W        W91967   2.297  10.100  14.803
25427W        W91968  28.915   5.771   4.322
25428W        W91969  16.737  42.019  11.965
25429W        W91970  30.491  37.050  12.855
25430W        W91971   8.696  14.033   0.886
25431W        W91972  13.051  17.391   2.760
25432W        W91973  15.605  22.629   3.581
25433W        W91974  22.731  36.401  10.987
25434W        W91975   0.909  29.458   0.971
25435W        W91976   2.890  36.321  13.664
25436W        W91977  40.300  35.939   4.163
25437W        W91978  34.482  22.733  11.498
25438W        W91979  31.599  39.334   4.603
25439W        W91980   3.214  20.598   1.765
25440W        W91981   0.486  19.770   3.468
25441W        W91982  41.867  20.070  12.066
25442W        W91983  11.535  12.557   1.356
25443W        W91984  38.292  19.681  14.505
25444W        W91985  36.511  28.158  10.529
25445W        W91986  21.672  44.043  13.661
25446W        W91987  35.273  41.482  13.560
25447W        W91988  14.318   3.919   1.671
25448W        W91989  24.599  18.919  14.286
25449W        W91990  44.321  25.039  11.565
25450W        W91991  40.285  13.684   0.839
25451W        W91992  21.523  17.389  11.129
25452W        W91993  39.248  31.984   1.855
25453W        W91994   2.248  20.619  14.930
25454W        W91995  40.410  39.575  14.999
25455W        W91996  36.512  32.297   3.839
25456W        W91997  17.221  30.197  14.337
25457W        W91998  34.242  21.805  12.518
25458W        W91999  43.417  24.336  11.973
25459W        W92000   3.041  10.864   4.672
25460W        W92001  36.750  40.553   1.158
25461W        W92002  39.333  43.938  14.374
25462W        W92003   2.804  10.574  14.988
25463W        W92004   4.930  32.990   2.385
25464W        W92005  14.187  38.355   4.392
25465W        W92006  19.076   9.130   2.168
25466W        W92007  28.529  44.262   1.182
25467W        W92008  38.869  36.688  10.097
25468W        W92009  37.913   8.408  10.705
25469W        W92010  31.982   9.750  13.751
25470W        W92011  40.191  21.781  11.235
25471W        W92012  39.068  17.034   4.721
25472W        W92013  41.442  27.236   4.237
25473W        W92014  18.336   7.889   0.305
25474W        W92015  24.675   4.324   0.338
25475W        W92016  22.183   1.652  11.076
25476W        W92017   6.832  41.363   2.476
25477W        W92018  38.710  25.294   0.908
25478W        W92019  14.346  33.989  13.397
25479W        W92020  41.585  26.285  13.336
25480W        W92021  28.498  34.174   0.450
25481W        W92022   8.636  35.837  14.228
25482W        W92023  30.315  19.315  13.069
25483W        W92024  11.168  15.342  12.931
25484W        W92025  30.645  11.096   3.326
25485W        W92026   9.158  21.524  14.093
25486W        W92027  37.111   0.824  12.941
25487W        W92028  17.697  11.166  14.328
25488W        W92029  21.332  27.130   4.596
25489W        W92030  30.968  33.079  13.966
25490W        W92031  11.655   5.373  13.467
25491W        W92032  26.414  26.907  14.854
25492W        W92033  16.604   6.744   0.727
25493W        W92034   9.702   6.698   1.392
25494W        W92035   8.877   5.823  14.461
25495W        W92036  41.748  35.173  12.023
25496W        W92037  41.398   4.501   1.413
25497W        W92038   6.104  14.677   3.486
25498W        W92039  18.622   4.661  11.948
25499W        W92040  21.473  17.337  12.940
25500W        W92041   0.415  39.787  12.486
25501W        W92042  25.150   7.151  10.363
25502W        W92043  44.865  14.149   2.805
25503W        W92044  39.834   3.168  10.682
25504W        W92045  12.282  14.913  10.710
25505W        W92046   0.047   1.868  13.227
25506W        W92047   5.551  27.637   2.178
25507W        W92048  15.741  16.793   0.968
25508W        W92049  34.188  26.235  12.694
25509W        W92050   5.681  33.563  13.418
25510W        W92051  44.382  10.428  14.047
25511W        W92052  31.584   7.312  11.720
25512W        W92053   5.173  17.479   1.406
25513W        W92054  30.144   4.914  11.163
25514W        W92055  26.528  13.871   0.979
25515W        W92056   2.742   9.317   1.347
25516W        W92057  38.547  39.499  12.830
25517W        W92058  41.580  25.144  14.089
25518W        W92059   9.872  41.116  13.529
25519W        W92060  10.997  36.391  12.711
25520W        W92061  41.043  38.098  13.412
25521W        W92062  26.900  44.771   2.836
25522W        W92063  16.711  32.660  10.907
25523W        W92064  28.488  34.658  10.699
25524W        W92065   3.004  36.973   4.619
25525W        W92066  20.759   9.786  11.637
25526W        W92067  28.933   0.518  11.903
25527W        W92068  39.353  27.260   1.907
25528W        W92069  19.796  28.606  12.391
25529W        W92070  25.500  34.928   3.806
25530W        W92071  19.508   3.227   2.581
25531W        W92072  42.182  25.560   1.364
25532W        W92073   9.430   3.183  10.495
25533W        W92074  24.478  26.750  14.812
25534W        W92075  36.964   2.798   2.814
25535W        W92076   7.309  24.001  13.933
25536W        W92077  23.099  27.600   1.645
25537W        W92078  13.357  21.069   4.705
25538W        W92079  33.050  10.935  11.943
25539W        W92080  18.431   8.493  11.680
25540W        W92081  11.371   2.282   4.635
25541W        W92082   0.239   7.342  13.062
25542W        W92083   1.894  44.550  11.354
25543W        W92084  39.496   4.295   3.712
25544W        W92085  22.448  10.224  14.542
25545W        W92086  29.095   0.440   3.656
25546W        W92087  32.066  42.932  14.863
25547W        W92088  25.444   4.696  13.345
25548W        W92089  28.105  24.816  12.946
25549W        W92090  41.565  11.864   2.821
25550W        W92091   5.433   6.998  13.888
25551W        W92092  31.136  42.958  13.565
25552W        W92093  19.140  30.244  11.653
25553W        W92094  10.272   6.753  13.934
25554W        W92095  11.744  21.048  11.195
25555W        W92096  23.110  21.498  14.823
25556W        W92097   8.125  26.747   4.354
25557W        W92098  36.093  35.374   1.476
25558W        W92099  25.946   7.179   2.366
25559W        W92100  12.061  20.604  13.875
25560W        W92101  20.268  35.480   4.292
25561W        W92102  29.444  38.482   0.372
25562W        W92103   2.376  26.778   4.711
25563W        W92104  23.176  18.417  12.013
25564W        W92105  42.975  25.595   0.819
25565W        W92106   7.148  17.952   1.012
25566W        W92107  13.748  32.012   0.742
25567W        W92108  31.336  31.471  10.339
25568W        W92109  35.119  15.389  14.299
25569W        W92110  19.248  42.072  14.946
25570W        W92111  31.522  44.754  12.862
25571W        W92112  29.052  44.254   4.745
25572W        W92113   8.375  22.121   0.798
25573W        W92114  17.726  13.311  13.486
25574W        W92115  27.763  43.381   1.907
25575W        W92116  40.085  29.465  13.929
25576W        W92117  10.112  12.511   3.709
25577W        W92118   1.240  39.659  12.065
25578W        W92119   3.208  36.118   2.267
25579W        W92120  12.291  27.109   1.440
25580W        W92121  40.097  21.067  11.743
25581W        W92122  39.537  22.598  14.516
25582W        W92123  13.232  35.422  14.571
25583W        W92124  30.321   7.929   4.635
25584W        W92125  27.170  25.608   1.806
25585W        W92126  24.195  28.609   2.756
25586W        W92127  26.768  27.573   2.404
25587W        W92128  31.498   6.724  12.895
25588W        W92129  32.818  11.677  12.274
25589W        W92130  20.812  34.310   0.489
25590W        W92131  14.251  35.567   1.756
25591W        W92132   8.923   4.453   4.398
25592W        W92133  40.509   7.812  10.996
25593W        W92134  22.305  39.499  11.167
25594W        W92135  19.259  44.521   3.144
25595W        W92136  25.030  20.047   2.917
25596W        W92137   1.664  15.573   0.274
25597W        W92138  16.988  15.206   4.279
25598W        W92139   7.841  22.801  12.103
25599W        W92140   9.416  38.072  12.895
25600W        W92141  38.048  12.291   0.928
25601W        W92142  23.059  27.616  13.832
25602W        W92143  24.475   8.689   4.592
25603W        W92144   3.692  34.165   0.663
25604W        W92145   6.211  38.436   2.722
25605W        W92146  32.446  20.209  12.876
25606W        W92147  22.965  29.391   3.264
25607W        W92148  14.322   0.267  11.213
25608W        W92149  12.212  26.455  14.220
25609W        W92150  34.043   3.420  11.187
25610W        W92151  33.560  25.745   4.076
25611W        W92152   6.399   7.247  12.588
25612W        W92153  13.828   7.733   5.043
25613W        W92154   0.996  14.884   2.331
25614W        W92155  33.847  12.093   1.484
25615W        W92156   5.719   5.518   4.627
25616W        W92157  32.918   0.164  11.100
25617W        W92158  35.848  29.364  14.896
25618W        W92159  37.791  22.750  12.408
25619W        W92160  39.655  14.533   0.782
25620W        W92161  30.976  17.819  12.597
25621W        W92162  30.693  30.486   2.841
25622W        W92163  38.167  30.066   0.913
25623W        W92164  37.579   6.939   2.412
25624W        W92165  31.530  11.604   3.573
25625W        W92166  14.633  34.579  13.895
25626W        W92167  12.782  25.980   0.702
25627W        W92168  41.848  29.199  12.107
25628W        W92169  35.092  19.660   4.186
25629W        W92170  21.379  21.111   1.109
25630W        W92171  23.763  43.120   4.932
25631W        W92172  22.792   9.273   2.789
25632W        W92173   9.031  33.851   0.883
25633W        W92174  38.532  16.134  11.080
25634W        W92175  16.119  29.842   0.478
25635W        W92176   7.598   3.957   3.726
25636W        W92177   6.403  38.909   2.611
25637W        W92178   5.231  37.493   0.675
25638W        W92179  37.590  24.244  11.597
25639W        W92180  40.882  32.280   5.125
25640W        W92181  27.581   4.738   0.720
25641W        W92182  30.164  40.156   4.185
25642W        W92183  39.918   3.700  14.514
25643W        W92184   4.832  23.080  14.386
25644W        W92185  33.241  23.767  12.837
25645W        W92186  17.833  30.482   9.826
25646W        W92187  35.859  37.531  10.720
25647W        W92188  16.026  18.480   2.019
25648W        W92189  17.826  36.644  10.952
25649W        W92190  11.624  35.972  11.688
25650W        W92191  37.346  44.426  10.350
25651W        W92192  34.557  22.147   2.193
25652W        W92193  27.647  32.118  12.499
25653W        W92194  19.184  17.370  11.947
25654W        W92195  39.535  30.936   4.699
25655W        W92196  10.881  44.469  13.599
25656W        W92197  37.069   2.362   2.333
25657W        W92198  22.699  32.779   4.189
25658W        W92199  37.048  33.199   1.977
25659W        W92200  11.792  27.067   0.520
25660W        W92201  13.257  25.766  13.384
25661W        W92202  11.073  14.293   4.364
25662W        W92203  34.782  43.852  12.933
25663W        W92204  39.443  28.410   3.776
25664W        W92205  33.627   9.743   4.841
25665W        W92206  32.195  29.902   0.014
25666W        W92207   3.467  39.466  14.815
25667W        W92208   8.659  17.766  11.519
25668W        W92209  42.986  42.006   4.091
25669W        W92210  25.031   5.230   5.105
25670W        W92211  23.667  40.028  12.649
25671W        W92212  14.776  31.175   3.597
25672W        W92213  22.726  17.144   1.403
25673W        W92214   5.692   1.227  12.164
25674W        W92215  42.413  15.443  10.662
25675W        W92216  13.839  22.957  14.959
25676W        W92217  16.696  29.620  11.543
25677W        W92218  16.647  20.267  14.737
25678W        W92219  23.108  38.718  13.890
25679W        W92220  42.284  28.755   3.784
25680W        W92221   2.980  10.235  14.094
25681W        W92222   9.759  41.819   4.364
25682W        W92223  25.551  32.818  14.081
25683W        W92224   2.307  12.194  13.178
25684W        W92225  38.004  11.213   4.668
25685W        W92226  11.728   8.914   4.646
25686W        W92227  22.673  26.000   2.648
25687W        W92228  33.408  44.144  11.957
25688W        W92229  17.654  19.541   4.247
25689W        W92230  43.458  12.166  13.037
25690W        W92231  30.070  21.070  13.326
25691W        W92232  41.784  40.782  11.464
25692W        W92233  26.725  21.459  11.600
25693W        W92234   3.813  42.550   1.851
25694W        W92235  29.443  39.567   1.257
25695W        W92236  10.042  21.985  13.390
25696W        W92237  25.601   0.980   0.351
25697W        W92238  35.136  42.724  12.578
25698W        W92239   1.490  16.979  12.906
25699W        W92240  40.835  30.185   0.926
25700W        W92241  28.586  37.563   2.257
25701W        W92242   3.323  31.108  13.573
25702W        W92243  10.241   8.609  11.586
25703W        W92244  20.232  31.656  13.851
25704W        W92245   1.954  39.866   1.878
25705W        W92246  10.423  23.457   3.303
25706W        W92247   1.289  26.533   4.334
25707W        W92248  12.338  17.757   3.466
25708W        W92249   2.330  16.708   4.121
25709W        W92250  22.536  10.560   4.153
25710W        W92251  11.717  32.827  11.203
25711W        W92252  10.753  34.321  14.603
25712W        W92253  11.207  41.546  14.313
25713W        W92254  16.930   8.105   0.899
25714W        W92255  31.671   1.419   0.399
25715W        W92256   9.443  31.841  14.490
25716W        W92257  28.425  29.438   2.751
25717W        W92258  17.465   3.675  13.913
25718W        W92259  12.321  26.422  12.336
25719W        W92260  37.376  39.875   2.237
25720W        W92261  37.851  27.622  13.253
25721W        W92262  42.327  23.759  11.620
25722W        W92263   0.409  39.284  12.589
25723W        W92264   2.603  40.946   1.648
25724W        W92265   3.319   8.728   3.936
25725W        W92266  43.876  21.469   1.880
25726W        W92267  16.131  16.650   0.650
25727W        W92268  25.616  22.810   0.493
25728W        W92269   4.925   7.839  11.236
25729W        W92270   4.658   8.159   4.545
25730W        W92271  44.364  26.768   3.822
25731W        W92272  30.450   4.157   2.792
25732W        W92273  37.539  22.909  14.980
25733W        W92274  11.394  12.154   2.305
25734W        W92275  16.308  23.648   1.726
25735W        W92276  31.953  11.307  12.382
25736W        W92277  36.014  15.173  13.833
25737W        W92278  43.714  23.238   3.371
25738W        W92279  21.214   1.272   2.426
25739W        W92280   7.146   8.415   3.630
25740W        W92281  13.089  19.319   5.114
25741W        W92282   0.472   2.209   5.075
25742W        W92283  24.544  14.613  10.607
25743W        W92284  31.144   9.743   3.396
25744W        W92285   5.837   2.490  13.072
25745W        W92286  43.691  31.677  12.888
25746W        W92287  34.912  44.301  13.128
25747W        W92288   6.328  39.524  14.923
25748W        W92289  37.655  26.505   0.517
25749W        W92290  42.067  43.931  11.040
25750W        W92291  29.451  37.729   0.884
25751W        W92292  22.718  26.146   0.834
25752W        W92293  27.991  44.869   2.691
25753W        W92294   1.949   5.894   4.840
25754W        W92295   9.953  22.022  12.557
25755W        W92296  42.114  28.828   3.211
25756W        W92297   7.708  26.171   2.339
25757W        W92298  42.899  26.582   1.533
25758W        W92299  43.546   6.751   4.936
25759W        W92300  40.481  37.879  12.545
25760W        W92301  24.181  33.500   4.594
25761W        W92302  43.223  20.174   4.200
25762W        W92303  20.005  33.655   2.310
25763W        W92304   9.540  27.757   2.537
25764W        W92305  27.194  29.516  12.290
25765W        W92306  31.271  25.278   0.583
25766W        W92307  35.512  42.168  12.916
25767W        W92308  39.048   5.946  14.802
25768W        W92309  24.564  15.873   2.099
25769W        W92310  20.132   6.972   2.063
25770W        W92311  15.231   1.884   1.238
25771W        W92312   9.776   3.363   0.497
25772W        W92313  27.177   7.749   4.309
25773W        W92314   8.702   0.215  11.210
25774W        W92315  27.920   1.848  14.007
25775W        W92316  11.107  34.675  14.402
25776W        W92317  40.994  24.661  13.584
25777W        W92318  38.464  11.825  12.546
25778W        W92319  31.508  30.519  11.885
25779W        W92320  38.346  13.074  13.804
25780W        W92321  28.378  40.699   3.167
25781W        W92322  39.355  40.396  14.174
25782W        W92323  25.043  12.135  10.863
25783W        W92324  23.120  29.587   4.547
25784W        W92325  12.823  39.222   4.068
25785W        W92326  25.628  11.681   0.640
25786W        W92327  13.631  41.369   4.181
25787W        W92328  20.241  23.327  13.288
25788W        W92329   7.298  12.697   3.070
25789W        W92330  13.611  17.042  10.856
25790W        W92331  15.626  13.687   1.251
25791W        W92332  25.519  12.273  10.664
25792W        W92333  29.587  18.670   2.598
25793W        W92334   6.457  33.072  12.946
25794W        W92335  40.974  32.697  12.397
25795W        W92336  44.950  14.838  13.947
25796W        W92337  25.098  37.737  13.006
25797W        W92338  12.403  30.372   1.292
25798W        W92339  33.131  18.012   0.346
25799W        W92340  44.213  31.594  10.361
25800W        W92341  21.018  16.311   3.224
25801W        W92342   2.901   9.881  13.051
25802W        W92343  41.486  37.426  14.771
25803W        W92344  36.152  40.496  11.413
25804W        W92345  25.060  38.912   1.365
25805W        W92346   3.730  28.159   0.414
25806W        W92347  14.528  23.472  10.336
25807W        W92348  18.466  37.989  10.637
25808W        W92349  12.634   7.488  14.581
25809W        W92350  29.301  36.300  12.475
25810W        W92351  31.371  43.580   2.145
25811W        W92352  40.851  39.032  12.205
25812W        W92353   7.244  21.637   3.750
25813W        W92354  39.673  30.664  12.829
25814W        W92355  10.468  17.752  13.540
25815W        W92356  22.791   7.223   0.350
25816W        W92357  35.922   8.670   1.184
25817W        W92358  33.507  23.773   3.283
25818W        W92359  10.176  44.351  12.915
25819W        W92360  36.968  22.103  12.622
25820W        W92361  41.217   7.673   3.617
25821W        W92362  30.320  32.485  13.746
25822W        W92363  15.963  35.491   2.278
25823W        W92364  35.973  15.063   0.782
25824W        W92365  35.858  22.564   4.849
25825W        W92366  33.692  29.110   2.580
25826W        W92367  27.401  18.218   1.725
25827W        W92368  30.064   8.195   2.828
25828W        W92369  43.485  12.642  10.701
25829W        W92370  27.212  27.506   3.894
25830W        W92371  29.383  32.925   1.461
25831W        W92372  32.188  40.225   2.204
25832W        W92373   2.872   7.711  11.132
25833W        W92374   5.149  38.057  13.863
25834W        W92375  27.839  21.053   4.998
25835W        W92376  24.163  41.580   3.074
25836W        W92377  27.253  40.416   0.378
25837W        W92378  16.765  24.590  10.962
25838W        W92379  17.066  35.510   3.705
25839W        W92380  32.728  12.322  14.736
25840W        W92381  18.607  15.803  14.767
25841W        W92382  44.197  40.487   4.766
25842W        W92383  32.215  37.612  14.030
25843W        W92384  28.506  26.747   2.243
25844W        W92385  33.213  10.257  14.015
25845W        W92386  15.088  16.598   4.658
25846W        W92387   2.213  36.436  13.074
25847W        W92388  15.609  26.114   2.779
25848W        W92389  39.828  10.915  14.787
25849W        W92390  16.092  23.914   4.083
25850W        W92391   1.098  22.790  10.116
25851W        W92392  19.651  18.191   2.652
25852W        W92393  26.405  25.914  11.479
25853W        W92394  31.858  23.683   0.381
25854W        W92395  27.647  25.125  11.178
25855W        W92396  35.492  14.721   2.955
25856W        W92397  17.151  29.703   4.096
25857W        W92398   7.735   8.504  13.330
25858W        W92399  43.325  23.268  12.001
25859W        W92400  33.065  41.913  12.341
25860W        W92401  39.747  31.220  12.088
25861W        W92402  11.538  33.595   1.090
25862W        W92403  35.516  12.538   3.976
25863W        W92404  42.047  42.794  14.578
25864W        W92405  36.365  40.910   3.909
25865W        W92406   5.531  34.220   2.779
25866W        W92407  18.213   4.225  11.076
25867W        W92408   4.589   7.605  11.951
25868W        W92409  22.094  39.818   4.542
25869W        W92410  21.155  18.887  14.373
25870W        W92411   4.007   5.967  11.715
25871W        W92412   5.803  22.918   1.712
25872W        W92413   2.572  18.113   3.360
25873W        W92414  19.752  38.371   4.796
25874W        W92415  42.205  20.618  13.752
25875W        W92416  17.748  22.238   4.597
25876W        W92417  42.927  36.667  11.941
25877W        W92418  13.755  27.872   3.195
25878W        W92419  34.492  43.475  10.468
25879W        W92420  28.619  17.232   1.622
25880W        W92421  20.340  33.091  11.065
25881W        W92422  36.773  36.865  13.899
25882W        W92423   4.122   9.439   0.925
25883W        W92424   8.342   9.702   0.401
25884W        W92425   3.232   3.283  12.963
25885W        W92426  15.737  12.378   2.725
25886W        W92427  16.406  11.656  10.192
25887W        W92428  19.136  43.987   4.600
25888W        W92429  33.981  20.185  10.880
25889W        W92430  22.803  38.224   0.293
25890W        W92431   4.650   2.994  11.936
25891W        W92432  14.241  21.714  13.298
25892W        W92433   0.732  15.245  12.807
25893W        W92434  20.012   8.862  12.501
25894W        W92435   2.803  44.248  11.494
25895W        W92436  25.573  21.915  10.304
25896W        W92437  43.532  41.626   4.635
25897W        W92438   9.287  10.811   1.391
25898W        W92439   9.354   7.881  11.670
25899W        W92440  43.901  19.843   2.818
25900W        W92441  40.120   2.899   3.311
25901W        W92442   2.166  14.785   2.864
25902W        W92443  29.162  44.721   3.497
25903W        W92444  15.766  11.817  12.596
25904W        W92445  38.413  23.882   1.719
25905W        W92446  43.819  13.094   0.256
25906W        W92447  39.426  27.786  12.487
25907W        W92448  18.201   3.197  12.558
25908W        W92449   1.962  32.931  11.998
25909W        W92450  26.701  30.572   1.858
25910W        W92451  35.288  38.409   4.224
25911W        W92452  22.579  14.857   1.288
25912W        W92453  39.044  12.902   3.576
25913W        W92454  21.578  10.161   2.426
25914W        W92455  42.469   8.209   2.970
25915W        W92456  44.579   1.000  13.150
25916W        W92457  35.208  33.106   3.948
25917W        W92458  31.517  13.104   9.804
25918W        W92459   3.999   5.331  14.515
25919W        W92460  44.558  36.009   4.662
25920W        W92461   5.367   1.558   3.163
25921W        W92462  18.746  28.887   5.057
25922W        W92463  30.130  41.570  10.525
25923W        W92464   5.748  10.893   4.138
25924W        W92465  14.840  31.415  14.286
25925W        W92466  16.977  32.639  10.463
25926W        W92467  20.298  21.004   2.669
25927W        W92468  11.700  33.998   2.326
25928W        W92469  41.305  19.030   0.710
25929W        W92470  25.577   5.414   4.065
25930W        W92471  29.457  44.940  10.465
25931W        W92472  43.885   7.700  13.846
25932W        W92473  22.426  29.011   1.765
25933W        W92474  38.777  27.550   0.252
25934W        W92475  13.279  25.504   3.024
25935W        W92476  28.303  16.295  14.763
25936W        W92477  34.969  27.778   3.268
25937W        W92478   3.574  30.859  10.761
25938W        W92479  28.727  12.279   3.024
25939W        W92480  26.113  38.410   3.428
25940W        W92481  30.556  24.049   0.060
25941W        W92482   3.893   5.934   3.972
25942W        W92483  23.542  19.531   0.696
25943W        W92484  36.879  22.458   0.742
25944W        W92485  43.721  21.048   2.304
25945W        W92486  19.208   5.755  14.896
25946W        W92487  22.883   7.095  12.527
25947W        W92488  26.746  20.250   4.930
25948W        W92489  16.652  44.730   3.628
25949W        W92490  12.590  10.138   1.830
25950W        W92491  39.541  26.394  12.095
25951W        W92492  17.757  27.306  11.943
25952W        W92493  22.255   2.606  13.409
25953W        W92494  25.210   4.575  11.214
25954W        W92495   6.270  18.184  14.245
25955W        W92496  15.109  34.480  13.586
25956W        W92497  43.918   6.663  14.369
25957W        W92498  22.156  10.796  13.493
25958W        W92499  19.332  42.569   3.164
25959W        W92500  11.147   7.392  11.891
25960W        W92501  17.191  44.350   3.153
25961W        W92502  33.942   7.936   1.096
25962W        W92503  31.484  10.016  10.248
25963W        W92504   4.045   4.338  11.209
25964W        W92505   3.480  20.032  11.258
25965W        W92506  29.852  18.163  13.086
25966W        W92507  38.036  27.520   3.125
25967W        W92508  13.148  17.209  11.872
25968W        W92509   7.249  13.777   1.897
25969W        W92510  24.501  28.440   4.406
25970W        W92511  37.642   5.418   3.154
25971W        W92512  22.962  22.283  10.700
25972W        W92513   9.349   5.398   1.606
25973W        W92514  27.121   0.974  11.436
25974W        W92515  37.504  19.631   4.260
25975W        W92516  10.893   7.855   2.622
25976W        W92517  24.954  41.283  10.776
25977W        W92518  32.982  16.191   0.315
25978W        W92519   4.298  44.462   0.977
25979W        W92520   1.439  28.961   4.863
25980W        W92521  13.389  37.905   0.782
25981W        W92522   1.046  28.997  10.756
25982W        W92523  32.191   3.449   3.213
25983W        W92524  22.455  20.684   9.911
25984W        W92525  41.559  13.178   1.717
25985W        W92526  39.487  22.655  12.941
25986W        W92527  43.864  38.580   1.720
25987W        W92528  12.905  20.324  11.092
25988W        W92529  35.352  40.003  13.470
25989W        W92530  11.590  41.868  12.563
25990W        W92531  43.953  32.644   4.725
25991W        W92532  33.737  39.944   2.868
25992W        W92533   3.452  27.936  10.703
25993W        W92534   3.224  23.011   1.505
25994W        W92535  39.566  15.320  12.341
25995W        W92536  39.986  18.722   4.107
25996W        W92537  35.358  11.792  14.669
25997W        W92538  24.146  32.103  10.684
25998W        W92539  23.159  20.290   1.844
25999W        W92540  22.356   7.213   4.149
26000W        W92541  28.667  20.762   1.863
26001W        W92542  36.767  25.028  11.648
26002W        W92543   0.318   9.915  12.858
26003W        W92544  43.276   2.530   2.355
26004W        W92545  32.881  26.204  13.496
26005W        W92546  24.512  42.825   3.388
26006W        W92547  36.755  25.774   1.526
26007W        W92548  42.506  31.765   0.596
26008W        W92549  27.606  12.195  14.409
26009W        W92550  21.201  11.410   0.513
26010W        W92551  22.101  15.351  11.868
26011W        W92552   5.427   3.700  14.876
26012W        W92553  19.213  22.715   0.854
26013W        W92554  34.120   1.783  13.430
26014W        W92555  21.776  15.059  14.934
26015W        W92556  41.521  22.690  11.060
26016W        W92557  29.627  35.654  13.521
26017W        W92558   6.423  43.478   4.397
26018W        W92559   2.911  13.186   2.131
26019W        W92560  26.663   8.695  13.441
26020W        W92561  30.709  16.312  10.199
26021W        W92562  17.751  11.705  10.778
26022W        W92563   0.984   9.320  13.947
26023W        W92564  17.153  29.453  10.631
26024W        W92565  10.896  20.538  14.970
26025W        W92566  23.145  10.480   4.695
26026W        W92567  42.859   5.420   4.396
26027W        W92568   0.734   3.946  10.187
26028W        W92569  31.146  25.633   4.116
26029W        W92570  21.091  29.950   0.826
26030W        W92571  34.950  24.206   3.072
26031W        W92572   1.922  37.888  10.591
26032W        W92573  39.207  32.310   3.136
26033W        W92574  16.553  22.242  10.726
26034W        W92575   1.711  36.883  13.999
26035W        W92576  29.722  31.433  12.866
26036W        W92577  22.346  23.698  13.682
26037W        W92578  19.098   9.494   3.234
26038W        W92579   6.269  35.488   4.339
26039W        W92580   4.551  30.738   1.311
26040W        W92581  11.353  44.282  11.494
26041W        W92582  21.650  39.260  10.624
26042W        W92583  24.573  25.058  11.527
26043W        W92584   2.660  23.465  13.921
26044W        W92585  25.178  22.021  10.622
26045W        W92586   8.578   8.967  12.369
26046W        W92587  28.693  29.262  13.992
26047W        W92588   9.675  26.457   2.916
26048W        W92589  14.969   6.883  13.505
26049W        W92590   7.846  25.228  13.828
26050W        W92591  14.899   2.015  12.453
26051W        W92592  24.612   8.208   1.946
26052W        W92593   0.983  26.963   4.303
26053W        W92594  28.191  41.720  12.164
26054W        W92595  24.623  22.757  13.445
26055W        W92596   7.840  19.502  14.086
26056W        W92597   1.191  15.845   0.257
26057W        W92598  13.262  27.112  11.579
26058W        W92599   5.233  19.337  10.820
26059W        W92600   2.417  33.671  11.919
26060W        W92601  29.535  18.086  13.995
26061W        W92602   0.340   1.595   1.481
26062W        W92603  41.614  41.280  13.369
26063W        W92604  19.611   0.449   4.637
26064W        W92605  10.395  28.650  12.603
26065W        W92606  19.778   3.703   5.019
26066W        W92607  33.325  18.178   3.518
26067W        W92608  44.209   4.650   1.355
26068W        W92609   0.355  34.551  13.026
26069W        W92610  40.131  18.286  13.556
26070W        W92611   0.580  27.289   4.172
26071W        W92612  34.860  20.659   2.308
26072W        W92613  10.794  16.157  12.927
26073W        W92614  23.342  37.103   0.904
26074W        W92615  29.598  10.583   4.154
26075W        W92616   8.867  18.608   4.055
26076W        W92617  19.666  38.542   1.822
26077W        W92618   3.447  15.401   0.219
26078W        W92619  27.227   0.828   4.640
26079W        W92620  18.875  11.839  12.268
26080W        W92621  36.078  44.157  13.746
26081W        W92622  32.625  31.095   3.623
26082W        W92623  28.777  23.623  14.398
26083W        W92624   8.446  11.785  13.385
26084W        W92625  30.164   6.178   4.116
26085W        W92626  36.893  36.926  10.435
26086W        W92627  39.824  19.751  11.582
26087W        W92628  25.466  35.087  11.049
26088W        W92629  15.597  34.641   1.828
26089W        W92630  36.186   6.786   2.300
26090W        W92631   4.397  26.784   4.634
26091W        W92632  11.220  21.550   1.430
26092W        W92633  23.647  37.426   3.528
26093W        W92634  19.058  40.052  11.561
26094W        W92635  24.650  18.597   1.623
26095W        W92636  33.906  13.575   4.602
26096W        W92637  42.839   5.396   2.250
26097W        W92638  31.970  14.641  14.938
26098W        W92639   5.491  15.659  11.589
26099W        W92640  23.123  26.932   4.991
26100W        W92641  33.526  40.943   2.418
26101W        W92642  16.666  35.078  10.943
26102W        W92643  44.619   7.797   1.322
26103W        W92644   9.469  29.459  12.126
26104W        W92645  27.534  25.394   0.805
26105W        W92646  32.481  21.735   0.871
26106W        W92647  26.557   0.850   0.510
26107W        W92648  34.891  13.826   3.104
26108W        W92649   4.749  33.120   0.019
26109W        W92650  15.509   7.674   1.492
26110W        W92651  11.468  20.425   0.711
26111W        W92652   3.836  11.491   0.198
26112W        W92653  13.358  24.564   1.758
26113W        W92654  24.905   3.771  13.008
26114W        W92655  12.578  14.136   4.183
26115W        W92656  22.166  41.354   2.265
26116W        W92657  18.019  34.987  13.929
26117W        W92658  35.758   6.184  12.117
26118W        W92659  44.929  37.838  11.206
26119W        W92660   7.598   3.393   2.167
26120W        W92661  31.542  28.880  10.640
26121W        W92662   6.179  22.609   3.783
26122W        W92663  35.548  43.951  12.562
26123W        W92664  15.218  10.845  10.647
26124W        W92665  10.166   7.799   1.408
26125W        W92666   2.321  16.508   0.596
26126W        W92667  22.990  27.535   4.158
26127W        W92668  20.510  22.120  11.021
26128W        W92669  10.752  35.931   4.091
26129W        W92670  43.430  37.326   0.654
26130W        W92671  28.903  19.966  10.482
26131W        W92672   1.796  30.788   2.201
26132W        W92673  32.845   5.377  14.151
26133W        W92674   3.558   3.048   2.847
26134W        W92675  36.294   9.857   0.601
26135W        W92676  16.761  25.238  14.960
26136W        W92677  13.574  20.559  12.102
26137W        W92678   0.380  25.677   1.263
26138W        W92679  25.100  38.259  13.009
26139W        W92680  24.502  23.016  13.872
26140W        W92681  11.136  14.167   1.866
26141W        W92682  16.081  13.154  11.136
26142W        W92683   4.122  35.521  11.142
26143W        W92684   5.549  21.987   4.180
26144W        W92685   3.800  39.832   2.232
26145W        W92686   3.479  28.171   0.911
26146W        W92687  17.149   3.359   3.998
26147W        W92688  24.984  44.765   4.421
26148W        W92689  33.384  23.530   4.751
26149W        W92690  25.716  28.033  13.981
26150W        W92691  10.590  17.878   0.973
26151W        W92692  36.589  42.793   1.902
26152W        W92693   8.286  42.262  13.141
26153W        W92694  31.443  23.707  14.988
26154W        W92695  26.960  10.157   1.391
26155W        W92696  23.591  24.153   3.147
26156W        W92697   0.070  28.575   4.782
26157W        W92698  24.490  21.744   1.356
26158W        W92699  18.142  19.522  12.992
26159W        W92700  31.919  20.267  10.728
26160W        W92701  19.193  15.614   5.424
26161W        W92702   8.127  33.973  11.035
26162W        W92703  23.467  13.731  11.964
26163W        W92704  13.110  37.959   0.315
26164W        W92705  32.585  27.587   2.936
26165W        W92706  11.399  35.384  13.885
26166W        W92707  23.072  44.006  11.631
26167W        W92708  30.665  22.778  14.403
26168W        W92709   1.703  28.563  13.320
26169W        W92710  29.430  31.208  11.584
26170W        W92711  43.680  19.041   3.335
26171W        W92712  28.967   1.693  12.464
26172W        W92713  31.601  15.776   2.801
26173W        W92714  34.852  23.772  13.859
26174W        W92715  34.191  15.009   1.765
26175W        W92716  43.276  36.029  11.990
26176W        W92717  31.928  14.618  11.525
26177W        W92718  27.969  16.482   1.990
26178W        W92719  42.977  16.859   1.994
26179W        W92720  30.927  34.707   3.381
26180W        W92721  40.359  21.292   2.323
26181W        W92722  27.182  30.741   3.612
26182W        W92723   8.223  19.594   1.356
26183W        W92724  32.474   1.857   1.513
26184W        W92725  16.428   2.315   0.971
26185W        W92726   3.772  24.938  14.328
26186W        W92727  28.086  40.784   0.697
26187W        W92728   6.345  23.549  12.489
26188W        W92729   0.024  12.676   3.958
26189W        W92730  19.665  13.246   5.094
26190W        W92731  24.081  19.494   1.392
26191W        W92732   4.433  30.664  11.354
26192W        W92733  22.199   3.400   3.262
26193W        W92734  32.036  27.292   0.860
26194W        W92735  38.101  18.116   0.801
26195W        W92736  16.041   1.357   1.206
26196W        W92737  20.229   7.795   3.098
26197W        W92738  30.427   0.214  11.938
26198W        W92739   4.868  19.660   3.641
26199W        W92740  29.539  13.203   2.923
26200W        W92741  16.156  26.824   2.822
26201W        W92742  21.723  36.868  11.853
26202W        W92743  23.662   1.891  10.883
26203W        W92744   6.305  21.976  13.855
26204W        W92745  44.864  11.131  11.118
26205W        W92746   2.497   1.890   2.627
26206W        W92747  17.705  35.063  11.610
26207W        W92748  24.240  36.367   2.714
26208W        W92749  37.938  37.945  13.345
26209W        W92750  12.123  27.149   1.963
26210W        W92751   3.368  12.701  10.598
26211W        W92752  44.965  39.047   1.696
26212W        W92753  13.729  38.633   3.270
26213W        W92754  14.597  18.329   2.188
26214W        W92755  34.405  12.216  10.795
26215W        W92756  40.765   8.331   1.863
26216W        W92757   7.939   9.776  14.144
26217W        W92758  24.924  14.654   2.258
26218W        W92759  44.419  44.880   0.401
26219W        W92760  28.072  25.894   3.003
26220W        W92761  42.475   3.014  12.175
26221W        W92762  23.235  42.895   1.912
26222W        W92763  24.478  21.287   2.676
26223W        W92764  43.439   7.636   1.627
26224W        W92765  40.007   6.974   4.528
26225W        W92766  15.106  36.687  14.777
26226W        W92767  33.932  31.694  10.565
26227W        W92768  37.100  43.289   3.765
26228W        W92769  27.449  29.888   0.854
26229W        W92770   7.315  11.772   1.474
26230W        W92771  41.027   6.415  13.705
26231W        W92772  11.316  44.333  10.638
26232W        W92773  13.218  19.594   2.693
26233W        W92774   0.319  25.963  12.555
26234W        W92775  41.375  32.055   3.231
26235W        W92776  26.554  25.080  13.347
26236W        W92777  36.140   6.321  13.367
26237W        W92778  42.926   2.783  12.034
26238W        W92779  25.792  29.552  11.079
26239W        W92780  38.224  26.485  14.471
26240W        W92781  28.972  13.118   0.431
26241W        W92782  21.630  36.678  10.607
26242W        W92783  28.631   6.674  11.222
26243W        W92784  11.716  31.631  13.551
26244W        W92785  35.050  33.635  14.482
26245W        W92786  39.480   4.941  10.473
26246W        W92787   7.267  21.983   1.479
26247W        W92788   9.395  38.068  10.169
26248W        W92789  19.770   7.256   3.722
26249W        W92790  40.548   8.025  12.112
26250W        W92791  16.194  21.426  14.504
26251W        W92792  25.072  37.842   1.897
26252W        W92793  31.507  36.243   0.549
26253W        W92794  11.758  19.487   3.774
26254W        W92795  38.898   2.212   4.284
26255W        W92796  18.875  25.294  10.148
26256W        W92797  12.060   4.151   0.228
26257W        W92798  30.961  37.898  14.939
26258W        W92799  17.224  28.676   3.269
26259W        W92800  40.489  22.522  12.419
26260W        W92801  12.097  21.018   9.962
26261W        W92802  38.055  18.585  14.378
26262W        W92803  19.014  12.076   4.115
26263W        W92804  24.100  15.962   2.363
26264W        W92805  21.290  10.538   0.313
26265W        W92806  28.984   8.616   2.951
26266W        W92807   6.383  41.890   5.009
26267W        W92808  24.784  35.476  11.321
26268W        W92809   1.316  24.746   5.055
26269W        W92810  20.179  16.743  14.808
26270W        W92811  37.352  24.159   1.375
26271W        W92812   1.686  36.907   1.492
26272W        W92813  13.212  22.145   3.760
26273W        W92814   6.890   9.267  11.673
26274W        W92815   9.363   4.155  12.084
26275W        W92816  27.558  19.839  14.949
26276W        W92817   7.607  33.525  12.527
26277W        W92818   6.547  10.680  12.606
26278W        W92819  21.732   2.269   1.736
26279W        W92820  35.402  16.315  10.531
26280W        W92821  18.390  21.775   4.905
26281W        W92822   5.212  28.959   5.009
26282W        W92823   5.779   0.684  13.423
26283W        W92824  20.308  27.051  14.695
26284W        W92825  41.279   4.857  10.917
26285W        W92826  40.746  30.415  11.639
26286W        W92827  34.951  10.561   0.246
26287W        W92828   2.000   9.917  11.090
26288W        W92829  23.682  42.967   3.847
26289W        W92830  33.639   2.768  14.376
26290W        W92831  36.528  20.457   3.149
26291W        W92832  18.309  38.448  13.522
26292W        W92833  34.110   4.835   2.698
26293W        W92834  27.020   8.649   4.288
26294W        W92835  39.285  35.019  14.318
26295W        W92836   2.232  25.132   3.405
26296W        W92837  12.756  28.331  11.335
26297W        W92838  19.560  37.550  12.006
26298W        W92839  29.522  29.662   1.274
26299W        W92840   7.191  44.520  12.197
26300W        W92841   8.881  39.374   1.635
26301W        W92842  35.017   7.466   0.007
26302W        W92843   6.687  26.415   0.240
26303W        W92844  43.768  17.698  13.021
26304W        W92845  10.077  15.538   0.407
26305W        W92846  25.365  19.207  12.758
26306W        W92847  13.683   2.132   2.132
26307W        W92848   0.008  31.122  12.450
26308W        W92849  14.873  33.147   2.771
26309W        W92850  41.412  39.032   0.413
26310W        W92851  20.463  13.824   3.995
26311W        W92852  29.296  10.873  11.130
26312W        W92853  41.091  16.214   4.114
26313W        W92854  23.547   4.051   4.326
26314W        W92855  22.102  42.485   3.125
26315W        W92856  34.949   2.866  13.912
26316W        W92857  26.209   2.943   4.433
26317W        W92858  32.651  28.957   1.708
26318W        W92859  32.332  42.448  12.344
26319W        W92860  20.166  17.102   9.807
26320W        W92861  37.355  20.688  12.055
26321W        W92862   7.685  34.124   1.915
26322W        W92863  38.045  19.306   4.037
26323W        W92864  21.600   0.233  12.852
26324W        W92865   1.964   8.249   4.496
26325W        W92866  14.364   5.159  11.013
26326W        W92867  28.678  14.273   4.540
26327W        W92868  35.962  10.580   0.335
26328W        W92869  24.015   8.518  11.737
26329W        W92870  36.546   5.674   0.951
26330W        W92871   4.884   1.051  14.342
26331W        W92872  14.747  40.294   1.807
26332W        W92873  11.713  42.122   4.463
26333W        W92874  36.884  25.467   3.668
26334W        W92875   2.854   7.904   4.728
26335W        W92876  13.995  16.813  12.899
26336W        W92877  14.231  19.626  13.776
26337W        W92878   2.025  17.522  13.779
26338W        W92879  43.230   3.890   3.319
26339W        W92880  42.890   1.320   3.194
26340W        W92881  35.436  14.302  12.468
26341W        W92882  11.007  27.452  11.662
26342W        W92883  15.122  18.270  11.502
26343W        W92884   0.998  31.338   1.309
26344W        W92885  13.323  17.651   3.138
26345W        W92886  18.350  31.988   3.253
26346W        W92887  18.285  24.753  10.976
26347W        W92888  31.349  23.804  11.630
26348W        W92889  35.136  12.872   4.099
26349W        W92890  28.616  25.415  12.424
26350W        W92891  10.156   1.403   0.883
26351W        W92892  27.283  34.543  11.223
26352W        W92893  24.967  20.549   2.775
26353W        W92894  16.091   0.303  13.803
26354W        W92895   4.212  17.842  11.969
26355W        W92896  32.336  35.915   2.587
26356W        W92897   5.732  12.560   0.827
26357W        W92898   7.297   8.291  14.084
26358W        W92899   4.192   3.801   1.734
26359W        W92900   5.891  38.917  11.287
26360W        W92901  18.588  30.172  12.543
26361W        W92902  44.467  36.081   2.927
26362W        W92903  35.768   7.200   3.522
26363W        W92904  14.343   8.804  14.738
26364W        W92905  29.866  26.193   2.097
26365W        W92906  35.420  15.354  11.437
26366W        W92907  27.440  18.549   3.086
26367W        W92908   9.646  33.809   3.681
26368W        W92909  20.820  32.520   3.938
26369W        W92910  38.173  11.915  11.113
26370W        W92911  20.782  18.250   0.350
26371W        W92912  30.531  14.917   4.490
26372W        W92913  11.325  14.726  13.045
26373W        W92914  24.153  44.216   0.462
26374W        W92915  19.541   5.439  13.443
26375W        W92916  24.898  24.893  12.081
26376W        W92917   1.852  25.154  12.479
26377W        W92918   6.264  23.872  11.222
26378W        W92919  32.072  19.943   3.404
26379W        W92920  42.259  30.483  12.438
26380W        W92921  12.290  16.047   1.660
26381W        W92922   2.659   1.047   4.325
26382W        W92923  18.823   8.936  14.517
26383W        W92924  31.965  27.331   4.118
26384W        W92925   2.946  33.049  11.478
26385W        W92926  44.956  39.756  11.578
26386W        W92927   0.376   6.400   1.357
26387W        W92928   3.776  40.940  10.920
26388W        W92929  30.511  11.661  10.713
26389W        W92930   5.266   1.618   2.357
26390W        W92931   8.715   0.157  14.816
26391W        W92932  16.387  38.548   2.270
26392W        W92933  15.084  12.719  11.172
26393W        W92934  16.051   8.998  13.015
26394W        W92935  18.158  29.577   2.025
26395W        W92936  18.391  12.941  10.970
26396W        W92937  16.776  33.565   2.429
26397W        W92938  10.786  32.582  10.673
26398W        W92939  34.292  23.659   0.786
26399W        W92940  28.222  22.567  14.959
26400W        W92941  23.520  11.526   4.555
26401W        W92942  32.442  27.262  13.771
26402W        W92943  23.238  43.416  12.101
26403W        W92944  36.904  21.660  14.990
26404W        W92945  17.730  16.705  11.398
26405W        W92946  22.093  16.344   2.433
26406W        W92947  22.403  11.860   4.081
26407W        W92948  43.056  26.878  13.577
26408W        W92949  41.351  42.216  11.976
26409W        W92950   0.818  30.056   1.777
26410W        W92951  11.382  43.310   2.171
26411W        W92952  15.020  10.096   4.532
26412W        W92953  21.445  33.083   4.576
26413W        W92954  16.075  14.823   0.336
26414W        W92955  17.773  27.516  13.461
26415W        W92956   1.874  38.890  10.504
26416W        W92957  35.519  36.410  14.755
26417W        W92958  36.236  30.271   2.219
26418W        W92959   1.338  44.488   4.067
26419W        W92960  44.259  33.301   0.861
26420W        W92961  31.834  16.114   4.560
26421W        W92962   2.833  40.828  14.074
26422W        W92963  19.733   5.921   1.347
26423W        W92964   3.368  32.241  12.931
26424W        W92965  39.339  22.253   0.219
26425W        W92966   5.406  27.637   1.683
26426W        W92967  22.273   1.203   1.375
26427W        W92968  36.322  16.545   1.757
26428W        W92969  20.027  44.008  12.739
26429W        W92970  18.131  40.295  11.918
26430W        W92971  26.536  44.733   3.217
26431W        W92972   9.827  25.181   2.314
26432W        W92973   0.945  44.323   0.916
26433W        W92974  20.625  32.461  10.811
26434W        W92975  42.202  31.987  10.347
26435W        W92976   0.860  27.751  10.480
26436W        W92977  40.727  43.965   2.429
26437W        W92978  44.535  34.087   2.695
26438W        W92979  22.281  33.341   3.941
26439W        W92980  33.703   1.313   2.237
26440W        W92981  31.842  33.099   0.806
26441W        W92982  12.613  15.001   4.319
26442W        W92983  15.411  12.942   1.886
26443W        W92984  32.035  18.960  14.034
26444W        W92985  37.458  23.447  14.230
26445W        W92986  34.861   1.984   0.375
26446W        W92987  24.542  28.966  13.781
26447W        W92988  14.444  25.685   4.077
26448W        W92989  16.140   0.463   1.683
26449W        W92990  34.406   6.979   1.723
26450W        W92991  41.768  16.456  14.526
26451W        W92992  33.581   7.254  10.643
26452W        W92993   5.302  20.834  10.664
26453W        W92994  18.639   4.199  13.929
26454W        W92995  39.978  33.716  14.361
26455W        W92996   1.007  39.174   0.120
26456W        W92997  38.345  39.939  11.201
26457W        W92998  38.348  39.293  12.363
26458W        W92999  33.861  41.640  12.334
26459W        W93000  35.578  25.665   0.296
26460W        W93001  35.500   9.353  14.448
26461W        W93002   6.328   5.350   5.202
26462W        W93003  13.085   2.009   0.031
26463W        W93004  40.905  27.596   1.795
26464W        W93005  25.127   0.240  14.381
26465W        W93006   0.762   0.783   0.850
26466W        W93007  39.135  41.682  14.809
26467W        W93008  38.745   6.395  11.139
26468W        W93009   2.319  11.587  10.601
26469W        W93010   7.196  29.080  12.943
26470W        W93011  17.751   7.068   1.710
26471W        W93012  24.853  23.520  13.388
26472W        W93013   4.878  37.602  13.805
26473W        W93014  10.752  21.975  11.010
26474W        W93015   6.705  40.195  10.793
26475W        W93016  38.535  38.365   2.103
26476W        W93017  15.561   8.281  13.429
26477W        W93018  13.053   4.803   0.476
26478W        W93019  39.993  27.062  13.423
26479W        W93020   9.473  14.069  13.964
26480W        W93021   3.092   5.901   3.758
26481W        W93022  14.051   0.328   3.689
26482W        W93023  33.502  39.778  10.662
26483W        W93024  43.934  22.563  13.423
26484W        W93025   1.938  20.900   1.996
26485W        W93026  27.470   6.385   1.797
26486W        W93027  42.167  20.993   1.309
26487W        W93028  22.637  44.014   1.942
26488W        W93029  17.410  40.761   1.577
26489W        W93030  24.030  40.773   3.650
26490W        W93031  16.186  24.843   4.238
26491W        W93032  27.437  22.913   4.176
26492W        W93033  14.543   2.384   3.129
26493W        W93034   8.592  42.498  14.745
26494W        W93035  40.935   0.917   1.685
26495W        W93036  35.944  39.652   4.204
26496W        W93037   7.877  44.360  10.778
26497W        W93038  21.295  36.199  13.928
26498W        W93039  25.652  28.681   0.434
26499W        W93040  29.755  44.241   2.590
26500W        W93041  44.412  31.441  11.255
26501W        W93042  31.479   4.407   0.513
26502W        W93043  29.177  18.488   1.873
26503W        W93044  41.357  42.465  14.915
26504W        W93045  37.166  15.773   4.073
26505W        W93046  25.099  39.759   0.767
26506W        W93047   2.955  32.450  13.643
26507W        W93048  12.092  44.843  10.635
26508W        W93049  26.383  31.052   1.803
26509W        W93050   7.902  41.143  11.277
26510W        W93051  22.571  30.702  14.810
26511W        W93052  17.128  23.154   0.200
26512W        W93053   0.289   1.439  13.099
26513W        W93054  24.724   0.286   0.323
26514W        W93055  38.310   4.876   4.737
26515W        W93056  42.003  38.119  11.138
26516W        W93057  14.845  12.290  11.913
26517W        W93058  33.996  14.862   0.836
26518W        W93059  21.044  23.115   4.634
26519W        W93060   5.007  37.693   2.782
26520W        W93061  44.900  27.656   0.988
26521W        W93062   1.496  41.548  12.505
26522W        W93063  29.219  18.189  14.655
26523W        W93064  40.018   4.282   3.718
26524W        W93065  15.569  36.927  14.824
26525W        W93066  43.747  21.656  10.601
26526W        W93067  38.147   5.690  12.773
26527W        W93068   1.887  12.177  11.528
26528W        W93069  11.010  36.572   3.150
26529W        W93070   5.899  35.446  13.886
26530W        W93071  20.241  34.055  14.426
26531W        W93072  42.567  17.660   2.345
26532W        W93073  23.768  21.759   0.581
26533W        W93074  38.309  34.815  14.470
26534W        W93075  44.021  12.760   5.135
26535W        W93076  23.092  12.751  13.351
26536W        W93077  33.566   8.176  11.150
26537W        W93078  36.685  26.541   3.058
26538W        W93079  34.040  26.650  12.461
26539W        W93080  17.388  40.979  14.822
26540W        W93081  25.677  19.194  13.694
26541W        W93082   7.266   2.031  12.230
26542W        W93083  20.000  44.942  13.381
26543W        W93084  16.837  32.150   0.917
26544W        W93085  20.657   0.483   4.727
26545W        W93086  41.079  38.483   1.652
26546W        W93087  23.551  36.322   2.219
26547W        W93088  27.787  10.801   1.471
26548W        W93089  39.853  39.310   0.712
26549W        W93090   4.921  10.037   0.501
26550W        W93091  43.500  33.195  10.334
26551W        W93092  33.453  21.682   1.405
26552W        W93093  15.997  42.500   4.763
26553W        W93094  24.214  23.544   0.365
26554W        W93095   8.259  43.859   2.629
26555W        W93096   3.520   1.177   5.405
26556W        W93097  40.651  29.247  14.858
26557W        W93098   9.885  25.702  13.784
26558W        W93099  39.069  42.003  12.100
26559W        W93100  26.753  26.732   3.750
26560W        W93101  13.580  30.073   1.833
26561W        W93102  16.030  22.184  10.704
26562W        W93103  11.306  42.425  11.432
26563W        W93104  19.627  32.669   2.422
26564W        W93105  22.129  22.762   4.066
26565W        W93106  32.403  35.975  12.815
26566W        W93107  44.292  31.358  11.774
26567W        W93108  29.065   9.763  11.573
26568W        W93109   9.349  44.480   2.417
26569W        W93110   8.859  37.114   3.835
26570W        W93111   1.635  22.158   1.357
26571W        W93112  38.865  22.065  14.312
26572W        W93113   3.289  42.823  12.764
26573W        W93114  32.821   4.485  14.304
26574W        W93115  29.506  42.003  12.632
26575W        W93116  30.602  35.303   1.380
26576W        W93117  19.402  42.717  11.650
26577W        W93118  34.094  21.539  11.744
26578W        W93119  15.687  12.150  13.099
26579W        W93120  30.766  13.581   0.335
26580W        W93121  20.175   0.034  12.880
26581W        W93122  24.484  42.970  11.285
26582W        W93123  40.399   8.323  10.766
26583W        W93124   6.325   3.014  12.355
26584W        W93125  34.696  12.673  10.813
26585W        W93126   8.288  37.716  10.280
26586W        W93127  44.363  14.961  12.440
26587W        W93128  19.434  38.456  14.976
26588W        W93129   5.483  32.132   3.290
26589W        W93130  21.170  35.346  14.319
26590W        W93131  10.811   9.955   1.445
26591W        W93132  13.027  36.416   3.193
26592W        W93133  38.179   3.551   3.384
26593W        W93134   0.475   0.652  14.792
26594W        W93135  27.485   0.890  13.835
26595W        W93136  12.454  29.939   0.063
26596W        W93137  16.690   5.438   4.162
26597W        W93138  17.829  37.072   2.642
26598W        W93139  17.073  39.409  12.479
26599W        W93140  31.811   4.383   3.350
26600W        W93141  44.477  27.201   1.572
26601W        W93142  32.364  13.826  12.103
26602W        W93143  36.826  32.353  11.112
26603W        W93144  25.830  34.001   3.547
26604W        W93145  41.797   8.737   3.875
26605W        W93146  13.257   5.396  14.640
26606W        W93147  29.410  12.893  12.456
26607W        W93148  30.536  39.058   0.763
26608W        W93149   0.436   0.070   2.242
26609W        W93150  25.448   3.757   0.248
26610W        W93151  44.036  20.467  10.696
26611W        W93152  44.263  23.861  13.403
26612W        W93153   5.818  28.412   3.207
26613W        W93154   2.355  27.692  14.361
26614W        W93155   3.841  10.136  13.649
26615W        W93156  42.216  41.492  12.559
26616W        W93157  20.714  11.898  12.080
26617W        W93158  15.361  36.490   1.825
26618W        W93159   2.406   6.202  13.931
26619W        W93160  26.710  22.997  11.638
26620W        W93161  34.435  29.082   3.101
26621W        W93162  33.383   4.916   4.753
26622W        W93163   6.425  17.669   3.250
26623W        W93164  36.920  20.909   1.793
26624W        W93165  32.910  21.095   1.895
26625W        W93166   3.926  36.131  11.496
26626W        W93167   2.730  36.024  11.107
26627W        W93168  33.005   6.424  10.810
26628W        W93169  20.704  25.934   0.442
26629W        W93170  36.970  26.480  12.399
26630W        W93171  28.247   6.178  13.359
26631W        W93172  27.763   6.465   4.184
26632W        W93173  33.208  32.038   0.763
26633W        W93174  31.498  44.604   2.056
26634W        W93175  36.440  22.175  12.605
26635W        W93176  29.725   5.551   4.535
26636W        W93177  34.938  35.094   2.765
26637W        W93178  36.041  30.499   1.364
26638W        W93179  33.586  15.143  12.797
26639W        W93180  12.393  39.780   2.745
26640W        W93181   0.423  35.896  12.980
26641W        W93182  30.890  38.338   0.215
26642W        W93183  19.118  38.277   2.808
26643W        W93184   7.446  33.939   3.638
26644W        W93185  37.258   3.480  14.870
26645W        W93186  15.282  35.084  10.701
26646W        W93187  28.162  42.947  11.495
26647W        W93188  16.609   6.772   3.715
26648W        W93189  41.792  23.623   4.174
26649W        W93190  20.486  29.982   3.360
26650W        W93191  18.786  32.370   2.747
26651W        W93192   2.278   3.796  14.769
26652W        W93193   5.058   6.611  13.923
26653W        W93194  42.924  33.954   4.319
26654W        W93195  41.162   3.472   2.588
26655W        W93196  18.313   9.789  14.740
26656W        W93197  20.858   4.855   4.977
26657W        W93198  44.554   6.958   1.464
26658W        W93199  23.849   6.005   1.867
26659W        W93200  32.069  43.454   0.040
26660W        W93201  18.998  20.815  10.729
26661W        W93202   7.839  36.387  10.791
26662W        W93203  26.715   0.261  10.584
26663W        W93204   7.762  28.225   0.128
26664W        W93205  35.451  24.449   2.302
26665W        W93206   3.788  31.946   2.146
26666W        W93207   3.107  21.723   1.299
26667W        W93208  34.646   2.770   1.425
26668W        W93209  38.300  17.476   2.546
26669W        W93210  17.552  35.149  11.147
26670W        W93211   2.516  35.345  12.619
26671W        W93212  20.677  21.539  14.044
26672W        W93213  33.412  43.566   3.155
26673W        W93214  19.117  19.580  12.721
26674W        W93215   3.280  26.512   3.046
26675W        W93216  39.824  12.854   0.716
26676W        W93217  30.157   9.854  12.175
26677W        W93218  21.769  19.998  13.891
26678W        W93219  38.806  44.034  10.057
26679W        W93220  11.798   9.840   0.993
26680W        W93221  19.779  20.578   0.430
26681W        W93222  25.874  35.117  13.489
26682W        W93223  44.916  36.591  14.808
26683W        W93224  12.250  20.009   2.839
26684W        W93225  37.557  27.633   3.688
26685W        W93226  41.828  27.939  13.217
26686W        W93227  20.401  27.909   4.116
26687W        W93228  34.335  38.575  11.136
26688W        W93229  35.049  41.589   2.670
26689W        W93230  41.002   4.255  13.254
26690W        W93231   9.058  27.186   0.395
26691W        W93232   3.809  39.916  14.007
26692W        W93233  14.601  24.682   3.267
26693W        W93234  30.009  25.587  14.587
26694W        W93235  16.994  28.006  13.436
26695W        W93236  38.407   8.211  13.738
26696W        W93237  24.293  13.144   3.409
26697W        W93238  12.260  37.742  14.901
26698W        W93239   4.790  35.543  12.988
26699W        W93240  16.789  36.862  11.925
26700W        W93241  15.517  20.317   1.250
26701W        W93242  37.386  18.594   0.213
26702W        W93243  40.391  18.643   0.822
26703W        W93244  11.580  42.226   1.359
26704W        W93245  28.923  43.443  14.727
26705W        W93246  14.528   2.419  13.733
26706W        W93247   0.739  14.414  13.543
26707W        W93248  16.195  10.407  11.472
26708W        W93249  17.677  40.682   0.320
26709W        W93250   5.665  34.652  14.691
26710W        W93251  41.320  41.843   1.032
26711W        W93252  42.576  35.160   3.679
26712W        W93253  38.966   1.922   3.546
26713W        W93254   8.877  14.145  10.623
26714W        W93255  27.990  20.186   4.916
26715W        W93256  37.599  22.572  11.142
26716W        W93257  14.078  24.723  14.949
26717W        W93258  29.842  33.976   4.305
26718W        W93259  31.476   2.986   3.752
26719W        W93260  43.533  16.804   0.898
26720W        W93261  20.310  35.983  11.628
26721W        W93262  22.980  36.412   3.238
26722W        W93263   0.085  42.869  14.744
26723W        W93264   8.364   8.001  11.454
26724W        W93265  20.558  20.784   1.334
26725W        W93266  15.064  15.111   0.907
26726W        W93267  29.077  44.766  12.993
26727W        W93268  29.398   4.358  14.766
26728W        W93269  32.285  24.571   0.886
26729W        W93270  13.082  29.240   3.282
26730W        W93271  43.359  29.683  14.695
26731W        W93272   4.312   1.925   3.852
26732W        W93273  26.643  39.571  11.972
26733W        W93274  11.837   7.438   1.772
26734W        W93275  32.347  40.105  14.304
26735W        W93276  37.279  12.656   4.552
26736W        W93277  33.610  28.128  13.432
26737W        W93278  43.809  17.750   1.212
26738W        W93279  29.431  38.565  13.006
26739W        W93280  17.536  27.531  12.993
26740W        W93281  20.908   0.412   4.267
26741W        W93282  11.184  33.528  10.456
26742W        W93283   2.890  10.261   2.326
26743W        W93284  21.861  39.522   0.186
26744W        W93285   0.229  19.298   2.713
26745W        W93286  21.672  34.567  10.698
26746W        W93287  15.831   9.853   0.959
26747W        W93288  13.211  40.354  13.982
26748W        W93289  38.119  38.373  14.246
26749W        W93290  42.231  42.032  11.082
26750W        W93291  22.976  25.099   4.122
26751W        W93292  34.516  29.904  13.064
26752W        W93293  40.431  20.001   1.192
26753W        W93294  44.418  19.229  12.522
26754W        W93295  21.101  22.985  11.050
26755W        W93296   2.832  43.600   1.188
26756W        W93297   1.799  13.753   2.400
26757W        W93298  16.071  38.315   1.899
26758W        W93299  44.022   6.423   1.527
26759W        W93300  21.632  30.041   4.479
26760W        W93301  26.517  12.347  11.660
26761W        W93302   6.701  41.387  12.149
26762W        W93303  14.753  21.751  12.380
26763W        W93304  39.416  15.678   2.661
26764W        W93305  20.783  26.505   4.239
26765W        W93306  17.164   3.746   1.295
26766W        W93307  40.894  43.905   0.638
26767W        W93308  36.908  27.878  10.759
26768W        W93309  36.096   8.826  11.539
26769W        W93310  27.060  10.663   4.497
26770W        W93311  31.953   6.653  12.663
26771W        W93312   5.040  27.172   2.227
26772W        W93313  34.860   1.016  12.054
26773W        W93314   5.383  14.862  10.429
26774W        W93315  24.055  17.513  11.206
26775W        W93316  11.616  24.019  14.516
26776W        W93317  38.798   4.201   1.858
26777W        W93318  35.696  41.476  14.846
26778W        W93319  18.016  41.767  14.836
26779W        W93320  36.937  32.552   4.193
26780W        W93321  30.537  26.534   3.214
26781W        W93322  13.317   4.885  13.331
26782W        W93323   3.441  25.247   2.800
26783W        W93324   3.449   4.251  13.509
26784W        W93325  32.466  18.790   2.712
26785W        W93326  41.163   0.310  14.023
26786W        W93327  24.778   5.366  10.261
26787W        W93328  15.152   3.981   3.813
26788W        W93329  13.298   9.699  14.954
26789W        W93330  34.673  19.251  12.906
26790W        W93331   0.751   2.465   2.815
26791W        W93332  32.987  16.651  14.095
26792W        W93333  30.572  31.925  10.029
26793W        W93334   5.177  25.940  14.276
26794W        W93335  38.461  30.544   2.436
26795W        W93336  19.204  13.622   1.361
26796W        W93337  15.256  26.838  11.153
26797W        W93338  16.231   4.724   2.801
26798W        W93339  22.917  18.827   4.072
26799W        W93340  32.072   2.233  13.061
26800W        W93341  12.114   4.823   0.959
26801W        W93342  43.470  35.417   0.508
26802W        W93343  28.883  42.657   3.153
26803W        W93344   1.106  26.759   2.082
26804W        W93345  25.990  33.325  12.454
26805W        W93346  12.589  42.714   3.383
26806W        W93347  16.662  29.035  13.888
26807W        W93348   6.563  31.990   4.597
26808W        W93349  34.454   4.812  12.857
26809W        W93350  11.061   5.052   1.315
26810W        W93351  11.664  44.803  13.492
26811W        W93352  23.607  38.265  13.102
26812W        W93353  39.543  27.546   2.290
26813W        W93354  19.259  36.616  11.979
26814W        W93355  12.284  31.122  12.007
26815W        W93356  15.008  27.989  14.704
26816W        W93357  36.069  39.048  14.472
26817W        W93358  40.440   8.757   0.129
26818W        W93359  44.332  24.258  11.001
26819W        W93360  30.664  43.314  11.183
26820W        W93361  41.961  10.448  13.445
26821W        W93362  17.628  16.625   3.628
26822W        W93363  11.890  38.916  10.069
26823W        W93364   5.719  23.579   4.505
26824W        W93365   0.404   7.185  11.748
26825W        W93366  32.192  27.578  13.434
26826W        W93367   0.398  44.296  14.482
26827W        W93368   4.799   6.206   4.921
26828W        W93369  42.004  22.097  10.762
26829W        W93370  34.023  32.044  14.265
26830W        W93371  12.204   1.834  13.608
26831W        W93372  37.022  28.192   4.170
26832W        W93373   3.205  44.740   0.007
26833W        W93374  33.878   3.340   2.754
26834W        W93375  14.354  33.571   4.483
26835W        W93376  15.645  13.382   0.741
26836W        W93377  15.700  35.626   0.344
26837W        W93378  12.967  19.238   3.421
26838W        W93379   1.505  14.221   3.875
26839W        W93380  13.395   8.361   2.352
26840W        W93381  37.134  14.602  13.883
26841W        W93382   8.868  33.784  12.823
26842W        W93383  19.686  44.519   4.089
26843W        W93384  24.571  32.001  11.058
26844W        W93385  24.606  19.274   2.222
26845W        W93386  29.902  37.479   4.059
26846W        W93387  29.886  18.996  14.673
26847W        W93388   4.878   9.382  13.031
26848W        W93389  18.533  10.806   3.137
26849W        W93390  37.150  20.730   4.335
26850W        W93391  25.906  19.252  12.923
26851W        W93392  34.430  36.296  10.734
26852W        W93393  42.846  35.465   4.634
26853W        W93394  11.078  26.747   3.069
26854W        W93395  25.980   0.465   4.709
26855W        W93396  24.649  37.991   2.238
26856W        W93397   6.470  20.033   2.675
26857W        W93398  18.368  31.182   5.548
26858W        W93399   2.238  19.634   5.570
26859W        W93400  34.844  41.853   0.735
26860W        W93401   2.617  11.711   1.739
26861W        W93402  39.930  19.986   3.252
26862W        W93403  42.474  43.619   0.492
26863W        W93404   0.724   6.217   4.627
26864W        W93405  26.675  14.049   3.621
26865W        W93406  43.054  17.873  11.775
26866W        W93407   5.249  25.106   3.534
26867W        W93408  27.035  12.764   0.409
26868W        W93409  28.950  38.932   2.611
26869W        W93410  17.079  35.857  13.358
26870W        W93411  22.048   9.813   2.471
26871W        W93412  12.127  16.207   2.700
26872W        W93413  33.521  44.497  14.554
26873W        W93414  11.215  44.023   2.773
26874W        W93415  25.354  36.977   4.515
26875W        W93416  14.667  21.093  10.303
26876W        W93417  35.351  27.047   1.925
26877W        W93418   2.412   8.919   0.349
26878W        W93419  29.243  12.114   4.338
26879W        W93420  29.193  44.259  12.897
26880W        W93421  38.888  31.882   3.134
26881W        W93422   4.982  29.460  14.988
26882W        W93423  12.232  38.420   4.292
26883W        W93424   3.787  22.358   1.457
26884W        W93425  30.982  19.253   2.302
26885W        W93426  16.699  36.354   4.283
26886W        W93427  35.140   6.205   4.222
26887W        W93428   2.812   1.254  10.368
26888W        W93429   6.293  23.592   2.756
26889W        W93430  19.675  20.811  14.515
26890W        W93431  28.609  16.177  11.139
26891W        W93432  35.846  10.901  13.252
26892W        W93433  30.873   0.933   4.523
26893W        W93434  39.090  11.817   4.400
26894W        W93435  28.833   8.911  11.491
26895W        W93436   4.733  13.306   3.147
26896W        W93437  40.009  29.853   0.951
26897W        W93438  36.121  34.507   2.464
26898W        W93439  38.864  24.702   1.938
26899W        W93440  19.490  23.074  12.580
26900W        W93441  18.156  20.469   4.298
26901W        W93442  13.352  43.322   3.399
26902W        W93443  20.249   8.235   3.405
26903W        W93444  39.891  34.851   2.198
26904W        W93445  35.032  27.563  14.530
26905W        W93446  14.501  33.767   1.938
26906W        W93447  16.095  38.666  13.258
26907W        W93448  41.242  22.095  14.775
26908W        W93449  15.961   6.342   4.796
26909W        W93450   4.600  31.184   2.210
26910W        W93451  44.283  18.808   4.849
26911W        W93452  25.998  38.191   2.121
26912W        W93453   6.766   8.889  13.568
26913W        W93454   0.915  36.027   4.648
26914W        W93455  10.431  35.108   0.871
26915W        W93456  28.523  15.007  14.905
26916W        W93457  43.213  23.139  13.428
26917W        W93458   4.761  10.527   0.497
26918W        W93459  24.273  29.178  11.691
26919W        W93460  40.326  41.835   4.203
26920W        W93461  35.864  40.549   3.136
26921W        W93462  36.802   7.020   1.696
26922W        W93463  23.663  16.141   0.577
26923W        W93464  22.461  24.072   4.194
26924W        W93465  23.223   8.734  13.408
26925W        W93466   1.270  22.245   3.880
26926W        W93467  24.945  28.037  14.912
26927W        W93468  29.085  25.306   1.842
26928W        W93469  34.604   1.480   3.240
26929W        W93470  36.946  26.449   0.379
26930W        W93471   4.474  28.442  13.031
26931W        W93472  39.970  31.958   0.723
26932W        W93473  37.209  14.299  12.938
26933W        W93474  32.523   3.900   3.213
26934W        W93475  37.906  24.071  12.097
26935W        W93476  12.107  43.349  12.064
26936W        W93477  15.889   4.955  10.706
26937W        W93478   4.050  41.519   4.585
26938W        W93479  38.550  37.380  13.667
26939W        W93480  31.523  40.728  13.117
26940W        W93481  43.057  15.211  11.415
26941W        W93482   2.207  31.148  11.432
26942W        W93483  15.302   0.958  14.111
26943W        W93484   7.391  38.325   4.013
26944W        W93485  34.827  28.741   4.451
26945W        W93486   6.439  12.096   1.173
26946W        W93487  19.354  18.251  12.985
26947W        W93488  27.714  32.974  14.489
26948W        W93489  35.120  43.978   4.461
26949W        W93490  43.466   5.909   3.813
26950W        W93491  15.163  14.217   1.632
26951W        W93492  32.040  14.692  12.161
26952W        W93493  24.488   8.012  12.746
26953W        W93494   3.775  39.820   0.901
26954W        W93495   9.090  38.112  11.551
26955W        W93496   3.264  18.483  11.739
26956W        W93497  36.488  19.653   2.461
26957W        W93498  10.696  43.373   0.557
26958W        W93499  36.015  15.138  13.324
26959W        W93500   9.347  21.590  11.158
26960W        W93501   4.268  28.531   1.508
26961W        W93502  39.315   3.521   4.186
26962W        W93503  40.504  42.063  12.015
26963W        W93504  10.852  40.681  13.462
26964W        W93505  36.613  14.581  13.857
26965W        W93506  18.921  38.425  14.976
26966W        W93507  28.136  12.179  12.475
26967W        W93508  38.366   0.709   4.812
26968W        W93509  34.375  17.465   4.263
26969W        W93510  21.147   2.223   3.500
26970W        W93511  29.795   5.541   3.601
26971W        W93512  38.508  18.238   1.880
26972W        W93513  21.926  34.981   3.996
26973W        W93514  22.969  35.303  14.670
26974W        W93515  14.589  33.918  13.871
26975W        W93516   2.774  22.652  12.575
26976W        W93517  19.397   7.745  13.783
26977W        W93518   5.327  43.165  11.143
26978W        W93519  12.284   5.397   2.187
26979W        W93520  31.559  32.851  12.571
26980W        W93521  12.227  17.849  13.455
26981W        W93522   3.456   7.049   0.094
26982W        W93523  32.532  32.478  14.285
26983W        W93524  41.793   3.739  13.269
26984W        W93525  23.649  31.203  13.400
26985W        W93526  27.793  37.660   0.878
26986W        W93527  15.158  37.140  12.493
26987W        W93528  26.611  23.514   0.983
26988W        W93529  27.899  27.094  12.097
26989W        W93530  30.791  28.414  12.468
26990W        W93531  17.168  19.325  12.943
26991W        W93532  12.890  42.265   3.463
26992W        W93533  32.856  23.411  11.916
26993W        W93534  29.298  13.862   3.378
26994W        W93535  40.822  23.255   0.457
26995W        W93536  17.738  35.928   3.317
26996W        W93537  22.129  43.871   1.888
26997W        W93538  25.337  19.900  10.953
26998W        W93539  19.630  13.972   1.910
26999W        W93540  23.065  26.969  14.064
27000W        W93541  41.237  37.721  11.713
27001W        W93542  24.169   8.840   0.856
27002W        W93543  38.040  33.838   3.540
27003W        W93544  18.605  36.071  14.427
27004W        W93545  32.178  35.181  13.923
27005W        W93546  31.083  13.912   5.188
27006W        W93547   3.277  18.027   2.399
27007W        W93548   2.165  12.036   2.433
27008W        W93549  23.567  24.215   4.114
27009W        W93550  36.123  16.326  12.442
27010W        W93551   3.507  20.650   2.845
27011W        W93552   0.977  18.109   2.413
27012W        W93553  26.184  27.214  11.838
27013W        W93554  27.606  17.760  12.017
27014W        W93555  42.090  40.118   1.145
27015W        W93556  21.222  34.484  10.950
27016W        W93557  29.221  17.710   4.390
27017W        W93558   7.491   5.749   0.111
27018W        W93559  35.150  19.583   0.812
27019W        W93560  44.980  34.986   9.940
27020W        W93561  39.357  33.480  11.657
27021W        W93562  21.221  24.678  12.040
27022W        W93563  20.321  25.876  13.532
27023W        W93564  23.473  25.061  10.471
27024W        W93565  41.018  30.055   4.413
27025W        W93566  28.945  12.169   1.344
27026W        W93567  35.329  30.394  12.570
27027W        W93568  20.327  16.751   4.019
27028W        W93569  42.333  19.141   2.809
27029W        W93570   3.288  25.674   0.964
27030W        W93571   6.236   9.721   2.915
27031W        W93572   8.756  27.445   3.372
27032W        W93573  36.439  18.196  10.683
27033W        W93574   1.508  18.306  11.664
27034W        W93575  29.175  24.240  13.900
27035W        W93576  43.634   6.809  13.941
27036W        W93577  37.554  43.965  12.873
27037W        W93578   5.154  38.574   4.283
27038W        W93579  43.287  37.505   4.649
27039W        W93580  40.298  10.638   3.577
27040W        W93581  27.663  19.771  12.120
27041W        W93582  17.562   7.330  14.437
27042W        W93583  27.558   7.430   4.099
27043W        W93584   9.678  34.014   4.546
27044W        W93585  41.286   0.507  10.531
27045W        W93586  24.217  24.393  11.987
27046W        W93587  31.049  43.195   4.504
27047W        W93588   0.001  25.666  12.984
27048W        W93589  24.205  31.281   2.040
27049W        W93590  39.416  22.996  14.210
27050W        W93591  40.625  14.640  10.841
27051W        W93592  26.633  25.232  13.851
27052W        W93593  17.314  32.998   1.377
27053W        W93594   9.837  27.212  12.023
27054W        W93595  26.789   4.196  14.614
27055W        W93596  37.914   4.821  10.209
27056W        W93597   3.822  17.232   1.399
27057W        W93598  13.068  17.105  12.864
27058W        W93599  33.460  31.544   1.296
27059W        W93600   7.413  35.205   1.865
27060W        W93601  42.891  43.981  14.867
27061W        W93602  16.364  29.172  11.997
27062W        W93603  21.658  41.753   2.775
27063W        W93604  25.171   0.016   3.284
27064W        W93605  17.573  37.774  11.841
27065W        W93606  11.517  43.666   2.541
27066W        W93607  42.962  29.094   4.551
27067W        W93608  36.087  18.111   3.212
27068W        W93609  33.110  19.490  12.510
27069W        W93610   3.988   0.401   4.990
27070W        W93611  35.320  18.458  13.495
27071W        W93612  16.575  24.060  11.242
27072W        W93613  40.651  16.105   0.727
27073W        W93614  30.282  43.082  14.818
27074W        W93615   0.311  38.050  13.369
27075W        W93616  41.135  38.670   0.111
27076W        W93617  18.038  22.116  11.899
27077W        W93618  12.293  22.013   1.720
27078W        W93619  42.398  24.468   1.246
27079W        W93620  37.994  36.389   2.627
27080W        W93621  19.445  16.448   5.461
27081W        W93622  42.771  13.162   0.719
27082W        W93623  21.175  19.534   2.806
27083W        W93624  13.324  44.727   3.259
27084W        W93625   0.625  39.842   2.967
27085W        W93626  33.534  14.299   4.566
27086W        W93627   9.657  22.678   2.618
27087W        W93628   9.435  20.108   0.908
27088W        W93629  27.729   6.241  10.804
27089W        W93630  21.246  25.103  14.461
27090W        W93631  39.955  28.071  13.334
27091W        W93632  40.131  29.070  12.617
27092W        W93633  37.293   4.000  11.229
27093W        W93634   2.954  19.333  14.408
27094W        W93635  28.371   5.177   2.233
27095W        W93636  33.432  42.460   2.229
27096W        W93637  21.164  14.739   1.188
27097W        W93638   5.405  11.199  14.309
27098W        W93639  16.249   8.368   0.110
27099W        W93640   1.184  14.275  12.041
27100W        W93641  42.065  11.917  12.125
27101W        W93642   0.179  18.788  14.072
27102W        W93643  23.094  33.828  13.318
27103W        W93644  15.832  38.498   0.461
27104W        W93645  19.683   2.182   4.117
27105W        W93646   5.535  19.428  11.230
27106W        W93647  42.152  24.956  11.066
27107W        W93648  15.497   4.197  11.072
27108W        W93649  41.788  35.635   4.082
27109W        W93650  43.867  36.666   2.751
27110W        W93651  15.577   6.380   3.294
27111W        W93652  25.073  28.899   1.503
27112W        W93653   9.273  42.453   2.185
27113W        W93654   9.136  14.801   2.731
27114W        W93655  41.894  28.993   4.356
27115W        W93656   7.409  20.267   1.727
27116W        W93657  43.699   5.305  14.502
27117W        W93658  13.602  12.615   4.481
27118W        W93659  19.026   9.129  13.963
27119W        W93660   0.956  21.673  10.945
27120W        W93661  43.724  15.126  12.644
27121W        W93662   2.659  32.141  11.156
27122W        W93663  33.528  10.274  13.607
27123W        W93664  41.812   6.549   4.786
27124W        W93665  33.681  44.916   1.858
27125W        W93666  18.499  26.080  14.328
27126W        W93667  20.233   7.148  13.572
27127W        W93668  42.868   5.258  11.958
27128W        W93669   4.034  28.328   0.016
27129W        W93670  17.781  35.558   4.206
27130W        W93671  42.080  42.253   1.332
27131W        W93672  36.639  11.097  11.516
27132W        W93673  26.645  32.336  10.944
27133W        W93674   6.164  33.513  13.563
27134W        W93675  21.438  29.319   2.696
27135W        W93676  38.591  41.055  10.491
27136W        W93677  28.943  27.377  13.395
27137W        W93678  29.535  29.954   4.626
27138W        W93679  14.669  19.261  11.232
27139W        W93680   1.872  43.748   4.287
27140W        W93681   0.142  41.799   4.009
27141W        W93682  16.138   1.836  11.854
27142W        W93683  33.685  35.772  11.598
27143W        W93684  27.716  15.751  13.361
27144W        W93685   0.535  33.593  11.605
27145W        W93686   3.231  20.467  12.107
27146W        W93687  34.666  28.206   3.253
27147W        W93688  26.676   5.401   4.464
27148W        W93689   1.221  22.730   4.706
27149W        W93690  23.738  32.506   0.300
27150W        W93691  16.217  37.833  14.978
27151W        W93692  24.272  27.142   1.318
27152W        W93693  30.589  33.432   3.228
27153W        W93694  35.983  31.665   4.624
27154W        W93695  29.569  30.204   1.213
27155W        W93696  18.607  30.991   1.824
27156W        W93697   8.173  18.696   2.186
27157W        W93698  30.169  11.579  13.813
27158W        W93699  30.915  34.038   4.217
27159W        W93700  15.169  23.334  13.759
27160W        W93701  14.362  29.574   0.778
27161W        W93702   2.555  24.025  13.416
27162W        W93703  25.038  16.494   1.462
27163W        W93704   0.127  16.358   2.634
27164W        W93705   2.890  36.982  11.398
27165W        W93706  14.781  34.943   2.185
27166W        W93707  43.759  21.145  13.374
27167W        W93708   8.687  31.371  11.740
27168W        W93709   1.861  25.365   0.286
27169W        W93710  18.896  41.164   9.817
27170W        W93711  43.721  44.780   3.754
27171W        W93712  22.678  16.635  10.699
27172W        W93713   0.932   1.027   1.341
27173W        W93714  23.111   3.987  13.927
27174W        W93715  21.445  26.651   3.390
27175W        W93716  42.934  43.442  14.740
27176W        W93717  23.984  19.840  11.536
27177W        W93718  39.658  10.446   3.204
27178W        W93719  28.755  15.560  13.281
27179W        W93720  33.162   5.850  13.454
27180W        W93721  22.685   3.956  12.567
27181W        W93722   7.821  14.161   4.553
27182W        W93723  25.185  21.697  13.799
27183W        W93724  18.713  29.499   3.670
27184W        W93725  18.329   9.020  12.834
27185W        W93726   3.258  30.641  14.432
27186W        W93727   1.750   2.852  12.177
27187W        W93728  33.147   9.035   2.205
27188W        W93729  16.398   3.189   0.516
27189W        W93730  14.599  40.376   2.697
27190W        W93731  31.916  36.081   2.319
27191W        W93732  35.085  37.933   1.748
27192W        W93733  28.955  20.187  12.344
27193W        W93734  35.516  30.970   0.295
27194W        W93735  14.882  34.571   4.716
27195W        W93736  44.763  23.167   1.806
27196W        W93737  44.188  11.277  13.795
27197W        W93738  40.043  41.403   1.434
27198W        W93739   0.241   6.358  12.166
27199W        W93740  17.221  39.241  10.653
27200W        W93741   2.453  23.443   2.102
27201W        W93742  11.851  24.963  12.573
27202W        W93743  35.830  14.688  11.833
27203W        W93744   1.706   1.984   2.167
27204W        W93745  29.336  23.457  12.471
27205W        W93746  27.035  13.082  12.555
27206W        W93747  44.886  35.300  10.372
27207W        W93748  29.914   8.111  13.459
27208W        W93749  10.545  40.052  12.436
27209W        W93750  37.566  23.770   4.266
27210W        W93751   1.943  20.278   3.815
27211W        W93752  36.133   5.138   9.891
27212W        W93753  27.667  16.781   2.327
27213W        W93754   7.297  37.860  13.431
27214W        W93755   2.843   0.752   2.102
27215W        W93756  44.570  14.533   0.517
27216W        W93757   0.851   6.353  11.326
27217W        W93758  32.903  40.078   0.072
27218W        W93759  31.085  11.316   2.660
27219W        W93760  39.359  32.065   3.579
27220W        W93761  40.483  44.843   0.355
27221W        W93762   1.675   2.560   3.666
27222W        W93763  16.169   4.755   0.075
27223W        W93764  12.652  30.372   9.776
27224W        W93765  11.372  25.573   4.207
27225W        W93766   7.358  34.583   1.385
27226W        W93767  22.214   0.738   1.125
27227W        W93768  38.808  34.909   3.508
27228W        W93769  42.169  14.753   2.729
27229W        W93770  10.365  12.598   0.549
27230W        W93771  19.109   6.868  13.599
27231W        W93772  23.754  20.061  14.007
27232W        W93773  24.640  36.001  13.016
27233W        W93774  30.924  35.849   5.222
27234W        W93775  39.847  28.648  12.541
27235W        W93776  39.405  40.932   4.164
27236W        W93777  20.569  16.387  11.627
27237W        W93778   0.435  30.676  11.696
27238W        W93779  39.425  32.958  11.579
27239W        W93780  17.022  39.584  13.847
27240W        W93781  12.403  30.525   3.232
27241W        W93782  32.921  12.046  11.069
27242W        W93783   9.260  19.693   0.658
27243W        W93784  32.070  21.101  11.072
27244W        W93785  36.318  23.553   0.854
27245W        W93786  17.602  16.604   0.309
27246W        W93787  26.968  24.193  12.902
27247W        W93788   0.254  30.488   2.758
27248W        W93789  31.149  31.940  13.470
27249W        W93790  20.661  38.856   3.300
27250W        W93791   0.320   5.371  10.691
27251W        W93792  28.922   4.220   1.342
27252W        W93793  11.136  18.332   3.127
27253W        W93794  30.344   8.908   2.954
27254W        W93795  31.383  26.260   0.924
27255W        W93796  24.004  40.560  13.437
27256W        W93797  20.136  19.360   3.773
27257W        W93798  16.373  18.964  11.174
27258W        W93799   2.425  18.407   4.933
27259W        W93800  41.542   1.553  14.894
27260W        W93801   4.947   7.455  10.609
27261W        W93802  31.891   7.742   3.682
27262W        W93803  30.620  11.816  13.831
27263W        W93804  28.479  13.776   5.293
27264W        W93805  19.238  12.772  14.310
27265W        W93806  10.252  41.717  11.104
27266W        W93807  39.946  12.317  11.604
27267W        W93808  24.719  16.056  12.382
27268W        W93809  23.625  13.314  12.304
27269W        W93810  42.815  22.746  10.447
27270W        W93811  24.167   1.876  11.165
27271W        W93812  32.058  19.716   4.453
27272W        W93813  34.006  10.422   0.351
27273W        W93814  42.555  13.174  13.518
27274W        W93815  12.634   1.454   4.200
27275W        W93816   9.352  22.694  13.492
27276W        W93817   8.420   2.462   0.492
27277W        W93818  31.053  22.589  13.083
27278W        W93819  13.813  12.819  12.930
27279W        W93820  40.276  30.632  11.702
27280W        W93821  36.491  24.191  12.476
27281W        W93822  20.373  39.187  10.319
27282W        W93823  12.030  33.667   0.957
27283W        W93824  39.839   4.722   2.469
27284W        W93825  16.557  16.607   1.883
27285W        W93826  30.384   4.261  14.913
27286W        W93827  37.973  17.646   1.011
27287W        W93828  35.998   3.589  11.168
27288W        W93829  35.531  29.646  10.518
27289W        W93830  16.815   2.868   1.169
27290W        W93831   0.712   8.864  14.081
27291W        W93832  43.450  10.542   4.309
27292W        W93833  26.220  23.237  14.904
27293W        W93834   5.167  43.504   2.661
27294W        W93835  42.552  40.285   0.917
27295W        W93836  33.161  17.614   1.360
27296W        W93837  11.290  21.491   3.132
27297W        W93838   0.963  39.482  12.912
27298W        W93839  11.853  39.045  14.696
27299W        W93840  13.250  39.274   2.876
27300W        W93841  44.705  44.503  11.022
27301W        W93842  39.386  31.471   0.837
27302W        W93843  32.071  11.703  14.839
27303W        W93844   7.317  26.065   0.533
27304W        W93845  27.054  44.087  12.432
27305W        W93846  38.321  44.529   1.714
27306W        W93847   7.724   0.351   0.642
27307W        W93848  19.943  25.783  12.972
27308W        W93849  44.408  10.804  10.581
27309W        W93850  21.565  37.672   0.910
27310W        W93851  17.750  14.107  13.992
27311W        W93852   0.487  25.522  13.885
27312W        W93853  12.907  43.857  14.743
27313W        W93854  30.506  32.963  14.976
27314W        W93855  35.019  16.639  14.922
27315W        W93856   4.756  40.621  13.149
27316W        W93857  14.587  33.279  10.623
27317W        W93858  35.891  38.815   3.212
27318W        W93859  19.798   2.973  10.815
27319W        W93860  24.599   3.739   3.535
27320W        W93861  42.044   0.392  12.408
27321W        W93862  23.592  15.182  11.559
27322W        W93863  26.620  19.580   3.762
27323W        W93864  18.651  30.957  12.106
27324W        W93865  25.649  43.420  10.480
27325W        W93866   6.294  23.883  12.087
27326W        W93867   2.457  37.594  12.939
27327W        W93868  28.874  42.501  12.069
27328W        W93869  20.056  31.567   2.253
27329W        W93870  39.063  26.592  11.943
27330W        W93871  40.384  26.060   2.395
27331W        W93872  28.456  22.522  13.172
27332W        W93873  22.212  14.045  12.110
27333W        W93874  30.242  38.331   1.242
27334W        W93875  11.740  41.965  12.003
27335W        W93876   1.759  11.835   4.394
27336W        W93877  33.947  12.513   5.158
27337W        W93878  21.633  23.365   0.919
27338W        W93879   3.743  32.942  11.160
27339W        W93880  42.938  42.280  10.709
27340W        W93881  23.208  28.355  11.864
27341W        W93882  12.460  18.808  14.565
27342W        W93883   6.364  32.987  11.949
27343W        W93884  44.365   8.339   4.620
27344W        W93885   0.210  35.766   2.089
27345W        W93886   7.189  24.067   4.489
27346W        W93887   0.305  18.846   3.177
27347W        W93888  12.647  42.243  10.996
27348W        W93889  30.267   5.929  14.227
27349W        W93890  26.923  38.408  10.933
27350W        W93891   1.878  33.619   3.495
27351W        W93892  31.603  38.528   0.327
27352W        W93893  40.996  42.972  13.485
27353W        W93894  32.462  27.115  11.167
27354W        W93895   2.708  37.585   2.813
27355W        W93896   1.033  24.734   2.828
27356W        W93897  29.914  10.566   0.617
27357W        W93898   0.480  26.062   4.662
27358W        W93899  19.826   3.893   1.885
27359W        W93900  31.317  35.330  14.032
27360W        W93901  19.113  17.741   3.603
27361W        W93902  41.105  44.896  12.055
27362W        W93903  38.542  36.544  13.531
27363W        W93904  13.236   1.045   0.700
27364W        W93905  33.339   7.519  14.520
27365W        W93906  29.904  10.730  10.535
27366W        W93907   4.853  20.540   3.101
27367W        W93908  24.076   0.751  14.390
27368W        W93909  27.952  22.488  11.083
27369W        W93910  43.041  16.303   4.049
27370W        W93911   9.741  23.692  10.427
27371W        W93912  20.383   9.442  11.548
27372W        W93913  13.873   8.178   2.255
27373W        W93914  29.036  37.439   3.497
27374W        W93915  14.176  43.671   2.182
27375W        W93916  29.189  25.672   3.749
27376W        W93917  27.143  37.972  11.502
27377W        W93918  40.773  24.035   2.325
27378W        W93919   4.802  36.765   1.223
27379W        W93920   1.440  19.232   1.206
27380W        W93921  19.743  34.067  14.059
27381W        W93922  21.967  22.833   2.803
27382W        W93923  26.144  28.620  10.665
27383W        W93924  18.095  22.079  13.785
27384W        W93925   3.261  18.710   3.105
27385W        W93926  27.642  22.299  12.858
27386W        W93927  36.147  33.135   1.802
27387W        W93928  38.847  12.462   3.747
27388W        W93929  21.952   4.482  11.551
27389W        W93930   0.815  43.462  12.557
27390W        W93931   1.026  39.815  11.624
27391W        W93932   0.154   5.101   4.462
27392W        W93933  25.543   5.583  12.378
27393W        W93934  18.030  26.018   3.401
27394W        W93935  19.572  19.596   1.885
27395W        W93936  16.361  14.103   0.953
27396W        W93937   6.924  36.323   2.923
27397W        W93938  30.731   3.237  10.749
27398W        W93939   5.428  44.733  10.324
27399W        W93940  22.483  17.283   0.010
27400W        W93941  41.039  19.493  12.047
27401W        W93942  44.008  16.610   0.710
27402W        W93943   9.457  12.207   9.967
27403W        W93944  39.508  33.677   4.500
27404W        W93945  24.758  26.318  12.103
27405W        W93946  43.606  34.934   3.680
27406W        W93947  42.279  39.439  10.621
27407W        W93948  11.441  26.069   0.343
27408W        W93949  13.913  21.992  11.982
27409W        W93950  11.979  12.415  14.230
27410W        W93951  34.347  26.553   2.396
27411W        W93952  41.425  36.129  13.502
27412W        W93953  11.037   4.250   0.285
27413W        W93954  18.018  27.096   2.805
27414W        W93955  35.751   7.306  14.853
27415W        W93956  29.613  41.995  11.179
27416W        W93957   7.917   9.127   4.688
27417W        W93958  37.309  27.024  12.867
27418W        W93959   7.847  40.038  12.873
27419W        W93960  40.846  14.093  10.870
27420W        W93961  43.248  21.484   2.602
27421W        W93962  35.565  31.337   4.637
27422W        W93963  15.826  37.761  14.190
27423W        W93964  14.325  35.306   2.872
27424W        W93965   6.943  27.106   2.839
27425W        W93966   2.808  41.763  10.612
27426W        W93967  27.931   4.272  13.876
27427W        W93968  10.811  15.478  13.335
27428W        W93969  34.569   9.273   1.432
27429W        W93970  39.424  43.376  13.683
27430W        W93971  15.725  24.684  12.586
27431W        W93972  42.544  38.545   4.138
27432W        W93973  12.545  26.476   0.357
27433W        W93974  30.975   3.371   0.738
27434W        W93975  25.941   7.984   1.765
27435W        W93976   0.725   6.411  13.127
27436W        W93977  15.278   7.149   3.694
27437W        W93978  37.454  26.539  10.238
27438W        W93979   8.607  23.102   4.674
27439W        W93980  35.430  32.419  11.621
27440W        W93981  35.377  27.241  10.770
27441W        W93982  44.703  39.241   2.432
27442W        W93983  24.119  11.370   0.715
27443W        W93984  41.346  22.304   2.817
27444W        W93985  44.528  22.323   0.464
27445W        W93986  18.840   5.972  11.580
27446W        W93987  31.862  23.995  14.898
27447W        W93988  32.007  42.735  11.569
27448W        W93989  44.774   6.688  12.434
27449W        W93990  39.437  43.562  14.738
27450W        W93991  10.258  43.303  12.793
27451W        W93992  15.709  30.845  12.432
27452W        W93993  28.375   5.453   3.749
27453W        W93994   1.489  35.528   1.459
27454W        W93995  14.889  42.749  12.296
27455W        W93996   7.482   9.426  14.294
27456W        W93997  18.199  30.741  12.716
27457W        W93998  25.483   2.144  13.465
27458W        W93999  36.239  37.232   3.285
27459W        W94000   5.763   0.286  12.442
27460W        W94001  39.955  14.324  12.916
27461W        W94002  35.294  38.923  12.820
27462W        W94003  16.081  26.853  11.549
27463W        W94004  36.257   7.631  11.133
27464W        W94005   6.584  32.506  12.808
27465W        W94006   6.353  27.410  11.674
27466W        W94007  41.787  18.074  12.173
27467W        W94008  41.848  13.118  13.946
27468W        W94009  31.793  32.610   1.367
27469W        W94010  13.847   5.775   0.043
27470W        W94011  24.178  31.028   2.923
27471W        W94012  31.645  21.563  12.117
27472W        W94013  42.810  36.112   2.387
27473W        W94014  23.096   0.359   2.554
27474W        W94015  44.352  27.146   3.440
27475W        W94016  21.294   8.261   0.967
27476W        W94017  14.750  37.097   3.697
27477W        W94018   4.936  20.522   3.632
27478W        W94019   5.132  21.340  13.132
27479W        W94020  30.827   1.846   4.220
27480W        W94021  20.135  31.805   1.778
27481W        W94022  28.035  20.021  14.721
27482W        W94023  35.044  16.065   0.441
27483W        W94024   2.908  10.656   2.728
27484W        W94025  13.237  27.219   1.704
27485W        W94026  43.992   8.250   0.363
27486W        W94027  19.827  26.265  12.076
27487W        W94028  12.695  14.647   0.820
27488W        W94029  20.226  11.750  12.172
27489W        W94030  19.297  15.185   4.097
27490W        W94031  31.751  35.171   3.614
27491W        W94032   6.584  43.485   3.067
27492W        W94033  34.998  18.687   0.397
27493W        W94034  39.478  28.229  14.227
27494W        W94035   6.397   0.843   2.747
27495W        W94036  41.399   9.481  12.505
27496W        W94037   2.906  38.484   4.406
27497W        W94038   9.687  17.630   1.834
27498W        W94039  22.641  22.526   4.122
27499W        W94040  31.838  11.571  13.573
27500W        W94041   1.281  28.686  13.050
27501W        W94042  30.628  18.679   0.452
27502W        W94043  32.044  10.115   3.086
27503W        W94044  32.191   7.422   2.263
27504W        W94045  36.444  25.669   0.728
27505W        W94046  18.302   0.562  13.486
27506W        W94047   8.794   5.450   4.017
27507W        W94048  18.569  22.620   2.731
27508W        W94049   0.329  17.739  11.657
27509W        W94050  11.058  10.001  11.197
27510W        W94051  42.972  30.133   4.844
27511W        W94052   4.320  28.539  12.059
27512W        W94053  39.986   6.610  10.628
27513W        W94054  25.236  44.727  14.306
27514W        W94055  15.209  26.046   0.527
27515W        W94056  26.003  41.259   1.777
27516W        W94057   0.534  10.976   1.366
27517W        W94058  31.956   9.637  11.094
27518W        W94059  33.384   0.444  10.487
27519W        W94060   4.650   5.476   1.319
27520W        W94061  16.187  26.647  12.407
27521W        W94062   1.034  32.075   0.384
27522W        W94063  30.300  16.643   3.181
27523W        W94064   3.286  43.602  13.506
27524W        W94065   3.994  10.303   3.320
27525W        W94066  12.635  36.552  13.100
27526W        W94067  43.819  23.645   1.036
27527W        W94068  43.037  40.247   2.296
27528W        W94069  38.772  43.072   3.702
27529W        W94070  30.148  30.779   4.474
27530W        W94071  42.440   5.025   3.691
27531W        W94072  42.044  39.521  11.061
27532W        W94073  11.808  19.105   1.048
27533W        W94074  26.435  32.998   2.582
27534W        W94075   2.168  42.199  10.777
27535W        W94076  44.519  40.039   2.527
27536W        W94077  22.772   1.629  13.101
27537W        W94078  36.193   7.327   3.830
27538W        W94079  12.779  24.299   0.454
27539W        W94080  26.477   3.333  14.934
27540W        W94081  23.622   7.463   5.181
27541W        W94082  27.402  32.987   3.648
27542W        W94083  22.470  37.438  12.992
27543W        W94084  26.307  27.068   4.490
27544W        W94085  40.845  17.180   4.245
27545W        W94086  40.482  42.919  11.675
27546W        W94087  17.349  23.564   4.512
27547W        W94088  26.498  41.775  14.258
27548W        W94089  42.872  39.253   3.695
27549W        W94090   0.741  16.628   0.302
27550W        W94091  39.085  24.734  12.590
27551W        W94092  40.071  13.780   0.367
27552W        W94093  20.834  39.449  13.459
27553W        W94094  31.586   7.631  13.087
27554W        W94095  38.322   6.330   2.389
27555W        W94096  40.340  42.785   1.037
27556W        W94097   4.442  33.916   3.464
27557W        W94098   0.964  33.839  12.394
27558W        W94099   6.702  17.541   1.851
27559W        W94100  23.304  15.582  11.074
27560W        W94101  30.577  25.897   1.005
27561W        W94102  32.410   6.283   4.526
27562W        W94103  32.407  28.487  14.918
27563W        W94104  37.657  13.103  14.345
27564W        W94105  16.298  39.924   2.572
27565W        W94106  16.753   6.563  13.582
27566W        W94107   2.468   8.297   1.994
27567W        W94108  11.813  28.170   2.313
27568W        W94109   0.244  28.093   4.093
27569W        W94110  21.872  23.961  14.522
27570W        W94111  42.070  37.325   0.551
27571W        W94112   8.681  38.874  12.885
27572W        W94113  18.613  34.272  10.319
27573W        W94114  16.270  20.930   4.098
27574W        W94115  13.285  11.785   1.637
27575W        W94116  32.206   7.710   0.859
27576W        W94117  36.872  29.354   3.003
27577W        W94118   6.804  35.255  14.370
27578W        W94119   0.034  44.347   1.668
27579W        W94120  34.160   9.867  12.931
27580W        W94121   8.798  19.001   3.622
27581W        W94122  44.994  11.655   1.198
27582W        W94123  39.475  16.172   0.333
27583W        W94124  25.120  34.305  13.477
27584W        W94125   2.415  16.299   2.096
27585W        W94126  10.096  36.503  13.637
27586W        W94127  42.308   2.528   4.128
27587W        W94128  13.870  29.136   3.641
27588W        W94129  31.929  26.796   0.918
27589W        W94130  42.239  36.576   1.717
27590W        W94131  34.665  21.795  13.981
27591W        W94132  31.318  32.127   5.040
27592W        W94133  27.143   0.243  13.402
27593W        W94134  15.861   6.678   1.275
27594W        W94135  42.482  12.909  11.529
27595W        W94136  43.908  35.959  14.796
27596W        W94137  10.122  24.365   2.486
27597W        W94138  40.254  12.811  14.826
27598W        W94139  36.024  25.544   2.152
27599W        W94140   6.860   8.248   2.868
27600W        W94141  36.987  38.527   3.776
27601W        W94142   9.791  38.448   0.875
27602W        W94143  14.077   3.260  10.716
27603W        W94144  39.031  17.140   0.454
27604W        W94145  39.077  26.987  12.717
27605W        W94146  30.591  12.790  13.821
27606W        W94147  18.716  34.345  12.905
27607W        W94148  23.420  11.451  12.685
27608W        W94149  34.463  20.315   2.381
27609W        W94150   7.615  26.530   9.822
27610W        W94151  42.927  33.917  11.134
27611W        W94152  36.393   7.652  11.843
27612W        W94153  31.594  16.339   0.230
27613W        W94154   4.726  30.135  13.943
27614W        W94155  35.102   7.776  14.056
27615W        W94156  17.108  41.061   1.894
27616W        W94157   8.333  24.257   4.342
27617W        W94158   1.987  20.139   2.577
27618W        W94159  12.075  23.937  10.716
27619W        W94160  33.868  38.848   4.158
27620W        W94161  30.075  27.770   2.802
27621W        W94162  42.972  31.197   4.508
27622W        W94163  36.614  35.132   1.434
27623W        W94164   2.438  42.746   1.304
27624W        W94165  14.735  20.136   4.095
27625W        W94166  30.217  41.946   5.010
27626W        W94167  36.777  30.206   2.730
27627W        W94168  27.426   8.987  11.231
27628W        W94169   8.651  26.714  13.351
27629W        W94170  17.999  18.651  11.540
27630W        W94171   0.867  20.407  11.797
27631W        W94172  38.402  41.120  11.420
27632W        W94173  23.771  31.351   0.871
27633W        W94174  29.935  38.850  12.917
27634W        W94175  11.639  13.857  12.857
27635W        W94176  24.230  22.559   4.162
27636W        W94177   2.946  17.070  11.965
27637W        W94178  42.318  10.827  12.782
27638W        W94179  14.103   3.187   2.886
27639W        W94180  27.291  20.015   3.550
27640W        W94181  12.597  26.111   2.186
27641W        W94182  32.025  32.099  11.158
27642W        W94183   5.437  42.923  13.988
27643W        W94184  33.750   2.195   1.768
27644W        W94185   3.853  22.179   5.478
27645W        W94186  12.189  32.643   2.325
27646W        W94187  27.609  21.027   4.520
27647W        W94188  32.384   9.451  13.314
27648W        W94189  34.268  43.414  13.145
27649W        W94190  15.130  11.156   3.136
27650W        W94191   6.298  44.820  14.326
27651W        W94192  18.556  21.838  10.988
27652W        W94193  16.082   7.842   1.817
27653W        W94194  26.433   0.073   0.989
27654W        W94195   2.519  33.034  12.880
27655W        W94196  20.019  38.931  13.329
27656W        W94197   3.510  41.883   3.903
27657W        W94198  33.451  31.066   2.052
27658W        W94199  10.811  26.903   4.663
27659W        W94200  40.782  42.877  10.413
27660W        W94201  24.624  25.449   2.707
27661W        W94202  37.842   3.731   3.808
27662W        W94203  32.850  28.990  12.756
27663W        W94204  31.913  13.589   2.026
27664W        W94205  17.209  20.022  10.759
27665W        W94206  30.216  12.310  11.879
27666W        W94207  12.181  36.314   3.441
27667W        W94208   8.748   9.704  14.160
27668W        W94209   8.745  12.762  12.911
27669W        W94210   2.822  30.377   4.991
27670W        W94211  19.961  21.637   0.944
27671W        W94212  18.769  21.035   3.653
27672W        W94213  39.486  11.312   9.698
27673W        W94214  40.855  41.495  12.039
27674W        W94215   8.360  34.821  11.006
27675W        W94216  15.140  20.579  11.998
27676W        W94217  25.737  29.159   2.318
27677W        W94218  11.851  16.041  13.811
27678W        W94219  15.982   4.830   1.421
27679W        W94220  31.710   5.382  10.622
27680W        W94221  34.504   7.759   0.416
27681W        W94222   0.029  39.515   4.428
27682W        W94223  32.359   6.852  12.920
27683W        W94224  35.312  17.309  14.432
27684W        W94225  38.976   9.952   0.068
27685W        W94226  41.040  34.553   1.696
27686W        W94227   6.258  36.976   4.578
27687W        W94228   4.417  16.616   0.933
27688W        W94229  28.044  16.173  13.596
27689W        W94230  27.457  11.899  10.053
27690W        W94231  16.297   3.827  14.905
27691W        W94232   7.750  25.786  13.060
27692W        W94233  42.250  33.982  12.207
27693W        W94234  36.590   8.127  14.698
27694W        W94235  34.517  33.963   4.171
27695W        W94236  30.505  10.798  14.755
27696W        W94237  39.498  32.484   0.756
27697W        W94238  26.006  15.876  14.954
27698W        W94239  35.983  44.262   4.082
27699W        W94240   0.735  12.210   1.993
27700W        W94241  10.056  15.714  10.594
27701W        W94242   8.986  16.130   3.770
27702W        W94243  19.852  36.637   3.649
27703W        W94244   7.208  35.168  11.232
27704W        W94245  37.012  36.093   4.514
27705W        W94246  38.882  27.633   0.745
27706W        W94247  41.370  40.543   2.227
27707W        W94248  44.279  34.528  14.833
27708W        W94249   5.233   2.933   2.646
27709W        W94250  25.482  20.295   0.262
27710W        W94251  27.656  24.342   2.452
27711W        W94252   7.476   6.783  14.521
27712W        W94253  33.262  38.088  11.375
27713W        W94254  27.942  36.001  13.091
27714W        W94255  33.847  35.775   4.908
27715W        W94256  36.824   0.874  11.108
27716W        W94257  16.294   2.164   1.445
27717W        W94258   0.054  12.234  13.069
27718W        W94259  28.936  19.171  12.840
27719W        W94260  35.366  14.913  10.773
27720W        W94261   2.314  12.372  11.288
27721W        W94262  36.953  27.322   0.777
27722W        W94263   8.818  20.949   2.265
27723W        W94264  19.677  18.604  10.815
27724W        W94265  15.606  18.668   1.796
27725W        W94266  32.313  26.484   0.769
27726W        W94267  43.441  44.902  11.724
27727W        W94268  30.382  36.589  11.727
27728W        W94269  39.107  33.349   4.592
27729W        W94270   8.212  15.006   0.257
27730W        W94271  23.192  14.681   2.439
27731W        W94272  18.871   5.796  14.493
27732W        W94273   5.711  13.386  12.440
27733W        W94274  43.782  24.428   0.166
27734W        W94275   8.581   4.943   4.688
27735W        W94276  13.868  31.611   1.785
27736W        W94277  21.064  25.651   3.984
27737W        W94278  41.443  16.078   1.270
27738W        W94279  33.969  15.770   2.616
27739W        W94280  15.257  35.613  12.860
27740W        W94281  17.265   8.684  11.139
27741W        W94282  32.611  13.407   2.337
27742W        W94283  19.733  11.494   1.144
27743W        W94284  30.322   9.800   2.604
27744W        W94285   5.699  36.175  14.902
27745W        W94286  17.662  43.867  11.548
27746W        W94287  13.736   7.759  10.789
27747W        W94288  20.751  27.500   0.444
27748W        W94289  29.988   3.676  14.270
27749W        W94290   4.486  28.674   4.744
27750W        W94291   7.115  37.355   2.225
27751W        W94292  14.768  15.908   1.845
27752W        W94293  40.013  34.986  12.391
27753W        W94294  42.354  39.007   3.932
27754W        W94295  11.177  15.863  13.660
27755W        W94296   5.668  40.351  13.972
27756W        W94297   2.883   4.617  11.953
27757W        W94298  42.226   3.706   3.245
27758W        W94299  18.720  18.524  14.287
27759W        W94300  27.415  14.750  13.544
27760W        W94301  39.554   4.789   9.940
27761W        W94302  28.284  17.710   1.772
27762W        W94303  18.479   1.728  11.152
27763W        W94304  20.001  31.474  14.723
27764W        W94305   0.724   2.365   1.815
27765W        W94306  12.135  33.997  11.406
27766W        W94307  24.581  11.140   3.153
27767W        W94308  15.436  11.404   1.765
27768W        W94309  23.040  34.328  13.952
27769W        W94310   7.669   8.087   0.477
27770W        W94311  33.650   7.143  14.950
27771W        W94312  43.631  23.957   0.297
27772W        W94313  18.249  28.879  10.312
27773W        W94314  26.718   3.442  11.302
27774W        W94315  33.002  13.128   1.224
27775W        W94316  19.611   6.268  10.803
27776W        W94317  38.808  34.582  11.207
27777W        W94318  18.039  13.276  11.140
27778W        W94319  32.690  33.075   1.233
27779W        W94320  21.817  37.976   2.126
27780W        W94321  14.120  22.457  14.100
27781W        W94322  27.430  12.285  13.929
27782W        W94323   8.311  33.686   2.298
27783W        W94324  27.796  14.182   2.247
27784W        W94325  42.575  39.408   3.164
27785W        W94326  35.379  23.946   2.424
27786W        W94327  24.351   8.237   3.686
27787W        W94328  35.193  24.649  13.809
27788W        W94329  18.409  24.976  14.944
27789W        W94330  17.755  33.164   1.153
27790W        W94331  31.788  19.233  10.811
27791W        W94332  35.368   1.304  13.127
27792W        W94333  44.863  29.719   4.256
27793W        W94334  20.215  39.105   4.203
27794W        W94335  12.083   7.422  12.117
27795W        W94336   9.224  41.479  10.745
27796W        W94337  26.679   3.252   5.032
27797W        W94338   6.768  38.272   1.968
27798W        W94339   2.649  43.254  14.187
27799W        W94340  22.043  23.255   4.242
27800W        W94341  39.962   3.936  11.441
27801W        W94342  18.447  44.930  14.501
27802W        W94343  12.088  18.958  10.729
27803W        W94344  30.135  24.690  10.639
27804W        W94345  38.252  28.605  14.392
27805W        W94346  43.756  29.383   1.231
27806W        W94347  34.671  20.048  13.126
27807W        W94348  27.650   7.162   3.195
27808W        W94349  31.083  29.632   3.566
27809W        W94350  14.741  10.805  12.945
27810W        W94351  16.352  41.472   0.914
27811W        W94352  29.372  28.500   3.676
27812W        W94353  19.454  20.095   1.693
27813W        W94354   5.136  24.797  12.459
27814W        W94355  29.628   2.725  14.071
27815W        W94356  20.035  39.323  10.688
27816W        W94357  36.877  20.596   2.769
27817W        W94358   8.605   4.216   2.879
27818W        W94359  28.010  41.292  10.112
27819W        W94360  30.577  21.084   3.188
27820W        W94361  16.148  21.203  11.563
27821W        W94362   8.251  14.750   3.359
27822W        W94363   2.407  21.117   4.257
27823W        W94364  18.671  24.706  13.994
27824W        W94365   3.446  30.494   3.260
27825W        W94366  31.188  34.902  13.640
27826W        W94367  30.986  21.752  14.431
27827W        W94368   3.015  35.955  11.571
27828W        W94369  30.492  33.570  14.455
27829W        W94370  42.217   0.942  11.512
27830W        W94371   5.049  17.644  14.032
27831W        W94372  16.149  33.088   4.655
27832W        W94373  28.439  33.033   2.793
27833W        W94374  35.132  28.111  12.759
27834W        W94375  28.985  20.824   0.241
27835W        W94376  31.858  23.630  11.697
27836W        W94377   8.715  16.782  11.601
27837W        W94378   1.401   1.324  13.540
27838W        W94379  28.094   7.066   1.231
27839W        W94380   8.272   2.881  12.076
27840W        W94381  16.698  43.734   0.855
27841W        W94382  19.283  12.160  12.086
27842W        W94383   6.115  40.949   2.318
27843W        W94384   1.780  16.756  14.313
27844W        W94385   2.671  24.497  10.755
27845W        W94386  10.097  26.503   0.396
27846W        W94387   3.204   0.891  14.698
27847W        W94388  32.388  15.081   3.094
27848W        W94389  17.349   9.293   2.632
27849W        W94390  11.219  44.739  14.868
27850W        W94391   3.214  25.199   3.637
27851W        W94392  14.147   4.536   4.662
27852W        W94393   8.886  18.534   1.656
27853W        W94394   8.389  35.632   0.368
27854W        W94395  13.649  13.385   4.634
27855W        W94396  30.430  16.067  12.385
27856W        W94397   1.886  25.583   0.780
27857W        W94398  34.888  28.543  11.917
27858W        W94399  10.280   6.869   4.956
27859W        W94400  25.337  13.195  11.102
27860W        W94401  16.672  43.842   3.068
27861W        W94402  37.259   9.828   0.519
27862W        W94403  33.828   2.491  13.006
27863W        W94404  20.257   8.839  14.668
27864W        W94405  30.183  41.289   1.671
27865W        W94406   4.428  32.080  11.428
27866W        W94407   7.734  30.838   1.350
27867W        W94408  15.181  39.972  14.940
27868W        W94409  10.245  34.008   1.037
27869W        W94410  40.459  24.475   2.174
27870W        W94411  15.239  31.433  10.222
27871W        W94412  16.757   1.904   1.332
27872W        W94413  43.451  22.027  12.620
27873W        W94414  34.432  10.041   4.127
27874W        W94415  27.562  36.878   4.588
27875W        W94416  12.454  29.495   2.481
27876W        W94417  21.586  28.016   2.040
27877W        W94418  39.007  44.708  10.105
27878W        W94419  19.802  18.079   3.182
27879W        W94420  36.020  36.992   2.233
27880W        W94421  33.003  43.842  12.073
27881W        W94422  17.214  36.626   3.145
27882W        W94423   4.334  12.236   4.674
27883W        W94424   7.296  18.210   2.754
27884W        W94425  15.861  21.693   4.539
27885W        W94426  23.956  44.029   3.965
27886W        W94427  33.630  10.661  11.316
27887W        W94428  14.367  44.771  11.275
27888W        W94429  30.911   6.703   3.002
27889W        W94430  16.622  37.969  10.641
27890W        W94431  33.727   0.476   2.340
27891W        W94432  17.563   5.520  12.491
27892W        W94433  11.790  17.302   1.273
27893W        W94434  38.035   6.018  13.152
27894W        W94435  20.151  43.906   0.987
27895W        W94436   6.924  34.384   4.355
27896W        W94437   5.250  10.745   4.124
27897W        W94438   4.378  31.889   0.301
27898W        W94439   6.563  24.558   1.898
27899W        W94440  33.479  21.440  12.437
27900W        W94441  44.831  26.648   2.675
27901W        W94442  17.698  42.789  10.668
27902W        W94443  29.335  15.910   4.199
27903W        W94444  17.669  43.450   0.314
27904W        W94445  12.334  27.042  11.444
27905W        W94446  34.341  36.092  14.280
27906W        W94447  41.810  35.498  13.993
27907W        W94448  12.820  27.654   3.388
27908W        W94449  29.642  36.039   4.249
27909W        W94450  41.825  14.700   0.874
27910W        W94451   6.645   8.754  11.073
27911W        W94452   7.801  18.187   3.156
27912W        W94453  36.009  11.945  12.643
27913W        W94454  21.696  27.239  11.958
27914W        W94455  38.300  39.039   3.724
27915W        W94456  35.503  19.971  13.087
27916W        W94457  32.504  14.860  14.255
27917W        W94458  31.775  19.536  12.959
27918W        W94459  43.598  29.569   0.601
27919W        W94460  38.752   4.920   1.304
27920W        W94461   0.890   5.933  12.576
27921W        W94462  44.808  24.197  13.674
27922W        W94463  43.953  34.091   4.886
27923W        W94464  14.309   2.858   2.135
27924W        W94465  37.036   0.916  13.842
27925W        W94466   6.263  15.504  13.096
27926W        W94467  24.131  10.131  10.944
27927W        W94468  30.590   4.110   4.639
27928W        W94469   6.535  22.289  10.464
27929W        W94470  40.166  17.249   3.698
27930W        W94471   5.913  15.531   2.223
27931W        W94472   4.014  40.524  12.888
27932W        W94473  22.179  28.071  13.477
27933W        W94474  12.216  38.033   3.214
27934W        W94475  33.550  24.317  11.094
27935W        W94476  11.006  12.240  14.405
27936W        W94477   8.759  33.965   2.234
27937W        W94478   9.917  33.430   4.514
27938W        W94479  27.487  17.992  12.524
27939W        W94480  16.578  39.266   4.549
27940W        W94481   7.371  39.529   0.737
27941W        W94482  37.950   7.715   3.181
27942W        W94483  26.708   8.737  11.552
27943W        W94484  30.679  17.306  11.686
27944W        W94485  44.980  13.591   3.638
27945W        W94486  43.261   6.713   2.715
27946W        W94487  15.336  12.450  11.948
27947W        W94488   2.532  10.772   0.398
27948W        W94489   7.927   0.967  12.726
27949W        W94490   5.945  11.283   3.674
27950W        W94491   9.156  42.825   2.889
27951W        W94492  36.904  36.090   1.098
27952W        W94493  37.806  33.527  13.536
27953W        W94494   0.372  36.376  13.899
27954W        W94495  21.123  26.077   0.754
27955W        W94496  22.070   6.628  13.569
27956W        W94497  17.527  33.359   3.788
27957W        W94498  11.989   5.262   1.208
27958W        W94499  43.197   3.439  13.973
27959W        W94500  26.175  37.998  13.516
27960W        W94501  41.393  36.910  10.771
27961W        W94502  38.544  33.521   4.018
27962W        W94503  18.582  29.466   2.310
27963W        W94504  35.799  24.478   0.695
27964W        W94505  26.554  10.277  11.510
27965W        W94506  30.670   8.862   1.956
27966W        W94507   7.003  44.445   0.464
27967W        W94508  31.402  39.783   2.320
27968W        W94509  36.856   9.385   1.988
27969W        W94510   5.343  36.311  10.741
27970W        W94511  28.556  17.522   3.920
27971W        W94512  12.520  28.206  13.030
27972W        W94513  11.193  23.128  14.147
27973W        W94514  31.124  27.978   1.899
27974W        W94515  20.461   9.837  12.987
27975W        W94516  30.931  16.123   4.621
27976W        W94517  31.954  40.908  10.719
27977W        W94518  14.661   6.598  11.148
27978W        W94519   6.927  36.859   1.816
27979W        W94520   6.564  33.708  11.758
27980W        W94521  32.451  28.060   4.180
27981W        W94522  10.222  37.770   4.057
27982W        W94523  18.717   9.557   3.808
27983W        W94524  16.800   3.676  14.895
27984W        W94525  29.935  44.927  14.883
27985W        W94526  24.525   2.774  13.463
27986W        W94527   2.237  31.354   1.704
27987W        W94528  14.708  11.316  12.180
27988W        W94529   4.766  30.024  14.459
27989W        W94530  37.274   1.868   2.260
27990W        W94531  29.115   6.457   2.540
27991W        W94532  18.982  34.391  12.461
27992W        W94533   4.487  15.107  12.457
27993W        W94534   1.009  19.605  12.126
27994W        W94535   5.956  10.404  11.303
27995W        W94536  12.485  29.622   1.988
27996W        W94537   4.424  24.260   0.733
27997W        W94538  44.957  15.837  13.926
27998W        W94539  35.596  14.133   3.652
27999W        W94540  21.205  15.648  14.784
28000W        W94541   6.293  31.120   3.071
28001W        W94542  41.378  25.720   1.168
28002W        W94543  15.274  39.712   2.265
28003W        W94544  23.098   9.825  14.703
28004W        W94545  21.653  19.073  14.877
28005W        W94546   6.257   5.185   1.699
28006W        W94547   7.287  33.804  13.121
28007W        W94548   3.630  11.354  11.178
28008W        W94549  13.395  16.158   2.357
28009W        W94550  15.569  11.684   3.692
28010W        W94551  36.917  34.038   3.919
28011W        W94552  43.698  14.417   4.519
28012W        W94553  25.720  33.182   0.930
28013W        W94554  16.055   2.210  12.196
28014W        W94555   7.858   8.389   2.700
28015W        W94556   1.341  30.303  14.526
28016W        W94557  17.186  37.204  12.885
28017W        W94558  33.274  39.885   3.749
28018W        W94559  15.699  17.062  14.167
28019W        W94560  40.832   6.219  12.828
28020W        W94561  44.987  19.835  11.926
28021W        W94562  16.860   5.904  14.283
28022W        W94563  39.075  29.184   4.262
28023W        W94564  34.201  42.764  11.150
28024W        W94565  41.957  22.998  11.021
28025W        W94566  14.788   7.701  14.415
28026W        W94567  43.384  18.057   1.421
28027W        W94568  21.272   0.172   9.734
28028W        W94569  17.105  31.619  13.965
28029W        W94570  40.392   9.184   0.421
28030W        W94571  27.098  40.171   1.659
28031W        W94572  36.498  20.547  13.194
28032W        W94573  10.124  34.524   1.736
28033W        W94574  42.561   6.860   0.735
28034W        W94575   8.973  37.078   1.299
28035W        W94576  40.309  30.151  11.548
28036W        W94577   4.673   6.065  12.143
28037W        W94578   5.677   1.465   2.672
28038W        W94579  44.246   2.504  10.405
28039W        W94580  36.919  40.613  13.106
28040W        W94581  36.967   5.330  11.675
28041W        W94582  11.369  44.130   2.293
28042W        W94583  11.236  11.596   1.370
28043W        W94584  28.489  32.041   1.228
28044W        W94585   2.503  32.035   0.295
28045W        W94586  36.378   3.276   3.307
28046W        W94587  24.509  30.732   4.602
28047W        W94588  20.662  43.492   0.335
28048W        W94589  23.064  16.424  11.847
28049W        W94590  16.307  13.796  14.532
28050W        W94591   5.601  23.626  11.112
28051W        W94592   6.109  38.406  12.985
28052W        W94593   2.889  40.045   3.389
28053W        W94594  42.454  43.286   3.443
28054W        W94595  15.589   6.256  10.474
28055W        W94596  31.445   1.966   2.232
28056W        W94597  21.004  30.554   2.848
28057W        W94598   8.236  28.753   1.956
28058W        W94599  15.575  44.931   4.614
28059W        W94600  22.006  20.784  14.352
28060W        W94601  28.119   0.098   1.706
28061W        W94602  16.534  13.728   2.558
28062W        W94603   1.095  37.542  13.987
28063W        W94604  43.539  21.822   2.334
28064W        W94605  25.974   4.897   4.137
28065W        W94606  27.458   3.253  14.949
28066W        W94607  13.579  35.065   1.225
28067W        W94608  29.710   3.743   4.687
28068W        W94609  12.091   3.087  11.148
28069W        W94610  42.881  39.782   4.508
28070W        W94611  38.675  34.041  11.198
28071W        W94612   3.807  12.376   2.598
28072W        W94613   6.401  23.574  10.735
28073W        W94614  16.349  37.700   4.174
28074W        W94615  27.591  12.879  10.381
28075W        W94616  10.871  35.459  13.964
28076W        W94617  22.202  19.663   3.127
28077W        W94618  25.668  33.478  14.002
28078W        W94619  36.380  25.572   1.238
28079W        W94620  38.664   6.070  14.364
28080W        W94621  19.648  29.215  14.882
28081W        W94622  39.422  43.388  14.243
28082W        W94623  36.852   0.514  12.591
28083W        W94624   3.446  18.303   3.446
28084W        W94625  10.128  41.952  10.664
28085W        W94626  22.118  24.568  11.713
28086W        W94627  26.983  24.080   3.495
28087W        W94628   3.375  12.297   1.724
28088W        W94629  38.159  42.114  14.351
28089W        W94630  38.548  28.376   0.459
28090W        W94631  13.540  14.280   2.346
28091W        W94632  44.539  39.396  14.286
28092W        W94633  23.638  43.703  11.963
28093W        W94634  28.547  24.556   0.948
28094W        W94635  27.219  27.803   2.327
28095W        W94636  25.652   8.007   2.420
28096W        W94637  42.538  38.250  13.918
28097W        W94638  30.861  35.168   3.156
28098W        W94639  23.423  29.816   1.001
28099W        W94640  42.960  40.630   5.036
28100W        W94641  27.606  17.120   1.901
28101W        W94642  32.646  16.140   4.098
28102W        W94643  36.601   1.230   2.254
28103W        W94644  18.492   8.762   4.535
28104W        W94645  34.506  29.239   0.266
28105W        W94646  41.057  21.954   2.129
28106W        W94647   2.758  22.146  12.661
28107W        W94648  42.672   5.287   1.774
28108W        W94649  34.489  10.171  11.895
28109W        W94650  26.670   7.188  14.940
28110W        W94651  23.561  18.515   0.675
28111W        W94652   0.020  23.738   4.724
28112W        W94653  30.013  37.806   1.541
28113W        W94654  17.559   2.307  14.145
28114W        W94655   8.403  35.216   0.655
28115W        W94656  22.631  14.166   3.708
28116W        W94657  21.191  17.523   9.965
28117W        W94658  11.695  26.447  13.903
28118W        W94659  39.076   1.765   4.517
28119W        W94660  23.969  11.148  14.261
28120W        W94661   5.461   8.854  12.991
28121W        W94662  25.943  35.165   3.674
28122W        W94663  13.600  14.198  13.643
28123W        W94664  44.549   9.245  10.649
28124W        W94665  36.283  20.149  13.532
28125W        W94666  34.895  21.021   1.922
28126W        W94667  18.032  33.113   2.139
28127W        W94668  20.686  28.892   0.243
28128W        W94669  40.882  31.084   4.692
28129W        W94670  39.398  33.561   1.752
28130W        W94671  33.681  39.587   2.179
28131W        W94672   2.176  23.315  13.879
28132W        W94673  12.911  32.043  10.762
28133W        W94674  26.950  27.538   4.327
28134W        W94675  39.398  10.125   0.585
28135W        W94676   0.856  44.642   3.380
28136W        W94677   2.466   4.521   3.775
28137W        W94678  13.074  17.655  12.565
28138W        W94679  43.448  35.939  10.653
28139W        W94680  40.867  26.570  10.654
28140W        W94681  44.088  32.759  11.153
28141W        W94682  32.899  27.264  13.498
28142W        W94683  28.533   8.192  12.012
28143W        W94684  30.313  41.364  10.027
28144W        W94685  32.285  35.766  10.260
28145W        W94686   5.300  26.706  11.655
28146W        W94687  19.641  44.919  12.098
28147W        W94688  33.175  42.913  12.134
28148W        W94689  40.340  23.844  11.724
28149W        W94690  35.558  18.648   0.930
28150W        W94691   0.271  12.507  11.170
28151W        W94692  16.055  40.289   1.270
28152W        W94693  12.818  38.793  13.314
28153W        W94694  14.428  11.157   4.026
28154W        W94695  31.887  31.893   1.802
28155W        W94696  22.484  18.454   1.851
28156W        W94697  15.056  29.738   3.674
28157W        W94698  25.736  43.777  10.858
28158W        W94699   6.438  12.391   4.198
28159W        W94700  33.154  18.551   3.161
28160W        W94701  31.620  35.994   1.445
28161W        W94702   2.432  37.926   3.349
28162W        W94703  28.211  38.992   1.946
28163W        W94704   3.404  43.778   3.679
28164W        W94705  39.069  41.965  12.615
28165W        W94706  36.964  12.963  10.875
28166W        W94707  16.679  28.158  12.602
28167W        W94708  29.598  16.121   3.247
28168W        W94709  25.734  19.197   4.495
28169W        W94710  40.766  10.535  11.943
28170W        W94711  17.156  25.143   4.561
28171W        W94712  34.654   0.601   0.226
28172W        W94713  31.896  21.371   3.251
28173W        W94714   2.040  33.099   0.346
28174W        W94715   7.172   5.982  14.166
28175W        W94716   2.312  19.747  13.577
28176W        W94717  22.505   8.207   4.566
28177W        W94718  37.266  42.418   1.431
28178W        W94719   2.207  18.648   1.950
28179W        W94720   9.606  26.695   1.014
28180W        W94721  26.511  30.834  13.040
28181W        W94722  40.292  25.138  14.568
28182W        W94723  13.171   4.370  14.312
28183W        W94724  22.021  29.923  13.664
28184W        W94725  24.023   6.467   1.714
28185W        W94726  23.024  26.417  12.513
28186W        W94727   6.249  40.284   3.106
28187W        W94728   9.554  21.732   0.283
28188W        W94729  33.931  22.451  12.110
28189W        W94730  40.431   7.244   3.661
28190W        W94731  17.992  32.792   0.857
28191W        W94732   6.304   9.686  11.965
28192W        W94733  18.640   4.376   0.260
28193W        W94734  35.187  13.650  11.654
28194W        W94735  43.033   2.419  14.014
28195W        W94736   3.471   9.685   3.877
28196W        W94737  34.341   8.632  11.075
28197W        W94738  31.980   0.831  11.541
28198W        W94739  14.283  36.019   0.744
28199W        W94740  35.593  44.151  13.937
28200W        W94741  30.728  36.971  10.544
28201W        W94742  28.952  42.582  10.577
28202W        W94743  41.803  12.166  11.379
28203W        W94744   7.805  43.436   0.846
28204W        W94745  17.822  31.019  14.571
28205W        W94746  12.419  34.989  10.450
28206W        W94747   7.644   1.796  14.686
28207W        W94748  40.868   8.420   4.069
28208W        W94749  31.032  32.805   4.428
28209W        W94750   9.200  39.012  13.448
28210W        W94751  26.021  42.174  11.711
28211W        W94752   8.076  17.808  10.670
28212W        W94753  27.468  15.171   2.384
28213W        W94754  43.302  14.866  14.881
28214W        W94755   7.829  26.404   5.958
28215W        W94756  34.693  35.167  13.344
28216W        W94757  23.759  16.822   1.856
28217W        W94758   7.649  41.137   3.071
28218W        W94759  19.292  36.762  13.894
28219W        W94760  30.959  19.570  12.291
28220W        W94761   1.483  34.858  11.503
28221W        W94762  27.876  34.053  13.233
28222W        W94763  39.956  35.664  14.501
28223W        W94764  43.267  18.639  13.484
28224W        W94765   1.818  26.911   0.854
28225W        W94766  18.216   3.243   0.530
28226W        W94767  35.651  36.814  13.102
28227W        W94768  38.482   9.006  13.416
28228W        W94769  14.280   1.539  12.529
28229W        W94770   7.478   5.780   2.431
28230W        W94771  14.592  26.207   1.403
28231W        W94772   3.971  25.995   2.743
28232W        W94773  18.040  30.323  12.454
28233W        W94774  12.263  15.668  14.928
28234W        W94775  21.055  10.112  12.205
28235W        W94776  14.530  19.461   0.063
28236W        W94777  30.361  10.256   2.281
28237W        W94778  13.187  38.645   1.449
28238W        W94779  23.806   7.295   1.946
28239W        W94780  33.446  25.503   2.790
28240W        W94781  31.857   4.489  14.425
28241W        W94782  14.288  28.640  10.766
28242W        W94783   2.416  20.967  11.568
28243W        W94784  28.590  34.859   1.667
28244W        W94785  10.687  25.709  13.378
28245W        W94786  44.999  14.348  12.895
28246W        W94787  34.526  37.965  13.849
28247W        W94788  38.867   8.700   3.853
28248W        W94789   6.020  32.033   0.707
28249W        W94790  13.223  20.240   0.451
28250W        W94791  39.334   5.777   4.745
28251W        W94792  34.165  23.472  13.011
28252W        W94793  17.590  13.817  14.979
28253W        W94794  14.224   9.486   0.863
28254W        W94795  40.862  30.518  14.340
28255W        W94796   3.751  28.793  12.614
28256W        W94797  22.578  15.286   2.018
28257W        W94798  38.296  18.105  12.528
28258W        W94799  41.072  37.808  14.959
28259W        W94800  43.235  12.950   9.867
28260W        W94801  19.705  31.086  14.855
28261W        W94802  13.315  25.001  12.071
28262W        W94803  15.735  39.970   3.068
28263W        W94804  27.307  28.929  13.041
28264W        W94805  38.971  39.337   1.721
28265W        W94806  10.714   4.301   4.632
28266W        W94807  32.591   7.639   4.764
28267W        W94808  16.203  37.978   2.444
28268W        W94809  31.122  21.047   9.676
28269W        W94810  26.437  39.801  13.753
28270W        W94811  32.513  28.865   0.322
28271W        W94812  32.288  37.459  12.299
28272W        W94813  27.238  19.537  10.511
28273W        W94814  22.615  38.948  10.392
28274W        W94815   1.783  12.836  14.398
28275W        W94816  16.202  16.292  11.928
28276W        W94817  34.928  32.835  13.936
28277W        W94818  28.524  15.125  12.004
28278W        W94819  22.002  19.137   2.376
28279W        W94820   8.633   9.798   0.852
28280W        W94821  43.302  27.594  14.010
28281W        W94822  21.125  10.157   2.189
28282W        W94823  40.053  22.744   4.360
28283W        W94824   4.189  42.886  12.934
28284W        W94825   0.832  23.673  12.574
28285W        W94826  26.624  33.119  13.170
28286W        W94827  28.727  34.240   1.481
28287W        W94828  43.516   3.765   2.861
28288W        W94829   5.831  23.931   4.883
28289W        W94830  32.017  22.292  10.324
28290W        W94831   3.238  42.835   1.448
28291W        W94832  32.423  19.216   0.423
28292W        W94833  37.530   9.455  13.404
28293W        W94834  22.463  29.523  14.376
28294W        W94835  18.053   6.179  12.102
28295W        W94836   8.881  30.101   4.785
28296W        W94837   3.889  41.948  13.865
28297W        W94838  39.232   4.787  12.436
28298W        W94839   4.007  38.015  14.279
28299W        W94840  28.976  10.074  12.460
28300W        W94841  43.542  34.120   2.663
28301W        W94842  37.015  35.464   2.200
28302W        W94843  17.141  43.986  14.843
28303W        W94844  40.378  35.885  14.307
28304W        W94845   0.060  20.823  10.700
28305W        W94846   9.873  31.639   0.788
28306W        W94847  36.823  30.057   1.863
28307W        W94848   6.447  33.978   2.747
28308W        W94849  43.932  44.542  12.495
28309W        W94850  41.152   3.681  13.927
28310W        W94851  14.622   6.045   2.826
28311W        W94852  17.805  11.256  11.006
28312W        W94853  11.490  10.378   3.566
28313W        W94854  22.123  32.089  12.415
28314W        W94855  41.578   1.941   4.557
28315W        W94856  37.459   9.174  14.705
28316W        W94857  26.962  12.027  13.998
28317W        W94858  29.927  13.767   1.235
28318W        W94859  28.003  35.590  11.270
28319W        W94860  23.598  34.418  10.741
28320W        W94861  31.371  41.918   3.829
28321W        W94862  12.695  22.672  10.818
28322W        W94863  35.939   5.156   1.276
28323W        W94864  25.646  31.073  11.465
28324W        W94865  12.577   0.517  13.582
28325W        W94866  26.139  24.167  14.720
28326W        W94867   2.057   3.281   2.283
28327W        W94868   4.395  15.850  13.900
28328W        W94869   4.284  34.379  11.499
28329W        W94870  36.955  23.695  11.087
28330W        W94871  10.581  18.198  13.843
28331W        W94872  23.256  19.622   0.293
28332W        W94873  15.888   8.727  10.663
28333W        W94874  11.383  11.255  13.957
28334W        W94875  20.212   0.631  11.446
28335W        W94876  19.139   4.199   2.236
28336W        W94877  24.019  32.008   4.380
28337W        W94878  10.547  13.161   1.898
28338W        W94879  34.030  40.567   4.688
28339W        W94880  17.323  24.910   3.152
28340W        W94881  25.103  20.098   2.390
28341W        W94882  30.453   3.256  13.980
28342W        W94883  38.306  23.899  14.221
28343W        W94884   7.826  44.729  14.809
28344W        W94885  22.508  16.139   1.429
28345W        W94886   6.003  29.695  11.969
28346W        W94887  37.870  30.119   4.165
28347W        W94888  39.631  43.518  12.240
28348W        W94889  18.207  12.583  12.820
28349W        W94890  36.397   4.244  11.658
28350W        W94891  42.803  23.126   4.850
28351W        W94892  30.122  10.725  13.303
28352W        W94893  23.526  27.956   1.781
28353W        W94894  32.993  26.868   4.547
28354W        W94895  40.731  14.561   1.800
28355W        W94896   3.257  18.337  10.553
28356W        W94897  14.153  10.309   3.993
28357W        W94898  23.106  21.195   2.667
28358W        W94899  33.893  11.709  10.210
28359W        W94900   1.165  30.115  10.338
28360W        W94901   4.236  19.305  12.088
28361W        W94902   9.313  44.838  14.057
28362W        W94903  19.776   0.514   2.745
28363W        W94904   8.929   2.279  11.978
28364W        W94905  24.687   2.322   0.463
28365W        W94906  22.032   2.656   5.037
28366W        W94907  41.254   3.859   2.945
28367W        W94908  31.901  39.803  14.111
28368W        W94909   0.814  36.339   4.238
28369W        W94910  34.348  10.372  12.347
28370W        W94911   6.963  25.174   1.671
28371W        W94912  30.836  28.050  12.108
28372W        W94913  31.318  37.859  12.940
28373W        W94914  42.838  43.799   2.282
28374W        W94915   4.395  20.161  12.529
28375W        W94916  14.732   8.260   2.743
28376W        W94917  37.820  28.006   4.591
28377W        W94918  25.854  34.364   2.263
28378W        W94919   0.266   2.402   4.642
28379W        W94920   8.731   2.456  10.671
28380W        W94921  26.576   4.783  12.891
28381W        W94922   7.389  33.264  13.000
28382W        W94923  33.069  28.976   0.477
28383W        W94924  34.100  20.653   3.610
28384W        W94925   5.560  21.101  14.843
28385W        W94926  21.633   7.457  14.769
28386W        W94927  42.393  13.060  12.534
28387W        W94928  39.805  30.736  11.947
28388W        W94929  27.128  30.387  10.709
28389W        W94930  35.905  29.874   2.067
28390W        W94931  39.302  28.628   1.937
28391W        W94932  41.463  22.716  12.474
28392W        W94933  25.095   8.995  13.420
28393W        W94934  13.789  14.101   1.941
28394W        W94935   2.183  36.990   3.234
28395W        W94936  25.205  15.587   0.298
28396W        W94937  19.179  36.766   2.622
28397W        W94938  35.927   3.930  12.378
28398W        W94939  33.271  38.934  10.143
28399W        W94940   2.356  44.994  10.718
28400W        W94941  26.138  27.959  12.549
28401W        W94942  22.109   2.900   0.300
28402W        W94943  19.241  14.872  12.045
28403W        W94944  16.437  36.761   3.218
28404W        W94945  25.986   7.959  13.506
28405W        W94946   2.954  18.259   4.166
28406W        W94947  11.768  43.486   4.842
28407W        W94948  25.049  17.589   0.288
28408W        W94949  31.903  43.238   4.863
28409W        W94950  35.028  36.399   4.331
28410W        W94951  32.291  24.307   3.284
28411W        W94952  36.018  27.573   0.272
28412W        W94953  24.576  11.129   0.807
28413W        W94954  11.750   9.974   0.468
28414W        W94955   3.878  23.513   4.107
28415W        W94956  11.235  29.583  10.543
28416W        W94957  42.842  24.682  13.652
28417W        W94958  21.121  43.639   2.085
28418W        W94959  31.584  38.000  11.980
28419W        W94960   6.168  24.019   4.506
28420W        W94961  17.885  24.295  13.604
28421W        W94962  26.107  25.675   1.774
28422W        W94963  35.993   6.962  13.913
28423W        W94964   5.756  40.405   3.325
28424W        W94965  29.915  39.401  13.751
28425W        W94966  43.731  32.153   0.334
28426W        W94967   5.324  10.422   0.477
28427W        W94968   7.768  14.051  11.686
28428W        W94969  43.321  35.788   3.394
28429W        W94970  12.336  17.730  11.452
28430W        W94971   5.802  43.713   3.265
28431W        W94972  39.146  27.927  10.175
28432W        W94973   8.011  43.469  11.109
28433W        W94974   0.004   2.355  12.991
28434W        W94975  17.851  25.609  11.586
28435W        W94976  14.720  27.158   0.764
28436W        W94977  25.256   3.586  14.286
28437W        W94978   9.098  28.417  14.988
28438W        W94979  19.014   4.691  11.536
28439W        W94980  10.595  32.075  11.153
28440W        W94981  34.589  25.103   3.107
28441W        W94982  28.891  17.316   4.288
28442W        W94983   1.096  43.416  11.662
28443W        W94984  29.081  21.122  13.079
28444W        W94985  42.247  39.594  12.516
28445W        W94986  22.513  34.163  12.185
28446W        W94987  11.246   7.855  13.914
28447W        W94988  21.526   9.771  11.209
28448W        W94989  21.809   0.959   1.361
28449W        W94990  31.655  35.996   4.598
28450W        W94991   1.745  27.507  13.013
28451W        W94992   9.362  17.340   1.550
28452W        W94993  43.962  32.019   4.156
28453W        W94994  14.698   0.446   2.442
28454W        W94995  15.801  39.085   1.850
28455W        W94996  40.881  24.708  13.077
28456W        W94997  18.768   4.883   4.182
28457W        W94998   7.358  29.689  13.430
28458W        W94999   3.894   2.209   1.879
28459W        W95000  32.363  32.217   1.014
28460W        W95001  41.774  25.347   1.108
28461W        W95002   9.413  34.510  14.532
28462W        W95003  29.589  29.943  14.806
28463W        W95004  22.334  30.984   4.005
28464W        W95005  27.452  40.380  11.389
28465W        W95006  23.663  20.095  12.155
28466W        W95007  27.592  40.781   3.358
28467W        W95008  14.886  29.272   3.777
28468W        W95009  27.195  38.931  11.084
28469W        W95010   8.827  31.871   3.716
28470W        W95011  21.110   2.839  11.231
28471W        W95012  37.498  23.855  14.543
28472W        W95013  12.238  38.319  11.065
28473W        W95014   1.910  28.577   1.874
28474W        W95015  26.505  30.820   4.823
28475W        W95016  30.512  36.983   4.632
28476W        W95017   7.472  28.960   1.331
28477W        W95018  31.227  23.055   4.292
28478W        W95019   7.758  19.042  11.616
28479W        W95020   6.279  24.906  12.149
28480W        W95021  34.140   2.992  12.174
28481W        W95022  21.902   0.933  12.928
28482W        W95023  22.110  11.820  14.932
28483W        W95024  20.643  11.400  12.023
28484W        W95025  40.994   2.929  11.487
28485W        W95026  40.898  10.099  11.069
28486W        W95027  27.811  28.443  13.389
28487W        W95028  33.987   5.346  12.389
28488W        W95029  10.746  13.047   0.996
28489W        W95030  27.917  15.821  11.983
28490W        W95031  12.912   8.459   4.271
28491W        W95032  12.020  12.986  10.364
28492W        W95033  12.004  27.225  10.255
28493W        W95034   4.955  13.733   4.197
28494W        W95035  44.608  28.116  12.013
28495W        W95036  22.502  16.671  13.848
28496W        W95037  20.715  10.229   4.458
28497W        W95038  29.987  10.607  11.666
28498W        W95039  38.827   8.477   1.793
28499W        W95040   7.704   6.893   4.016
28500W        W95041  38.551  31.554  14.504
28501W        W95042   2.908  23.099   4.192
28502W        W95043   5.787  33.399  11.421
28503W        W95044  38.503  22.845  12.916
28504W        W95045   1.481  18.232   0.267
28505W        W95046  10.704  18.296   2.846
28506W        W95047   7.409  16.564   4.621
28507W        W95048   3.742   4.285   0.460
28508W        W95049   3.376   4.603  14.584
28509W        W95050  34.001  23.957   3.162
28510W        W95051  44.401   4.691   1.868
28511W        W95052  42.949  44.917   1.681
28512W        W95053   5.209   4.629  13.943
28513W        W95054  27.142  41.184  11.425
28514W        W95055  32.914  25.522   2.798
28515W        W95056  18.781  26.178  14.782
28516W        W95057   5.742  27.723   4.132
28517W        W95058  34.079  20.698  13.320
28518W        W95059  13.787  13.704  13.767
28519W        W95060  24.034  20.145   1.651
28520W        W95061  27.988   0.836  12.887
28521W        W95062  20.296   2.842   3.132
28522W        W95063   0.949  38.511   1.356
28523W        W95064  16.188  15.286   2.669
28524W        W95065   6.230   0.449  12.625
28525W        W95066  43.970  17.672   2.374
28526W        W95067  28.760  36.815  11.851
28527W        W95068  25.666  32.622   2.224
28528W        W95069  33.356  41.501   0.189
28529W        W95070  30.981  35.499  11.974
28530W        W95071  44.932   4.526   3.642
28531W        W95072  34.812  34.032  10.720
28532W        W95073  31.106  10.699  14.505
28533W        W95074  40.939  18.716   0.969
28534W        W95075  29.742  38.013  14.478
28535W        W95076  10.223  36.159   0.349
28536W        W95077  39.885   1.453   2.339
28537W        W95078   7.841  22.967   4.227
28538W        W95079  13.450  10.786  14.513
28539W        W95080  26.705  22.482   1.793
28540W        W95081  39.277  28.122   0.874
28541W        W95082  36.732  14.811  12.632
28542W        W95083  24.010  19.107  13.015
28543W        W95084   8.773  32.093   0.617
28544W        W95085  36.414  29.498  13.846
28545W        W95086  26.432  18.264  13.052
28546W        W95087  34.546  11.707   3.910
28547W        W95088  23.493   4.316  11.637
28548W        W95089  36.651  16.676  11.250
28549W        W95090   8.497   9.859  12.362
28550W        W95091   9.835  17.035  13.282
28551W        W95092  12.730  32.076  14.886
28552W        W95093   5.868   2.025   3.494
28553W        W95094  35.895  37.296   2.674
28554W        W95095  11.656  31.426   0.488
28555W        W95096   1.922  33.586   4.496
28556W        W95097  34.676   9.788  13.099
28557W        W95098   5.389  40.330  10.985
28558W        W95099  16.331  37.887  11.599
28559W        W95100   2.065  24.614   2.745
28560W        W95101   9.777  11.096  12.067
28561W        W95102   2.854  27.015  14.555
28562W        W95103  24.693  33.409  10.800
28563W        W95104  31.152  24.405   4.281
28564W        W95105  39.628  40.961   2.425
28565W        W95106   2.001   6.890  14.566
28566W        W95107   9.168  15.442  13.708
28567W        W95108   6.871  33.142  12.090
28568W        W95109  26.913  26.869  12.107
28569W        W95110  28.948  30.054  12.391
28570W        W95111  37.584  35.381   4.167
28571W        W95112   6.182   8.329  14.030
28572W        W95113  16.089  30.018   1.921
28573W        W95114   3.629  29.060  13.051
28574W        W95115  38.849  43.256   4.910
28575W        W95116   6.111  19.061   4.793
28576W        W95117  11.778   8.898   4.129
28577W        W95118  25.175  37.939  14.407
28578W        W95119  18.548   3.360   2.042
28579W        W95120  43.165  10.429   3.554
28580W        W95121  36.592  27.089  11.502
28581W        W95122  31.303  24.711  12.616
28582W        W95123  33.485  29.110  12.560
28583W        W95124  26.250   1.854   3.665
28584W        W95125  17.494  34.240   5.027
28585W        W95126  21.997  18.709   1.841
28586W        W95127  20.103  17.575  13.786
28587W        W95128  21.210  20.152   1.871
28588W        W95129   6.358   6.337   1.825
28589W        W95130   8.809  25.145   3.746
28590W        W95131  40.504   6.918  14.428
28591W        W95132  24.926  10.090  12.091
28592W        W95133   6.634  24.969   2.871
28593W        W95134   0.483  26.703   1.688
28594W        W95135  13.107  13.692  10.944
28595W        W95136  28.776   8.695  14.287
28596W        W95137  32.603  24.582  12.909
28597W        W95138  10.146  11.913  10.975
28598W        W95139  10.893   8.091  13.487
28599W        W95140  29.925  21.458  11.547
28600W        W95141   7.506  36.342  14.750
28601W        W95142   5.325   5.193  12.244
28602W        W95143  37.752  31.164   0.011
28603W        W95144  38.040  16.784   2.881
28604W        W95145  31.969  36.039  11.191
28605W        W95146  22.326  19.840  12.437
28606W        W95147   6.165  37.060   3.652
28607W        W95148  38.751  32.681  11.048
28608W        W95149  10.683  24.714  11.587
28609W        W95150  23.264  10.575   0.268
28610W        W95151  18.190   5.218   1.902
28611W        W95152  33.102  43.763  14.266
28612W        W95153  32.037  31.985   4.038
28613W        W95154  20.682  17.624   4.223
28614W        W95155  17.214  44.992   4.593
28615W        W95156  23.675  22.766  14.937
28616W        W95157  35.802  13.771  13.285
28617W        W95158  35.917  13.225   4.012
28618W        W95159  29.359  35.840   2.281
28619W        W95160   0.536  36.572   3.819
28620W        W95161  40.720  33.041  11.075
28621W        W95162  28.215  27.002  14.454
28622W        W95163  35.357  25.542  13.333
28623W        W95164  11.721  14.976   0.644
28624W        W95165  11.607  29.386   0.484
28625W        W95166  41.785  15.177  14.987
28626W        W95167  20.155   6.278  14.304
28627W        W95168  41.434  26.026  11.649
28628W        W95169  11.796   3.899  10.700
28629W        W95170  32.404  12.833  14.465
28630W        W95171  22.248  34.412   3.279
28631W        W95172   1.338  12.388   2.712
28632W        W95173  18.221  37.574   1.573
28633W        W95174  12.786  41.415   0.850
28634W        W95175  25.937  35.279  14.368
28635W        W95176   6.636  10.503   1.875
28636W        W95177  35.617  36.230  11.283
28637W        W95178   5.350  22.106   4.641
28638W        W95179  37.022  35.161  14.314
28639W        W95180  33.412  43.786  14.876
28640W        W95181   5.640   4.213  13.433
28641W        W95182   2.344  29.678   9.918
28642W        W95183  23.990  30.387   0.912
28643W        W95184  31.943   0.297   4.638
28644W        W95185  34.496  27.255   1.433
28645W        W95186  22.303  31.523   0.955
28646W        W95187   7.274  22.955   1.070
28647W        W95188  29.036  29.393  14.379
28648W        W95189   1.068  33.573  11.553
28649W        W95190  35.338  26.258  12.508
28650W        W95191   7.750  23.716  13.824
28651W        W95192  18.423  24.537   4.072
28652W        W95193  18.094   3.872  13.118
28653W        W95194   7.022  31.721  12.525
28654W        W95195  38.088  31.167  13.449
28655W        W95196  18.647  28.648   1.354
28656W        W95197   2.022  37.971  11.672
28657W        W95198  28.454  38.876  10.447
28658W        W95199  30.778   5.365   3.371
28659W        W95200  31.677  32.004  14.501
28660W        W95201  19.040  12.635   1.332
28661W        W95202  16.011  35.570  10.717
28662W        W95203  44.927  26.026   1.912
28663W        W95204  18.525  23.682   3.713
28664W        W95205  14.671  30.699   2.719
28665W        W95206   4.409  20.023  13.407
28666W        W95207  26.923  21.451  12.097
28667W        W95208  33.548  43.554  14.431
28668W        W95209  17.220  44.178  13.487
28669W        W95210  40.912  34.671  10.815
28670W        W95211  12.843  23.031  11.946
28671W        W95212  30.009  19.439  10.763
28672W        W95213   6.104  13.271   1.877
28673W        W95214  25.526  39.483   2.711
28674W        W95215  25.677  22.247  12.317
28675W        W95216  34.474  31.262  14.075
28676W        W95217  43.947  39.846   3.802
28677W        W95218  31.571   3.892   0.207
28678W        W95219  38.929  34.106   2.911
28679W        W95220  24.020  24.815   1.727
28680W        W95221  33.041  42.005   0.992
28681W        W95222   2.799  18.763   4.134
28682W        W95223   8.272  25.551   1.111
28683W        W95224  34.655  44.687  13.938
28684W        W95225   1.277  32.877   1.747
28685W        W95226  35.506   5.265   5.060
28686W        W95227  23.583  27.085  10.581
28687W        W95228  15.675   5.468   5.162
28688W        W95229  11.929   5.362   3.642
28689W        W95230   7.369   9.738   2.463
28690W        W95231  32.991  40.471  11.045
28691W        W95232  34.965  22.662   1.703
28692W        W95233   0.673   8.455  14.477
28693W        W95234  11.388  43.834  14.912
28694W        W95235  17.613   9.398   2.197
28695W        W95236  36.008  24.611   1.406
28696W        W95237  43.815  33.588  10.644
28697W        W95238  43.548  15.941   4.675
28698W        W95239  25.048  30.495   2.285
28699W        W95240   8.417  33.557  11.164
28700W        W95241  38.827  22.157   2.945
28701W        W95242  28.475  12.014  10.006
28702W        W95243   9.602  43.913   2.314
28703W        W95244  29.952  37.996   2.385
28704W        W95245  27.044  13.749   4.365
28705W        W95246  24.750  27.307  13.046
28706W        W95247  32.514  39.179   4.355
28707W        W95248  22.565   1.511   2.183
28708W        W95249  22.032   1.240   3.401
28709W        W95250   3.768  12.833  13.391
28710W        W95251  13.753  34.031   0.825
28711W        W95252  43.329  13.801   1.656
28712W        W95253   0.527   1.650  10.063
28713W        W95254  21.777   2.897  14.316
28714W        W95255   6.206  30.988   4.058
28715W        W95256  10.350  17.770  14.042
28716W        W95257  19.643  32.871   3.848
28717W        W95258  40.400  31.615  12.991
28718W        W95259  39.477  31.109  10.692
28719W        W95260  11.681  31.912  10.019
28720W        W95261  14.416  30.941   2.131
28721W        W95262  36.630  29.044   1.982
28722W        W95263   4.789  35.979   4.618
28723W        W95264   6.469  16.730  10.987
28724W        W95265  40.908  35.079  14.751
28725W        W95266  33.553  34.404   1.047
28726W        W95267  29.589   2.401  13.135
28727W        W95268  20.007  12.321   3.619
28728W        W95269  22.095  21.255  11.442
28729W        W95270  35.298  12.159   3.674
28730W        W95271   8.731  26.340   4.804
28731W        W95272  40.282  27.181  12.097
28732W        W95273  42.779  15.604   1.852
28733W        W95274  26.936  41.200   1.755
28734W        W95275  36.179   4.931   0.451
28735W        W95276  36.253  28.974  14.869
28736W        W95277   6.637  11.115   0.342
28737W        W95278  34.519   1.812   2.836
28738W        W95279  22.598   7.621  13.012
28739W        W95280  14.435   5.707   0.448
28740W        W95281   6.678  18.033   2.364
28741W        W95282  22.534  20.688  12.441
28742W        W95283  42.279  33.120  13.541
28743W        W95284  14.559  29.116   0.951
28744W        W95285  26.594  12.204   1.668
28745W        W95286   8.603  16.639  14.852
28746W        W95287  26.890  10.909  14.831
28747W        W95288  42.488  26.220  12.231
28748W        W95289  32.954  21.474  12.537
28749W        W95290  23.539  23.698   4.110
28750W        W95291   5.335   5.951   0.457
28751W        W95292   9.687   5.253   1.145
28752W        W95293  21.088  36.047   3.661
28753W        W95294  10.233   9.120  10.682
28754W        W95295   5.335  42.530  10.987
28755W        W95296  38.801  21.125   0.220
28756W        W95297  30.693  34.399   3.021
28757W        W95298   1.499  14.343   3.387
28758W        W95299  29.037   7.990   4.260
28759W        W95300  42.283  24.756   3.686
28760W        W95301  17.791  35.832  10.600
28761W        W95302  31.812  35.540   3.241
28762W        W95303   8.275  34.466  14.368
28763W        W95304  28.121  22.770   3.417
28764W        W95305  43.845  22.262  14.032
28765W        W95306  32.173  36.564  12.017
28766W        W95307  16.675  12.615  10.626
28767W        W95308  17.520   0.625  13.124
28768W        W95309   6.236  27.418   0.981
28769W        W95310  27.982  41.542  11.159
28770W        W95311   8.656   4.797  11.484
28771W        W95312  34.128   8.231   3.385
28772W        W95313  43.416  33.389   3.167
28773W        W95314  13.683   6.338  12.415
28774W        W95315  35.063  37.481  12.682
28775W        W95316  32.356  17.212   1.967
28776W        W95317   6.589   0.302   9.981
28777W        W95318   6.835   6.316   1.555
28778W        W95319  12.487  44.517   4.631
28779W        W95320  14.677  29.645  10.234
28780W        W95321   7.882   0.325   1.650
28781W        W95322  24.041   0.793  11.188
28782W        W95323  20.216  43.261   0.252
28783W        W95324   2.094   7.465   0.253
28784W        W95325  13.864  28.832   2.397
28785W        W95326   0.531  31.925   2.634
28786W        W95327  33.220  13.751  11.549
28787W        W95328  36.435   6.255   1.935
28788W        W95329  42.929   8.791   3.892
28789W        W95330  38.440  24.745  12.970
28790W        W95331  37.788  26.149   4.646
28791W        W95332  38.108   1.916  12.028
28792W        W95333   7.243  17.664   2.775
28793W        W95334  41.947  44.745   1.997
28794W        W95335  36.864  19.754  12.998
28795W        W95336  24.351   6.344   5.044
28796W        W95337  24.851  39.904  10.641
28797W        W95338  15.719  34.604  13.742
28798W        W95339   7.694   0.288   2.584
28799W        W95340   8.902   6.427  12.614
28800W        W95341  18.579  37.959  11.953
28801W        W95342   9.226  39.122   1.926
28802W        W95343  16.342  28.648   1.970
28803W        W95344  33.753  18.057  11.161
28804W        W95345  25.182  31.331  11.550
28805W        W95346  17.466  12.893  13.381
28806W        W95347  26.001   0.614   0.386
28807W        W95348   6.255   2.993  13.929
28808W        W95349  25.056   4.945   1.882
28809W        W95350   1.743  26.230  10.999
28810W        W95351  32.167  25.203  12.943
28811W        W95352  37.332  41.980   0.762
28812W        W95353  14.348  15.633  14.393
28813W        W95354  21.544   0.787   2.826
28814W        W95355  23.706  39.536  12.934
28815W        W95356  15.338  41.010  11.561
28816W        W95357  38.465  26.459   2.352
28817W        W95358  21.121  34.626   2.829
28818W        W95359   9.906  10.311   2.093
28819W        W95360  18.470   8.191   3.867
28820W        W95361  26.489   3.848  13.882
28821W        W95362   9.840  11.232   1.711
28822W        W95363  19.518   0.146  15.000
28823W        W95364   0.833  25.069  13.212
28824W        W95365  41.655  41.383  11.732
28825W        W95366   7.205  42.336   4.149
28826W        W95367  11.795  31.994   1.683
28827W        W95368  39.176  31.373  13.872
28828W        W95369   9.917  43.290  11.626
28829W        W95370  44.924  20.685  14.786
28830W        W95371  21.960  39.144   3.337
28831W        W95372  20.117  25.159   3.079
28832W        W95373   9.261  12.900  12.890
28833W        W95374  10.202  13.279   4.228
28834W        W95375  40.489  40.552   3.658
28835W        W95376   8.070  15.340  14.745
28836W        W95377  22.240  28.973  11.108
28837W        W95378  22.817  25.498   1.343
28838W        W95379   6.832  43.913   3.365
28839W        W95380   2.861   3.991   2.211
28840W        W95381  29.187  14.733   2.825
28841W        W95382  39.479   0.460   4.064
28842W        W95383  13.276  44.754   2.726
28843W        W95384   7.156   8.387  11.577
28844W        W95385  17.422  42.977  12.878
28845W        W95386  31.975   7.899  14.104
28846W        W95387  34.254  44.257  12.100
28847W        W95388  36.482  35.995   3.274
28848W        W95389  11.805  41.008  11.060
28849W        W95390  33.918   6.404  11.022
28850W        W95391   3.674  27.458   0.800
28851W        W95392  28.338  36.590   0.160
28852W        W95393  29.402  32.988  10.906
28853W        W95394   0.998  42.467  14.879
28854W        W95395  17.956  21.420  13.018
28855W        W95396  29.127  15.683   5.137
28856W        W95397  44.497  30.627  14.716
28857W        W95398  40.444  20.603   4.086
28858W        W95399  32.669   6.401   4.064
28859W        W95400  15.658  27.369   3.838
28860W        W95401   5.926  40.470   2.363
28861W        W95402  39.467  10.845   9.901
28862W        W95403   2.386  38.962  14.878
28863W        W95404  36.506  14.098  13.690
28864W        W95405  34.199  25.912  10.643
28865W        W95406  31.015   9.779  12.706
28866W        W95407  28.472  30.006   3.814
28867W        W95408  11.584  44.105  12.002
28868W        W95409  20.631  39.836   0.115
28869W        W95410  20.045   9.036  13.925
28870W        W95411  31.864  15.459  11.146
28871W        W95412  22.048   1.183  13.413
28872W        W95413  44.387  27.720   4.803
28873W        W95414  32.426  27.662   2.182
28874W        W95415  43.656  29.970  12.846
28875W        W95416  18.560  20.517   4.813
28876W        W95417   4.994   4.534   3.082
28877W        W95418  17.845  22.561   4.161
28878W        W95419  16.972  39.912   3.866
28879W        W95420  40.296  20.571  12.454
28880W        W95421  22.881  23.721  13.535
28881W        W95422  11.849  13.391  14.705
28882W        W95423  22.371  24.527  14.775
28883W        W95424  35.012  11.797   5.194
28884W        W95425   8.830   6.809   3.675
28885W        W95426  29.617  28.736   2.354
28886W        W95427  27.790   0.221  12.487
28887W        W95428  20.314  31.381   3.270
28888W        W95429  27.885  40.991  14.271
28889W        W95430  44.866  10.114   4.118
28890W        W95431  34.936  12.653   2.666
28891W        W95432   9.476  37.030  13.444
28892W        W95433  26.435  34.521   3.094
28893W        W95434   4.352  28.543   0.427
28894W        W95435  20.195  43.813   3.778
28895W        W95436  42.579   3.974  11.509
28896W        W95437  27.280  37.798   0.884
28897W        W95438  23.035  15.324  13.508
28898W        W95439   7.223  39.454  11.715
28899W        W95440  20.495  21.605   2.444
28900W        W95441  42.296  42.887   1.829
28901W        W95442  28.503  37.009   4.479
28902W        W95443   4.746  26.319   5.365
28903W        W95444  37.057  31.642  11.590
28904W        W95445  32.864  12.588   0.371
28905W        W95446  20.141   0.194   1.359
28906W        W95447   4.973  41.930   4.532
28907W        W95448   9.864   6.511   3.898
28908W        W95449  24.278  26.146  12.922
28909W        W95450  33.102   3.641   2.426
28910W        W95451  11.326   4.324   1.958
28911W        W95452  12.847  42.943   4.218
28912W        W95453   5.724   7.322   0.819
28913W        W95454  39.441  31.524  13.431
28914W        W95455  31.220  33.443  11.190
28915W        W95456  26.957  29.920  10.562
28916W        W95457   2.316  39.294   3.692
28917W        W95458  28.098  22.147  14.008
28918W        W95459  35.779  15.407   3.280
28919W        W95460  28.116  31.862   4.655
28920W        W95461  32.686  42.881   0.812
28921W        W95462  36.367  19.038   1.493
28922W        W95463  19.709   6.929  12.010
28923W        W95464  39.397  35.803   4.538
28924W        W95465   9.344  29.507  14.173
28925W        W95466   1.758   9.231   2.669
28926W        W95467  17.217  20.990  11.668
28927W        W95468   2.218  11.390  11.080
28928W        W95469   0.974  39.006   2.635
28929W        W95470  41.267  22.138   0.308
28930W        W95471  25.524   6.955  13.035
28931W        W95472  30.914  22.605   0.829
28932W        W95473   5.727   9.799   4.209
28933W        W95474  18.168  31.221  12.955
28934W        W95475  40.749  30.614  12.101
28935W        W95476  16.493  23.654   4.483
28936W        W95477  41.113  21.372   4.222
28937W        W95478   7.756   6.349   4.059
28938W        W95479  42.032   2.878  10.705
28939W        W95480  40.713   2.641  11.992
28940W        W95481  31.812   7.688   2.745
28941W        W95482  25.663  11.393  11.476
28942W        W95483  31.506  11.029   2.724
28943W        W95484  22.544   8.938  10.993
28944W        W95485   0.735   0.794   0.213
28945W        W95486  25.636  25.979  12.483
28946W        W95487   1.457  14.711  14.212
28947W        W95488  21.525   0.004  11.638
28948W        W95489  25.177   4.602   4.364
28949W        W95490  27.137   1.320  14.256
28950W        W95491  24.382  42.884  12.510
28951W        W95492  21.095  42.800  14.520
28952W        W95493  18.605  36.948   0.899
28953W        W95494   1.225  25.031   4.220
28954W        W95495  34.804  24.304  13.837
28955W        W95496   1.705  27.919   9.863
28956W        W95497  37.140   2.285  11.014
28957W        W95498   0.928  41.313  10.727
28958W        W95499  16.916  26.101  12.538
28959W        W95500  15.821  20.444  14.193
28960W        W95501   7.146   4.315  12.486
28961W        W95502   7.289  42.221  13.594
28962W        W95503   0.854   9.784  10.972
28963W        W95504   5.847  31.413   3.151
28964W        W95505  33.146  25.726   2.362
28965W        W95506  32.965   3.296  12.089
28966W        W95507  10.624   7.828   1.667
28967W        W95508  13.050   9.331  13.987
28968W        W95509  40.794  20.222   4.569
28969W        W95510  31.030  44.020  14.857
28970W        W95511  35.030  34.876   1.342
28971W        W95512  33.596  11.565  14.869
28972W        W95513   7.983  37.544   1.398
28973W        W95514  34.811  22.289  14.206
28974W        W95515  22.673  10.600   3.350
28975W        W95516  23.911  19.321  11.546
28976W        W95517  43.383  17.030   9.653
28977W        W95518  42.849   1.410  12.748
28978W        W95519  26.030  24.724  11.553
28979W        W95520   4.387  28.504   2.942
28980W        W95521  18.625  12.873   3.204
28981W        W95522  12.857  28.987   0.412
28982W        W95523  38.952   4.692  12.870
28983W        W95524   0.943   7.326   1.813
28984W        W95525  17.683  39.074   1.831
28985W        W95526  37.198  13.780  14.896
28986W        W95527   4.539  11.379  14.506
28987W        W95528  42.290  40.036  12.161
28988W        W95529   4.813   0.846   1.633
28989W        W95530  36.901   4.857   0.000
28990W        W95531  13.219  37.077   4.297
28991W        W95532  20.508   3.760  10.911
28992W        W95533   4.601  41.548   4.721
28993W        W95534   6.518   3.207  10.242
28994W        W95535  44.905   5.953  12.025
28995W        W95536  29.908  20.159  11.915
28996W        W95537  39.221  31.126  12.022
28997W        W95538  24.124  43.324  11.164
28998W        W95539  24.011   7.664  12.868
28999W        W95540   9.347  11.633  13.438
29000W        W95541  31.699  23.179   3.952
29001W        W95542  30.617  15.375   3.026
29002W        W95543  38.098  21.038  13.852
29003W        W95544  21.478  10.624   4.237
29004W        W95545   8.126   4.688   3.675
29005W        W95546  31.095  24.706   4.712
29006W        W95547  18.749   6.289   4.612
29007W        W95548  15.311  16.201   0.452
29008W        W95549  28.417  30.454   3.510
29009W        W95550  22.556   2.525   4.153
29010W        W95551  22.697  12.087  12.040
29011W        W95552   6.884  32.920   4.572
29012W        W95553  37.875  28.479   2.855
29013W        W95554  26.962  44.958   1.052
29014W        W95555  37.062  28.874   2.884
29015W        W95556  44.408  19.201   4.544
29016W        W95557  15.149  27.563  14.403
29017W        W95558  33.401  14.685   0.039
29018W        W95559  31.258  35.602  10.847
29019W        W95560  35.368  17.055  10.743
29020W        W95561   1.673   6.997   2.526
29021W        W95562  22.989  41.519   1.861
29022W        W95563  43.917  33.378   1.231
29023W        W95564  43.302  18.207   4.932
29024W        W95565  40.742  21.318   0.304
29025W        W95566  11.218  44.811   4.068
29026W        W95567  11.593  25.155   2.661
29027W        W95568  32.487  33.822  11.148
29028W        W95569  22.110  38.283  11.935
29029W        W95570  36.939   6.936   1.185
29030W        W95571  41.424  43.826   3.014
29031W        W95572  41.895  13.133  12.625
29032W        W95573  11.784  42.975   4.819
29033W        W95574  23.091  26.602   1.893
29034W        W95575  39.034  43.753  13.941
29035W        W95576  32.939  24.110   0.896
29036W        W95577  25.451  43.930   1.194
29037W        W95578   7.706  12.810   2.347
29038W        W95579  37.560   8.165   2.236
29039W        W95580  38.566  22.301  13.960
29040W        W95581  23.236  29.985   0.135
29041W        W95582   2.207  11.696   0.250
29042W        W95583  13.362  40.588  13.330
29043W        W95584  22.446   6.740  13.238
29044W        W95585  35.497  20.623   4.759
29045W        W95586  35.634   2.765  11.144
29046W        W95587  29.095  42.599  11.607
29047W        W95588  22.723  18.724   3.119
29048W        W95589  36.375  21.240  12.571
29049W        W95590  21.038   0.160   0.418
29050W        W95591  22.618   5.516   3.801
29051W        W95592  25.752  29.958   3.897
29052W        W95593  37.396  15.952  13.561
29053W        W95594  10.561  10.687  14.326
29054W        W95595  15.301   5.883  13.054
29055W        W95596  11.372  36.359   2.825
29056W        W95597  15.218   9.179  13.786
29057W        W95598  14.553   3.269  13.469
29058W        W95599  10.763  20.987   0.222
29059W        W95600  13.132  39.894  11.004
29060W        W95601  21.449  42.770   3.624
29061W        W95602  16.328  32.598  12.069
29062W        W95603  43.789  28.508  10.573
29063W        W95604  44.804  21.593  11.898
29064W        W95605  29.483   0.049   2.916
29065W        W95606   4.419  15.857  10.860
29066W        W95607  20.350  20.213   3.758
29067W        W95608  12.230   0.328   0.088
29068W        W95609   4.038   3.896  10.241
29069W        W95610  21.320   5.513  13.043
29070W        W95611  25.712  27.492  11.918
29071W        W95612  20.733  27.119  11.082
29072W        W95613   5.851  43.249  11.391
29073W        W95614  23.877  35.953  12.395
29074W        W95615  22.061  17.532   0.430
29075W        W95616  44.595  16.716   4.996
29076W        W95617  36.932  35.836  11.252
29077W        W95618  15.523  12.658   3.164
29078W        W95619  28.199  40.426   2.213
29079W        W95620  11.584   1.394   0.867
29080W        W95621  36.116  29.910  13.862
29081W        W95622  43.934  11.909   4.165
29082W        W95623   1.764  29.503   1.974
29083W        W95624   3.410  36.160  14.358
29084W        W95625  11.377  38.948   4.263
29085W        W95626   2.256   4.901   2.894
29086W        W95627  39.349  38.667   4.277
29087W        W95628  26.707   7.925   0.967
29088W        W95629  33.057  15.766   3.123
29089W        W95630  30.952   6.888  13.074
29090W        W95631  35.053  23.270  13.879
29091W        W95632  39.415  16.545   2.206
29092W        W95633  22.954  11.261   0.000
29093W        W95634  16.296  30.187   0.141
29094W        W95635  18.587  38.820   3.146
29095W        W95636  33.216   5.435  13.785
29096W        W95637  23.748  22.532  13.555
29097W        W95638   0.275  40.112  11.378
29098W        W95639  43.936  32.418   3.305
29099W        W95640   6.356   4.205   4.570
29100W        W95641  14.571   7.776   2.905
29101W        W95642   0.290  27.091  14.796
29102W        W95643   5.271   3.809   2.658
29103W        W95644  21.212  37.327   2.638
29104W        W95645  17.777   0.820   3.132
29105W        W95646  17.757   0.844  13.564
29106W        W95647  42.136  42.092   4.142
29107W        W95648  39.802  40.463   1.451
29108W        W95649  43.039   5.270   3.895
29109W        W95650  21.926  26.853  14.711
29110W        W95651  19.785  34.863   3.107
29111W        W95652  13.772  25.740   1.448
29112W        W95653  32.845  36.968   4.540
29113W        W95654  40.316  22.923   0.393
29114W        W95655   5.362  12.925   0.941
29115W        W95656  27.591  43.006   4.312
29116W        W95657  44.489  41.991   2.154
29117W        W95658   2.268  42.335   4.582
29118W        W95659  27.921  20.552   1.857
29119W        W95660  17.472  18.200   4.536
29120W        W95661  40.576  34.799   0.025
29121W        W95662  10.785  30.421   4.101
29122W        W95663   9.913  43.109  11.113
29123W        W95664  13.402  43.822  13.040
29124W        W95665  20.203  22.790  13.491
29125W        W95666   5.282  34.093   0.952
29126W        W95667  28.205  41.003  12.024
29127W        W95668  42.436  41.394   2.563
29128W        W95669  40.705  40.800  13.029
29129W        W95670  31.034  37.445  13.106
29130W        W95671   2.910  32.890   4.149
29131W        W95672  33.678  41.205   1.202
29132W        W95673   5.925  29.849  10.154
29133W        W95674  13.522   0.561  10.299
29134W        W95675  32.447  22.499   2.909
29135W        W95676  20.771  10.831  14.329
29136W        W95677  33.025  35.477   2.891
29137W        W95678  28.405  21.545   3.739
29138W        W95679  21.265  10.804   3.296
29139W        W95680  15.218  16.815  12.808
29140W        W95681  26.201  17.830   0.882
29141W        W95682  13.858  24.790   1.777
29142W        W95683  37.406   2.289   0.295
29143W        W95684  33.068  10.238   3.196
29144W        W95685   1.959  25.862   4.540
29145W        W95686  35.205   2.425  13.803
29146W        W95687  17.480   5.816   0.392
29147W        W95688   9.693  23.631   2.722
29148W        W95689  18.745  41.967  13.566
29149W        W95690   6.391  11.854   1.659
29150W        W95691  28.639  38.929  10.962
29151W        W95692  33.388  14.281   1.333
29152W        W95693   8.602  12.764   0.309
29153W        W95694  43.710   5.623   4.561
29154W        W95695  27.074  23.703   1.895
29155W        W95696   0.336  44.456   4.157
29156W        W95697   1.483  17.602  11.064
29157W        W95698   8.665  36.857   0.946
29158W        W95699  31.237  34.195   0.588
29159W        W95700  13.139  29.676  14.426
29160W        W95701  17.567  41.053  12.399
29161W        W95702  15.532  29.023   4.545
29162W        W95703  12.044  27.017   0.966
29163W        W95704  25.110   1.824  12.165
29164W        W95705  24.679  22.761  14.781
29165W        W95706  34.552   5.233   2.713
29166W        W95707   1.678  39.434   2.005
29167W        W95708  10.032  36.745  14.919
29168W        W95709   9.677  27.634   4.062
29169W        W95710  14.136  32.999  10.644
29170W        W95711  18.272  17.051   1.271
29171W        W95712  17.201  43.228   0.271
29172W        W95713   8.033  29.180   3.462
29173W        W95714  17.265  33.846  14.278
29174W        W95715  21.654  26.244  11.797
29175W        W95716  39.765  24.743   4.101
29176W        W95717  32.007   8.899   9.636
29177W        W95718  19.986  16.276  10.856
29178W        W95719  23.730  43.743  12.835
29179W        W95720   2.821  16.249  14.485
29180W        W95721  23.248  40.844   4.404
29181W        W95722  27.659  24.540  13.829
29182W        W95723  14.026  14.566  14.365
29183W        W95724  32.528  19.234  14.108
29184W        W95725  29.189  31.015  11.155
29185W        W95726   2.801  20.181  10.724
29186W        W95727   6.175  40.456  13.989
29187W        W95728  29.453  25.909  12.614
29188W        W95729   2.384   2.275  13.012
29189W        W95730  39.360  12.162   0.503
29190W        W95731   1.331  34.038  11.436
29191W        W95732  21.636   2.768   0.812
29192W        W95733  22.277  28.776   4.243
29193W        W95734   2.840  44.509  11.937
29194W        W95735   7.379  36.553  12.925
29195W        W95736  40.231  42.114   3.788
29196W        W95737  19.155  29.654  14.853
29197W        W95738  27.515   9.702  12.500
29198W        W95739   5.934  37.370  14.256
29199W        W95740  29.953  21.448   1.681
29200W        W95741  36.708  39.033   2.182
29201W        W95742  33.302   3.829  12.968
29202W        W95743  31.967  36.850   2.416
29203W        W95744  22.120  39.614   3.418
29204W        W95745   6.535  42.833  10.784
29205W        W95746  27.015  12.172  10.162
29206W        W95747  11.360  10.747  13.898
29207W        W95748  43.267   0.361  11.573
29208W        W95749  33.489  39.930   3.301
29209W        W95750  10.667  31.351   2.335
29210W        W95751   1.331  41.337   4.625
29211W        W95752   4.532  39.645  14.987
29212W        W95753   3.016   7.235   1.465
29213W        W95754  17.347  27.601  12.094
29214W        W95755  22.674  19.106  14.754
29215W        W95756  14.085  13.690   1.238
29216W        W95757  40.165  24.061  13.701
29217W        W95758   3.233  44.519   1.356
29218W        W95759  36.415  42.021   3.226
29219W        W95760  30.649  32.398   1.613
29220W        W95761  36.028  11.993   2.281
29221W        W95762  21.186  31.582   2.951
29222W        W95763  27.178  39.220  10.643
29223W        W95764  44.877  15.358   0.251
29224W        W95765   6.238  30.571   3.164
29225W        W95766   4.012  15.759   4.148
29226W        W95767  14.546  11.144   4.528
29227W        W95768   7.287  11.150  13.151
29228W        W95769   5.354  44.929  12.351
29229W        W95770  42.029  26.980   4.863
29230W        W95771   5.623  32.480  10.018
29231W        W95772  19.749  37.840   1.640
29232W        W95773  40.329  37.144  12.162
29233W        W95774  18.511  42.032   4.096
29234W        W95775  30.186  23.955  11.729
29235W        W95776   6.773  23.031   0.907
29236W        W95777   6.770  28.784   3.038
29237W        W95778  23.652   9.323   9.647
29238W        W95779   0.861  13.368  13.566
29239W        W95780  31.604  35.335   2.145
29240W        W95781   5.616  39.791  11.834
29241W        W95782  29.196  18.258  11.557
29242W        W95783  22.292  36.602  12.614
29243W        W95784   9.340   8.806   3.564
29244W        W95785  16.119  35.296  11.650
29245W        W95786   0.429   8.152  13.490
29246W        W95787  16.230  43.997   0.027
29247W        W95788   5.286   0.270  12.909
29248W        W95789  35.052  30.944  14.598
29249W        W95790  16.170  35.607  12.605
29250W        W95791   6.792  18.111  12.608
29251W        W95792   8.458  20.112  10.633
29252W        W95793  12.176  32.131   2.350
29253W        W95794  29.398   8.205   0.849
29254W        W95795  16.540  27.446   3.341
29255W        W95796  28.931   1.719   3.116
29256W        W95797  11.210  40.853   1.482
29257W        W95798  38.766   9.702   3.813
29258W        W95799  12.790  24.676   0.071
29259W        W95800   4.651  22.636   0.216
29260W        W95801  42.323  13.939   0.199
29261W        W95802  25.244  24.218   3.109
29262W        W95803  36.286   5.522   0.499
29263W        W95804  33.441   8.978  12.627
29264W        W95805  16.263  36.426   2.883
29265W        W95806   8.928   4.267   3.439
29266W        W95807  15.191  35.831   0.816
29267W        W95808  43.064  42.578   3.673
29268W        W95809  20.566   9.481  13.325
29269W        W95810  36.058  16.061   2.295
29270W        W95811   9.797  27.734   1.696
29271W        W95812   4.490  18.671   2.357
29272W        W95813  20.646  40.970   4.411
29273W        W95814  15.345   4.855   3.842
29274W        W95815  14.589  13.380  14.147
29275W        W95816  35.514  14.677   1.953
29276W        W95817  28.489  12.253   2.035
29277W        W95818  16.954  32.639   1.454
29278W        W95819  27.532   8.408   3.879
29279W        W95820  43.428  22.121   4.620
29280W        W95821  32.853  18.146   3.315
29281W        W95822  40.822  29.094   0.332
29282W        W95823  17.842  39.847   2.398
29283W        W95824   3.744  37.060   4.126
29284W        W95825  13.371  41.366   3.702
29285W        W95826  13.536  12.234   1.433
29286W        W95827  31.460   3.498  14.256
29287W        W95828  41.714   3.276   5.009
29288W        W95829  16.451  11.299   4.079
29289W        W95830  40.395   4.200   0.897
29290W        W95831  13.943   1.497   0.252
29291W        W95832   7.255  25.073  11.366
29292W        W95833  27.894  27.160   1.452
29293W        W95834   6.905  44.755  11.239
29294W        W95835  33.499  34.520   1.619
29295W        W95836  43.328  18.678   2.652
29296W        W95837  28.813   0.375   0.524
29297W        W95838  32.496  31.447  13.804
29298W        W95839   7.306   3.151   1.084
29299W        W95840  38.017   1.720   3.861
29300W        W95841  26.592  31.434   4.665
29301W        W95842  17.257  19.036   2.864
29302W        W95843  28.878  41.351   2.706
29303W        W95844  27.903  34.995   0.498
29304W        W95845  26.748  10.256  14.334
29305W        W95846  23.010  33.726   2.202
29306W        W95847  38.062  41.847  11.552
29307W        W95848  32.414   6.217   3.167
29308W        W95849  13.136  38.451  10.448
29309W        W95850  29.852  20.577   0.901
29310W        W95851  19.704  20.408  10.953
29311W        W95852  18.563  33.797   2.573
29312W        W95853  23.158  14.064  14.227
29313W        W95854   4.266  43.055  11.945
29314W        W95855   5.004  37.515   1.174
29315W        W95856  33.148   0.879  10.639
29316W        W95857  29.808  20.059  11.350
29317W        W95858  23.098   3.469   1.290
29318W        W95859  22.059  28.163  10.717
29319W        W95860  22.023  43.727  13.408
29320W        W95861  40.075  24.709  12.228
29321W        W95862   4.339  29.764  11.463
29322W        W95863  18.375  17.750  11.112
29323W        W95864   6.761   9.600   4.875
29324W        W95865  18.020  22.670  12.486
29325W        W95866   5.656  28.490  13.572
29326W        W95867  10.206  21.582  12.444
29327W        W95868  21.499  27.216   0.887
29328W        W95869  34.547  19.071  13.847
29329W        W95870   2.198  32.877   1.720
29330W        W95871  32.559   7.967   1.141
29331W        W95872  23.166  16.198   1.247
29332W        W95873  32.985  16.664  13.590
29333W        W95874   5.763  34.223   2.255
29334W        W95875  31.649  13.979   2.833
29335W        W95876   0.249   6.489  13.900
29336W        W95877  16.989  37.767  10.320
29337W        W95878  42.993  38.561  13.129
29338W        W95879  12.231  22.400  10.809
29339W        W95880  15.992  14.900   1.702
29340W        W95881   5.803  38.248   2.445
29341W        W95882   9.328  14.638  11.680
29342W        W95883   6.837  15.720  14.204
29343W        W95884   1.326  18.303   1.585
29344W        W95885  21.637  43.594  10.685
29345W        W95886  25.592  33.700   1.834
29346W        W95887   3.204  32.874  12.418
29347W        W95888   7.230  18.823  10.742
29348W        W95889  29.516  35.466  11.188
29349W        W95890  35.652  16.656   3.662
29350W        W95891   5.890   4.541  12.882
29351W        W95892  15.684  29.192   2.454
29352W        W95893   9.225  25.411  14.296
29353W        W95894  15.223  37.612  11.542
29354W        W95895  42.258  41.921  14.954
29355W        W95896  15.119  17.066   2.658
29356W        W95897  12.273   7.911  11.231
29357W        W95898  37.527   2.256  12.607
29358W        W95899  39.921  32.609  14.818
29359W        W95900  42.036  24.695   3.228
29360W        W95901  11.917  44.028  14.113
29361W        W95902  39.584  17.525   3.197
29362W        W95903  11.284  16.662  11.831
29363W        W95904  13.613  22.511  10.724
29364W        W95905  32.460  12.777   3.332
29365W        W95906  32.150  39.025   2.691
29366W        W95907  13.710  30.904   3.660
29367W        W95908  37.831  28.933   3.696
29368W        W95909  44.249  37.069  10.741
29369W        W95910  35.143  44.970   1.534
29370W        W95911   7.565  40.530   0.400
29371W        W95912  34.758   3.287   1.329
29372W        W95913   0.665  14.010  11.646
29373W        W95914  14.054  18.359   1.210
29374W        W95915  19.874  27.979  14.910
29375W        W95916  36.247   8.608   4.423
29376W        W95917  18.833   3.254  13.887
29377W        W95918  34.451  28.540   2.916
29378W        W95919   5.339  23.589   1.378
29379W        W95920  35.559  28.706  10.807
29380W        W95921  19.743  37.076  10.701
29381W        W95922   9.715   5.696   1.392
29382W        W95923  20.209   5.166   2.205
29383W        W95924  20.585   3.037   1.340
29384W        W95925  31.243  12.961  10.713
29385W        W95926  31.144  25.952  11.576
29386W        W95927   5.624  24.132  14.915
29387W        W95928   0.419  28.968  14.910
29388W        W95929  42.257  35.653  13.802
29389W        W95930  22.025  35.890   1.424
29390W        W95931   0.771  19.936  11.615
29391W        W95932  10.762  19.058   3.272
29392W        W95933  17.198  21.794   4.146
29393W        W95934   5.312  23.730  13.948
29394W        W95935  38.120  36.922   4.336
29395W        W95936  31.164   1.461   2.301
29396W        W95937  44.430  17.722   2.935
29397W        W95938   2.883  20.671   3.610
29398W        W95939   0.487  12.677  13.746
29399W        W95940  29.441  18.411  13.392
29400W        W95941  20.300  19.322   0.910
29401W        W95942  13.566  41.100  14.328
29402W        W95943  43.553  28.099  13.034
29403W        W95944   3.909   7.786  11.174
29404W        W95945  20.432  23.788  11.637
29405W        W95946  23.514  13.037   2.794
29406W        W95947  40.234   5.935   3.763
29407W        W95948  22.654   9.530   4.225
29408W        W95949  21.268   6.227  13.511
29409W        W95950   5.399  33.103   1.547
29410W        W95951   2.651  34.427  10.631
29411W        W95952  10.064   9.266   4.393
29412W        W95953  37.759  34.716  12.022
29413W        W95954  23.938  11.271  13.758
29414W        W95955  14.737  12.877  11.511
29415W        W95956  38.597  13.651   1.758
29416W        W95957  36.287   9.517  13.480
29417W        W95958  41.319  15.152   0.185
29418W        W95959  28.624  33.141   4.580
29419W        W95960  35.527  10.241  12.430
29420W        W95961  21.384  14.186  11.127
29421W        W95962  21.099  40.608  12.855
29422W        W95963  41.409  21.788   4.261
29423W        W95964   3.459  21.230  12.562
29424W        W95965  10.702  31.735   1.404
29425W        W95966  29.587   9.220  10.480
29426W        W95967   9.132  29.077   0.407
29427W        W95968  37.534  40.148  14.503
29428W        W95969   0.302  44.255   4.636
29429W        W95970   7.203  43.390   2.231
29430W        W95971  19.626  19.519   2.398
29431W        W95972  43.815  36.200   4.056
29432W        W95973  12.898  11.637   0.960
29433W        W95974  38.823  40.828  11.439
29434W        W95975  17.279  19.744  12.120
29435W        W95976  30.480  27.427   3.648
29436W        W95977  34.832  21.259   0.206
29437W        W95978  28.049  25.695  10.685
29438W        W95979  40.361  23.559   2.655
29439W        W95980  42.454   2.554  11.939
29440W        W95981  40.359  29.988   0.178
29441W        W95982  43.956   0.598  12.139
29442W        W95983  12.706  40.827   0.817
29443W        W95984  36.534  33.135  11.496
29444W        W95985  25.146  23.011  10.417
29445W        W95986  14.912  20.210   2.293
29446W        W95987  16.471  33.779  12.926
29447W        W95988  23.633  37.507  12.686
29448W        W95989  37.355  32.097   4.764
29449W        W95990   3.058   7.115   0.435
29450W        W95991  17.793  40.646  10.536
29451W        W95992  12.732  43.368   0.986
29452W        W95993  26.281   4.226   5.060
29453W        W95994  23.017  11.190  13.849
29454W        W95995  39.396   4.150   2.836
29455W        W95996  26.509  32.748   3.380
29456W        W95997  21.715  41.367  11.584
29457W        W95998   7.613  14.712  14.486
29458W        W95999  28.105   3.200  12.526
29459W        W96000  31.175   5.412  12.984
29460W        W96001  33.977  32.729  10.893
29461W        W96002  19.605  11.173   0.699
29462W        W96003  18.475  11.288  11.689
29463W        W96004   8.307  18.758  14.356
29464W        W96005  25.340  25.577  11.180
29465W        W96006  33.582  23.161  14.297
29466W        W96007  35.405  18.052  10.566
29467W        W96008  30.702  16.087  11.952
29468W        W96009  24.123  33.380   3.632
29469W        W96010  20.763  43.661  12.919
29470W        W96011  24.407  39.914  14.033
29471W        W96012  16.579  12.469   5.021
29472W        W96013  21.460  23.845   0.811
29473W        W96014  20.019  29.515  12.415
29474W        W96015   1.904  10.697   0.999
29475W        W96016  12.322  13.126   2.636
29476W        W96017  11.821  35.487   2.440
29477W        W96018  19.988  23.152   3.066
29478W        W96019  20.590   4.170   4.094
29479W        W96020   8.583  23.398  12.567
29480W        W96021  28.162  33.127   9.851
29481W        W96022  19.009   1.896  10.267
29482W        W96023  18.780  16.872   0.930
29483W        W96024  34.996  17.804  11.476
29484W        W96025  32.549  26.501   3.666
29485W        W96026  10.304  22.424  12.600
29486W        W96027   9.217  38.126  14.980
29487W        W96028  37.471  29.598  11.598
29488W        W96029  10.395  29.132  12.390
29489W        W96030  38.880   7.418   3.761
29490W        W96031  19.789  16.569  14.482
29491W        W96032  43.769  19.697  14.068
29492W        W96033  36.354   1.953  14.505
29493W        W96034   9.379  11.422  14.324
29494W        W96035  35.934   6.186   1.260
29495W        W96036  30.382   4.004  11.017
29496W        W96037  34.864   4.675   1.186
29497W        W96038   0.426   1.133  11.528
29498W        W96039  41.015   3.646   3.881
29499W        W96040  30.678  39.511  11.593
29500W        W96041  26.526   5.176  13.354
29501W        W96042  28.007  33.842  13.716
29502W        W96043  41.037  28.378   2.298
29503W        W96044  32.547  25.021  12.617
29504W        W96045   4.179  25.856   4.127
29505W        W96046  29.867  27.520  14.760
29506W        W96047   0.218  36.436  12.996
29507W        W96048  22.457  15.584  13.868
29508W        W96049  12.235  27.743   4.588
29509W        W96050  44.784   8.760  14.000
29510W        W96051  39.491  25.285   3.344
29511W        W96052  25.070  44.419  10.580
29512W        W96053   3.353   2.194   2.775
29513W        W96054  31.776  42.093  12.952
29514W        W96055   2.650  17.396   0.944
29515W        W96056  27.252  21.184  13.430
29516W        W96057  18.571  36.104  14.938
29517W        W96058  15.115  34.115   3.740
29518W        W96059   8.980  42.536   0.505
29519W        W96060  42.517  14.258  13.799
29520W        W96061   4.012  13.324  14.911
29521W        W96062  44.554  37.347  13.027
29522W        W96063   0.904  24.161   1.419
29523W        W96064  38.906  30.417  11.643
29524W        W96065  31.935  10.180  14.962
29525W        W96066  10.889   4.971   0.800
29526W        W96067  24.637  22.933   0.891
29527W        W96068  31.476  29.438  12.020
29528W        W96069  22.682  12.549   0.348
29529W        W96070  13.114  40.404   4.533
29530W        W96071  17.796  13.636  11.726
29531W        W96072  40.352  33.888  10.651
29532W        W96073  42.792  29.529  13.857
29533W        W96074  39.238  43.814  13.466
29534W        W96075  15.168  36.093  11.119
29535W        W96076   0.814  15.293  13.301
29536W        W96077  12.657   5.166   3.348
29537W        W96078  41.997  22.567  13.794
29538W        W96079  27.162   2.758   4.787
29539W        W96080   0.354  28.898  11.182
29540W        W96081   4.588  26.971   2.358
29541W        W96082   4.955  16.065  12.037
29542W        W96083  15.135  19.728  12.458
29543W        W96084  29.595  42.977  13.806
29544W        W96085  10.223  35.758  12.187
29545W        W96086   6.714   0.926   0.471
29546W        W96087   0.238   3.461   0.771
29547W        W96088  39.480  33.799  12.058
29548W        W96089  12.819  35.310   0.906
29549W        W96090  33.134  38.875  11.653
29550W        W96091  40.518   5.976   3.295
29551W        W96092  40.897  19.644  14.518
29552W        W96093  38.967  26.473   2.197
29553W        W96094  44.181   9.555   0.859
29554W        W96095  31.893  14.889   4.224
29555W        W96096   2.762  37.499  14.081
29556W        W96097   7.823  40.925   0.193
29557W        W96098  31.177  40.959  14.760
29558W        W96099  27.137  26.931   1.970
29559W        W96100  36.393   1.731   3.580
29560W        W96101  11.864  28.982  13.392
29561W        W96102  41.056  28.934  14.840
29562W        W96103   5.402  32.331  12.210
29563W        W96104   6.405  42.355  12.849
29564W        W96105  18.231   1.201   2.438
29565W        W96106  25.354  14.337  12.867
29566W        W96107   0.165  25.217   1.028
29567W        W96108  23.478  28.913  13.825
29568W        W96109  25.322   4.084  14.369
29569W        W96110   3.395  40.033   4.314
29570W        W96111  39.037   9.647  11.172
29571W        W96112   0.363  12.837   1.894
29572W        W96113   3.204  28.941  14.041
29573W        W96114  31.992   0.729   1.965
29574W        W96115  15.213  34.112   2.541
29575W        W96116  40.994  11.422  11.593
29576W        W96117  26.844  31.016   2.604
29577W        W96118  12.455  39.473  13.417
29578W        W96119  28.059  31.154  10.267
29579W        W96120  38.138   1.348  13.274
29580W        W96121  38.586  35.870   1.327
29581W        W96122  22.143   8.445  14.389
29582W        W96123  34.230  23.120   4.232
29583W        W96124  13.350  40.654   2.331
29584W        W96125   2.020   9.227  10.791
29585W        W96126  17.677  10.982  11.898
29586W        W96127  17.802  35.445  14.642
29587W        W96128  37.281  32.605   0.266
29588W        W96129  17.180  22.250  13.450
29589W        W96130  11.838  27.033  11.536
29590W        W96131  20.328  37.998  13.044
29591W        W96132  18.624  27.288  10.459
29592W        W96133  29.633  34.370   1.336
29593W        W96134   5.590  13.202   3.640
29594W        W96135   4.016  40.591  10.076
29595W        W96136  19.106  37.172   0.745
29596W        W96137  38.971  30.339  14.908
29597W        W96138  40.372  16.525  10.573
29598W        W96139   1.804  21.599   3.663
29599W        W96140  21.516  31.009   4.305
29600W        W96141   7.878  35.318   3.446
29601W        W96142  21.736  25.132  14.654
29602W        W96143  33.929  28.925  10.410
29603W        W96144  27.451   6.271   0.494
29604W        W96145   4.236  44.925  11.875
29605W        W96146  21.748  21.380  10.767
29606W        W96147  25.236  14.243   2.132
29607W        W96148  23.659   3.877  11.459
29608W        W96149  17.577   1.883   3.208
29609W        W96150  12.771  32.508  13.741
29610W        W96151  10.091  44.434  14.743
29611W        W96152  13.327  39.320  14.912
29612W        W96153  15.034  41.393   1.623
29613W        W96154   1.007  34.053   0.455
29614W        W96155  29.788   8.725   4.639
29615W        W96156  14.562  16.070  11.623
29616W        W96157  21.347   2.418   2.581
29617W        W96158  22.504  19.924   0.177
29618W        W96159   7.716  28.353   3.279
29619W        W96160   4.985  18.706   2.219
29620W        W96161  23.649  29.956  11.486
29621W        W96162   7.183  22.768  13.869
29622W        W96163   3.662  40.559  12.503
29623W        W96164  35.856   5.377   9.527
29624W        W96165   2.883   0.863   2.607
29625W        W96166  43.460   0.835  10.545
29626W        W96167   1.014   2.279   4.209
29627W        W96168  38.236   0.025  14.886
29628W        W96169  44.280  41.050   1.973
29629W        W96170  22.471  15.889  11.548
29630W        W96171  28.208  17.890   2.653
29631W        W96172  43.799  25.689  11.931
29632W        W96173   7.232  34.992  14.536
29633W        W96174  19.281  18.715  11.731
29634W        W96175  20.550   5.734  11.321
29635W        W96176  31.964  11.154  13.312
29636W        W96177  13.307   8.398   0.414
29637W        W96178   5.816  40.696   0.783
29638W        W96179  32.417   7.591  11.361
29639W        W96180  22.102  32.009   3.077
29640W        W96181   0.275  34.966  11.004
29641W        W96182  15.630  34.723   4.081
29642W        W96183  28.095  13.019   3.996
29643W        W96184  34.571  43.571  11.462
29644W        W96185  13.667   7.653   4.041
29645W        W96186   2.463  33.658   5.732
29646W        W96187  28.060  37.048  12.418
29647W        W96188  12.101  23.902   2.730
29648W        W96189  36.458   2.867   2.954
29649W        W96190  17.919  38.853   0.780
29650W        W96191  40.805  34.407   2.344
29651W        W96192   4.902  34.500   2.422
29652W        W96193  22.982   4.260   4.971
29653W        W96194   3.742  31.442  13.495
29654W        W96195  40.587  32.925   1.340
29655W        W96196  28.182   8.296  12.355
29656W        W96197  38.006  26.059  11.748
29657W        W96198  40.841  32.112  10.687
29658W        W96199   8.871   3.849   0.241
29659W        W96200  24.203  29.055  11.147
29660W        W96201  18.119  36.847  12.926
29661W        W96202  15.755   5.043   1.919
29662W        W96203  15.693  42.049  11.166
29663W        W96204  17.797  33.923   0.605
29664W        W96205  30.828   7.838  10.748
29665W        W96206  32.628  13.318  12.802
29666W        W96207  19.711  20.144  13.092
29667W        W96208  36.399  43.863  14.221
29668W        W96209  42.937  18.706  13.924
29669W        W96210   6.431  23.066  13.713
29670W        W96211  40.267  18.949  10.888
29671W        W96212  26.120  15.243  11.190
29672W        W96213  16.605  24.151  10.744
29673W        W96214  18.780  18.246   2.220
29674W        W96215  35.041  29.391  13.576
29675W        W96216  23.728  23.432   2.382
29676W        W96217  23.023  34.392  10.800
29677W        W96218  31.170  31.126   0.392
29678W        W96219   2.288  35.961   4.110
29679W        W96220  43.280  14.675   3.293
29680W        W96221  17.990  19.559   2.864
29681W        W96222  29.227  24.263  11.485
29682W        W96223  25.536   1.203   3.689
29683W        W96224  37.396  36.875  10.667
29684W        W96225   8.207  35.902   1.947
29685W        W96226  20.197  30.229  11.233
29686W        W96227   9.839  43.613   4.107
29687W        W96228   7.926  29.780  12.885
29688W        W96229  29.655   3.334   3.227
29689W        W96230  35.596   4.344   1.657
29690W        W96231  39.459  10.365  13.019
29691W        W96232  35.540   4.820   1.845
29692W        W96233   3.225   3.968   3.665
29693W        W96234   0.516  16.826  11.885
29694W        W96235  36.289  26.394  13.249
29695W        W96236  29.695  23.966  10.710
29696W        W96237  10.134  24.544  10.710
29697W        W96238  32.416  15.299   2.624
29698W        W96239  40.740  29.029  10.775
29699W        W96240  29.839   9.554  12.488
29700W        W96241  23.286  22.756   0.909
29701W        W96242  29.670  12.553   2.358
29702W        W96243  21.274  29.934  12.498
29703W        W96244  20.212  12.066   1.747
29704W        W96245  10.253  22.744   5.061
29705W        W96246  42.820  30.740   0.371
29706W        W96247   1.743  37.452   0.755
29707W        W96248  14.543  18.542  14.249
29708W        W96249  25.883  41.099  13.348
29709W        W96250  18.303  40.767   3.715
29710W        W96251  36.768   8.239  13.804
29711W        W96252  35.894  22.552   1.845
29712W        W96253  35.592  35.106  12.817
29713W        W96254  11.936  28.547   4.926
29714W        W96255  37.354  13.121  11.142
29715W        W96256  11.107   9.608   1.180
29716W        W96257   3.855  20.431   2.187
29717W        W96258  14.801  15.145  13.850
29718W        W96259  24.166   0.352   2.591
29719W        W96260  30.016  37.027   0.368
29720W        W96261  43.358  40.919  14.557
29721W        W96262  12.304  19.768   0.493
29722W        W96263  31.631  42.206  14.742
29723W        W96264  42.783   2.688  13.632
29724W        W96265   2.543  17.965   4.123
29725W        W96266  43.224  24.157  11.504
29726W        W96267  26.940   9.437   2.700
29727W        W96268  18.208  28.470   3.470
29728W        W96269  33.341  34.812  11.683
29729W        W96270   3.325  40.873  10.673
29730W        W96271   4.656  12.870  11.547
29731W        W96272  39.343  29.520  12.596
29732W        W96273   1.751  43.743   0.773
29733W        W96274  38.705  31.030  12.928
29734W        W96275  36.965  11.993  10.624
29735W        W96276   6.048  16.907  10.231
29736W        W96277  10.589   3.854  13.406
29737W        W96278  40.755   1.337   0.091
29738W        W96279  23.142  31.989   1.961
29739W        W96280  23.823   1.742   2.233
29740W        W96281  33.607  19.005   2.878
29741W        W96282  12.558  31.940   1.311
29742W        W96283  30.501  39.587   4.818
29743W        W96284   3.186  37.145  13.369
29744W        W96285  30.145  20.282   2.341
29745W        W96286  43.860  22.988   1.699
29746W        W96287   2.752  40.037   2.351
29747W        W96288  31.483  13.883  13.950
29748W        W96289   1.472   7.095  11.636
29749W        W96290  21.570  40.401  12.926
29750W        W96291   1.283  10.355  11.404
29751W        W96292  37.519  43.450   1.251
29752W        W96293  30.213  37.321  14.958
29753W        W96294   9.632  29.577   0.990
29754W        W96295   9.094   5.747  13.990
29755W        W96296  39.290   8.133   1.819
29756W        W96297   9.407  17.033  13.589
29757W        W96298  20.808  17.708  12.407
29758W        W96299  43.499  35.928   2.497
29759W        W96300  26.059  28.993   0.512
29760W        W96301  20.649  41.392   2.297
29761W        W96302   6.867  29.149   4.057
29762W        W96303   2.757  24.448   3.858
29763W        W96304  28.945  22.126   4.547
29764W        W96305  26.684  14.535  11.592
29765W        W96306  16.121  43.614  12.849
29766W        W96307  26.025   8.851  13.876
29767W        W96308   6.223  20.413   3.309
29768W        W96309  20.042  24.640  13.797
29769W        W96310  30.195   4.204   3.257
29770W        W96311  16.584  24.578   3.607
29771W        W96312  21.201   9.848  13.430
29772W        W96313   0.334  30.587  13.151
29773W        W96314  10.078  13.715   2.229
29774W        W96315  32.946  31.960  10.745
29775W        W96316  38.902  28.574   0.819
29776W        W96317  19.701  42.133   0.503
29777W        W96318  14.860  36.909  12.889
29778W        W96319   5.674  28.076   1.853
29779W        W96320  31.106  34.025   1.943
29780W        W96321  12.273  22.722   3.841
29781W        W96322   6.855   7.338   4.390
29782W        W96323  23.507  12.195  14.558
29783W        W96324  20.683  40.399   4.280
29784W        W96325  19.267  34.962   3.162
29785W        W96326  26.423  16.638  12.502
29786W        W96327  25.947  21.960   0.360
29787W        W96328  23.789  17.761  13.401
29788W        W96329  16.323  38.384  10.812
29789W        W96330  28.305  17.943  11.019
29790W        W96331  41.217   7.774  14.780
29791W        W96332  25.910  21.440   2.448
29792W        W96333  31.069  25.513   2.228
29793W        W96334  24.548   1.307   2.670
29794W        W96335   3.050  42.457   0.738
29795W        W96336  35.605  23.075  12.098
29796W        W96337  25.699  12.515   1.243
29797W        W96338  21.282  24.065  11.155
29798W        W96339  37.831   3.811   0.284
29799W        W96340   1.540   8.764   2.762
29800W        W96341  16.882  27.632   1.410
29801W        W96342  14.834  42.739  13.944
29802W        W96343  15.914  22.563  11.771
29803W        W96344   6.050  12.772  14.467
29804W        W96345  44.259  40.161  10.867
29805W        W96346  42.932   5.933   0.588
29806W        W96347  26.166  34.898   4.481
29807W        W96348   6.983  37.441   0.071
29808W        W96349  21.043  18.610  13.404
29809W        W96350   6.535  39.711   1.220
29810W        W96351  34.148  13.238   3.056
29811W        W96352   2.430  33.508  13.133
29812W        W96353  32.244  16.998   3.711
29813W        W96354  37.131  17.598   4.293
29814W        W96355  37.053  19.466  12.096
29815W        W96356  20.756  36.968   4.580
29816W        W96357  15.029   6.248   2.096
29817W        W96358  37.438  14.703   2.929
29818W        W96359  31.526  30.294  13.013
29819W        W96360  32.451  13.705  13.075
29820W        W96361  40.368   5.780   4.634
29821W        W96362   6.802  29.514   2.339
29822W        W96363  12.063  41.613  11.211
29823W        W96364  30.353   1.698   3.262
29824W        W96365  22.648  21.538  14.588
29825W        W96366  18.701  26.230   4.604
29826W        W96367  25.127   9.689  12.910
29827W        W96368  36.598   7.315   1.029
29828W        W96369  16.019   8.825   0.935
29829W        W96370   7.669  31.664  13.251
29830W        W96371  12.220  29.342  10.667
29831W        W96372  24.217  13.123   3.916
29832W        W96373   3.519  22.020  14.592
29833W        W96374  39.302  40.379  10.972
29834W        W96375  14.662  44.950   2.711
29835W        W96376   7.430   6.436   2.786
29836W        W96377  35.378  36.654   1.321
29837W        W96378   1.529  42.981  12.827
29838W        W96379  11.306  14.327  10.929
29839W        W96380  15.871  39.486   3.373
29840W        W96381  33.949  38.766  12.293
29841W        W96382   1.845  41.365  14.310
29842W        W96383  43.546   3.430   3.250
29843W        W96384  13.334   5.917   1.284
29844W        W96385  19.574  14.074  12.116
29845W        W96386  13.631  37.244  14.392
29846W        W96387  28.000  22.382   3.837
29847W        W96388  41.573  34.108  13.049
29848W        W96389  33.360   5.377   1.632
29849W        W96390   8.723   3.429   3.857
29850W        W96391  33.548  38.902   4.551
29851W        W96392   6.413  10.593  11.188
29852W        W96393  13.748  21.771   1.781
29853W        W96394  21.591   9.666   2.254
29854W        W96395  24.154   4.368   3.602
29855W        W96396  14.889  20.899   2.331
29856W        W96397  42.379  19.135   1.770
29857W        W96398  28.454  27.954  12.815
29858W        W96399   1.238  17.230  13.753
29859W        W96400  19.588  31.960   4.944
29860W        W96401  14.863   3.728  12.710
29861W        W96402   3.763  38.489  11.591
29862W        W96403   4.204  13.157  11.626
29863W        W96404  14.766  32.129   3.652
29864W        W96405   0.331   1.689   5.136
29865W        W96406  16.286  19.182  10.709
29866W        W96407  20.734  30.172  11.053
29867W        W96408  40.282  35.549   1.726
29868W        W96409  12.804  33.656  11.428
29869W        W96410  30.658  33.082   1.871
29870W        W96411  34.675  29.673  14.441
29871W        W96412  41.000   3.863  10.638
29872W        W96413  43.589  23.444   4.594
29873W        W96414   1.748  27.579   1.410
29874W        W96415  38.005  44.390  12.026
29875W        W96416  37.834   4.292  11.679
29876W        W96417  43.970  20.990  10.608
29877W        W96418  19.142  18.567  10.144
29878W        W96419  43.288  33.544  12.690
29879W        W96420  40.545  19.102   2.404
29880W        W96421   2.336  15.542  13.925
29881W        W96422  36.933  20.553  13.452
29882W        W96423  24.755  30.347   4.872
29883W        W96424  20.567  31.636  12.530
29884W        W96425  20.023  20.265   1.176
29885W        W96426   3.809  22.800  12.146
29886W        W96427   1.935  13.271   4.079
29887W        W96428  38.267  17.706   0.381
29888W        W96429   6.036   7.206  10.330
29889W        W96430  19.541  23.215   1.365
29890W        W96431  20.015  19.750   0.984
29891W        W96432   3.310  36.459  12.461
29892W        W96433  27.141  40.319   2.670
29893W        W96434  16.687  32.211   1.421
29894W        W96435   7.147   7.382   0.662
29895W        W96436  12.226  18.720  12.482
29896W        W96437  44.498  24.683  13.008
29897W        W96438   2.750  32.342   2.637
29898W        W96439  11.839  18.498   3.614
29899W        W96440  33.463  29.089  10.274
29900W        W96441  11.223  37.285   1.304
29901W        W96442  37.530   6.638  14.764
29902W        W96443  14.408  30.410   3.879
29903W        W96444   0.714   6.244  14.039
29904W        W96445  18.543  44.426  12.913
29905W        W96446  11.298  15.178   0.881
29906W        W96447  35.657  18.347  12.456
29907W        W96448   3.868  39.571   0.455
29908W        W96449   5.858  34.908  13.917
29909W        W96450   2.780  10.162   1.412
29910W        W96451  33.443  17.618  11.231
29911W        W96452  31.499  26.023   0.464
29912W        W96453   1.424  22.293  11.431
29913W        W96454  38.884  18.077  12.647
29914W        W96455  42.958  22.301   2.223
29915W        W96456  32.891  35.336  13.876
29916W        W96457   9.760  43.985  13.477
29917W        W96458  21.241  12.582  12.158
29918W        W96459   1.989   0.301   1.642
29919W        W96460   7.592  11.760  14.348
29920W        W96461  26.327   2.026   1.935
29921W        W96462  16.654  44.547  12.247
29922W        W96463   3.707  12.754  14.616
29923W        W96464  27.578  27.634   3.579
29924W        W96465  37.304  28.172  11.087
29925W        W96466  15.238   7.349  13.230
29926W        W96467  21.076  23.263  14.359
29927W        W96468  21.198  22.097   2.143
29928W        W96469  18.506  27.756  13.066
29929W        W96470  31.021  32.708  14.851
29930W        W96471  37.042  17.231  14.979
29931W        W96472   8.314  37.806  11.148
29932W        W96473  37.758  43.757  13.677
29933W        W96474  32.030  43.292   4.146
29934W        W96475   9.400  43.399  13.908
29935W        W96476  26.013  41.400  12.048
29936W        W96477  35.375   8.761   2.839
29937W        W96478  30.578  17.741   2.836
29938W        W96479  32.844  15.252   4.457
29939W        W96480   7.410  44.445  11.048
29940W        W96481  20.524   4.391   0.995
29941W        W96482  38.350   4.618  12.549
29942W        W96483  41.680   9.209  12.826
29943W        W96484  28.082  19.020   3.603
29944W        W96485  25.629   8.241   0.277
29945W        W96486   4.260  17.853  11.058
29946W        W96487  19.263  24.124   0.411
29947W        W96488   3.409   0.064   4.455
29948W        W96489  32.451  32.970   3.626
29949W        W96490  44.943  23.581   2.844
29950W        W96491  20.545  16.358  13.887
29951W        W96492  21.424  15.150   3.087
29952W        W96493  17.090   4.731   5.213
29953W        W96494  21.804   6.968  10.332
29954W        W96495   8.234  44.461   0.074
29955W        W96496  35.164   8.220  13.358
29956W        W96497  22.091  36.999   0.205
29957W        W96498  28.853  26.176   3.654
29958W        W96499  38.569   7.442   3.347
29959W        W96500  43.480  44.320   3.855
29960W        W96501  40.924   0.415  12.579
29961W        W96502  42.678   0.295   1.933
29962W        W96503  38.099  30.577   4.233
29963W        W96504  23.513   8.237  14.505
29964W        W96505   5.434  28.231   4.644
29965W        W96506  19.844  37.812  11.631
29966W        W96507   8.335  35.057   2.613
29967W        W96508  10.549  31.710   3.151
29968W        W96509  15.676  32.719   0.893
29969W        W96510  30.975  39.947  11.599
29970W        W96511   3.907  30.665  11.112
29971W        W96512  38.961  31.467  12.710
29972W        W96513  41.075  29.627  14.738
29973W        W96514  19.075  18.208  12.516
29974W        W96515  43.810  31.439  13.773
29975W        W96516   8.614  10.576  14.391
29976W        W96517  40.336  13.375  13.953
29977W        W96518  13.436  43.823  14.729
29978W        W96519  30.887  28.298   1.459
29979W        W96520  29.420  14.661   1.524
29980W        W96521  40.844  40.297   3.351
29981W        W96522  17.130  21.745  13.034
29982W        W96523  43.731  19.318   0.837
29983W        W96524  38.847   4.814  12.013
29984W        W96525  38.463  20.564  13.462
29985W        W96526  26.717  37.977   2.770
29986W        W96527  22.550  24.057  14.988
29987W        W96528  12.284  20.641   2.022
29988W        W96529  14.065  11.488  14.655
29989W        W96530  37.530  40.909   2.283
29990W        W96531  39.246   2.470   2.037
29991W        W96532   4.638  26.521   1.794
29992W        W96533   5.886  16.410   2.567
29993W        W96534   3.553   7.085  12.950
29994W        W96535  28.378   1.395   2.165
29995W        W96536  25.536  13.732   1.350
29996W        W96537   4.203   1.108  14.451
29997W        W96538  13.338  28.234  13.765
29998W        W96539  17.661  44.557  14.122
29999W        W96540  16.007   0.397  12.418
30000W        W96541  30.377  23.567   1.370
30001W        W96542  25.279  10.175   4.795
30002W        W96543  18.375  17.934   1.925
30003W        W96544  13.252  15.599  13.062
30004W        W96545  21.016  19.332   2.342
30005W        W96546   6.676   1.869   0.944
30006W        W96547   2.311  14.150  11.165
30007W        W96548  18.783  16.773   4.911
30008W        W96549   3.901  42.213  11.495
30009W        W96550  37.615   4.420   4.045
30010W        W96551  27.357  19.970  13.386
30011W        W96552  40.327  33.131   1.814
30012W        W96553  28.919  25.444   0.491
30013W        W96554  33.105  17.324  11.473
30014W        W96555   4.830  43.213   3.226
30015W        W96556   7.240  18.048  12.955
30016W        W96557  28.153  30.498   0.960
30017W        W96558  10.321  11.619   9.961
30018W        W96559  21.576  35.821   3.614
30019W        W96560  27.077  31.797  14.892
30020W        W96561  19.734  40.278   3.614
30021W        W96562  43.458  16.333  13.875
30022W        W96563  18.768  33.925  12.580
30023W        W96564  37.584   3.878  14.810
30024W        W96565  11.953  16.335   4.134
30025W        W96566  14.229  34.435   0.370
30026W        W96567  19.663  11.376   2.366
30027W        W96568  25.654  17.849  12.630
30028W        W96569  23.494  43.334  12.555
30029W        W96570  20.104   5.700  11.625
30030W        W96571  15.148  37.710   0.377
30031W        W96572  33.753  11.267  13.507
30032W        W96573  30.997   4.067  13.361
30033W        W96574  31.284  43.397  13.319
30034W        W96575  28.679  37.932  13.555
30035W        W96576  23.427  23.769  12.631
30036W        W96577  21.350  18.358   5.028
30037W        W96578  15.223  40.751  14.403
30038W        W96579  32.033  43.845  14.722
30039W        W96580   7.218  17.109  12.999
30040W        W96581  40.865  37.179   0.583
30041W        W96582  26.720   3.699   3.156
30042W        W96583  15.132  33.568   9.929
30043W        W96584   0.001  31.568   0.261
30044W        W96585  15.259   9.619   2.182
30045W        W96586  31.678   9.114   3.730
30046W        W96587  44.001  35.472  13.906
30047W        W96588  14.291  16.529  11.637
30048W        W96589  14.645  20.249  10.927
30049W        W96590  36.058   9.398  12.160
30050W        W96591  43.305  27.530  12.004
30051W        W96592  18.700  20.814   0.403
30052W        W96593   1.186   1.979   2.258
30053W        W96594  32.054  36.587   3.731
30054W        W96595  35.384  27.406   2.396
30055W        W96596  24.569  31.553   1.355
30056W        W96597   1.260  27.481  10.629
30057W        W96598  28.167  44.762   4.469
30058W        W96599  17.021  39.941  12.476
30059W        W96600   3.201   6.107   2.878
30060W        W96601  33.851  38.095  10.599
30061W        W96602  15.150  29.907   1.904
30062W        W96603  21.171  29.071  14.789
30063W        W96604   6.275  40.973  12.155
30064W        W96605  25.686  42.452   4.094
30065W        W96606   3.843  43.360   3.419
30066W        W96607   1.300  25.047  13.893
30067W        W96608  15.733   1.296   4.814
30068W        W96609  22.097   7.353   4.591
30069W        W96610  34.348  29.146  14.070
30070W        W96611  20.345  18.503   0.433
30071W        W96612  25.445  30.419   1.952
30072W        W96613   9.974  20.042  12.794
30073W        W96614  22.431  38.942   3.362
30074W        W96615  17.992  29.474   0.548
30075W        W96616  43.742  18.782  14.396
30076W        W96617  18.124   4.416   1.880
30077W        W96618  27.673  14.716  10.512
30078W        W96619  42.343  26.607  11.923
30079W        W96620  12.615  39.505   4.452
30080W        W96621  13.244  21.830  13.080
30081W        W96622  32.836  36.595  12.468
30082W        W96623   1.548  30.398  11.241
30083W        W96624  36.571  14.590  11.129
30084W        W96625   0.093  17.082   4.564
30085W        W96626  39.868  17.963   3.155
30086W        W96627   7.484  35.419  13.800
30087W        W96628  12.153   2.685   1.769
30088W        W96629  35.688  17.477  13.160
30089W        W96630   1.704  36.827   3.348
30090W        W96631  19.165  42.359   1.821
30091W        W96632  16.078   9.257  12.554
30092W        W96633  43.201   0.801  14.817
30093W        W96634  43.074  11.058  14.090
30094W        W96635  36.132   6.805   0.393
30095W        W96636  44.911  30.496  12.893
30096W        W96637  32.099  29.448   5.136
30097W        W96638  37.584  40.027  13.026
30098W        W96639  16.835  34.432   1.900
30099W        W96640  36.572  39.417   3.416
30100W        W96641   6.180  36.918  14.866
30101W        W96642   3.196  29.647   2.628
30102W        W96643  19.568   3.429   1.136
30103W        W96644  18.647  40.963  13.671
30104W        W96645   7.679   2.534  12.877
30105W        W96646  23.104  43.234  11.241
30106W        W96647  36.008  35.439   1.996
30107W        W96648  15.674  31.463   1.185
30108W        W96649  38.384  20.710   0.986
30109W        W96650   5.892  35.507  10.666
30110W        W96651  32.020  16.494   3.671
30111W        W96652  31.571  38.560  11.719
30112W        W96653  38.551  21.335   3.606
30113W        W96654  14.750  44.195  11.606
30114W        W96655  31.620  27.052   3.871
30115W        W96656  20.082   9.104   4.905
30116W        W96657  20.258  26.007  11.958
30117W        W96658  22.978   4.134   4.161
30118W        W96659  36.522  26.406   3.952
30119W        W96660  40.626   8.887   4.168
30120W        W96661  11.371  33.601   1.581
30121W        W96662  16.740  36.444   4.796
30122W        W96663  24.540  29.567   2.282
30123W        W96664  39.594  30.088  13.064
30124W        W96665   6.957  21.955   0.078
30125W        W96666  25.163  34.162   1.370
30126W        W96667  19.020  41.861  14.503
30127W        W96668  26.053  38.980  14.336
30128W        W96669  38.165   3.434  14.490
30129W        W96670   9.637  28.002  11.487
30130W        W96671  14.397  11.428  10.848
30131W        W96672  21.039  24.219   0.054
30132W        W96673  18.273  42.029   2.737
30133W        W96674  29.032  43.539   3.359
30134W        W96675   8.042   5.527  14.466
30135W        W96676   9.936   8.169  10.874
30136W        W96677   9.145   6.827  12.871
30137W        W96678  34.695  40.309   2.156
30138W        W96679  10.594   2.934  11.580
30139W        W96680  34.959   1.583   3.957
30140W        W96681  17.115   2.463   4.198
30141W        W96682  24.643  29.754  14.414
30142W        W96683  39.879  42.249   3.228
30143W        W96684  32.487  30.408   4.867
30144W        W96685  27.432  31.535   3.332
30145W        W96686   0.440  38.775  12.566
30146W        W96687   6.693  36.322  13.480
30147W        W96688  41.838  11.478  13.388
30148W        W96689  21.888   1.835  13.335
30149W        W96690  15.867  37.240  11.056
30150W        W96691  14.227  23.793  11.578
30151W        W96692  37.965  32.940  12.500
30152W        W96693   6.226  21.755   2.296
30153W        W96694   0.335  16.239   4.159
30154W        W96695  34.477  42.704   0.756
30155W        W96696  37.329   1.286  12.903
30156W        W96697  23.076   0.046   4.602
30157W        W96698   8.968  35.054  13.065
30158W        W96699   5.251   8.136   1.828
30159W        W96700  27.966  14.324  13.907
30160W        W96701  43.187   6.845   1.278
30161W        W96702  21.977   4.859   3.132
30162W        W96703  16.621  10.861   4.342
30163W        W96704  18.653  40.976  14.507
30164W        W96705  17.666  12.874   1.491
30165W        W96706   7.921  44.602   4.788
30166W        W96707  22.081  12.062   4.933
30167W        W96708   6.049   0.453   2.706
30168W        W96709   9.888  43.191  13.973
30169W        W96710  42.261  43.485  11.268
30170W        W96711   5.879  30.167   1.660
30171W        W96712  41.972   4.956  11.734
30172W        W96713  14.315   7.080  12.341
30173W        W96714  15.193  26.343  11.145
30174W        W96715  26.223   2.517  11.522
30175W        W96716   4.375  38.302   0.294
30176W        W96717  10.674   1.988  11.393
30177W        W96718   1.572  41.817  14.399
30178W        W96719  10.698  44.020  13.415
30179W        W96720  32.379   1.717   4.123
30180W        W96721  22.987  15.159   3.781
30181W        W96722   1.318  35.866   0.397
30182W        W96723  43.443  30.671  10.453
30183W        W96724  34.185  12.137  13.913
30184W        W96725  14.885   0.868   3.847
30185W        W96726  35.003   6.912  13.148
30186W        W96727  19.836  29.369   1.665
30187W        W96728  11.761  10.825   0.832
30188W        W96729  37.658  24.974   3.452
30189W        W96730  29.443   1.320  11.737
30190W        W96731   4.940  14.307  12.554
30191W        W96732  41.701  19.276  10.521
30192W        W96733   5.653  12.245  10.644
30193W        W96734  25.169   5.913  14.910
30194W        W96735  29.576   7.192  13.138
30195W        W96736  27.392  33.558   3.159
30196W        W96737  38.466  27.186  11.651
30197W        W96738  32.534  27.666  10.331
30198W        W96739  29.608  27.640   1.669
30199W        W96740  22.667  33.590   4.196
30200W        W96741  23.521   9.890   1.381
30201W        W96742   9.960  31.921   0.326
30202W        W96743   7.684  18.702   0.012
30203W        W96744  19.140   2.240   2.364
30204W        W96745  36.327  38.143   4.163
30205W        W96746  23.764   0.471  10.750
30206W        W96747  38.799   2.510   1.778
30207W        W96748  40.466  27.464  14.207
30208W        W96749  35.518   0.309   1.652
30209W        W96750  32.216  22.474   4.948
30210W        W96751  35.007  34.352   1.220
30211W        W96752  17.209  43.876   2.922
30212W        W96753  18.335  27.397  13.392
30213W        W96754  19.373  27.495   0.769
30214W        W96755  44.342  36.295  12.961
30215W        W96756   2.447  23.075  12.439
30216W        W96757  13.204  13.633   1.409
30217W        W96758   2.994  44.269  14.926
30218W        W96759  28.042  40.712  11.631
30219W        W96760  13.320  37.488   0.462
30220W        W96761  20.149  20.594  11.159
30221W        W96762  23.218  33.558   1.521
30222W        W96763  42.354  13.411   1.316
30223W        W96764  42.520  32.215  11.280
30224W        W96765  24.925   1.277  11.677
30225W        W96766  10.119  12.221   1.889
30226W        W96767   7.164  13.188   1.215
30227W        W96768   7.800  14.471   2.145
30228W        W96769  19.733   5.287   3.941
30229W        W96770  10.192   0.065   1.471
30230W        W96771   8.210   9.454   0.847
30231W        W96772  17.114  44.484   3.660
30232W        W96773  26.296  38.270   1.668
30233W        W96774  33.869  20.337  14.997
30234W        W96775  35.992  19.804  13.137
30235W        W96776  34.672  38.452  13.940
30236W        W96777  36.018   1.846   0.383
30237W        W96778   4.385   8.363  12.398
30238W        W96779  19.331  29.226   2.376
30239W        W96780  35.059   7.871   3.694
30240W        W96781  25.490   0.903  13.811
30241W        W96782  31.927  18.038   4.582
30242W        W96783   6.232  12.459  14.864
30243W        W96784  43.984  26.412   1.788
30244W        W96785  31.672  35.343  14.381
30245W        W96786   4.230  22.038  11.581
30246W        W96787  11.631  35.013   0.422
30247W        W96788  26.174  40.226  11.535
30248W        W96789   2.135   2.831  12.584
30249W        W96790  18.325  38.466   1.351
30250W        W96791   6.850  24.301   5.650
30251W        W96792  32.571  42.391   1.817
30252W        W96793  11.405   1.339   2.710
30253W        W96794  15.154   1.065  11.429
30254W        W96795  22.554   2.411  11.721
30255W        W96796  20.313   8.134  14.064
30256W        W96797  16.626  43.268  12.450
30257W        W96798  32.097  18.099  14.284
30258W        W96799  33.603  32.979   0.673
30259W        W96800  43.290  37.326   2.660
30260W        W96801  24.553  34.551   3.140
30261W        W96802  23.193  40.587   0.291
30262W        W96803  21.182  41.706   3.763
30263W        W96804  30.468   5.110   1.322
30264W        W96805  26.608  21.392   2.193
30265W        W96806  11.808   4.708  14.406
30266W        W96807  29.396  13.389  14.878
30267W        W96808  38.240   6.744  13.129
30268W        W96809  10.740  10.474   2.366
30269W        W96810  15.798  10.591   1.738
30270W        W96811  38.161  41.221  13.829
30271W        W96812  15.537   5.181   3.181
30272W        W96813   6.428   5.068   4.271
30273W        W96814  35.072  26.583   1.896
30274W        W96815  14.155  41.890  14.180
30275W        W96816  41.798  11.901  10.420
30276W        W96817  10.274  19.109  13.373
30277W        W96818   5.254  28.106  10.198
30278W        W96819   0.748  40.064   2.523
30279W        W96820  29.578  23.954   0.944
30280W        W96821  22.610  39.938  13.369
30281W        W96822  24.562  22.254  14.450
30282W        W96823  18.492  13.195   4.427
30283W        W96824  24.659  19.666   0.206
30284W        W96825  32.664  44.008   2.297
30285W        W96826  38.823  23.112   1.185
30286W        W96827  25.870  37.893   0.830
30287W        W96828  37.108  12.256   0.799
30288W        W96829   2.531  10.746   4.774
30289W        W96830  15.797  24.546   4.534
30290W        W96831  16.832   1.682   3.799
30291W        W96832   2.008  17.105   4.041
30292W        W96833  39.866  24.051  11.655
30293W        W96834  37.132  16.450  13.478
30294W        W96835  18.669   3.313   0.176
30295W        W96836   8.721   4.927  14.417
30296W        W96837  15.243  29.612  13.994
30297W        W96838  11.459  20.329   4.278
30298W        W96839  40.040  30.495   3.116
30299W        W96840   4.752  23.194   1.850
30300W        W96841  14.659   7.334   4.845
30301W        W96842  12.358   8.111   2.582
30302W        W96843  26.115  22.051   4.733
30303W        W96844  16.791   3.523   0.386
30304W        W96845  13.863  25.265   3.603
30305W        W96846   4.145  19.583   4.769
30306W        W96847  32.125  43.826  12.375
30307W        W96848   7.563  10.105   1.643
30308W        W96849  39.029  30.023   0.958
30309W        W96850  10.226  30.375  13.742
30310W        W96851  10.804  38.510   0.343
30311W        W96852   3.245  39.445   2.041
30312W        W96853   3.484  16.303  12.926
30313W        W96854   2.411  27.713   0.263
30314W        W96855  36.974  19.704   3.372
30315W        W96856  44.264  36.913  14.739
30316W        W96857  29.842   3.898   3.860
30317W        W96858  30.506  33.952  11.554
30318W        W96859  12.936  30.294   1.871
30319W        W96860   6.621   8.779   4.395
30320W        W96861  21.791  19.149  12.960
30321W        W96862  29.940  15.814  13.069
30322W        W96863  41.040  21.269  14.845
30323W        W96864  24.572  28.930   2.865
30324W        W96865  22.722  44.380   1.545
30325W        W96866  37.014  43.525  10.884
30326W        W96867   6.354   2.187   3.629
30327W        W96868  29.044  16.334  11.804
30328W        W96869  36.565  37.454   4.630
30329W        W96870   2.291  23.173  14.379
30330W        W96871  31.901  37.574  11.977
30331W        W96872  37.570   3.309   5.056
30332W        W96873  21.744  44.445  11.238
30333W        W96874   1.970  20.751  14.505
30334W        W96875  15.186   5.826  13.563
30335W        W96876  43.719  16.324  11.234
30336W        W96877   6.242  22.073  10.828
30337W        W96878  16.623  21.106  12.477
30338W        W96879   0.668  11.133   0.552
30339W        W96880  42.774  41.403   2.172
30340W        W96881   8.196  28.676   1.429
30341W        W96882  22.849   0.314   1.646
30342W        W96883  37.603  25.490  14.842
30343W        W96884  21.286   9.629   0.183
30344W        W96885   4.912  28.393   0.843
30345W        W96886  15.130  25.082  11.578
30346W        W96887   3.223  43.933  11.697
30347W        W96888   0.219  33.034  14.502
30348W        W96889  39.378  29.186   1.202
30349W        W96890  23.289  32.176  10.795
30350W        W96891  44.942  10.714   0.815
30351W        W96892  42.344  44.731   2.326
30352W        W96893  39.480  14.905  12.839
30353W        W96894  11.694  32.662  10.723
30354W        W96895  42.086   3.833  13.871
30355W        W96896  19.813  26.810   0.355
30356W        W96897   9.133  20.106   0.346
30357W        W96898  43.481  38.660  14.855
30358W        W96899  34.045  10.061   0.720
30359W        W96900  40.355  11.139   3.324
30360W        W96901  40.735  24.350  14.413
30361W        W96902  39.315  24.775  14.329
30362W        W96903  42.477  34.397  10.489
30363W        W96904  44.468  10.091  12.039
30364W        W96905  39.519  32.554   3.682
30365W        W96906  10.105  40.357  14.798
30366W        W96907  15.522   5.615   4.624
30367W        W96908   3.277   6.551  14.117
30368W        W96909   0.516  30.879   0.449
30369W        W96910   7.192  40.214  11.640
30370W        W96911  39.713  17.437  14.886
30371W        W96912   5.294  33.149  11.553
30372W        W96913  37.914  16.546  12.989
30373W        W96914   9.680  13.245   4.120
30374W        W96915  24.597  42.863   4.422
30375W        W96916  43.904  23.286   2.409
30376W        W96917  14.584  41.338   1.894
30377W        W96918  19.293  43.383   2.408
30378W        W96919  34.057  23.455   0.344
30379W        W96920  16.753  29.369   4.171
30380W        W96921  34.397  32.436   0.537
30381W        W96922  17.143   7.560   3.185
30382W        W96923   3.708  37.782  11.023
30383W        W96924  17.652  40.749   2.547
30384W        W96925   3.717  34.631  12.846
30385W        W96926   7.370  33.416   1.523
30386W        W96927  43.703  13.887  12.941
30387W        W96928   9.318  39.346  14.360
30388W        W96929   0.067   3.236   4.532
30389W        W96930  25.196  31.450   4.594
30390W        W96931  26.640  36.553  13.242
30391W        W96932  22.228  11.983   3.255
30392W        W96933  39.228  14.084   0.311
30393W        W96934  37.402  42.942  13.752
30394W        W96935  44.509  16.382  14.968
30395W        W96936   3.184  42.459  14.120
30396W        W96937  15.325  38.886  14.290
30397W        W96938  38.566  19.110  11.202
30398W        W96939  14.620   4.335  14.876
30399W        W96940  10.489  44.304   1.345
30400W        W96941  31.158   3.492   4.176
30401W        W96942  30.000  25.446   4.355
30402W        W96943  35.987  37.085   0.803
30403W        W96944  21.598  44.758   2.937
30404W        W96945  32.881   0.830   2.191
30405W        W96946   6.894  14.587   4.181
30406W        W96947   5.859  34.063  13.302
30407W        W96948   5.270  26.267   4.716
30408W        W96949  26.127   8.650   4.878
30409W        W96950  30.063   1.328   4.295
30410W        W96951  24.977  43.776   3.297
30411W        W96952  10.345  21.593   1.450
30412W        W96953  38.304  11.706   1.362
30413W        W96954   3.890  27.629   2.725
30414W        W96955  11.367  20.337   2.379
30415W        W96956   6.319  18.310   4.910
30416W        W96957  15.769   0.431   4.534
30417W        W96958  23.060  17.697   2.492
30418W        W96959   6.358   0.752  14.342
30419W        W96960   4.726   8.334  11.146
30420W        W96961  44.186  26.017  11.964
30421W        W96962   4.459   3.572  14.147
30422W        W96963  43.322  44.241  14.711
30423W        W96964  14.245   6.663   1.499
30424W        W96965  43.861  20.657   3.768
30425W        W96966  39.308   9.687  10.720
30426W        W96967  38.576   2.828  10.649
30427W        W96968  21.043  20.714  10.637
30428W        W96969  33.002  36.394  13.789
30429W        W96970  30.459  44.443  12.628
30430W        W96971   9.188  38.443  12.583
30431W        W96972  36.779  41.620  12.633
30432W        W96973  10.469  34.102  13.948
30433W        W96974  24.238  30.182   1.319
30434W        W96975  42.815  16.618  11.134
30435W        W96976  42.437  19.652  14.545
30436W        W96977  36.395  22.568  12.151
30437W        W96978   4.229  42.324   1.660
30438W        W96979   5.503  42.111   1.781
30439W        W96980  28.172   4.178  14.331
30440W        W96981  20.236  31.298   1.736
30441W        W96982   2.839  21.667   4.653
30442W        W96983   9.740  29.988   4.782
30443W        W96984  12.239  11.095  14.989
30444W        W96985  40.694   7.663   3.522
30445W        W96986  10.748  31.184  11.202
30446W        W96987  32.837  19.049  12.462
30447W        W96988   8.190  14.821  11.579
30448W        W96989  10.676  35.097   4.554
30449W        W96990  25.165  43.456   4.890
30450W        W96991  36.121  10.163  12.911
30451W        W96992  43.568   8.358  14.996
30452W        W96993  37.522   2.255  11.348
30453W        W96994  16.806   8.150  13.667
30454W        W96995  44.833   3.522   3.601
30455W        W96996  25.211  35.897   3.375
30456W        W96997   2.710  23.921  10.653
30457W        W96998   9.356  25.073   3.226
30458W        W96999  34.607  18.082  11.593
30459W        W97000   2.490  39.923   1.863
30460W        W97001  32.794  41.307  14.234
30461W        W97002  43.464  36.238   1.785
30462W        W97003  28.160  16.230  12.180
30463W        W97004  18.808  10.429  12.395
30464W        W97005   7.247  28.462  11.572
30465W        W97006  27.930  32.963   2.758
30466W        W97007   2.039   3.693  14.021
30467W        W97008   4.776  36.931   3.072
30468W        W97009  31.875  27.761   3.827
30469W        W97010   6.176  31.793   1.228
30470W        W97011  39.017   3.266   2.256
30471W        W97012  41.809  34.549  11.593
30472W        W97013  25.053  38.418   1.683
30473W        W97014   6.389   2.734   4.504
30474W        W97015  10.832  20.446  11.167
30475W        W97016  44.817  36.248   3.869
30476W        W97017  11.217  24.690  10.651
30477W        W97018  26.913  29.574   0.519
30478W        W97019  18.775  27.466  11.695
30479W        W97020   7.309   6.821  12.184
30480W        W97021  19.146  36.604   3.139
30481W        W97022  44.570  42.012   1.262
30482W        W97023   2.171  15.655   0.310
30483W        W97024  21.343  29.149   4.660
30484W        W97025  34.022  16.220  11.219
30485W        W97026  21.789  10.589  12.450
30486W        W97027  39.391  24.314   3.102
30487W        W97028  21.750   7.007   4.782
30488W        W97029  16.229   1.783  10.938
30489W        W97030  30.534  28.698   1.442
30490W        W97031   8.163  22.794  11.388
30491W        W97032  20.211  41.525   4.487
30492W        W97033  25.446  38.318   3.717
30493W        W97034   5.985  29.131   3.789
30494W        W97035  44.516  22.234   3.768
30495W        W97036  10.165  43.746   0.905
30496W        W97037   4.493  41.233   3.789
30497W        W97038  20.683  31.917  12.128
30498W        W97039  20.903   9.755   4.109
30499W        W97040  35.512  34.505   1.123
30500W        W97041  21.467  17.763  13.847
30501W        W97042  13.759   9.635   2.112
30502W        W97043  15.753  17.917   4.290
30503W        W97044  27.983  29.655  10.682
30504W        W97045  21.162   2.512   0.880
30505W        W97046  13.881  20.979  12.050
30506W        W97047  28.637   9.913   1.762
30507W        W97048  35.057   2.969   0.472
30508W        W97049  43.032  32.373   1.450
30509W        W97050   8.674   5.924   4.135
30510W        W97051   4.442  28.916  11.111
30511W        W97052  26.106  18.392   0.860
30512W        W97053  18.098  35.487   1.381
30513W        W97054  42.238   9.817  12.982
30514W        W97055  20.761  24.045  11.259
30515W        W97056  43.389  16.950   2.332
30516W        W97057   9.901  18.911   3.380
30517W        W97058  29.644  25.022  10.868
30518W        W97059  24.647  40.311   1.268
30519W        W97060  33.336  34.812  12.455
30520W        W97061   4.912  30.604  13.133
30521W        W97062  17.384  27.639  10.265
30522W        W97063   9.495   9.238  14.651
30523W        W97064   5.680   8.246  14.991
30524W        W97065  32.690  34.642  14.376
30525W        W97066  33.402  38.867  14.868
30526W        W97067  33.926   8.126   4.314
30527W        W97068  27.907  22.197   4.350
30528W        W97069  35.882  19.019  11.966
30529W        W97070  31.477  37.554  12.462
30530W        W97071   3.434  24.448   1.324
30531W        W97072  37.636  21.488  11.164
30532W        W97073  40.315   1.725   5.166
30533W        W97074  16.103  10.702  12.553
30534W        W97075  26.585  16.556   2.748
30535W        W97076   9.719  13.250  11.136
30536W        W97077  17.103  30.507   2.107
30537W        W97078   0.210  13.383  10.744
30538W        W97079  21.025  41.765   0.436
30539W        W97080  40.401  17.267  13.402
30540W        W97081   2.821   2.233   2.858
30541W        W97082  24.154  33.686   3.189
30542W        W97083  14.829  44.784   3.683
30543W        W97084  31.104  21.955  11.644
30544W        W97085   7.792  38.527   1.774
30545W        W97086  39.442  22.017  10.931
30546W        W97087  10.266  23.385  12.375
30547W        W97088   4.644  15.775   0.701
30548W        W97089  21.439   9.212   0.872
30549W        W97090  36.646   3.931  12.488
30550W        W97091   2.489  27.695  11.664
30551W        W97092   8.682  41.950  13.194
30552W        W97093  28.952  40.823   3.822
30553W        W97094  21.050   8.808   1.828
30554W        W97095  11.292   5.633   2.097
30555W        W97096  32.581  10.439  14.838
30556W        W97097  16.522   6.232  10.752
30557W        W97098  36.621   2.646   2.365
30558W        W97099  23.988   1.121   1.877
30559W        W97100   2.244   9.664  13.963
30560W        W97101  15.170  40.724   0.275
30561W        W97102  32.025  41.081  14.273
30562W        W97103  17.727  34.906  10.729
30563W        W97104  10.320  26.949   4.904
30564W        W97105  10.247  17.856   4.819
30565W        W97106   4.329   0.983   4.202
30566W        W97107  40.819  12.688  11.136
30567W        W97108   7.459  22.846  12.935
30568W        W97109  29.428   0.951   3.609
30569W        W97110  26.630  11.393  14.821
30570W        W97111  43.752   8.783   5.114
30571W        W97112  32.354  16.046  13.367
30572W        W97113   3.368  41.855  14.410
30573W        W97114  11.780  29.167  10.142
30574W        W97115  29.037  10.623  12.424
30575W        W97116  10.685  30.411   3.587
30576W        W97117  19.269  26.210  14.951
30577W        W97118  11.852  37.078   0.924
30578W        W97119  10.864  10.970   3.273
30579W        W97120   3.723   1.353   2.208
30580W        W97121  27.434  15.729  10.082
30581W        W97122  34.458  16.593   1.505
30582W        W97123   3.740  16.550   3.550
30583W        W97124  22.222   6.424   0.946
30584W        W97125  33.468   6.701  11.199
30585W        W97126  27.112   8.506   3.127
30586W        W97127   7.592  42.046  14.015
30587W        W97128  18.801  19.054   4.081
30588W        W97129  39.101  27.118   0.320
30589W        W97130  31.817  18.636  11.850
30590W        W97131  16.174  33.259   5.367
30591W        W97132  30.286   9.314  12.518
30592W        W97133  23.658  35.449  14.342
30593W        W97134  15.231  18.731   1.175
30594W        W97135  21.778  35.159   3.069
30595W        W97136  30.025   6.457  12.112
30596W        W97137  14.807   0.373  11.995
30597W        W97138   2.384  31.526   0.358
30598W        W97139  40.663  17.099   3.778
30599W        W97140  33.986  29.963  13.901
30600W        W97141  40.544  19.905  14.253
30601W        W97142  30.442  27.728   4.531
30602W        W97143  20.333   1.580  14.569
30603W        W97144  23.716  31.908   2.631
30604W        W97145  22.558  15.130  13.611
30605W        W97146  11.475  14.723  14.509
30606W        W97147  34.675  14.745  12.563
30607W        W97148  26.494  22.767  12.888
30608W        W97149   6.222  14.491  14.458
30609W        W97150  43.052  17.174   0.149
30610W        W97151  29.973  37.596   2.043
30611W        W97152  33.558  32.022  14.527
30612W        W97153  22.483  22.109  10.619
30613W        W97154   6.766  22.049  12.061
30614W        W97155   8.680  38.766  11.114
30615W        W97156   4.818  27.252  12.973
30616W        W97157  24.942  10.959   1.612
30617W        W97158   2.517   6.732  11.351
30618W        W97159  39.083  14.901   3.752
30619W        W97160  21.065  34.507   4.858
30620W        W97161  31.527  37.778   1.683
30621W        W97162   4.813   6.690  13.020
30622W        W97163  17.789   7.206  12.050
30623W        W97164  31.935  11.759  10.662
30624W        W97165  31.205  38.556   3.895
30625W        W97166  11.636   7.216  13.869
30626W        W97167  32.129  15.793  12.046
30627W        W97168   6.472  41.218   3.235
30628W        W97169  37.744  23.752  14.983
30629W        W97170  42.972   5.204  11.415
30630W        W97171   1.351   7.824  14.728
30631W        W97172   3.342  44.981  11.621
30632W        W97173  12.978  27.142  10.719
30633W        W97174  39.139  22.498  10.719
30634W        W97175  18.813   5.289   3.849
30635W        W97176   5.968  14.143  11.879
30636W        W97177  40.756  19.793   2.370
30637W        W97178  33.659  42.141  11.961
30638W        W97179  28.488  28.069   3.523
30639W        W97180  22.979  26.204  13.380
30640W        W97181  22.128   0.220   0.346
30641W        W97182  19.541  37.390  14.740
30642W        W97183  43.258  35.892   0.222
30643W        W97184  17.446  37.386   3.310
30644W        W97185  40.311   7.913  13.045
30645W        W97186   1.330  44.273   1.689
30646W        W97187  38.829  18.716  11.370
30647W        W97188  40.061  23.354  15.000
30648W        W97189   2.239  14.159   0.775
30649W        W97190  11.156   7.348  14.022
30650W        W97191  33.796  28.378  11.074
30651W        W97192   2.481  10.711   3.789
30652W        W97193  21.120  10.676  10.293
30653W        W97194  37.778  22.809  13.482
30654W        W97195  25.672  16.423   2.700
30655W        W97196   0.954   8.696   2.345
30656W        W97197  13.523   2.997   1.729
30657W        W97198  28.485   5.389  11.936
30658W        W97199  43.180  23.745  14.519
30659W        W97200   7.879  24.997  13.379
30660W        W97201  26.490  14.812  13.824
30661W        W97202   6.770  39.916   3.698
30662W        W97203  31.444  14.791   3.128
30663W        W97204   2.911  25.010   1.736
30664W        W97205  40.997   8.857   3.202
30665W        W97206   5.150  20.331  12.929
30666W        W97207  20.055  30.815  12.600
30667W        W97208   1.334  38.789   0.353
30668W        W97209  31.468  11.596  11.127
30669W        W97210  35.400  38.778   3.374
30670W        W97211  22.993  34.906   0.024
30671W        W97212  19.754  18.746  14.274
30672W        W97213   7.731  21.097  12.606
30673W        W97214  11.601  12.619   2.166
30674W        W97215  10.384  18.529  14.804
30675W        W97216  29.515   1.215  14.884
30676W        W97217   5.413  36.547   4.897
30677W        W97218  38.741  21.782  11.115
30678W        W97219  13.548  33.213  14.469
30679W        W97220  41.213  14.905   5.420
30680W        W97221  29.731  42.540   0.831
30681W        W97222  30.339  10.231   1.332
30682W        W97223  14.346  10.754   0.913
30683W        W97224  30.596  36.447   4.537
30684W        W97225  22.793  22.660   1.612
30685W        W97226  10.375  35.212  11.332
30686W        W97227  33.935   6.171  11.474
30687W        W97228  34.778  43.976   1.264
30688W        W97229   3.782   3.695   4.049
30689W        W97230  30.935  36.901  12.509
30690W        W97231   0.869  21.062   1.207
30691W        W97232  44.753  14.529  13.315
30692W        W97233   6.211  32.554   4.090
30693W        W97234  24.933  35.347  14.477
30694W        W97235  22.431   9.630  13.000
30695W        W97236  41.552   2.918   0.323
30696W        W97237  29.926  42.489  10.676
30697W        W97238  32.324  32.886   4.107
30698W        W97239  42.523  23.133   2.100
30699W        W97240  11.363  37.335   4.594
30700W        W97241  33.062  44.597   0.321
30701W        W97242  27.511  10.640  13.606
30702W        W97243  21.933   1.738   2.692
30703W        W97244  12.242  33.903  10.348
30704W        W97245   0.546  34.851   2.191
30705W        W97246   0.377  24.092   0.004
30706W        W97247  20.346   0.919   3.694
30707W        W97248  43.320  33.607   0.548
30708W        W97249  33.786  33.919   4.935
30709W        W97250  38.394   5.907   4.738
30710W        W97251   6.263  30.536  13.881
30711W        W97252   8.914  18.412   2.795
30712W        W97253  39.720  41.223   2.853
30713W        W97254  23.014  44.002  13.281
30714W        W97255  10.429  22.176  13.118
30715W        W97256  15.610  38.529   1.909
30716W        W97257  38.125  27.449  14.564
30717W        W97258   3.802  33.073  14.864
30718W        W97259  15.737  11.898  14.516
30719W        W97260  18.133  17.273  12.373
30720W        W97261  33.713  10.206   1.156
30721W        W97262   0.774   2.921  12.174
30722W        W97263   6.199  42.031   3.676
30723W        W97264  41.121  28.562   3.205
30724W        W97265  16.500  10.244  11.922
30725W        W97266  35.601  42.396  14.858
30726W        W97267  11.644  41.384   0.366
30727W        W97268  13.776  21.105  13.836
30728W        W97269  35.142  27.961   4.124
30729W        W97270  30.432  24.747   0.621
30730W        W97271   0.411  14.653  12.754
30731W        W97272  34.233  35.361   2.256
30732W        W97273  42.845  25.141   0.455
30733W        W97274   7.867  40.127   0.325
30734W        W97275  42.464   7.332   0.947
30735W        W97276  22.599  18.404   2.738
30736W        W97277   2.154  30.050  10.655
30737W        W97278   5.906   7.199   1.753
30738W        W97279  33.936  28.145  14.068
30739W        W97280   5.516  37.509   0.231
30740W        W97281  19.652  24.454  14.046
30741W        W97282  24.384  25.069  12.520
30742W        W97283  42.742  43.320  10.632
30743W        W97284   4.615  14.124  10.322
30744W        W97285  33.176   0.451  12.977
30745W        W97286   7.247  35.642   2.206
30746W        W97287  33.488   9.182  14.425
30747W        W97288  15.101   9.759   2.653
30748W        W97289  44.764  33.627   2.806
30749W        W97290  21.036  10.078   0.272
30750W        W97291  15.552   9.242   3.178
30751W        W97292   7.678  40.932   0.704
30752W        W97293  28.795  29.444  14.842
30753W        W97294  24.727  27.390   0.891
30754W        W97295   6.716  28.462   4.318
30755W        W97296  34.524  28.714   0.359
30756W        W97297   0.304  26.220   2.293
30757W        W97298  44.267  18.744  14.325
30758W        W97299  22.988   8.679  10.120
30759W        W97300  12.613  35.319  11.094
30760W        W97301  42.235  37.448  13.397
30761W        W97302  37.314  13.326   1.598
30762W        W97303  21.698  44.544  12.219
30763W        W97304   7.166   8.972   3.122
30764W        W97305  28.579  33.587  10.661
30765W        W97306  32.194  29.171   0.973
30766W        W97307  15.162  37.334   0.757
30767W        W97308  10.110  11.759   3.333
30768W        W97309  31.090  27.197  11.994
30769W        W97310  32.003  35.512   0.793
30770W        W97311  33.653   0.887   0.194
30771W        W97312  21.118  14.563   3.588
30772W        W97313  41.595  16.280  12.314
30773W        W97314  27.422  36.501  11.831
30774W        W97315  22.495  16.677   0.154
30775W        W97316  14.327  18.515  14.741
30776W        W97317  20.066  35.919   4.117
30777W        W97318   8.079  23.515  11.074
30778W        W97319   3.919   5.986   2.219
30779W        W97320  38.745  16.616   4.761
30780W        W97321  16.753  43.020   1.485
30781W        W97322   8.503  35.615  12.547
30782W        W97323   2.245   8.042  14.845
30783W        W97324  15.195  17.845  12.988
30784W        W97325  21.514  26.363   0.535
30785W        W97326   2.764   6.450  14.313
30786W        W97327  21.525  39.692   5.118
30787W        W97328  25.517   5.950   1.160
30788W        W97329  15.268  38.838  13.762
30789W        W97330   5.643  38.143  14.049
30790W        W97331  11.361  34.734  11.905
30791W        W97332  23.160  10.647   3.568
30792W        W97333  40.420  16.330   5.228
30793W        W97334   1.213  31.898   1.960
30794W        W97335  40.366  24.723  14.281
30795W        W97336  29.146   2.183  10.584
30796W        W97337  18.735  30.083   0.652
30797W        W97338  28.970  10.179   2.479
30798W        W97339  40.578  38.787  12.561
30799W        W97340  36.301  12.882   4.124
30800W        W97341  31.064  40.420   0.811
30801W        W97342  44.744  28.653   0.346
30802W        W97343  23.921  29.867  14.551
30803W        W97344  26.018  39.899   3.326
30804W        W97345  20.798  15.617   2.085
30805W        W97346   9.956  11.727   1.870
30806W        W97347   2.968  18.867   0.790
30807W        W97348  32.123   9.446   0.515
30808W        W97349  44.013  30.672   4.134
30809W        W97350   4.746  34.966   1.681
30810W        W97351  44.880   4.054  10.462
30811W        W97352  39.726   5.993  12.276
30812W        W97353   6.124   5.984  10.970
30813W        W97354   4.390   7.093  13.719
30814W        W97355  28.594  23.279  11.081
30815W        W97356  43.722  29.444  12.902
30816W        W97357  44.188   9.609   4.888
30817W        W97358  41.224  44.889  12.603
30818W        W97359  40.082  28.475   1.377
30819W        W97360  30.558  10.784   1.351
30820W        W97361  19.732  12.208   4.055
30821W        W97362   7.351   1.242  10.656
30822W        W97363  42.214  32.186   0.375
30823W        W97364  34.821  37.298   2.014
30824W        W97365   0.261   2.801  12.860
30825W        W97366  37.620  14.730  13.899
30826W        W97367  30.212   2.107   4.158
30827W        W97368   8.404  31.619  14.936
30828W        W97369  12.812  23.997   2.096
30829W        W97370  43.962  16.264  10.791
30830W        W97371   7.642  29.000   2.596
30831W        W97372   4.302   6.127  11.115
30832W        W97373   3.554   3.224  13.369
30833W        W97374  34.126  23.774   2.675
30834W        W97375   2.405  14.873   1.506
30835W        W97376  12.080   0.416   2.392
30836W        W97377  10.183   2.013  11.147
30837W        W97378  38.403  25.708  13.958
30838W        W97379  34.625   8.367   4.811
30839W        W97380  28.883   8.210   0.771
30840W        W97381   1.108   6.071  13.016
30841W        W97382  39.841   3.389   2.617
30842W        W97383   9.631   9.272   0.298
30843W        W97384  20.532  30.815  14.900
30844W        W97385  12.342  17.373   3.845
30845W        W97386  36.587   7.199   0.187
30846W        W97387  19.573  39.372   3.765
30847W        W97388  43.934   3.917  11.789
30848W        W97389  19.661  40.118  14.072
30849W        W97390  26.049  31.055  13.213
30850W        W97391  42.997  32.634   3.281
30851W        W97392  32.931  31.492  14.618
30852W        W97393  13.626  13.094  11.993
30853W        W97394   4.508  20.760   3.912
30854W        W97395  23.174  12.183   2.784
30855W        W97396  28.590   8.775   3.280
30856W        W97397  16.049  31.872   3.219
30857W        W97398   9.188  30.017  14.707
30858W        W97399   2.430   7.654   4.899
30859W        W97400  43.302  31.254  10.741
30860W        W97401  16.326  34.490   4.504
30861W        W97402   2.387  12.231   2.851
30862W        W97403  18.360  25.679  11.461
30863W        W97404  41.254  41.237  10.938
30864W        W97405  14.250   7.078   0.539
30865W        W97406   9.244  32.131   4.557
30866W        W97407  26.617  11.183  11.137
30867W        W97408  26.809   9.202  13.324
30868W        W97409  30.871   2.001  11.226
30869W        W97410  29.364   4.308  12.771
30870W        W97411  16.021  34.431  13.021
30871W        W97412  28.647  22.251   0.979
30872W        W97413  43.333  42.507  10.914
30873W        W97414  30.832  14.296   4.933
30874W        W97415  23.809   3.421   0.030
30875W        W97416  25.356  31.354   4.076
30876W        W97417  10.619  23.131  11.642
30877W        W97418  25.698  28.884   4.890
30878W        W97419  10.565  28.383  11.609
30879W        W97420  38.077  34.299   0.767
30880W        W97421  16.603  44.568   1.326
30881W        W97422  32.032  34.274   4.842
30882W        W97423   5.408  32.155   3.832
30883W        W97424   4.923  10.811   0.092
30884W        W97425   5.708   8.954   2.000
30885W        W97426  14.736  44.842  12.029
30886W        W97427  16.230  40.545  11.521
30887W        W97428   5.900  40.489   1.252
30888W        W97429   6.945  34.990   2.253
30889W        W97430  10.365   8.117   0.533
30890W        W97431  13.573  42.377  11.967
30891W        W97432  13.563   0.480  14.354
30892W        W97433   8.171   7.438   0.750
30893W        W97434  37.944  22.729   1.922
30894W        W97435   1.291  16.188   1.183
30895W        W97436  12.653  11.217   0.763
30896W        W97437  42.890  35.060   3.240
30897W        W97438  36.444  36.805   2.411
30898W        W97439  17.735   5.745  10.694
30899W        W97440  41.735  36.997  14.030
30900W        W97441  18.012   5.399  10.382
30901W        W97442   1.888   1.497   5.291
30902W        W97443  28.338  20.012   3.554
30903W        W97444  37.048  23.762  14.016
30904W        W97445  11.712  44.171   2.712
30905W        W97446  21.584  31.994   1.775
30906W        W97447  29.366  31.121   2.836
30907W        W97448  39.968  21.558  11.634
30908W        W97449  27.668  20.340  14.978
30909W        W97450  44.229  23.920   3.403
30910W        W97451  33.156  22.294   1.409
30911W        W97452  33.657  43.306  11.097
30912W        W97453  39.758  44.992   0.816
30913W        W97454   2.767  29.579  10.788
30914W        W97455  26.183  23.207  11.597
30915W        W97456  36.948   4.921   2.971
30916W        W97457  34.057   6.970  11.323
30917W        W97458  26.391  44.834   1.463
30918W        W97459   2.431  26.217  10.163
30919W        W97460   9.219  26.710   3.003
30920W        W97461  36.488  36.129   1.822
30921W        W97462  14.652  41.270   0.845
30922W        W97463  35.131  42.747   1.977
30923W        W97464  34.672  35.034   3.214
30924W        W97465   4.217  22.533   4.730
30925W        W97466  19.565  36.636  13.025
30926W        W97467  12.765  10.227  14.954
30927W        W97468   2.914  16.922   0.890
30928W        W97469   1.706  37.982  13.499
30929W        W97470  13.403  14.644  13.429
30930W        W97471  43.719   7.247   0.239
30931W        W97472  35.215  38.289   2.925
30932W        W97473  28.041   6.122  11.525
30933W        W97474  28.871  34.096  12.997
30934W        W97475  10.718  33.597  13.847
30935W        W97476   4.368  14.392   0.431
30936W        W97477  11.320  22.631  14.479
30937W        W97478  10.861  36.486  14.262
30938W        W97479  34.935   7.982   0.093
30939W        W97480  22.866   9.930   2.190
30940W        W97481  37.785   3.232  12.601
30941W        W97482  35.975  20.817  14.404
30942W        W97483  18.664  25.281  11.431
30943W        W97484  44.044  12.582  13.594
30944W        W97485  40.339  42.328  14.329
30945W        W97486   1.356  13.105   0.906
30946W        W97487  36.586  13.579  11.963
30947W        W97488  21.252  44.236   4.630
30948W        W97489  26.000  14.590  11.892
30949W        W97490  32.367  22.459  13.856
30950W        W97491  27.410  33.058  14.064
30951W        W97492  34.433  19.320  10.746
30952W        W97493   3.669  36.724   4.514
30953W        W97494  28.029  26.877   3.304
30954W        W97495   8.920  44.267  12.951
30955W        W97496   0.356  26.597   2.709
30956W        W97497  39.766  13.197  11.676
30957W        W97498  25.273   7.321  11.371
30958W        W97499  23.608   3.154  12.155
30959W        W97500  33.480  16.063  11.847
30960W        W97501  35.314  23.575   3.240
30961W        W97502  41.067   2.443  13.929
30962W        W97503  29.204   8.213   0.345
30963W        W97504  34.108  13.214  12.366
30964W        W97505  17.284  41.515  11.551
30965W        W97506   6.056   1.191  11.235
30966W        W97507  20.546  42.491   1.337
30967W        W97508  33.182  10.766   2.436
30968W        W97509  14.343  28.645   2.218
30969W        W97510  18.780   9.773   1.930
30970W        W97511  32.613  18.049   2.867
30971W        W97512  34.298  38.020   1.383
30972W        W97513  21.017   6.320  14.743
30973W        W97514  33.124  18.193   0.860
30974W        W97515  22.058  24.616   2.275
30975W        W97516  25.117  15.138   2.256
30976W        W97517  23.096  25.758   0.364
30977W        W97518  17.568  15.743   1.267
30978W        W97519   5.281   8.319   2.314
30979W        W97520   6.187  31.540   0.710
30980W        W97521   8.643  26.124  11.328
30981W        W97522  43.331  11.733  13.316
30982W        W97523   1.795  44.810   1.629
30983W        W97524   1.963  27.227   4.086
30984W        W97525  12.317  35.472   2.657
30985W        W97526  14.450  32.897   1.873
30986W        W97527  10.774  21.666  14.477
30987W        W97528   7.396  23.644  13.451
30988W        W97529  29.562  31.589  14.967
30989W        W97530   7.189  39.392  13.868
30990W        W97531  11.159  23.853  12.531
30991W        W97532  17.627  36.796  14.843
30992W        W97533  35.402  40.054  10.855
30993W        W97534  18.157  39.058   2.348
30994W        W97535  42.168  35.654   2.788
30995W        W97536  33.669  38.645   2.201
30996W        W97537  19.409  32.125   0.813
30997W        W97538  27.676   2.753   1.663
30998W        W97539  18.227   5.815   0.633
30999W        W97540  42.955  27.927   4.496
31000W        W97541   6.553  33.429  10.796
31001W        W97542  32.069   4.005   4.150
31002W        W97543  40.837  18.138  10.605
31003W        W97544  21.705  21.681   0.922
31004W        W97545   1.811  38.545   3.778
31005W        W97546  42.598  15.099   0.794
31006W        W97547   8.891  40.857   0.367
31007W        W97548  38.002  20.583   1.783
31008W        W97549  32.131  30.861  13.378
31009W        W97550  11.096  25.675  11.603
31010W        W97551  30.536   1.397   3.754
31011W        W97552  33.114  42.389  10.600
31012W        W97553  25.029  41.823  10.751
31013W        W97554   8.258  21.014  10.904
31014W        W97555  34.376  15.553  12.981
31015W        W97556  11.294  26.553   4.534
31016W        W97557   2.793   7.886   1.881
31017W        W97558  18.972  28.591  10.715
31018W        W97559  10.624   4.379  13.376
31019W        W97560  39.284  44.265   4.253
31020W        W97561  31.956  38.314  12.487
31021W        W97562  10.739  28.073   4.654
31022W        W97563  17.240  40.956  10.712
31023W        W97564  30.945  14.616   3.145
31024W        W97565  31.975   7.442  13.388
31025W        W97566  27.556   0.756  11.658
31026W        W97567  36.251  25.972  12.522
31027W        W97568  19.227  38.338   0.963
31028W        W97569  10.460   0.406  13.322
31029W        W97570  14.813  31.093   1.824
31030W        W97571  39.131  44.261  13.067
31031W        W97572   7.433  42.530  13.190
31032W        W97573  21.979  15.928   1.421
31033W        W97574  18.680   7.419   1.651
31034W        W97575  16.262  20.087  11.089
31035W        W97576  23.085   7.577  12.464
31036W        W97577  26.769  41.542   3.795
31037W        W97578  34.787  28.593  12.526
31038W        W97579  44.171  18.671  12.330
31039W        W97580  42.396  25.508  12.866
31040W        W97581  16.237  28.492  11.003
31041W        W97582  17.321  39.785   2.446
31042W        W97583  16.341   2.696   1.305
31043W        W97584  24.907  33.151   3.284
31044W        W97585  22.125  44.042  13.903
31045W        W97586   7.238  28.982  12.092
31046W        W97587   8.000  36.211  14.766
31047W        W97588  24.246  16.827   2.027
31048W        W97589  15.200  12.388   4.605
31049W        W97590  14.820  24.182  12.867
31050W        W97591  39.398   2.773  11.798
31051W        W97592   0.792  41.913  13.183
31052W        W97593  31.995  25.944   4.564
31053W        W97594  39.091   7.860   2.687
31054W        W97595   1.412   6.700   4.394
31055W        W97596   0.897  38.132  13.849
31056W        W97597  21.749  15.847  10.226
31057W        W97598  18.744  36.905  13.904
31058W        W97599  11.634   5.942   1.876
31059W        W97600  31.797   4.439   2.859
31060W        W97601   5.738   4.445  11.902
31061W        W97602  35.480  39.458   0.283
31062W        W97603  18.853  40.839   0.029
31063W        W97604  24.503   6.824   4.214
31064W        W97605  29.991  35.810  14.812
31065W        W97606  14.135  40.365   4.239
31066W        W97607  23.695  10.821  13.932
31067W        W97608  37.472   6.814   2.920
31068W        W97609   3.428   0.748  11.994
31069W        W97610  21.252  20.149  12.165
31070W        W97611  27.920  14.138  13.008
31071W        W97612   9.185  38.932   1.430
31072W        W97613  26.233  31.681   0.197
31073W        W97614  36.446  31.408   4.350
31074W        W97615  12.320  21.314  12.921
31075W        W97616   7.170   1.691  10.818
31076W        W97617   5.107  32.512   3.199
31077W        W97618   2.434  36.958   2.782
31078W        W97619   6.301  44.880   2.930
31079W        W97620  26.126  24.163   3.138
31080W        W97621   4.527  36.553   1.632
31081W        W97622  28.313  24.094  13.700
31082W        W97623  32.419  21.705  12.553
31083W        W97624  10.644  33.327   1.430
31084W        W97625  12.700   1.318  11.092
31085W        W97626  27.628  20.514   3.769
31086W        W97627  11.922  13.054  12.957
31087W        W97628  18.059  16.492  11.059
31088W        W97629  24.031  14.340  14.010
31089W        W97630  27.730   2.882   0.733
31090W        W97631  19.766  23.530  14.909
31091W        W97632  19.775  24.887   1.790
31092W        W97633  39.664  23.611   2.404
31093W        W97634  13.195   0.779  12.553
31094W        W97635  37.762   5.641   2.343
31095W        W97636  21.684  26.104  13.353
31096W        W97637  39.045  10.599   3.314
31097W        W97638  18.320   2.529  13.384
31098W        W97639   1.704   9.270   1.313
31099W        W97640  34.369  37.197  11.559
31100W        W97641  10.914  29.091   3.340
31101W        W97642   8.768  42.390  13.460
31102W        W97643  29.620  25.846  13.462
31103W        W97644  10.307   6.189  14.422
31104W        W97645  18.516  27.543   2.083
31105W        W97646  36.583  38.838  11.990
31106W        W97647  38.345  31.891   1.902
31107W        W97648  23.475  25.268  13.479
31108W        W97649   8.928  12.335  14.304
31109W        W97650   3.593  11.300  10.232
31110W        W97651  27.524  11.599  14.890
31111W        W97652  11.868   2.657  13.522
31112W        W97653  23.990  35.589   0.081
31113W        W97654  43.946  36.109   0.715
31114W        W97655  40.879  35.348   1.176
31115W        W97656  19.528  25.692   2.969
31116W        W97657  34.699  16.602   2.996
31117W        W97658  42.555  38.956  13.517
31118W        W97659  15.587  44.522  12.936
31119W        W97660  20.801  44.896  11.179
31120W        W97661  16.127  12.816   4.222
31121W        W97662  25.998  30.993   2.467
31122W        W97663   7.918   9.975   2.763
31123W        W97664  20.695  18.551   3.235
31124W        W97665  10.265  36.428   0.799
31125W        W97666  31.993  21.544  14.320
31126W        W97667   6.500   3.733   4.346
31127W        W97668  29.558  17.342   4.614
31128W        W97669  22.685  26.744   0.850
31129W        W97670   1.681  25.227   4.097
31130W        W97671  39.355  19.868  13.860
31131W        W97672  27.038  23.061  13.082
31132W        W97673  33.501  12.298  10.243
31133W        W97674  35.929  20.294  12.981
31134W        W97675   3.670   4.908  14.308
31135W        W97676  27.989   6.736  10.726
31136W        W97677  42.504  19.684  10.521
31137W        W97678  29.474  31.888  13.861
31138W        W97679  29.587   5.607  14.027
31139W        W97680   3.301  12.368   2.392
31140W        W97681  41.826  29.983   0.850
31141W        W97682   8.119  42.857  12.482
31142W        W97683  25.765  35.604  11.015
31143W        W97684   1.933  36.171   1.944
31144W        W97685   0.409  10.025  14.303
31145W        W97686  19.918  40.969   2.197
31146W        W97687  12.626  26.871   4.911
31147W        W97688  37.836  14.679  10.495
31148W        W97689  29.131  22.562   3.269
31149W        W97690   2.415  21.579  14.916
31150W        W97691  15.764  37.966   3.576
31151W        W97692   5.014   2.164  11.185
31152W        W97693  28.158   8.012  14.819
31153W        W97694  12.267  12.142   4.148
31154W        W97695  13.229   9.829   2.250
31155W        W97696  17.674  34.200   1.041
31156W        W97697   1.063  12.723   3.642
31157W        W97698  39.075   8.452  11.102
31158W        W97699  24.454  14.772   0.039
31159W        W97700   0.993   0.004  14.446
31160W        W97701   8.962  23.433   4.873
31161W        W97702   1.777  22.525   3.316
31162W        W97703   6.474  20.180  13.335
31163W        W97704   7.307   4.972  11.648
31164W        W97705   1.542  22.914   0.526
31165W        W97706   4.919  19.289  12.440
31166W        W97707  28.440   7.262   1.958
31167W        W97708   0.020  41.276  14.994
31168W        W97709  34.011   2.115   4.124
31169W        W97710  10.299  11.050   4.318
31170W        W97711  16.654   1.088  12.101
31171W        W97712  13.245  11.960  12.898
31172W        W97713  14.314  29.326   5.505
31173W        W97714   0.347  36.801  14.983
31174W        W97715  29.705  22.625  14.655
31175W        W97716  41.656  25.322   4.576
31176W        W97717  20.947  12.427  13.487
31177W        W97718  27.658  12.397   2.160
31178W        W97719   9.276  33.235   2.447
31179W        W97720  12.489   1.680   0.862
31180W        W97721  10.937  38.725   5.538
31181W        W97722  42.098  42.563  13.320
31182W        W97723   6.088  27.978  11.528
31183W        W97724   5.870  36.918   2.329
31184W        W97725   4.740   2.723   3.507
31185W        W97726  37.677  43.843   3.271
31186W        W97727   8.132  25.233  11.433
31187W        W97728  40.305  22.846   1.296
31188W        W97729  33.968   6.557   0.799
31189W        W97730  16.991  40.451  12.571
31190W        W97731  20.491  36.392   4.271
31191W        W97732   4.980  37.457  11.173
31192W        W97733  33.476  37.658  11.553
31193W        W97734  22.204   2.654   1.794
31194W        W97735  34.423  39.822  14.973
31195W        W97736  14.107  36.211  13.176
31196W        W97737  18.673  21.692  10.522
31197W        W97738  13.782  18.647  12.561
31198W        W97739  31.971  11.966  11.977
31199W        W97740  36.445  35.063  12.134
31200W        W97741   9.513  14.555  10.794
31201W        W97742  19.845  40.939  13.805
31202W        W97743  28.349  41.876   1.775
31203W        W97744  34.634  34.616   3.537
31204W        W97745  21.149  43.840  10.688
31205W        W97746   4.328  15.354   4.109
31206W        W97747  36.958  20.696  14.923
31207W        W97748  44.797  34.413   2.377
31208W        W97749  34.030  11.691   3.591
31209W        W97750  34.794  44.303   2.187
31210W        W97751  31.337  42.860   4.075
31211W        W97752  28.262  43.482  12.827
31212W        W97753  31.564  14.465   2.291
31213W        W97754  18.557   0.750   0.799
31214W        W97755  35.965  27.042  14.773
31215W        W97756  27.585  25.680   1.461
31216W        W97757   4.427  20.882   2.396
31217W        W97758  30.198  30.613   2.767
31218W        W97759  19.092   0.309   3.774
31219W        W97760  29.155  11.741  11.060
31220W        W97761   3.500  19.995   2.354
31221W        W97762  31.360   9.313   4.067
31222W        W97763  17.376   5.722   2.155
31223W        W97764  44.848  20.862   2.815
31224W        W97765   3.315  25.301  12.593
31225W        W97766   7.332  15.732   4.139
31226W        W97767  31.078  38.959  13.462
31227W        W97768  19.550  33.510   5.068
31228W        W97769  35.544  35.421  13.662
31229W        W97770  15.920   3.168  14.854
31230W        W97771  16.698   3.184  10.887
31231W        W97772  17.127  40.894  13.495
31232W        W97773  24.125  31.199  13.095
31233W        W97774  21.643  16.506  11.579
31234W        W97775   8.357  20.735  11.680
31235W        W97776   7.158  25.520   5.469
31236W        W97777  29.181  31.036  13.416
31237W        W97778   0.598   5.905  13.012
31238W        W97779  44.114   1.720  12.477
31239W        W97780   3.133  26.293  13.579
31240W        W97781  16.774   3.672  13.292
31241W        W97782  41.472  16.646  12.660
31242W        W97783  27.697  33.224   4.063
31243W        W97784  27.592   1.464  14.488
31244W        W97785  19.774  17.692  14.960
31245W        W97786  12.078  12.619   0.109
31246W        W97787  42.723  32.215   0.438
31247W        W97788   0.100  29.192   3.338
31248W        W97789  31.445  36.945  13.126
31249W        W97790  41.171  26.616  14.432
31250W        W97791  29.455   1.855   3.089
31251W        W97792  44.021  13.088  14.316
31252W        W97793   1.796  36.014   4.688
31253W        W97794  32.456  11.733  11.924
31254W        W97795   6.012   5.630  13.460
31255W        W97796  39.107  26.538   4.619
31256W        W97797  33.269  39.875  14.540
31257W        W97798  18.583  22.359   1.251
31258W        W97799   3.785  18.666   4.523
31259W        W97800   5.340  33.853   0.045
31260W        W97801  30.509  28.228  13.778
31261W        W97802  10.296  22.414  13.556
31262W        W97803  24.450  37.017  13.028
31263W        W97804  20.668  22.304   2.799
31264W        W97805  28.477  41.858  11.718
31265W        W97806   9.412  19.535  13.864
31266W        W97807  39.339  20.661  12.472
31267W        W97808   9.296   5.034   2.999
31268W        W97809  44.373  27.644   1.977
31269W        W97810  22.486  24.397  12.520
31270W        W97811  26.954  13.158  11.535
31271W        W97812   2.121   5.850  10.361
31272W        W97813  42.424   4.518  11.515
31273W        W97814  42.510  14.253   3.976
31274W        W97815   3.687   7.248  12.040
31275W        W97816  23.447  25.594   0.033
31276W        W97817   9.791   1.998   4.248
31277W        W97818   3.400   8.902  13.866
31278W        W97819  44.572  31.588  14.283
31279W        W97820  11.127   0.994   2.415
31280W        W97821  35.913  34.295  12.093
31281W        W97822  41.949  10.544   3.284
31282W        W97823   7.757  38.049  14.122
31283W        W97824   4.968  19.180  13.330
31284W        W97825  31.441   6.629   0.321
31285W        W97826  11.551  17.669   3.858
31286W        W97827  22.547  32.628   4.644
31287W        W97828   4.786   2.380  14.995
31288W        W97829  26.271  12.465   2.393
31289W        W97830  12.308  16.668  13.909
31290W        W97831  38.915  30.610  14.448
31291W        W97832  25.320  37.490  11.095
31292W        W97833  25.651   0.693   1.979
31293W        W97834  20.505  24.930  10.499
31294W        W97835   6.660  10.895   2.833
31295W        W97836   5.757  13.784   0.443
31296W        W97837  32.995   0.288  13.483
31297W        W97838  37.865  33.601  14.570
31298W        W97839   2.917  36.429   0.979
31299W        W97840   2.712   6.422  12.872
31300W        W97841  20.053  37.348   0.897
31301W        W97842  19.737   6.609  14.835
31302W        W97843  40.766  25.049   3.723
31303W        W97844  12.081  36.095   0.799
31304W        W97845  25.553  22.649  11.038
31305W        W97846  21.247  18.030  10.170
31306W        W97847  30.545   5.845  12.525
31307W        W97848   8.297   5.491   1.257
31308W        W97849   8.163   2.683  12.585
31309W        W97850   1.802  18.706  11.492
31310W        W97851   1.479  34.557   4.661
31311W        W97852  16.173  41.570  12.474
31312W        W97853  36.826  33.503  11.753
31313W        W97854  29.164  28.477   3.221
31314W        W97855  22.997  39.602  13.389
31315W        W97856  42.231   2.118   3.193
31316W        W97857  23.606  17.749  11.189
31317W        W97858  31.822  26.632  12.465
31318W        W97859   6.203  16.089  14.870
31319W        W97860  37.071  42.015  12.912
31320W        W97861  21.115  10.896  14.868
31321W        W97862   1.802  32.779   4.933
31322W        W97863  21.432  15.238  12.600
31323W        W97864   2.938   2.252   1.410
31324W        W97865  16.092  10.710   3.572
31325W        W97866  14.265  40.797   0.239
31326W        W97867  10.420  33.582  11.147
31327W        W97868  28.054   3.404  11.665
31328W        W97869  42.915  40.474  11.090
31329W        W97870  27.557  12.790  11.380
31330W        W97871  42.302  16.778   0.294
31331W        W97872   7.605  22.559   2.788
31332W        W97873   7.436  31.264  14.088
31333W        W97874  35.828  25.019   4.121
31334W        W97875   4.420  14.817  11.983
31335W        W97876  24.466  20.719   2.686
31336W        W97877  36.847  35.003   3.399
31337W        W97878  21.122   3.137  14.472
31338W        W97879  40.844  42.427  13.780
31339W        W97880   8.702  23.461   2.851
31340W        W97881  44.760  31.337  13.872
31341W        W97882  12.430   8.276   4.298
31342W        W97883  23.734  36.574   2.646
31343W        W97884  12.716  16.700   3.268
31344W        W97885  37.434  21.343  11.608
31345W        W97886  44.698   5.175  13.553
31346W        W97887  42.105  35.935  11.546
31347W        W97888   7.677  30.071  13.326
31348W        W97889  39.015  21.626   4.119
31349W        W97890  10.777  14.377  11.053
31350W        W97891  33.767  38.138  11.500
31351W        W97892   6.197  39.321  11.849
31352W        W97893  43.464  38.939  12.401
31353W        W97894  20.597  35.099  11.192
31354W        W97895  26.751  20.646   3.664
31355W        W97896  29.465  24.555   4.599
31356W        W97897  21.527  22.579  11.726
31357W        W97898  13.844  39.636  11.009
31358W        W97899   9.112  31.049  14.806
31359W        W97900  29.937   4.394   3.689
31360W        W97901  15.281  30.884   2.749
31361W        W97902  18.567  17.219  10.986
31362W        W97903  18.380  42.823   4.587
31363W        W97904  35.516  19.297   1.727
31364W        W97905  32.495  26.211  11.973
31365W        W97906  28.509  14.322  12.445
31366W        W97907  35.834  11.856   4.601
31367W        W97908  38.245  18.435   1.424
31368W        W97909  29.243  22.214  11.139
31369W        W97910  32.987  42.483  14.891
31370W        W97911  18.730  43.870  12.236
31371W        W97912  16.540  33.591   2.882
31372W        W97913  39.288  33.408  10.693
31373W        W97914   5.331  10.750   1.670
31374W        W97915  40.628  33.151  12.032
31375W        W97916  20.930  14.226  12.353
31376W        W97917  13.597   4.047   1.042
31377W        W97918   9.386   0.572  12.519
31378W        W97919  25.275  43.824  10.624
31379W        W97920   1.070   3.922  12.496
31380W        W97921   4.223   4.826   5.010
31381W        W97922  44.897  18.870  11.928
31382W        W97923  13.795  20.104  10.745
31383W        W97924  18.525  32.618   4.813
31384W        W97925  22.537   5.844  12.030
31385W        W97926   1.344  20.341  10.661
31386W        W97927  34.850   3.347   0.812
31387W        W97928  13.420   2.353  10.629
31388W        W97929  14.649  24.505   3.745
31389W        W97930  43.014  42.759  13.401
31390W        W97931  43.965  41.982   2.099
31391W        W97932  15.225  35.948  10.599
31392W        W97933   5.144  32.894   1.153
31393W        W97934  42.301  34.633   2.842
31394W        W97935   8.128  21.338  13.950
31395W        W97936  13.256  22.537   3.405
31396W        W97937  29.128  43.237   1.888
31397W        W97938  15.667  38.493  13.512
31398W        W97939  34.456  34.335   2.642
31399W        W97940  43.979  28.907  10.121
31400W        W97941   5.765  14.816  13.664
31401W        W97942  32.840  29.244   0.096
31402W        W97943  43.320   6.861  14.910
31403W        W97944  18.048   8.577   1.922
31404W        W97945  20.215  35.863   3.112
31405W        W97946  37.724  18.568   1.521
31406W        W97947   4.692  44.540  14.838
31407W        W97948  10.812  21.209   4.571
31408W        W97949  22.574  29.773   3.168
31409W        W97950  26.155  30.349  11.532
31410W        W97951  25.471  30.529  14.868
31411W        W97952   3.778  39.342  10.577
31412W        W97953   7.809   0.126   5.330
31413W        W97954  14.347  36.623   1.292
31414W        W97955   7.817  28.208  13.618
31415W        W97956  14.770  26.119   4.176
31416W        W97957  33.172  25.077   3.463
31417W        W97958   9.797  26.942   2.814
31418W        W97959  25.961  33.915  14.032
31419W        W97960  16.120   8.633  13.827
31420W        W97961  20.669  11.406   1.398
31421W        W97962  18.391   8.219  12.125
31422W        W97963  44.831  42.098  12.089
31423W        W97964  37.948  42.406   0.649
31424W        W97965  20.878  38.822   1.651
31425W        W97966  42.583   0.257  14.093
31426W        W97967  34.134   2.930  14.490
31427W        W97968  38.893  31.789  14.822
31428W        W97969  32.882   9.789  14.935
31429W        W97970   8.422  15.539  11.154
31430W        W97971  11.123   4.056  12.227
31431W        W97972   4.730   9.693   2.331
31432W        W97973  35.108  35.859  12.131
31433W        W97974  40.367   4.175   1.424
31434W        W97975  38.303  39.890   0.845
31435W        W97976   1.723   1.676   1.317
31436W        W97977  19.042   9.409   0.819
31437W        W97978  44.263  37.916  11.886
31438W        W97979  19.649  22.626   2.703
31439W        W97980  11.867  30.534  10.234
31440W        W97981  10.002  29.752  11.231
31441W        W97982  13.514  42.870  10.069
31442W        W97983   1.717  11.218   3.716
31443W        W97984  24.674  19.739   3.138
31444W        W97985  19.479  33.503  12.294
31445W        W97986  20.412  43.134   3.180
31446W        W97987  33.191  39.281  14.579
31447W        W97988  21.712   8.187   0.282
31448W        W97989   7.227  18.838  13.529
31449W        W97990  22.991  26.264  14.384
31450W        W97991   0.386  38.065  13.882
31451W        W97992  19.843  37.111   2.155
31452W        W97993  43.751  28.906   3.749
31453W        W97994  40.128  29.262  14.828
31454W        W97995   2.864   3.687   0.480
31455W        W97996  23.535  12.865   2.298
31456W        W97997  30.069  36.888   3.391
31457W        W97998   1.002  23.476   4.900
31458W        W97999  21.467  32.889   0.760
31459W        W98000   6.158   1.287  13.056
31460W        W98001  14.416  44.142   0.001
31461W        W98002  33.617  43.019  12.390
31462W        W98003  24.015   3.190  10.962
31463W        W98004   7.368  40.143   2.808
31464W        W98005  15.761   0.115   2.431
31465W        W98006   8.736  41.327  11.597
31466W        W98007  13.832  23.506   2.403
31467W        W98008  31.620  43.619  11.016
31468W        W98009  13.647  26.872   2.888
31469W        W98010  42.268  18.891  14.622
31470W        W98011  39.500  33.881   4.033
31471W        W98012  20.617  42.242  12.858
31472W        W98013  10.680  30.926   3.626
31473W        W98014   5.859  33.385   0.400
31474W        W98015  40.769  35.885   3.292
31475W        W98016  25.261  37.463  14.213
31476W        W98017  24.770  42.257  10.921
31477W        W98018   1.140  37.621  11.158
31478W        W98019  35.612  44.261   4.502
31479W        W98020  33.267   1.703   1.765
31480W        W98021  42.202  32.424  14.275
31481W        W98022  42.281  26.659  13.814
31482W        W98023  25.766  38.814   3.579
31483W        W98024  12.157   3.608   4.602
31484W        W98025  38.742  42.439  14.384
31485W        W98026  12.208  42.798  13.979
31486W        W98027  30.926  25.309  10.584
31487W        W98028  33.083  44.272  14.343
31488W        W98029   1.908  30.920  10.663
31489W        W98030  38.814  23.047  14.480
31490W        W98031  25.819   4.563   2.419
31491W        W98032  20.618  21.983  11.869
31492W        W98033  17.571  37.921   2.439
31493W        W98034   0.296  38.465  11.654
31494W        W98035   8.436  24.474   1.836
31495W        W98036  36.450  10.758   1.775
31496W        W98037   9.002  15.713  12.493
31497W        W98038  39.367  23.510   1.979
31498W        W98039  10.350   0.420  11.626
31499W        W98040  19.611  18.693  13.038
31500W        W98041  34.402  38.917  11.570
31501W        W98042  34.463  29.503   4.469
31502W        W98043   5.194  13.115  13.105
31503W        W98044  27.903  32.486   2.401
31504W        W98045  39.839  24.195   2.378
31505W        W98046  34.434  30.613  12.525
31506W        W98047  41.836  43.218  14.835
31507W        W98048   6.425  19.573  10.689
31508W        W98049  20.175  22.246   4.543
31509W        W98050   9.947  23.590   3.173
31510W        W98051  14.732  38.573  13.344
31511W        W98052  31.184  30.763  14.381
31512W        W98053  18.239  43.304   3.791
31513W        W98054  22.761  35.825  10.951
31514W        W98055   6.222   5.327   2.203
31515W        W98056  27.701   1.816   2.192
31516W        W98057  33.940  36.260   4.000
31517W        W98058  20.406   8.459  10.224
31518W        W98059  17.337  13.237  14.835
31519W        W98060  15.724   0.760   1.697
31520W        W98061  31.409   9.079   0.921
31521W        W98062  32.376   3.468  12.155
31522W        W98063   5.374   6.713  13.457
31523W        W98064   4.016  24.039  11.441
31524W        W98065  24.237  38.346   4.254
31525W        W98066  14.317  10.754   0.372
31526W        W98067  44.835  13.722  10.866
31527W        W98068  16.671  21.802   4.101
31528W        W98069  26.421  15.866   3.222
31529W        W98070  22.207  24.500   3.223
31530W        W98071  42.299  25.999   3.313
31531W        W98072  34.120   7.799   0.083
31532W        W98073  11.652   5.048  10.164
31533W        W98074  30.094  32.737  11.546
31534W        W98075  13.245  18.509   0.814
31535W        W98076  29.401  13.855   4.926
31536W        W98077   7.936  12.388   4.349
31537W        W98078  16.346  41.398   2.274
31538W        W98079  37.525  14.211   3.105
31539W        W98080   9.723  37.045   3.278
31540W        W98081  11.544  30.661   1.239
31541W        W98082  10.195  33.566   1.336
31542W        W98083   4.669  11.049  10.314
31543W        W98084  27.547  26.694  14.301
31544W        W98085  20.565  34.494  14.453
31545W        W98086  28.621  40.327  14.381
31546W        W98087  24.510  19.089  12.817
31547W        W98088   0.809  17.183   0.053
31548W        W98089  41.365  20.484  14.470
31549W        W98090  16.485  44.688   2.698
31550W        W98091   5.272  28.876   2.895
31551W        W98092  11.433  39.994   1.690
31552W        W98093  22.563  23.154  10.445
31553W        W98094  13.692  31.960  13.966
31554W        W98095  42.451  39.977   3.675
31555W        W98096  39.267  33.179  14.977
31556W        W98097  12.057  10.711   4.729
31557W        W98098  26.554   8.473  12.951
31558W        W98099  13.178  42.490  14.872
31559W        W98100  32.671  37.320  11.927
31560W        W98101  14.867  24.836  14.038
31561W        W98102  42.143  39.060  12.561
31562W        W98103  43.416  26.434   3.172
31563W        W98104  42.031  28.449   1.393
31564W        W98105  19.070  12.129  10.241
31565W        W98106   7.384  11.195   2.370
31566W        W98107  16.040  25.692   2.158
31567W        W98108   8.822   3.929  13.925
31568W        W98109  19.576   2.216  12.977
31569W        W98110  22.941  31.870   5.112
31570W        W98111   1.973  33.793  10.243
31571W        W98112  18.236  23.819   3.327
31572W        W98113  18.690  12.356   3.183
31573W        W98114  14.325   4.346   4.223
31574W        W98115  40.105  37.013   0.355
31575W        W98116  34.057  29.321  13.286
31576W        W98117  27.713  31.217  11.955
31577W        W98118  19.145  16.731   1.717
31578W        W98119  14.379  37.938   3.591
31579W        W98120   6.548  17.073   1.700
31580W        W98121  25.563  30.508  12.055
31581W        W98122  11.265   3.938   4.575
31582W        W98123  41.880   5.215   0.402
31583W        W98124  13.098  28.066  14.764
31584W        W98125  39.555  11.940   5.021
31585W        W98126  43.528  31.973  11.610
31586W        W98127  33.848  40.560  12.540
31587W        W98128   4.383  13.578  13.353
31588W        W98129   7.377  23.106   0.565
31589W        W98130  17.289  15.276  12.091
31590W        W98131   9.180   3.230   3.684
31591W        W98132   5.916  12.901   0.451
31592W        W98133  29.768  44.797  14.405
31593W        W98134   4.399   5.662   3.316
31594W        W98135  38.372  32.304   4.710
31595W        W98136  18.279  34.064  12.570
31596W        W98137   0.004  38.845  11.485
31597W        W98138   6.143   0.271  10.311
31598W        W98139   3.406  39.302   0.515
31599W        W98140  34.142   9.630   4.629
31600W        W98141  25.732  33.716  14.464
31601W        W98142  11.675  11.064   2.253
31602W        W98143   8.733   7.201   3.084
31603W        W98144  23.158  23.893  13.057
31604W        W98145  27.715  36.509   0.895
31605W        W98146   7.435  33.151   1.028
31606W        W98147  42.095  44.236   4.160
31607W        W98148   2.771  19.542  13.352
31608W        W98149  42.473  33.807   3.201
31609W        W98150   6.874  40.063  11.253
31610W        W98151  31.405  37.516   4.961
31611W        W98152  17.755  10.673   1.387
31612W        W98153  44.477   4.471   4.728
31613W        W98154  11.658  25.022  12.097
31614W        W98155  14.207  22.400   1.368
31615W        W98156  20.275  21.536   1.993
31616W        W98157  14.559   9.865  11.088
31617W        W98158   1.001  23.033  12.512
31618W        W98159  14.349  31.970   2.727
31619W        W98160   0.502  31.429  12.079
31620W        W98161  32.350  41.423  11.536
31621W        W98162  35.421  24.964   4.521
31622W        W98163  28.016  18.849  14.405
31623W        W98164  27.506   8.210   2.932
31624W        W98165  15.274   0.991   0.833
31625W        W98166  38.411  30.994  13.832
31626W        W98167  44.035  40.983  10.319
31627W        W98168   3.040   6.370   2.455
31628W        W98169  19.002  11.754  11.048
31629W        W98170  15.291   7.294   3.213
31630W        W98171   7.286  43.951  14.865
31631W        W98172  20.642  14.756   3.111
31632W        W98173  44.765   3.151  12.585
31633W        W98174  13.579  32.332  14.304
31634W        W98175  15.168  20.306   3.838
31635W        W98176  36.559  22.197   4.098
31636W        W98177  21.602   3.411  13.174
31637W        W98178  38.765   2.746   1.027
31638W        W98179   4.200   6.376   2.853
31639W        W98180  37.693  13.355   1.967
31640W        W98181   7.040   9.131   0.465
31641W        W98182   7.659  26.725   0.106
31642W        W98183  27.548  18.525  14.480
31643W        W98184  36.415  11.414  13.264
31644W        W98185  12.618  15.549  10.716
31645W        W98186  34.434  14.111  11.976
31646W        W98187  15.249  35.961  11.729
31647W        W98188  18.179  19.672  11.623
31648W        W98189  24.833  12.779   2.254
31649W        W98190   4.843  36.604   5.404
31650W        W98191  41.258   1.218  12.841
31651W        W98192   9.735  43.108   3.583
31652W        W98193   2.348   2.026  13.491
31653W        W98194  14.066  10.370   0.661
31654W        W98195   1.995  41.764  12.447
31655W        W98196   1.990  23.383   5.333
31656W        W98197  32.065   2.369  14.825
31657W        W98198  41.516   7.343  14.863
31658W        W98199  34.099  35.961   0.379
31659W        W98200   9.080   2.900   2.186
31660W        W98201   9.243  15.566   0.379
31661W        W98202  16.755   8.306   4.313
31662W        W98203  33.418  27.191  13.550
31663W        W98204  24.567  37.523   0.950
31664W        W98205   5.968   7.149   3.265
31665W        W98206  18.522  42.400  13.379
31666W        W98207  15.124  30.656  12.622
31667W        W98208   9.269  42.922   1.349
31668W        W98209  28.587  17.216   2.771
31669W        W98210  35.332  34.361   4.173
31670W        W98211  27.218  20.212   4.396
31671W        W98212  12.897  38.855  12.431
31672W        W98213  43.375  24.719   4.185
31673W        W98214  32.840  38.094  12.694
31674W        W98215  42.216  32.426  11.641
31675W        W98216  18.545  20.551   0.839
31676W        W98217  39.342  20.859  10.051
31677W        W98218  44.049   4.901  14.778
31678W        W98219  22.493  35.725   4.942
31679W        W98220  33.260   8.141   3.399
31680W        W98221  24.511  14.164  12.530
31681W        W98222  44.458  29.006  10.373
31682W        W98223  12.567   4.668   1.253
31683W        W98224  15.655  38.857  13.016
31684W        W98225  16.647   7.202   4.550
31685W        W98226   8.121  14.471  14.417
31686W        W98227  41.739  34.676  14.881
31687W        W98228   3.986   4.273   0.909
31688W        W98229  18.034  29.186  13.940
31689W        W98230  22.198  30.420  13.912
31690W        W98231  27.540  22.926   3.158
31691W        W98232  43.371  25.924   3.258
31692W        W98233  31.628   0.681   3.350
31693W        W98234  26.608  18.236  10.756
31694W        W98235  17.464  25.518   1.325
31695W        W98236  18.507  20.267   1.765
31696W        W98237  21.104   5.471   3.680
31697W        W98238  12.601  35.042   2.624
31698W        W98239  26.756  17.775  10.391
31699W        W98240  43.681  38.806  14.390
31700W        W98241  33.398  12.126   4.110
31701W        W98242   3.563  34.615  11.980
31702W        W98243  29.920  17.166  13.241
31703W        W98244  19.266  23.775  10.781
31704W        W98245  19.470  36.411  14.794
31705W        W98246   3.510  21.279   0.444
31706W        W98247  12.186  28.617  13.246
31707W        W98248  11.021  44.472   1.380
31708W        W98249   7.677  24.022   2.786
31709W        W98250  41.713  29.986   3.627
31710W        W98251  26.233  11.437   2.080
31711W        W98252   2.208  18.997   3.249
31712W        W98253  44.040  14.060   4.407
31713W        W98254  36.967  14.234  13.526
31714W        W98255  23.101  43.761   4.106
31715W        W98256  10.176  28.606  11.989
31716W        W98257  15.318  26.071  10.725
31717W        W98258  20.617  36.856   2.223
31718W        W98259  36.063  43.503  14.454
31719W        W98260  30.927  10.632  10.633
31720W        W98261  43.533   0.408   0.666
31721W        W98262   3.785  28.533  12.168
31722W        W98263  35.618  28.149  13.023
31723W        W98264  20.204  33.439   2.756
31724W        W98265  38.314  17.328  14.116
31725W        W98266   5.276  12.024  14.661
31726W        W98267  28.561  12.647  11.612
31727W        W98268  29.062  41.260  14.993
31728W        W98269   4.661  18.744  10.682
31729W        W98270  13.804  44.291  13.885
31730W        W98271  13.253  18.641   1.735
31731W        W98272   3.313  13.629  14.866
31732W        W98273  41.531  17.394  13.807
31733W        W98274  18.701  16.339   4.626
31734W        W98275   2.718  33.792  13.472
31735W        W98276   0.250  24.885   3.343
31736W        W98277  31.833  29.148   3.714
31737W        W98278  35.552  42.904  11.667
31738W        W98279  32.126  15.057  11.337
31739W        W98280  35.040   9.202   1.227
31740W        W98281   1.931  36.538  12.657
31741W        W98282  14.636  27.943  11.551
31742W        W98283  31.902  19.100   2.269
31743W        W98284  13.226   1.845  10.768
31744W        W98285  21.171  22.461  14.929
31745W        W98286   5.180  10.763  12.542
31746W        W98287  36.668  20.196   1.313
31747W        W98288  34.041   8.030  10.880
31748W        W98289   4.463  43.336   4.750
31749W        W98290   8.644  33.627   4.036
31750W        W98291  17.330  23.172   2.548
31751W        W98292  26.641  24.074  12.484
31752W        W98293  22.995  22.892   3.301
31753W        W98294  44.364  30.057   3.720
31754W        W98295  44.267  40.297   2.891
31755W        W98296  38.563  25.600   2.721
31756W        W98297  36.077  28.050  12.713
31757W        W98298  12.346  40.747   2.556
31758W        W98299  17.163  10.118   0.936
31759W        W98300  36.459  12.813   1.927
31760W        W98301  17.371  11.715  12.615
31761W        W98302  40.909  39.090   2.702
31762W        W98303  21.673  12.529   4.869
31763W        W98304  28.940  19.211  12.313
31764W        W98305  31.556   0.351  12.790
31765W        W98306  28.358  19.591   0.354
31766W        W98307   1.731  34.985   4.536
31767W        W98308   8.632  35.860  13.330
31768W        W98309   8.928  20.113  14.390
31769W        W98310  38.083  24.340   4.904
31770W        W98311  19.668  10.555   1.371
31771W        W98312  44.744   1.616  13.563
31772W        W98313  41.034  18.171   0.984
31773W        W98314  42.840   9.463  10.238
31774W        W98315  43.790  21.194   3.149
31775W        W98316   4.874   6.442  11.455
31776W        W98317  21.230  16.738   4.191
31777W        W98318   7.764  26.974  10.066
31778W        W98319  40.282   4.377   2.425
31779W        W98320   7.908  31.065   4.055
31780W        W98321   8.713  23.702  14.075
31781W        W98322  26.990  27.703  14.284
31782W        W98323  41.455  28.017  12.864
31783W        W98324  19.056   9.374  14.404
31784W        W98325  13.845   9.953  11.603
31785W        W98326  18.344  25.614   1.352
31786W        W98327  33.123  19.355  14.816
31787W        W98328  21.282   5.806   0.487
31788W        W98329  18.617  41.126   3.929
31789W        W98330  25.559  41.608  14.985
31790W        W98331  28.905  29.717   2.907
31791W        W98332  31.170  41.090  11.114
31792W        W98333  21.222  42.348   4.340
31793W        W98334   7.210  30.900  14.828
31794W        W98335   7.818  25.713  10.854
31795W        W98336  22.672  34.568   2.223
31796W        W98337   1.907  22.464  11.545
31797W        W98338  17.617   8.890  10.824
31798W        W98339  28.966  27.996  14.646
31799W        W98340  40.870  35.017   0.771
31800W        W98341  36.532  11.750  10.827
31801W        W98342   9.247  26.913  13.417
31802W        W98343  42.944   1.754  10.590
31803W        W98344  33.987  43.716  13.446
31804W        W98345  43.859  32.877   2.720
31805W        W98346  10.367  18.609  14.277
31806W        W98347   4.702  10.660  12.685
31807W        W98348  28.418  37.439   1.645
31808W        W98349  28.999  34.360   4.070
31809W        W98350  29.493  43.977   4.822
31810W        W98351  23.648  26.956   3.721
31811W        W98352   2.401  36.630   2.153
31812W        W98353  19.697  41.236  12.397
31813W        W98354  32.067  16.771   4.115
31814W        W98355  32.386  16.138  14.218
31815W        W98356  41.012  13.210  14.883
31816W        W98357  42.534  22.179  10.745
31817W        W98358  18.004  12.648   5.391
31818W        W98359  28.481   9.670   2.772
31819W        W98360  22.111  11.721  13.894
31820W        W98361   0.257  14.773  11.686
31821W        W98362   7.410  22.275  11.025
31822W        W98363   2.054   7.009  13.070
31823W        W98364   2.997  32.861  11.956
31824W        W98365  13.876   7.662   2.316
31825W        W98366  37.564  31.015   2.765
31826W        W98367  32.430  23.874   1.345
31827W        W98368   4.727  27.139   4.170
31828W        W98369  29.369  19.703   1.128
31829W        W98370   8.310  34.197  13.930
31830W        W98371  19.489  16.189  12.547
31831W        W98372  15.298   7.856  10.640
31832W        W98373  15.377  24.090   3.698
31833W        W98374  20.446  42.971   4.147
31834W        W98375  15.542  31.617   9.825
31835W        W98376   8.648  13.458   0.905
31836W        W98377   0.040  23.638   3.335
31837W        W98378   0.387  10.367  12.432
31838W        W98379   7.795   6.109  12.815
31839W        W98380  30.733  29.247  13.782
31840W        W98381  33.834  30.987  14.362
31841W        W98382  21.948  17.850  11.860
31842W        W98383  30.080  39.686  14.987
31843W        W98384  25.229  33.008   0.797
31844W        W98385  33.104  43.160   3.167
31845W        W98386  10.645  39.059  12.398
31846W        W98387   4.228  24.276  12.472
31847W        W98388  24.225  28.920  14.511
31848W        W98389  25.188  33.295   1.607
31849W        W98390  33.160  25.576   3.245
31850W        W98391  33.850  44.500  12.995
31851W        W98392   8.603  40.829  14.914
31852W        W98393  31.504  10.540   2.550
31853W        W98394  18.204   4.980  12.010
31854W        W98395  39.989  41.865   4.661
31855W        W98396  40.323  31.261   4.074
31856W        W98397   6.701  20.658  14.077
31857W        W98398   3.316  41.085  13.910
31858W        W98399   5.534  36.010   1.339
31859W        W98400  24.442  31.310  12.676
31860W        W98401  38.602  35.356   1.360
31861W        W98402  38.342  10.426  12.875
31862W        W98403  23.230  39.268   3.663
31863W        W98404  15.172  15.705  10.077
31864W        W98405  32.469  21.499   2.722
31865W        W98406  38.536  36.241  14.352
31866W        W98407  31.036  15.858  11.197
31867W        W98408   3.013   8.452  10.728
31868W        W98409   8.186   0.766   1.788
31869W        W98410  19.091  25.496  11.027
31870W        W98411  35.217  37.631   5.133
31871W        W98412  37.350   7.275  13.005
31872W        W98413  11.833  28.069   4.695
31873W        W98414  20.275   3.356  11.112
31874W        W98415   1.361   7.313  14.564
31875W        W98416  15.610  21.115  10.754
31876W        W98417   9.194   7.473  13.777
31877W        W98418  15.543  43.533   2.778
31878W        W98419  35.465  44.757   0.732
31879W        W98420  22.461  28.421   2.386
31880W        W98421   6.453   2.237   2.735
31881W        W98422  38.953   1.423   1.755
31882W        W98423  16.027   6.616   2.209
31883W        W98424  29.706  38.072   3.648
31884W        W98425  42.725  31.209   2.244
31885W        W98426  28.905  10.762   3.780
31886W        W98427  42.638  40.050  14.932
31887W        W98428  17.096   4.946   4.728
31888W        W98429   1.813  43.484   2.373
31889W        W98430  43.394   2.368  10.741
31890W        W98431   5.522   3.779  11.174
31891W        W98432  28.609  17.672  13.980
31892W        W98433  25.026  40.805   2.861
31893W        W98434   8.740  32.474  12.539
31894W        W98435  44.458   9.836   2.136
31895W        W98436  17.899  26.996  13.586
31896W        W98437   9.330  44.805   0.909
31897W        W98438   0.676  44.496  12.867
31898W        W98439   9.314  29.501  10.783
31899W        W98440   8.661   8.723  14.349
31900W        W98441  40.499   9.441   4.275
31901W        W98442   7.695  17.371   4.258
31902W        W98443   2.895  36.504   1.920
31903W        W98444   8.239  21.103   3.636
31904W        W98445  30.838   9.719   1.787
31905W        W98446  25.017  26.168   3.073
31906W        W98447  44.991  23.245  10.732
31907W        W98448  25.211  16.073   1.695
31908W        W98449  38.772  13.281  11.519
31909W        W98450  11.243  32.135  10.212
31910W        W98451  26.906  31.857  10.611
31911W        W98452  21.174   4.939  11.667
31912W        W98453  29.864   9.761   2.836
31913W        W98454   3.319  33.221   0.904
31914W        W98455   9.678  20.784   4.096
31915W        W98456  10.160  20.914   4.127
31916W        W98457   0.728  38.638  12.967
31917W        W98458  38.139   3.694   2.370
31918W        W98459  21.080  38.352  11.252
31919W        W98460  25.688  29.658  13.522
31920W        W98461  25.452   8.738  13.060
31921W        W98462  17.659  16.169   0.013
31922W        W98463  34.000  32.374   0.905
31923W        W98464   0.308  35.865   0.656
31924W        W98465  23.153  28.604   1.757
31925W        W98466  14.596   9.872   0.853
31926W        W98467  31.961  31.697  12.127
31927W        W98468   7.060  13.656   4.204
31928W        W98469  10.708  40.324  10.485
31929W        W98470  40.931  25.702   4.168
31930W        W98471  44.101  19.494  10.366
31931W        W98472  18.092  28.001   1.515
31932W        W98473  12.323  12.798   1.469
31933W        W98474  42.302  37.291  11.026
31934W        W98475  39.447  40.491   2.347
31935W        W98476  29.341  19.544  11.466
31936W        W98477  39.620   6.421  14.287
31937W        W98478  32.675   8.402  11.214
31938W        W98479  15.501  43.093  10.109
31939W        W98480  33.394   0.431   0.681
31940W        W98481  15.812  18.179   1.642
31941W        W98482  42.098   3.689   4.824
31942W        W98483  36.881  11.837   1.020
31943W        W98484  22.499   3.218   1.281
31944W        W98485  30.858   9.195  13.490
31945W        W98486  16.232  38.838  11.720
31946W        W98487  43.232  36.303   3.183
31947W        W98488  31.620  25.246  11.074
31948W        W98489  14.190  20.775   4.790
31949W        W98490  15.988  16.871  13.312
31950W        W98491  11.679  34.481   1.689
31951W        W98492   7.407  42.308   4.624
31952W        W98493  40.099  30.234  11.093
31953W        W98494  24.100  41.977  11.478
31954W        W98495  28.207  11.581   1.562
31955W        W98496  19.451  30.877   4.461
31956W        W98497   8.319  17.040   3.130
31957W        W98498  25.408  36.903   1.812
31958W        W98499  31.609   5.856  10.394
31959W        W98500  33.896   6.288   2.252
31960W        W98501  36.613   8.339  12.801
31961W        W98502   5.716  30.924  14.875
31962W        W98503  14.893  19.657  10.618
31963W        W98504  16.635  33.634  11.063
31964W        W98505   0.291   4.797  11.696
31965W        W98506  10.066   7.384  14.364
31966W        W98507   5.445  20.350  14.993
31967W        W98508  44.454  25.251  12.431
31968W        W98509  27.786   2.068   2.729
31969W        W98510  38.313  20.290  11.664
31970W        W98511  15.602  33.560  12.197
31971W        W98512  26.420  22.164   0.541
31972W        W98513  37.972  34.039   2.172
31973W        W98514  36.002  40.440   0.829
31974W        W98515  15.695   0.925   4.373
31975W        W98516  25.061  17.339  14.818
31976W        W98517  35.204  28.071   4.992
31977W        W98518   6.605  19.098   1.696
31978W        W98519  15.783  20.040  11.644
31979W        W98520  13.676  16.210   4.318
31980W        W98521   0.040  36.852   0.433
31981W        W98522  22.229  39.984   3.085
31982W        W98523   3.372   4.278   0.896
31983W        W98524  25.276  35.066   4.254
31984W        W98525  43.678  15.497   4.958
31985W        W98526  21.717  25.004  11.175
31986W        W98527  23.446  27.439   1.309
31987W        W98528  43.456   2.893   3.751
31988W        W98529  42.520  20.263  13.982
31989W        W98530   9.165  10.569   4.242
31990W        W98531  34.857   6.833   3.825
31991W        W98532   7.878  34.038  11.469
31992W        W98533  28.376  36.094   0.349
31993W        W98534  21.618  24.741  14.327
31994W        W98535  32.430  29.959  13.115
31995W        W98536  13.688  17.686   3.769
31996W        W98537  19.581   1.991  10.699
31997W        W98538  33.279  14.707   1.757
31998W        W98539  42.986  43.906  14.352
31999W        W98540  24.523  30.346  10.306
32000W        W98541  38.652  20.001   1.980
32001W        W98542  27.861  40.244  13.538
32002W        W98543  30.067  17.732   2.008
32003W        W98544   8.260  35.838   1.400
32004W        W98545  18.708  30.969  13.536
32005W        W98546  27.974  10.083   3.233
32006W        W98547  43.047  29.398  10.684
32007W        W98548  17.172  13.181  12.645
32008W        W98549  15.972  30.467  14.855
32009W        W98550  29.571  43.363   3.635
32010W        W98551   0.985  43.990  13.856
32011W        W98552  12.454  43.484  11.597
32012W        W98553   5.391  36.874  14.439
32013W        W98554  35.856  31.350   1.179
32014W        W98555  26.679  37.090  14.581
32015W        W98556   3.724   9.174  11.325
32016W        W98557  32.344  15.101  10.884
32017W        W98558   8.149   3.783  11.971
32018W        W98559  14.218  20.006   3.141
32019W        W98560  37.030  39.686  12.098
32020W        W98561  39.481  27.714  14.316
32021W        W98562  35.406  26.668  11.603
32022W        W98563  13.559  28.084  12.876
32023W        W98564  29.662  16.173  11.116
32024W        W98565  22.398   6.207  11.609
32025W        W98566  35.341  27.745  11.597
32026W        W98567   0.908   1.469  13.412
32027W        W98568   5.881  25.522   9.992
32028W        W98569  44.204   0.631  13.483
32029W        W98570  24.414  10.730  14.915
32030W        W98571  33.015  19.514   3.948
32031W        W98572  31.958   3.246   1.058
32032W        W98573  11.065  30.454  10.731
32033W        W98574  20.132   6.203  11.547
32034W        W98575  32.002  21.975  12.547
32035W        W98576  25.963  25.766  11.709
32036W        W98577  27.609  35.373  11.505
32037W        W98578   5.688   0.372   4.121
32038W        W98579   6.948  39.927  12.468
32039W        W98580  13.146  41.922   1.778
32040W        W98581  22.595   0.027   0.750
32041W        W98582  20.435  40.926   2.177
32042W        W98583   5.854  30.908  10.653
32043W        W98584  21.337  41.013  11.655
32044W        W98585   3.617  38.712   5.069
32045W        W98586  20.224  11.316   1.142
32046W        W98587   3.295  23.747   3.765
32047W        W98588  21.899  11.192   3.533
32048W        W98589  24.466  23.220   2.382
32049W        W98590  27.314   4.228  14.688
32050W        W98591  29.208  21.669   0.055
32051W        W98592  24.137  29.349  12.161
32052W        W98593  43.273  11.185   3.197
32053W        W98594  37.148  26.457   3.274
32054W        W98595  23.041   8.274  13.778
32055W        W98596  19.179  28.580  13.919
32056W        W98597  16.332   9.763  10.743
32057W        W98598   8.111  18.171   4.573
32058W        W98599   0.506  15.413   2.770
32059W        W98600  28.101  39.526  12.562
32060W        W98601  20.055   9.637  11.195
32061W        W98602  31.174  21.233   4.341
32062W        W98603  32.409  44.965   1.765
32063W        W98604  20.205   5.902  14.676
32064W        W98605   8.914  17.307   3.010
32065W        W98606  26.950  32.983  14.323
32066W        W98607  36.885   9.829  14.651
32067W        W98608   9.974   6.666  14.599
32068W        W98609   6.814  11.358  11.585
32069W        W98610  42.111   1.184  14.471
32070W        W98611  32.920  39.516   3.621
32071W        W98612  43.287   9.383  14.549
32072W        W98613  44.700   7.313  14.890
32073W        W98614  30.376  34.667  12.960
32074W        W98615  28.318  44.929  11.449
32075W        W98616  43.916  29.137   0.779
32076W        W98617  40.345  15.167  12.103
32077W        W98618   7.897  32.970  11.477
32078W        W98619  35.387  44.856   4.808
32079W        W98620  43.698  43.695   3.252
32080W        W98621  25.949  27.099  13.024
32081W        W98622  14.600  27.138   1.944
32082W        W98623  23.734  34.931   0.540
32083W        W98624  30.165   3.631  12.404
32084W        W98625  28.080  14.243   0.832
32085W        W98626  23.207  36.986   0.080
32086W        W98627  40.061   4.911  11.563
32087W        W98628  37.320  22.682   0.416
32088W        W98629  33.471  41.727   3.801
32089W        W98630   3.288  29.895  13.570
32090W        W98631  44.388  25.703   1.476
32091W        W98632  41.550   1.440   0.419
32092W        W98633  16.846   0.058   0.348
32093W        W98634  41.059  10.582   0.421
32094W        W98635   3.364  13.981   2.353
32095W        W98636   6.260  14.571   2.364
32096W        W98637  26.710  40.952   0.885
32097W        W98638  27.131   5.998  12.025
32098W        W98639   0.836  23.059  13.990
32099W        W98640   0.972   1.558   0.402
32100W        W98641  42.135  12.639  12.680
32101W        W98642  28.040   4.413   0.257
32102W        W98643  34.732  17.855   4.459
32103W        W98644  33.566  12.234   9.723
32104W        W98645   0.852  12.355  13.373
32105W        W98646  21.965  31.379   1.352
32106W        W98647  34.569   6.972   4.665
32107W        W98648  24.412  37.088  14.100
32108W        W98649  21.703   8.977   5.270
32109W        W98650   6.754  32.423  10.576
32110W        W98651  20.143  22.876  12.989
32111W        W98652  17.330  27.749  13.732
32112W        W98653  42.972  25.260   3.897
32113W        W98654  19.960   8.010  14.909
32114W        W98655  42.987  10.695   4.103
32115W        W98656   0.244  41.283  14.533
32116W        W98657  32.503   5.895  11.019
32117W        W98658  33.363  27.331   1.718
32118W        W98659  10.209  29.365   2.792
32119W        W98660  17.545  33.411   4.664
32120W        W98661  36.396  15.535  14.956
32121W        W98662  23.074  19.134  12.480
32122W        W98663   3.823  14.091  10.774
32123W        W98664  16.349  17.561  10.950
32124W        W98665  42.574  20.800   5.065
32125W        W98666  32.037   2.410  11.605
32126W        W98667   1.113  11.221   0.335
32127W        W98668  19.483  40.937   1.008
32128W        W98669  15.438  21.319   2.228
32129W        W98670  20.101   1.272   4.575
32130W        W98671   9.313  29.557   3.551
32131W        W98672  39.511   3.449   2.239
32132W        W98673   9.451  18.288   0.338
32133W        W98674  41.800  43.037   4.994
32134W        W98675  11.822  18.956  11.688
32135W        W98676   6.744  12.309  12.397
32136W        W98677  21.520  40.626  11.106
32137W        W98678  41.503  22.568   3.646
32138W        W98679  26.114  41.236  10.650
32139W        W98680  34.077  19.657   4.079
32140W        W98681  39.930   8.302   4.079
32141W        W98682  11.555  10.645  14.956
32142W        W98683  20.679   2.409   3.702
32143W        W98684  24.011  32.824   0.671
32144W        W98685  21.790  25.623   2.581
32145W        W98686  31.906  23.711   1.346
32146W        W98687  15.115  20.662   1.216
32147W        W98688  44.245  12.123   0.751
32148W        W98689  43.631  34.452   0.316
32149W        W98690  17.745  29.005   4.124
32150W        W98691  34.352  33.062   2.327
32151W        W98692  29.324  15.046  14.358
32152W        W98693  29.496  39.551  12.898
32153W        W98694   8.115  28.683   3.313
32154W        W98695   4.702  28.859   0.672
32155W        W98696  15.536   1.266   3.083
32156W        W98697  16.397  29.705  11.976
32157W        W98698  32.507  31.487  14.335
32158W        W98699  43.948  20.579  14.524
32159W        W98700  44.806  19.579  12.811
32160W        W98701  23.693   0.494  12.967
32161W        W98702  25.158  36.535  14.948
32162W        W98703   4.269  11.243   2.573
32163W        W98704  32.876  28.180  13.444
32164W        W98705  28.074  32.422  11.776
32165W        W98706   3.278  41.832   5.301
32166W        W98707   5.144  34.366   1.376
32167W        W98708   6.755  19.716   3.290
32168W        W98709  31.111  34.556  10.980
32169W        W98710  22.883  18.332   4.007
32170W        W98711  43.447  44.869   4.628
32171W        W98712  33.048  24.903   0.534
32172W        W98713  30.173  28.652  14.042
32173W        W98714   7.377  15.866  11.223
32174W        W98715  37.975  37.643   4.815
32175W        W98716  41.513  24.287   2.789
32176W        W98717   6.201  27.692  13.824
32177W        W98718  23.209   0.610   3.923
32178W        W98719  26.659  32.602  11.393
32179W        W98720  28.698  13.396   2.834
32180W        W98721   0.978  38.365   4.095
32181W        W98722  34.044  18.584  12.004
32182W        W98723  18.562   7.303  11.666
32183W        W98724  34.250  13.368   4.276
32184W        W98725  37.018  20.837   2.317
32185W        W98726  35.515  29.226  10.820
32186W        W98727  29.608  37.141  13.351
32187W        W98728  36.325  31.087  10.796
32188W        W98729  33.492  24.759   2.243
32189W        W98730   1.921  27.792   3.317
32190W        W98731   1.822   1.352  13.835
32191W        W98732  15.360  11.368  12.849
32192W        W98733   0.820  35.391  14.292
32193W        W98734  29.175  34.858   0.463
32194W        W98735  40.146  41.369  13.427
32195W        W98736   3.448  38.141  13.324
32196W        W98737  25.169  24.136   1.806
32197W        W98738  36.860   8.905   2.444
32198W        W98739  16.237  43.489   0.934
32199W        W98740  12.702  31.391   2.332
32200W        W98741  37.422   5.316   2.111
32201W        W98742  24.670  13.318  13.398
32202W        W98743   2.771  30.465   1.821
32203W        W98744  23.675  11.336   0.122
32204W        W98745  30.589  41.057   4.546
32205W        W98746   1.275  30.606  13.189
32206W        W98747  23.353   7.756  13.405
32207W        W98748  33.067  36.050  13.399
32208W        W98749   0.087   3.303  12.956
32209W        W98750  20.741  39.808  12.095
32210W        W98751  28.056   1.067   0.121
32211W        W98752  16.900   6.735   1.175
32212W        W98753  24.507  13.063  11.453
32213W        W98754  19.009  11.041   3.000
32214W        W98755  30.026  35.666  11.063
32215W        W98756  35.102   7.525   1.471
32216W        W98757  26.722  37.507   3.663
32217W        W98758   1.639  12.188   0.783
32218W        W98759  29.178  10.884   4.192
32219W        W98760  36.031  11.332  10.787
32220W        W98761   1.315  43.446  14.840
32221W        W98762  18.833  15.540  13.324
32222W        W98763  10.908  44.512   0.822
32223W        W98764  28.865  14.115   0.203
32224W        W98765  12.362  11.554  11.413
32225W        W98766  20.131   5.616   0.511
32226W        W98767  10.561  31.827   4.124
32227W        W98768  27.064  26.214   4.557
32228W        W98769  18.508   3.397  10.725
32229W        W98770  30.996  37.220   4.595
32230W        W98771  18.441  35.923   5.270
32231W        W98772  33.097   6.815  13.601
32232W        W98773  15.094   8.444  14.696
32233W        W98774   5.205  13.859  14.216
32234W        W98775  37.536  33.125   1.135
32235W        W98776  17.112  11.853  14.491
32236W        W98777   2.616  21.180   0.751
32237W        W98778   3.196  42.371  12.972
32238W        W98779   1.443  25.412  12.620
32239W        W98780  22.762   8.327  12.194
32240W        W98781  12.577   8.684   0.398
32241W        W98782   9.124  16.708   0.830
32242W        W98783   4.937   1.946  14.393
32243W        W98784   1.958  18.229  10.663
32244W        W98785  22.285  35.648  11.200
32245W        W98786   4.004  38.599   0.511
32246W        W98787  24.269  27.970   4.537
32247W        W98788   7.655  28.584   4.289
32248W        W98789  14.077   2.934  14.849
32249W        W98790  13.735  23.963  11.565
32250W        W98791  12.094   8.252  12.522
32251W        W98792   4.911   4.985   2.161
32252W        W98793  41.797  11.769  12.540
32253W        W98794   3.406  16.824  10.755
32254W        W98795  40.873  11.735   5.335
32255W        W98796  33.195  22.389  11.911
32256W        W98797  14.547  20.140   2.671
32257W        W98798  44.491  36.892   2.242
32258W        W98799  35.336  23.602   4.641
32259W        W98800  12.166  42.229   4.176
32260W        W98801  15.848  27.994   3.103
32261W        W98802  24.141  32.528   4.249
32262W        W98803   4.701  15.748   4.835
32263W        W98804   8.500  42.272   4.514
32264W        W98805   9.963  24.266   3.158
32265W        W98806   0.868  18.505   1.633
32266W        W98807  18.349  11.046  13.749
32267W        W98808  12.588  28.445   2.443
32268W        W98809   2.812  43.816  10.572
32269W        W98810  24.634  39.017   1.644
32270W        W98811  26.175   2.425   3.227
32271W        W98812  32.766   4.204  11.151
32272W        W98813  30.992   1.491  14.878
32273W        W98814   1.999   8.836  13.393
32274W        W98815  31.881  26.554  13.345
32275W        W98816   8.867  27.599   1.905
32276W        W98817   7.552  36.110   4.202
32277W        W98818   4.264   8.556  12.862
32278W        W98819  17.266  21.768   3.270
32279W        W98820  17.824  35.020   3.531
32280W        W98821   2.870  25.992  13.141
32281W        W98822  15.819  44.044   0.375
32282W        W98823   8.905   6.195   3.755
32283W        W98824  20.706  38.790   2.212
32284W        W98825  17.044   5.500   4.541
32285W        W98826   6.600   2.663  10.245
32286W        W98827  36.366  36.471   2.829
32287W        W98828   2.771  16.430   0.851
32288W        W98829   0.895  15.854   4.938
32289W        W98830  40.033  27.565   3.664
32290W        W98831   4.995   7.870   4.813
32291W        W98832  36.811  23.681   3.394
32292W        W98833  33.446  28.216   1.149
32293W        W98834  27.220  39.451   4.138
32294W        W98835  11.726  18.554  14.291
32295W        W98836  24.653  26.995  14.053
32296W        W98837  23.105   9.705   2.605
32297W        W98838  31.715  27.961   1.806
32298W        W98839   2.963  27.509  11.598
32299W        W98840  23.718   7.091  14.296
32300W        W98841  12.904   1.230   2.603
32301W        W98842  20.188   5.401   3.664
32302W        W98843   1.553  28.097   1.268
32303W        W98844  34.867  15.666   1.856
32304W        W98845   0.187   5.786  10.391
32305W        W98846   4.130   5.368   0.012
32306W        W98847  13.658  23.888   0.046
32307W        W98848  33.623  40.917  14.277
32308W        W98849  36.418   3.551  10.209
32309W        W98850  23.105  13.991   3.801
32310W        W98851  13.755  18.656   4.752
32311W        W98852   4.644  40.276   4.159
32312W        W98853   0.692   0.842   4.255
32313W        W98854   8.701  36.603   3.821
32314W        W98855  33.070  18.305  11.953
32315W        W98856  37.192   1.208   2.979
32316W        W98857  23.525  27.419   1.863
32317W        W98858  15.219  33.802   4.136
32318W        W98859  34.559  37.706   4.173
32319W        W98860   5.594   5.498  11.928
32320W        W98861   6.270  18.175   0.807
32321W        W98862   4.522  15.783   2.337
32322W        W98863  23.984  11.958  12.125
32323W        W98864  26.824   2.408   2.836
32324W        W98865   2.767  23.210  11.962
32325W        W98866  41.434   9.989  12.491
32326W        W98867  41.229  10.619  11.657
32327W        W98868  15.765  13.905   0.617
32328W        W98869  43.465  40.878   1.775
32329W        W98870  18.062  10.799  14.347
32330W        W98871  43.733  27.414  11.093
32331W        W98872  44.461  37.789  11.437
32332W        W98873  13.859  41.757   0.661
32333W        W98874   4.338  39.252  14.097
32334W        W98875  42.344  33.525  10.741
32335W        W98876  30.719  20.428  11.193
32336W        W98877  13.781  44.707   4.656
32337W        W98878   4.588   8.054  11.547
32338W        W98879  28.247  18.152  11.480
32339W        W98880   2.962   9.675   0.212
32340W        W98881  43.864  22.139   2.075
32341W        W98882  36.848   7.845  12.031
32342W        W98883  10.412  24.279  13.847
32343W        W98884  14.806   8.335   4.655
32344W        W98885  18.178  30.113  14.311
32345W        W98886  13.896  42.141  11.599
32346W        W98887  31.097  10.211   2.654
32347W        W98888  34.108  32.118   1.384
32348W        W98889  44.209   0.436   2.335
32349W        W98890  11.763   8.628   3.217
32350W        W98891  19.307  21.706   4.533
32351W        W98892  28.666  23.882  11.939
32352W        W98893  42.057   0.835  12.097
32353W        W98894   4.028  34.541  12.407
32354W        W98895   4.141  42.466  14.891
32355W        W98896   5.371  23.148  10.389
32356W        W98897  22.038  27.380   0.799
32357W        W98898  18.560  34.162  14.935
32358W        W98899   5.460  29.822   2.616
32359W        W98900  40.546  15.958   9.600
32360W        W98901   8.183  12.668   3.613
32361W        W98902  20.798   4.363   3.618
32362W        W98903  17.382  13.804   3.097
32363W        W98904  12.824   3.883  10.730
32364W        W98905  14.946  11.921   1.423
32365W        W98906  31.565  37.511   4.450
32366W        W98907  36.361  32.164   1.760
32367W        W98908  20.348  34.675  13.834
32368W        W98909  28.599   7.848   3.679
32369W        W98910  23.479  44.879  10.702
32370W        W98911  41.892  18.658   1.318
32371W        W98912   6.199   8.767   0.397
32372W        W98913  38.811   6.734   1.163
32373W        W98914  38.014  32.550   3.823
32374W        W98915   9.332  30.365   2.094
32375W        W98916  14.217  22.675   3.211
32376W        W98917   7.644  43.926   0.810
32377W        W98918   5.614  38.497  12.903
32378W        W98919   5.186  31.499  12.627
32379W        W98920  35.932  19.257   1.204
32380W        W98921  27.061   4.286   2.322
32381W        W98922  13.393  23.522  12.099
32382W        W98923  36.605  20.724   0.681
32383W        W98924  32.534   2.698  12.477
32384W        W98925  19.549  24.406   1.772
32385W        W98926  17.066  15.719   4.413
32386W        W98927   7.608   1.609   1.960
32387W        W98928   8.137   1.825  11.652
32388W        W98929  28.284   4.936  13.770
32389W        W98930   5.395  13.298  14.657
32390W        W98931  22.175   3.163   1.704
32391W        W98932  14.323  38.816   2.090
32392W        W98933  41.558  13.900   2.704
32393W        W98934  15.881  38.449   2.369
32394W        W98935  36.480  44.407  10.764
32395W        W98936  31.454  25.645   3.664
32396W        W98937  22.148  23.659  11.903
32397W        W98938  34.355   0.623  10.144
32398W        W98939   8.114   2.356  13.076
32399W        W98940   7.455  17.170   0.547
32400W        W98941  32.896  43.199  10.902
32401W        W98942  21.574   8.897  11.980
32402W        W98943  29.857  38.875   2.366
32403W        W98944  42.578   9.143  14.871
32404W        W98945  41.538  43.937  13.119
32405W        W98946  12.105  34.723   4.500
32406W        W98947  16.677   2.774  13.851
32407W        W98948  43.414  31.908   3.540
32408W        W98949  12.175  21.626   3.182
32409W        W98950  34.455   6.310  11.535
32410W        W98951  33.180  11.639  12.639
32411W        W98952  29.727  44.400  11.553
32412W        W98953  21.576  37.726  10.358
32413W        W98954  36.469   9.773  12.919
32414W        W98955  40.892  27.097   2.667
32415W        W98956  26.406  14.831   3.273
32416W        W98957  38.478  28.476  14.915
32417W        W98958  31.891  15.245  10.677
32418W        W98959  11.655  42.796  10.678
32419W        W98960  39.556  44.829   1.606
32420W        W98961  41.598  15.825  14.897
32421W        W98962  40.082  17.433   4.505
32422W        W98963  11.606  26.386   3.846
32423W        W98964  14.404  26.214   3.398
32424W        W98965  19.502  38.701   1.331
32425W        W98966   5.788   7.246  12.579
32426W        W98967   7.689  11.326  12.492
32427W        W98968  14.756  11.233   0.821
32428W        W98969  32.874   5.388   3.511
32429W        W98970   6.550  12.277   2.144
32430W        W98971  38.710  11.851   2.849
32431W        W98972  29.036  36.939  11.447
32432W        W98973  42.323  38.396   1.116
32433W        W98974   5.795  12.391   0.357
32434W        W98975  26.144  17.098  12.517
32435W        W98976  39.778  22.963  13.804
32436W        W98977  28.553  24.081  14.569
32437W        W98978  12.526  31.964  12.555
32438W        W98979  12.849  42.018   0.853
32439W        W98980  35.475  22.573   4.458
32440W        W98981   9.346  10.898  13.852
32441W        W98982  33.117  29.842   4.405
32442W        W98983  31.603  22.580  14.849
32443W        W98984  17.865  10.612   0.230
32444W        W98985  39.514  16.771  14.715
32445W        W98986  15.950  17.629  11.370
32446W        W98987  17.328  18.082   2.648
32447W        W98988  20.949  35.518  12.308
32448W        W98989  39.387   6.780   4.806
32449W        W98990  41.056  39.871   1.488
32450W        W98991  28.413  33.857  13.193
32451W        W98992  28.435  16.568   0.406
32452W        W98993  11.238   6.664   1.973
32453W        W98994  34.952  40.910  14.984
32454W        W98995  32.263   1.836  10.260
32455W        W98996   4.379  17.245  12.460
32456W        W98997   9.412  32.908   0.394
32457W        W98998  18.763  25.561  10.579
32458W        W98999  12.134  32.068  10.218
32459W        W99000  26.296  14.738   4.436
32460W        W99001  30.518  37.868  13.943
32461W        W99002   7.064  33.509   1.120
32462W        W99003  26.856  30.550   4.505
32463W        W99004  28.939  16.123   2.924
32464W        W99005  23.602  41.756  13.032
32465W        W99006  25.755  12.330  13.045
32466W        W99007  44.981  43.690   4.546
32467W        W99008   4.006  10.651  13.302
32468W        W99009  14.330   3.297  13.010
32469W        W99010  30.926  44.793  12.478
32470W        W99011  26.708  44.953  13.404
32471W        W99012  20.098  10.069   4.580
32472W        W99013   7.993  33.525  11.460
32473W        W99014  10.278  10.095   3.346
32474W        W99015   3.966  36.449  10.725
32475W        W99016  40.135  11.660   4.521
32476W        W99017   1.922   4.903   3.301
32477W        W99018  34.934  32.450   3.719
32478W        W99019   0.402   2.021  14.670
32479W        W99020  41.438  23.090   3.533
32480W        W99021  40.463   3.695  12.577
32481W        W99022  22.134  44.048   3.306
32482W        W99023  23.565  25.693   0.910
32483W        W99024  25.985  24.213  11.550
32484W        W99025  24.779  15.247   4.413
32485W        W99026  17.125  16.970  12.617
32486W        W99027  11.896   3.524   1.679
32487W        W99028  38.600  43.016  11.677
32488W        W99029   8.684   6.625  14.822
32489W        W99030   0.344  29.429   2.319
32490W        W99031  26.155  35.634   0.296
32491W        W99032  35.100  40.251  11.623
32492W        W99033  18.041  33.231   3.939
32493W        W99034  40.065  34.101  12.933
32494W        W99035  10.180   4.294  12.461
32495W        W99036  24.132  23.695   2.194
32496W        W99037  10.686  25.045   1.659
32497W        W99038  36.063  31.133   4.631
32498W        W99039  16.819  22.933  13.007
32499W        W99040  24.998   7.868   1.244
32500W        W99041  23.288   9.057  12.060
32501W        W99042  26.801  21.471  14.829
32502W        W99043  34.345  19.556   0.492
32503W        W99044  34.593  11.350  12.423
32504W        W99045  26.975  26.643   4.225
32505W        W99046   9.182   4.743   3.432
32506W        W99047  33.010   1.255  10.305
32507W        W99048  41.867  42.297  14.758
32508W        W99049  18.739  11.637   5.075
32509W        W99050  32.642   4.445  12.854
32510W        W99051  43.719  31.586   3.847
32511W        W99052  21.213  34.388   1.354
32512W        W99053   6.972  43.876  13.414
32513W        W99054  27.680  10.901   1.968
32514W        W99055  43.382  30.197  12.015
32515W        W99056   3.914  10.208   2.109
32516W        W99057  36.626   9.801   2.475
32517W        W99058  34.435  25.154   2.617
32518W        W99059  41.113  19.482  12.556
32519W        W99060  43.933  21.682  14.278
32520W        W99061  12.605  42.329  12.057
32521W        W99062  13.682   0.175   0.839
32522W        W99063   9.708  21.126  12.347
32523W        W99064  25.754  31.909   0.067
32524W        W99065  27.656  38.912  14.366
32525W        W99066  13.690  26.523   3.278
32526W        W99067  24.055  12.674   2.207
32527W        W99068  30.448  35.575  14.751
32528W        W99069  39.062   9.010   5.004
32529W        W99070  29.628   7.154   1.792
32530W        W99071  19.527  11.146  12.840
32531W        W99072  19.595  40.555  13.013
32532W        W99073  27.174   0.286   1.429
32533W        W99074  38.316   8.828  11.209
32534W        W99075  34.684   4.225   2.547
32535W        W99076  37.771  39.781  14.801
32536W        W99077  11.721  24.647  11.761
32537W        W99078  25.439  33.500  12.400
32538W        W99079  30.448   5.648   2.335
32539W        W99080  17.089  41.914   0.339
32540W        W99081  15.661  15.698   3.825
32541W        W99082  37.117  17.873   2.747
32542W        W99083   6.932  38.776   1.916
32543W        W99084   2.947  13.174  13.460
32544W        W99085   8.870  43.286   3.067
32545W        W99086  12.268  31.862  13.461
32546W        W99087  21.867  25.332  10.769
32547W        W99088  34.530   9.520  12.677
32548W        W99089   8.247  38.602  14.849
32549W        W99090  23.695  25.924   4.594
32550W        W99091  29.764  22.570  12.414
32551W        W99092   3.163  15.733   3.788
32552W        W99093  43.521   9.261  10.461
32553W        W99094  33.620  24.979  13.373
32554W        W99095  17.677  23.099   3.277
32555W        W99096  19.429  43.026   4.311
32556W        W99097   9.964  41.959  13.281
32557W        W99098  14.346  32.782  14.443
32558W        W99099  34.620   3.823   0.817
32559W        W99100  36.198  34.549  14.404
32560W        W99101   6.543  11.652   0.290
32561W        W99102  16.619  21.733  11.618
32562W        W99103   6.366   8.801  13.923
32563W        W99104   6.592  17.678  13.774
32564W        W99105  34.556  39.327  13.886
32565W        W99106  28.357  31.106   2.755
32566W        W99107  30.154  38.827   1.045
32567W        W99108  24.419  42.493   0.754
32568W        W99109  24.145  38.104  13.106
32569W        W99110   4.864   5.866   4.504
32570W        W99111  26.571  42.024   3.685
32571W        W99112  11.245  34.187  14.455
32572W        W99113  25.153  28.236  12.456
32573W        W99114  43.278  24.352   0.294
32574W        W99115  39.628  29.975  12.556
32575W        W99116  23.646  11.222   0.617
32576W        W99117  10.691  18.135   1.971
32577W        W99118   7.723  29.451   4.224
32578W        W99119   1.436   4.806   4.560
32579W        W99120  31.499  19.307   4.681
32580W        W99121  27.415  34.493  14.656
32581W        W99122   4.980  40.415   2.634
32582W        W99123   4.951  30.327   5.076
32583W        W99124   2.940  30.321   4.114
32584W        W99125   9.519  40.588   4.376
32585W        W99126   5.394  36.611   0.755
32586W        W99127  33.321  13.741   4.524
32587W        W99128   4.368  41.925   2.431
32588W        W99129  33.433  24.168  13.904
32589W        W99130   1.045  43.785   3.762
32590W        W99131  30.190  11.191  10.685
32591W        W99132  27.287  23.088   2.710
32592W        W99133  41.649   7.953   1.943
32593W        W99134   9.345  17.107  11.081
32594W        W99135  35.483  22.770   1.620
32595W        W99136  27.146   4.304  14.184
32596W        W99137  44.663  11.407  13.941
32597W        W99138  36.945  15.859   1.241
32598W        W99139   0.649   5.324   4.616
32599W        W99140   4.440  35.557  10.754
32600W        W99141  33.762   2.751   3.977
32601W        W99142   1.539  23.935  14.843
32602W        W99143  13.730  21.690  13.279
32603W        W99144  40.905   3.420   5.084
32604W        W99145  27.663  40.906  10.710
32605W        W99146   7.731  30.825  14.798
32606W        W99147  31.873   2.109  12.597
32607W        W99148  11.964  35.003  14.489
32608W        W99149  32.329   9.497  12.766
32609W        W99150  23.055  13.612  12.886
32610W        W99151   0.913  24.515  10.472
32611W        W99152   5.791  26.196  14.076
32612W        W99153  37.513  16.129  12.562
32613W        W99154   8.195  40.271   1.374
32614W        W99155  14.527  32.130  13.432
32615W        W99156  43.852   9.863   1.854
32616W        W99157  23.621  20.734   3.089
32617W        W99158  33.067  38.849   4.405
32618W        W99159  16.102  36.875  14.719
32619W        W99160  20.065  42.018   4.407
32620W        W99161  42.549   1.348  14.702
32621W        W99162   5.245  37.554   3.615
32622W        W99163  16.208  23.773   2.670
32623W        W99164  19.946   6.956   0.785
32624W        W99165  25.761  36.227  14.342
32625W        W99166  33.980  22.973  12.214
32626W        W99167  39.266   4.805   0.850
32627W        W99168   4.398  10.753  10.681
32628W        W99169   0.558  34.083  13.942
32629W        W99170  10.674  36.162   0.963
32630W        W99171   1.431  35.749   0.929
32631W        W99172   9.240  19.173  13.013
32632W        W99173   8.426  34.470   1.367
32633W        W99174  31.574  40.507  12.035
32634W        W99175  19.531   9.596   1.713
32635W        W99176  26.050  25.604   3.898
32636W        W99177  12.150  39.388   4.647
32637W        W99178  23.102  35.968  13.526
32638W        W99179   3.885  23.149  11.402
32639W        W99180  22.030  19.064  12.486
32640W        W99181  14.564  20.874  13.390
32641W        W99182   3.667  18.823   2.772
32642W        W99183   4.924  32.111   5.213
32643W        W99184  25.433   0.745   0.820
32644W        W99185   2.294  40.553  13.935
32645W        W99186  33.288   4.695  12.014
32646W        W99187   6.432  20.752   2.215
32647W        W99188   5.160  23.651  12.918
32648W        W99189   6.195  19.738  13.292
32649W        W99190  35.951  35.361   3.028
32650W        W99191  20.478  14.374  12.109
32651W        W99192   6.735  43.169   2.198
32652W        W99193  38.841   4.474   2.309
32653W        W99194   9.713  22.910  12.011
32654W        W99195  32.336  26.176  13.451
32655W        W99196  28.504  19.127  12.572
32656W        W99197  17.701  29.266  11.048
32657W        W99198  15.056  22.024   4.874
32658W        W99199  29.449  10.796   4.611
32659W        W99200   4.775  18.272   1.334
32660W        W99201  28.891  34.912  11.588
32661W        W99202  18.656  40.297   4.191
32662W        W99203  43.365  44.741   2.882
32663W        W99204  24.583  40.590   1.731
32664W        W99205   5.062  26.464   4.019
32665W        W99206   9.540  30.385  13.465
32666W        W99207  39.950  35.472   4.422
32667W        W99208  22.699  12.709   3.691
32668W        W99209  41.496  33.617   2.363
32669W        W99210  43.876  30.005  10.565
32670W        W99211  35.004  28.530   0.122
32671W        W99212   8.952  42.297   5.549
32672W        W99213  26.059   0.909  10.922
32673W        W99214   6.705  36.110  11.504
32674W        W99215  33.963  24.343  12.612
32675W        W99216  35.600  13.776   4.321
32676W        W99217  39.501  18.233   4.700
32677W        W99218   3.035  21.337  11.977
32678W        W99219   0.920  13.190  11.050
32679W        W99220  32.876  32.014  12.814
32680W        W99221  41.979  15.737  13.219
32681W        W99222  14.255  21.791  11.603
32682W        W99223  15.308  16.509  11.499
32683W        W99224  43.901  24.736   3.332
32684W        W99225   1.712  16.128   4.088
32685W        W99226  17.027   4.291   2.332
32686W        W99227  41.712  32.527  11.613
32687W        W99228  34.181  36.739  14.307
32688W        W99229  44.485  13.320  11.579
32689W        W99230  41.776  22.930   4.683
32690W        W99231  40.527  11.389  12.110
32691W        W99232  40.275  23.210  11.502
32692W        W99233   2.561   7.091   2.574
32693W        W99234   7.024   8.808   0.889
32694W        W99235  19.736  16.256  11.703
32695W        W99236   1.327  21.361  13.836
32696W        W99237  24.204  44.458   3.804
32697W        W99238  31.297   6.785   2.669
32698W        W99239  30.535  29.113   4.602
32699W        W99240  35.045  36.980   1.101
32700W        W99241  26.702  15.020   4.604
32701W        W99242   5.029  39.808  13.562
32702W        W99243   3.477  21.615  14.925
32703W        W99244  15.135  18.797  12.833
32704W        W99245  25.952  21.186   4.724
32705W        W99246  42.445  28.037  14.511
32706W        W99247  19.373  37.584   1.323
32707W        W99248  29.981  26.564   3.315
32708W        W99249  22.757  32.923  11.077
32709W        W99250  39.471  26.632   3.069
32710W        W99251  22.055  37.115  13.087
32711W        W99252   4.438  13.863  12.933
32712W        W99253  41.175  44.840   3.254
32713W        W99254  22.615  30.621  12.081
32714W        W99255  19.218  13.848   4.652
32715W        W99256  37.877  41.377  12.938
32716W        W99257  40.658   1.012   2.587
32717W        W99258  26.620   8.905   4.079
32718W        W99259  28.175  29.457   1.255
32719W        W99260   1.764  33.994  12.052
32720W        W99261  31.842  33.980  11.928
32721W        W99262   3.166  27.471   0.691
32722W        W99263  14.726   7.586  14.935
32723W        W99264   3.042  42.274   2.007
32724W        W99265  23.985   0.946   4.246
32725W        W99266   7.725  24.726   3.123
32726W        W99267  19.568  20.527  14.930
32727W        W99268  28.947  33.400   2.288
32728W        W99269  20.234  17.441  12.911
32729W        W99270   6.435  17.688  14.275
32730W        W99271  24.088  29.764   4.486
32731W        W99272  27.113  35.309   3.125
32732W        W99273   3.043  13.819   2.728
32733W        W99274  15.786   5.246   3.660
32734W        W99275  12.343  20.206   0.786
32735W        W99276  12.830  19.281   2.810
32736W        W99277  42.578  21.306  15.000
32737W        W99278  30.082  30.096   3.344
32738W        W99279   2.514   9.403   0.252
32739W        W99280   3.327   6.114   0.398
32740W        W99281  43.746  33.367  14.781
32741W        W99282  28.521  41.030   3.563
32742W        W99283   6.191  15.331  10.703
32743W        W99284  12.668  13.563  10.707
32744W        W99285   6.866  32.137   1.322
32745W        W99286  39.031  15.761  11.247
32746W        W99287  29.236  16.959   3.378
32747W        W99288  10.480   8.919  13.017
32748W        W99289   8.751  44.741  12.626
32749W        W99290  34.579  41.066  10.982
32750W        W99291  26.982  36.573  12.122
32751W        W99292  16.590  21.618  13.773
32752W        W99293  20.328   4.909   5.035
32753W        W99294  31.289  36.600   0.907
32754W        W99295  12.293  34.180   0.186
32755W        W99296   0.942   0.447   5.020
32756W        W99297  35.431  44.359   2.683
32757W        W99298  23.079  37.381  10.610
32758W        W99299  35.700  40.989   0.117
32759W        W99300  13.588   4.168  10.919
32760W        W99301  29.025  35.964  12.235
32761W        W99302  25.745  42.242   1.386
32762W        W99303  17.004  25.733   1.357
32763W        W99304   4.407  19.741  11.143
32764W        W99305  28.734  23.732   3.304
32765W        W99306  16.361   3.746   4.238
32766W        W99307  22.639  38.469   3.322
32767W        W99308  24.569  24.560  12.313
32768W        W99309  29.405  14.269   3.650
32769W        W99310  12.764  15.332   2.848
32770W        W99311   1.960  31.104   4.007
32771W        W99312  22.191   8.952  13.146
32772W        W99313  38.336  30.392  12.422
32773W        W99314  21.752   0.204   2.714
32774W        W99315  38.808  20.774  10.315
32775W        W99316  30.771  34.394  11.726
32776W        W99317  39.330  35.999  14.985
32777W        W99318  21.841   7.140  11.578
32778W        W99319  26.630  11.397   9.718
32779W        W99320  20.443  28.122   1.392
32780W        W99321  18.629  18.761  10.883
32781W        W99322   2.422  12.486   2.386
32782W        W99323   9.383  15.077   4.715
32783W        W99324  22.130  35.674   0.423
32784W        W99325  41.475  27.737   4.121
32785W        W99326  17.677  11.286   3.752
32786W        W99327  40.564  40.286  12.999
32787W        W99328  41.627   2.719   1.757
32788W        W99329   2.811  19.643   2.258
32789W        W99330  25.685  29.039   3.366
32790W        W99331  14.841  25.637  11.117
32791W        W99332  33.566  13.929   3.212
32792W        W99333   2.836  40.484  14.476
32793W        W99334  15.089  12.408   2.316
32794W        W99335  11.072   3.266  10.530
32795W        W99336  38.277  42.954  14.944
32796W        W99337   2.629  16.272   4.229
32797W        W99338   6.103  22.004   0.347
32798W        W99339  21.344   3.820  13.379
32799W        W99340  13.286   9.469  13.297
32800W        W99341  16.611   4.327  12.253
32801W        W99342  22.925   8.797  14.952
32802W        W99343   4.844   2.645  11.110
32803W        W99344  23.605  16.099  12.029
32804W        W99345  10.345  42.293   9.771
32805W        W99346   3.010  39.646   4.987
32806W        W99347  18.743  33.585   5.041
32807W        W99348  24.037   8.139  11.363
32808W        W99349  12.909  15.386   1.478
32809W        W99350   6.794  25.613   3.771
32810W        W99351  24.027  39.199  12.020
32811W        W99352  26.816  23.621   1.438
32812W        W99353  27.472   9.277   4.823
32813W        W99354  31.790  24.294   3.280
32814W        W99355   0.210   2.744  14.451
32815W        W99356  37.586  35.387  13.830
32816W        W99357  43.960  38.610   2.363
32817W        W99358  41.642  14.246  12.595
32818W        W99359  34.969  22.982   0.332
32819W        W99360  44.403  20.025   0.270
32820W        W99361  32.909  32.390  12.330
32821W        W99362  17.569  10.791   3.184
32822W        W99363  28.329  13.268   5.319
32823W        W99364  36.976   2.380   1.804
32824W        W99365  15.015   9.275   1.806
32825W        W99366  38.132  27.987   1.793
32826W        W99367  27.420  27.546  13.394
32827W        W99368  39.360  36.198  11.718
32828W        W99369  18.247  39.495  13.404
32829W        W99370   9.699  25.558   4.619
32830W        W99371  16.643  10.148  14.522
32831W        W99372   6.483  10.229   2.283
32832W        W99373  40.855  36.434  11.612
32833W        W99374  40.918  12.675   4.904
32834W        W99375  17.866  21.195  11.416
32835W        W99376  16.672  14.192   9.650
32836W        W99377  41.091  17.027   1.223
32837W        W99378   1.897   3.695   1.065
32838W        W99379  29.443  30.225  12.447
32839W        W99380  12.120   4.389   1.236
32840W        W99381  19.846  19.243  13.030
32841W        W99382  12.199  17.270  11.166
32842W        W99383   1.812  11.476   1.808
32843W        W99384  30.531   7.908   2.438
32844W        W99385  33.418   3.076   2.742
32845W        W99386   5.214  30.910  14.925
32846W        W99387  38.014   2.401   0.440
32847W        W99388   9.396  10.478  11.426
32848W        W99389  34.849  44.379  11.679
32849W        W99390  30.579   0.449  10.520
32850W        W99391  22.347  40.032  11.145
32851W        W99392  39.911  27.575  12.470
32852W        W99393  19.814  12.750   1.926
32853W        W99394  44.529   6.864   0.192
32854W        W99395   6.789   8.506  13.954
32855W        W99396  44.001   5.274   4.090
32856W        W99397  25.896  34.423   4.588
32857W        W99398  35.576   8.672   3.745
32858W        W99399  39.028  35.466   2.296
32859W        W99400   8.951   5.956  11.196
32860W        W99401  28.022  25.382   4.444
32861W        W99402  20.638  18.102  11.566
32862W        W99403  44.949   7.881  13.911
32863W        W99404   0.787  26.051   0.784
32864W        W99405  10.855  19.387   4.913
32865W        W99406  22.528  32.120  12.905
32866W        W99407  42.494  11.726   2.438
32867W        W99408   4.873  36.882  14.284
32868W        W99409   8.893   1.436  14.095
32869W        W99410  43.701  36.697   1.833
32870W        W99411   6.756  32.738   2.045
32871W        W99412  12.088  37.032  10.799
32872W        W99413   0.365  21.559  14.496
32873W        W99414  32.012  10.435   3.502
32874W        W99415   6.404  27.115   4.171
32875W        W99416  35.483  35.360  12.371
32876W        W99417  16.095  12.157  13.444
32877W        W99418  20.025  42.215   1.247
32878W        W99419  43.423  43.764  10.964
32879W        W99420   9.891  36.933   4.574
32880W        W99421  17.010  24.102  13.736
32881W        W99422  20.650  43.977   1.870
32882W        W99423  32.978  41.752  14.403
32883W        W99424   3.893   8.841   5.172
32884W        W99425  36.822   0.432   0.882
32885W        W99426  36.950   1.849   2.779
32886W        W99427   8.706  35.456   4.655
32887W        W99428   9.958  41.284  11.977
32888W        W99429  33.529  17.447  13.384
32889W        W99430  39.816  26.742  13.031
32890W        W99431  27.909   3.800   0.915
32891W        W99432   5.904   6.666  13.410
32892W        W99433   5.744  19.914   1.375
32893W        W99434   9.242  18.015   2.703
32894W        W99435  27.096   4.483   3.668
32895W        W99436   6.946   2.315   2.620
32896W        W99437  11.332  30.220   4.769
32897W        W99438  26.542  43.268   0.445
32898W        W99439  25.939  24.547  13.955
32899W        W99440  25.572  14.381  13.547
32900W        W99441  38.998   5.461   4.532
32901W        W99442   3.851   4.979  10.121
32902W        W99443  16.261  39.195   3.152
32903W        W99444  15.757  35.962  11.574
32904W        W99445  12.001  26.130  13.439
32905W        W99446  15.381  31.852   0.981
32906W        W99447  34.869  28.138   2.781
32907W        W99448  29.080   2.109  14.470
32908W        W99449  15.192  43.671   3.316
32909W        W99450  17.514  23.556   0.262
32910W        W99451  37.971  10.639   1.936
32911W        W99452  20.768  13.228   1.763
32912W        W99453   4.472   6.336  13.385
32913W        W99454   8.744  35.592  10.779
32914W        W99455  19.623  42.363  10.659
32915W        W99456  25.375  35.577  11.866
32916W        W99457  35.849  36.351   2.915
32917W        W99458   7.320  33.903  14.878
32918W        W99459  33.659  36.905   0.760
32919W        W99460  43.707  22.131   4.170
32920W        W99461  32.818  42.373  11.614
32921W        W99462   3.999  31.356  11.671
32922W        W99463   2.811  21.651  12.510
32923W        W99464  12.668   8.280  13.412
32924W        W99465  21.489  11.583  12.453
32925W        W99466  43.329   0.510   2.407
32926W        W99467  43.812  30.816  12.428
32927W        W99468  33.713  34.125   4.153
32928W        W99469   9.904  10.210  10.473
32929W        W99470  43.569   3.297   4.513
32930W        W99471  26.691  21.432  10.751
32931W        W99472  25.576   1.945  11.996
32932W        W99473  24.975   1.736   4.794
32933W        W99474  41.467   5.847  12.902
32934W        W99475  21.092   7.656   1.799
32935W        W99476  42.783  34.333   3.947
32936W        W99477   4.168  23.515  12.953
32937W        W99478  27.704  42.949  13.994
32938W        W99479  43.570  10.619  12.440
32939W        W99480  15.334   9.389   1.216
32940W        W99481  23.758   8.897  10.394
32941W        W99482  17.207  19.778   4.111
32942W        W99483  39.304  42.834  13.067
32943W        W99484  34.080   1.040  12.999
32944W        W99485  32.925  33.707  10.536
32945W        W99486   7.443  32.342   3.786
32946W        W99487  18.742  28.046   0.734
32947W        W99488  13.737  16.907  14.778
32948W        W99489  26.479   6.783  11.554
32949W        W99490  13.307  30.444  13.934
32950W        W99491  25.831  23.763   0.472
32951W        W99492  24.976  41.569   3.729
32952W        W99493   6.866   5.877   3.264
32953W        W99494  24.778  12.162   1.371
32954W        W99495  37.060   0.417  12.139
32955W        W99496  18.656  44.272  13.585
32956W        W99497   7.285  16.344   3.613
32957W        W99498  25.959  33.251   3.900
32958W        W99499  42.535  22.146   0.830
32959W        W99500   5.772  19.748  13.678
32960W        W99501  34.006  29.494  12.016
32961W        W99502  42.005  41.895   0.465
32962W        W99503  44.992  21.060   4.107
32963W        W99504  44.347  27.977  11.506
32964W        W99505  17.624   6.880   2.196
32965W        W99506  13.297   9.190  12.871
32966W        W99507  11.011  35.584   3.239
32967W        W99508  33.129  32.615  11.876
32968W        W99509  30.530  39.331   4.379
32969W        W99510  28.592   4.786   3.047
32970W        W99511  32.194  21.259  14.717
32971W        W99512  37.006   6.672   3.609
32972W        W99513   3.273  21.125  14.862
32973W        W99514  37.503   0.448   4.961
32974W        W99515  17.366  20.199  13.825
32975W        W99516  32.627   3.232   1.378
32976W        W99517  38.144  18.190   2.767
32977W        W99518   5.074  35.362  12.579
32978W        W99519  25.271  31.007  13.828
32979W        W99520   3.010   6.196  11.016
32980W        W99521   5.815  16.444  12.019
32981W        W99522  39.373  22.713   0.443
32982W        W99523   4.318  29.985  12.570
32983W        W99524  23.745  41.360  10.238
32984W        W99525  44.424  31.951  14.626
32985W        W99526   7.756  10.831  14.963
32986W        W99527  32.202  33.602   4.885
32987W        W99528   7.795  37.177  14.417
32988W        W99529  32.168  13.801  11.630
32989W        W99530  13.326  27.153   1.191
32990W        W99531  24.096  15.808   0.962
32991W        W99532  37.971  36.982  13.643
32992W        W99533  20.970  37.607   1.702
32993W        W99534   5.740  19.618   2.682
32994W        W99535  14.224  42.943  13.109
32995W        W99536  41.454  44.385   2.650
32996W        W99537  27.270   6.433  13.492
32997W        W99538   9.540  24.943  14.332
32998W        W99539  38.490   4.370   2.723
32999W        W99540  43.462  17.284   4.504
33000W        W99541   4.035  30.078   1.836
33001W        W99542  11.288   7.678  12.523
33002W        W99543  17.166  42.738   3.684
33003W        W99544  41.807  21.405   1.217
33004W        W99545  26.936  22.155  12.435
33005W        W99546  33.432   9.735  13.559
33006W        W99547   5.238  40.487  11.452
33007W        W99548   2.227   4.952  12.580
33008W        W99549  41.611   5.368   4.626
33009W        W99550  22.224  21.533   0.851
33010W        W99551   9.260  28.167  12.906
33011W        W99552  40.022  12.054   4.154
33012W        W99553  26.952  39.373  13.504
33013W        W99554   4.419  12.939  12.181
33014W        W99555  19.156   8.618  12.382
33015W        W99556  38.530  11.252  13.750
33016W        W99557  36.791  19.211  10.756
33017W        W99558  28.532   8.482   2.247
33018W        W99559   6.486  35.359   3.435
33019W        W99560  26.645  12.792  12.361
33020W        W99561  41.541  44.950   1.711
33021W        W99562  20.550   2.245   4.713
33022W        W99563   0.539  31.118   1.402
33023W        W99564  40.564  14.037   4.561
33024W        W99565  44.745  38.821   0.573
33025W        W99566  17.352  29.115  11.995
33026W        W99567  44.659  44.059  11.292
33027W        W99568   0.489  31.512  13.478
33028W        W99569  38.036  19.465   2.535
33029W        W99570   0.990  26.534   1.633
33030W        W99571  35.685  35.939   2.625
33031W        W99572   6.290   4.825   2.203
33032W        W99573  25.484  19.304   3.182
33033W        W99574  27.856  20.046  13.375
33034W        W99575  18.338  41.333   4.633
33035W        W99576  31.818  31.890   4.949
33036W        W99577  10.429  33.547   4.508
33037W        W99578  34.915  32.160   4.521
33038W        W99579   4.514  28.113   3.249
33039W        W99580   1.480  12.398   4.793
33040W        W99581   5.445  42.945  10.683
33041W        W99582  22.247  20.700   2.817
33042W        W99583   2.156  40.775   0.285
33043W        W99584  38.493  38.474  12.025
33044W        W99585  17.591   3.567   1.559
33045W        W99586   1.043  14.353  11.444
33046W        W99587  21.329   1.523   1.561
33047W        W99588  22.624   9.162  10.291
33048W        W99589  17.565   7.366   4.158
33049W        W99590  27.550  19.525  11.173
33050W        W99591  21.307   0.295   4.615
33051W        W99592   4.395  10.119   0.370
33052W        W99593  28.074  12.133   2.332
33053W        W99594  33.439  37.340   2.721
33054W        W99595  14.009   7.294   2.714
33055W        W99596   4.451   0.831   9.721
33056W        W99597  14.469  22.619   3.700
33057W        W99598  37.003  34.978  10.681
33058W        W99599  22.130  23.059  12.060
33059W        W99600  28.674  10.889   0.305
33060W        W99601  43.078  36.552   4.957
33061W        W99602   2.017   9.366  12.921
33062W        W99603   8.681  44.364   2.795
33063W        W99604   8.522  34.632   0.053
33064W        W99605   3.178  13.268  13.931
33065W        W99606  10.183  35.811  10.019
33066W        W99607  11.313  12.947   4.148
33067W        W99608   2.244  18.970  12.899
33068W        W99609   5.686  39.437  13.106
33069W        W99610   5.808   1.837   1.296
33070W        W99611  41.450  26.714   4.212
33071W        W99612  38.866   9.652  13.090
33072W        W99613  43.121  37.525  11.444
33073W        W99614  41.958   8.146   4.678
33074W        W99615  19.353  22.635   0.355
33075W        W99616  29.704  39.369  12.466
33076W        W99617  27.081  41.410  13.613
33077W        W99618  32.061  17.704   4.179
33078W        W99619  19.317  13.673  14.934
33079W        W99620   0.356  17.055  14.211
33080W        W99621   1.315  37.609  14.853
33081W        W99622  16.483  28.511  13.906
33082W        W99623   7.764  33.850  13.337
33083W        W99624  21.943  10.726   1.480
33084W        W99625  23.279  30.999   1.278
33085W        W99626  13.917  10.695  10.943
33086W        W99627   2.478   9.889  14.369
33087W        W99628  18.568   4.422   4.665
33088W        W99629  28.040  30.689   3.250
33089W        W99630  13.100   8.704  10.282
33090W        W99631  22.143  26.672   2.197
33091W        W99632  25.058  21.644   3.741
33092W        W99633  33.829  11.638  10.742
33093W        W99634   2.786  11.713   4.568
33094W        W99635   9.644  16.662   0.841
33095W        W99636   7.649  34.764  11.218
33096W        W99637  36.573  35.338  14.029
33097W        W99638   6.338  42.037   0.856
33098W        W99639  21.991  11.293   2.174
33099W        W99640  15.160  21.060  14.073
33100W        W99641  35.070  37.337  11.670
33101W        W99642  12.772  44.810   4.329
33102W        W99643  34.433  14.502   2.886
33103W        W99644  22.547  38.518  14.514
33104W        W99645  18.028  31.731  13.570
33105W        W99646  12.416  17.658   4.262
33106W        W99647   2.839   6.815   1.732
33107W        W99648   0.519  23.513   0.837
33108W        W99649  28.262  38.336   2.640
33109W        W99650   9.878  13.186   4.617
33110W        W99651  34.360   8.694  14.263
33111W        W99652  19.485  11.311  11.464
33112W        W99653   2.488  42.797   0.275
33113W        W99654  25.961   0.920  14.946
33114W        W99655  18.076  30.154  14.849
33115W        W99656   5.501   3.936   4.508
33116W        W99657  44.725  18.557  14.120
33117W        W99658   5.752  34.064   0.296
33118W        W99659   6.962   6.767   3.315
33119W        W99660  25.258  31.542  12.949
33120W        W99661  16.300  18.148   1.733
33121W        W99662  33.094   5.995  12.050
33122W        W99663  43.043  19.565   4.579
33123W        W99664  16.682   8.931   2.281
33124W        W99665   4.416  10.059  11.263
33125W        W99666   8.926  24.792  14.913
33126W        W99667  25.973  26.212   4.076
33127W        W99668  11.846  28.591  11.912
33128W        W99669  23.445  15.456  13.792
33129W        W99670  27.163   2.164  14.927
33130W        W99671  41.429  41.285   4.611
33131W        W99672  42.319   3.346  10.793
33132W        W99673  44.440  13.712  10.534
33133W        W99674  19.002  33.554   2.423
33134W        W99675  27.022  17.309  11.652
33135W        W99676  32.722  10.255   4.024
33136W        W99677  20.399  27.955  13.815
33137W        W99678   3.897  43.274  11.665
33138W        W99679  40.119  11.909  13.232
33139W        W99680  24.795   8.327  13.998
33140W        W99681   6.421   1.800  10.215
33141W        W99682  22.760  15.072  11.708
33142W        W99683  21.222  27.577   1.900
33143W        W99684   8.609  29.306   2.815
33144W        W99685   0.875  35.661   3.682
33145W        W99686  23.796   4.296  11.194
33146W        W99687  23.698  20.432   4.465
33147W        W99688  29.524  10.371   3.234
33148W        W99689  17.902  40.469  13.164
33149W        W99690  17.622  37.462   1.001
33150W        W99691  14.895  37.577   2.827
33151W        W99692  35.296  22.563  12.619
33152W        W99693   1.491  26.446  12.109
33153W        W99694  40.216   3.366  13.338
33154W        W99695   5.669  33.605   9.812
33155W        W99696  43.880  23.997   3.776
33156W        W99697   7.337  34.313  11.526
33157W        W99698  11.146  41.362   0.298
33158W        W99699  15.101  39.628  12.384
33159W        W99700  10.976  17.747  13.615
33160W        W99701  17.081  40.962  12.509
33161W        W99702  28.924  40.660  12.635
33162W        W99703  29.663  26.447   2.873
33163W        W99704  21.047  32.868  13.457
33164W        W99705   1.278  42.495   2.456
33165W        W99706  29.651   5.236   0.261
33166W        W99707   2.328   3.500  12.200
33167W        W99708  22.736   1.169  13.397
33168W        W99709  22.050  27.677  11.561
33169W        W99710  12.167   5.454  13.377
33170W        W99711   4.567  42.821   1.454
33171W        W99712  11.818  19.763   1.866
33172W        W99713  17.419   1.668   1.477
33173W        W99714   1.891  19.128   4.471
33174W        W99715  11.632   9.758  11.988
33175W        W99716   4.628   6.933   0.943
33176W        W99717  18.673  30.714  13.998
33177W        W99718  40.938   4.868  12.431
33178W        W99719  29.047  44.387  13.397
33179W        W99720  27.944  17.898  10.155
33180W        W99721  10.875  27.429  13.537
33181W        W99722  22.027  32.680  10.582
33182W        W99723   6.259  43.262  13.084
33183W        W99724   7.686  29.226  12.111
33184W        W99725  33.907  40.359   2.632
33185W        W99726  39.857  25.456   3.007
33186W        W99727  31.848  33.109  11.382
33187W        W99728  30.213  22.690  14.717
33188W        W99729  33.637  42.370   1.721
33189W        W99730   1.231  36.010   2.347
33190W        W99731  12.787   2.092  14.378
33191W        W99732   0.355  13.975   4.386
33192W        W99733  36.184  23.025   1.844
33193W        W99734  32.092   7.230   2.845
33194W        W99735  28.454  27.739   1.346
33195W        W99736   3.097   1.570  12.290
33196W        W99737  35.991  33.617   0.347
33197W        W99738  43.217  44.481  13.526
33198W        W99739   6.004   2.375   0.997
33199W        W99740   8.866   2.859   1.371
33200W        W99741  26.667  28.427   3.788
33201W        W99742   3.807  12.260   4.625
33202W        W99743   7.764  33.793   4.052
33203W        W99744  19.251  35.694  13.889
33204W        W99745  13.349  33.603  13.883
33205W        W99746  33.550  21.533   3.615
33206W        W99747  44.018  37.361  14.520
33207W        W99748   8.297  27.748   1.857
33208W        W99749  25.079   7.940   1.904
33209W        W99750  25.110   7.533  12.417
33210W        W99751   9.760  22.658  14.782
33211W        W99752  22.797  40.422  12.414
33212W        W99753  23.752  32.398  10.883
33213W        W99754  16.128  13.315  11.661
33214W        W99755   0.940  11.404   4.125
33215W        W99756  40.607  37.831  13.434
33216W        W99757  37.438  23.588  13.234
33217W        W99758  30.643  44.452   4.115
33218W        W99759  10.812   3.272   4.720
33219W        W99760  40.415  17.066  11.008
33220W        W99761   6.501  10.277   1.416
33221W        W99762  25.098   6.874  11.241
33222W        W99763  21.764  40.350  14.572
33223W        W99764  38.359  40.405   3.703
33224W        W99765  29.773  23.671  11.113
33225W        W99766   8.366  28.429   2.914
33226W        W99767  26.712  22.715   3.598
33227W        W99768  36.028   5.955   1.815
33228W        W99769  20.828   4.130  11.956
33229W        W99770  25.083  38.916   1.889
33230W        W99771  26.193   9.256   3.306
33231W        W99772  32.153  21.921   1.532
33232W        W99773  19.189  11.372  13.975
33233W        W99774   3.994  16.394  12.918
33234W        W99775  25.155  35.483  13.842
33235W        W99776   0.442  22.197   0.278
33236W        W99777   1.774  33.073  11.080
33237W        W99778  26.103   5.415   4.037
33238W        W99779  12.849  11.535  11.222
33239W        W99780  43.454  18.748  13.958
33240W        W99781   2.974  40.477  11.419
33241W        W99782  32.170  13.143  13.044
33242W        W99783  37.470  33.752   3.751
33243W        W99784  11.630  16.743   0.323
33244W        W99785  33.628   1.806   3.840
33245W        W99786  36.998  39.471  14.317
33246W        W99787  26.786  16.481  10.672
33247W        W99788  12.335  43.987   1.290
33248W        W99789   4.962  44.800  10.517
33249W        W99790   7.287  28.083   3.820
33250W        W99791   6.757  38.232  14.919
33251W        W99792  20.084  23.111  10.947
33252W        W99793   6.943  20.025   1.842
33253W        W99794   0.020  27.158  13.315
33254W        W99795  41.539   8.432  11.671
33255W        W99796  16.197  10.139   4.315
33256W        W99797  29.670  40.016  14.783
33257W        W99798  35.984  29.612  13.366
33258W        W99799  29.489   1.753   0.606
33259W        W99800  32.042   4.002   2.683
33260W        W99801  16.774  26.874  10.608
33261W        W99802   6.748   9.866  10.548
33262W        W99803  31.794  14.093   4.646
33263W        W99804  18.191   7.923  14.814
33264W        W99805   4.873  42.507  12.766
33265W        W99806  10.090  13.772  12.142
33266W        W99807   4.240  30.406   3.925
33267W        W99808  37.535  29.099   4.099
33268W        W99809   7.379  40.267  11.156
33269W        W99810  29.892  39.770   2.568
33270W        W99811  19.313  30.926   2.703
33271W        W99812  10.621  25.008   4.445
33272W        W99813   8.426  38.308  11.187
33273W        W99814   8.617  36.694   1.447
33274W        W99815  10.619  20.771   4.324
33275W        W99816  14.002   5.310  12.982
33276W        W99817  22.975  16.190  10.603
33277W        W99818  11.639  26.550   1.782
33278W        W99819  33.082  43.380   1.455
33279W        W99820   3.812  13.109   1.237
33280W        W99821  15.020  22.504   0.303
33281W        W99822  28.122  28.731   3.181
33282W        W99823   3.265  32.885   3.202
33283W        W99824   0.366   0.820   3.583
33284W        W99825  40.525  40.008   3.715
33285W        W99826  21.564  36.410  12.518
33286W        W99827  24.725  17.660  11.667
33287W        W99828  33.956  37.546   1.977
33288W        W99829  12.157  16.928  10.766
33289W        W99830  15.569  21.169   0.304
33290W        W99831  41.643  32.222  12.052
33291W        W99832  17.513  33.591  11.048
33292W        W99833  11.203   5.662   0.287
33293W        W99834  32.088   7.789   1.380
33294W        W99835  29.202  27.889   2.351
33295W        W99836   2.435  42.800   4.369
33296W        W99837  10.457  28.551   1.887
33297W        W99838  38.521  19.312   1.386
33298W        W99839  17.101   4.750   4.229
33299W        W99840  16.026   7.961   3.142
33300W        W99841  16.762  22.077   2.622
33301W        W99842  32.121   1.690  11.903
33302W        W99843  28.959   6.693   1.241
33303W        W99844  10.472  39.892  10.598
33304W        W99845  17.692  25.020   4.103
33305W        W99846  24.589  41.059   1.288
33306W        W99847   5.751  14.775  13.149
33307W        W99848   7.841  20.039  12.974
33308W        W99849   5.275  21.146  11.521
33309W        W99850  37.994  36.988  12.617
33310W        W99851   1.767  15.024  12.076
33311W        W99852  32.892  37.124   2.717
33312W        W99853  44.319  15.748   4.203
33313W        W99854   3.047   2.978   3.629
33314W        W99855   1.415  23.748  13.321
33315W        W99856  40.286   9.294  12.782
33316W        W99857  39.418  15.628  10.959
33317W        W99858  12.381  32.163  13.058
33318W        W99859  44.481   4.193   1.351
33319W        W99860   5.789  15.643  10.885
33320W        W99861  13.059  17.328   4.981
33321W        W99862  21.192  35.557   2.300
33322W        W99863  29.019  38.058  11.426
33323W        W99864  42.357   5.287  13.821
33324W        W99865  23.265  10.167   3.749
33325W        W99866  14.641  23.183  13.648
33326W        W99867  42.445   5.060  11.540
33327W        W99868  25.600   5.166  11.456
33328W        W99869   1.435   3.336  11.629
33329W        W99870  39.508  44.204   2.938
33330W        W99871  35.406  36.858  14.511
33331W        W99872   7.148  19.271  13.809
33332W        W99873   2.066  41.423   0.874
33333W        W99874  23.092  29.204   4.908
33334W        W99875   9.134  11.307   3.598
33335W        W99876  30.943   6.172  12.442
33336W        W99877  36.842   8.080   0.192
33337W        W99878   3.754   5.031  11.031
33338W        W99879  32.991   7.932   2.149
33339W        W99880  18.081  38.974   3.252
33340W        W99881  41.392  20.248   4.063
33341W        W99882  41.231   9.394   2.713
33342W        W99883  16.778   7.755   4.457
33343W        W99884  32.608  30.238   0.109
33344W        W99885  25.482   0.227  13.589
33345W        W99886  22.099  32.084   4.787
33346W        W99887  27.210  18.199  11.989
33347W        W99888  20.913  24.708   2.696
33348W        W99889   8.776  25.668   0.097
33349W        W99890  10.128  15.867   3.894
33350W        W99891  25.183  37.950  13.469
33351W        W99892  37.695  21.521   2.663
33352W        W99893  38.598  13.856  12.847
33353W        W99894  30.169  44.941   3.221
33354W        W99895  26.519  36.082   0.749
33355W        W99896   3.019  44.514   3.327
33356W        W99897   5.892  18.340  14.568
33357W        W99898  11.146   1.183  13.897
33358W        W99899  22.270   5.268   3.267
33359W        W99900  30.358  11.971  10.296
33360W        W99901   3.277  10.761   0.843
33361W        W99902  29.644   3.462   2.291
33362W        W99903  42.822   1.025  13.468
33363W        W99904  37.943  43.945   0.431
33364W        W99905  21.649  36.489   1.469
33365W        W99906  17.235  34.173  13.904
33366W        W99907  23.534  14.076   4.656
33367W        W99908  40.511  41.368   1.165
33368W        W99909  18.665  28.398   2.817
33369W        W99910  38.527  37.977   1.351
33370W        W99911  14.772  38.336  14.893
33371W        W99912  21.661  29.406  13.061
33372W        W99913  14.618  20.775   1.876
33373W        W99914  35.534  40.558   3.929
33374W        W99915  21.229  24.300  12.994
33375W        W99916   0.227  25.446  14.419
33376W        W99917  41.054  26.132  13.356
33377W        W99918  44.812   2.422   2.380
33378W        W99919  21.490   6.591  12.554
33379W        W99920   7.813  27.164   1.411
33380W        W99921   7.449  24.782  10.992
33381W        W99922  30.724  35.895   3.848
33382W        W99923  40.251  19.754   0.750
33383W        W99924   0.985  23.045  10.722
33384W        W99925  34.679  43.442  14.591
33385W        W99926  21.225  40.556   0.881
33386W        W99927   5.013  31.534  13.124
33387W        W99928  42.895  23.479  11.083
33388W        W99929  10.318  42.773  13.354
33389W        W99930  41.281  31.840  12.087
33390W        W99931  14.720  28.965   2.403
33391W        W99932  15.355   9.773   3.328
33392W        W99933   5.120  29.211  12.978
33393W        W99934  40.482  15.183   3.193
33394W        W99935  44.493   5.142   4.172
33395W        W99936  24.144  31.618  10.434
33396W        W99937  42.663  23.705  12.611
33397W        W99938  28.146   0.731   0.884
33398W        W99939  11.081  27.258  13.992
33399W        W99940  21.008  32.335   3.476
33400W        W99941  42.733  19.187   3.177
33401W        W99942  41.828  40.777   2.143
33402W        W99943   0.162  36.526   1.920
33403W        W99944  30.670  36.933   1.223
33404W        W99945   2.435  20.806   2.136
33405W        W99946  32.981  20.434   2.407
33406W        W99947  24.742  11.375  12.124
33407W        W99948  25.190  14.123  13.304
33408W        W99949  42.964   7.560   3.341
33409W        W99950  19.476  11.044   3.268
33410W        W99951  28.427   3.860   0.958
33411W        W99952  21.165   1.993   4.206
33412W        W99953  15.863  42.768   3.221
33413W        W99954  12.069  28.142  12.040
33414W        W99955  38.370  17.452  14.931
33415W        W99956  20.665  42.543   2.707
33416W        W99957  36.837  44.052  12.485
33417W        W99958  14.461  12.526   3.319
33418W        W99959  27.576  37.392  10.768
33419W        W99960  11.070  13.091  14.054
33420W        W99961   4.476  43.423  12.872
33421W        W99962  24.503   1.657  13.169
33422W        W99963  14.370  23.206  14.304
33423W        W99964  31.119  12.095  12.878
33424W        W99965  23.119  41.969   2.747
33425W        W99966  30.641  19.584   0.320
33426W        W99967   2.295  13.300   1.336
33427W        W99968  24.104  17.970   4.514
33428W        W99969  39.010   5.978  12.523
33429W        W99970   9.005  27.625  13.365
33430W        W99971   6.805   6.140   3.893
33431W        W99972  29.919  21.801   3.726
33432W        W99973  24.191  34.672   0.485
33433W        W99974   6.203  13.279   3.980
33434W        W99975  19.011  28.775  11.587
33435W        W99976   8.261  27.057   0.720
33436W        W99977  35.401  27.205  14.528
33437W        W99978  16.743  38.268   0.430
33438W        W99979  35.929  27.095  11.167
33439W        W99980  41.723  32.547  14.735
33440W        W99981  36.202  17.809   2.124
33441W        W99982   9.770   8.170  13.303
33442W        W99983  20.840  18.074  12.061
33443W        W99984   1.118  15.931   9.995
33444W        W99985  43.892   9.363   1.848
33445W        W99986  36.652  20.001  14.452
33446W        W99987   6.369  18.680   0.902
33447W        W99988  36.039  13.329  14.460
33448W        W99989   8.455   1.241  13.798
33449W        W99990  29.681  21.562   0.319
33450W        W99991  34.853   4.407   4.417
33451W        W99992  44.395   0.686   0.889
33452W        W99993   0.191   7.355   0.729
33453W        W99994  25.280  11.718   5.005
33454W        W99995   6.157  22.365  12.485
33455W        W99996  19.242   8.772   2.932
33456W        W99997  20.074  24.622   4.962
33457W        W99998  41.873   2.923  13.437
33458W        W99999  27.572   7.640   2.272
33459W        W    0   3.871  44.675  12.557
33460W        W    1  39.759  14.234  13.475
33461W        W    2  21.366  38.447  14.796
33462W        W    3   1.061  42.570   5.071
33463W        W    4  13.799  30.140  12.163
33464W        W    5  23.261  31.642  10.679
33465W        W    6   2.571  17.549   4.439
33466W        W    7   6.075  39.613   4.193
33467W        W    8  31.687   3.810  13.412
33468W        W    9  16.031  17.128  11.125
33469W        W   10  10.792  33.301   4.224
33470W        W   11  22.259  14.591   0.633
33471W        W   12  16.718  28.542  11.197
33472W        W   13  24.676  18.930  13.762
33473W        W   14   3.112  36.329  11.218
33474W        W   15  25.503  26.000  11.575
33475W        W   16   9.785  10.227   2.680
33476W        W   17  14.442  15.308  14.808
33477W        W   18  10.295   0.829   4.106
33478W        W   19  10.947  27.498  14.415
33479W        W   20  42.813  40.358  13.598
33480W        W   21   0.357  15.058  13.136
33481W        W   22  27.320  39.495   2.465
33482W        W   23   5.511   9.884  11.889
33483W        W   24  15.714  22.223   1.697
33484W        W   25  31.936  40.615   1.946
33485W        W   26   7.434  35.558   3.630
33486W        W   27   9.440  24.539  12.470
33487W        W   28  27.007  42.762   0.891
33488W        W   29   6.369  13.364   5.400
33489W        W   30  43.898   5.620   3.674
33490W        W   31  17.324   6.616  10.388
33491W        W   32  15.763   3.165   5.352
33492W        W   33  43.777  43.715   2.412
33493W        W   34  39.275  37.887   5.092
33494W        W   35  33.793   9.211   0.796
33495W        W   36  21.628   3.774  12.164
33496W        W   37  30.563  44.255  12.163
33497W        W   38  15.227  30.479  11.058
33498W        W   39  23.551  14.266  12.586
33499W        W   40   7.681  18.049  10.288
33500W        W   41  20.731   1.773   3.942
33501W        W   42  16.479  33.626   1.962
33502W        W   43  33.578  19.585   1.708
33503W        W   44  36.265  42.211  14.255
33504W        W   45  44.876  22.025  14.770
33505W        W   46   5.816  16.287   4.544
33506W        W   47  35.448  24.073   4.399
33507W        W   48  33.462  17.098  14.726
33508W        W   49  28.676  13.377  14.408
33509W        W   50  22.123  12.949   2.290
33510W        W   51   4.624   7.605   1.513
33511W        W   52  12.821  24.074  12.452
33512W        W   53  24.154  14.056   0.406
33513W        W   54  18.146   5.644   2.655
33514W        W   55  11.599  18.321  10.655
33515W        W   56  13.452  34.720   3.992
33516W        W   57  23.312   2.917  10.930
33517W        W   58  15.976   6.282  13.777
33518W        W   59  16.059  31.672   0.897
33519W        W   60  15.396  38.661  11.463
33520W        W   61   2.311  34.488   5.268
33521W        W   62  11.123   4.877   4.246
33522W        W   63  30.440  16.667  13.626
33523W        W   64   0.546  22.274  11.474
33524W        W   65   9.903  36.089  13.413
33525W        W   66  25.263  24.979   3.772
33526W        W   67   1.309   9.767  10.721
33527W        W   68  18.777   1.226  13.430
33528W        W   69  30.675  42.898  10.730
33529W        W   70   5.144  22.418  13.828
33530W        W   71  18.382  11.796  12.457
33531W        W   72  32.056  26.462   1.818
33532W        W   73  29.170   0.599  14.062
33533W        W   74   8.181  31.708   0.398
33534W        W   75   9.115  29.546   1.744
33535W        W   76  24.680  24.179  11.197
33536W        W   77  42.852   9.294   4.609
33537W        W   78   1.254  33.405   3.121
33538W        W   79  15.239  15.815  14.722
33539W        W   80  15.287  39.612   1.200
33540W        W   81   4.237  21.256   0.331
33541W        W   82  13.834  17.793   0.256
33542W        W   83  11.082  27.568   3.729
33543W        W   84  16.632  36.107   2.720
33544W        W   85  26.418   7.430   2.620
33545W        W   86  23.745  42.402   2.269
33546W        W   87  35.410  34.028   2.955
33547W        W   88  37.095  26.588   2.779
33548W        W   89  23.596   8.333   0.431
33549W        W   90  12.719  18.539   2.408
33550W        W   91  12.304  20.654  10.538
33551W        W   92  23.465   9.671  11.190
33552W        W   93  34.520   5.446  11.489
33553W        W   94  11.107   9.596  12.862
33554W        W   95  21.194   6.624  12.088
33555W        W   96  36.638  44.433   1.050
33556W        W   97  33.613  31.272   4.585
33557W        W   98  17.154   9.167  10.814
33558W        W   99   2.495  20.753  14.498
33559W        W  100  21.230  40.502   2.353
33560W        W  101  38.104  37.456  13.440
33561W        W  102  32.541  22.716  13.432
33562W        W  103   0.333   8.821   4.077
33563W        W  104  17.118   6.192   1.286
33564W        W  105   8.808  28.494  13.424
33565W        W  106  18.735  18.241  13.855
33566W        W  107  34.049   2.365   2.573
33567W        W  108  11.946  39.084  12.061
33568W        W  109  32.803  15.877  14.934
33569W        W  110   0.437   3.012  13.709
33570W        W  111   8.999  39.654  12.307
33571W        W  112  35.009  31.312   3.304
33572W        W  113  42.327  28.409  13.554
33573W        W  114  16.699  16.654  10.606
33574W        W  115  20.970  11.135  13.961
33575W        W  116  35.779  43.397   0.470
33576W        W  117   7.354  17.100  13.519
33577W        W  118  38.440  12.268  12.253
33578W        W  119  28.910  32.901  14.935
33579W        W  120   9.407  34.031   4.097
33580W        W  121  41.408   3.047  14.689
33581W        W  122  24.662  37.872  14.326
33582W        W  123  10.414   6.505  10.998
33583W        W  124  11.713  29.427  10.636
33584W        W  125  33.923   4.073  10.680
33585W        W  126  22.672  18.588  14.355
33586W        W  127  11.882  31.963   4.572
33587W        W  128  44.248  33.295   3.725
33588W        W  129  25.772  15.140   0.124
33589W        W  130  34.339   7.678  11.139
33590W        W  131   1.549  43.335   1.950
33591W        W  132  24.702  23.215  12.566
33592W        W  133  27.384  31.154  11.546
33593W        W  134  28.929  32.686  14.460
33594W        W  135   1.383  11.171  12.950
33595W        W  136   9.347   3.815   4.938
33596W        W  137  17.306  21.285  10.331
33597W        W  138  12.363  33.138  13.295
33598W        W  139   8.016  42.937  10.502
33599W        W  140  24.237  36.827   4.651
33600W        W  141  36.475   1.846   4.897
33601W        W  142   3.442  13.120   3.395
33602W        W  143  14.725  35.254  12.013
33603W        W  144  40.240  15.731  13.475
33604W        W  145   0.326  29.835   4.041
33605W        W  146  27.556   2.200  11.862
33606W        W  147   7.761   7.856   2.870
33607W        W  148  30.117  44.339  11.909
33608W        W  149  30.103   5.849  11.288
33609W        W  150  32.699  39.942   2.798
33610W        W  151   8.463  33.385  14.422
33611W        W  152  43.990  26.955   1.768
33612W        W  153  13.217  29.536  12.857
33613W        W  154  14.200  34.239  13.944
33614W        W  155  44.803  26.038  12.566
33615W        W  156  40.505   7.515  12.062
33616W        W  157  44.790  40.267  11.470
33617W        W  158  26.504   7.985  12.698
33618W        W  159   2.133  35.281   3.798
33619W        W  160   4.735   4.753  14.069
33620W        W  161  36.588  39.758   4.645
33621W        W  162  17.026  42.911   4.151
33622W        W  163  41.231  35.527  10.834
33623W        W  164  40.835  13.421  13.780
33624W        W  165   3.788  37.284   3.205
33625W        W  166  22.215  37.136  12.591
33626W        W  167   0.774  39.517   2.583
33627W        W  168  17.663  27.397  10.636
33628W        W  169  40.325  25.381   3.612
33629W        W  170   6.860  36.493   0.441
33630W        W  171   2.430   2.764   1.326
33631W        W  172  44.620  22.744  14.172
33632W        W  173  15.736   5.371  12.186
33633W        W  174  31.597  34.312  11.057
33634W        W  175   1.924  37.575   3.715
33635W        W  176  27.519   7.287   0.335
33636W        W  177  34.523  42.039  13.548
33637W        W  178  23.282  31.996   1.467
33638W        W  179  17.106  38.844  14.491
33639W        W  180  24.294  35.959  10.853
33640W        W  181  33.023  10.140  10.777
33641W        W  182  37.500   5.952   4.854
33642W        W  183  16.176   2.738  13.918
33643W        W  184  11.066   9.109   2.211
33644W        W  185  24.350  10.237  11.386
33645W        W  186  37.587   3.902   2.413
33646W        W  187  43.481  20.568  11.579
33647W        W  188  18.459  39.388  12.508
33648W        W  189   2.251  30.607   0.916
33649W        W  190   5.678  22.205   1.176
33650W        W  191  27.371  29.158  13.875
33651W        W  192  12.618  14.361  13.899
33652W        W  193   3.727  22.643  13.406
33653W        W  194  11.655  43.611  11.217
33654W        W  195  14.533  37.334  12.895
33655W        W  196   1.322  13.746   0.564
33656W        W  197  17.438  23.149   2.051
33657W        W  198  35.633  25.880   2.008
33658W        W  199   2.435  34.628  14.021
33659W        W  200  25.729   0.327  12.911
33660W        W  201  21.512  24.522  11.175
33661W        W  202  28.588  27.611   4.265
33662W        W  203  11.719  39.435   1.415
33663W        W  204  17.577  43.694   0.818
33664W        W  205  10.569  34.416  10.858
33665W        W  206   2.961  38.094  13.482
33666W        W  207  22.190  35.097  11.687
33667W        W  208  37.344  19.987   2.154
33668W        W  209  38.925   2.141  13.108
33669W        W  210  21.174  15.330  14.370
33670W        W  211  25.294  30.270   3.618
33671W        W  212  34.510  12.560   2.944
33672W        W  213  44.317  17.291   3.232
33673W        W  214  18.837  13.416  14.891
33674W        W  215   2.052  24.064  12.553
33675W        W  216  18.596  37.031   4.749
33676W        W  217  18.343  10.176   3.335
33677W        W  218  23.769  29.605  12.828
33678W        W  219   9.117  41.852   1.240
33679W        W  220  16.402  29.089   3.624
33680W        W  221  17.829   7.549   1.884
33681W        W  222   8.106  32.994  14.248
33682W        W  223   7.509   8.056  14.501
33683W        W  224   3.449  10.387   9.868
33684W        W  225  19.474  21.231   2.267
33685W        W  226  33.462  34.993  11.196
33686W        W  227  23.917  22.361   1.688
33687W        W  228  22.510  17.564  13.018
33688W        W  229  29.975   3.159  12.212
33689W        W  230   8.069   0.893  13.665
33690W        W  231  24.274  12.256   4.182
33691W        W  232   8.781  26.222   4.305
33692W        W  233  22.280  16.402   5.090
33693W        W  234  41.122  12.592  12.613
33694W        W  235  38.767  23.199  11.163
33695W        W  236  32.042  15.862   3.078
33696W        W  237  28.219   7.383  10.862
33697W        W  238  21.768  20.266   1.192
33698W        W  239  25.142  27.575   0.039
33699W        W  240  12.865  33.476   1.106
33700W        W  241  19.055   0.219  10.733
33701W        W  242  42.051  30.541   1.849
33702W        W  243  39.191  34.902   4.769
33703W        W  244  34.320  41.784   0.722
33704W        W  245  39.859  10.639   4.490
33705W        W  246  16.835  27.533   0.896
33706W        W  247  32.475  16.865  12.491
33707W        W  248  19.651   3.883  12.637
33708W        W  249  22.624  41.057  14.037
33709W        W  250   1.281  39.150  10.313
33710W        W  251   3.738   9.065  13.476
33711W        W  252   6.412  25.463  11.500
33712W        W  253   0.701  10.382   5.052
33713W        W  254   3.943  43.271   0.254
33714W        W  255  19.808  31.451   1.266
33715W        W  256  31.868  17.024   2.036
33716W        W  257  18.673  44.721  13.341
33717W        W  258  36.205  43.443  13.016
33718W        W  259  16.669   0.739   4.604
33719W        W  260  20.710   6.447  12.412
33720W        W  261  31.906  42.240  11.583
33721W        W  262  22.639  39.156   9.754
33722W        W  263   9.331  39.926  11.486
33723W        W  264  16.702  31.875   3.494
33724W        W  265  30.946  44.746  11.553
33725W        W  266  23.887  10.044   2.641
33726W        W  267  37.406   2.964   3.055
33727W        W  268  15.328  12.641   3.630
33728W        W  269  25.077  41.859  12.501
33729W        W  270  37.019  22.532  10.584
33730W        W  271  39.809  35.411   0.817
33731W        W  272  31.092   7.385  13.918
33732W        W  273   9.191   9.980   2.307
33733W        W  274  10.261  25.290  11.936
33734W        W  275  10.902  11.087  13.729
33735W        W  276  19.019  22.943  14.455
33736W        W  277  41.897  12.625   1.348
33737W        W  278  40.783   4.919   0.856
33738W        W  279   6.134  15.159  11.862
33739W        W  280  13.618  27.049   2.024
33740W        W  281  26.088  28.436  13.008
33741W        W  282   1.379  39.276   1.425
33742W        W  283   2.902  37.054  10.876
33743W        W  284   7.431   6.078   3.175
33744W        W  285   4.329  44.335   2.362
33745W        W  286  36.621  42.067   2.153
33746W        W  287   9.677  19.432   2.609
33747W        W  288  13.357  31.952   4.457
33748W        W  289  17.667  41.963   4.474
33749W        W  290  13.839   1.842   3.110
33750W        W  291  13.172  29.868   4.268
33751W        W  292  26.127  13.637   0.787
33752W        W  293  41.969  29.383  11.221
33753W        W  294  29.888   5.008  13.847
33754W        W  295  34.461  16.951   2.218
33755W        W  296   4.238  19.227   3.131
33756W        W  297  34.981  18.803  11.040
33757W        W  298  41.275  34.560  11.625
33758W        W  299  38.076   0.371   3.182
33759W        W  300  30.568   0.419  14.525
33760W        W  301  19.608  34.389   3.235
33761W        W  302  22.672  34.793   1.327
33762W        W  303  23.764  11.024   2.801
33763W        W  304  14.340  40.971  11.010
33764W        W  305  17.269  20.401   2.365
33765W        W  306  26.485  31.972   4.550
33766W        W  307  44.526  33.121   1.273
33767W        W  308  31.392  29.041  14.664
33768W        W  309  23.559  15.763  14.808
33769W        W  310   7.805   7.533   2.393
33770W        W  311  36.925  43.291   0.403
33771W        W  312  27.528  19.739   2.468
33772W        W  313  38.614  41.262   1.893
33773W        W  314  42.586  17.202   0.396
33774W        W  315  33.860  20.269   0.775
33775W        W  316   4.215  44.677  13.364
33776W        W  317  26.613  12.572  10.485
33777W        W  318  20.808  31.064   3.746
33778W        W  319  37.529  19.162   4.044
33779W        W  320  11.838  35.834  11.197
33780W        W  321   5.960  43.687  13.281
33781W        W  322  18.635   1.474   4.028
33782W        W  323   8.814  30.866   0.711
33783W        W  324  15.002  25.660   0.837
33784W        W  325  34.026  20.997   0.498
33785W        W  326  15.183  39.378  14.313
33786W        W  327  22.537  16.583   2.320
33787W        W  328  43.324  42.567   1.507
33788W        W  329  37.085  23.203  14.917
33789W        W  330   0.985  10.779  11.368
33790W        W  331  13.709  41.985   1.671
33791W        W  332   6.274  42.946   0.384
33792W        W  333  31.971  34.325   4.314
33793W        W  334   7.379  29.806   4.438
33794W        W  335   6.962  31.334  13.935
33795W        W  336  26.697  10.764   2.218
33796W        W  337  12.831  18.672  14.946
33797W        W  338  31.160  35.093  11.062
33798W        W  339  34.153  29.577  14.330
33799W        W  340   9.895   9.870  13.483
33800W        W  341  34.337  30.621  11.588
33801W        W  342  27.564  29.410  13.069
33802W        W  343  43.262  11.086  10.785
33803W        W  344  10.514  10.713  12.288
33804W        W  345  14.141  38.038   0.268
33805W        W  346  22.720  14.710  12.358
33806W        W  347  21.708  39.310  14.702
33807W        W  348   4.869  35.041  14.639
33808W        W  349   4.032  20.518   1.372
33809W        W  350  26.912   3.087  13.096
33810W        W  351   0.919  30.894   0.775
33811W        W  352  15.321  23.221  12.831
33812W        W  353  31.369  15.583   1.982
33813W        W  354   8.824  39.203  14.352
33814W        W  355  22.540  41.896  13.295
33815W        W  356  14.618  20.525   1.362
33816W        W  357   2.801  13.364   2.600
33817W        W  358   7.910  24.205  14.561
33818W        W  359  25.746  35.362   0.179
33819W        W  360  12.994  28.989   4.575
33820W        W  361  33.059  13.353   0.739
33821W        W  362  19.413  43.005  11.222
33822W        W  363  37.586  35.710  12.395
33823W        W  364  28.503  44.089  12.091
33824W        W  365  18.855   1.824   3.692
33825W        W  366  22.638  13.111   2.252
33826W        W  367   1.356   5.425   0.446
33827W        W  368  33.444  34.048   1.414
33828W        W  369  36.955  13.108  13.484
33829W        W  370  32.882  25.957  13.022
33830W        W  371  21.543  42.254   2.737
33831W        W  372   1.534  29.398   4.583
33832W        W  373  18.333  26.555  12.879
33833W        W  374  28.007  23.670  13.741
33834W        W  375  15.066  18.589  14.314
33835W        W  376   1.372  33.157   1.288
33836W        W  377  18.150  30.881  10.855
33837W        W  378  20.541  14.884   1.887
33838W        W  379  44.303   3.362   4.870
33839W        W  380  22.773  41.132   3.695
33840W        W  381  16.075  33.673  13.467
33841W        W  382  32.891  27.982  13.949
33842W        W  383  13.059  42.029  12.216
33843W        W  384  43.319  21.152  12.412
33844W        W  385  37.844   0.961   0.334
33845W        W  386  36.558  34.911  14.326
33846W        W  387  20.571   0.836   1.847
33847W        W  388  43.800  37.961  14.432
33848W        W  389  30.671   0.018   3.089
33849W        W  390  11.867  41.018   0.679
33850W        W  391  34.103  33.143   3.249
33851W        W  392  38.019   1.461   2.574
33852W        W  393  44.422  18.792  12.819
33853W        W  394  33.548  42.077  10.617
33854W        W  395  22.221  11.287  10.925
33855W        W  396   8.785  10.819   0.772
33856W        W  397  28.200  30.721   1.865
33857W        W  398  33.447  13.849   0.370
33858W        W  399  21.243  22.352  11.055
33859W        W  400  35.345   5.680  13.071
33860W        W  401  18.028  25.051  14.216
33861W        W  402  29.939  16.666   1.540
33862W        W  403  39.071  20.073   0.047
33863W        W  404  19.048  39.562   4.613
33864W        W  405   2.561  44.987   4.738
33865W        W  406  44.431  35.994   0.897
33866W        W  407  22.471  33.777  11.005
33867W        W  408  17.101  26.015  13.017
33868W        W  409  22.696  33.299   0.837
33869W        W  410   6.715  25.632  14.955
33870W        W  411   1.353  39.292   2.845
33871W        W  412  15.614  15.568   1.369
33872W        W  413  13.621   7.236   2.174
33873W        W  414  26.166  17.811  12.881
33874W        W  415  20.682  31.021  14.369
33875W        W  416   9.692  36.391   3.694
33876W        W  417  25.246  23.817  12.891
33877W        W  418   0.501  15.547   4.750
33878W        W  419  25.306   6.495  10.996
33879W        W  420  34.352  33.598  12.598
33880W        W  421  34.139  27.640   0.814
33881W        W  422  18.858  18.726   3.713
33882W        W  423   5.118   9.420  11.094
33883W        W  424  14.161   2.120   4.216
33884W        W  425  23.374  44.174  12.016
33885W        W  426  25.257   9.825   0.919
33886W        W  427  18.647  43.116   3.277
33887W        W  428  24.302  17.300  12.385
33888W        W  429  34.616  27.619   3.714
33889W        W  430   0.260  29.352   2.849
33890W        W  431   5.877  32.974  11.746
33891W        W  432  28.569  44.205   3.945
33892W        W  433  30.971   2.036   1.000
33893W        W  434  28.626  11.794  12.691
33894W        W  435  41.110  43.990  14.357
33895W        W  436   0.732  24.017   1.883
33896W        W  437  13.288  21.623   0.197
33897W        W  438  18.231  12.320   0.834
33898W        W  439   3.766  40.658   0.265
33899W        W  440  10.234  32.447  13.247
33900W        W  441  33.354   5.825   2.513
33901W        W  442  29.351  44.469   0.814
33902W        W  443  24.603  24.259  13.633
33903W        W  444  35.639  34.038   1.469
33904W        W  445  36.812  35.082   0.943
33905W        W  446  18.336   3.924   4.554
33906W        W  447  17.839  37.458   2.997
33907W        W  448  21.148  22.738  14.455
33908W        W  449  44.659  36.769  10.742
33909W        W  450  21.551  11.091   4.528
33910W        W  451   6.287  37.503   2.761
33911W        W  452  37.574  37.103   3.104
33912W        W  453  42.848   4.899   1.468
33913W        W  454  39.750  44.793  12.785
33914W        W  455  25.775   0.281  11.659
33915W        W  456  28.230  41.870   3.160
33916W        W  457  15.301  29.638  10.669
33917W        W  458   5.309  44.821   2.754
33918W        W  459  17.660  25.410   0.861
33919W        W  460  44.485  37.851   3.673
33920W        W  461  11.352  23.674   0.395
33921W        W  462  23.379  39.515   4.311
33922W        W  463  43.921  27.171   3.151
33923W        W  464  31.666   4.980  11.406
33924W        W  465  19.372  37.521   4.655
33925W        W  466  38.775  35.444   5.150
33926W        W  467  18.798  13.888   2.075
33927W        W  468  41.486  34.419   0.284
33928W        W  469  32.549  43.628  12.153
33929W        W  470  26.962   6.010  13.385
33930W        W  471  35.443   9.732  12.387
33931W        W  472  39.858   1.433   0.891
33932W        W  473   2.865  38.809   0.085
33933W        W  474   6.973  10.971   4.201
33934W        W  475  37.405  21.406  14.263
33935W        W  476  42.025  43.716  14.829
33936W        W  477  24.806   7.584   0.786
33937W        W  478  43.506  23.083   4.209
33938W        W  479  15.166  15.169  12.341
33939W        W  480  11.586   4.632   4.147
33940W        W  481  15.645   7.440   4.615
33941W        W  482  24.453  35.413  11.697
33942W        W  483   8.153  10.239   0.323
33943W        W  484  25.592   6.933   5.062
33944W        W  485  40.030  21.336   3.799
33945W        W  486  10.827  29.926   2.257
33946W        W  487  20.980  25.863  13.832
33947W        W  488  36.598  12.683  10.227
33948W        W  489  38.094   5.331  11.136
33949W        W  490  23.757  29.342  13.749
33950W        W  491  43.543  34.412   1.673
33951W        W  492  32.926   7.252   0.406
33952W        W  493  41.067  41.173  13.110
33953W        W  494  18.304  38.276   2.837
33954W        W  495   4.689  19.603  14.732
33955W        W  496  14.355  34.648  11.537
33956W        W  497  37.945   9.172   0.297
33957W        W  498   7.699   8.033   2.371
33958W        W  499  16.826  13.157   1.213
33959W        W  500  29.029   6.896  13.877
33960W        W  501  35.596  20.639   0.239
33961W        W  502  34.029   1.294  11.958
33962W        W  503  23.605  14.322   0.482
33963W        W  504   7.126  23.509   3.884
33964W        W  505  15.571  12.657   2.289
33965W        W  506   7.402  18.837  14.526
33966W        W  507  13.760  32.205  11.270
33967W        W  508  25.394   9.811   2.292
33968W        W  509  24.235  39.286   0.893
33969W        W  510  25.199  21.479  12.365
33970W        W  511  39.976  31.054   2.920
33971W        W  512  24.655  42.436   2.634
33972W        W  513  37.648  37.886  13.756
33973W        W  514  41.866  12.600  14.025
33974W        W  515  11.579  35.364  11.133
33975W        W  516  22.099   7.115  11.118
33976W        W  517  41.376  29.987   3.222
33977W        W  518  19.690  34.575   4.326
33978W        W  519  10.262  30.429  14.271
33979W        W  520   4.365  43.302   1.593
33980W        W  521  33.180  44.614   3.729
33981W        W  522   5.818  37.250   4.390
33982W        W  523  23.956  17.109   4.136
33983W        W  524  33.526   6.739   0.504
33984W        W  525  15.128  13.223  11.294
33985W        W  526  12.365   1.787   0.065
33986W        W  527   4.617   4.368   9.766
33987W        W  528  44.417  21.060   2.634
33988W        W  529   8.670  29.866  13.866
33989W        W  530  11.117  17.582  14.494
33990W        W  531  42.646   5.951  14.366
33991W        W  532  11.655  36.070   1.714
33992W        W  533  22.311  10.661   2.408
33993W        W  534  29.001   5.896   3.262
33994W        W  535   2.998  16.245   3.678
33995W        W  536   6.162  33.401  12.632
33996W        W  537  38.370  12.496  10.286
33997W        W  538  30.190  40.790   3.676
33998W        W  539  25.620  15.148   2.511
33999W        W  540   5.499  29.578  12.056
34000W        W  541  31.172  33.593   4.178
34001W        W  542  18.668  35.633  14.746
34002W        W  543  26.577  17.261   0.947
34003W        W  544  39.917   8.800   4.729
34004W        W  545   3.541   2.335  12.079
34005W        W  546   4.674  35.871   2.470
34006W        W  547  30.044  43.366  13.141
34007W        W  548  17.075  34.911   4.139
34008W        W  549  20.120  12.762   1.197
34009W        W  550  40.665  20.946   1.400
34010W        W  551  21.482  30.849   1.594
34011W        W  552   1.857  28.260   2.295
34012W        W  553   8.247  15.275   4.096
34013W        W  554  38.483  44.299   3.194
34014W        W  555  36.153  30.446  12.986
34015W        W  556  31.374  19.538  12.643
34016W        W  557  41.674  36.927   3.598
34017W        W  558   8.601  22.091   2.227
34018W        W  559  32.355  13.863  14.395
34019W        W  560   9.708  33.072   1.858
34020W        W  561  23.034  19.797  13.394
34021W        W  562  21.152   4.189  10.964
34022W        W  563  23.293  28.363   1.305
34023W        W  564   4.193   6.320  10.158
34024W        W  565   7.828  37.155   4.471
34025W        W  566  19.203  35.570   0.365
34026W        W  567  12.024  43.819   2.524
34027W        W  568  20.882  42.419   0.914
34028W        W  569  29.152  30.656   0.019
34029W        W  570   1.129  10.636   4.127
34030W        W  571  43.449  19.217  14.510
34031W        W  572   2.513   6.391   2.403
34032W        W  573  38.162  29.351  13.949
34033W        W  574  40.461   7.953   1.255
34034W        W  575  28.537  38.408   4.245
34035W        W  576   9.423  40.359   1.395
34036W        W  577  20.194   2.033   0.819
34037W        W  578   5.910  21.431   0.995
34038W        W  579  22.427  18.590   4.046
34039W        W  580  40.557  22.552   2.788
34040W        W  581  20.490  22.979  10.664
34041W        W  582  18.965  39.874   4.109
34042W        W  583   3.339  44.072   2.181
34043W        W  584  42.411  36.929  14.346
34044W        W  585  12.273  37.472  13.383
34045W        W  586  18.794  33.962   3.317
34046W        W  587  40.508  43.047   4.678
34047W        W  588   8.802  24.274   3.538
34048W        W  589  25.537  17.090   0.895
34049W        W  590  23.486  17.232  10.747
34050W        W  591  27.329  42.521  13.289
34051W        W  592   0.484  37.806   2.470
34052W        W  593  38.272  39.838  14.714
34053W        W  594   3.631  20.196  11.893
34054W        W  595  23.211  41.470   0.417
34055W        W  596  11.835   6.146   2.297
34056W        W  597  14.264  29.944  12.085
34057W        W  598   6.403   7.268  13.947
34058W        W  599  31.645  31.342   2.865
34059W        W  600  37.046  34.488   4.146
34060W        W  601   7.136  31.854  11.627
34061W        W  602   3.926  14.820   4.172
34062W        W  603  36.707  21.608   4.834
34063W        W  604  27.828  20.055   3.599
34064W        W  605  17.243  20.236  12.069
34065W        W  606  14.386  13.533  12.467
34066W        W  607  43.747  33.733   2.952
34067W        W  608  20.850  36.935  13.057
34068W        W  609  31.216   9.670  10.704
34069W        W  610  24.967  14.287   4.095
34070W        W  611  37.720   5.680  14.502
34071W        W  612  33.475  33.596   3.219
34072W        W  613  35.541  27.154   3.722
34073W        W  614  25.968  29.518  11.600
34074W        W  615  32.665  24.639   1.736
34075W        W  616  25.452  26.402   0.036
34076W        W  617  44.280  17.876   1.414
34077W        W  618  27.700   3.640   5.028
34078W        W  619  43.055  11.188  14.857
34079W        W  620  24.020  26.168   4.181
34080W        W  621   3.323   9.419   2.158
34081W        W  622  27.608   4.189  12.939
34082W        W  623   0.146  26.884   0.271
34083W        W  624  16.076  25.131  12.091
34084W        W  625  19.105  35.904  14.918
34085W        W  626   5.910  19.382   1.189
34086W        W  627  28.445  37.014   3.948
34087W        W  628  39.795  15.826   4.554
34088W        W  629   3.864  38.018  12.332
34089W        W  630  24.617  20.804  10.693
34090W        W  631  38.089   2.181   3.642
34091W        W  632  40.244  31.099   1.711
34092W        W  633  42.578  37.452  12.471
34093W        W  634  10.122  40.947   3.258
34094W        W  635  18.703  27.201  12.114
34095W        W  636  18.794  26.795  12.957
34096W        W  637  11.174  25.562   1.772
34097W        W  638  18.127  21.785  12.668
34098W        W  639  33.819   8.879  13.486
34099W        W  640  17.715   3.735  14.792
34100W        W  641  11.118  18.280  14.756
34101W        W  642  41.915  40.348  14.448
34102W        W  643   6.677  25.990  13.798
34103W        W  644  29.174  11.101   0.955
34104W        W  645  43.749  39.543  11.721
34105W        W  646  21.641  31.745  10.755
34106W        W  647  30.445  18.150   1.282
34107W        W  648  16.991  33.552   1.964
34108W        W  649  22.845  24.729   5.231
34109W        W  650   1.716  34.990   1.309
34110W        W  651   3.570   3.280   1.542
34111W        W  652  26.475  11.685  13.059
34112W        W  653  28.141  44.698  10.989
34113W        W  654  40.413  39.041  13.986
34114W        W  655   2.207  20.705   0.823
34115W        W  656  42.936  32.630   1.911
34116W        W  657   5.915  11.248  14.606
34117W        W  658   0.077   7.210  10.574
34118W        W  659  42.210  32.524   4.614
34119W        W  660  29.426  42.416  10.695
34120W        W  661  20.127  29.157   4.501
34121W        W  662  38.365   8.146  10.727
34122W        W  663  10.111   4.195   0.073
34123W        W  664  44.383  23.502  14.761
34124W        W  665  11.718  39.726  10.651
34125W        W  666  14.085  36.481   3.404
34126W        W  667  38.377  19.087  13.429
34127W        W  668  14.675  26.498  11.155
34128W        W  669   1.055   5.677   2.387
34129W        W  670  40.447  25.631  14.331
34130W        W  671  25.661  27.507  12.875
34131W        W  672   8.759  24.901   1.761
34132W        W  673  35.979   2.014  14.882
34133W        W  674   7.158  12.318   0.286
34134W        W  675  30.885  17.233  12.914
34135W        W  676  32.784   7.765   3.198
34136W        W  677   4.389  28.876   4.277
34137W        W  678  33.478  25.714   1.314
34138W        W  679  11.727  38.444  10.240
34139W        W  680  21.044  14.704   2.609
34140W        W  681   3.323  16.543  13.366
34141W        W  682  12.246  10.126   3.769
34142W        W  683  14.359  15.542  13.525
34143W        W  684   6.798  14.921  10.472
34144W        W  685  44.664  35.607  11.121
34145W        W  686   2.697  28.579  13.368
34146W        W  687  22.315  32.079   2.606
34147W        W  688  28.731  30.853   2.024
34148W        W  689   5.963  32.145   3.862
34149W        W  690  21.997   5.723  13.772
34150W        W  691  23.566  32.669   1.965
34151W        W  692  18.725   5.213   2.268
34152W        W  693  21.998  36.913   0.708
34153W        W  694  33.583  28.648  13.461
34154W        W  695  40.888  31.084   0.892
34155W        W  696   1.325  35.911   3.384
34156W        W  697  20.496  30.743  13.847
34157W        W  698  43.405  26.082  10.636
34158W        W  699  39.870  20.669   4.387
34159W        W  700  24.461   8.400  13.113
34160W        W  701  37.052  15.833   3.585
34161W        W  702  12.610  12.738   2.386
34162W        W  703  16.903  21.640   4.532
34163W        W  704  17.523  11.825   3.051
34164W        W  705  32.043  32.583  13.369
34165W        W  706   2.647  17.181  14.436
34166W        W  707  15.182  11.527   0.757
34167W        W  708   1.310  34.810   2.781
34168W        W  709  38.904  40.515   0.465
34169W        W  710  35.000   2.845  10.291
34170W        W  711  34.368   3.027  13.351
34171W        W  712  38.833   0.005   4.741
34172W        W  713  10.281  32.587  10.442
34173W        W  714  22.503  40.609   2.822
34174W        W  715   6.955  28.889  12.520
34175W        W  716   4.858  26.430  11.594
34176W        W  717  33.090  31.000  10.330
34177W        W  718  40.626  10.176  12.273
34178W        W  719  35.010  39.258  12.421
34179W        W  720  11.219  27.570  11.216
34180W        W  721   4.310  19.493   1.328
34181W        W  722  14.611  39.438  13.854
34182W        W  723  16.099  39.627  14.828
34183W        W  724  42.790  21.200  14.082
34184W        W  725   2.833  15.390  11.098
34185W        W  726  17.239  28.367   1.812
34186W        W  727  16.066  17.732   1.137
34187W        W  728   7.469  16.995  12.559
34188W        W  729  22.748  37.498  10.214
34189W        W  730  37.104   3.412   1.675
34190W        W  731  13.085  37.512   0.938
34191W        W  732  20.536  36.697  12.595
34192W        W  733   7.468   1.202  14.919
34193W        W  734  14.506  37.922  14.848
34194W        W  735  43.396  26.783  14.434
34195W        W  736   4.861  28.641   4.397
34196W        W  737  12.914  37.028  11.295
34197W        W  738   2.763  36.015   1.968
34198W        W  739  43.905  26.106  10.761
34199W        W  740  12.471  17.693   0.001
34200W        W  741   9.998  43.783  12.851
34201W        W  742  12.228  11.153  11.711
34202W        W  743  43.957  32.869  14.807
34203W        W  744  17.664  44.471   2.363
34204W        W  745  24.448  14.057   0.859
34205W        W  746   3.519   5.393  14.361
34206W        W  747  11.267  27.411   2.186
34207W        W  748   0.793  26.543  13.528
34208W        W  749   0.629  25.230   3.519
34209W        W  750   4.136   8.253   3.150
34210W        W  751  19.046  13.275  13.372
34211W        W  752   7.400   6.700   4.823
34212W        W  753   0.211  15.315   4.253
34213W        W  754   8.275  34.736   0.504
34214W        W  755  22.509   7.130  12.875
34215W        W  756   8.775  24.573  11.152
34216W        W  757  12.875  37.440   2.761
34217W        W  758  39.018  42.893   4.563
34218W        W  759  35.460  15.893  14.941
34219W        W  760  44.902  31.954  11.482
34220W        W  761  26.408  10.961   3.313
34221W        W  762  22.856  16.168   5.001
34222W        W  763  31.321   5.197   0.891
34223W        W  764   6.736  20.205  13.784
34224W        W  765  26.705  18.657  12.806
34225W        W  766  36.376  14.973   1.467
34226W        W  767  15.126   7.474   4.571
34227W        W  768  24.607  33.875  10.459
34228W        W  769  21.857  34.075  11.442
34229W        W  770   4.478  31.607  13.075
34230W        W  771   6.305  35.100   0.891
34231W        W  772  35.594  33.318  12.353
34232W        W  773  25.830  24.699   4.174
34233W        W  774  22.528  38.034   3.691
34234W        W  775  28.851  32.151  11.583
34235W        W  776  27.555  28.701  12.486
34236W        W  777  37.610  19.732  10.768
34237W        W  778  40.414  33.418  14.524
34238W        W  779  38.992  23.455   2.752
34239W        W  780  17.724  29.914  12.189
34240W        W  781   4.179  19.026  11.605
34241W        W  782  40.105   4.019  14.877
34242W        W  783  19.020   3.511   1.890
34243W        W  784  40.792  19.948  12.033
34244W        W  785  11.560  39.416  14.484
34245W        W  786  16.451  18.576   0.213
34246W        W  787  44.441  24.700   1.207
34247W        W  788   7.171  38.841  14.302
34248W        W  789  28.467  28.269   1.309
34249W        W  790  43.403  14.354  10.181
34250W        W  791   2.604  44.276  10.638
34251W        W  792  37.484  20.008  14.911
34252W        W  793  10.171  23.264  13.978
34253W        W  794  19.710  23.036   2.180
34254W        W  795  39.355  14.397   1.895
34255W        W  796  43.957  14.631  14.324
34256W        W  797  15.194  26.642   3.131
34257W        W  798  21.385   3.404  13.667
34258W        W  799   2.445  36.461   4.159
34259W        W  800  37.795  29.957  13.124
34260W        W  801  18.124  44.965  14.926
34261W        W  802  18.494   0.008   4.049
34262W        W  803  15.683   9.833   2.433
34263W        W  804  44.961  12.284   4.331
34264W        W  805  33.072  13.107   2.266
34265W        W  806  12.495  38.088   3.642
34266W        W  807   6.386   9.621  12.481
34267W        W  808   7.772  39.996   1.262
34268W        W  809  32.529   9.181   0.325
34269W        W  810  19.567  20.623   3.794
34270W        W  811  20.569  15.660   3.564
34271W        W  812  30.180  39.920   1.526
34272W        W  813  40.506   0.502   4.834
34273W        W  814  33.836  44.520   0.001
34274W        W  815  31.396  20.464   3.894
34275W        W  816   7.899  33.426  13.901
34276W        W  817  25.755   2.911  10.946
34277W        W  818  29.153   3.222   3.185
34278W        W  819  34.021  14.265   3.316
34279W        W  820  29.405   5.180   3.060
34280W        W  821  33.174   6.135  14.779
34281W        W  822  32.658  33.560  12.172
34282W        W  823  34.993  34.295   2.253
34283W        W  824  36.070  40.338  10.374
34284W        W  825  32.878  35.917  11.465
34285W        W  826  20.861  43.756  14.924
34286W        W  827  25.663  26.499   4.957
34287W        W  828   4.738   6.157  13.871
34288W        W  829  14.845  24.701  12.040
34289W        W  830  33.591  23.042  11.622
34290W        W  831  41.151   5.750  11.881
34291W        W  832   0.281  30.299  13.573
34292W        W  833  20.015  31.767  10.371
34293W        W  834  33.890  27.514  14.837
34294W        W  835  40.801  44.472  11.645
34295W        W  836  28.045  20.072  11.936
34296W        W  837  19.515  24.586   0.408
34297W        W  838  39.499  42.261  13.477
34298W        W  839  27.585  29.172  14.344
34299W        W  840  42.030   7.032   1.011
34300W        W  841  43.192  10.231   2.662
34301W        W  842  17.830   3.291   1.143
34302W        W  843  15.730  28.499   1.330
34303W        W  844  41.366  20.224   0.015
34304W        W  845  35.005   6.351  11.448
34305W        W  846  25.509  35.687  13.512
34306W        W  847  38.874  33.182   0.906
34307W        W  848  23.869   2.622   2.772
34308W        W  849  31.548  18.122   0.091
34309W        W  850  40.013  15.110  12.472
34310W        W  851  34.576  19.806   2.547
34311W        W  852  42.974  13.688  11.530
34312W        W  853  41.609  36.450  12.923
34313W        W  854   5.733  35.978   1.818
34314W        W  855  28.396   2.687  14.372
34315W        W  856  10.830  39.116   0.119
34316W        W  857  13.484  43.787  11.980
34317W        W  858  15.021  24.905   3.481
34318W        W  859  37.885  44.562   2.400
34319W        W  860  27.718  44.934   3.204
34320W        W  861  30.727  39.812  11.168
34321W        W  862   4.660  15.024   3.900
34322W        W  863   0.407  15.758  14.829
34323W        W  864  39.839  33.198  12.434
34324W        W  865  17.522  43.754  14.354
34325W        W  866   6.691  11.172  12.432
34326W        W  867   5.344  22.198   0.773
34327W        W  868   3.006  13.395   3.510
34328W        W  869  30.458  37.158  10.930
34329W        W  870  20.747  16.039   2.379
34330W        W  871  39.566  25.956   1.369
34331W        W  872  40.064  39.744   3.713
34332W        W  873  10.851  27.677   1.410
34333W        W  874  31.380   3.407  12.911
34334W        W  875  37.581   0.288  11.377
34335W        W  876  13.722  35.797  12.041
34336W        W  877   7.170   8.765  14.226
34337W        W  878  18.099  22.711   2.500
34338W        W  879  17.530   2.089   1.822
34339W        W  880  10.146  11.621  11.464
34340W        W  881  22.651  12.126  12.952
34341W        W  882  26.789   9.711   3.166
34342W        W  883  41.015  15.063   4.710
34343W        W  884  39.842  36.746  12.457
34344W        W  885  37.978  10.368   1.471
34345W        W  886  17.336  26.518   1.325
34346W        W  887  44.613  17.227  11.817
34347W        W  888  39.851  40.590   0.325
34348W        W  889   8.733   2.986  14.260
34349W        W  890  38.494  16.698   4.103
34350W        W  891   3.134  27.271   1.374
34351W        W  892  35.347  39.987  12.602
34352W        W  893  25.915  16.351  14.110
34353W        W  894  37.434  16.312   0.424
34354W        W  895   2.745  42.068   3.281
34355W        W  896  23.877  41.790   4.385
34356W        W  897   7.670   9.970  12.057
34357W        W  898  12.368  41.602  13.588
34358W        W  899  39.630  24.308   0.898
34359W        W  900  16.564   2.284  10.454
34360W        W  901  29.161   3.274  12.482
34361W        W  902  17.957   2.254  12.383
34362W        W  903  44.904  29.533  13.290
34363W        W  904   5.627  31.536  12.382
34364W        W  905   3.494  11.174   3.131
34365W        W  906  30.590  20.114   4.853
34366W        W  907  40.277  10.892   4.670
34367W        W  908  18.103  32.346   1.157
34368W        W  909  23.441  34.065  11.086
34369W        W  910  34.951  35.941  11.587
34370W        W  911  30.100  39.265   4.704
34371W        W  912  41.962   3.250   1.293
34372W        W  913   2.275  39.493  12.545
34373W        W  914  39.361  34.086   2.644
34374W        W  915  31.179  41.499   3.535
34375W        W  916  25.596  15.785   4.061
34376W        W  917   0.394   4.891  14.452
34377W        W  918  22.718  19.142   4.704
34378W        W  919   3.833  43.994  13.944
34379W        W  920  32.592  22.592   1.469
34380W        W  921   5.126   2.804  11.874
34381W        W  922   8.530  34.179   1.809
34382W        W  923  22.563   2.926  11.308
34383W        W  924  28.899  38.264  12.116
34384W        W  925   4.171  39.404  12.495
34385W        W  926  23.288  31.092  14.372
34386W        W  927  29.690  30.828   4.773
34387W        W  928   0.726  11.254  14.610
34388W        W  929  33.540  36.072   0.258
34389W        W  930  33.805  10.191  11.156
34390W        W  931  39.111  39.766  11.998
34391W        W  932  24.261  25.747   4.350
34392W        W  933   0.674  27.842   2.858
34393W        W  934  21.166  18.804   3.260
34394W        W  935  38.307  43.345   2.908
34395W        W  936  30.286  32.431   3.830
34396W        W  937  20.093  42.438  13.016
34397W        W  938  31.890  30.116  11.143
34398W        W  939  42.573  24.791   0.784
34399W        W  940  12.408  26.091  13.855
34400W        W  941  13.790  11.786   1.417
34401W        W  942  41.578  35.916   1.938
34402W        W  943   0.353  28.754  14.428
34403W        W  944  24.108  10.457  12.067
34404W        W  945   5.341   9.535  13.341
34405W        W  946   0.539   3.323   2.094
34406W        W  947  33.336  16.067  10.555
34407W        W  948  10.577  19.275  12.101
34408W        W  949  30.198  17.983  11.812
34409W        W  950  26.022  17.821  11.481
34410W        W  951   5.126  21.420   3.635
34411W        W  952  34.881  17.545   0.402
34412W        W  953  11.594  36.143  10.779
34413W        W  954  17.882  16.743  11.883
34414W        W  955  14.273  24.487   1.769
34415W        W  956  11.664  35.840  12.526
34416W        W  957  17.541  18.248   1.368
34417W        W  958  15.370  25.153   0.165
34418W        W  959  18.719  13.309  12.805
34419W        W  960  12.856  15.542  11.210
34420W        W  961   5.185  14.185   4.077
34421W        W  962  33.623  12.883  14.457
34422W        W  963  42.562  36.002   2.816
34423W        W  964   7.359  40.716   2.867
34424W        W  965  18.861  19.265   4.529
34425W        W  966  11.353  28.468  14.500
34426W        W  967  44.766  31.879  13.851
34427W        W  968  10.764  42.079   0.855
34428W        W  969  11.642  18.923   3.243
34429W        W  970  18.703  31.566   0.681
34430W        W  971   7.451  24.365  12.441
34431W        W  972  31.566  37.257   0.386
34432W        W  973  25.328  35.562   1.347
34433W        W  974  10.590  28.061   1.657
34434W        W  975  29.120   8.404  10.874
34435W        W  976  35.400  44.514  10.860
34436W        W  977   7.792  18.589   4.418
34437W        W  978  24.244  41.970  10.977
34438W        W  979  42.313  24.039   4.665
34439W        W  980   6.924  12.779  10.726
34440W        W  981  31.072   7.896  13.890
34441W        W  982  22.044  39.497   0.899
34442W        W  983   2.744  39.857  12.596
34443W        W  984  12.059   7.618   3.123
34444W        W  985  44.388  27.925  13.307
34445W        W  986  20.177  30.537   2.475
34446W        W  987  34.504  36.112   1.309
34447W        W  988  10.851  18.813  14.385
34448W        W  989  43.414  43.352   4.478
34449W        W  990  19.755  11.836   3.705
34450W        W  991  17.701  34.546  12.067
34451W        W  992  17.370   6.288   1.740
34452W        W  993  41.470  20.897  10.469
34453W        W  994  12.157  34.662   0.839
34454W        W  995   8.834   9.656   1.828
34455W        W  996  44.266  28.952  14.445
34456W        W  997  41.302  42.723  12.060
34457W        W  998  31.682  17.638  14.827
34458W        W  999  23.761   7.836   2.702
34459W        W 1000   0.438  20.078  13.380
34460W        W 1001  39.368  16.973  11.496
34461W        W 1002  21.999  44.470   0.314
34462W        W 1003  41.040  22.526  11.062
34463W        W 1004  10.801   8.723   2.446
34464W        W 1005  32.826  32.637   3.786
34465W        W 1006  44.153  24.229  12.485
34466W        W 1007  15.870  26.913  14.480
34467W        W 1008  20.593   6.158   5.405
34468W        W 1009   5.191  11.703  12.616
34469W        W 1010  15.306  37.786   3.711
34470W        W 1011  19.636   6.702  11.100
34471W        W 1012  34.123  24.071   4.742
34472W        W 1013   0.092  40.989   1.824
34473W        W 1014  11.330  16.483   1.811
34474W        W 1015  36.409  34.826   4.782
34475W        W 1016  19.740   5.962   0.666
34476W        W 1017  38.861  28.394  13.072
34477W        W 1018  14.659  41.116  12.827
34478W        W 1019   1.055  44.002   2.838
34479W        W 1020   0.186   5.266  13.459
34480W        W 1021  20.073  33.465  11.432
34481W        W 1022   6.947   3.642   0.522
34482W        W 1023  39.796   0.608   2.698
34483W        W 1024  35.294  32.787   2.785
34484W        W 1025  24.801  35.912   4.256
34485W        W 1026  40.549   4.589   1.178
34486W        W 1027  23.982  36.672  11.546
34487W        W 1028  37.842   6.088  12.659
34488W        W 1029   8.209  36.062  13.979
34489W        W 1030  38.548   4.571  13.997
34490W        W 1031  39.244  39.826  12.563
34491W        W 1032   7.580  15.833   1.413
34492W        W 1033  25.214  30.988  14.796
34493W        W 1034   2.375  42.842  13.796
34494W        W 1035  30.836  41.401  11.563
34495W        W 1036  43.922  17.738  14.807
34496W        W 1037  12.793  18.205   1.715
34497W        W 1038   1.805  27.197  14.907
34498W        W 1039  17.576  41.452  10.285
34499W        W 1040  40.503  24.954   3.288
34500W        W 1041  40.930  41.341   2.352
34501W        W 1042  38.102  20.004   2.583
34502W        W 1043  43.446  31.068  11.219
34503W        W 1044  11.573  22.816  11.733
34504W        W 1045  10.798  29.571  12.894
34505W        W 1046  15.940   0.316  13.300
34506W        W 1047  14.767   6.885  12.537
34507W        W 1048   4.325  19.999   1.439
34508W        W 1049  34.629   1.903   0.823
34509W        W 1050   8.816  44.674   2.384
34510W        W 1051  17.134  43.418   1.646
34511W        W 1052  25.783  28.834  11.739
34512W        W 1053  39.222  44.747  12.856
34513W        W 1054   5.936  11.232  11.796
34514W        W 1055  28.592  37.760  11.517
34515W        W 1056  30.282  44.752  14.495
34516W        W 1057  38.329  31.052   0.220
34517W        W 1058  35.713  35.479  10.695
34518W        W 1059  36.001  10.858   2.154
34519W        W 1060  26.506   4.250  13.564
34520W        W 1061  14.646   9.971   0.311
34521W        W 1062  27.736  12.804   2.506
34522W        W 1063  22.743   0.309  14.488
34523W        W 1064   7.460   6.720   1.457
34524W        W 1065  32.142  35.944   3.261
34525W        W 1066  43.728   5.234   0.013
34526W        W 1067  36.355   2.567   3.973
34527W        W 1068  18.034  44.239   1.301
34528W        W 1069   1.825  40.215   4.163
34529W        W 1070  14.948   4.200  12.495
34530W        W 1071  14.339  23.079   0.718
34531W        W 1072  33.526  37.175   3.245
34532W        W 1073  10.032  10.026   9.918
34533W        W 1074  42.310  28.504  12.033
34534W        W 1075   7.423  11.240  14.381
34535W        W 1076   4.987   4.369   0.744
34536W        W 1077  39.026   4.823  14.030
34537W        W 1078  36.303   7.251   0.622
34538W        W 1079  21.736  17.084  13.308
34539W        W 1080   3.340  17.348   1.649
34540W        W 1081  41.999  42.821  12.524
34541W        W 1082  17.034   2.952   4.342
34542W        W 1083  12.990  21.307  12.896
34543W        W 1084  14.204  14.287  12.163
34544W        W 1085  10.903  11.631   2.827
34545W        W 1086  43.776  18.058   4.712
34546W        W 1087  39.834  33.870   1.751
34547W        W 1088  43.965   1.204   1.315
34548W        W 1089  31.578  28.043  14.504
34549W        W 1090  25.430  19.621   0.856
34550W        W 1091  28.500  20.383  12.973
34551W        W 1092  40.485  41.823  12.465
34552W        W 1093  29.634   4.420  14.314
34553W        W 1094  13.086  10.893  11.723
34554W        W 1095  31.968  10.344  12.643
34555W        W 1096  31.132  38.103   2.834
34556W        W 1097  29.144  15.362   1.229
34557W        W 1098   1.394  17.826  11.521
34558W        W 1099  23.259  36.455  12.274
34559W        W 1100  36.164  26.660  10.951
34560W        W 1101  29.514  21.423  13.976
34561W        W 1102  41.805  16.984   2.816
34562W        W 1103   6.929  27.011   4.201
34563W        W 1104  16.112  17.468  10.038
34564W        W 1105  38.226  43.780  14.977
34565W        W 1106  18.044  41.833   2.298
34566W        W 1107  17.072  38.213  10.637
34567W        W 1108  33.000   3.537  12.568
34568W        W 1109  41.008  34.647   0.417
34569W        W 1110   6.255  15.803   1.933
34570W        W 1111  13.550   6.994  11.500
34571W        W 1112  24.550  25.104  10.991
34572W        W 1113   3.402  13.103   4.280
34573W        W 1114  27.176   9.698   2.275
34574W        W 1115   9.308  29.240  10.346
34575W        W 1116  40.012  43.837  13.021
34576W        W 1117  28.460  37.937  11.986
34577W        W 1118  30.854  25.761  14.285
34578W        W 1119  38.077  33.701   0.523
34579W        W 1120  14.858   5.241  11.468
34580W        W 1121  21.823   6.626   0.707
34581W        W 1122  12.433  39.992  12.583
34582W        W 1123   4.912  22.781   3.587
34583W        W 1124  21.600  25.836   1.334
34584W        W 1125  25.296  26.079  13.797
34585W        W 1126   6.727  14.899   1.313
34586W        W 1127   2.381  20.450  11.653
34587W        W 1128   6.796   3.211  12.499
34588W        W 1129  39.344  35.617   0.930
34589W        W 1130  33.907   6.083  10.025
34590W        W 1131  32.929  43.509  13.814
34591W        W 1132  29.166   6.066  14.859
34592W        W 1133  37.997   0.821   2.935
34593W        W 1134  30.357  18.498   3.230
34594W        W 1135  44.479  20.824  10.692
34595W        W 1136   1.458  19.833  13.441
34596W        W 1137  30.217  34.451   2.826
34597W        W 1138   6.233   2.729  12.776
34598W        W 1139  24.169  16.122  14.774
34599W        W 1140  43.172   2.538  13.310
34600W        W 1141  17.277  28.027  11.001
34601W        W 1142  23.691  21.727   2.728
34602W        W 1143  39.420   7.936   1.367
34603W        W 1144  41.895  31.545   3.583
34604W        W 1145   7.844   9.874   2.247
34605W        W 1146  21.811  23.714  12.629
34606W        W 1147  29.967  42.262   4.191
34607W        W 1148  37.018  15.014   0.889
34608W        W 1149  27.789   6.212   3.730
34609W        W 1150  30.823  14.093   0.393
34610W        W 1151  34.841  13.870  10.288
34611W        W 1152   3.545  29.986   1.723
34612W        W 1153  42.956  24.696   3.305
34613W        W 1154  19.372  28.089  13.998
34614W        W 1155  29.682  29.005   4.322
34615W        W 1156   9.338  17.763   0.448
34616W        W 1157  39.606  18.444  13.576
34617W        W 1158   2.445   7.185   3.082
34618W        W 1159  14.517  17.604   4.065
34619W        W 1160  42.387   7.212   4.548
34620W        W 1161  33.497  36.832  10.999
34621W        W 1162   7.191  23.700   1.791
34622W        W 1163  25.034   3.721   3.844
34623W        W 1164  27.390  24.019   2.161
34624W        W 1165  26.014  30.982  14.148
34625W        W 1166   8.760  12.729   1.230
34626W        W 1167  11.800  44.896  12.919
34627W        W 1168  43.398  40.603   2.210
34628W        W 1169  24.397  38.418  11.512
34629W        W 1170  40.448  25.101   2.616
34630W        W 1171   1.830  14.239   2.610
34631W        W 1172  25.749  14.264   2.124
34632W        W 1173  32.627  18.045  11.862
34633W        W 1174  34.243  40.023   2.837
34634W        W 1175  26.108  25.787  10.751
34635W        W 1176   6.752   5.216   3.910
34636W        W 1177  18.593  32.673   3.354
34637W        W 1178   0.682  25.949  11.998
34638W        W 1179  15.347   2.904  10.784
34639W        W 1180   7.154  28.546   4.031
34640W        W 1181  13.120  41.836   3.637
34641W        W 1182  27.412  16.210   4.731
34642W        W 1183  36.980  21.757   1.899
34643W        W 1184  25.472  14.230   4.156
34644W        W 1185   1.860  15.262  10.745
34645W        W 1186  41.285  12.326  13.051
34646W        W 1187  24.596   5.929  12.775
34647W        W 1188  26.479  29.374  12.915
34648W        W 1189  19.410  40.088  11.991
34649W        W 1190  22.997  37.921   2.902
34650W        W 1191  27.638  13.157   3.636
34651W        W 1192  38.025  43.307   3.847
34652W        W 1193   4.656  23.659  12.849
34653W        W 1194  11.073   7.304   0.930
34654W        W 1195  23.565  44.071  14.151
34655W        W 1196  36.376  27.539  14.909
34656W        W 1197  19.557  14.759  13.397
34657W        W 1198  33.954  43.477   2.652
34658W        W 1199  37.643  17.675  14.456
34659W        W 1200   1.422  15.070   3.996
34660W        W 1201  14.738  39.424   3.726
34661W        W 1202  21.980   8.872   2.499
34662W        W 1203  20.543  21.618   3.916
34663W        W 1204  36.615  40.342  11.009
34664W        W 1205   1.966  43.350   3.923
34665W        W 1206  35.825  31.621  14.318
34666W        W 1207  43.875  15.725  10.552
34667W        W 1208  34.354   2.854   1.844
34668W        W 1209  25.139  25.077   0.308
34669W        W 1210   8.840   5.960   4.639
34670W        W 1211  16.110  13.127   0.149
34671W        W 1212   5.408  40.967   3.681
34672W        W 1213   7.335   4.428   3.799
34673W        W 1214  23.075  34.521   3.419
34674W        W 1215  36.476   2.271  14.874
34675W        W 1216  20.763  20.776   2.884
34676W        W 1217  22.033  30.351  13.390
34677W        W 1218  38.935  15.775   3.656
34678W        W 1219  30.845   9.174   4.091
34679W        W 1220  31.827  16.850  13.073
34680W        W 1221  35.499   3.034  14.375
34681W        W 1222  14.663  12.296   0.768
34682W        W 1223  15.920  36.530  11.531
34683W        W 1224   3.700  20.366  14.161
34684W        W 1225   4.602  20.690  13.955
34685W        W 1226  23.480   6.257  11.600
34686W        W 1227  19.831  39.492  14.903
34687W        W 1228  15.301  31.084   1.364
34688W        W 1229  26.909  38.830  12.418
34689W        W 1230   3.279  36.467   1.403
34690W        W 1231  12.740  27.706  13.053
34691W        W 1232  18.848  27.504   1.256
34692W        W 1233  31.087   4.942  10.813
34693W        W 1234   5.425  42.264   3.694
34694W        W 1235  39.711  16.161   4.126
34695W        W 1236  21.295   4.411   3.545
34696W        W 1237   6.751  31.614   2.839
34697W        W 1238   1.475  12.255   4.287
34698W        W 1239   4.077  42.697  10.698
34699W        W 1240   4.458  29.338  13.379
34700W        W 1241  44.442  24.254   4.423
34701W        W 1242   3.291  31.179  14.449
34702W        W 1243   1.518  44.781   0.269
34703W        W 1244  24.687   3.175   0.950
34704W        W 1245   5.449  43.413   4.490
34705W        W 1246   2.712   0.417   0.437
34706W        W 1247  33.840  19.573   3.622
34707W        W 1248  18.300  38.362  11.640
34708W        W 1249  20.796  14.135  14.562
34709W        W 1250  44.742  13.294  11.123
34710W        W 1251  23.790  19.111  13.976
34711W        W 1252  17.269  42.772   9.840
34712W        W 1253  14.527  31.118  12.018
34713W        W 1254  30.668  23.603   4.701
34714W        W 1255  42.354  23.318  12.433
34715W        W 1256  18.540  12.294  10.575
34716W        W 1257  26.074  21.950  12.081
34717W        W 1258  28.432  19.222  13.537
34718W        W 1259  38.817   9.029   1.896
34719W        W 1260  36.848  43.881  11.995
34720W        W 1261   5.623  17.804   4.455
34721W        W 1262   1.854  13.291   1.666
34722W        W 1263  32.926  23.212   4.865
34723W        W 1264  29.359   2.924  11.648
34724W        W 1265  31.704  20.136   3.106
34725W        W 1266  43.484  23.561   2.869
34726W        W 1267  15.530  38.067  13.239
34727W        W 1268  24.047  29.145   1.741
34728W        W 1269  25.461  28.017  14.970
34729W        W 1270   2.365  43.447   3.618
34730W        W 1271  26.000  44.683   3.601
34731W        W 1272   7.756  36.790   2.531
34732W        W 1273  12.106  10.208  11.155
34733W        W 1274  11.268  42.003  14.550
34734W        W 1275  27.953  41.338   4.560
34735W        W 1276  36.526   4.213   0.674
34736W        W 1277  30.205  28.472  14.537
34737W        W 1278  26.104  29.373   1.307
34738W        W 1279  34.980   1.064   2.764
34739W        W 1280   6.879  32.639  11.437
34740W        W 1281  39.452   0.516   1.385
34741W        W 1282  18.298  32.984   4.508
34742W        W 1283  29.099  43.345   2.868
34743W        W 1284   1.534  34.784   3.249
34744W        W 1285   8.162  12.248  10.668
34745W        W 1286  21.591  12.195   2.154
34746W        W 1287  29.040  18.548   4.371
34747W        W 1288  44.749   6.274  12.994
34748W        W 1289  21.695  27.001   3.114
34749W        W 1290  35.437  25.060  12.682
34750W        W 1291   3.024  18.221   3.186
34751W        W 1292   2.289  38.386   1.143
34752W        W 1293  44.474  36.366   4.271
34753W        W 1294  23.969  30.157  14.116
34754W        W 1295  40.586  17.200   1.398
34755W        W 1296  21.976  23.957   0.880
34756W        W 1297  11.241  36.285   3.744
34757W        W 1298   3.779  13.291   4.674
34758W        W 1299   5.442  43.901   2.874
34759W        W 1300  36.637  30.042  13.909
34760W        W 1301  14.828  30.650   3.603
34761W        W 1302  16.065  26.336   2.737
34762W        W 1303  10.934  19.106   0.566
34763W        W 1304   6.230  29.454  11.581
34764W        W 1305  25.553   5.379   2.317
34765W        W 1306  34.456  19.541  12.514
34766W        W 1307   9.793  33.128   0.701
34767W        W 1308  11.664   8.612   0.487
34768W        W 1309   8.759  41.867   4.719
34769W        W 1310  40.821  35.482  11.686
34770W        W 1311  37.436  20.397   4.082
34771W        W 1312  15.500  28.435  13.962
34772W        W 1313  29.029  37.868   1.158
34773W        W 1314  31.159  13.013   4.111
34774W        W 1315  27.601  19.016  11.637
34775W        W 1316  41.779  32.099  14.444
34776W        W 1317  40.938  40.468  13.815
34777W        W 1318  28.963  24.003   1.398
34778W        W 1319  37.488  18.660  14.700
34779W        W 1320  39.489  23.801   3.220
34780W        W 1321  23.501   3.700   3.160
34781W        W 1322  35.869  38.005   2.201
34782W        W 1323  41.524  21.090  12.436
34783W        W 1324  31.601  28.935   4.133
34784W        W 1325  32.075  39.994  12.529
34785W        W 1326  24.021  19.632  14.210
34786W        W 1327  35.008  14.387  14.370
34787W        W 1328  12.807  38.849  10.510
34788W        W 1329  40.815  44.734   4.417
34789W        W 1330  38.417  14.160   1.899
34790W        W 1331  19.099   5.812  13.049
34791W        W 1332  10.832   9.959   2.399
34792W        W 1333   8.336  12.092  11.118
34793W        W 1334  23.617  28.195   2.864
34794W        W 1335   3.327  27.688   1.137
34795W        W 1336   7.826  26.042   9.881
34796W        W 1337  37.014   0.205  11.657
34797W        W 1338  23.102   2.733   1.907
34798W        W 1339   8.614  14.310   3.047
34799W        W 1340   8.353  33.675  12.971
34800W        W 1341   8.358  31.205   0.339
34801W        W 1342   3.387  17.529   2.374
34802W        W 1343   9.593  44.468  14.956
34803W        W 1344  30.495  34.576  14.319
34804W        W 1345  10.394  22.594   1.319
34805W        W 1346  28.409   2.985  14.844
34806W        W 1347  16.873  34.060  13.155
34807W        W 1348  42.564   9.766  11.165
34808W        W 1349  42.363  33.310  11.674
34809W        W 1350  37.027  37.475   0.938
34810W        W 1351   4.460   1.381   3.550
34811W        W 1352  19.044  30.435  13.349
34812W        W 1353  25.095  26.733   2.313
34813W        W 1354   4.126  25.322   4.120
34814W        W 1355  32.944  31.928   1.839
34815W        W 1356  40.829  35.480   4.750
34816W        W 1357  18.985  15.895  11.963
34817W        W 1358   9.878   9.840  12.612
34818W        W 1359  32.009  22.307   0.499
34819W        W 1360  12.912  20.064  12.408
34820W        W 1361  44.127  18.674   4.311
34821W        W 1362  23.124  40.108  13.396
34822W        W 1363  39.901  16.790   0.955
34823W        W 1364   0.241  37.552  13.272
34824W        W 1365  11.702  26.667   2.289
34825W        W 1366  20.666  38.382   1.897
34826W        W 1367   1.363   5.740  12.698
34827W        W 1368  39.419  24.001   0.534
34828W        W 1369  32.192   5.028   4.163
34829W        W 1370  13.299  43.194  10.445
34830W        W 1371  13.114  26.744  13.074
34831W        W 1372  37.907   2.804   2.921
34832W        W 1373  32.096  20.978   2.291
34833W        W 1374  43.153  13.831   2.913
34834W        W 1375  20.090   9.678  12.033
34835W        W 1376  32.935  29.507   0.549
34836W        W 1377  17.740   5.686  12.964
34837W        W 1378  11.121   4.525   2.904
34838W        W 1379   0.599  23.323  12.900
34839W        W 1380  10.708  26.436   1.755
34840W        W 1381  34.012  35.983   1.173
34841W        W 1382  27.004   4.198  13.696
34842W        W 1383  28.887  12.987  12.448
34843W        W 1384  34.997  37.487   4.691
34844W        W 1385  23.208  10.290   1.460
34845W        W 1386  23.149   4.116   2.357
34846W        W 1387  20.074  26.189   1.847
34847W        W 1388  15.957   7.471   0.156
34848W        W 1389  24.208  17.781  11.639
34849W        W 1390  27.518   8.897   1.663
34850W        W 1391  20.646  36.082   0.363
34851W        W 1392  39.900   9.769   3.136
34852W        W 1393   2.970  40.606   1.485
34853W        W 1394   4.437  20.593   3.399
34854W        W 1395  18.174  15.665   0.927
34855W        W 1396   5.575  43.939  12.534
34856W        W 1397  38.843  12.658   0.809
34857W        W 1398   9.201  31.114  13.907
34858W        W 1399  29.595  27.090  11.425
34859W        W 1400  38.980   5.610  13.478
34860W        W 1401  23.430   2.953  10.433
34861W        W 1402  34.432  34.179  14.017
34862W        W 1403  26.552  26.974   0.717
34863W        W 1404  10.286  27.413  12.987
34864W        W 1405  32.952  38.308   0.472
34865W        W 1406  33.330  22.617  14.848
34866W        W 1407   7.840  43.196  14.931
34867W        W 1408  40.062  27.412   4.175
34868W        W 1409  14.543  29.705   3.855
34869W        W 1410  36.807  16.762   1.614
34870W        W 1411  36.530   2.434  12.504
34871W        W 1412  24.544  19.547   4.149
34872W        W 1413  42.456  39.570  12.993
34873W        W 1414  19.774  40.498   0.901
34874W        W 1415  25.988  14.829  14.777
34875W        W 1416  17.639  19.670   0.713
34876W        W 1417   7.227   7.707  13.073
34877W        W 1418  14.867  27.121  11.848
34878W        W 1419  14.854  41.550  13.030
34879W        W 1420   4.689  14.836   0.470
34880W        W 1421  42.826  27.700   3.213
34881W        W 1422  23.243   0.949   3.529
34882W        W 1423  17.852  41.013   3.505
34883W        W 1424  13.342  10.102  11.522
34884W        W 1425  44.008  34.859   2.323
34885W        W 1426  20.076  40.418  12.857
34886W        W 1427  39.021  37.116   1.477
34887W        W 1428  35.879   1.715  14.449
34888W        W 1429  42.930  42.807  10.730
34889W        W 1430  27.604  11.869  11.875
34890W        W 1431  39.452  32.652  12.897
34891W        W 1432   6.800  41.394   0.993
34892W        W 1433  34.773  29.613   1.196
34893W        W 1434   6.387  19.246  13.284
34894W        W 1435  31.912  38.926  11.653
34895W        W 1436  17.896  43.997  11.994
34896W        W 1437  19.165  23.157  11.600
34897W        W 1438  25.258  40.396   4.505
34898W        W 1439   8.841  33.867  14.046
34899W        W 1440  35.531  20.270  14.065
34900W        W 1441  21.607   8.252  14.402
34901W        W 1442   6.688   3.509  13.012
34902W        W 1443   3.158  29.663  14.761
34903W        W 1444  23.791  22.016   3.590
34904W        W 1445  43.894  40.497  11.608
34905W        W 1446   0.563   1.096  14.548
34906W        W 1447  44.274  21.707   4.070
34907W        W 1448  38.807   7.865   0.782
34908W        W 1449   0.335  29.850   1.862
34909W        W 1450  28.209  27.431  11.186
34910W        W 1451  22.447  11.562   1.271
34911W        W 1452  44.588  11.632  12.014
34912W        W 1453   5.807  28.963   0.328
34913W        W 1454   8.443   7.747   4.520
34914W        W 1455  16.321  30.150   2.366
34915W        W 1456  19.803   5.288  13.001
34916W        W 1457  31.415  34.465   2.398
34917W        W 1458  34.317  17.347   2.505
34918W        W 1459  24.980  21.557  11.461
34919W        W 1460  29.393  30.406  12.926
34920W        W 1461  39.596  13.964  12.133
34921W        W 1462  22.593  29.526   0.429
34922W        W 1463  31.405  42.845   0.494
34923W        W 1464  38.279  12.457  13.267
34924W        W 1465   3.443  37.269   4.488
34925W        W 1466  23.159  22.746   2.286
34926W        W 1467  32.877  10.043   2.725
34927W        W 1468  24.267  35.761  12.699
34928W        W 1469  15.378   7.442  11.894
34929W        W 1470   8.402   7.782   3.610
34930W        W 1471  23.991   7.680  14.232
34931W        W 1472  34.371  37.432   0.789
34932W        W 1473  24.254   5.168   0.300
34933W        W 1474  33.612   6.256   1.808
34934W        W 1475   1.474  32.876   4.271
34935W        W 1476   0.435  17.058  12.828
34936W        W 1477   1.754   7.384  12.851
34937W        W 1478  27.187  38.923  13.407
34938W        W 1479  36.100  24.523   0.264
34939W        W 1480  23.626   6.687   0.222
34940W        W 1481  16.685  37.379   0.441
34941W        W 1482   0.948  14.799  12.662
34942W        W 1483   3.362  11.607   4.304
34943W        W 1484   8.467   3.144  14.682
34944W        W 1485  23.722  22.482  13.017
34945W        W 1486  12.167  27.414   2.415
34946W        W 1487  12.797  30.517   5.475
34947W        W 1488  32.571  31.067   3.121
34948W        W 1489  15.763  24.722  12.074
34949W        W 1490  37.482  29.717   2.588
34950W        W 1491  22.095  29.277   0.308
34951W        W 1492   3.313  43.839  14.949
34952W        W 1493  23.450  33.496  13.497
34953W        W 1494  41.494  18.285   2.787
34954W        W 1495  11.792  36.573  14.237
34955W        W 1496   9.165  24.668   1.989
34956W        W 1497  18.288  36.809   3.638
34957W        W 1498   2.172  23.776  13.098
34958W        W 1499  32.558  34.044   0.395
34959W        W 1500  10.370  14.125   0.063
34960W        W 1501  26.134  33.793   2.657
34961W        W 1502  24.471   3.431   4.512
34962W        W 1503  28.514   2.837  10.687
34963W        W 1504   4.912  40.854  12.049
34964W        W 1505  19.450  33.638  14.919
34965W        W 1506  43.019  11.774  11.972
34966W        W 1507  43.278  35.199  12.095
34967W        W 1508   2.908  26.997   1.832
34968W        W 1509   3.579   2.232   3.223
34969W        W 1510   2.975   4.466   3.738
34970W        W 1511  42.305   3.799   3.942
34971W        W 1512  38.322  44.458  10.629
34972W        W 1513  10.149  15.187  11.190
34973W        W 1514  44.842  12.079  12.026
34974W        W 1515   3.460  29.892  11.151
34975W        W 1516  26.826  10.797   3.638
34976W        W 1517  37.020  42.980  11.998
34977W        W 1518  43.046  21.028   1.895
34978W        W 1519  15.139  22.994   3.292
34979W        W 1520   1.409  16.917  11.969
34980W        W 1521   6.427  14.251   3.586
34981W        W 1522  14.222  28.920  11.179
34982W        W 1523  42.979  40.903   0.384
34983W        W 1524  11.825   2.875   3.929
34984W        W 1525  26.351  37.955   0.639
34985W        W 1526  12.174  41.357   4.710
34986W        W 1527  44.164   5.346  13.297
34987W        W 1528   5.253  28.228   3.706
34988W        W 1529  41.488  19.273   0.248
34989W        W 1530   1.518  31.612  13.597
34990W        W 1531  22.837  42.412  14.857
34991W        W 1532   8.128  34.939  11.453
34992W        W 1533  14.357  27.577   4.887
34993W        W 1534  19.292  17.733   1.715
34994W        W 1535  24.058  26.578   0.725
34995W        W 1536   1.139   1.930  13.981
34996W        W 1537  19.095  14.317   1.165
34997W        W 1538  23.439  34.532   2.672
34998W        W 1539  13.592  39.331   3.971
34999W        W 1540  41.975  16.435  11.999
35000W        W 1541  42.630  32.201   1.782
35001W        W 1542   8.335  37.060   4.564
35002W        W 1543  29.552   9.885   1.881
35003W        W 1544  24.006   2.277  14.589
35004W        W 1545  26.698  35.098   0.760
35005W        W 1546  29.972  32.128  13.907
35006W        W 1547   8.288   5.003  14.802
35007W        W 1548   8.844  29.212  10.662
35008W        W 1549  34.959   7.771  13.525
35009W        W 1550  14.069  41.088   2.411
35010W        W 1551  41.144   8.816   4.280
35011W        W 1552  26.944  41.332   2.976
35012W        W 1553  16.070  14.374  10.575
35013W        W 1554  43.460   2.847  12.431
35014W        W 1555   3.729  20.672   1.753
35015W        W 1556  42.170  33.061   2.856
35016W        W 1557  31.459  27.774  11.632
35017W        W 1558  32.078  16.879  12.200
35018W        W 1559  32.175  43.239  11.645
35019W        W 1560  25.211  29.926   3.207
35020W        W 1561  25.658  29.509  12.551
35021W        W 1562  28.811  18.912   0.749
35022W        W 1563  36.510  26.570   1.576
35023W        W 1564  21.516  13.149   3.141
35024W        W 1565  43.063  32.947  11.023
35025W        W 1566  41.295  15.755   3.897
35026W        W 1567  41.925  21.314   2.210
35027W        W 1568  29.005  43.452  11.553
35028W        W 1569  13.769  14.224   3.330
35029W        W 1570   4.000   8.471  14.562
35030W        W 1571  18.607  42.276  10.555
35031W        W 1572  18.025  14.078  11.634
35032W        W 1573  24.506  14.064   4.162
35033W        W 1574  43.753  10.267   2.670
35034W        W 1575  26.194  14.539  12.361
35035W        W 1576  30.689  28.072  14.995
35036W        W 1577  24.472  13.801  11.841
35037W        W 1578  20.460  30.200  13.658
35038W        W 1579  44.533  34.080  14.830
35039W        W 1580   8.610   4.778  11.994
35040W        W 1581  36.375   3.416   2.825
35041W        W 1582  12.872  44.969   3.404
35042W        W 1583   3.315  36.010  10.867
35043W        W 1584  39.557  38.939  12.629
35044W        W 1585  23.191  15.824  13.449
35045W        W 1586  26.501  31.159  14.268
35046W        W 1587   1.412  40.543  10.534
35047W        W 1588  20.169  41.223  12.553
35048W        W 1589  12.172  14.668   0.738
35049W        W 1590  11.558  37.466  11.120
35050W        W 1591  37.147  42.956   4.259
35051W        W 1592   7.333  19.721   2.364
35052W        W 1593  26.650  36.583  14.718
35053W        W 1594  32.543  30.583   1.232
35054W        W 1595  22.721  24.954  14.930
35055W        W 1596  33.495  13.846   3.787
35056W        W 1597   9.681  23.171  14.759
35057W        W 1598   6.794  28.920   4.546
35058W        W 1599  11.785  29.478  12.474
35059W        W 1600  10.700  32.072  13.115
35060W        W 1601  38.746  28.816  12.101
35061W        W 1602  26.852  10.839   1.713
35062W        W 1603   4.193  43.805   5.526
35063W        W 1604  44.802   9.206  13.140
35064W        W 1605   5.921  24.211  14.473
35065W        W 1606  32.596  12.052  11.537
35066W        W 1607  15.520  32.546   5.354
35067W        W 1608  11.746   8.124  14.155
35068W        W 1609  13.146  23.804  13.873
35069W        W 1610   7.769   1.913  13.810
35070W        W 1611   1.074   8.326   0.310
35071W        W 1612  29.744   3.754   0.445
35072W        W 1613   0.233  15.614   2.186
35073W        W 1614  26.753   3.809  13.430
35074W        W 1615  31.631  14.611  13.463
35075W        W 1616   6.801  34.169  14.995
35076W        W 1617  11.359   9.544   0.248
35077W        W 1618   3.683  10.664  12.887
35078W        W 1619  19.217  20.305   2.909
35079W        W 1620  15.337   6.281   3.728
35080W        W 1621   5.089  27.736   2.365
35081W        W 1622  17.162  18.974  11.641
35082W        W 1623  20.016  20.394  13.565
35083W        W 1624  33.983  22.591  13.072
35084W        W 1625   6.916  24.201   5.138
35085W        W 1626  10.193  21.743  12.941
35086W        W 1627   1.273  13.256   2.885
35087W        W 1628   2.782  36.881   2.385
35088W        W 1629   8.205  24.519   0.945
35089W        W 1630  41.366  11.083  11.482
35090W        W 1631  27.716   6.340   3.235
35091W        W 1632  24.284  36.550   0.864
35092W        W 1633  38.387  33.029   2.184
35093W        W 1634   0.638   9.716  12.498
35094W        W 1635   8.366  43.510  13.824
35095W        W 1636  26.218  35.324  13.885
35096W        W 1637  37.834  31.848   2.653
35097W        W 1638  23.815  35.877   1.370
35098W        W 1639  14.023   1.122  12.699
35099W        W 1640  15.597  30.950  11.086
35100W        W 1641  15.835  24.815  11.558
35101W        W 1642  26.718  13.560  11.333
35102W        W 1643  16.659  12.998   4.906
35103W        W 1644  34.363   5.377   0.440
35104W        W 1645  11.073  44.696  12.409
35105W        W 1646  21.117  44.752   3.105
35106W        W 1647  40.461  41.782  14.345
35107W        W 1648   0.465  20.480   1.713
35108W        W 1649   5.531   4.892   3.646
35109W        W 1650  17.243  18.734  13.433
35110W        W 1651  23.052  38.887  14.892
35111W        W 1652  12.815   3.708  14.743
35112W        W 1653   4.272   9.635   0.192
35113W        W 1654  31.912  33.615   2.332
35114W        W 1655  36.941  41.920  13.931
35115W        W 1656  19.498  10.625  12.015
35116W        W 1657  20.730  39.831  12.753
35117W        W 1658   6.465  23.431  13.346
35118W        W 1659  30.916  11.794  13.396
35119W        W 1660  22.135  29.708  10.539
35120W        W 1661  25.078  22.817  12.178
35121W        W 1662  21.826  34.880   3.505
35122W        W 1663   4.276  19.738  14.387
35123W        W 1664  36.762  38.937   3.560
35124W        W 1665  19.920   6.424   5.396
35125W        W 1666  16.223  33.432   4.170
35126W        W 1667   2.275   9.419  14.455
35127W        W 1668  22.089  17.088   1.945
35128W        W 1669   1.208  23.975  11.033
35129W        W 1670  35.442   5.190  13.905
35130W        W 1671  13.590   0.923   2.062
35131W        W 1672   0.384  42.034  12.870
35132W        W 1673  41.280  30.448  11.654
35133W        W 1674  24.837  39.158  11.172
35134W        W 1675  26.179  41.320   2.248
35135W        W 1676  32.980  34.588  13.726
35136W        W 1677  31.884   9.242   4.209
35137W        W 1678  33.981  33.676   3.215
35138W        W 1679  41.962  33.525  13.016
35139W        W 1680  29.430  22.739  11.341
35140W        W 1681  14.311   4.928   4.959
35141W        W 1682  38.402  29.518   1.455
35142W        W 1683  29.214  44.826   1.819
35143W        W 1684  23.262  30.920   4.156
35144W        W 1685  23.937  38.302   3.821
35145W        W 1686  42.640  19.891   4.627
35146W        W 1687  32.926  21.733   2.831
35147W        W 1688  42.019  43.562   4.099
35148W        W 1689  16.719  19.861   3.216
35149W        W 1690   0.858   7.373  11.604
35150W        W 1691  42.495  44.058   1.402
35151W        W 1692  29.181  33.945   1.484
35152W        W 1693  24.842   6.246   4.923
35153W        W 1694  32.460  24.275   4.444
35154W        W 1695   5.917  35.374   1.915
35155W        W 1696  29.954  17.375  12.767
35156W        W 1697   3.878  18.491   3.706
35157W        W 1698  21.682  21.161   0.668
35158W        W 1699  16.212  40.049  13.455
35159W        W 1700  31.696  44.423   0.870
35160W        W 1701  15.180   5.986  11.802
35161W        W 1702   7.168   7.673  14.604
35162W        W 1703   1.492  40.514  12.522
35163W        W 1704  10.109   3.251   4.990
35164W        W 1705  39.806   3.812   2.915
35165W        W 1706  38.163  19.781  12.359
35166W        W 1707  16.927  21.933   0.304
35167W        W 1708  11.734  13.159  10.787
35168W        W 1709  41.039  11.557   2.747
35169W        W 1710  32.973   3.326   2.800
35170W        W 1711  31.476   9.488  10.310
35171W        W 1712  39.550  22.907   2.865
35172W        W 1713  11.371  22.377   3.226
35173W        W 1714   0.974  10.749   1.434
35174W        W 1715   2.484  21.520  13.951
35175W        W 1716  24.231   1.285  13.430
35176W        W 1717  15.615  28.178  13.502
35177W        W 1718  11.311  25.656   3.198
35178W        W 1719  11.174  33.862  13.413
35179W        W 1720  43.370  23.780  11.847
35180W        W 1721  11.837  22.015  12.819
35181W        W 1722   7.379  14.795  12.951
35182W        W 1723  41.081   7.264   2.356
35183W        W 1724  17.653   9.947  11.929
35184W        W 1725   4.294  36.882  12.960
35185W        W 1726  42.195  20.074  13.001
35186W        W 1727  25.982  20.809   3.337
35187W        W 1728  23.233  37.917  12.948
35188W        W 1729   7.240  34.096  10.768
35189W        W 1730  29.570  35.919  12.724
35190W        W 1731  39.914   9.090   1.424
35191W        W 1732  39.073   0.518  11.154
35192W        W 1733   0.299  33.319  11.976
35193W        W 1734  42.962   5.900  11.445
35194W        W 1735  27.531  38.997  10.314
35195W        W 1736   1.045   4.221  11.881
35196W        W 1737   5.461   5.717  12.374
35197W        W 1738  25.043  17.846  14.829
35198W        W 1739  27.564  27.495  12.023
35199W        W 1740  26.428   4.489  12.461
35200W        W 1741  23.640  40.623   2.694
35201W        W 1742  26.476  17.584   0.470
35202W        W 1743   9.154  21.291   2.422
35203W        W 1744  31.699  16.593  14.760
35204W        W 1745  18.177  10.604   4.744
35205W        W 1746  38.471  43.399   4.149
35206W        W 1747   8.621  19.158   0.933
35207W        W 1748  10.839   4.944   2.733
35208W        W 1749   5.356  31.609   3.245
35209W        W 1750  13.262  10.966  13.064
35210W        W 1751   1.820  19.578  14.787
35211W        W 1752  42.778  43.193  13.285
35212W        W 1753  36.541  39.230  14.314
35213W        W 1754   5.939  34.255   1.073
35214W        W 1755  10.579   0.672  11.020
35215W        W 1756  31.510  17.748   2.328
35216W        W 1757  20.700   3.788   2.818
35217W        W 1758  31.668  18.602   1.278
35218W        W 1759  34.931  13.316   3.168
35219W        W 1760  36.909  25.038   0.731
35220W        W 1761  29.655  28.104   1.243
35221W        W 1762  10.121  12.748   2.421
35222W        W 1763  10.374   0.827   1.381
35223W        W 1764   0.517  41.102  11.650
35224W        W 1765  34.641  20.558   3.671
35225W        W 1766  28.650  20.257   0.814
35226W        W 1767  39.765   3.781   4.349
35227W        W 1768   4.096   8.843   2.477
35228W        W 1769   2.925  44.892  13.303
35229W        W 1770  11.210  27.414  14.845
35230W        W 1771  10.353  14.336  12.429
35231W        W 1772  39.890  31.512  13.157
35232W        W 1773   7.452  23.971  14.459
35233W        W 1774  42.451  42.592   0.493
35234W        W 1775  33.157  36.183  12.437
35235W        W 1776  37.535   2.019  10.804
35236W        W 1777   6.572   7.059   1.171
35237W        W 1778   1.749  36.072   0.634
35238W        W 1779  18.683  19.742   4.473
35239W        W 1780   2.870   4.541   0.731
35240W        W 1781  16.887  17.889  11.676
35241W        W 1782  10.933  14.839   2.415
35242W        W 1783   8.246  10.518   4.668
35243W        W 1784  43.851  27.977  13.466
35244W        W 1785  37.523  30.564  10.991
35245W        W 1786   3.736  20.573  10.653
35246W        W 1787  38.108  29.154  13.057
35247W        W 1788  29.798  14.553   0.942
35248W        W 1789  30.639  24.265   4.247
35249W        W 1790  24.491  42.878  14.342
35250W        W 1791  44.736  24.731   2.934
35251W        W 1792  22.004  10.659   4.158
35252W        W 1793  36.437   7.770   3.716
35253W        W 1794  28.203   7.702   1.859
35254W        W 1795   6.814   8.421   4.828
35255W        W 1796  10.429  26.725   1.312
35256W        W 1797  22.250  27.988  12.086
35257W        W 1798   4.986  21.542  11.354
35258W        W 1799  15.715  33.024  13.019
35259W        W 1800   7.713  40.524  13.808
35260W        W 1801  31.108  32.866   3.771
35261W        W 1802   9.231  12.747  13.983
35262W        W 1803  31.498  43.336   5.214
35263W        W 1804  21.996   5.689   2.580
35264W        W 1805  19.303  38.355  13.665
35265W        W 1806  16.791  31.192  14.389
35266W        W 1807  44.032  12.558   1.511
35267W        W 1808  17.943   3.445  10.836
35268W        W 1809  41.287  27.910   2.363
35269W        W 1810  29.547  27.141  13.027
35270W        W 1811   1.530  32.063   0.364
35271W        W 1812   4.354  29.174   3.284
35272W        W 1813  41.035   8.306  11.915
35273W        W 1814  33.653  20.786  13.033
35274W        W 1815  21.629   3.826   1.987
35275W        W 1816  17.233  44.286   2.100
35276W        W 1817  24.125  22.133  11.425
35277W        W 1818   9.638   6.944  11.536
35278W        W 1819  27.936  40.576  14.941
35279W        W 1820  28.197  23.717  11.926
35280W        W 1821  27.566  26.717  11.479
35281W        W 1822  12.417  31.413   4.130
35282W        W 1823  13.458  29.949  14.102
35283W        W 1824  36.415  24.891  13.588
35284W        W 1825  25.941  20.548  12.216
35285W        W 1826  42.848   6.147   3.738
35286W        W 1827  31.129   1.254   4.137
35287W        W 1828  12.362  32.591   4.960
35288W        W 1829  28.203   8.699  11.309
35289W        W 1830  29.895  44.422  14.812
35290W        W 1831  20.442   9.358  10.687
35291W        W 1832  23.664   1.457  14.372
35292W        W 1833  32.077  13.652  14.776
35293W        W 1834  38.228  36.152  13.435
35294W        W 1835   3.684  30.482   5.104
35295W        W 1836   7.206  21.185   4.006
35296W        W 1837   1.273   6.412   0.330
35297W        W 1838  39.546  12.066   2.396
35298W        W 1839  11.252  11.124   4.225
35299W        W 1840  17.253  34.754  10.342
35300W        W 1841  35.847  39.926  14.703
35301W        W 1842  13.697  41.250  12.429
35302W        W 1843  21.754  41.511   0.226
35303W        W 1844  36.088  17.378  13.936
35304W        W 1845  13.713  44.252  14.780
35305W        W 1846  19.632  13.845   0.349
35306W        W 1847  30.885  24.554   0.816
35307W        W 1848  18.155  34.840   0.723
35308W        W 1849  35.440   8.819   1.329
35309W        W 1850  25.803  44.301   2.482
35310W        W 1851  22.560  20.689  10.969
35311W        W 1852   6.615   5.006   4.805
35312W        W 1853  16.146   1.686   1.568
35313W        W 1854  39.584   8.448  13.453
35314W        W 1855  21.134  27.205  13.553
35315W        W 1856   7.816   3.779  10.678
35316W        W 1857  24.518  17.793  11.219
35317W        W 1858  17.260  36.841   2.676
35318W        W 1859  39.817   5.227   4.170
35319W        W 1860   4.965  34.094  10.232
35320W        W 1861  34.482  15.072  13.113
35321W        W 1862  16.860  29.022  11.080
35322W        W 1863   1.964  28.972  13.498
35323W        W 1864  14.700  36.012  10.897
35324W        W 1865  37.968  33.070  10.647
35325W        W 1866  17.259  11.068   3.498
35326W        W 1867   7.888   5.392   0.873
35327W        W 1868   9.549  33.525   2.108
35328W        W 1869   7.122  34.852   3.602
35329W        W 1870  29.080  24.735   0.943
35330W        W 1871  17.992  40.486   3.403
35331W        W 1872  15.381  42.265  11.524
35332W        W 1873  38.497  30.442  11.955
35333W        W 1874  28.205   1.742   2.535
35334W        W 1875  42.593  11.140  13.941
35335W        W 1876  43.071  33.435  11.163
35336W        W 1877  21.458  27.926   4.104
35337W        W 1878   4.528   9.352   4.161
35338W        W 1879  12.668  20.079  14.421
35339W        W 1880  14.572  25.672  11.573
35340W        W 1881   4.603  43.814   4.595
35341W        W 1882  12.601  16.104  11.964
35342W        W 1883  36.057  15.087   4.542
35343W        W 1884  26.252  29.193   0.079
35344W        W 1885  29.069   2.957   1.765
35345W        W 1886  19.092  30.696  11.955
35346W        W 1887  25.178  32.373   3.309
35347W        W 1888  27.013  29.674   1.875
35348W        W 1889  28.425  29.515  10.448
35349W        W 1890   9.314  24.895  13.134
35350W        W 1891  22.889  34.139  12.523
35351W        W 1892  31.948   4.702  13.963
35352W        W 1893  43.824  43.737  13.038
35353W        W 1894   3.827  18.137   2.245
35354W        W 1895  25.424  44.959  14.731
35355W        W 1896  20.615  40.354  12.899
35356W        W 1897   1.440  38.812   2.457
35357W        W 1898  39.271  28.575  14.574
35358W        W 1899   2.391  33.351   2.795
35359W        W 1900  42.808  11.365  10.825
35360W        W 1901   4.409  37.283   2.960
35361W        W 1902   2.451   4.415   2.815
35362W        W 1903   1.329  36.725  11.447
35363W        W 1904   8.500  23.312   5.133
35364W        W 1905  14.582   2.881   0.785
35365W        W 1906  22.499  38.547   3.833
35366W        W 1907  44.049   8.568  11.544
35367W        W 1908  37.814   9.300  12.987
35368W        W 1909  15.832   3.954  13.592
35369W        W 1910  40.841  31.913  12.880
35370W        W 1911  21.515  32.696  12.080
35371W        W 1912  39.382  17.378   4.454
35372W        W 1913   2.655  38.960  13.559
35373W        W 1914   2.113  34.942   0.955
35374W        W 1915   2.029  41.339  10.652
35375W        W 1916   4.855  19.577   0.396
35376W        W 1917  32.397  26.570  13.942
35377W        W 1918   3.476  17.686  10.719
35378W        W 1919  11.888  14.185   3.244
35379W        W 1920  29.116  21.796   2.783
35380W        W 1921   6.754   6.424  12.930
35381W        W 1922  22.746   2.456  13.462
35382W        W 1923  14.702  22.357  13.045
35383W        W 1924   0.968  21.052   2.697
35384W        W 1925  12.076  17.381  12.141
35385W        W 1926   5.326   9.118   2.712
35386W        W 1927  35.061  27.284  12.315
35387W        W 1928  34.151  38.396   3.389
35388W        W 1929  31.040  26.934   0.389
35389W        W 1930  38.893  43.266   0.603
35390W        W 1931  38.911  39.445  10.709
35391W        W 1932  12.515  31.377   0.175
35392W        W 1933  16.162  28.088   0.763
35393W        W 1934   0.903  36.988  11.418
35394W        W 1935  42.481   8.422   3.431
35395W        W 1936  41.326  36.813  12.676
35396W        W 1937  18.402  33.469   4.223
35397W        W 1938   6.146  21.107  14.132
35398W        W 1939  14.604  29.851  12.480
35399W        W 1940   0.381  25.297  13.024
35400W        W 1941  13.422  21.507  13.827
35401W        W 1942  40.017  11.662  13.686
35402W        W 1943  25.749  19.583  11.210
35403W        W 1944  10.974   1.211   4.780
35404W        W 1945  34.552  40.430  11.647
35405W        W 1946  27.974  23.029   5.183
35406W        W 1947  31.248  13.217  13.442
35407W        W 1948  12.159   4.260   2.385
35408W        W 1949   6.714   0.377  14.350
35409W        W 1950   5.664  36.460   2.173
35410W        W 1951  29.796  41.371  10.162
35411W        W 1952  41.894  43.372   4.600
35412W        W 1953  38.550  17.397   5.055
35413W        W 1954  29.944  32.936   3.833
35414W        W 1955  17.463  24.945  10.402
35415W        W 1956  26.201  28.477   3.147
35416W        W 1957  29.101   7.425  10.946
35417W        W 1958  36.745  28.617  12.496
35418W        W 1959  43.254  11.613  10.678
35419W        W 1960  31.079  20.783   3.619
35420W        W 1961  24.989  31.147  11.105
35421W        W 1962   0.536  21.981  11.014
35422W        W 1963  34.607  43.527   0.497
35423W        W 1964   1.700  32.615   0.363
35424W        W 1965   0.418  39.021   3.993
35425W        W 1966   7.127  23.155   3.154
35426W        W 1967  14.081   8.543  13.337
35427W        W 1968  19.131  31.724   3.927
35428W        W 1969  29.914  16.703   0.980
35429W        W 1970  26.746  37.986  13.297
35430W        W 1971  25.504   9.248   1.795
35431W        W 1972   4.628  20.326  12.093
35432W        W 1973  15.500   9.342   3.684
35433W        W 1974   2.505  16.348   3.744
35434W        W 1975  39.390  15.266  13.214
35435W        W 1976  29.181  39.034  10.852
35436W        W 1977  37.974  43.846  10.687
35437W        W 1978  27.562  27.085   3.309
35438W        W 1979   9.622  34.396  13.675
35439W        W 1980  27.982  44.321  13.290
35440W        W 1981  15.162   8.211  11.434
35441W        W 1982  30.929  43.419  13.736
35442W        W 1983   3.259  12.750  13.376
35443W        W 1984   0.392  17.111  10.923
35444W        W 1985  39.488  15.226  13.753
35445W        W 1986  14.074  11.197  12.542
35446W        W 1987  31.974  40.161   1.020
35447W        W 1988  21.035   2.774   1.318
35448W        W 1989   2.609   0.083  10.233
35449W        W 1990  12.334  24.381  14.305
35450W        W 1991   8.943  30.634   3.647
35451W        W 1992  12.327  14.778   2.123
35452W        W 1993  23.787  42.106  10.719
35453W        W 1994   6.290   3.863  13.074
35454W        W 1995  20.191  43.307  13.486
35455W        W 1996  38.977  35.345   3.281
35456W        W 1997  33.168  26.848   1.214
35457W        W 1998  21.760  28.720  11.160
35458W        W 1999  21.763   5.450   3.218
35459W        W 2000  41.237   6.221  11.114
35460W        W 2001  39.726   2.839   0.717
35461W        W 2002   4.451  14.651  10.956
35462W        W 2003  31.992  21.178  12.005
35463W        W 2004   0.557  31.078  13.192
35464W        W 2005  44.241  33.982  14.413
35465W        W 2006  15.915  40.771   0.778
35466W        W 2007   4.353   4.315  10.211
35467W        W 2008  15.639  37.344  12.592
35468W        W 2009   1.204   4.406   4.773
35469W        W 2010  34.724  12.326  11.200
35470W        W 2011  43.273   4.924  13.471
35471W        W 2012   0.348  15.593   3.784
35472W        W 2013  14.093   1.956   3.735
35473W        W 2014  15.231  17.319  12.984
35474W        W 2015  21.266  10.519   3.765
35475W        W 2016  26.390  11.360   2.970
35476W        W 2017  13.915  36.965   2.276
35477W        W 2018  31.521  22.900  13.541
35478W        W 2019   9.598  31.492  11.670
35479W        W 2020  30.252   1.861   4.957
35480W        W 2021  23.171   1.191  14.281
35481W        W 2022  38.861  35.910   1.786
35482W        W 2023  22.593  42.063   2.757
35483W        W 2024  15.657  15.205  11.557
35484W        W 2025  42.031   0.372   4.910
35485W        W 2026   3.508   6.613  12.736
35486W        W 2027  21.332   0.356   1.697
35487W        W 2028  21.503  16.328  10.940
35488W        W 2029  20.868  41.519  11.344
35489W        W 2030  19.076   6.130   1.277
35490W        W 2031  33.010  13.587   0.294
35491W        W 2032  41.662  19.577   2.776
35492W        W 2033   1.169  34.447  11.712
35493W        W 2034  29.666  38.786   1.698
35494W        W 2035  27.355  39.259   1.059
35495W        W 2036  12.698  27.977  12.562
35496W        W 2037  34.520  24.182   3.828
35497W        W 2038  16.028  43.527  10.624
35498W        W 2039  42.503  12.678  11.078
35499W        W 2040  18.829  33.178   1.474
35500W        W 2041  10.581  16.246   4.607
35501W        W 2042  41.347   5.918  13.883
35502W        W 2043  10.552  15.095  11.479
35503W        W 2044  43.698   4.488   2.233
35504W        W 2045   5.711  19.593  13.183
35505W        W 2046  41.815   1.800   4.073
35506W        W 2047  31.143   5.741   4.398
35507W        W 2048  20.145  42.985   1.907
35508W        W 2049  17.115  33.476   1.457
35509W        W 2050   9.011   0.321  10.337
35510W        W 2051  18.020  39.811  13.760
35511W        W 2052  32.029   7.434  12.870
35512W        W 2053  39.999  14.322  11.437
35513W        W 2054   7.804  13.099   1.911
35514W        W 2055  34.062  19.193   4.757
35515W        W 2056  12.345   8.718  12.462
35516W        W 2057  21.662  16.316  13.726
35517W        W 2058   3.770  23.802   4.660
35518W        W 2059  29.940  36.784   1.824
35519W        W 2060  41.573  43.377   0.287
35520W        W 2061  15.077  31.825  13.425
35521W        W 2062  42.526   5.631   3.487
35522W        W 2063  35.065  25.751  12.955
35523W        W 2064  17.460  12.717  11.989
35524W        W 2065   1.002   7.789  12.024
35525W        W 2066  42.516  24.027   3.734
35526W        W 2067   0.901  18.572  13.479
35527W        W 2068  36.145  43.925   1.415
35528W        W 2069  19.470   8.264   3.671
35529W        W 2070  27.364   8.466   4.826
35530W        W 2071  42.492  12.402   3.158
35531W        W 2072  17.619  34.368   4.540
35532W        W 2073  22.033  41.982  13.900
35533W        W 2074  17.360  16.808   4.553
35534W        W 2075  34.862   3.531   4.079
35535W        W 2076  36.364  21.753   0.246
35536W        W 2077  25.519   8.223   1.949
35537W        W 2078  43.767  41.772   1.662
35538W        W 2079  37.447  38.680  12.170
35539W        W 2080  42.016  15.536  14.723
35540W        W 2081  15.189   8.140  12.348
35541W        W 2082   6.791   2.542   0.085
35542W        W 2083  34.125  23.130   3.202
35543W        W 2084  14.551   1.225   1.333
35544W        W 2085  12.594  16.609  10.686
35545W        W 2086   9.839  28.430  14.538
35546W        W 2087  16.573  32.884  11.552
35547W        W 2088  15.725  41.796   3.148
35548W        W 2089  20.078  28.719   2.375
35549W        W 2090  18.696  21.018   2.814
35550W        W 2091  22.471   9.392  10.791
35551W        W 2092  22.027   9.421  13.265
35552W        W 2093  29.205  37.412   1.400
35553W        W 2094   9.191  23.936  14.268
35554W        W 2095  40.896  26.689   0.240
35555W        W 2096  38.684  42.879   4.168
35556W        W 2097  12.545  21.806  11.109
35557W        W 2098   3.927   7.235  14.452
35558W        W 2099  11.630  32.331  11.143
35559W        W 2100  25.541  40.764   1.398
35560W        W 2101   3.379   7.092   2.841
35561W        W 2102  38.787  15.206  14.457
35562W        W 2103  33.569  25.959  14.702
35563W        W 2104  25.138  27.711   2.763
35564W        W 2105  18.243  32.416  12.088
35565W        W 2106  28.161  28.030  14.088
35566W        W 2107  34.800  43.570  12.142
35567W        W 2108  34.660  39.577  12.995
35568W        W 2109  11.164  30.069   3.712
35569W        W 2110  22.784  10.812  13.406
35570W        W 2111  43.025  12.513   3.809
35571W        W 2112  17.710  33.079   3.361
35572W        W 2113  33.599  18.797   0.418
35573W        W 2114  12.089  15.066   4.247
35574W        W 2115  32.681  19.280   2.895
35575W        W 2116  38.415  10.306   3.547
35576W        W 2117  10.279  42.547   3.356
35577W        W 2118   5.244  17.088  10.885
35578W        W 2119  31.980  28.951  14.019
35579W        W 2120  35.498  36.002   3.594
35580W        W 2121   5.865  41.736  13.459
35581W        W 2122   3.039   0.936   3.609
35582W        W 2123   6.920  26.514  10.402
35583W        W 2124  35.474  39.480  12.609
35584W        W 2125  23.040  43.132   1.446
35585W        W 2126  42.484  44.521  11.563
35586W        W 2127   9.175  28.233  11.428
35587W        W 2128  38.320  43.425  11.805
35588W        W 2129  40.770   4.305  14.691
35589W        W 2130  38.687  35.877   2.281
35590W        W 2131  11.819  32.165  13.510
35591W        W 2132  32.984  13.909   3.664
35592W        W 2133  19.032  29.706  11.769
35593W        W 2134  29.468   4.251  13.847
35594W        W 2135   1.055  44.417  10.857
35595W        W 2136  16.620  43.520   1.329
35596W        W 2137  27.976  36.856  10.703
35597W        W 2138  44.344  42.017   0.780
35598W        W 2139  12.672  14.550  14.476
35599W        W 2140  21.049  30.865  11.449
35600W        W 2141  18.235  24.221   3.697
35601W        W 2142  27.115  38.069  13.666
35602W        W 2143  18.146  13.574   0.429
35603W        W 2144  10.807  21.523  12.900
35604W        W 2145  15.841  26.094  10.641
35605W        W 2146  14.801  36.296  14.508
35606W        W 2147  22.479  27.200   1.027
35607W        W 2148  22.182  20.605   3.961
35608W        W 2149  33.394  17.168   1.235
35609W        W 2150   6.366  36.074  14.947
35610W        W 2151  14.101  12.856   1.470
35611W        W 2152  44.663  24.239   2.826
35612W        W 2153  26.973  31.935  11.129
35613W        W 2154  11.681   7.187   3.194
35614W        W 2155  22.886   0.978  12.922
35615W        W 2156  25.610  12.538   0.332
35616W        W 2157  41.782  26.406   1.196
35617W        W 2158  33.748  35.149   2.243
35618W        W 2159  20.279   8.291   2.387
35619W        W 2160  17.865  27.202   4.228
35620W        W 2161  44.038  34.142  11.894
35621W        W 2162  28.989  16.043   3.443
35622W        W 2163  34.529  16.449  14.782
35623W        W 2164  23.915  28.453   2.375
35624W        W 2165  30.947  31.610   3.379
35625W        W 2166  29.932  21.264   3.778
35626W        W 2167  39.822  21.518   3.332
35627W        W 2168  40.032  39.266  14.832
35628W        W 2169  10.809  31.405  10.742
35629W        W 2170  15.040   3.173   1.731
35630W        W 2171  25.273  43.409   1.206
35631W        W 2172  11.654  23.615  13.430
35632W        W 2173  44.773  33.894  14.398
35633W        W 2174  19.127   4.364   1.725
35634W        W 2175  40.329  11.743   5.400
35635W        W 2176  15.726  27.855  10.707
35636W        W 2177  39.298  25.115   1.764
35637W        W 2178   5.606  32.886   0.321
35638W        W 2179  43.345   3.050   2.363
35639W        W 2180  21.720   9.876   1.426
35640W        W 2181  42.753   1.497   1.854
35641W        W 2182  21.727   1.929  12.237
35642W        W 2183  29.439  20.157   1.424
35643W        W 2184  31.043  33.365   1.284
35644W        W 2185  12.344  41.500  12.569
35645W        W 2186   2.499  35.647   0.532
35646W        W 2187  24.225  28.397   1.195
35647W        W 2188   8.866  41.323   2.586
35648W        W 2189  26.347  26.742  10.441
35649W        W 2190  34.052  36.114  12.429
35650W        W 2191  17.338  16.125   0.420
35651W        W 2192  27.826  21.524   3.678
35652W        W 2193  13.160  14.543  11.182
35653W        W 2194  40.463  43.087  12.165
35654W        W 2195   0.590  17.248   1.916
35655W        W 2196  33.835  12.587   4.234
35656W        W 2197  17.221  29.993   2.879
35657W        W 2198   2.335  11.788  13.931
35658W        W 2199  41.934  41.295  12.937
35659W        W 2200   3.882  42.008  14.798
35660W        W 2201  13.670  28.058   2.112
35661W        W 2202  22.098  27.635  10.707
35662W        W 2203   3.914  44.870   4.303
35663W        W 2204  30.283  44.611  13.971
35664W        W 2205   9.887  17.557   4.137
35665W        W 2206  16.241   7.727   4.446
35666W        W 2207  39.858  19.988  12.684
35667W        W 2208  42.434  28.022   1.380
35668W        W 2209  12.914  33.052   2.779
35669W        W 2210   8.834  28.181   4.189
35670W        W 2211  19.095  10.130  13.901
35671W        W 2212  11.241  25.506   4.700
35672W        W 2213   3.081  18.530   3.733
35673W        W 2214   8.307   7.941  14.908
35674W        W 2215  11.037  12.397  10.741
35675W        W 2216  31.394  14.669  11.439
35676W        W 2217  26.016   5.792  14.900
35677W        W 2218  44.930  12.854  10.910
35678W        W 2219  35.402  40.043   1.153
35679W        W 2220  41.204  23.558   0.250
35680W        W 2221  31.925  20.911   0.003
35681W        W 2222  28.196  37.364  13.921
35682W        W 2223  33.805  24.663  12.983
35683W        W 2224  19.236  12.712   2.742
35684W        W 2225  21.165  38.552   1.998
35685W        W 2226  25.073  22.544  11.219
35686W        W 2227  18.862  11.377   1.350
35687W        W 2228  36.996  40.020   4.796
35688W        W 2229  15.123  42.328  13.071
35689W        W 2230  29.541  37.543  14.515
35690W        W 2231  13.346  27.957  13.328
35691W        W 2232  21.766  11.141  13.349
35692W        W 2233  21.227  38.600   2.510
35693W        W 2234  28.898  31.931   1.703
35694W        W 2235  16.813  30.969   0.416
35695W        W 2236  36.325   8.124  11.051
35696W        W 2237  31.931   8.922   0.564
35697W        W 2238   6.869  21.526   2.854
35698W        W 2239  23.137   6.016   1.219
35699W        W 2240  37.423   2.525  10.050
35700W        W 2241  14.297  13.723   4.058
35701W        W 2242  18.655  26.394  12.504
35702W        W 2243  20.714  23.462   4.207
35703W        W 2244  42.397  24.917   2.604
35704W        W 2245  42.771  38.756   3.709
35705W        W 2246  34.433  20.922   0.134
35706W        W 2247  37.361  18.634  13.299
35707W        W 2248  28.643   7.121  10.979
35708W        W 2249  21.712   1.370  14.509
35709W        W 2250  40.874  41.476  14.360
35710W        W 2251  11.873   5.861   0.095
35711W        W 2252   0.034  44.078  12.725
35712W        W 2253  38.504  10.386  14.225
35713W        W 2254  15.580   6.487   4.149
35714W        W 2255   9.254  23.731  11.168
35715W        W 2256   7.267   3.645   9.778
35716W        W 2257  32.056  33.966  11.422
35717W        W 2258  13.850  12.501   1.773
35718W        W 2259  35.655  24.137  11.282
35719W        W 2260  17.682  41.330  14.248
35720W        W 2261  11.316  10.364  13.186
35721W        W 2262  32.860  22.025  10.626
35722W        W 2263   7.335  28.240   0.974
35723W        W 2264  36.558  42.731  12.552
35724W        W 2265  27.526  11.988   1.850
35725W        W 2266  37.884  37.633   3.334
35726W        W 2267  28.421  15.641  11.097
35727W        W 2268   4.898   5.115   0.450
35728W        W 2269   2.074   5.841   2.378
35729W        W 2270  40.855  24.075  12.401
35730W        W 2271   8.863   9.459   1.320
35731W        W 2272  40.269  21.588  12.472
35732W        W 2273   7.669  14.722   1.706
35733W        W 2274  39.291  16.195  12.976
35734W        W 2275  44.692  18.791  12.395
35735W        W 2276  44.045  17.267  11.142
35736W        W 2277  23.233  29.085   4.374
35737W        W 2278  21.940  31.406  12.997
35738W        W 2279  20.007  40.349   4.513
35739W        W 2280  34.037  16.951  13.022
35740W        W 2281  33.943   9.944  10.619
35741W        W 2282  27.631  13.161  14.413
35742W        W 2283  38.261  32.559  11.162
35743W        W 2284  38.121  16.835  13.373
35744W        W 2285  37.434  25.978  11.877
35745W        W 2286   1.726  39.360  10.695
35746W        W 2287  24.354  29.943  13.865
35747W        W 2288   1.294  12.903  14.931
35748W        W 2289  16.107  20.083  13.955
35749W        W 2290  13.410   3.772   3.189
35750W        W 2291  21.504  26.025   4.671
35751W        W 2292  23.821   0.510  13.844
35752W        W 2293  12.227   5.424  14.340
35753W        W 2294  13.871  19.606  10.708
35754W        W 2295   5.071   7.366  11.976
35755W        W 2296   6.224   2.335   2.282
35756W        W 2297  30.013  30.148   2.838
35757W        W 2298  23.239  37.611   1.571
35758W        W 2299  12.650  33.576  10.449
35759W        W 2300  26.711  29.012  14.717
35760W        W 2301  16.840  14.301  12.460
35761W        W 2302  28.504  27.102   3.483
35762W        W 2303  21.759  28.936  14.499
35763W        W 2304  38.034  42.194   1.138
35764W        W 2305  34.146  13.266  11.279
35765W        W 2306  22.550  44.493   4.630
35766W        W 2307  13.540  16.675   1.261
35767W        W 2308   6.133  36.441  14.136
35768W        W 2309  19.184  16.873  10.342
35769W        W 2310  37.889  17.199   1.315
35770W        W 2311  39.240  31.082  11.142
35771W        W 2312  20.266  11.157   1.650
35772W        W 2313  11.664  41.107  12.427
35773W        W 2314  16.752  42.474   4.142
35774W        W 2315   3.925  23.437  13.792
35775W        W 2316  19.541  19.485   2.905
35776W        W 2317   1.685  36.439  14.285
35777W        W 2318  35.517  42.901   2.895
35778W        W 2319  15.074  19.627  13.425
35779W        W 2320  34.447   3.509  13.459
35780W        W 2321  33.314  14.972  10.999
35781W        W 2322  24.056  24.119   2.637
35782W        W 2323  26.633  35.971   2.581
35783W        W 2324  18.806  21.752   0.368
35784W        W 2325  21.211  40.309   4.351
35785W        W 2326  23.105   8.232  13.265
35786W        W 2327  39.246  41.053  11.617
35787W        W 2328  33.096  34.497   4.610
35788W        W 2329   3.768   9.625  11.558
35789W        W 2330   2.985  19.029   3.728
35790W        W 2331   4.178  15.162  11.666
35791W        W 2332   2.226   4.086  14.341
35792W        W 2333  44.525   5.670   4.173
35793W        W 2334  30.182  44.720   4.194
35794W        W 2335  28.123  22.978  11.044
35795W        W 2336  27.194  30.348   0.882
35796W        W 2337  14.053  24.761  10.755
35797W        W 2338  20.919  18.644   0.676
35798W        W 2339   3.018  39.784   4.075
35799W        W 2340  31.429  27.150   1.801
35800W        W 2341  29.433  21.449   1.845
35801W        W 2342  12.749  39.526  14.737
35802W        W 2343  27.105  10.427  11.010
35803W        W 2344  22.099  37.865   1.170
35804W        W 2345  26.388  19.712  14.878
35805W        W 2346  28.935  14.181  10.713
35806W        W 2347  39.790  20.583   1.289
35807W        W 2348  44.181  22.984   3.404
35808W        W 2349  17.330  31.281   1.488
35809W        W 2350  33.853  14.176  11.024
35810W        W 2351  13.644   4.759  14.836
35811W        W 2352  43.349  16.595   2.764
35812W        W 2353  19.508  34.959   2.677
35813W        W 2354   3.266  42.875  12.258
35814W        W 2355   1.950  35.114  14.570
35815W        W 2356   4.630  43.232   2.246
35816W        W 2357  20.832  33.126   3.236
35817W        W 2358  15.765  17.406   4.299
35818W        W 2359  39.613  44.311  12.933
35819W        W 2360  24.016  31.616   1.248
35820W        W 2361   5.435  16.544   4.238
35821W        W 2362  38.882  21.153   1.304
35822W        W 2363   2.030  33.162   3.675
35823W        W 2364  29.353   6.290  14.431
35824W        W 2365   9.024  21.594   2.837
35825W        W 2366   6.119  17.543   3.704
35826W        W 2367   3.712   6.343  14.399
35827W        W 2368  32.160  38.141  12.932
35828W        W 2369  17.192  25.966   4.008
35829W        W 2370  24.446  25.296   4.081
35830W        W 2371  42.197  37.331  11.540
35831W        W 2372  43.498   6.803   0.393
35832W        W 2373  28.484  34.828  12.129
35833W        W 2374  42.644  37.606   4.118
35834W        W 2375  16.634   9.598   1.500
35835W        W 2376   2.102  14.277  14.730
35836W        W 2377  14.627  12.873   1.478
35837W        W 2378  26.513  25.198   5.231
35838W        W 2379  20.526  35.047  13.365
35839W        W 2380  30.118  31.615  14.020
35840W        W 2381  29.944  22.722   1.719
35841W        W 2382   7.680  29.510  13.811
35842W        W 2383  13.889  37.995   1.533
35843W        W 2384  26.684  34.381   4.024
35844W        W 2385  44.696   6.392   3.649
35845W        W 2386  10.316  13.115  13.512
35846W        W 2387  21.647  33.366   0.863
35847W        W 2388  42.782  29.188   0.266
35848W        W 2389  12.748  33.734   9.975
35849W        W 2390   4.871   7.972  10.747
35850W        W 2391  35.079   8.420   3.676
35851W        W 2392  26.996  12.831  10.088
35852W        W 2393  26.233  42.996  12.906
35853W        W 2394  13.557  20.457   2.653
35854W        W 2395  44.732  37.047  12.633
35855W        W 2396  22.679  14.801  14.393
35856W        W 2397  21.181  13.748   1.357
35857W        W 2398  39.963  30.374   4.815
35858W        W 2399  22.509  37.405   3.803
35859W        W 2400   6.397   7.450   3.130
35860W        W 2401  13.361  30.052   1.343
35861W        W 2402  44.785  41.064  11.988
35862W        W 2403   8.588  23.927   1.517
35863W        W 2404  25.419  13.790  12.786
35864W        W 2405  37.026  15.599   1.685
35865W        W 2406  38.986   7.162  13.015
35866W        W 2407   7.063  24.780  14.676
35867W        W 2408  15.992  21.266   3.171
35868W        W 2409   0.843  40.307  13.493
35869W        W 2410  21.926  39.325   4.910
35870W        W 2411  13.589   8.171  11.563
35871W        W 2412  29.663  25.926   3.669
35872W        W 2413  19.796   5.639  12.507
35873W        W 2414  33.878  12.593   1.322
35874W        W 2415  21.222  14.563  13.961
35875W        W 2416  24.498  25.198  13.554
35876W        W 2417  37.935  37.952   2.187
35877W        W 2418  26.972  38.831   4.140
35878W        W 2419  32.692  23.073   1.264
35879W        W 2420  23.773  44.329   3.539
35880W        W 2421  36.378  44.890   1.809
35881W        W 2422  17.428   8.256   3.703
35882W        W 2423  37.015   9.557   4.758
35883W        W 2424  41.973  35.889  13.365
35884W        W 2425  35.029  41.983   4.468
35885W        W 2426  44.970  44.036   0.528
35886W        W 2427  35.083   6.362  13.852
35887W        W 2428   7.352  26.535  10.685
35888W        W 2429  40.885  17.622  12.461
35889W        W 2430  15.255  28.933   3.714
35890W        W 2431   7.210  27.743   0.827
35891W        W 2432  29.381  38.072  12.840
35892W        W 2433  14.285  33.888   2.933
35893W        W 2434   8.306  31.431  10.468
35894W        W 2435   0.738  20.686  14.982
35895W        W 2436  10.674  44.012  10.639
35896W        W 2437  16.651  37.426   2.037
35897W        W 2438  12.501   1.023  13.549
35898W        W 2439  26.632   1.036   2.741
35899W        W 2440  30.896   9.242   1.610
35900W        W 2441  29.506   5.239  12.891
35901W        W 2442  18.215  15.499  14.948
35902W        W 2443  31.865   9.668   4.569
35903W        W 2444  17.790  18.251   3.245
35904W        W 2445  13.164  15.394  10.789
35905W        W 2446  40.752   1.841  11.121
35906W        W 2447  44.927  22.005   1.386
35907W        W 2448   7.768  10.455  11.949
35908W        W 2449   9.915  39.862   2.791
35909W        W 2450   0.407  13.761   3.924
35910W        W 2451   9.878  35.907  11.129
35911W        W 2452  33.356  39.758  11.176
35912W        W 2453   6.305  43.433  13.588
35913W        W 2454  20.073   2.552  11.544
35914W        W 2455  33.734  20.184  12.704
35915W        W 2456   1.877  22.932  13.114
35916W        W 2457  13.137   3.284   3.152
35917W        W 2458   3.279  40.451   2.215
35918W        W 2459  34.164  44.425  12.574
35919W        W 2460   6.685   3.449   0.926
35920W        W 2461  10.143  33.196  12.105
35921W        W 2462  30.287  33.158  11.257
35922W        W 2463  26.905  21.461   3.881
35923W        W 2464  11.407  20.501  11.621
35924W        W 2465  24.437  14.442  11.094
35925W        W 2466  39.577   3.730  11.733
35926W        W 2467  12.117   5.811   1.941
35927W        W 2468   9.137  21.478  14.613
35928W        W 2469  27.136  24.324  14.909
35929W        W 2470  14.366   2.457   0.484
35930W        W 2471  30.516  24.746   2.104
35931W        W 2472   3.194  37.949  14.721
35932W        W 2473  18.844  29.191   0.540
35933W        W 2474  20.088  35.365  12.514
35934W        W 2475   2.894   1.194   5.289
35935W        W 2476  33.029  41.076   1.612
35936W        W 2477   1.414   4.848  12.291
35937W        W 2478   0.187   4.882   3.972
35938W        W 2479  25.048  24.573  12.509
35939W        W 2480  40.029  43.014  11.403
35940W        W 2481  21.255  36.652   0.657
35941W        W 2482  26.985   0.965   2.118
35942W        W 2483  31.376   7.744   3.685
35943W        W 2484  42.301  31.988  14.518
35944W        W 2485  21.168  28.332  12.641
35945W        W 2486  29.979  26.233  13.452
35946W        W 2487  36.374  39.268  13.518
35947W        W 2488  40.500  43.913  10.623
35948W        W 2489  38.439  19.022   3.180
35949W        W 2490  42.396  23.492  14.969
35950W        W 2491  42.274   5.802  14.979
35951W        W 2492   4.564  42.515  13.667
35952W        W 2493  22.760  22.620   0.962
35953W        W 2494  13.051   0.353  13.694
35954W        W 2495  11.539  30.108   0.231
35955W        W 2496   1.835   8.720  11.486
35956W        W 2497  11.385  24.128   0.704
35957W        W 2498   5.999  33.288  13.107
35958W        W 2499  31.942  31.914  10.674
35959W        W 2500  26.713  27.576   3.861
35960W        W 2501  15.098   2.385   3.091
35961W        W 2502   1.700  14.621   1.832
35962W        W 2503  13.220  18.280  10.380
35963W        W 2504   0.398  12.374  12.305
35964W        W 2505  35.463  40.980  11.877
35965W        W 2506  26.506  36.359   3.309
35966W        W 2507  39.367  34.162  14.994
35967W        W 2508  14.213   6.411   4.078
35968W        W 2509  41.478  30.696  13.023
35969W        W 2510   7.261  37.865  12.082
35970W        W 2511   0.022  35.449   0.435
35971W        W 2512  23.779  23.777  11.100
35972W        W 2513  14.190  33.430   0.272
35973W        W 2514  25.037  35.136  13.069
35974W        W 2515  24.781   9.146  14.790
35975W        W 2516  14.750  24.294  10.906
35976W        W 2517   4.440  13.303  13.775
35977W        W 2518  14.807  23.044   3.680
35978W        W 2519   7.878  11.331  11.971
35979W        W 2520  33.248   6.896  12.544
35980W        W 2521  10.404  15.266   1.333
35981W        W 2522  39.720  41.773  14.989
35982W        W 2523  35.606  11.811  12.299
35983W        W 2524  16.964  37.946  14.733
35984W        W 2525   9.439   4.920   0.821
35985W        W 2526  41.240  10.192   2.341
35986W        W 2527  19.653  16.562  13.551
35987W        W 2528  30.088  38.846   0.533
35988W        W 2529  32.101  44.463  13.532
35989W        W 2530  35.827   7.938  11.099
35990W        W 2531  26.750  31.617  11.969
35991W        W 2532  37.168  10.158  11.237
35992W        W 2533  34.045  42.164  14.886
35993W        W 2534   6.372  14.364  11.551
35994W        W 2535   5.390   3.715   2.169
35995W        W 2536  29.869  20.044   3.874
35996W        W 2537   0.411  14.735   1.257
35997W        W 2538  24.017  12.602  13.823
35998W        W 2539  39.118  16.307   0.683
35999W        W 2540  41.032  35.891   2.834
36000W        W 2541   3.740  23.498  14.639
36001W        W 2542  41.478   5.734   4.240
36002W        W 2543  24.718  11.873  11.991
36003W        W 2544  20.538  35.945   3.964
36004W        W 2545  12.344   8.864   1.703
36005W        W 2546  22.089  44.815   4.642
36006W        W 2547   7.300  23.162  11.055
36007W        W 2548  15.031  14.682   2.175
36008W        W 2549  42.011   5.734   1.321
36009W        W 2550  20.701  13.698  12.853
36010W        W 2551  24.221  16.535  13.587
36011W        W 2552   5.389  23.193  12.957
36012W        W 2553   6.351  14.702  11.953
36013W        W 2554  32.674  30.332  12.842
36014W        W 2555  17.675  32.644   1.308
36015W        W 2556  13.215   2.970  13.512
36016W        W 2557   6.463  20.790  14.980
36017W        W 2558   5.137   5.015   3.227
36018W        W 2559  25.969  33.642  11.135
36019W        W 2560   4.960  16.067   1.661
36020W        W 2561   8.151  36.739   5.379
36021W        W 2562  40.101  35.965  11.796
36022W        W 2563   5.314  22.056  14.880
36023W        W 2564  12.426  23.183  13.107
36024W        W 2565  17.209   0.009  14.850
36025W        W 2566  28.583  37.808   0.837
36026W        W 2567  31.065  24.451  13.018
36027W        W 2568  33.102  44.107   3.615
36028W        W 2569  22.997  15.610   2.075
36029W        W 2570  14.132  24.808   3.768
36030W        W 2571  12.759   9.916   0.663
36031W        W 2572  11.159  18.076   0.260
36032W        W 2573  16.037  38.160  13.352
36033W        W 2574  32.828  22.153   0.395
36034W        W 2575  37.000  24.549  10.615
36035W        W 2576  36.440  31.882   4.543
36036W        W 2577  18.153  26.398   2.578
36037W        W 2578  34.910  35.428  13.899
36038W        W 2579  24.192  19.534   2.406
36039W        W 2580  24.630  33.761  11.788
36040W        W 2581  40.054  26.653  11.240
36041W        W 2582   5.816  38.866   5.570
36042W        W 2583  41.167  24.509   1.393
36043W        W 2584   6.690  12.623   1.042
36044W        W 2585  10.796  22.143  10.035
36045W        W 2586  31.643   0.854   1.540
36046W        W 2587  35.871  14.466  14.952
36047W        W 2588  28.587  38.352  13.859
36048W        W 2589   2.514  13.132  14.750
36049W        W 2590   2.650  32.161  11.662
36050W        W 2591  33.397   5.346  14.273
36051W        W 2592  24.200  41.924  14.862
36052W        W 2593  39.435   3.140   2.833
36053W        W 2594  12.640  12.118  10.561
36054W        W 2595  21.210  16.609  14.831
36055W        W 2596   9.270  42.464   3.263
36056W        W 2597  36.245   2.981  14.689
36057W        W 2598  13.318   6.786  14.021
36058W        W 2599  26.486   2.809   3.588
36059W        W 2600  12.320  33.372  13.831
36060W        W 2601   9.719  37.371   1.981
36061W        W 2602  14.313  39.285   3.446
36062W        W 2603   1.991   7.704   2.826
36063W        W 2604  26.257  14.728   1.913
36064W        W 2605   2.364  18.512  14.256
36065W        W 2606  21.211   6.598   1.190
36066W        W 2607   1.698  13.895   1.017
36067W        W 2608  30.624  17.105  11.213
36068W        W 2609  32.152  11.188   4.762
36069W        W 2610   5.509  37.889   0.930
36070W        W 2611   6.365  15.315  13.645
36071W        W 2612  42.938  25.002   4.869
36072W        W 2613  23.020  39.346   0.957
36073W        W 2614  29.354  12.728  14.231
36074W        W 2615  29.848   6.794  13.862
36075W        W 2616  10.867  41.095  14.842
36076W        W 2617  26.262  30.617   2.712
36077W        W 2618   4.919  28.705  12.963
36078W        W 2619  44.279  16.571  11.126
36079W        W 2620  33.645  14.916   0.436
36080W        W 2621  41.860  33.362  12.520
36081W        W 2622   0.113   1.353   0.524
36082W        W 2623  22.253  37.413   0.509
36083W        W 2624  21.760  31.008   0.356
36084W        W 2625  18.986  31.950  12.571
36085W        W 2626  10.779  32.485   0.369
36086W        W 2627  19.670  28.267  12.013
36087W        W 2628  39.302   7.578  13.085
36088W        W 2629  36.148  24.305   4.865
36089W        W 2630   7.447  37.860   1.399
36090W        W 2631  43.087  43.982   1.869
36091W        W 2632  11.403  26.814  13.113
36092W        W 2633   0.503   2.483  11.969
36093W        W 2634  36.286   8.686  11.040
36094W        W 2635  20.157  42.355   0.373
36095W        W 2636   4.615  21.986   4.049
36096W        W 2637  33.213  11.934  13.934
36097W        W 2638  15.876  29.978   3.526
36098W        W 2639  10.176  13.648  13.843
36099W        W 2640  22.278  32.173  10.559
36100W        W 2641  31.758  15.916   4.100
36101W        W 2642  37.632  11.266   3.449
36102W        W 2643  32.085  10.736   0.720
36103W        W 2644  23.593  42.737  11.110
36104W        W 2645  24.935   8.041  12.484
36105W        W 2646   3.011  23.084   0.188
36106W        W 2647  27.097  12.171   4.596
36107W        W 2648  29.621  28.686  11.526
36108W        W 2649  23.923  22.932   3.355
36109W        W 2650   2.905  38.345  12.456
36110W        W 2651  13.215  23.757   2.333
36111W        W 2652  18.872   2.701   4.058
36112W        W 2653  15.853  31.395   3.162
36113W        W 2654   2.760  29.458  13.528
36114W        W 2655  44.912  31.970   3.882
36115W        W 2656  34.126  18.779   4.216
36116W        W 2657  35.538   5.924   0.035
36117W        W 2658  11.233   6.924  13.742
36118W        W 2659   5.212  17.794  13.568
36119W        W 2660  17.246  40.030  14.833
36120W        W 2661  43.531   0.775   3.644
36121W        W 2662  33.320  18.403  14.027
36122W        W 2663  39.504  34.088   3.562
36123W        W 2664  20.655  32.183   0.566
36124W        W 2665  15.839  35.575   1.779
36125W        W 2666  16.466  27.052   1.665
36126W        W 2667   0.321  14.584  14.194
36127W        W 2668  10.137  10.332  12.126
36128W        W 2669  27.037  23.974  11.198
36129W        W 2670  34.608   5.961   9.818
36130W        W 2671   2.937  23.641  13.496
36131W        W 2672   2.982   0.447  13.377
36132W        W 2673  19.457   9.114  14.580
36133W        W 2674  14.531  20.018   1.393
36134W        W 2675  30.471  12.332   4.397
36135W        W 2676   7.686  12.098  13.339
36136W        W 2677  11.464  34.953   1.808
36137W        W 2678  30.553  24.487  13.181
36138W        W 2679  42.234  22.225  14.784
36139W        W 2680  25.712  42.340   0.478
36140W        W 2681  15.355  33.013   1.161
36141W        W 2682   9.696  30.839   2.847
36142W        W 2683  13.557  22.422  13.740
36143W        W 2684  37.316  10.484   3.700
36144W        W 2685  22.178   3.750  10.261
36145W        W 2686  11.747   1.027   3.658
36146W        W 2687  37.472  40.517  14.084
36147W        W 2688  31.946  40.129   1.739
36148W        W 2689  43.887  40.604   2.664
36149W        W 2690  16.156  39.556   3.829
36150W        W 2691   7.109  11.180   2.892
36151W        W 2692  40.403  29.520   0.937
36152W        W 2693  19.698  21.938   3.871
36153W        W 2694   0.724  21.031  12.612
36154W        W 2695   2.272  20.734   1.654
36155W        W 2696   0.255  14.222   3.195
36156W        W 2697  37.886  19.299  10.681
36157W        W 2698   8.650  40.389   1.592
36158W        W 2699  34.791  35.908   4.296
36159W        W 2700  31.543  42.262  13.455
36160W        W 2701  27.757  24.702   3.693
36161W        W 2702  42.109  38.550  12.671
36162W        W 2703  29.104  15.244  13.035
36163W        W 2704   5.211  17.452  11.256
36164W        W 2705  38.406  14.816  12.581
36165W        W 2706   1.044  15.258   2.749
36166W        W 2707  18.977  18.115  10.369
36167W        W 2708   9.227  32.761  12.073
36168W        W 2709   8.938   3.173  11.885
36169W        W 2710   2.157  30.473   3.644
36170W        W 2711  15.754  36.301   2.842
36171W        W 2712  25.704  16.963   9.979
36172W        W 2713  28.605  20.784  14.873
36173W        W 2714  18.689   2.768  13.731
36174W        W 2715  24.358  12.652  12.942
36175W        W 2716  31.887  24.123  12.968
36176W        W 2717   3.096  19.258   1.426
36177W        W 2718  23.444  28.397  10.612
36178W        W 2719  15.092  13.139  12.471
36179W        W 2720  12.794  42.849  14.820
36180W        W 2721  30.146  21.184   0.756
36181W        W 2722  32.178  12.325   3.434
36182W        W 2723  39.401  33.015   1.784
36183W        W 2724  32.700  21.272   3.668
36184W        W 2725  18.307   8.713  14.456
36185W        W 2726  40.205   0.896   4.629
36186W        W 2727  20.121  38.871  11.445
36187W        W 2728  43.429  24.960   2.155
36188W        W 2729  35.903  30.198   4.661
36189W        W 2730  38.709  31.040  11.163
36190W        W 2731  22.531  19.583  14.589
36191W        W 2732  16.623  24.838   2.237
36192W        W 2733  31.746  32.400   1.861
36193W        W 2734  40.552  35.384  14.257
36194W        W 2735  43.501  20.566   2.917
36195W        W 2736  14.722  21.364  13.205
36196W        W 2737  12.381  17.703  10.949
36197W        W 2738  35.009  38.887   2.243
36198W        W 2739   8.172  12.237  12.500
36199W        W 2740  42.408  40.975   0.020
36200W        W 2741  24.984  22.646  11.705
36201W        W 2742  23.336  13.603   0.807
36202W        W 2743  20.010   8.508  13.851
36203W        W 2744  34.170  44.509   0.409
36204W        W 2745  28.955  24.859  12.809
36205W        W 2746  32.639  36.652   3.218
36206W        W 2747  32.501  26.714   2.646
36207W        W 2748  40.520  22.101   0.850
36208W        W 2749  42.363  19.285  12.348
36209W        W 2750  24.415   2.799   1.165
36210W        W 2751   5.863  13.637  13.908
36211W        W 2752  19.074  40.663   3.346
36212W        W 2753   4.734  35.004  11.936
36213W        W 2754  19.812  17.750  12.823
36214W        W 2755  15.502  39.989  11.647
36215W        W 2756  23.304  23.976  11.208
36216W        W 2757  39.941  30.048   0.489
36217W        W 2758  32.354  17.526  13.529
36218W        W 2759  31.460   3.490   0.997
36219W        W 2760  19.743   6.002  11.838
36220W        W 2761   8.078   0.927   0.031
36221W        W 2762  17.051  17.225  14.831
36222W        W 2763   1.848  43.215   0.783
36223W        W 2764   2.046   6.314   2.173
36224W        W 2765   6.139  40.048   2.133
36225W        W 2766  39.562  43.538   3.721
36226W        W 2767  17.044  11.663  10.703
36227W        W 2768  32.986   9.174   3.202
36228W        W 2769   4.180  11.128  13.267
36229W        W 2770  43.335  32.304   2.577
36230W        W 2771  26.598  15.849   2.202
36231W        W 2772  32.971  29.921  12.923
36232W        W 2773  14.800  11.675   0.438
36233W        W 2774  11.693   4.524  13.919
36234W        W 2775   2.445   7.893  13.247
36235W        W 2776  18.715  36.293  12.103
36236W        W 2777  27.448   7.834  14.542
36237W        W 2778  43.075  12.348   2.148
36238W        W 2779   9.686  15.862   0.508
36239W        W 2780  35.220  18.739   5.127
36240W        W 2781  41.981  22.960   2.849
36241W        W 2782  27.252  41.557   3.992
36242W        W 2783  38.658  27.664  14.692
36243W        W 2784  26.031  36.023  11.169
36244W        W 2785  17.570  11.666   1.315
36245W        W 2786  28.660  13.602  11.180
36246W        W 2787  29.191  25.032   1.405
36247W        W 2788  29.914  13.199   1.301
36248W        W 2789  37.910   7.883   0.798
36249W        W 2790   4.185   1.656  13.070
36250W        W 2791   1.027   4.713  11.993
36251W        W 2792   8.703  33.145  11.074
36252W        W 2793  28.529  39.465   1.386
36253W        W 2794  24.153   3.866   3.835
36254W        W 2795   6.372  26.060  14.543
36255W        W 2796  36.538  28.907   0.466
36256W        W 2797  20.132   4.537   4.183
36257W        W 2798  13.800  21.311  11.161
36258W        W 2799  21.023  17.600   4.618
36259W        W 2800  36.503   3.350  13.419
36260W        W 2801   5.825  38.404   1.942
36261W        W 2802  25.423  29.892  11.162
36262W        W 2803   7.906  26.126  12.722
36263W        W 2804   4.946  31.111  10.726
36264W        W 2805  25.661   9.753   1.871
36265W        W 2806  14.342  17.237  12.899
36266W        W 2807  43.477  10.599  10.773
36267W        W 2808  43.891   2.793  11.656
36268W        W 2809  31.591  33.155   3.683
36269W        W 2810  29.512  36.945  11.178
36270W        W 2811  16.090  33.700   5.057
36271W        W 2812   2.908   7.354   2.893
36272W        W 2813  24.197  16.383   3.252
36273W        W 2814  34.447  11.931  13.075
36274W        W 2815  27.601  10.379  11.386
36275W        W 2816  10.634  28.717   3.993
36276W        W 2817   4.937  25.730   0.433
36277W        W 2818   2.557   3.522  10.924
36278W        W 2819  31.396  39.828   4.625
36279W        W 2820  11.284  39.856   0.399
36280W        W 2821  12.725  15.094   4.830
36281W        W 2822  43.927  12.208   3.163
36282W        W 2823  25.575  29.930  12.866
36283W        W 2824   8.823  41.981  12.696
36284W        W 2825  15.132  16.575   2.858
36285W        W 2826   0.876  33.190  13.993
36286W        W 2827  43.867  42.830   1.229
36287W        W 2828   3.370  21.604   1.730
36288W        W 2829  14.853  31.442   3.169
36289W        W 2830   1.693  29.008  13.072
36290W        W 2831  11.834  24.978   4.127
36291W        W 2832  39.648  10.788   2.209
36292W        W 2833  40.638  17.776   0.291
36293W        W 2834  35.384  18.054   1.578
36294W        W 2835  36.495  25.567   1.931
36295W        W 2836  22.446  16.704   3.243
36296W        W 2837   1.459  24.795  12.542
36297W        W 2838  28.276  17.707  10.560
36298W        W 2839   6.892  21.073  14.834
36299W        W 2840  21.589  35.095  12.873
36300W        W 2841   4.288  19.121  13.548
36301W        W 2842  26.825   9.051   0.351
36302W        W 2843   5.864  18.470   0.869
36303W        W 2844  16.085  21.706  11.466
36304W        W 2845  24.980  26.413  10.387
36305W        W 2846  33.947  34.987   4.668
36306W        W 2847  42.438  11.765   0.834
36307W        W 2848  22.258   4.893  11.566
36308W        W 2849  11.933  10.300   4.467
36309W        W 2850   3.355  26.022   1.889
36310W        W 2851  32.621  19.782   3.702
36311W        W 2852  15.381   2.107  11.235
36312W        W 2853  28.952  14.611   1.793
36313W        W 2854  23.767  26.594  14.308
36314W        W 2855  15.876   2.024   4.075
36315W        W 2856  40.957  20.690   3.231
36316W        W 2857  29.396  36.935  10.665
36317W        W 2858   0.702  37.481  10.565
36318W        W 2859  41.976  23.996  13.899
36319W        W 2860  28.703   8.957   1.308
36320W        W 2861  13.904  42.425  12.418
36321W        W 2862  38.809  32.380  12.410
36322W        W 2863  10.737  24.181   4.057
36323W        W 2864  24.578  32.666  13.550
36324W        W 2865  32.415  42.615   0.462
36325W        W 2866   4.741  26.980  14.437
36326W        W 2867   4.454  24.962  11.593
36327W        W 2868  17.712  19.006   1.318
36328W        W 2869  12.692  30.689   1.575
36329W        W 2870  15.706  38.896   1.367
36330W        W 2871  35.059  17.782   3.338
36331W        W 2872  37.500  31.131  11.574
36332W        W 2873  12.861  12.578  10.544
36333W        W 2874   3.548  26.588  12.082
36334W        W 2875   9.420  11.366   4.035
36335W        W 2876  22.133   0.377   3.010
36336W        W 2877  11.376   0.227  13.588
36337W        W 2878   1.644  29.447  10.746
36338W        W 2879  17.917  30.174   3.745
36339W        W 2880  30.894  21.521  10.577
36340W        W 2881   7.710  38.801   2.775
36341W        W 2882  33.791  11.731   2.184
36342W        W 2883  32.563  43.282  11.291
36343W        W 2884  35.965   3.480  11.859
36344W        W 2885  20.597  35.295   1.353
36345W        W 2886  27.859  25.536   3.334
36346W        W 2887   5.770   5.633  11.147
36347W        W 2888  41.908  44.467   2.901
36348W        W 2889  38.464  44.065   1.231
36349W        W 2890  13.838  20.299  11.218
36350W        W 2891  41.724  14.275  13.436
36351W        W 2892  22.014  26.152  13.821
36352W        W 2893   4.958  35.586   2.838
36353W        W 2894  10.306  21.701   2.367
36354W        W 2895  24.967  30.203   1.800
36355W        W 2896  21.411  18.809   0.709
36356W        W 2897   0.819  39.398  11.880
36357W        W 2898  16.037  20.327  12.589
36358W        W 2899  17.282  35.896  12.883
36359W        W 2900  22.498  10.401  11.231
36360W        W 2901  44.095  14.762  10.853
36361W        W 2902  36.933  17.629  13.892
36362W        W 2903  16.346   2.788   0.182
36363W        W 2904  39.036  24.222   1.873
36364W        W 2905  23.561  20.682  12.409
36365W        W 2906   4.820  13.362   1.804
36366W        W 2907  34.433  22.973  14.530
36367W        W 2908  19.671  20.030  14.839
36368W        W 2909  21.149  15.741   1.158
36369W        W 2910   1.192   8.632  12.484
36370W        W 2911  16.032   5.645  12.501
36371W        W 2912   5.452  28.732   4.598
36372W        W 2913   9.849  36.915   1.284
36373W        W 2914  12.620   2.187  11.052
36374W        W 2915   9.773  11.710  14.110
36375W        W 2916   9.076  30.593   1.077
36376W        W 2917   3.877  19.136  14.891
36377W        W 2918  20.387   5.679  14.250
36378W        W 2919  12.647  33.121  10.186
36379W        W 2920  13.889  24.227  12.480
36380W        W 2921  29.310  44.708  11.306
36381W        W 2922  38.879   0.385  12.665
36382W        W 2923  18.297   7.214  12.072
36383W        W 2924  19.084   4.420  13.114
36384W        W 2925  14.656  37.374   0.969
36385W        W 2926  25.143  17.131  12.349
36386W        W 2927  37.154  11.225   3.239
36387W        W 2928   9.549  40.410  12.031
36388W        W 2929  36.302  14.726   0.961
36389W        W 2930  22.864   2.318   1.094
36390W        W 2931   6.541  34.589  11.996
36391W        W 2932  37.812  41.837   3.691
36392W        W 2933  43.755   6.576  14.887
36393W        W 2934  23.330  38.846  13.117
36394W        W 2935   8.443  39.459   1.338
36395W        W 2936  14.182  21.046   1.713
36396W        W 2937   4.841  41.867   2.667
36397W        W 2938  27.197  17.747   4.340
36398W        W 2939  35.600  33.066   4.923
36399W        W 2940  31.608  12.189   1.820
36400W        W 2941  42.480  12.706   3.675
36401W        W 2942  13.081  24.236   4.176
36402W        W 2943   2.823  39.478   4.444
36403W        W 2944  24.692  44.199  14.544
36404W        W 2945   3.399   3.866   2.272
36405W        W 2946  39.447  35.550  12.023
36406W        W 2947  29.232   4.937   1.841
36407W        W 2948  23.289  34.473  14.933
36408W        W 2949  29.662  26.160   4.926
36409W        W 2950  15.972  22.942   2.860
36410W        W 2951  16.730  20.536  14.267
36411W        W 2952  18.060  23.236  14.388
36412W        W 2953   6.361  11.806   2.642
36413W        W 2954  14.701   9.240  13.767
36414W        W 2955   3.478   9.401  13.771
36415W        W 2956   6.325   9.755   2.407
36416W        W 2957  28.120  24.474   0.283
36417W        W 2958  30.907   9.148   1.097
36418W        W 2959  40.685  40.504   2.899
36419W        W 2960  23.461  13.824   0.310
36420W        W 2961  32.149  28.648   2.155
36421W        W 2962  24.484   0.918  13.140
36422W        W 2963  44.161  43.190  10.305
36423W        W 2964  29.050  26.215  12.455
36424W        W 2965  14.406  35.201  12.800
36425W        W 2966   0.503   7.259   3.937
36426W        W 2967  37.593  15.675  14.049
36427W        W 2968  14.867  30.426   3.131
36428W        W 2969  28.591  16.379   3.272
36429W        W 2970  40.339   1.906   3.212
36430W        W 2971  24.009  40.365  14.884
36431W        W 2972   8.342  34.482   3.808
36432W        W 2973  20.320  14.418  14.995
36433W        W 2974  29.909   4.426   1.221
36434W        W 2975  30.994  12.712   4.501
36435W        W 2976  15.274  21.182  12.641
36436W        W 2977  25.640  26.117  14.222
36437W        W 2978  37.200   9.978  14.239
36438W        W 2979  26.043  25.952  13.389
36439W        W 2980   9.320  15.332  11.100
36440W        W 2981  10.663  26.197  13.890
36441W        W 2982  32.990   0.344   1.341
36442W        W 2983  37.955  35.892   3.403
36443W        W 2984  27.718  29.183   1.477
36444W        W 2985  23.930   6.108  14.532
36445W        W 2986   0.735  35.893  14.396
36446W        W 2987  14.040   4.313  13.668
36447W        W 2988  15.558  29.597  11.104
36448W        W 2989   5.148  28.021   1.952
36449W        W 2990   5.276  30.101  12.533
36450W        W 2991  17.466  11.546   5.093
36451W        W 2992  10.152   7.347   1.683
36452W        W 2993  21.106  22.552   0.888
36453W        W 2994  29.731  36.081   4.755
36454W        W 2995  25.286  43.974   4.171
36455W        W 2996  29.490  37.690   0.009
36456W        W 2997   1.807   9.830   3.123
36457W        W 2998  35.852  42.929  13.101
36458W        W 2999  39.930   5.234  12.893
36459W        W 3000  15.320  39.929   2.766
36460W        W 3001   1.348  37.797  14.369
36461W        W 3002   1.974  19.227  13.688
36462W        W 3003   3.811   7.054   1.232
36463W        W 3004  36.909  32.005   2.956
36464W        W 3005  22.539  15.143  12.580
36465W        W 3006   6.818  32.215   0.174
36466W        W 3007  36.151  11.626  10.399
36467W        W 3008  14.014  28.151  12.679
36468W        W 3009  38.549   9.082   1.348
36469W        W 3010   7.428  39.893  12.603
36470W        W 3011  20.115  18.570  10.162
36471W        W 3012  12.115  37.960  11.496
36472W        W 3013  44.525  13.728  12.677
36473W        W 3014  21.968  19.876  13.416
36474W        W 3015  19.326  32.554  11.516
36475W        W 3016  42.336   9.744   0.923
36476W        W 3017   0.444  21.986   0.770
36477W        W 3018  36.812   7.828   2.278
36478W        W 3019   9.355  12.650  10.656
36479W        W 3020  13.846  40.831   3.114
36480W        W 3021  30.810  20.125  11.611
36481W        W 3022  33.545  39.400  14.923
36482W        W 3023  10.877  38.545  12.945
36483W        W 3024  39.877  32.052  11.550
36484W        W 3025  14.132  22.220  14.546
36485W        W 3026  34.964  14.272   0.410
36486W        W 3027  26.002  12.187  14.440
36487W        W 3028  12.617  41.206   1.678
36488W        W 3029  34.203  19.058   0.918
36489W        W 3030  16.833  33.087   1.692
36490W        W 3031  29.777  26.621   1.743
36491W        W 3032  24.720  17.161   3.184
36492W        W 3033   2.335   1.048  12.406
36493W        W 3034  17.131   0.786  14.367
36494W        W 3035  30.147  10.298  10.332
36495W        W 3036  12.085   1.855  11.523
36496W        W 3037  29.861  36.510  11.682
36497W        W 3038  20.815   1.778   3.062
36498W        W 3039  38.711  31.302  14.932
36499W        W 3040  25.877  36.977  14.885
36500W        W 3041  42.968   3.699  13.550
36501W        W 3042  36.680   8.879  13.540
36502W        W 3043  40.838  21.763  14.928
36503W        W 3044  10.798  12.432   0.267
36504W        W 3045   9.198  35.871  10.783
36505W        W 3046  39.251  19.133   2.291
36506W        W 3047  32.536  19.431  13.364
36507W        W 3048  41.948  19.572   2.341
36508W        W 3049  44.946   5.410  13.945
36509W        W 3050  11.913  26.519  12.030
36510W        W 3051  14.789  31.701   2.718
36511W        W 3052  13.063  27.916  11.982
36512W        W 3053  21.506  37.135   0.778
36513W        W 3054   1.977  35.859  12.989
36514W        W 3055  22.617  30.720  10.204
36515W        W 3056  13.212   1.853   2.212
36516W        W 3057  38.150  17.715  14.525
36517W        W 3058   5.845  33.200  14.398
36518W        W 3059  17.079   5.354   1.933
36519W        W 3060  18.807  15.238   2.754
36520W        W 3061  38.363  32.915   0.743
36521W        W 3062  34.410   3.562   5.009
36522W        W 3063  26.643   5.483  12.384
36523W        W 3064  29.393  35.074  12.478
36524W        W 3065   1.985  20.066  14.849
36525W        W 3066   1.308  21.484   3.376
36526W        W 3067   6.583  29.379   4.435
36527W        W 3068  42.945  19.669   3.268
36528W        W 3069  38.939  12.833  12.853
36529W        W 3070  25.627  39.234   0.284
36530W        W 3071  32.101   1.252  13.136
36531W        W 3072  13.144  17.142   4.504
36532W        W 3073  33.475  35.282   0.008
36533W        W 3074  42.523   7.282  12.928
36534W        W 3075   3.883  18.186  11.217
36535W        W 3076  10.404  10.431   1.977
36536W        W 3077  36.209  44.841  13.010
36537W        W 3078  15.036  42.929   9.919
36538W        W 3079  22.994   5.850  12.640
36539W        W 3080  23.109  36.606   2.349
36540W        W 3081  11.823  34.458   3.584
36541W        W 3082   8.956  13.103   0.649
36542W        W 3083  40.374   5.924  14.786
36543W        W 3084  26.529  13.273   4.309
36544W        W 3085  13.639   6.678   3.285
36545W        W 3086  34.555  19.046   1.284
36546W        W 3087   0.701  35.590   1.947
36547W        W 3088  18.068  25.907  14.565
36548W        W 3089   4.701   9.926   2.782
36549W        W 3090  26.217  32.858  11.544
36550W        W 3091   0.704   9.189  13.066
36551W        W 3092   5.230  13.751   1.277
36552W        W 3093  25.518  34.563  10.316
36553W        W 3094  38.529   0.709   3.232
36554W        W 3095  14.914  38.924   2.834
36555W        W 3096   7.680  35.406   4.879
36556W        W 3097  33.446  20.622  14.913
36557W        W 3098  16.078  16.212  14.385
36558W        W 3099  36.116  15.546   0.669
36559W        W 3100   7.339   4.274  10.688
36560W        W 3101   1.006  12.632  13.774
36561W        W 3102  29.091  19.286   0.954
36562W        W 3103  28.166   5.048   0.436
36563W        W 3104  31.957  14.302   1.448
36564W        W 3105  35.190  25.014  11.133
36565W        W 3106  35.467  28.014  14.008
36566W        W 3107  14.835  28.542   3.228
36567W        W 3108  41.681  42.760   3.947
36568W        W 3109  16.808  41.791  13.837
36569W        W 3110  12.688  33.099  12.901
36570W        W 3111  10.954  40.399   2.297
36571W        W 3112  26.508  13.342  11.751
36572W        W 3113  31.362  23.232  10.716
36573W        W 3114  10.159   8.400  14.574
36574W        W 3115  38.446  27.631   2.018
36575W        W 3116   2.944  44.966   1.327
36576W        W 3117  32.942  23.638   4.513
36577W        W 3118   8.648   1.814  12.017
36578W        W 3119  32.347   4.729  14.359
36579W        W 3120  20.443  31.069   4.617
36580W        W 3121  10.463  32.665   2.086
36581W        W 3122  31.623  41.308  10.570
36582W        W 3123  40.477  29.374   1.722
36583W        W 3124  25.440  20.159  12.165
36584W        W 3125  16.407  19.646  13.918
36585W        W 3126  39.642  41.255  13.431
36586W        W 3127  42.442  22.672   2.860
36587W        W 3128  15.275  22.062   2.824
36588W        W 3129   6.589  40.121   2.427
36589W        W 3130  11.467  30.929   4.035
36590W        W 3131   4.834  38.091   1.692
36591W        W 3132  20.766   5.188   0.567
36592W        W 3133   4.715   3.743   1.728
36593W        W 3134  25.466  20.717  12.064
36594W        W 3135  13.817  16.244   0.469
36595W        W 3136  21.549   9.150   2.321
36596W        W 3137  25.291  42.105  13.799
36597W        W 3138  10.620  25.992   4.596
36598W        W 3139  35.880  19.643  11.215
36599W        W 3140  13.648   5.481  11.933
36600W        W 3141  20.689   2.766   0.921
36601W        W 3142  30.563   4.413  12.353
36602W        W 3143  17.670  22.164  13.522
36603W        W 3144  13.561  28.868   4.064
36604W        W 3145  35.243  32.195  12.046
36605W        W 3146  12.747  25.124  13.763
36606W        W 3147  17.010   3.485  10.594
36607W        W 3148  27.547  14.274  10.773
36608W        W 3149  24.553  24.009   2.784
36609W        W 3150  43.738  36.900  11.047
36610W        W 3151  34.408  18.376   4.420
36611W        W 3152  11.693  16.529  10.629
36612W        W 3153  20.868  38.489  14.931
36613W        W 3154  44.376  24.422   3.218
36614W        W 3155  27.116   8.405  13.825
36615W        W 3156  42.559  26.134   2.860
36616W        W 3157  16.651  12.280  13.402
36617W        W 3158  37.539  28.021  14.927
36618W        W 3159  13.121  36.463  12.994
36619W        W 3160   5.231  41.212   4.969
36620W        W 3161   4.882  23.988   0.814
36621W        W 3162  25.526  30.745   2.337
36622W        W 3163  11.268  36.765  13.951
36623W        W 3164   3.652   8.776  14.361
36624W        W 3165  25.150  15.926  12.121
36625W        W 3166  24.597   5.953  14.223
36626W        W 3167  13.079  12.234  11.955
36627W        W 3168  26.578  43.590  10.933
36628W        W 3169  10.134  36.047   1.929
36629W        W 3170  15.129   0.098   1.951
36630W        W 3171  12.760   6.311   2.011
36631W        W 3172  39.497  11.785   0.165
36632W        W 3173  10.464   0.692  14.396
36633W        W 3174   9.753   2.199   0.654
36634W        W 3175  12.941  37.420  10.959
36635W        W 3176  30.665  30.309   3.844
36636W        W 3177   5.688   8.267  11.314
36637W        W 3178  16.261  29.159   4.111
36638W        W 3179  19.828   1.821   4.531
36639W        W 3180  40.392  21.494  14.972
36640W        W 3181   3.685   0.053   2.531
36641W        W 3182  42.754   5.188  14.998
36642W        W 3183  20.653  43.251  13.743
36643W        W 3184  24.686   6.691  11.474
36644W        W 3185  17.652  22.698   0.853
36645W        W 3186  36.463   3.408  11.043
36646W        W 3187  36.052  27.196   4.702
36647W        W 3188  43.973  13.259   0.733
36648W        W 3189  42.939  32.137   3.378
36649W        W 3190   4.020   7.346  12.889
36650W        W 3191  22.514  43.214   4.561
36651W        W 3192   4.076  22.167   9.858
36652W        W 3193  27.755  34.907   4.773
36653W        W 3194  22.136  36.314  13.539
36654W        W 3195   1.236  40.972  13.080
36655W        W 3196  28.200  28.177  10.792
36656W        W 3197  40.020  25.919  10.675
36657W        W 3198  31.466  42.865   2.728
36658W        W 3199   9.488  36.353  12.442
36659W        W 3200  37.981   4.905   3.184
36660W        W 3201  13.293  43.112   4.380
36661W        W 3202   2.425  10.353   3.103
36662W        W 3203  16.881   8.814   3.104
36663W        W 3204  35.394  29.447   4.501
36664W        W 3205  19.444  40.120   0.398
36665W        W 3206  34.481  31.145   0.090
36666W        W 3207  41.308  34.046   1.676
36667W        W 3208   4.414  39.102   5.019
36668W        W 3209  38.601  33.930  11.954
36669W        W 3210  29.371  40.422   1.478
36670W        W 3211  39.372  26.699  10.638
36671W        W 3212  23.058  14.069   4.838
36672W        W 3213  37.083  35.562  11.673
36673W        W 3214  39.552  32.353   2.745
36674W        W 3215  19.107  23.107   0.460
36675W        W 3216  21.929  41.466  13.915
36676W        W 3217   0.837  24.721  11.429
36677W        W 3218  19.490  28.654   4.544
36678W        W 3219   5.677  21.536   3.292
36679W        W 3220  10.458  32.906  13.431
36680W        W 3221  42.265  20.505   2.358
36681W        W 3222  35.376  14.534  12.013
36682W        W 3223  38.022  26.068   1.284
36683W        W 3224  38.388  13.343  14.230
36684W        W 3225  40.431  12.151  11.561
36685W        W 3226  10.342  11.640  10.583
36686W        W 3227  44.960   8.293  14.701
36687W        W 3228  34.013   6.837  14.772
36688W        W 3229  23.548  35.028  13.473
36689W        W 3230  14.383  10.974  11.631
36690W        W 3231  41.906  42.896  10.717
36691W        W 3232   1.088  43.106  14.087
36692W        W 3233  33.904  43.909  11.954
36693W        W 3234  12.071   9.807   4.605
36694W        W 3235  23.435  42.856  13.533
36695W        W 3236  17.535  35.409  10.717
36696W        W 3237   5.141  36.779   2.733
36697W        W 3238  36.277  20.133   2.342
36698W        W 3239  31.934   5.051  14.364
36699W        W 3240  38.580   2.755  12.506
36700W        W 3241   1.748  36.774   4.295
36701W        W 3242  32.336  13.804   1.227
36702W        W 3243   4.635  28.913  14.708
36703W        W 3244  12.355  11.640   0.243
36704W        W 3245   1.612  34.797  13.417
36705W        W 3246  24.557  21.502   3.731
36706W        W 3247  38.054  33.194   0.395
36707W        W 3248  43.563  34.917  10.813
36708W        W 3249  31.160   4.433  13.673
36709W        W 3250   6.382  14.048   4.512
36710W        W 3251   7.590  16.709   2.844
36711W        W 3252  36.275  43.540  10.609
36712W        W 3253  31.985   5.925   1.902
36713W        W 3254  13.311   8.523   0.921
36714W        W 3255  25.768   2.543  11.276
36715W        W 3256  39.932  24.529  13.621
36716W        W 3257  15.260  14.003  12.077
36717W        W 3258  10.839  39.334  14.031
36718W        W 3259  41.408  30.679   2.376
36719W        W 3260  38.501  32.587   1.901
36720W        W 3261  22.056  37.261  12.100
36721W        W 3262  22.534  44.206   2.407
36722W        W 3263   2.782  42.898   0.936
36723W        W 3264  17.521   0.892  14.020
36724W        W 3265   5.842  36.001  13.613
36725W        W 3266  25.221  12.460   1.924
36726W        W 3267  15.994  36.064  12.386
36727W        W 3268  25.442  24.082   1.362
36728W        W 3269   6.745  35.329  11.022
36729W        W 3270  24.327   0.758  13.953
36730W        W 3271  44.724   0.051   4.312
36731W        W 3272  23.489  43.844   3.747
36732W        W 3273  44.906  13.112   4.175
36733W        W 3274  17.499  31.931  14.934
36734W        W 3275  19.008  32.988  11.552
36735W        W 3276  22.803   8.265  14.884
36736W        W 3277  31.470  26.221  12.463
36737W        W 3278   0.488  29.507  11.506
36738W        W 3279  10.292   9.532   1.771
36739W        W 3280  20.612  16.567   1.388
36740W        W 3281  31.628  30.935  11.061
36741W        W 3282   3.022  12.251   3.975
36742W        W 3283   5.906  24.116  12.844
36743W        W 3284   2.748  27.728   3.717
36744W        W 3285  40.445  29.036  12.194
36745W        W 3286  43.365  25.250   4.234
36746W        W 3287  37.553  33.241  12.534
36747W        W 3288   4.952  26.787   5.489
36748W        W 3289  43.024  11.180  11.243
36749W        W 3290  42.334  26.900  13.114
36750W        W 3291  42.568  31.568  14.435
36751W        W 3292  38.504  33.933  10.726
36752W        W 3293   6.849  21.599  11.495
36753W        W 3294  17.730  21.717  14.276
36754W        W 3295  40.636   9.236   3.296
36755W        W 3296  26.932   7.414   2.693
36756W        W 3297  20.746  24.972  13.906
36757W        W 3298  28.802  43.960   0.476
36758W        W 3299  41.103  42.304   1.195
36759W        W 3300  34.069   2.080  14.856
36760W        W 3301   7.208  40.041  14.499
36761W        W 3302  23.047  14.241  11.679
36762W        W 3303  44.875  33.089   3.708
36763W        W 3304  39.907  21.236  14.225
36764W        W 3305  16.096  22.297  13.759
36765W        W 3306  29.468  33.073   4.040
36766W        W 3307  35.047   0.203   2.228
36767W        W 3308  21.219   7.633  12.163
36768W        W 3309  44.564  30.314  10.259
36769W        W 3310   6.880  17.600  12.625
36770W        W 3311  12.860  20.119  13.460
36771W        W 3312  31.365  38.258  11.065
36772W        W 3313  38.920  40.976   0.702
36773W        W 3314  20.177  27.415   3.188
36774W        W 3315  32.317  23.472  11.136
36775W        W 3316  36.077  42.009  11.568
36776W        W 3317   2.782  27.127   1.006
36777W        W 3318  22.154  14.168   3.887
36778W        W 3319  22.728  20.559  13.097
36779W        W 3320  13.799  21.588  14.936
36780W        W 3321   7.363   7.227   4.717
36781W        W 3322  33.811  22.716   3.277
36782W        W 3323  25.972  29.169  12.883
36783W        W 3324  29.976  16.714  13.874
36784W        W 3325  33.996  31.017  13.861
36785W        W 3326  33.557  14.204  11.897
36786W        W 3327  30.510  30.022   3.011
36787W        W 3328  18.291  10.721  12.462
36788W        W 3329   5.554  31.866  11.555
36789W        W 3330   7.331  34.662   2.339
36790W        W 3331   0.178  21.466   3.142
36791W        W 3332  39.929  32.091  14.713
36792W        W 3333   5.162   6.066   0.925
36793W        W 3334  40.897  28.011  13.213
36794W        W 3335  18.342  12.045   2.248
36795W        W 3336  34.998  19.304   1.225
36796W        W 3337  16.170  42.308  11.170
36797W        W 3338   0.902  43.032   3.270
36798W        W 3339  12.267  38.733  14.847
36799W        W 3340  28.675  37.291  14.959
36800W        W 3341  26.189  19.590  10.937
36801W        W 3342  42.964  33.102   2.310
36802W        W 3343  21.607  17.072   4.076
36803W        W 3344  22.119  26.178  11.568
36804W        W 3345  39.736  34.540  14.928
36805W        W 3346  44.454   6.124  13.385
36806W        W 3347   7.672  11.116   1.719
36807W        W 3348   8.877  17.628  11.080
36808W        W 3349   7.805  14.370   0.791
36809W        W 3350  34.922  42.055   1.211
36810W        W 3351   6.228  42.818  11.192
36811W        W 3352  43.933  11.209  11.135
36812W        W 3353  25.029  36.051   4.699
36813W        W 3354  23.224  25.166   1.131
36814W        W 3355  14.308  35.103  11.757
36815W        W 3356  10.825  38.679   2.627
36816W        W 3357  34.497  44.988  13.535
36817W        W 3358  42.897  16.830  10.685
36818W        W 3359  14.646  41.223   4.078
36819W        W 3360  24.600  17.946   4.348
36820W        W 3361  13.224   7.767  10.908
36821W        W 3362  25.072   9.270  11.582
36822W        W 3363  26.985  24.776   1.827
36823W        W 3364   2.945  39.746  14.870
36824W        W 3365  16.070  22.657   4.840
36825W        W 3366  15.116   6.879   0.945
36826W        W 3367   9.599   8.331   3.564
36827W        W 3368   0.162   5.152  14.834
36828W        W 3369  33.785  20.636   4.042
36829W        W 3370  24.497  34.324  11.796
36830W        W 3371  36.519  10.542   3.945
36831W        W 3372  19.684  33.218  14.396
36832W        W 3373   1.719  27.527   3.742
36833W        W 3374  11.580  15.642  10.696
36834W        W 3375  31.418  33.442   2.164
36835W        W 3376   2.397  26.733   0.380
36836W        W 3377  16.152  25.293   0.282
36837W        W 3378  18.548   5.295   2.742
36838W        W 3379   1.025  42.239   2.835
36839W        W 3380  36.398  12.467  14.443
36840W        W 3381  42.251  19.142   3.362
36841W        W 3382  25.965  36.916   2.403
36842W        W 3383   4.485  40.531   2.762
36843W        W 3384  37.094  41.500   0.850
36844W        W 3385  29.758  25.126   2.699
36845W        W 3386   0.265  42.300   4.031
36846W        W 3387  30.308  43.864  11.962
36847W        W 3388  17.783  32.627  12.349
36848W        W 3389   8.239  37.334   4.986
36849W        W 3390   5.822  23.525  14.061
36850W        W 3391  29.184  18.770  13.033
36851W        W 3392  17.921  39.303   4.556
36852W        W 3393  26.201  40.583  12.505
36853W        W 3394  12.138  36.260  11.255
36854W        W 3395  24.064  34.973  13.317
36855W        W 3396  39.898  32.825   1.838
36856W        W 3397   7.381  17.286  11.774
36857W        W 3398  40.383  44.392  11.969
36858W        W 3399   0.824  24.147  13.669
36859W        W 3400   0.876   8.957  11.711
36860W        W 3401  15.552  14.040  14.901
36861W        W 3402   0.727  37.175  13.769
36862W        W 3403  39.053  18.403   4.491
36863W        W 3404   3.315   6.232   4.580
36864W        W 3405  17.679   0.991  12.706
36865W        W 3406  38.629  14.825   2.688
36866W        W 3407  44.653  23.207   2.300
36867W        W 3408   7.776   5.704   2.868
36868W        W 3409  32.597  29.068  13.205
36869W        W 3410  29.107  19.787   0.189
36870W        W 3411   4.466  38.544   0.737
36871W        W 3412  25.499  38.479  13.992
36872W        W 3413  22.154  40.918  14.791
36873W        W 3414  16.122  39.973  13.961
36874W        W 3415   4.453  12.850  11.076
36875W        W 3416  34.526  22.486  13.153
36876W        W 3417   4.955  18.121   0.371
36877W        W 3418  13.599  29.582   1.233
36878W        W 3419   2.473  41.963  14.822
36879W        W 3420  23.965  20.671   4.862
36880W        W 3421   0.157  41.487   1.778
36881W        W 3422  24.088   7.154   2.706
36882W        W 3423  19.765  33.368   4.053
36883W        W 3424  19.124  24.270   0.904
36884W        W 3425  24.667  38.292  14.922
36885W        W 3426  15.683  21.134  12.962
36886W        W 3427  38.290  26.999   0.881
36887W        W 3428  13.837   5.376  11.462
36888W        W 3429  18.800  21.650   3.171
36889W        W 3430  25.982  15.664   3.717
36890W        W 3431  13.285   9.820  14.103
36891W        W 3432  10.565  42.544  10.148
36892W        W 3433  21.211  19.208  10.787
36893W        W 3434   6.193  35.210   1.384
36894W        W 3435  39.826   4.354  11.153
36895W        W 3436  35.713  19.170   4.589
36896W        W 3437  18.593  28.459  14.767
36897W        W 3438  29.172  34.482   2.748
36898W        W 3439  31.460  35.442   0.700
36899W        W 3440   9.275  28.250  13.985
36900W        W 3441  25.181  29.189  11.234
36901W        W 3442  11.779  14.207   3.730
36902W        W 3443  36.770  14.231   4.309
36903W        W 3444  13.919  35.758  14.437
36904W        W 3445   1.850   5.819   2.839
36905W        W 3446  39.208  32.811  12.305
36906W        W 3447  36.776   3.253  14.873
36907W        W 3448  35.597  10.504  14.938
36908W        W 3449  42.226   3.334  14.091
36909W        W 3450   4.831  29.829   5.055
36910W        W 3451   1.523  22.337  13.607
36911W        W 3452  40.804  18.887   4.642
36912W        W 3453  37.052  32.774   1.683
36913W        W 3454  38.549  34.539   2.745
36914W        W 3455  26.963  34.834   2.297
36915W        W 3456   9.150  29.456  13.271
36916W        W 3457  11.661  30.550   0.736
36917W        W 3458  44.785  17.108   4.158
36918W        W 3459  23.649   8.877  11.718
36919W        W 3460  38.389  26.679  14.925
36920W        W 3461  16.274  40.978   1.116
36921W        W 3462  23.674  12.816   0.438
36922W        W 3463  25.322  37.606  12.323
36923W        W 3464  12.570  40.902  13.338
36924W        W 3465   3.497  17.567   1.203
36925W        W 3466  32.423   9.773   1.830
36926W        W 3467  19.847  44.710  11.637
36927W        W 3468   9.386  44.433  13.747
36928W        W 3469   7.319  18.959   4.512
36929W        W 3470  32.477  33.682   0.796
36930W        W 3471   2.670  38.116   0.451
36931W        W 3472  11.804  20.710  10.297
36932W        W 3473  42.675  24.015   1.646
36933W        W 3474   8.692   6.666  10.684
36934W        W 3475  14.735   1.717  11.640
36935W        W 3476  31.354  18.113  13.420
36936W        W 3477  25.558  15.247  14.101
36937W        W 3478   6.847  19.812   2.412
36938W        W 3479  19.779  21.323   0.079
36939W        W 3480  30.996   0.767  11.597
36940W        W 3481  17.832  38.393  11.891
36941W        W 3482  29.341  38.981   4.535
36942W        W 3483   9.608   2.895  11.568
36943W        W 3484  13.747  29.651  12.943
36944W        W 3485  41.366  33.914   0.408
36945W        W 3486  15.103  26.140   5.032
36946W        W 3487   2.175  39.962   2.336
36947W        W 3488   7.811  13.218  14.358
36948W        W 3489  15.119   8.868  11.996
36949W        W 3490   6.660  30.814   3.339
36950W        W 3491  22.716  14.804   0.772
36951W        W 3492  34.133  31.370   3.759
36952W        W 3493   1.828  26.999  13.070
36953W        W 3494   1.233   6.244   3.319
36954W        W 3495  27.218   1.861   0.353
36955W        W 3496  25.179  32.900   1.969
36956W        W 3497   3.599  12.676   1.448
36957W        W 3498  32.818  24.015   4.162
36958W        W 3499  13.449   7.146   1.058
36959W        W 3500  18.253  38.557  14.438
36960W        W 3501  11.551  12.807  13.925
36961W        W 3502  40.235  38.032  13.098
36962W        W 3503  17.825  35.425   2.010
36963W        W 3504  30.911  41.972   3.586
36964W        W 3505   5.013  17.344  13.382
36965W        W 3506   8.211  30.124  11.101
36966W        W 3507  39.913  42.069  13.056
36967W        W 3508  37.882  29.650   2.293
36968W        W 3509  35.479  12.191   2.658
36969W        W 3510  18.861  35.984  10.375
36970W        W 3511  39.992  25.084  10.835
36971W        W 3512  26.586   9.156  10.833
36972W        W 3513  14.337  15.030  13.543
36973W        W 3514  12.694  26.425  12.929
36974W        W 3515  10.907  15.618   4.215
36975W        W 3516  19.216   9.151  11.863
36976W        W 3517   3.423   2.435   3.671
36977W        W 3518  38.281  18.431   4.073
36978W        W 3519  27.797  40.144   2.076
36979W        W 3520   1.164  22.939   3.288
36980W        W 3521  23.484  40.378   4.316
36981W        W 3522   8.363  43.232   3.238
36982W        W 3523   1.989  14.277  10.751
36983W        W 3524   7.478  41.904   4.056
36984W        W 3525  13.197  29.743   2.586
36985W        W 3526  28.135   2.133   3.124
36986W        W 3527  13.060  36.999  13.018
36987W        W 3528  39.356   0.293  10.356
36988W        W 3529  11.259  10.076  12.782
36989W        W 3530  28.226  15.713   2.799
36990W        W 3531   8.689  40.551  13.014
36991W        W 3532  18.857  29.443   2.762
36992W        W 3533  14.196  34.877   4.533
36993W        W 3534  25.116   8.320   4.168
36994W        W 3535  32.507  29.239  11.027
36995W        W 3536  42.050   0.723   1.314
36996W        W 3537   3.819  16.279   2.262
36997W        W 3538  26.893  30.972  12.084
36998W        W 3539   6.706  21.021  11.238
36999W        W 3540  33.965  44.284   3.293
37000W        W 3541  24.990   2.908  10.628
37001W        W 3542   8.647  44.127  14.743
37002W        W 3543  27.959  39.618  14.869
37003W        W 3544  44.566   9.659   3.654
37004W        W 3545  11.625   0.948  12.949
37005W        W 3546  11.659  42.044  13.814
37006W        W 3547  35.331  38.041   2.216
37007W        W 3548  44.479  11.234   2.443
37008W        W 3549  28.013  10.802  13.750
37009W        W 3550  16.643  20.798  14.729
37010W        W 3551  21.601  10.331   3.416
37011W        W 3552  15.076  29.551  14.494
37012W        W 3553  17.833  36.314  11.662
37013W        W 3554   0.480  36.470   1.505
37014W        W 3555  40.342  35.171   4.620
37015W        W 3556  22.097  10.387   3.195
37016W        W 3557   3.954  25.512  12.150
37017W        W 3558   6.838  13.799   4.626
37018W        W 3559  42.158  38.877  11.721
37019W        W 3560  12.638  18.762  13.476
37020W        W 3561   6.280  44.494   2.440
37021W        W 3562  17.369  27.441  11.610
37022W        W 3563   3.321  17.556  13.416
37023W        W 3564   6.105  23.124  11.583
37024W        W 3565  34.659   0.560   2.140
37025W        W 3566  16.137  25.056  11.227
37026W        W 3567  24.962   9.659  11.263
37027W        W 3568  13.161   5.378   0.445
37028W        W 3569  14.311  36.565  14.481
37029W        W 3570   9.080  27.301  10.474
37030W        W 3571  41.200  20.744  12.643
37031W        W 3572  16.720  28.340   4.106
37032W        W 3573  18.264  43.247   2.423
37033W        W 3574   7.659  14.340   4.101
37034W        W 3575   7.473  27.055  14.237
37035W        W 3576   5.644  39.847   2.266
37036W        W 3577  10.178   4.896   1.339
37037W        W 3578   6.341  32.811  11.457
37038W        W 3579  34.983   4.688  14.878
37039W        W 3580  12.373  29.986  13.342
37040W        W 3581   5.242  33.002  14.848
37041W        W 3582  42.269  11.378   0.298
37042W        W 3583  12.149  12.375  12.032
37043W        W 3584   4.833  18.271   3.292
37044W        W 3585  41.259  27.292  11.208
37045W        W 3586   1.942  15.659   2.854
37046W        W 3587  43.413  15.071   5.039
37047W        W 3588  43.728  11.056  13.746
37048W        W 3589   6.663  39.517   0.325
37049W        W 3590  27.575  34.407  11.646
37050W        W 3591   5.034  39.893  12.148
37051W        W 3592   4.845  39.068   2.812
37052W        W 3593  23.048  31.985  14.200
37053W        W 3594  33.363   0.344   1.962
37054W        W 3595  23.967  17.995  12.977
37055W        W 3596  21.125   7.217  14.124
37056W        W 3597   1.671   4.703  11.459
37057W        W 3598  34.003   0.248  14.398
37058W        W 3599  14.879  36.949   2.305
37059W        W 3600  14.892  34.533  14.409
37060W        W 3601  41.465  13.718  13.454
37061W        W 3602  40.765  44.344  14.168
37062W        W 3603  29.658  12.325   1.881
37063W        W 3604  15.780  18.079  12.170
37064W        W 3605  20.016  30.678   0.008
37065W        W 3606  35.127  13.643  14.813
37066W        W 3607   0.797  13.783  14.869
37067W        W 3608  18.855  27.532   0.737
37068W        W 3609  22.611  40.430  11.892
37069W        W 3610  34.970  13.584  13.357
37070W        W 3611  44.499  11.224   3.918
37071W        W 3612  27.358  38.599  13.043
37072W        W 3613   2.268   3.675   4.436
37073W        W 3614   5.153   8.444   0.458
37074W        W 3615  32.684  20.968   0.235
37075W        W 3616  35.671   8.302   1.466
37076W        W 3617  14.127  19.529   0.704
37077W        W 3618   3.653  33.897  11.059
37078W        W 3619  17.830  31.370   4.664
37079W        W 3620   6.278  30.499   1.622
37080W        W 3621  15.038   5.688  10.876
37081W        W 3622  44.943   6.590   0.609
37082W        W 3623   1.546  28.585   1.508
37083W        W 3624  13.724  38.845   1.380
37084W        W 3625  22.011  10.788   2.001
37085W        W 3626  40.614  12.790  11.589
37086W        W 3627  28.677  28.217   0.445
37087W        W 3628  23.987   4.970  12.918
37088W        W 3629   9.791  30.358  14.010
37089W        W 3630  39.649  18.802  11.440
37090W        W 3631  38.716  37.606   3.612
37091W        W 3632  25.028  39.854  11.950
37092W        W 3633  25.597  16.606  13.432
37093W        W 3634  29.370  25.111  13.048
37094W        W 3635   7.757  37.219  10.611
37095W        W 3636  41.779   1.263  12.876
37096W        W 3637  43.418   8.744  10.360
37097W        W 3638   0.487  39.792   0.780
37098W        W 3639  42.251  11.545  11.521
37099W        W 3640  18.882  23.721  10.432
37100W        W 3641  30.928  30.575   5.236
37101W        W 3642  28.616   8.845  14.783
37102W        W 3643  29.072   9.897  13.904
37103W        W 3644  14.790  39.913  13.640
37104W        W 3645  41.970   4.772   0.147
37105W        W 3646  31.858  37.435   3.534
37106W        W 3647   9.545   0.846   3.697
37107W        W 3648  26.771  14.065   1.378
37108W        W 3649  41.267  28.455  14.417
37109W        W 3650  20.106   6.057   0.215
37110W        W 3651  35.004  15.120  14.911
37111W        W 3652   3.633   1.769   0.836
37112W        W 3653  13.025   0.717  11.079
37113W        W 3654  11.230  42.934  11.223
37114W        W 3655  28.163  39.518   4.203
37115W        W 3656  12.054  39.419  14.321
37116W        W 3657  29.244  32.840  13.140
37117W        W 3658   2.026  37.276   0.306
37118W        W 3659  28.447  26.199   4.432
37119W        W 3660   8.677  37.867  14.775
37120W        W 3661   6.224  24.593  14.106
37121W        W 3662  11.276  27.524   4.215
37122W        W 3663  43.208  31.899  12.944
37123W        W 3664  30.214   9.328   2.306
37124W        W 3665   3.409  17.782   3.402
37125W        W 3666  28.634  20.034   4.520
37126W        W 3667  21.877  37.323  14.446
37127W        W 3668   2.716  13.100  12.994
37128W        W 3669   7.701  22.689  13.862
37129W        W 3670  34.179  35.989   3.232
37130W        W 3671  23.674  41.554   2.857
37131W        W 3672   7.628  37.335   2.370
37132W        W 3673  13.094  12.044   1.235
37133W        W 3674  43.092  40.336  14.037
37134W        W 3675   1.538  40.521   0.342
37135W        W 3676  19.342  10.228   4.206
37136W        W 3677  23.679  40.784  11.101
37137W        W 3678  29.558  32.347  12.131
37138W        W 3679  28.229  19.750   3.101
37139W        W 3680  23.802  34.480  11.212
37140W        W 3681  40.644  30.045  12.935
37141W        W 3682   9.058  18.288  11.987
37142W        W 3683  33.579  38.890   1.673
37143W        W 3684  14.087  27.602   0.232
37144W        W 3685  11.262  14.645   1.705
37145W        W 3686  19.088   1.254   2.703
37146W        W 3687  37.809  30.692  12.167
37147W        W 3688  28.980  19.213  13.429
37148W        W 3689   3.486  25.755   2.761
37149W        W 3690  43.913  41.489   2.307
37150W        W 3691  43.423   7.190   4.669
37151W        W 3692   0.511  35.533   3.287
37152W        W 3693  41.392   8.824   1.841
37153W        W 3694  14.680  19.942  14.344
37154W        W 3695   1.925  39.644   0.469
37155W        W 3696  16.715   1.161  13.052
37156W        W 3697  18.784  36.049  11.652
37157W        W 3698   0.617   3.174   4.621
37158W        W 3699  38.859  38.120  14.405
37159W        W 3700  11.033  10.480  11.895
37160W        W 3701  40.747  36.773   4.296
37161W        W 3702  12.375  27.072  12.374
37162W        W 3703   8.976  19.254  14.996
37163W        W 3704  22.590  39.379  12.979
37164W        W 3705  26.693  44.008  13.393
37165W        W 3706  34.124  18.261   1.372
37166W        W 3707  32.842  22.481  14.114
37167W        W 3708   3.661  22.978  13.788
37168W        W 3709  16.768  11.378  11.075
37169W        W 3710  11.395  21.610   0.364
37170W        W 3711  25.719   7.404  11.910
37171W        W 3712  10.345  39.329   1.682
37172W        W 3713   1.798  22.204   2.313
37173W        W 3714  18.050   7.290  12.521
37174W        W 3715  31.593  37.119  11.693
37175W        W 3716  38.775   5.876  11.143
37176W        W 3717  41.649   0.852  10.750
37177W        W 3718  15.677  19.487  14.475
37178W        W 3719  30.047  40.312  12.927
37179W        W 3720  41.595  36.896   2.235
37180W        W 3721   5.125  21.718   4.369
37181W        W 3722   9.057   6.326   5.081
37182W        W 3723  14.352  16.729   0.748
37183W        W 3724  17.748  43.787   2.154
37184W        W 3725   5.275  27.193  10.161
37185W        W 3726  12.139  42.758  11.228
37186W        W 3727  44.011  35.939   1.200
37187W        W 3728  28.422  43.943   1.782
37188W        W 3729  32.718  42.042   2.639
37189W        W 3730  12.550  40.956  14.359
37190W        W 3731  12.885  30.345   2.406
37191W        W 3732  29.924   0.305  12.015
37192W        W 3733  36.389  32.072  14.875
37193W        W 3734   7.458  44.530  13.046
37194W        W 3735  23.549   6.856   4.458
37195W        W 3736  15.494  38.882   0.898
37196W        W 3737   4.802  13.825  13.489
37197W        W 3738  26.718  21.677   2.861
37198W        W 3739  40.945   7.024   4.532
37199W        W 3740  37.460  17.921  12.807
37200W        W 3741   1.436  29.122  10.418
37201W        W 3742   0.279   2.869   4.882
37202W        W 3743  24.139   8.918   1.829
37203W        W 3744  39.040  12.714  13.560
37204W        W 3745   8.382  20.581  11.177
37205W        W 3746  14.996  34.474   2.066
37206W        W 3747  15.086  41.453  11.578
37207W        W 3748   8.851  14.670  11.504
37208W        W 3749  44.824   0.739  11.965
37209W        W 3750  11.666  41.784  14.261
37210W        W 3751  16.839  42.313   0.583
37211W        W 3752  15.565  26.646  13.386
37212W        W 3753  42.266  22.649  13.066
37213W        W 3754  13.225  33.568  11.129
37214W        W 3755  18.073  23.500   1.132
37215W        W 3756  40.605  33.682   2.391
37216W        W 3757  23.601  25.615  10.681
37217W        W 3758  24.609  40.846   0.425
37218W        W 3759  44.302   7.275  14.547
37219W        W 3760   1.064  38.615   3.388
37220W        W 3761  41.303  17.301  12.399
37221W        W 3762  21.245  42.378  13.578
37222W        W 3763  40.069  21.460  13.771
37223W        W 3764   2.001  42.269  12.358
37224W        W 3765  41.542  37.117   2.706
37225W        W 3766  30.553  30.570  11.442
37226W        W 3767  42.592   4.683   3.298
37227W        W 3768  44.330  40.379  12.898
37228W        W 3769   4.843   8.923   2.815
37229W        W 3770  26.380  15.328  12.315
37230W        W 3771  12.282  27.217   4.600
37231W        W 3772  37.093   8.586   2.874
37232W        W 3773  28.305  20.651  13.885
37233W        W 3774  41.876   6.332  13.283
37234W        W 3775  43.318  28.159   3.836
37235W        W 3776  31.188  41.454  13.510
37236W        W 3777   8.182  36.945   0.765
37237W        W 3778  38.099  40.087   2.181
37238W        W 3779  15.149  12.896   4.507
37239W        W 3780   0.195  15.745   0.371
37240W        W 3781  23.293  27.022   2.248
37241W        W 3782   7.408   9.083  12.913
37242W        W 3783  10.641  44.523  14.942
37243W        W 3784  21.715  38.506   2.800
37244W        W 3785  28.395  31.065  10.672
37245W        W 3786  30.518  25.001  10.583
37246W        W 3787  37.462  14.093  10.951
37247W        W 3788  22.153  40.074   1.860
37248W        W 3789  41.029  23.036  10.989
37249W        W 3790  32.294   7.255   4.545
37250W        W 3791  18.701  38.248   1.657
37251W        W 3792  17.798  21.251   4.468
37252W        W 3793   5.010  41.421   0.747
37253W        W 3794  43.359  43.506  11.407
37254W        W 3795  43.830  18.154  11.257
37255W        W 3796   8.886  19.184  13.608
37256W        W 3797  21.027  25.643   1.781
37257W        W 3798  27.627  33.936   3.464
37258W        W 3799  33.402   6.963  14.498
37259W        W 3800  28.613  27.959   0.903
37260W        W 3801  22.927  31.598  11.573
37261W        W 3802  42.609  29.753  10.834
37262W        W 3803  44.567  21.473  13.507
37263W        W 3804  16.679  31.831  12.572
37264W        W 3805   8.806  33.370   3.620
37265W        W 3806  27.686  26.224   2.785
37266W        W 3807  32.967  39.966   3.323
37267W        W 3808  25.517  27.649   1.269
37268W        W 3809  39.116  18.725   1.342
37269W        W 3810  35.819  26.166   1.557
37270W        W 3811  40.461  40.269   0.892
37271W        W 3812  17.488  26.689   9.944
37272W        W 3813  15.136  29.616   1.215
37273W        W 3814  42.750   7.888   0.459
37274W        W 3815  25.679   9.368   2.271
37275W        W 3816  15.105   9.369  12.844
37276W        W 3817  39.917  15.324  13.343
37277W        W 3818  44.979  39.897  12.913
37278W        W 3819   5.446  35.964  14.492
37279W        W 3820  18.293  23.476   4.120
37280W        W 3821  31.029  36.297  13.097
37281W        W 3822  34.130   2.643  12.587
37282W        W 3823  15.772  34.700   1.248
37283W        W 3824  35.470  36.074  11.772
37284W        W 3825   0.499  14.695   0.736
37285W        W 3826  31.783  36.765  14.001
37286W        W 3827  38.611  43.510  10.365
37287W        W 3828  22.165  40.511   3.824
37288W        W 3829  15.645  16.655   0.464
37289W        W 3830  32.634  31.414   1.764
37290W        W 3831   4.809  31.732  13.909
37291W        W 3832  24.678   7.826   4.468
37292W        W 3833  24.729  16.683  10.305
37293W        W 3834  25.117  11.065  14.777
37294W        W 3835  14.341  15.940  12.643
37295W        W 3836  11.773   8.616  13.972
37296W        W 3837  38.502  33.076  11.326
37297W        W 3838  26.296  10.154  12.512
37298W        W 3839  15.292  32.122   3.660
37299W        W 3840  20.969  43.845   2.598
37300W        W 3841  17.742  28.116   0.785
37301W        W 3842  16.806  10.820  14.377
37302W        W 3843  30.754  22.177  12.927
37303W        W 3844  19.667  14.630   3.574
37304W        W 3845  12.649  21.562   4.137
37305W        W 3846  33.857  40.709  13.872
37306W        W 3847   2.773  35.399   2.142
37307W        W 3848  12.511  15.250  11.476
37308W        W 3849  39.370   0.036   1.168
37309W        W 3850  28.592  31.026  13.211
37310W        W 3851   1.668   6.138   3.611
37311W        W 3852   2.846   8.692   4.206
37312W        W 3853  22.200  17.367  13.401
37313W        W 3854  21.052  20.147   1.110
37314W        W 3855  31.480   9.593   0.899
37315W        W 3856  36.890  12.682  14.893
37316W        W 3857  10.461  20.179   2.304
37317W        W 3858  22.299  40.429  12.366
37318W        W 3859  32.948  20.459   4.208
37319W        W 3860  24.188   3.548  12.465
37320W        W 3861  39.460  23.096   0.121
37321W        W 3862   6.346  34.301   0.383
37322W        W 3863  36.366  15.764   4.555
37323W        W 3864  14.727  44.912  13.792
37324W        W 3865  41.188  11.406   9.885
37325W        W 3866  35.942  28.142  14.299
37326W        W 3867  43.730  30.998   3.214
37327W        W 3868  40.024  15.574  12.191
37328W        W 3869  31.566  13.724  14.843
37329W        W 3870  34.783  31.905  10.296
37330W        W 3871  33.111  14.675   3.084
37331W        W 3872  35.879   4.029   3.260
37332W        W 3873   1.789  31.634  12.540
37333W        W 3874  42.094  36.837  10.936
37334W        W 3875  43.037   1.400  14.279
37335W        W 3876  14.305  22.965  11.985
37336W        W 3877  24.705  19.493  11.889
37337W        W 3878  26.019  15.054   0.596
37338W        W 3879  17.063  38.005   4.664
37339W        W 3880   4.779  29.153   4.062
37340W        W 3881  14.066  43.400   0.395
37341W        W 3882  34.000  26.455   0.280
37342W        W 3883   0.963  26.072   4.436
37343W        W 3884  29.422  43.368  12.417
37344W        W 3885  16.381  33.258  13.561
37345W        W 3886  19.034  22.276  11.927
37346W        W 3887  25.209  28.332   0.316
37347W        W 3888  40.427  12.196   5.169
37348W        W 3889  42.826  38.765   0.299
37349W        W 3890  34.984  23.196   0.942
37350W        W 3891  29.256   8.696   1.959
37351W        W 3892   6.416   0.832   4.741
37352W        W 3893  10.885  33.954  10.506
37353W        W 3894  37.937   7.239  11.635
37354W        W 3895  11.350  11.465  10.870
37355W        W 3896  11.045   6.219   2.666
37356W        W 3897  14.601  19.812  13.460
37357W        W 3898  34.344  24.702  12.513
37358W        W 3899   8.433  43.344   0.733
37359W        W 3900   6.590   5.298  10.610
37360W        W 3901   2.204  35.019  12.058
37361W        W 3902   1.926  34.668  11.095
37362W        W 3903  24.962  31.667  11.180
37363W        W 3904  33.610   2.061   2.618
37364W        W 3905   7.722  31.105  12.571
37365W        W 3906  26.110  23.920   2.681
37366W        W 3907  11.429  33.540  12.470
37367W        W 3908  22.507  16.288   4.630
37368W        W 3909  43.733  12.826   1.863
37369W        W 3910  10.856  42.012   1.826
37370W        W 3911  14.625  26.750   2.311
37371W        W 3912  31.163  38.531   3.288
37372W        W 3913  38.206  36.017  11.431
37373W        W 3914  12.164  12.354   3.213
37374W        W 3915  40.345  21.229   4.658
37375W        W 3916  21.551  26.231   1.028
37376W        W 3917  24.571  19.797   2.132
37377W        W 3918  24.631   5.066   5.377
37378W        W 3919  18.081  31.655  11.161
37379W        W 3920  33.107  16.789   2.884
37380W        W 3921   8.284  26.452  11.100
37381W        W 3922  33.277  20.974  13.339
37382W        W 3923  15.668  43.446  12.114
37383W        W 3924   1.823  34.580  12.501
37384W        W 3925  10.668   7.490   3.367
37385W        W 3926  14.989   0.112  12.433
37386W        W 3927  43.052  12.218   4.290
37387W        W 3928  38.018  40.703  13.721
37388W        W 3929  30.366   9.760   1.563
37389W        W 3930   9.842   7.916   3.768
37390W        W 3931  11.819  16.135   4.586
37391W        W 3932  31.455  33.933  12.860
37392W        W 3933  33.120  23.638  10.797
37393W        W 3934  28.951   1.494  13.799
37394W        W 3935  19.473   4.742   0.028
37395W        W 3936  16.854   9.271  11.215
37396W        W 3937  42.864  40.476   1.433
37397W        W 3938  35.091   2.244   2.192
37398W        W 3939  29.143  18.064  11.078
37399W        W 3940  44.522   9.417   1.232
37400W        W 3941  42.815  17.592   3.238
37401W        W 3942  14.787  36.057   0.031
37402W        W 3943   5.749  40.588  10.731
37403W        W 3944  14.125  19.149  11.665
37404W        W 3945   6.691  39.617  13.461
37405W        W 3946  36.035  16.828   0.939
37406W        W 3947  29.991  28.951  14.588
37407W        W 3948  14.732   5.254   0.274
37408W        W 3949  41.312  18.287  10.855
37409W        W 3950   6.607  42.214  11.492
37410W        W 3951  15.996  12.754   4.728
37411W        W 3952   0.268  41.972   1.792
37412W        W 3953  20.917  26.726   5.152
37413W        W 3954   5.344   9.088  11.452
37414W        W 3955  39.766  14.642  12.483
37415W        W 3956  16.180  27.744  12.946
37416W        W 3957   3.917  35.445  14.850
37417W        W 3958   7.906   1.839   3.383
37418W        W 3959  13.394  35.088   1.921
37419W        W 3960  38.838  22.934   4.097
37420W        W 3961  14.415  44.559  11.729
37421W        W 3962  30.716  30.923   0.303
37422W        W 3963   6.907  44.350  14.070
37423W        W 3964  32.860   4.965  14.519
37424W        W 3965  17.250   5.887  13.235
37425W        W 3966  23.090  29.917   3.302
37426W        W 3967  20.070  35.658  14.863
37427W        W 3968  42.859  37.750   4.546
37428W        W 3969  14.890  41.493   9.979
37429W        W 3970  32.851  26.814   3.973
37430W        W 3971  40.255  13.051  14.350
37431W        W 3972  38.923  41.840   0.254
37432W        W 3973   8.361  13.619   4.125
37433W        W 3974  15.388  30.097   1.213
37434W        W 3975  27.798  19.931   2.088
37435W        W 3976  24.544  39.946   2.071
37436W        W 3977  11.864  43.088  12.902
37437W        W 3978  41.601  42.896   4.519
37438W        W 3979  36.044  31.797   1.358
37439W        W 3980  35.015  25.146   0.428
37440W        W 3981  36.127  23.265   4.476
37441W        W 3982  15.614  26.070  12.044
37442W        W 3983  23.197  16.997   0.032
37443W        W 3984  36.323  13.150  11.921
37444W        W 3985  42.337  16.135   3.041
37445W        W 3986  33.075  37.941  13.132
37446W        W 3987  17.581  41.113   4.769
37447W        W 3988  42.302  20.305   3.716
37448W        W 3989  43.395  12.120  10.714
37449W        W 3990  31.922  21.976   2.413
37450W        W 3991  12.590  38.946   3.634
37451W        W 3992   8.202  11.296  12.423
37452W        W 3993  26.950  30.155   1.702
37453W        W 3994  26.787  14.252  14.713
37454W        W 3995  12.993  15.192  12.903
37455W        W 3996  43.571  24.105   9.972
37456W        W 3997  24.054   4.776   1.836
37457W        W 3998  30.022   2.986  13.876
37458W        W 3999  42.769   0.844   4.207
37459W        W 4000   5.906   0.720   3.134
37460W        W 4001  24.287  11.528  11.260
37461W        W 4002  23.675  17.560   0.171
37462W        W 4003   8.935   9.714   2.869
37463W        W 4004  44.747  29.199  11.151
37464W        W 4005  34.563  26.488   3.331
37465W        W 4006  24.256  32.572  14.023
37466W        W 4007  15.384  42.197   3.253
37467W        W 4008  41.771  24.832   3.647
37468W        W 4009  14.521   4.689   2.328
37469W        W 4010   1.125   9.631   1.973
37470W        W 4011   6.569  24.218   1.419
37471W        W 4012   4.896  20.716  14.389
37472W        W 4013  15.877   6.684  14.825
37473W        W 4014   3.214   2.686  14.391
37474W        W 4015  10.546  21.203  10.572
37475W        W 4016  27.101  31.381  10.653
37476W        W 4017  40.080   7.810  12.176
37477W        W 4018  20.586  21.619  12.527
37478W        W 4019   5.143  20.658  12.520
37479W        W 4020   6.954  27.525   1.671
37480W        W 4021   2.021  30.726  13.981
37481W        W 4022  32.074  35.193   4.426
37482W        W 4023  41.070  23.036   0.051
37483W        W 4024  33.182   0.453   2.444
37484W        W 4025  12.817  40.657  12.146
37485W        W 4026  25.904   6.929  13.432
37486W        W 4027   0.454  17.128  12.308
37487W        W 4028  17.471   4.792  11.446
37488W        W 4029   6.764   1.401  12.009
37489W        W 4030   7.671  22.744   1.383
37490W        W 4031  30.404  14.119  13.274
37491W        W 4032  30.855  18.919  10.917
37492W        W 4033  44.348  28.152   1.928
37493W        W 4034  12.136  21.770  11.673
37494W        W 4035  40.584  11.250  14.866
37495W        W 4036   6.121  41.918  13.051
37496W        W 4037  41.503  19.273  12.285
37497W        W 4038  42.943   0.048   2.873
37498W        W 4039  18.358  24.281  12.014
37499W        W 4040  35.164  25.557   2.122
37500W        W 4041  16.507  17.486   0.963
37501W        W 4042  25.091  18.890  11.172
37502W        W 4043  41.362  39.265  13.816
37503W        W 4044   6.361  15.114   3.610
37504W        W 4045  18.578  11.181   4.856
37505W        W 4046  41.993  28.002   4.149
37506W        W 4047   7.849  24.517  11.192
37507W        W 4048  42.399  10.742   1.131
37508W        W 4049   1.025  26.612  14.878
37509W        W 4050  13.023   6.233   4.726
37510W        W 4051  35.964  19.223   4.120
37511W        W 4052   5.693  20.889  14.280
37512W        W 4053  43.040  27.601  12.455
37513W        W 4054  30.860  38.949   3.178
37514W        W 4055  36.899  33.601   3.645
37515W        W 4056  26.157  11.551   3.882
37516W        W 4057  28.198  31.268  13.461
37517W        W 4058  38.283  17.163   1.735
37518W        W 4059   9.336  30.355   0.670
37519W        W 4060  29.547  39.045   1.264
37520W        W 4061  37.398  21.346   3.992
37521W        W 4062  42.564  24.561  14.285
37522W        W 4063  36.910  36.129  13.385
37523W        W 4064   4.195  14.344  12.082
37524W        W 4065  24.685  22.283   2.646
37525W        W 4066   6.362  13.204  14.569
37526W        W 4067  38.894  40.399  14.961
37527W        W 4068  36.307  18.821  11.781
37528W        W 4069   4.129  11.670  14.423
37529W        W 4070  19.045  39.830   0.150
37530W        W 4071  34.044  42.457  11.918
37531W        W 4072  17.800  12.908   2.002
37532W        W 4073  37.065  31.076  12.395
37533W        W 4074  39.862  15.386  10.469
37534W        W 4075  35.332  23.617   1.730
37535W        W 4076  17.625  43.600  11.104
37536W        W 4077   1.940  21.117  12.585
37537W        W 4078   4.007  10.759  14.909
37538W        W 4079   3.486  20.184   4.222
37539W        W 4080  32.993  29.053   2.337
37540W        W 4081  14.261  40.784   2.784
37541W        W 4082  30.040  14.778  14.430
37542W        W 4083  22.295  24.506   1.798
37543W        W 4084  17.955  39.570  12.477
37544W        W 4085  18.241  36.356  13.564
37545W        W 4086  21.941  41.876   1.474
37546W        W 4087  16.677  33.043  13.931
37547W        W 4088  34.852  34.019  12.109
37548W        W 4089  27.218  20.839  12.579
37549W        W 4090  43.778   1.003   3.233
37550W        W 4091  28.657   0.600   3.865
37551W        W 4092  25.262  17.503  10.766
37552W        W 4093  42.771  40.427   0.458
37553W        W 4094  29.620  15.526  13.936
37554W        W 4095   2.355  43.665   1.576
37555W        W 4096   8.276  11.497  12.942
37556W        W 4097  40.964  18.558   3.856
37557W        W 4098  25.313  19.572  10.265
37558W        W 4099  37.962  40.332  10.681
37559W        W 4100  11.086   1.836  10.646
37560W        W 4101  24.168  21.713   0.964
37561W        W 4102  29.202  33.465   0.722
37562W        W 4103  39.058  35.565   0.053
37563W        W 4104  11.318  43.401  13.799
37564W        W 4105  25.034  29.594  14.760
37565W        W 4106   8.160  38.848   2.531
37566W        W 4107  44.523  24.882  14.346
37567W        W 4108  38.732   6.227   3.167
37568W        W 4109  42.485  13.013   4.688
37569W        W 4110   5.394  23.074   2.681
37570W        W 4111  25.256   5.502  11.163
37571W        W 4112   8.081  18.695  10.792
37572W        W 4113  38.402  25.174  11.106
37573W        W 4114  27.434  15.970  11.842
37574W        W 4115  43.858  28.016  10.743
37575W        W 4116  25.872  19.226   3.809
37576W        W 4117   0.012  39.871  10.530
37577W        W 4118  42.917  36.944  14.953
37578W        W 4119  23.922   6.315   9.905
37579W        W 4120  31.975   5.663   1.442
37580W        W 4121  36.241  13.494  12.356
37581W        W 4122   4.491   9.639   3.702
37582W        W 4123  29.004   5.010  13.897
37583W        W 4124  26.028   9.679  11.863
37584W        W 4125  13.887  35.011  10.810
37585W        W 4126  24.289   5.345  13.159
37586W        W 4127   3.006  16.815   3.444
37587W        W 4128   0.991   3.399   2.333
37588W        W 4129  44.318   9.881   3.240
37589W        W 4130   0.711  32.510   3.551
37590W        W 4131  20.297  39.728  14.330
37591W        W 4132   8.635  43.631   2.276
37592W        W 4133  25.684  37.135  11.055
37593W        W 4134  40.513  12.182   4.112
37594W        W 4135  17.532  12.360  14.859
37595W        W 4136  18.467  16.290  12.330
37596W        W 4137  37.409  44.687   1.647
37597W        W 4138   5.430  21.323  10.516
37598W        W 4139  37.236   1.898  10.032
37599W        W 4140  44.468  43.278  12.633
37600W        W 4141   4.700  14.705   2.802
37601W        W 4142   5.818   4.035  12.952
37602W        W 4143  33.033  40.395  11.561
37603W        W 4144  14.213  25.560   0.141
37604W        W 4145  19.795  30.976   3.551
37605W        W 4146  34.912  28.090  14.833
37606W        W 4147  27.776  12.129  12.871
37607W        W 4148  38.951   9.134  12.093
37608W        W 4149  19.714  26.554   2.955
37609W        W 4150   9.560  30.806  10.440
37610W        W 4151  13.649   3.810  14.273
37611W        W 4152  37.662  11.239  11.565
37612W        W 4153   4.421  43.364  12.351
37613W        W 4154  28.657  36.025   1.711
37614W        W 4155   8.166   8.481   4.085
37615W        W 4156  15.821   5.167  11.184
37616W        W 4157  22.704  24.939   0.446
37617W        W 4158  40.965  44.522  14.993
37618W        W 4159  39.294  18.077  13.968
37619W        W 4160  41.079  42.502  10.677
37620W        W 4161  16.662  30.481  13.961
37621W        W 4162   9.279  37.115  12.979
37622W        W 4163  30.031   2.259  14.339
37623W        W 4164  39.441   0.796  14.251
37624W        W 4165  38.761  23.783  14.878
37625W        W 4166  29.703  27.986   4.875
37626W        W 4167  17.884  44.972  10.668
37627W        W 4168  23.379  21.572   0.256
37628W        W 4169   5.452   3.788   3.150
37629W        W 4170  32.815  11.154  14.361
37630W        W 4171   6.719   8.151   3.858
37631W        W 4172   5.936  15.211  13.359
37632W        W 4173  26.668  16.343   2.296
37633W        W 4174  21.944  38.975   2.851
37634W        W 4175  43.523  25.437   3.783
37635W        W 4176  35.364   5.226  13.339
37636W        W 4177  22.541  28.911  11.567
37637W        W 4178   1.504  43.798   4.668
37638W        W 4179   1.478  12.917  11.561
37639W        W 4180  17.090  16.583   0.434
37640W        W 4181   8.666   4.205   0.800
37641W        W 4182  27.966  26.132   4.182
37642W        W 4183  10.104  29.509  13.616
37643W        W 4184  20.932  15.109   2.184
37644W        W 4185   4.806  24.042   4.050
37645W        W 4186   6.374  29.997   1.669
37646W        W 4187  16.273   3.340  11.144
37647W        W 4188  32.171   7.300   3.649
37648W        W 4189  29.470  18.188   4.409
37649W        W 4190  17.288   8.748  14.246
37650W        W 4191  12.067  38.279  13.786
37651W        W 4192   2.409  39.961  13.915
37652W        W 4193  25.625  37.190  12.372
37653W        W 4194  20.884   5.536  14.249
37654W        W 4195  17.684   5.716   3.677
37655W        W 4196  22.473   1.940   0.455
37656W        W 4197  17.032  34.586   3.726
37657W        W 4198  12.207   0.329  11.705
37658W        W 4199   8.662  22.536   1.431
37659W        W 4200  21.891  35.480   3.832
37660W        W 4201  32.797  14.897   1.832
37661W        W 4202  38.843  23.111  12.013
37662W        W 4203  21.712  26.394   1.887
37663W        W 4204  37.933  11.220   0.164
37664W        W 4205   5.334  24.262   0.802
37665W        W 4206  37.790  28.302  11.147
37666W        W 4207  42.709   7.347   0.468
37667W        W 4208  20.260  12.644  14.369
37668W        W 4209  19.789   7.598   3.313
37669W        W 4210  29.434   3.815   3.356
37670W        W 4211  11.721   3.745   4.338
37671W        W 4212  22.015  17.253   0.886
37672W        W 4213   2.742  39.337  11.425
37673W        W 4214  38.100  25.147  13.728
37674W        W 4215  26.752  13.877   0.508
37675W        W 4216  38.458  27.876   0.536
37676W        W 4217  30.651  12.060  11.629
37677W        W 4218   5.854  43.540  12.770
37678W        W 4219  33.016  26.322   3.843
37679W        W 4220  31.356  44.412  14.933
37680W        W 4221  32.978  33.357  14.449
37681W        W 4222  41.828  18.297  10.729
37682W        W 4223  39.962  12.106  11.123
37683W        W 4224  19.474  35.770  12.539
37684W        W 4225  25.565   0.341   2.405
37685W        W 4226  39.103  19.542   3.175
37686W        W 4227  10.048   8.706   5.376
37687W        W 4228  17.698   5.205  14.901
37688W        W 4229   4.798  33.853  12.405
37689W        W 4230  12.821   5.252   0.862
37690W        W 4231  37.523  31.841   3.773
37691W        W 4232  24.941  13.748  13.549
37692W        W 4233  17.088  32.026  14.320
37693W        W 4234   3.229   1.821   3.115
37694W        W 4235  30.386  30.066  13.343
37695W        W 4236  10.217   6.322  12.007
37696W        W 4237  33.883  43.549  14.848
37697W        W 4238  24.453  38.579  14.479
37698W        W 4239   1.480   0.231  14.301
37699W        W 4240  17.215   5.827  10.537
37700W        W 4241   6.184  21.402   3.187
37701W        W 4242  42.801  32.069  14.369
37702W        W 4243  12.657  10.718   3.500
37703W        W 4244  18.705  28.974   4.553
37704W        W 4245  25.784   1.345  14.496
37705W        W 4246  44.184  14.712   1.900
37706W        W 4247  39.301   9.211   2.748
37707W        W 4248  42.878  43.474   0.757
37708W        W 4249   7.382  17.560  12.814
37709W        W 4250  25.785  42.350  12.470
37710W        W 4251  40.310   3.333   1.071
37711W        W 4252  28.015  31.876   1.290
37712W        W 4253  33.421  18.511  11.082
37713W        W 4254  11.788  26.763  14.353
37714W        W 4255  19.034  44.694   2.685
37715W        W 4256  14.215  16.630   1.250
37716W        W 4257  23.494  33.102   2.299
37717W        W 4258  11.783  40.316  11.980
37718W        W 4259  11.724  12.097  12.033
37719W        W 4260  29.194  28.353  11.550
37720W        W 4261  36.155  13.449  14.973
37721W        W 4262  41.132   1.925  13.911
37722W        W 4263  30.600  37.644  13.381
37723W        W 4264  33.077  42.817   2.127
37724W        W 4265  33.886  41.930   0.963
37725W        W 4266  30.070  24.994   1.387
37726W        W 4267  44.209  10.402  14.836
37727W        W 4268   6.611   4.241  13.310
37728W        W 4269   2.376  34.378   2.840
37729W        W 4270  39.309   3.498   1.258
37730W        W 4271  10.236   0.971  13.527
37731W        W 4272  21.029   7.075   1.254
37732W        W 4273  31.774  42.209  13.915
37733W        W 4274  35.647  41.509   3.226
37734W        W 4275  36.912  38.261   2.657
37735W        W 4276  36.162  24.961   2.772
37736W        W 4277  37.831  18.991  14.129
37737W        W 4278  20.747  13.400  11.918
37738W        W 4279  37.172   1.519   3.625
37739W        W 4280  33.003  13.783   2.621
37740W        W 4281  25.740   4.873   9.809
37741W        W 4282  19.724   2.409   2.775
37742W        W 4283   6.794  30.174  11.086
37743W        W 4284  26.472  27.165   3.616
37744W        W 4285  21.314   3.414   0.018
37745W        W 4286  10.905   4.228  11.547
37746W        W 4287   8.315  37.922  13.756
37747W        W 4288   8.823   3.960   1.650
37748W        W 4289  35.041  10.291  12.610
37749W        W 4290  32.647  38.844  10.985
37750W        W 4291  37.083  44.923  13.889
37751W        W 4292  19.795  24.957   0.183
37752W        W 4293   3.701   3.857   2.696
37753W        W 4294  24.015  16.120   4.588
37754W        W 4295  12.216  33.396   1.806
37755W        W 4296  30.611  21.192  12.588
37756W        W 4297  41.115   8.756  14.309
37757W        W 4298  28.231  44.767  12.641
37758W        W 4299  14.696  12.467  13.853
37759W        W 4300  19.553  37.392   1.808
37760W        W 4301   8.950  20.076   4.428
37761W        W 4302  34.987  22.966  11.450
37762W        W 4303  11.882  22.495   2.814
37763W        W 4304  36.135  44.258   0.969
37764W        W 4305   0.320   8.868   1.290
37765W        W 4306   7.654  12.242  14.538
37766W        W 4307  38.761   8.844  10.967
37767W        W 4308  39.956  32.924  11.612
37768W        W 4309  14.017  31.680   3.512
37769W        W 4310  22.712  11.206  14.271
37770W        W 4311   9.292  19.869  11.873
37771W        W 4312  42.289  18.796  12.527
37772W        W 4313  16.557   8.735   1.829
37773W        W 4314  21.169  30.369  11.321
37774W        W 4315  33.485  35.920  14.334
37775W        W 4316  19.599   4.183   5.022
37776W        W 4317  37.867  14.281  13.940
37777W        W 4318   0.303   6.941   1.019
37778W        W 4319  14.653  11.028  14.438
37779W        W 4320  44.067  11.693  11.151
37780W        W 4321  26.604  35.870   0.282
37781W        W 4322  35.146  34.502   0.763
37782W        W 4323  15.062  38.055   2.739
37783W        W 4324  10.550  35.456   4.179
37784W        W 4325  42.531  36.963  11.773
37785W        W 4326  28.152  43.891  12.513
37786W        W 4327  19.763   5.255  13.887
37787W        W 4328  33.609  38.862  11.452
37788W        W 4329  20.019  33.071   3.572
37789W        W 4330   1.301   1.507   1.846
37790W        W 4331  33.522   6.235  12.168
37791W        W 4332  22.523  33.581   2.371
37792W        W 4333  44.118  33.896   1.626
37793W        W 4334  12.372  26.054   3.344
37794W        W 4335  40.812  25.471  12.533
37795W        W 4336   4.338  21.841  14.788
37796W        W 4337   0.995  33.353  12.496
37797W        W 4338  35.997  38.151  13.498
37798W        W 4339  13.345   0.777   3.253
37799W        W 4340  42.061   1.711  12.079
37800W        W 4341   9.837  38.996  11.992
37801W        W 4342  40.426  21.309  10.619
37802W        W 4343  14.222  33.300  14.349
37803W        W 4344  23.239  40.058   1.394
37804W        W 4345  15.329  28.931  11.165
37805W        W 4346  13.166   4.578  11.078
37806W        W 4347  29.694  15.578   2.592
37807W        W 4348  27.832  22.960  13.193
37808W        W 4349  18.058   7.550   2.743
37809W        W 4350  26.626  18.739  14.396
37810W        W 4351  33.482  29.866  12.808
37811W        W 4352  36.550  28.686  10.523
37812W        W 4353  27.579  35.126  10.619
37813W        W 4354  41.534  22.763   3.080
37814W        W 4355  17.243  42.304   0.938
37815W        W 4356   5.433  34.525   4.328
37816W        W 4357  10.056  24.300   0.731
37817W        W 4358  36.628  36.873   0.271
37818W        W 4359  17.527  28.981  12.522
37819W        W 4360  35.880  32.364  13.925
37820W        W 4361   9.721  33.362   1.205
37821W        W 4362  33.041  31.157  11.822
37822W        W 4363  27.743   4.337  11.220
37823W        W 4364  14.359  26.137  11.380
37824W        W 4365  14.873  25.341   3.728
37825W        W 4366   2.823  28.610   0.275
37826W        W 4367  23.574  42.739  13.013
37827W        W 4368  21.145  43.819   0.718
37828W        W 4369   3.641  13.198  11.648
37829W        W 4370   0.817  28.678  13.845
37830W        W 4371  19.788  33.856   3.204
37831W        W 4372  43.308  27.005  13.140
37832W        W 4373  29.149  17.791   1.204
37833W        W 4374  26.493  27.887  11.090
37834W        W 4375   5.424  33.693   2.791
37835W        W 4376   5.002  40.280  12.800
37836W        W 4377  33.678  29.249  11.724
37837W        W 4378  14.490  12.389   1.273
37838W        W 4379   2.800  16.206  11.693
37839W        W 4380   3.395  41.602   0.680
37840W        W 4381  22.618  30.451  10.691
37841W        W 4382  22.621  19.763   0.981
37842W        W 4383  12.403  30.330   0.409
37843W        W 4384  12.869  35.561  11.942
37844W        W 4385   5.844  21.053  12.180
37845W        W 4386  28.705  18.041   1.191
37846W        W 4387  20.004  24.941  11.202
37847W        W 4388  29.721  35.487  12.503
37848W        W 4389  37.460  24.825  10.707
37849W        W 4390  42.451  12.344  10.699
37850W        W 4391  40.125  38.319  11.118
37851W        W 4392  28.071  33.887  14.237
37852W        W 4393  35.618   5.090  10.733
37853W        W 4394  24.477  13.746   2.285
37854W        W 4395   0.233  34.304   4.554
37855W        W 4396  32.465  43.823   1.400
37856W        W 4397   9.334  14.159   2.179
37857W        W 4398   9.781   8.687  10.690
37858W        W 4399   4.742  11.109   0.492
37859W        W 4400  35.400  43.391  11.055
37860W        W 4401  28.403  37.870  12.495
37861W        W 4402  32.515   5.834   0.321
37862W        W 4403  32.365  19.785   1.052
37863W        W 4404  37.770  34.482   3.048
37864W        W 4405  30.705   8.952  11.126
37865W        W 4406  33.968  15.701   3.112
37866W        W 4407  18.503  29.829   2.681
37867W        W 4408  32.596  31.351   0.892
37868W        W 4409   7.300  28.066   2.779
37869W        W 4410  43.389  29.390   4.612
37870W        W 4411  24.044  27.349   0.425
37871W        W 4412  37.569  20.602   1.528
37872W        W 4413  33.472   7.837  13.824
37873W        W 4414  28.624  20.232   3.181
37874W        W 4415  12.881  28.414   4.861
37875W        W 4416   1.513  30.996  12.930
37876W        W 4417  33.940  21.638   3.257
37877W        W 4418  13.882  23.632  13.413
37878W        W 4419  24.101  10.346   2.262
37879W        W 4420  19.816   3.604   2.343
37880W        W 4421  15.693  14.273  11.980
37881W        W 4422  19.094  42.993   1.827
37882W        W 4423   7.218   4.768   4.739
37883W        W 4424  18.414   2.782   3.806
37884W        W 4425  14.624   4.581  12.549
37885W        W 4426  16.312   4.195   4.537
37886W        W 4427  23.516  23.646   3.245
37887W        W 4428  43.190  41.069   2.216
37888W        W 4429   2.394  20.966   1.213
37889W        W 4430  30.039  10.308   3.254
37890W        W 4431  31.101  10.671   5.079
37891W        W 4432   4.471  28.236   3.735
37892W        W 4433  14.560  36.032  12.411
37893W        W 4434  42.195  27.459  11.154
37894W        W 4435   8.715  29.906   3.130
37895W        W 4436  26.533  36.007   4.630
37896W        W 4437  29.267   2.811  12.940
37897W        W 4438   6.698  17.037   0.769
37898W        W 4439  27.075  41.076   3.896
37899W        W 4440  30.927  10.007   4.262
37900W        W 4441  28.466  15.373  11.565
37901W        W 4442  44.402  25.193   4.671
37902W        W 4443  26.640  14.612   4.946
37903W        W 4444  32.672  11.615   4.153
37904W        W 4445  20.011  15.687   2.890
37905W        W 4446  44.738   4.669   1.271
37906W        W 4447  18.839  17.757  10.761
37907W        W 4448  21.337   7.665  13.409
37908W        W 4449  11.195  20.348  12.924
37909W        W 4450  27.929   3.905  11.621
37910W        W 4451  37.039  24.915  10.965
37911W        W 4452  36.054  35.101  14.309
37912W        W 4453  17.992  28.940   1.775
37913W        W 4454  26.525   2.133  14.215
37914W        W 4455  22.117  31.191   4.938
37915W        W 4456   9.610  30.747  10.972
37916W        W 4457  14.328  21.072   5.203
37917W        W 4458  16.074  31.025   1.029
37918W        W 4459  14.828  42.570   1.446
37919W        W 4460  10.260  37.590  11.335
37920W        W 4461   2.415  44.738  13.361
37921W        W 4462   4.774  23.134  11.667
37922W        W 4463  39.443  23.635   4.776
37923W        W 4464  39.370  10.256  11.949
37924W        W 4465  21.231  15.919  14.347
37925W        W 4466  16.365  10.270   4.859
37926W        W 4467  18.230  23.490  11.607
37927W        W 4468  39.701  39.025   0.277
37928W        W 4469  40.822  11.127   1.188
37929W        W 4470  22.332   0.652  11.441
37930W        W 4471   2.057  23.617   3.823
37931W        W 4472  38.261   5.758   2.228
37932W        W 4473  22.766  18.577  11.736
37933W        W 4474   5.274  29.134  10.715
37934W        W 4475  22.096  38.534  12.876
37935W        W 4476  32.056   4.211  12.171
37936W        W 4477  41.420  11.624  11.355
37937W        W 4478  13.184  30.582  14.426
37938W        W 4479  14.156  23.567   4.856
37939W        W 4480  29.044  35.856  14.953
37940W        W 4481  43.960  38.339  12.446
37941W        W 4482  21.596  11.120  14.727
37942W        W 4483  15.524  29.494   3.718
37943W        W 4484  22.963   4.807   1.827
37944W        W 4485  43.594  10.319  12.022
37945W        W 4486  36.961  28.888   2.375
37946W        W 4487  25.747  39.792   1.255
37947W        W 4488  24.208  37.854   3.327
37948W        W 4489  32.960  34.451   4.114
37949W        W 4490   2.148  17.265  14.922
37950W        W 4491  10.065   8.544  13.465
37951W        W 4492   0.886  18.112   4.286
37952W        W 4493  12.385   4.942   4.293
37953W        W 4494  33.874  24.074   4.202
37954W        W 4495  29.453   0.778  11.573
37955W        W 4496  35.944  27.056   4.200
37956W        W 4497  36.418  43.835   0.795
37957W        W 4498  43.739  17.951   0.242
37958W        W 4499  44.634   7.650  14.377
37959W        W 4500   2.923  33.911  14.482
37960W        W 4501  20.176  41.530   1.770
37961W        W 4502  22.694  17.874   2.829
37962W        W 4503  35.024  38.531   4.639
37963W        W 4504  34.951  23.443   3.693
37964W        W 4505  22.230   7.893   0.947
37965W        W 4506  39.524  38.646  14.469
37966W        W 4507  35.380  18.760  11.747
37967W        W 4508  41.432  25.544   4.126
37968W        W 4509  10.132  38.658   2.399
37969W        W 4510  18.729  19.113   3.106
37970W        W 4511  32.384   6.792   3.866
37971W        W 4512  33.192   5.330   2.654
37972W        W 4513  37.391  44.856  11.603
37973W        W 4514  17.145  28.604   9.929
37974W        W 4515  26.576  36.750  11.444
37975W        W 4516   0.603  41.170   1.723
37976W        W 4517  25.413   6.447  11.984
37977W        W 4518  38.403  34.308   2.280
37978W        W 4519   6.631  15.793   3.579
37979W        W 4520  21.488   4.865  12.071
37980W        W 4521   9.736  26.104   4.775
37981W        W 4522  16.239   9.935  13.144
37982W        W 4523  18.962  33.499   3.464
37983W        W 4524  29.930  11.191  10.255
37984W        W 4525  26.997  19.635   2.442
37985W        W 4526  35.744  33.752   2.094
37986W        W 4527  20.281  35.301   3.812
37987W        W 4528  26.031  14.286   1.694
37988W        W 4529  44.929  26.579  12.551
37989W        W 4530  35.386   0.991  14.397
37990W        W 4531  42.075  36.570   0.291
37991W        W 4532  39.724  27.973  11.096
37992W        W 4533  38.840  30.186   1.980
37993W        W 4534  11.799  39.038   2.397
37994W        W 4535  22.591   7.341  12.023
37995W        W 4536  33.838  14.693  11.641
37996W        W 4537  38.595   1.327  13.011
37997W        W 4538  34.358  20.072   1.956
37998W        W 4539   2.874  34.067  14.957
37999W        W 4540   3.396  42.541   4.203
38000W        W 4541  31.907   9.370  14.107
38001W        W 4542  10.079  27.199  11.568
38002W        W 4543  44.766  22.785  13.121
38003W        W 4544   5.174  25.504   0.014
38004W        W 4545  41.899  10.261   4.680
38005W        W 4546   5.512  14.179  14.485
38006W        W 4547  13.558  38.826   1.888
38007W        W 4548  18.487  22.053  13.425
38008W        W 4549  10.884  25.755   4.226
38009W        W 4550  34.471  18.868  11.166
38010W        W 4551   5.534  20.680  11.594
38011W        W 4552  33.368  44.714  12.160
38012W        W 4553   4.676  28.833   1.640
38013W        W 4554  26.441  28.116   1.310
38014W        W 4555   4.253  20.485   4.886
38015W        W 4556  23.654   9.613   1.805
38016W        W 4557   4.731  20.912   1.800
38017W        W 4558  43.520  43.904  14.333
38018W        W 4559  14.407  38.480   0.400
38019W        W 4560   2.513  31.970  12.912
38020W        W 4561   9.722   8.648  11.635
38021W        W 4562  18.120  43.061  11.546
38022W        W 4563  16.201   7.126  11.112
38023W        W 4564  24.411   7.369  14.070
38024W        W 4565  17.972   0.910  10.911
38025W        W 4566  14.220  33.491  11.919
38026W        W 4567  10.907  27.481   2.843
38027W        W 4568  12.386  12.624   2.819
38028W        W 4569   9.949  27.624   2.219
38029W        W 4570  14.608   4.471   1.750
38030W        W 4571  15.053  20.683  13.354
38031W        W 4572  28.013  20.618  12.963
38032W        W 4573   8.908  15.593  11.571
38033W        W 4574  23.573  30.863   3.723
38034W        W 4575  24.907  36.137  13.896
38035W        W 4576  36.743   4.585   3.316
38036W        W 4577  25.371  14.175   4.983
38037W        W 4578  11.101  20.998  13.845
38038W        W 4579   9.926  40.770  11.511
38039W        W 4580   3.406  30.085   4.009
38040W        W 4581  23.944  16.708  13.989
38041W        W 4582  18.795   7.383  12.108
38042W        W 4583  35.511  17.712   0.767
38043W        W 4584  39.784  43.999   3.577
38044W        W 4585  24.589   9.167  13.436
38045W        W 4586  40.946  36.504  14.669
38046W        W 4587  30.621  33.423  12.180
38047W        W 4588  12.845  24.192   3.172
38048W        W 4589  14.442  29.989  14.464
38049W        W 4590  13.755  34.453   4.302
38050W        W 4591  13.263  39.421  11.781
38051W        W 4592  10.328  10.095  11.706
38052W        W 4593  27.080  16.443  13.295
38053W        W 4594   8.111  40.924   3.160
38054W        W 4595  35.451  33.083   0.999
38055W        W 4596  40.330  18.251   2.312
38056W        W 4597   1.328  18.722   0.927
38057W        W 4598   1.799  13.540   4.501
38058W        W 4599  27.915  21.838   3.008
38059W        W 4600  11.892  31.026  14.895
38060W        W 4601  28.113  29.741   3.298
38061W        W 4602  31.551  41.865  11.477
38062W        W 4603   5.259  31.420   2.712
38063W        W 4604  40.593  32.744  11.469
38064W        W 4605  33.196   3.551   3.276
38065W        W 4606  37.533  29.077  11.552
38066W        W 4607  33.358   0.756   4.040
38067W        W 4608   6.767  22.472   0.931
38068W        W 4609  30.592  30.588   1.066
38069W        W 4610  23.604   8.986  13.107
38070W        W 4611  23.668  23.348  12.435
38071W        W 4612  32.525  36.197   2.992
38072W        W 4613  11.544  24.717   2.343
38073W        W 4614   8.570   3.821  12.262
38074W        W 4615  23.495  42.828   0.233
38075W        W 4616  43.901  37.375  10.933
38076W        W 4617   7.765  28.720   2.176
38077W        W 4618  32.163  24.998  13.427
38078W        W 4619  22.513  25.792   3.580
38079W        W 4620  19.363  18.137  10.720
38080W        W 4621  18.470  38.475   4.859
38081W        W 4622  10.790  15.808  11.057
38082W        W 4623  28.082   3.025  13.443
38083W        W 4624   8.420  32.120  11.186
38084W        W 4625  10.611  10.750  13.374
38085W        W 4626  41.024  11.309  14.313
38086W        W 4627  13.321  13.964   3.891
38087W        W 4628  29.731   7.131  11.103
38088W        W 4629   3.377   1.071  14.229
38089W        W 4630   7.314  26.521   1.444
38090W        W 4631  36.612  23.700  14.336
38091W        W 4632  16.214  40.928   2.159
38092W        W 4633  15.739   4.545   1.835
38093W        W 4634  12.275  39.755  11.443
38094W        W 4635   8.955  19.185  11.146
38095W        W 4636  15.960  33.435  11.824
38096W        W 4637  11.303  34.440   3.886
38097W        W 4638  29.393  25.734   1.267
38098W        W 4639  34.618  40.608  14.446
38099W        W 4640   9.960  34.385   1.234
38100W        W 4641  33.522  35.288  12.509
38101W        W 4642  27.063  21.128   2.218
38102W        W 4643  25.204  33.569   4.554
38103W        W 4644  33.008   7.960  12.081
38104W        W 4645  38.959  16.788   0.859
38105W        W 4646  20.594  37.402   9.895
38106W        W 4647  19.094  20.072  14.423
38107W        W 4648  12.873  12.115  13.374
38108W        W 4649   1.454   9.359  13.754
38109W        W 4650   6.208  10.648   2.126
38110W        W 4651   8.440   6.810  13.459
38111W        W 4652   6.735  34.968  13.770
38112W        W 4653  23.869  12.764  11.672
38113W        W 4654   2.232   8.775   1.866
38114W        W 4655  16.143  44.367   3.838
38115W        W 4656  32.554  40.726  12.881
38116W        W 4657  28.338  12.399  11.202
38117W        W 4658  41.010   2.837  13.581
38118W        W 4659  38.946  43.849  10.614
38119W        W 4660  28.454  13.568  10.281
38120W        W 4661  19.812  25.021   4.252
38121W        W 4662  40.552  41.275   0.678
38122W        W 4663  22.197  27.454  11.997
38123W        W 4664  13.833  22.058   1.373
38124W        W 4665  34.580  10.215  14.267
38125W        W 4666   5.086  10.419  13.019
38126W        W 4667  41.738  41.848   0.026
38127W        W 4668  31.948  21.350  10.631
38128W        W 4669  28.701  32.125   0.774
38129W        W 4670  35.444  35.898  10.908
38130W        W 4671  42.964  13.372  10.016
38131W        W 4672   1.015  19.781   1.728
38132W        W 4673  16.170  15.579   0.747
38133W        W 4674  24.540  19.230   3.225
38134W        W 4675  37.230  10.845  13.960
38135W        W 4676  27.171   1.333   0.311
38136W        W 4677  44.060  27.079   4.102
38137W        W 4678  40.818  17.606   4.549
38138W        W 4679   5.685   6.720   0.014
38139W        W 4680  12.153  25.688   3.705
38140W        W 4681  43.220   1.170   4.655
38141W        W 4682  28.482  17.663   3.032
38142W        W 4683  22.272   2.089  13.574
38143W        W 4684  17.229  31.200  12.852
38144W        W 4685  38.023  42.244   2.612
38145W        W 4686  19.752  39.431  12.274
38146W        W 4687  28.354  40.864   1.821
38147W        W 4688  13.322   5.216  11.591
38148W        W 4689   8.843  20.682   0.770
38149W        W 4690  28.984   6.976  12.892
38150W        W 4691  34.474  18.555   1.120
38151W        W 4692  28.239   5.840   2.843
38152W        W 4693  17.728   7.365   2.377
38153W        W 4694  43.851   7.840   1.890
38154W        W 4695  36.907  39.005   4.553
38155W        W 4696  14.737  31.059  13.865
38156W        W 4697  19.719  11.202   4.990
38157W        W 4698  43.984   6.299  13.614
38158W        W 4699  15.606  18.962  14.397
38159W        W 4700  34.299  24.599   4.739
38160W        W 4701   0.350  39.490   3.739
38161W        W 4702   9.659  23.065   4.290
38162W        W 4703  39.175   8.391  14.286
38163W        W 4704   8.215   3.772   4.595
38164W        W 4705   2.794  10.686  11.841
38165W        W 4706  29.962  12.365   0.498
38166W        W 4707  31.185  42.439   2.857
38167W        W 4708  23.998   2.034  12.538
38168W        W 4709  21.245  14.158  13.154
38169W        W 4710  44.413  41.745  10.551
38170W        W 4711   7.905  37.216   2.784
38171W        W 4712  32.830  41.515   1.819
38172W        W 4713  10.264  32.625   1.279
38173W        W 4714   9.573  15.553   1.354
38174W        W 4715  14.080  14.786  11.057
38175W        W 4716  13.572   3.403  13.491
38176W        W 4717  29.727   1.816   4.103
38177W        W 4718  22.635   5.746  14.439
38178W        W 4719  33.122  38.622  13.944
38179W        W 4720   5.780   1.486   1.764
38180W        W 4721  35.564  19.256   0.817
38181W        W 4722  33.139  20.659  14.276
38182W        W 4723  29.884   8.767   0.169
38183W        W 4724  14.327  38.812  12.857
38184W        W 4725  34.060   1.137  11.125
38185W        W 4726  39.432  24.787   0.791
38186W        W 4727  12.024  13.590   0.816
38187W        W 4728   0.214   0.559   2.321
38188W        W 4729  38.198  23.546  12.485
38189W        W 4730  42.869  43.428   3.711
38190W        W 4731  29.465  25.572   2.590
38191W        W 4732  19.141  38.444   0.446
38192W        W 4733  15.819  14.000   1.624
38193W        W 4734  15.643  42.701   4.107
38194W        W 4735   3.027  14.034  13.038
38195W        W 4736  35.598  33.106  11.893
38196W        W 4737  16.071  44.300   1.303
38197W        W 4738   7.761  15.519  10.546
38198W        W 4739  11.857  22.623  14.489
38199W        W 4740  15.679  26.540  12.381
38200W        W 4741  33.464   7.298  14.081
38201W        W 4742  40.994  28.015  13.773
38202W        W 4743  21.512  36.911  11.040
38203W        W 4744  32.585  30.689   2.205
38204W        W 4745  29.616  19.708   4.644
38205W        W 4746  14.140  23.350  13.819
38206W        W 4747  10.288  13.812  11.164
38207W        W 4748  41.549   4.861  11.355
38208W        W 4749   5.458   5.425   3.335
38209W        W 4750  36.522  16.141  12.773
38210W        W 4751   8.256  42.599  13.559
38211W        W 4752  14.089  34.984  10.289
38212W        W 4753  16.182  10.952   3.139
38213W        W 4754  18.837  20.987   0.875
38214W        W 4755  13.982   6.623  13.347
38215W        W 4756  26.712  32.592  13.863
38216W        W 4757  29.216   4.735  12.517
38217W        W 4758  30.576  22.721   1.187
38218W        W 4759   2.930  41.712  12.332
38219W        W 4760  23.975  17.599  12.117
38220W        W 4761   7.337  27.499  11.126
38221W        W 4762  29.320  43.819   0.420
38222W        W 4763  12.088  43.080  11.635
38223W        W 4764   7.193  40.998   4.348
38224W        W 4765  17.733  11.213   2.252
38225W        W 4766  11.177   1.390  11.903
38226W        W 4767   6.703  29.180  10.932
38227W        W 4768  10.728  40.167  14.874
38228W        W 4769  31.954  43.397  12.645
38229W        W 4770  32.072  20.467   2.265
38230W        W 4771  23.270  39.015  12.616
38231W        W 4772   2.195  20.682  14.048
38232W        W 4773   7.278  19.674  14.956
38233W        W 4774  37.637  28.176   0.428
38234W        W 4775  17.018  19.496   2.227
38235W        W 4776   5.215   8.964   0.346
38236W        W 4777   6.918  44.302   4.572
38237W        W 4778  22.551  12.377  12.501
38238W        W 4779  44.692   5.508  14.390
38239W        W 4780  42.044  19.634  10.263
38240W        W 4781  26.950  22.778  14.384
38241W        W 4782   6.307  38.470  14.902
38242W        W 4783  23.013  25.503  14.733
38243W        W 4784  16.806   2.052  14.244
38244W        W 4785   0.379   2.230  13.385
38245W        W 4786  41.780  29.484   1.421
38246W        W 4787   9.347   5.650  10.387
38247W        W 4788   4.926  27.986  13.536
38248W        W 4789  33.125   1.561   3.854
38249W        W 4790  15.364  11.274  14.107
38250W        W 4791  28.235  37.374  11.537
38251W        W 4792  26.711   0.728  12.096
38252W        W 4793  19.880  19.407  10.604
38253W        W 4794  44.094  31.532  10.852
38254W        W 4795  24.165  21.676  12.961
38255W        W 4796   8.299  31.374   2.697
38256W        W 4797  27.499   3.247   0.460
38257W        W 4798  23.094  14.673  12.004
38258W        W 4799   2.236  21.905   3.964
38259W        W 4800  22.476  34.974  13.372
38260W        W 4801   6.343   5.408   2.696
38261W        W 4802  40.850   8.413  10.985
38262W        W 4803  22.230   1.594   1.768
38263W        W 4804   1.783  44.326   1.421
38264W        W 4805   4.707  44.465  11.553
38265W        W 4806  35.002   5.849  13.885
38266W        W 4807  23.147  19.076   1.094
38267W        W 4808  28.732  42.968  11.570
38268W        W 4809  40.828  40.933  14.057
38269W        W 4810   1.846  15.727   4.412
38270W        W 4811  30.458   2.256  14.961
38271W        W 4812  21.225  34.614  10.436
38272W        W 4813  21.221  26.256  13.550
38273W        W 4814  34.458   4.304   3.567
38274W        W 4815  41.240  16.217  14.845
38275W        W 4816   2.236  22.173   0.709
38276W        W 4817  22.177  15.852  11.971
38277W        W 4818  27.515  24.176   1.177
38278W        W 4819   6.271  23.230   0.863
38279W        W 4820   8.902  12.271  13.004
38280W        W 4821   7.238   8.688  13.712
38281W        W 4822  34.142  12.625   3.781
38282W        W 4823  39.313  12.811  10.245
38283W        W 4824   4.444  23.687   1.912
38284W        W 4825  23.941  35.135  14.775
38285W        W 4826   2.992  21.178   0.344
38286W        W 4827  33.662   4.146  13.743
38287W        W 4828  22.285  12.219  13.997
38288W        W 4829  39.842  19.149   3.091
38289W        W 4830   8.212  35.981   3.565
38290W        W 4831  41.537  20.520  10.847
38291W        W 4832   0.993  34.657   1.828
38292W        W 4833  31.401  36.924   0.021
38293W        W 4834  10.174   8.909   3.307
38294W        W 4835  29.661  44.067   1.737
38295W        W 4836  40.887  25.234  10.933
38296W        W 4837  29.087  18.803   0.319
38297W        W 4838  32.627  15.327  12.536
38298W        W 4839   9.185  40.939   1.202
38299W        W 4840   1.734   0.428   3.641
38300W        W 4841  25.441   1.600   4.512
38301W        W 4842  25.249   2.332  12.085
38302W        W 4843  18.363  36.349  11.618
38303W        W 4844  34.068  19.979   2.394
38304W        W 4845  22.550   8.771   4.674
38305W        W 4846  40.291   6.222  13.445
38306W        W 4847  31.196  30.386   1.882
38307W        W 4848  37.393  23.128   3.655
38308W        W 4849   6.152  12.794  10.221
38309W        W 4850  39.549  24.213  12.904
38310W        W 4851   5.686  37.349   1.643
38311W        W 4852  20.717  25.366  12.427
38312W        W 4853  33.926   3.302   0.302
38313W        W 4854   5.190  30.169  13.045
38314W        W 4855  21.241   1.194   3.751
38315W        W 4856  10.996   5.858  14.830
38316W        W 4857   9.816  10.659  13.895
38317W        W 4858  35.826  23.432  13.592
38318W        W 4859   9.181   3.025  12.510
38319W        W 4860  41.957  12.082   0.346
38320W        W 4861   1.586   8.351   1.400
38321W        W 4862  16.029  11.450   3.282
38322W        W 4863  38.855  10.361  11.692
38323W        W 4864  29.932  18.107   1.284
38324W        W 4865  19.946  30.157  14.972
38325W        W 4866   7.121  30.329   4.492
38326W        W 4867  17.773  35.899  11.962
38327W        W 4868   9.755  34.569  11.654
38328W        W 4869  44.579  40.591  14.374
38329W        W 4870  25.702   3.902   1.352
38330W        W 4871  18.239   7.245  13.635
38331W        W 4872  26.312   2.841  13.385
38332W        W 4873  33.049  34.909  10.893
38333W        W 4874  42.800  33.155  11.905
38334W        W 4875  29.744  15.027  14.051
38335W        W 4876  16.189  15.967  12.348
38336W        W 4877  24.006  36.316  14.958
38337W        W 4878  34.623  18.778   4.154
38338W        W 4879  19.655  20.583   0.943
38339W        W 4880   9.205  26.595   0.705
38340W        W 4881  25.529  32.612  14.561
38341W        W 4882  16.788  23.725   0.903
38342W        W 4883   3.856   4.033   1.383
38343W        W 4884  37.682  31.862  11.014
38344W        W 4885  26.595  28.988   2.918
38345W        W 4886  42.344  40.421   4.580
38346W        W 4887   4.280  37.340  13.903
38347W        W 4888  27.987   0.402   4.278
38348W        W 4889  20.612  38.216  11.116
38349W        W 4890  13.478  44.748   0.567
38350W        W 4891  39.986  27.922   4.229
38351W        W 4892   8.810  12.552   0.743
38352W        W 4893   1.369  41.586   2.398
38353W        W 4894   9.722   9.129   1.277
38354W        W 4895   6.197  16.283   0.710
38355W        W 4896   6.799   0.484   4.627
38356W        W 4897  13.675  11.170   2.319
38357W        W 4898  37.462  22.206   0.299
38358W        W 4899  23.271   7.083   0.216
38359W        W 4900  41.280  14.231  14.429
38360W        W 4901  26.399  37.596   1.019
38361W        W 4902   1.973  24.088  13.477
38362W        W 4903  18.218  18.706   0.289
38363W        W 4904   0.879  12.869   1.202
38364W        W 4905  25.493  12.117  14.347
38365W        W 4906  34.023  18.039   0.416
38366W        W 4907  25.348  23.243   1.395
38367W        W 4908  39.167  37.130  10.163
38368W        W 4909  12.182  24.546  12.020
38369W        W 4910  32.878  19.439   2.450
38370W        W 4911  38.170  29.233   0.214
38371W        W 4912  16.595  11.100   0.283
38372W        W 4913  14.353  37.865   2.164
38373W        W 4914  42.547  30.950  11.335
38374W        W 4915  20.030  33.909  13.623
38375W        W 4916   4.059  32.512   3.850
38376W        W 4917  38.994   6.888   1.643
38377W        W 4918  31.341  21.239  10.441
38378W        W 4919  19.685  41.581  11.972
38379W        W 4920  42.929  28.208   1.387
38380W        W 4921   1.195  37.017  13.920
38381W        W 4922  36.240   0.721  11.951
38382W        W 4923   1.330  37.114  11.117
38383W        W 4924  42.299   1.740  12.532
38384W        W 4925  44.823  20.635  11.126
38385W        W 4926  41.944  21.062   2.684
38386W        W 4927  26.174   7.729  13.035
38387W        W 4928  32.414  27.185   4.823
38388W        W 4929   2.003  44.541   3.196
38389W        W 4930  19.541  15.051   3.266
38390W        W 4931  23.465  26.269   4.249
38391W        W 4932   9.241  43.567   4.248
38392W        W 4933   5.127  42.293   4.206
38393W        W 4934   0.423   9.453  12.006
38394W        W 4935  22.094   8.528  13.429
38395W        W 4936  43.714  28.877  12.047
38396W        W 4937  25.397   6.754   4.190
38397W        W 4938  22.222  19.130   0.665
38398W        W 4939  24.156  36.346  10.554
38399W        W 4940  44.982  35.160   3.715
38400W        W 4941  36.102  10.783  12.020
38401W        W 4942   1.456   9.644   0.553
38402W        W 4943  32.894  41.042   1.104
38403W        W 4944  28.165   2.380   4.563
38404W        W 4945  30.545  32.842   2.338
38405W        W 4946  44.201  39.089   2.370
38406W        W 4947   7.524   2.060  14.242
38407W        W 4948   5.380  30.349   1.765
38408W        W 4949  20.582   8.848   3.379
38409W        W 4950   3.713  16.165  12.468
38410W        W 4951  32.230   0.306  13.995
38411W        W 4952  33.694  26.008  10.718
38412W        W 4953  24.367  26.972  12.833
38413W        W 4954   3.123  39.529   3.618
38414W        W 4955  24.789   3.496   3.018
38415W        W 4956  43.557   6.210  10.594
38416W        W 4957  17.005  10.254   1.917
38417W        W 4958   3.030  35.353   3.284
38418W        W 4959   4.316  36.157  12.489
38419W        W 4960   1.279  42.367   0.314
38420W        W 4961  29.557  13.739   4.422
38421W        W 4962  42.931  12.358  14.390
38422W        W 4963   9.459  33.157  14.862
38423W        W 4964  35.630   7.613  14.435
38424W        W 4965   3.273  23.896  13.058
38425W        W 4966   9.240   2.548  13.905
38426W        W 4967  19.510  29.557   4.111
38427W        W 4968  10.857   6.898   3.750
38428W        W 4969  17.587  35.138  13.419
38429W        W 4970  21.635  12.059   1.649
38430W        W 4971  27.097  39.497  13.987
38431W        W 4972  12.772  30.889  12.017
38432W        W 4973  41.379  22.573   4.639
38433W        W 4974  23.153   1.264   2.925
38434W        W 4975  18.658  13.551  14.130
38435W        W 4976  34.068  23.411   1.246
38436W        W 4977  21.691  11.586   4.688
38437W        W 4978  10.747  17.284   2.912
38438W        W 4979  11.465  40.537   9.805
38439W        W 4980  40.023  22.294   4.650
38440W        W 4981  12.779   1.256   0.824
38441W        W 4982   3.306   5.974  10.342
38442W        W 4983  35.816  17.989  11.956
38443W        W 4984  40.754   3.870   4.861
38444W        W 4985  13.645  29.905   5.191
38445W        W 4986   9.641  32.092  10.912
38446W        W 4987   7.589   4.928  12.332
38447W        W 4988  43.836  37.287   1.012
38448W        W 4989  13.627  40.071  13.849
38449W        W 4990   6.786  16.609   1.692
38450W        W 4991  30.822  34.854   1.172
38451W        W 4992  24.573  25.461   1.811
38452W        W 4993  20.324  30.876  13.357
38453W        W 4994  28.199  10.305   1.005
38454W        W 4995  27.055   5.210  13.185
38455W        W 4996   7.803  44.385  12.692
38456W        W 4997  13.121  30.393   4.109
38457W        W 4998  35.491  17.077   1.575
38458W        W 4999   4.802   0.265  10.704
38459W        W 5000  29.717   7.667   1.788
38460W        W 5001  36.417   1.787   0.035
38461W        W 5002   1.877  31.655   3.976
38462W        W 5003  36.064  10.774  14.331
38463W        W 5004  17.792   6.714   4.591
38464W        W 5005  26.762   0.775  13.393
38465W        W 5006  35.487  35.075   0.048
38466W        W 5007  20.788  20.811  13.302
38467W        W 5008  35.400  29.666   1.841
38468W        W 5009  32.920   3.871  10.783
38469W        W 5010  32.080  18.002   2.298
38470W        W 5011   7.668  29.274   0.465
38471W        W 5012  20.901  44.077  14.019
38472W        W 5013   9.659  27.182   1.211
38473W        W 5014  31.074  26.715   3.140
38474W        W 5015  15.734  40.649  12.135
38475W        W 5016  13.731  28.638   3.641
38476W        W 5017  22.056  28.678  10.712
38477W        W 5018  21.217  26.987  12.047
38478W        W 5019  43.243  21.248  13.342
38479W        W 5020  30.991  14.091   1.258
38480W        W 5021  40.874   9.103   4.610
38481W        W 5022   3.238  19.718  13.206
38482W        W 5023   2.628  36.692  14.518
38483W        W 5024   2.660  40.750  12.653
38484W        W 5025   2.310  24.207   4.670
38485W        W 5026  20.204  14.678   2.363
38486W        W 5027  41.927  25.161  10.635
38487W        W 5028  42.748  32.606   4.603
38488W        W 5029   5.200   3.292  13.499
38489W        W 5030  44.949   5.056   2.735
38490W        W 5031   5.659  16.656  11.539
38491W        W 5032  36.331  39.180   1.844
38492W        W 5033  16.722  16.168  13.567
38493W        W 5034  22.045  36.940  10.453
38494W        W 5035  24.181  41.972  12.887
38495W        W 5036  40.599  39.878   2.224
38496W        W 5037   0.961   6.681   3.204
38497W        W 5038  41.725  32.759   2.802
38498W        W 5039   2.954  25.991  14.581
38499W        W 5040  14.430  26.689   1.228
38500W        W 5041  38.292  39.017   1.629
38501W        W 5042   4.684  16.892   3.891
38502W        W 5043  16.384  11.163   3.568
38503W        W 5044  36.994   0.232  10.704
38504W        W 5045  40.516  13.560   2.259
38505W        W 5046   6.778  15.342   3.752
38506W        W 5047   0.384  34.891   3.580
38507W        W 5048  35.071  37.202  14.773
38508W        W 5049  18.201  31.295   1.417
38509W        W 5050  32.284   4.083  11.034
38510W        W 5051  32.911  14.374   1.873
38511W        W 5052  42.991  32.212   2.181
38512W        W 5053  19.199  38.398   4.700
38513W        W 5054  35.451  36.420  10.828
38514W        W 5055  29.204  12.439   2.154
38515W        W 5056  37.063  24.240  11.684
38516W        W 5057  32.411  18.736   4.530
38517W        W 5058  36.075  39.532   3.319
38518W        W 5059  23.871   0.337  12.501
38519W        W 5060  44.835  14.733  12.473
38520W        W 5061  21.539  39.253   1.214
38521W        W 5062  23.405   0.924  13.006
38522W        W 5063  25.358   0.998   1.675
38523W        W 5064  29.672  41.896   3.606
38524W        W 5065   8.544  39.333   3.129
38525W        W 5066  20.751  35.065   3.340
38526W        W 5067  14.011  33.440   3.644
38527W        W 5068  17.615  44.530  10.851
38528W        W 5069   8.206  38.009  13.261
38529W        W 5070   2.448  37.973   0.897
38530W        W 5071   9.335  42.325  11.155
38531W        W 5072  30.708  38.701  12.002
38532W        W 5073  39.135  24.687  11.164
38533W        W 5074  36.926  16.622   3.997
38534W        W 5075  21.658   4.985   1.418
38535W        W 5076  27.412  24.097   0.295
38536W        W 5077  32.460  10.381   2.678
38537W        W 5078  27.569   0.677  12.605
38538W        W 5079  42.577   0.847  12.099
38539W        W 5080  19.741  33.454  10.482
38540W        W 5081  24.380  32.811   2.782
38541W        W 5082  40.935  11.639   1.227
38542W        W 5083  37.170  10.415  10.395
38543W        W 5084  17.230  43.580  11.671
38544W        W 5085  24.580  25.965   1.805
38545W        W 5086  35.958  34.833   3.965
38546W        W 5087  27.373  13.987  11.772
38547W        W 5088  13.018  14.662   0.355
38548W        W 5089  33.366  41.058  13.259
38549W        W 5090  31.418  36.032  14.788
38550W        W 5091  41.260   5.249   3.393
38551W        W 5092   1.849  24.545  11.381
38552W        W 5093   5.995  29.556  10.665
38553W        W 5094  33.140  13.375  13.495
38554W        W 5095  16.944   8.874  11.524
38555W        W 5096  24.298   6.633   5.491
38556W        W 5097  12.136  44.258  14.522
38557W        W 5098  24.334  14.062   3.688
38558W        W 5099  36.309   0.298  14.129
38559W        W 5100  19.163  32.086   0.377
38560W        W 5101   8.708  27.103  11.656
38561W        W 5102  36.355  41.333  12.510
38562W        W 5103  13.531  36.833   4.599
38563W        W 5104  31.354  13.562   2.763
38564W        W 5105  22.233  16.857  13.418
38565W        W 5106   2.285  37.180  11.657
38566W        W 5107  11.662  18.425   3.133
38567W        W 5108  23.989  34.093  13.859
38568W        W 5109  39.567  19.090  12.119
38569W        W 5110  41.358  10.175   0.324
38570W        W 5111  22.613  44.350   0.107
38571W        W 5112  11.115  38.479   4.253
38572W        W 5113  32.930  16.597   2.429
38573W        W 5114  34.279  34.960  12.840
38574W        W 5115  11.185  26.237  13.955
38575W        W 5116  24.114   9.908   1.702
38576W        W 5117  31.380  12.725  13.367
38577W        W 5118  25.877  10.708   1.805
38578W        W 5119   5.865   9.115  11.449
38579W        W 5120   9.695   3.305   2.815
38580W        W 5121  16.213  12.874  10.570
38581W        W 5122  19.110  25.001  11.100
38582W        W 5123  29.868  10.279  11.301
38583W        W 5124  11.840  20.042   4.579
38584W        W 5125  41.471   4.895  12.356
38585W        W 5126  26.266   1.174  14.345
38586W        W 5127  40.245  42.470  12.956
38587W        W 5128   9.595  38.014  14.286
38588W        W 5129  37.105  14.388   3.896
38589W        W 5130  44.474  17.112  12.900
38590W        W 5131  15.239  16.743   0.751
38591W        W 5132  15.131  29.922  11.068
38592W        W 5133   5.813  33.124  14.912
38593W        W 5134  24.079  19.089  11.135
38594W        W 5135  32.406  10.942   2.876
38595W        W 5136  17.237  27.965   0.873
38596W        W 5137  24.725  35.827  13.508
38597W        W 5138  33.487  25.200  13.821
38598W        W 5139  12.082  10.784  12.437
38599W        W 5140   1.968  42.106   3.666
38600W        W 5141  18.147  10.080  12.027
38601W        W 5142  32.228  17.634  11.564
38602W        W 5143  27.027  43.456   3.270
38603W        W 5144  21.713  22.255  11.259
38604W        W 5145  41.795   7.190  12.494
38605W        W 5146  38.910  28.360  10.967
38606W        W 5147  27.714  21.551   1.133
38607W        W 5148  17.675  32.199   5.162
38608W        W 5149   8.777   6.078  12.975
38609W        W 5150  10.309  32.271   0.482
38610W        W 5151  42.640  17.711   4.256
38611W        W 5152  35.566  43.723   4.530
38612W        W 5153   9.327  20.074  13.053
38613W        W 5154   3.501   9.232  11.779
38614W        W 5155  15.260  34.907   1.557
38615W        W 5156  27.037  38.246   4.826
38616W        W 5157  13.962  20.829  11.241
38617W        W 5158  26.398  34.356  12.339
38618W        W 5159  27.427   6.801   0.549
38619W        W 5160  13.269   9.331   4.679
38620W        W 5161  42.525  23.075  12.898
38621W        W 5162  19.242   6.361  11.159
38622W        W 5163  18.754  21.029  13.588
38623W        W 5164  40.599  15.630   2.834
38624W        W 5165  15.262  13.793   2.904
38625W        W 5166   2.689  21.150  11.145
38626W        W 5167  34.860  33.876  14.064
38627W        W 5168  31.216  33.696   0.445
38628W        W 5169  41.193  32.768  12.944
38629W        W 5170  43.562   6.011  13.548
38630W        W 5171   4.300  35.570   4.699
38631W        W 5172  30.661  27.538  13.065
38632W        W 5173  16.701  30.945  12.850
38633W        W 5174   3.910   2.753   0.155
38634W        W 5175  25.811  21.993  11.370
38635W        W 5176   8.304  20.255   1.814
38636W        W 5177  32.185  20.962   3.204
38637W        W 5178  43.214   3.287  12.625
38638W        W 5179  13.140  37.560  13.806
38639W        W 5180  38.475  40.893  11.873
38640W        W 5181  40.542  31.998   2.714
38641W        W 5182  30.262  26.188  14.754
38642W        W 5183  24.060  13.831  13.886
38643W        W 5184   2.273  38.001  13.784
38644W        W 5185  33.768  10.784   1.253
38645W        W 5186  43.360   9.659   1.888
38646W        W 5187  43.290  35.361  13.357
38647W        W 5188  40.367   8.522   3.876
38648W        W 5189  14.341  15.680  11.058
38649W        W 5190  19.715   2.451   3.690
38650W        W 5191  11.528  38.847  11.095
38651W        W 5192  24.066  36.426   2.222
38652W        W 5193  44.976  19.580  13.312
38653W        W 5194  12.456  32.491  12.642
38654W        W 5195  21.743  32.370   2.110
38655W        W 5196   4.938  27.137   1.007
38656W        W 5197  43.442  38.283  12.951
38657W        W 5198   6.668   6.292  13.681
38658W        W 5199  43.012   6.622   0.836
38659W        W 5200  24.479  12.375   2.354
38660W        W 5201  20.509  11.258  11.569
38661W        W 5202  21.121   7.080   3.968
38662W        W 5203   2.187  37.536   0.967
38663W        W 5204  33.417  22.339   3.643
38664W        W 5205  29.485  37.801  14.033
38665W        W 5206  19.586  21.986   0.683
38666W        W 5207  25.727  40.794  12.540
38667W        W 5208  14.681  11.780   0.943
38668W        W 5209  43.147  23.791   0.410
38669W        W 5210  37.711   5.063   5.010
38670W        W 5211  39.768  40.430  11.560
38671W        W 5212  28.875  34.793   1.211
38672W        W 5213  41.191  30.539   2.813
38673W        W 5214   1.847  34.149  11.201
38674W        W 5215  26.186  29.259  10.360
38675W        W 5216  12.802   3.733  11.610
38676W        W 5217  41.282   0.043   0.030
38677W        W 5218  41.566   9.183  14.228
38678W        W 5219  33.564  33.590  14.484
38679W        W 5220  23.080  40.298   3.519
38680W        W 5221  26.213  15.407  10.696
38681W        W 5222  20.575   3.861   0.442
38682W        W 5223  23.466   9.187  13.575
38683W        W 5224  28.496  36.483   4.515
38684W        W 5225  43.928   1.211   0.404
38685W        W 5226  33.008  38.043  12.224
38686W        W 5227   9.844  13.257   2.399
38687W        W 5228  21.722   9.780  13.449
38688W        W 5229  14.553  21.656  14.243
38689W        W 5230   7.326  10.336   3.157
38690W        W 5231   8.372  16.502  12.703
38691W        W 5232  37.369  20.063  11.745
38692W        W 5233  14.704  41.793   0.867
38693W        W 5234  22.657  21.628   4.177
38694W        W 5235   6.481  10.289  13.879
38695W        W 5236  43.831   9.240  11.289
38696W        W 5237  12.451   8.581  12.964
38697W        W 5238  23.704  14.602  11.992
38698W        W 5239  25.499  21.088   3.832
38699W        W 5240   8.841  17.217   5.146
38700W        W 5241  21.969  40.539   1.758
38701W        W 5242   7.124  42.377  12.388
38702W        W 5243  26.560  41.413  12.284
38703W        W 5244  35.461  15.046  14.547
38704W        W 5245  24.766  44.649   2.398
38705W        W 5246  38.405   8.770   3.659
38706W        W 5247  22.666   0.385  10.744
38707W        W 5248  27.004   8.336  13.286
38708W        W 5249   1.495  27.470   0.225
38709W        W 5250   7.875  13.653  13.364
38710W        W 5251  12.363  19.510  12.867
38711W        W 5252   6.239  33.644  14.064
38712W        W 5253   4.905  28.797   2.129
38713W        W 5254  26.659   8.437  14.351
38714W        W 5255   3.144  18.937  12.005
38715W        W 5256  12.123  29.932   2.662
38716W        W 5257  12.706   5.737   4.594
38717W        W 5258  23.209  39.457  10.370
38718W        W 5259   6.322   2.408  12.370
38719W        W 5260   1.274  21.513  11.729
38720W        W 5261  29.890  18.652  13.472
38721W        W 5262  21.391   5.408  14.341
38722W        W 5263  23.197  31.327  13.079
38723W        W 5264  41.544  30.087   0.424
38724W        W 5265  27.765  24.104   4.840
38725W        W 5266  15.608  22.299  10.956
38726W        W 5267  33.612  23.289   1.018
38727W        W 5268   2.867  20.649   4.624
38728W        W 5269  36.995  42.036  14.930
38729W        W 5270   4.190   6.656   0.111
38730W        W 5271  39.910  22.895  10.617
38731W        W 5272   6.678  22.136  13.481
38732W        W 5273  42.329  17.514   4.587
38733W        W 5274   7.715  17.262  12.187
38734W        W 5275   8.844   9.279   5.066
38735W        W 5276  25.676  42.432  14.549
38736W        W 5277  13.398  13.926   5.081
38737W        W 5278  14.654   9.751  12.014
38738W        W 5279  10.379  10.744   2.698
38739W        W 5280  34.601  11.247   1.606
38740W        W 5281  23.958  44.831   0.698
38741W        W 5282  20.037   5.346  14.415
38742W        W 5283  14.225   4.678  10.968
38743W        W 5284   4.210  37.085  14.962
38744W        W 5285  34.524  19.395  11.239
38745W        W 5286   6.805  20.540  14.593
38746W        W 5287   9.140   1.009   4.581
38747W        W 5288  33.075  27.497  14.455
38748W        W 5289  20.271  37.650   4.498
38749W        W 5290  15.357   6.602   4.696
38750W        W 5291  35.452   0.972  13.541
38751W        W 5292  28.258   6.539   4.091
38752W        W 5293   3.395  43.974  13.139
38753W        W 5294  27.485   0.354  14.156
38754W        W 5295  22.198  14.147   4.933
38755W        W 5296  23.693  28.835   3.524
38756W        W 5297  42.815  10.607   2.721
38757W        W 5298  26.720  21.906  13.258
38758W        W 5299  21.445   9.138  10.557
38759W        W 5300  30.658  39.989   2.799
38760W        W 5301  41.855   8.804  13.997
38761W        W 5302  35.013  34.070   4.977
38762W        W 5303  26.924  10.800  12.817
38763W        W 5304  40.380  38.298   2.695
38764W        W 5305  12.751  37.947   4.535
38765W        W 5306  43.790  28.312  13.874
38766W        W 5307  12.211  25.295  11.284
38767W        W 5308  34.020  24.166  13.092
38768W        W 5309   1.508  39.843  11.456
38769W        W 5310  16.830  32.598  14.506
38770W        W 5311   2.840  17.244   0.486
38771W        W 5312   0.536  19.974   1.691
38772W        W 5313   3.769  28.203  12.586
38773W        W 5314  15.157  28.052   2.279
38774W        W 5315  34.056  26.342  11.606
38775W        W 5316   5.832  31.671   4.021
38776W        W 5317   5.241  19.748   2.642
38777W        W 5318  31.652  27.366   2.547
38778W        W 5319  38.405  34.883  11.027
38779W        W 5320  22.153  42.942  12.998
38780W        W 5321  15.671  27.142  13.545
38781W        W 5322  38.055  40.077  12.080
38782W        W 5323  11.756  44.442  13.158
38783W        W 5324  15.103  42.930   4.404
38784W        W 5325  28.571   4.394  13.018
38785W        W 5326   7.928   8.157  12.984
38786W        W 5327  34.938  12.328  11.689
38787W        W 5328   8.193  37.614  12.922
38788W        W 5329   9.664   5.638   4.182
38789W        W 5330  19.666  41.885   3.123
38790W        W 5331  31.167  18.605  13.404
38791W        W 5332  26.530  14.226  11.166
38792W        W 5333  34.062   5.168  11.538
38793W        W 5334   3.625  43.528  13.059
38794W        W 5335   3.925  38.839  10.591
38795W        W 5336   9.340   0.037  13.091
38796W        W 5337  16.519  21.639   1.895
38797W        W 5338  38.039  22.143  10.711
38798W        W 5339  28.077  14.730  10.832
38799W        W 5340  16.588  39.772   4.679
38800W        W 5341  13.316   7.675   4.475
38801W        W 5342  37.538   5.386   4.601
38802W        W 5343  25.597  17.178   3.995
38803W        W 5344  36.423  40.024  10.636
38804W        W 5345  34.979  23.074   2.383
38805W        W 5346  34.709   4.231   0.501
38806W        W 5347  32.300  41.536  14.217
38807W        W 5348  25.161  40.761   4.074
38808W        W 5349  42.584  35.054  11.609
38809W        W 5350  44.756  19.038  10.908
38810W        W 5351  20.769  20.981  12.124
38811W        W 5352  25.446  43.907  13.228
38812W        W 5353  15.666   4.728  12.504
38813W        W 5354  33.168  16.254   3.176
38814W        W 5355   9.860   7.479  14.847
38815W        W 5356   9.883   5.255  13.703
38816W        W 5357  33.578  39.149  12.953
38817W        W 5358  38.042   9.778  11.744
38818W        W 5359  22.119  29.648   0.663
38819W        W 5360  41.474  11.814  13.590
38820W        W 5361   2.548   8.649  10.060
38821W        W 5362  27.971  12.879  13.240
38822W        W 5363  42.511  29.423  13.444
38823W        W 5364  39.940  41.808  10.494
38824W        W 5365  43.528  20.131  13.911
38825W        W 5366  37.072  28.194  13.055
38826W        W 5367  14.021  25.495   1.852
38827W        W 5368  36.428  15.443  13.345
38828W        W 5369  12.619   4.896   2.663
38829W        W 5370   7.872   7.501  12.043
38830W        W 5371  31.594  20.614  12.455
38831W        W 5372  29.680  41.597  12.899
38832W        W 5373  39.910   0.784  14.527
38833W        W 5374  18.763  39.404   4.226
38834W        W 5375  17.901  16.578  13.772
38835W        W 5376  39.772   7.425  14.015
38836W        W 5377  13.467   7.195  12.877
38837W        W 5378  26.180  17.045   2.151
38838W        W 5379  19.214   1.766   1.401
38839W        W 5380  34.876   3.522   2.828
38840W        W 5381  38.223  19.055  12.518
38841W        W 5382  13.685  32.222  13.141
38842W        W 5383  44.753  33.361  12.845
38843W        W 5384  33.030  28.848   3.178
38844W        W 5385  22.046   9.677  11.104
38845W        W 5386   0.485   9.433   0.796
38846W        W 5387  14.635  24.229   1.499
38847W        W 5388   2.263  39.908  12.845
38848W        W 5389  42.274  35.917   3.229
38849W        W 5390  35.285  15.743  13.413
38850W        W 5391   0.369  38.503  13.579
38851W        W 5392  26.603  15.209  14.749
38852W        W 5393  33.027  15.705  14.086
38853W        W 5394  43.769   7.252  13.241
38854W        W 5395   9.687  13.726  13.076
38855W        W 5396  29.455  14.952  13.270
38856W        W 5397  23.353  11.229   1.395
38857W        W 5398   6.476   1.867  12.568
38858W        W 5399  42.432  12.199  13.457
38859W        W 5400  34.038  13.903  13.362
38860W        W 5401  29.962  20.777   2.226
38861W        W 5402  16.955  14.647   9.708
38862W        W 5403  30.406  39.113  12.862
38863W        W 5404  18.711  35.810   3.299
38864W        W 5405  40.807  23.456  10.689
38865W        W 5406   9.108  28.427   0.882
38866W        W 5407  19.576  25.221  11.280
38867W        W 5408   3.737  16.688  14.498
38868W        W 5409  19.091   7.300  11.630
38869W        W 5410  22.461  14.903   4.464
38870W        W 5411  20.033  36.296  10.977
38871W        W 5412  33.935  12.044  13.252
38872W        W 5413  22.879   7.163  11.619
38873W        W 5414  34.596  16.076   4.261
38874W        W 5415  30.953  42.872   3.652
38875W        W 5416  15.245  21.220   4.377
38876W        W 5417   1.742  10.450   2.054
38877W        W 5418  28.895  24.259   2.662
38878W        W 5419  21.014  42.392   4.844
38879W        W 5420   1.920  33.136   4.171
38880W        W 5421  39.924  23.746  12.048
38881W        W 5422  41.288  22.553  10.615
38882W        W 5423  26.511  22.574   1.306
38883W        W 5424  11.412  42.755   0.568
38884W        W 5425   8.972   5.561   1.929
38885W        W 5426   7.844  32.545  13.944
38886W        W 5427  42.450  43.711  10.433
38887W        W 5428   5.877  44.988   3.842
38888W        W 5429  26.497  35.415  14.340
38889W        W 5430  14.827  30.551   1.732
38890W        W 5431   6.859  15.959  12.062
38891W        W 5432  24.621  23.581   2.034
38892W        W 5433   5.040   6.139  14.988
38893W        W 5434  35.461  25.009  11.696
38894W        W 5435  34.450   4.315   4.103
38895W        W 5436  37.551  23.052  13.919
38896W        W 5437  25.933  17.410  14.814
38897W        W 5438  32.523  35.592   1.002
38898W        W 5439  25.509  26.044   4.673
38899W        W 5440  29.489  35.413  12.958
38900W        W 5441  23.908  43.082  13.502
38901W        W 5442  14.566   7.471   3.885
38902W        W 5443  19.113  24.777  11.579
38903W        W 5444  13.190  33.922   4.650
38904W        W 5445   3.816  23.662  10.617
38905W        W 5446  31.554  27.014  14.720
38906W        W 5447   1.366  11.366  13.438
38907W        W 5448  23.305   3.837  14.367
38908W        W 5449  34.216   3.472  14.440
38909W        W 5450  30.916  14.992  13.462
38910W        W 5451  28.903  43.608  10.478
38911W        W 5452  41.059   5.278  14.975
38912W        W 5453  12.808  44.335   0.638
38913W        W 5454  35.201   3.292  14.734
38914W        W 5455  31.063  11.284   3.609
38915W        W 5456  29.275  23.774   3.292
38916W        W 5457   7.904  15.530  11.071
38917W        W 5458  43.807  38.339   1.247
38918W        W 5459  44.901  17.629  11.970
38919W        W 5460  39.377  33.563   0.835
38920W        W 5461  35.636   4.806   0.369
38921W        W 5462  32.442  38.839   1.778
38922W        W 5463  42.903  35.230  12.537
38923W        W 5464  18.030  33.470  11.098
38924W        W 5465  17.083  22.780  13.623
38925W        W 5466  33.546  42.991  13.293
38926W        W 5467  22.479  29.695   1.353
38927W        W 5468  41.282  19.565   0.694
38928W        W 5469  25.896  38.985   4.045
38929W        W 5470   7.914  34.143   2.765
38930W        W 5471  12.538  13.302   4.318
38931W        W 5472   4.941  14.276  14.452
38932W        W 5473   5.644   3.944  12.048
38933W        W 5474  38.604  30.437   0.851
38934W        W 5475   9.382  44.558  11.001
38935W        W 5476   9.743  32.410  13.949
38936W        W 5477  28.656  11.364  14.476
38937W        W 5478  12.948  33.962   1.841
38938W        W 5479   0.850   8.006  14.267
38939W        W 5480  18.350  18.504   2.344
38940W        W 5481  23.141  44.224  14.394
38941W        W 5482   3.422   8.621   1.727
38942W        W 5483  34.012  42.455   4.092
38943W        W 5484   8.414  42.461  11.114
38944W        W 5485  25.101  13.747   4.120
38945W        W 5486  20.770  15.186  11.362
38946W        W 5487  22.185  14.904   2.079
38947W        W 5488  11.936  41.479  11.854
38948W        W 5489  25.111  15.782   4.207
38949W        W 5490  27.897  35.109  13.319
38950W        W 5491  34.983   5.247  11.374
38951W        W 5492   0.283  37.374  11.181
38952W        W 5493  11.257  10.266  13.722
38953W        W 5494  41.732   9.216   4.967
38954W        W 5495  19.094  32.495  13.398
38955W        W 5496  32.556  11.672   1.398
38956W        W 5497  37.047  20.260   3.594
38957W        W 5498  40.117  12.672  13.925
38958W        W 5499  38.518  27.468  11.245
38959W        W 5500  40.492  19.127   3.323
38960W        W 5501  23.110   1.081  11.042
38961W        W 5502  40.350  16.753   0.273
38962W        W 5503  42.505  18.342   0.755
38963W        W 5504  23.440  13.540  11.085
38964W        W 5505  19.486  21.255  13.587
38965W        W 5506   7.726  23.035  11.654
38966W        W 5507  40.798  20.475  12.462
38967W        W 5508  15.234   0.418   4.575
38968W        W 5509  24.628  33.508   3.924
38969W        W 5510  41.930  26.199   4.885
38970W        W 5511  21.174  21.323   4.598
38971W        W 5512  38.088  27.498   4.536
38972W        W 5513  13.936  42.853   2.789
38973W        W 5514  30.991  29.647  10.588
38974W        W 5515  31.440  27.594   2.116
38975W        W 5516  34.135  36.910  11.181
38976W        W 5517  13.193  32.559  10.643
38977W        W 5518  22.422  12.024   1.509
38978W        W 5519  14.880  17.123  12.530
38979W        W 5520   5.252  20.493   0.452
38980W        W 5521  19.424   9.893  11.990
38981W        W 5522  21.587  34.615   4.042
38982W        W 5523  37.170  34.597  13.357
38983W        W 5524  18.389  26.894  13.718
38984W        W 5525   4.793  17.066  12.082
38985W        W 5526   3.861  18.247   1.208
38986W        W 5527  34.134  18.264  13.445
38987W        W 5528  25.253  27.546   3.707
38988W        W 5529  30.602   9.792   3.608
38989W        W 5530   5.653  20.600  10.951
38990W        W 5531   9.897  14.394  13.885
38991W        W 5532   5.356  12.808  11.236
38992W        W 5533  12.122  19.782   3.288
38993W        W 5534  40.837  33.061   1.883
38994W        W 5535  42.423  26.517   1.286
38995W        W 5536   3.137  23.477  12.763
38996W        W 5537  36.137  31.581  12.401
38997W        W 5538  21.140   8.662   2.714
38998W        W 5539  28.020  12.653   0.312
38999W        W 5540  28.413  38.240   1.773
39000W        W 5541  18.512  25.553   0.389
39001W        W 5542  43.646  37.614  14.785
39002W        W 5543   9.357  30.631  13.879
39003W        W 5544  41.549  25.552  14.859
39004W        W 5545  13.184  23.587   1.812
39005W        W 5546   4.881  11.421  12.904
39006W        W 5547  35.390  28.118   2.730
39007W        W 5548   1.885  28.753   5.065
39008W        W 5549  33.810  40.018   1.907
39009W        W 5550  39.320   7.181  13.961
39010W        W 5551   1.976  22.701   2.760
39011W        W 5552  41.309  29.047   3.120
39012W        W 5553   1.452  31.916   2.808
39013W        W 5554   1.304  37.918   3.978
39014W        W 5555  15.262  10.584   1.796
39015W        W 5556  35.571  16.778  10.359
39016W        W 5557   3.145  14.798   2.754
39017W        W 5558  31.396  33.062  12.117
39018W        W 5559  36.436  38.902   0.903
39019W        W 5560  35.077  31.587   4.624
39020W        W 5561  26.251   8.406  13.546
39021W        W 5562  44.836  40.796  10.688
39022W        W 5563  23.744  28.676  12.929
39023W        W 5564  11.266  16.363   3.793
39024W        W 5565  17.460  25.126   2.168
39025W        W 5566  39.816  40.434  13.889
39026W        W 5567  36.847   3.321   2.110
39027W        W 5568  30.937  39.311  11.180
39028W        W 5569  10.217  36.449   3.703
39029W        W 5570   8.216  27.177   2.211
39030W        W 5571   2.527   2.270   3.265
39031W        W 5572  20.379   0.427  11.908
39032W        W 5573  37.474   1.891  11.700
39033W        W 5574   8.434  30.556   2.353
39034W        W 5575  42.198  17.465   0.983
39035W        W 5576  43.205  26.978   2.795
39036W        W 5577  17.473  24.012  12.163
39037W        W 5578  25.243  15.336  10.701
39038W        W 5579  11.119  31.876  11.942
39039W        W 5580  18.188  39.322  12.079
39040W        W 5581  27.516  41.962   2.696
39041W        W 5582  14.821  34.551   0.398
39042W        W 5583  24.543   6.325   1.372
39043W        W 5584  29.140  29.542  13.896
39044W        W 5585  32.601   4.315   2.249
39045W        W 5586  43.428  36.912  10.642
39046W        W 5587  18.256  37.191  13.802
39047W        W 5588  36.141  42.281   3.716
39048W        W 5589  42.923  36.682  10.636
39049W        W 5590   8.892  19.257   4.690
39050W        W 5591  27.259   3.813  13.451
39051W        W 5592  15.400  35.047   5.399
39052W        W 5593  39.946  35.085   1.235
39053W        W 5594  38.573  28.266   4.183
39054W        W 5595  40.235  34.392  14.970
39055W        W 5596  18.076  24.448  12.416
39056W        W 5597  10.167  23.818  11.155
39057W        W 5598  19.566   0.051  14.060
39058W        W 5599  20.549  14.451   2.710
39059W        W 5600  43.876  13.542  13.536
39060W        W 5601  37.563   0.927   1.416
39061W        W 5602  24.314  36.950   3.261
39062W        W 5603  41.902  10.244  12.595
39063W        W 5604   2.758  18.253  12.599
39064W        W 5605   3.208   2.684   2.733
39065W        W 5606  33.366  43.510   0.772
39066W        W 5607   0.584  38.427   3.295
39067W        W 5608  21.120  31.614   0.103
39068W        W 5609  29.148  30.047   3.198
39069W        W 5610   7.348   8.337   2.676
39070W        W 5611   1.789  24.941   3.679
39071W        W 5612  43.439  36.388   2.728
39072W        W 5613   8.320  24.230   3.730
39073W        W 5614  27.443  43.016  10.554
39074W        W 5615   6.817  12.887   1.471
39075W        W 5616  22.214  41.377  12.385
39076W        W 5617   8.683   2.504   3.584
39077W        W 5618  39.032   4.272   0.726
39078W        W 5619  24.300  40.873  13.068
39079W        W 5620  12.308  44.777  11.095
39080W        W 5621  26.595  44.076   0.899
39081W        W 5622  12.378   4.494  14.968
39082W        W 5623   5.711   8.624   2.419
39083W        W 5624  13.605  10.783   1.319
39084W        W 5625  13.921  18.313   0.021
39085W        W 5626  20.006  14.782  13.647
39086W        W 5627  33.021   3.756  14.672
39087W        W 5628  38.381  18.228  12.051
39088W        W 5629  12.663  21.531   1.215
39089W        W 5630   0.219  17.807  13.038
39090W        W 5631   0.000  17.035   3.178
39091W        W 5632  29.881  44.770   1.259
39092W        W 5633  28.991   2.028  11.059
39093W        W 5634  16.751  32.283   4.599
39094W        W 5635   5.078  35.380   3.719
39095W        W 5636  14.716  12.395  13.334
39096W        W 5637  34.973  30.861  12.324
39097W        W 5638   9.709   2.152  12.787
39098W        W 5639  41.895   2.236   1.276
39099W        W 5640  13.217  17.205  12.382
39100W        W 5641   0.973  36.465   1.295
39101W        W 5642  14.634   0.242   1.452
39102W        W 5643  25.564   3.576   2.661
39103W        W 5644  15.304  11.648   0.252
39104W        W 5645   9.443  23.674   3.239
39105W        W 5646  42.984  13.172  11.490
39106W        W 5647  17.051  10.991  10.252
39107W        W 5648  30.444  44.041   9.767
39108W        W 5649  21.996  17.341  12.933
39109W        W 5650  44.002  10.607   2.348
39110W        W 5651   7.862  23.542   4.525
39111W        W 5652  44.444  44.000  14.512
39112W        W 5653   9.835  19.999   1.776
39113W        W 5654  21.832   5.388  13.058
39114W        W 5655   6.907  11.183   0.787
39115W        W 5656  14.086  15.069   2.844
39116W        W 5657   5.301  17.946  11.138
39117W        W 5658  37.698  13.835   4.909
39118W        W 5659  41.519  33.151   1.398
39119W        W 5660  19.633  34.450   9.931
39120W        W 5661  17.805  42.254  10.774
39121W        W 5662  38.966  20.621   0.244
39122W        W 5663  24.070  43.325   0.733
39123W        W 5664   2.965  33.983  13.033
39124W        W 5665  24.818  41.544   1.275
39125W        W 5666   3.930  17.518  12.539
39126W        W 5667  24.743  27.176   1.512
39127W        W 5668  14.877  38.352  11.425
39128W        W 5669   3.690  25.964   2.278
39129W        W 5670  30.478  44.134  13.630
39130W        W 5671   3.871   0.800   4.686
39131W        W 5672   2.116  13.131  13.843
39132W        W 5673  15.809  31.695  14.259
39133W        W 5674   0.207  23.239  12.086
39134W        W 5675  28.610  19.546  14.412
39135W        W 5676  15.696   1.342  11.593
39136W        W 5677  14.291   7.513   0.856
39137W        W 5678  11.834   8.343  12.065
39138W        W 5679   7.396  11.845   3.652
39139W        W 5680   9.354   6.023   4.640
39140W        W 5681  27.822  34.976  11.908
39141W        W 5682  25.490   8.718   1.719
39142W        W 5683  40.793  20.976   4.176
39143W        W 5684  39.447  16.701   0.735
39144W        W 5685  18.645  22.769   5.015
39145W        W 5686  17.695  25.583  14.804
39146W        W 5687   1.197  10.293  14.468
39147W        W 5688  32.972  33.576   3.328
39148W        W 5689   8.180  28.075  11.564
39149W        W 5690  26.595   9.726  12.590
39150W        W 5691  36.506  32.095   2.644
39151W        W 5692  32.377  16.158   2.713
39152W        W 5693   0.791  30.428  13.342
39153W        W 5694  33.537   4.658   0.960
39154W        W 5695  17.979   2.718  12.081
39155W        W 5696  18.563  38.049   3.625
39156W        W 5697  26.599   0.951   4.522
39157W        W 5698  42.511  15.207   5.014
39158W        W 5699  30.880  18.236   3.783
39159W        W 5700  11.647   8.930  11.362
39160W        W 5701  33.977  14.844  14.303
39161W        W 5702  31.170   4.748  14.949
39162W        W 5703   0.929  34.392  11.238
39163W        W 5704  33.935  36.559  14.891
39164W        W 5705   4.296   2.264   0.285
39165W        W 5706  28.059  28.046   2.091
39166W        W 5707   2.224   2.547  13.492
39167W        W 5708  17.806  37.854   1.974
39168W        W 5709  35.551  14.483  14.436
39169W        W 5710  38.498   3.921  13.081
39170W        W 5711  22.690  32.051  11.515
39171W        W 5712  10.785  40.979   3.814
39172W        W 5713  13.342  31.537   1.588
39173W        W 5714   7.479  39.537  12.162
39174W        W 5715   1.000  23.614  11.997
39175W        W 5716   0.026  14.450   0.830
39176W        W 5717  20.458   1.869   2.687
39177W        W 5718   5.169  30.156   0.247
39178W        W 5719  25.326   5.808  10.701
39179W        W 5720  43.478  35.913  12.566
39180W        W 5721  17.600  20.458   2.770
39181W        W 5722  36.564  31.903  10.355
39182W        W 5723  26.606  13.828  14.996
39183W        W 5724  21.590   8.403   9.486
39184W        W 5725   0.009  11.664  11.182
39185W        W 5726  26.393  44.904   2.744
39186W        W 5727   6.588  22.684  12.501
39187W        W 5728  18.162   4.235   2.376
39188W        W 5729  23.895  33.992   0.934
39189W        W 5730  22.563  12.318   1.904
39190W        W 5731  39.858  17.578   0.373
39191W        W 5732  15.301  32.340   0.896
39192W        W 5733  36.382  36.875   3.716
39193W        W 5734  26.298  25.899   1.364
39194W        W 5735  14.659  20.433  12.597
39195W        W 5736   1.926  33.062  12.526
39196W        W 5737   8.172  38.900  12.876
39197W        W 5738  41.448  42.819  12.559
39198W        W 5739  38.707  27.588  13.756
39199W        W 5740  35.718   0.488   3.655
39200W        W 5741  41.137   4.166   1.802
39201W        W 5742  22.012  12.330   1.412
39202W        W 5743  17.795   6.197  12.946
39203W        W 5744   9.953   2.401   1.448
39204W        W 5745  37.945  14.849   1.179
39205W        W 5746  42.357   2.920   4.465
39206W        W 5747  20.141  35.622  12.981
39207W        W 5748   8.812  26.979   0.821
39208W        W 5749  27.140  15.289   2.779
39209W        W 5750  20.741  23.609  13.151
39210W        W 5751  36.485  41.327  13.013
39211W        W 5752   8.353  14.230   1.263
39212W        W 5753  10.732  30.183  14.886
39213W        W 5754  32.660   5.207   1.003
39214W        W 5755  15.099  15.165   2.787
39215W        W 5756  34.831  33.364  14.844
39216W        W 5757  13.657  23.762  12.471
39217W        W 5758  26.579   4.262   2.488
39218W        W 5759  15.530  35.751  11.141
39219W        W 5760  40.998   2.224   2.196
39220W        W 5761   9.510   8.593  13.166
39221W        W 5762   5.482  16.290   2.877
39222W        W 5763  41.928  11.719  11.160
39223W        W 5764  18.579  44.720  13.855
39224W        W 5765  19.624   2.999  13.996
39225W        W 5766  14.408  21.971  11.126
39226W        W 5767  28.525  21.662  14.336
39227W        W 5768  17.289  39.692  12.058
39228W        W 5769  42.701  35.390  13.661
39229W        W 5770   2.676  21.619   0.387
39230W        W 5771  20.587   2.000   1.282
39231W        W 5772  15.118  29.204  11.546
39232W        W 5773  19.739  13.828  11.237
39233W        W 5774  22.572  29.909   0.801
39234W        W 5775  26.638  41.876   2.759
39235W        W 5776  32.517  16.214   1.223
39236W        W 5777   1.494   1.656   3.607
39237W        W 5778  17.561   6.414  12.544
39238W        W 5779  21.384   6.241   3.380
39239W        W 5780  39.770  20.667   2.144
39240W        W 5781  11.590   9.671  13.074
39241W        W 5782   9.096  13.509  13.520
39242W        W 5783  18.361  16.204   3.573
39243W        W 5784  16.978  37.680  12.938
39244W        W 5785  20.827   8.295   0.780
39245W        W 5786  14.377   8.589  12.442
39246W        W 5787  35.347   5.302  12.100
39247W        W 5788  35.528  19.508  12.897
39248W        W 5789  33.368   9.102  11.492
39249W        W 5790  24.698   1.286   0.661
39250W        W 5791   3.655  26.418  12.586
39251W        W 5792  42.546  28.009  12.043
39252W        W 5793   7.176  14.616  12.507
39253W        W 5794  34.223  25.663   0.703
39254W        W 5795  16.092  13.795   4.825
39255W        W 5796  32.206   4.536  13.554
39256W        W 5797  41.492  12.920  12.367
39257W        W 5798   4.317  39.226  10.763
39258W        W 5799  37.167  15.378   1.215
39259W        W 5800   3.911   2.336  13.856
39260W        W 5801   5.220  11.281   2.243
39261W        W 5802  33.967  10.622   4.649
39262W        W 5803  32.099   4.812   3.290
39263W        W 5804  40.572  16.084  11.725
39264W        W 5805  10.177  32.887  11.216
39265W        W 5806  24.979  39.590  13.352
39266W        W 5807  42.024  21.808   2.103
39267W        W 5808   9.695  28.179   4.058
39268W        W 5809  24.638   4.079   0.793
39269W        W 5810  35.807  33.099   1.399
39270W        W 5811  31.396  43.853   1.683
39271W        W 5812  11.042  19.045   1.176
39272W        W 5813  21.213  43.106  14.029
39273W        W 5814  22.088   2.353  14.603
39274W        W 5815  21.689  23.899   4.640
39275W        W 5816  25.188   4.450  12.062
39276W        W 5817  25.718   6.701   4.615
39277W        W 5818  38.755  44.018   3.611
39278W        W 5819  37.052  25.640   4.864
39279W        W 5820  34.064   3.087   4.273
39280W        W 5821   5.825   7.123   3.782
39281W        W 5822  11.859  25.683  11.152
39282W        W 5823  15.070   1.291   1.286
39283W        W 5824  15.019  41.535  14.872
39284W        W 5825  32.459  38.319   0.817
39285W        W 5826  30.581  25.770   2.306
39286W        W 5827  15.732  20.455   4.231
39287W        W 5828   4.719   4.412  11.900
39288W        W 5829  35.976   7.799  14.799
39289W        W 5830   7.377  14.618   0.789
39290W        W 5831   8.061  35.309   1.296
39291W        W 5832  16.839  41.276  10.783
39292W        W 5833  38.952   0.881  14.504
39293W        W 5834  28.193  32.842   4.597
39294W        W 5835  20.215  31.385  13.400
39295W        W 5836  13.150  16.291  11.873
39296W        W 5837  22.210  29.002  13.598
39297W        W 5838   9.846   9.618   2.735
39298W        W 5839  36.426   4.912   1.305
39299W        W 5840  42.466  18.384   3.465
39300W        W 5841  24.049  28.659   4.176
39301W        W 5842  16.763  32.398   5.131
39302W        W 5843  20.980  36.949  12.432
39303W        W 5844  35.583  41.566   3.736
39304W        W 5845  12.867  25.251   3.240
39305W        W 5846  12.227  39.376   4.119
39306W        W 5847  15.645  20.574  10.743
39307W        W 5848  22.521  41.768  12.398
39308W        W 5849   5.425  38.540   2.255
39309W        W 5850  42.896  30.001  12.075
39310W        W 5851  11.731   9.348  14.701
39311W        W 5852   4.401  14.474  14.334
39312W        W 5853  13.180  40.155  12.415
39313W        W 5854   3.489  43.319  10.425
39314W        W 5855  42.209  21.179   5.113
39315W        W 5856  21.596   0.307   3.180
39316W        W 5857  16.556  15.780   3.806
39317W        W 5858  23.964  25.382   0.374
39318W        W 5859  19.568  24.978  13.913
39319W        W 5860  13.757  18.599   2.372
39320W        W 5861  16.676  12.535  12.457
39321W        W 5862   1.780  32.079  13.511
39322W        W 5863  15.913  28.053   0.238
39323W        W 5864  41.778  19.713   0.356
39324W        W 5865  23.852  20.441   1.239
39325W        W 5866  41.513  21.684   3.338
39326W        W 5867   7.354  13.095   2.734
39327W        W 5868  35.821  14.036   2.225
39328W        W 5869  34.492   7.845   2.650
39329W        W 5870   3.215  20.524   0.917
39330W        W 5871   4.383  44.414  10.223
39331W        W 5872  17.378  32.077  11.504
39332W        W 5873  33.198   9.672   0.867
39333W        W 5874  30.404  44.322   0.964
39334W        W 5875  33.651  12.895   3.376
39335W        W 5876   1.235  34.595   2.321
39336W        W 5877   4.738  38.135  12.912
39337W        W 5878  20.137   6.875   3.568
39338W        W 5879   2.819  41.544  11.102
39339W        W 5880  11.825  29.060   3.681
39340W        W 5881   5.931   6.651  14.264
39341W        W 5882  35.979   8.370  11.321
39342W        W 5883  14.834  36.069  13.653
39343W        W 5884  42.718  21.629   1.351
39344W        W 5885   8.728  40.379   3.104
39345W        W 5886   5.187  37.219   1.865
39346W        W 5887  20.717   9.331   1.166
39347W        W 5888  18.516   4.962  12.850
39348W        W 5889   5.420  17.973   3.267
39349W        W 5890  31.992  44.888  11.517
39350W        W 5891  26.618   8.881   3.540
39351W        W 5892   8.833  32.460  13.061
39352W        W 5893  22.639  24.568  12.041
39353W        W 5894  34.344  33.012  14.571
39354W        W 5895   9.148   5.252  10.713
39355W        W 5896   5.454   7.598  11.712
39356W        W 5897   4.508   9.300  13.460
39357W        W 5898  33.940  24.937   0.412
39358W        W 5899  19.577  15.281   2.144
39359W        W 5900  43.022  19.987  12.716
39360W        W 5901  30.713  40.518   4.716
39361W        W 5902  38.434  35.161   2.694
39362W        W 5903   8.788  36.661  10.729
39363W        W 5904  36.264  37.882   4.587
39364W        W 5905  14.493  39.915  11.641
39365W        W 5906  35.937   2.683   3.660
39366W        W 5907  29.439  42.037  12.106
39367W        W 5908  25.422  40.338   3.303
39368W        W 5909  34.408  32.375  13.360
39369W        W 5910  32.887  36.544  13.305
39370W        W 5911  30.567  10.679   4.177
39371W        W 5912  19.638   9.724   3.788
39372W        W 5913  10.190  39.835   0.956
39373W        W 5914  28.189  13.404  11.090
39374W        W 5915  23.715  13.502   2.718
39375W        W 5916  42.459  18.554   2.107
39376W        W 5917  23.487  15.826  10.644
39377W        W 5918  20.901  10.128   4.991
39378W        W 5919  40.833  33.955  11.477
39379W        W 5920  21.042   3.644   2.300
39380W        W 5921  11.259  12.348  12.133
39381W        W 5922   2.478   6.286   4.193
39382W        W 5923  27.445  26.030   4.219
39383W        W 5924  19.483  17.239   1.697
39384W        W 5925  23.269   4.187  11.192
39385W        W 5926  18.318  23.475   0.657
39386W        W 5927   5.225   7.107   0.879
39387W        W 5928  15.098  22.037  13.172
39388W        W 5929  39.914   8.362   2.790
39389W        W 5930  36.574  38.631  11.505
39390W        W 5931  18.743  40.350  10.787
39391W        W 5932  32.855  20.674  11.145
39392W        W 5933  33.993  27.390  14.349
39393W        W 5934  33.411  16.023  12.348
39394W        W 5935  10.156  22.080   3.818
39395W        W 5936  10.234   5.406  11.627
39396W        W 5937  32.381  37.412  13.342
39397W        W 5938  26.642  14.306   0.234
39398W        W 5939  10.295  12.795   1.047
39399W        W 5940  26.948  26.465   3.319
39400W        W 5941  17.102  11.707  13.997
39401W        W 5942  36.491  35.310   2.247
39402W        W 5943  35.812  10.684  11.582
39403W        W 5944  24.746  32.409  13.993
39404W        W 5945  41.556  14.671  14.515
39405W        W 5946  37.243  38.971   3.741
39406W        W 5947  24.407   2.698   2.704
39407W        W 5948  37.117  17.667   1.196
39408W        W 5949  13.146   6.189  12.391
39409W        W 5950  21.511   0.871  11.077
39410W        W 5951   2.847  40.318   1.915
39411W        W 5952   6.845  22.954  11.211
39412W        W 5953  33.477  26.235   2.221
39413W        W 5954  14.648   8.074   0.079
39414W        W 5955  31.302  34.714   1.387
39415W        W 5956  12.191  42.351  12.972
39416W        W 5957  14.145  12.124   1.569
39417W        W 5958  25.544   2.150   2.259
39418W        W 5959  16.747  23.515  12.120
39419W        W 5960   0.070   8.371  13.812
39420W        W 5961  40.481  15.873   3.780
39421W        W 5962  28.219  44.947   3.140
39422W        W 5963  33.993  12.199   1.005
39423W        W 5964   5.841  22.922  10.950
39424W        W 5965  40.155  44.267  10.471
39425W        W 5966  36.870  22.603  11.974
39426W        W 5967  35.114  18.019   3.794
39427W        W 5968  30.884   6.901  13.930
39428W        W 5969  12.645  32.465  10.630
39429W        W 5970   6.830   4.498   0.944
39430W        W 5971  41.470  19.327   1.123
39431W        W 5972   7.056   7.226  11.930
39432W        W 5973  24.768  36.548   0.273
39433W        W 5974  14.719  31.457  13.441
39434W        W 5975  23.729  30.394   3.566
39435W        W 5976  10.723  22.465  10.883
39436W        W 5977  17.520  21.219  12.685
39437W        W 5978  32.355   1.001   0.469
39438W        W 5979  31.022  34.454  14.320
39439W        W 5980   4.505  27.501   9.766
39440W        W 5981  26.677   2.416   1.789
39441W        W 5982   7.094  19.165   1.899
39442W        W 5983  44.694  18.125  10.951
39443W        W 5984  13.835  43.587  11.662
39444W        W 5985  24.990  29.415   4.535
39445W        W 5986  40.208  10.845  13.936
39446W        W 5987   2.885   5.709   2.863
39447W        W 5988   1.170   2.126   9.774
39448W        W 5989  12.963  44.315   4.463
39449W        W 5990  17.077  36.372  13.421
39450W        W 5991  23.588  10.513  14.851
39451W        W 5992  38.006  15.565  13.712
39452W        W 5993   3.091  16.862  11.158
39453W        W 5994  41.944  24.661   2.719
39454W        W 5995  28.700   6.250  10.916
39455W        W 5996   9.793   9.153  11.541
39456W        W 5997  14.273   3.278   2.413
39457W        W 5998   6.472  19.357   2.476
39458W        W 5999  25.051   5.896   2.598
39459W        W 6000   5.460  41.925   4.097
39460W        W 6001  29.051   8.187   1.260
39461W        W 6002   1.823   8.905  11.954
39462W        W 6003  21.706  36.497  14.574
39463W        W 6004  21.742  15.576   3.142
39464W        W 6005  31.386  34.435  12.950
39465W        W 6006  30.071  14.301   1.978
39466W        W 6007  21.646  31.828   4.862
39467W        W 6008  40.620  36.827   2.960
39468W        W 6009  34.323   2.507  14.730
39469W        W 6010  35.440  42.055  11.224
39470W        W 6011  12.547  13.617   0.890
39471W        W 6012  15.713  39.004  13.521
39472W        W 6013  17.935  21.679  11.645
39473W        W 6014  39.263  11.319   4.562
39474W        W 6015   7.279   1.872  11.750
39475W        W 6016  25.914  20.529  14.999
39476W        W 6017  19.571   7.154  12.490
39477W        W 6018  20.643   5.379   1.990
39478W        W 6019  14.685  33.917   4.309
39479W        W 6020  24.081  19.545   3.383
39480W        W 6021   8.555   3.575   1.896
39481W        W 6022  38.819   5.206   1.738
39482W        W 6023  30.064   5.963  13.755
39483W        W 6024   3.251  29.153  14.812
39484W        W 6025   6.930  17.219   1.348
39485W        W 6026  43.517  32.187   1.637
39486W        W 6027  44.759  24.724  13.458
39487W        W 6028   4.347  14.161   1.400
39488W        W 6029   3.227  27.614  13.042
39489W        W 6030  24.933   9.344   2.949
39490W        W 6031  29.396  20.303  12.117
39491W        W 6032  29.516  32.387  13.898
39492W        W 6033  23.514  33.102   4.675
39493W        W 6034  24.597  26.545  13.049
39494W        W 6035  14.816  39.877   2.753
39495W        W 6036  41.750  41.982   4.492
39496W        W 6037  14.917  27.377  10.547
39497W        W 6038  31.034   7.940  11.632
39498W        W 6039   7.170  27.144   2.378
39499W        W 6040   9.365  29.911  10.463
39500W        W 6041   2.392  17.646   3.210
39501W        W 6042  42.974   2.582   3.575
39502W        W 6043  23.667   5.964  13.458
39503W        W 6044   4.397  36.008   3.265
39504W        W 6045  25.000   8.871   3.730
39505W        W 6046   0.890  17.272   3.800
39506W        W 6047   9.400  42.305  14.326
39507W        W 6048   0.441  29.039  13.984
39508W        W 6049  26.696  15.213   1.829
39509W        W 6050  15.862  11.619   0.471
39510W        W 6051  15.811   7.285   0.617
39511W        W 6052   3.795  40.027  12.467
39512W        W 6053  44.344  28.445  14.457
39513W        W 6054  30.212  11.215   9.828
39514W        W 6055  40.987  12.206   4.318
39515W        W 6056  35.450  23.057  10.977
39516W        W 6057  26.155   1.614   0.403
39517W        W 6058  11.265  27.931  14.794
39518W        W 6059  11.181  39.269   3.687
39519W        W 6060  32.003  42.056   2.600
39520W        W 6061  43.274  18.343  10.904
39521W        W 6062  39.027   0.721   0.004
39522W        W 6063  21.261  43.004  12.589
39523W        W 6064  21.160  24.885  11.081
39524W        W 6065  29.915  33.628   1.675
39525W        W 6066  43.502  38.500   2.109
39526W        W 6067  19.330  39.378   0.112
39527W        W 6068  21.579  13.758  11.362
39528W        W 6069  17.203  26.066   4.514
39529W        W 6070  41.294   2.495  12.027
39530W        W 6071  34.007  42.087  13.626
39531W        W 6072  18.343  30.675  11.280
39532W        W 6073  12.619  28.965   2.261
39533W        W 6074  16.338   5.649   2.341
39534W        W 6075  21.933  37.919   0.339
39535W        W 6076  38.841  32.023   3.626
39536W        W 6077  15.577   2.978  11.786
39537W        W 6078  42.986  37.062   0.842
39538W        W 6079  38.337   2.495   1.344
39539W        W 6080  15.831  18.696   0.840
39540W        W 6081  36.251  12.780   4.624
39541W        W 6082  23.046  10.422  11.943
39542W        W 6083  40.045  17.158  13.025
39543W        W 6084  22.427  32.448   3.827
39544W        W 6085   9.182  15.035  12.572
39545W        W 6086  31.365  41.376  12.623
39546W        W 6087  10.356  13.255   2.390
39547W        W 6088  35.588  20.166   0.031
39548W        W 6089  25.595  20.046  13.094
39549W        W 6090  20.767  19.792  12.409
39550W        W 6091  44.525  18.241  11.435
39551W        W 6092  33.911  25.120  14.920
39552W        W 6093   4.660   8.847   4.057
39553W        W 6094  43.059  35.266  14.036
39554W        W 6095  38.262  38.391  12.490
39555W        W 6096  16.169  36.392  11.106
39556W        W 6097  24.119  38.986   2.411
39557W        W 6098  25.511  38.244   2.318
39558W        W 6099  20.163  24.455   3.767
39559W        W 6100  38.576  34.536  11.676
39560W        W 6101  22.024  28.080   1.757
39561W        W 6102  27.066   5.451   1.776
39562W        W 6103  10.830  20.729  10.712
39563W        W 6104  42.172  10.829   3.676
39564W        W 6105  41.672  21.000   3.798
39565W        W 6106  36.573  43.241   3.670
39566W        W 6107   3.965  18.676  11.289
39567W        W 6108  33.238   4.872   4.055
39568W        W 6109  10.416  33.912  10.721
39569W        W 6110   1.306  28.238   5.468
39570W        W 6111  27.250  43.430   3.773
39571W        W 6112  37.343   4.361  13.553
39572W        W 6113  41.885  43.454   0.766
39573W        W 6114  43.557  18.237   1.946
39574W        W 6115   8.458  19.603  10.452
39575W        W 6116  36.551   7.356  12.769
39576W        W 6117   1.204   7.159   0.907
39577W        W 6118   0.745  17.072   0.981
39578W        W 6119  32.106  27.586  14.478
39579W        W 6120  25.528  24.530   0.854
39580W        W 6121  42.245  16.656  14.049
39581W        W 6122   3.204   7.936   3.190
39582W        W 6123  33.816  22.023   3.580
39583W        W 6124  44.717   1.341  10.741
39584W        W 6125  17.796  16.237   1.395
39585W        W 6126  28.380   7.389   3.793
39586W        W 6127  26.818  11.856   1.344
39587W        W 6128   1.181  44.206  12.045
39588W        W 6129  34.951  29.432   1.674
39589W        W 6130  40.228  11.214   4.255
39590W        W 6131  32.735  37.912   2.370
39591W        W 6132  35.097   4.407  13.689
39592W        W 6133  42.408  38.993   3.430
39593W        W 6134  30.560  11.164   5.552
39594W        W 6135  13.686   8.770   2.440
39595W        W 6136  15.582  16.162  14.487
39596W        W 6137  10.694  21.188  12.109
39597W        W 6138  14.198  30.154   3.474
39598W        W 6139  27.085  41.758  10.601
39599W        W 6140   3.678  15.669   1.882
39600W        W 6141  40.104  25.539   4.518
39601W        W 6142   6.354  40.727   1.380
39602W        W 6143   8.769   5.350  14.075
39603W        W 6144   5.420  24.467   2.561
39604W        W 6145  20.723  27.801   1.030
39605W        W 6146   0.392   5.742  13.493
39606W        W 6147  19.030   1.260  12.959
39607W        W 6148  15.372  28.467  14.785
39608W        W 6149  33.031   1.883  11.559
39609W        W 6150  16.500  30.012   1.597
39610W        W 6151   2.833  33.783   9.833
39611W        W 6152  19.730   2.226  12.029
39612W        W 6153  37.533  39.403   3.780
39613W        W 6154  16.800  10.641  10.574
39614W        W 6155  30.188  20.601   1.299
39615W        W 6156  17.459  29.736  10.922
39616W        W 6157  31.540  19.163   1.649
39617W        W 6158  14.922  28.077  11.140
39618W        W 6159   4.622  44.300  13.367
39619W        W 6160  43.917  32.047  14.501
39620W        W 6161  11.130  10.693   4.490
39621W        W 6162  15.238   9.690  13.692
39622W        W 6163  21.179  35.588   3.873
39623W        W 6164  44.967  20.593  12.518
39624W        W 6165  23.396  38.432  11.669
39625W        W 6166  13.778  40.271  14.726
39626W        W 6167  29.218  13.685  13.058
39627W        W 6168  34.689  22.689   4.939
39628W        W 6169   4.706   1.261   3.989
39629W        W 6170  35.712  33.614   5.080
39630W        W 6171  14.601  40.689   4.082
39631W        W 6172  16.743  15.601  14.505
39632W        W 6173  17.800   9.093   0.389
39633W        W 6174  17.164   7.825  13.513
39634W        W 6175  44.292  27.907  10.468
39635W        W 6176  20.184   1.141  12.534
39636W        W 6177   1.968   2.875   1.985
39637W        W 6178  15.786  15.708  10.406
39638W        W 6179  27.769   3.830   2.386
39639W        W 6180  15.787  22.920   0.284
39640W        W 6181  40.526  42.814  14.558
39641W        W 6182  41.349  20.056  11.137
39642W        W 6183  29.806  10.727   5.329
39643W        W 6184  13.210  36.104   0.727
39644W        W 6185  37.463  12.465   1.774
39645W        W 6186  29.164  43.248  13.082
39646W        W 6187  27.484  44.903   0.877
39647W        W 6188  31.066  19.138  11.978
39648W        W 6189  38.476  17.228   0.477
39649W        W 6190  20.573  41.882   4.565
39650W        W 6191  20.268  34.995   2.136
39651W        W 6192  39.004  22.970   2.572
39652W        W 6193  23.699  38.890  12.352
39653W        W 6194  15.635   8.283   4.069
39654W        W 6195  43.352  12.679  11.687
39655W        W 6196  21.549  25.292   2.909
39656W        W 6197  11.034  25.866  14.772
39657W        W 6198   7.309   5.721   1.945
39658W        W 6199   6.735  27.976   2.731
39659W        W 6200  24.238   1.302  12.895
39660W        W 6201  21.980  10.973   0.050
39661W        W 6202  42.217  20.522  11.040
39662W        W 6203  26.062  41.705  14.860
39663W        W 6204  31.449  17.671   0.775
39664W        W 6205  32.166  11.724  11.501
39665W        W 6206  19.661  15.757   0.734
39666W        W 6207   4.335   5.722  14.565
39667W        W 6208  26.602  10.819   4.720
39668W        W 6209  29.744   5.017  11.549
39669W        W 6210  15.861  13.768  11.560
39670W        W 6211   1.770  13.795   4.047
39671W        W 6212   6.935  18.948  14.177
39672W        W 6213  31.561   7.757   1.758
39673W        W 6214   1.850  18.568  14.859
39674W        W 6215  32.010  29.716   2.704
39675W        W 6216  28.191   0.219  11.033
39676W        W 6217  22.142  27.349  12.910
39677W        W 6218  15.617  43.596  13.025
39678W        W 6219  36.311  21.115   0.550
39679W        W 6220  33.064  44.754  13.542
39680W        W 6221  19.359   9.545  11.596
39681W        W 6222  44.234  33.520  11.921
39682W        W 6223   7.209  20.705   1.975
39683W        W 6224  19.172  12.152  12.589
39684W        W 6225  13.166  28.727  12.458
39685W        W 6226  18.491  24.816  12.352
39686W        W 6227   2.788  38.836  14.558
39687W        W 6228  37.351  10.531  10.867
39688W        W 6229   6.199  17.990  11.952
39689W        W 6230  36.447  29.257  12.534
39690W        W 6231  32.630  25.103  13.151
39691W        W 6232  24.564  17.755   0.414
39692W        W 6233  35.488  11.765   0.623
39693W        W 6234  18.309  16.280  13.592
39694W        W 6235  30.985  25.131   1.221
39695W        W 6236  20.645  22.801   1.759
39696W        W 6237  24.843   5.991   5.380
39697W        W 6238  29.739  17.627  10.644
39698W        W 6239   9.884  27.135   3.280
39699W        W 6240   6.293  11.823   0.737
39700W        W 6241  10.969   0.921  11.883
39701W        W 6242   8.226  24.623  13.451
39702W        W 6243  28.084  41.821   0.158
39703W        W 6244  19.675  11.632  12.867
39704W        W 6245   6.661  29.335  12.531
39705W        W 6246  29.664  44.911   3.375
39706W        W 6247  41.377  17.089  14.819
39707W        W 6248  33.217  35.725   9.960
39708W        W 6249   8.192  44.040   1.277
39709W        W 6250  36.965  17.657  10.982
39710W        W 6251  41.562  35.931  12.204
39711W        W 6252  28.605  21.785   3.316
39712W        W 6253  37.120  31.569   4.166
39713W        W 6254  43.976   6.748  12.909
39714W        W 6255  26.410  20.691   0.916
39715W        W 6256  17.714  17.127   4.288
39716W        W 6257   7.218   0.381   0.772
39717W        W 6258  19.345  22.128   0.070
39718W        W 6259  34.783  33.377   0.733
39719W        W 6260  31.459  36.026  11.083
39720W        W 6261  14.097  33.368  12.770
39721W        W 6262  28.997  27.122   3.685
39722W        W 6263  10.940  43.551   0.965
39723W        W 6264   0.415  17.635  12.153
39724W        W 6265  37.986   8.447  13.921
39725W        W 6266  30.122  28.149  14.131
39726W        W 6267   5.760   7.479  13.825
39727W        W 6268   9.438  13.201  13.790
39728W        W 6269   8.788  14.219  13.046
39729W        W 6270  32.514  17.076  12.002
39730W        W 6271   0.313  40.536   2.710
39731W        W 6272  14.330   1.243   4.342
39732W        W 6273   0.448  26.372   3.175
39733W        W 6274  27.697  34.609  13.323
39734W        W 6275  39.091   9.570   4.887
39735W        W 6276  30.391  43.268   4.686
39736W        W 6277  16.128  22.320   2.436
39737W        W 6278  28.295  12.940   4.916
39738W        W 6279  42.483  13.483  10.200
39739W        W 6280  42.257  23.962   3.280
39740W        W 6281  33.882  21.982  11.529
39741W        W 6282  33.406  37.118   2.221
39742W        W 6283  14.231  33.550  10.902
39743W        W 6284   4.252  36.491   3.440
39744W        W 6285  17.162  36.653   4.560
39745W        W 6286  21.249  24.599   1.766
39746W        W 6287  13.681  24.765   0.374
39747W        W 6288   4.817   2.540   3.975
39748W        W 6289  32.522  10.640  13.870
39749W        W 6290  19.069  11.236   3.562
39750W        W 6291  12.429   0.017   2.400
39751W        W 6292   1.210  36.904   3.395
39752W        W 6293  27.115   6.471   2.694
39753W        W 6294  38.475  24.482  11.852
39754W        W 6295  18.590  43.460  12.537
39755W        W 6296  23.589   7.407   2.416
39756W        W 6297  12.910  12.126   1.719
39757W        W 6298  13.360   8.364  11.122
39758W        W 6299   6.923  30.009  13.902
39759W        W 6300  42.193  42.936   4.665
39760W        W 6301  44.520  24.580  13.906
39761W        W 6302   5.942  34.990  12.047
39762W        W 6303  11.737  28.542   2.922
39763W        W 6304   9.712  39.639  12.451
39764W        W 6305  12.218  16.977  13.001
39765W        W 6306  41.944   9.310   1.221
39766W        W 6307  33.912  20.391   1.297
39767W        W 6308  11.702  40.419   2.864
39768W        W 6309  10.558  12.313  13.845
39769W        W 6310  32.544  31.880  13.519
39770W        W 6311   3.485  29.730  12.919
39771W        W 6312  27.526   7.365   2.729
39772W        W 6313   0.375  36.115  13.443
39773W        W 6314   5.523   2.182   1.012
39774W        W 6315  33.709   4.933   3.833
39775W        W 6316  38.933  25.874  10.633
39776W        W 6317  34.840  18.264   4.154
39777W        W 6318   7.901  26.083  11.200
39778W        W 6319  24.738  41.103  14.022
39779W        W 6320  42.467  25.292   4.193
39780W        W 6321  22.515  40.389   3.289
39781W        W 6322  42.845   0.126   3.472
39782W        W 6323  32.220  28.490   2.641
39783W        W 6324  44.814   0.780   2.674
39784W        W 6325   1.654   2.821  14.936
39785W        W 6326  44.846  24.436   4.125
39786W        W 6327  20.497  35.727  12.589
39787W        W 6328  34.556  26.319  10.601
39788W        W 6329  14.253   7.395  13.816
39789W        W 6330   6.959   3.491  10.255
39790W        W 6331   2.982  37.038   3.708
39791W        W 6332  11.931  23.079   0.732
39792W        W 6333   2.859  12.155   5.012
39793W        W 6334  31.375  39.233  12.965
39794W        W 6335   2.213  10.824   2.334
39795W        W 6336   9.945  31.101   3.317
39796W        W 6337  16.572  22.094   1.589
39797W        W 6338  42.580  29.291   0.727
39798W        W 6339   8.511  41.245   2.211
39799W        W 6340   9.481   2.614  12.557
39800W        W 6341   8.674  41.888   5.328
39801W        W 6342  16.649  35.171   0.208
39802W        W 6343   2.934  35.534   5.471
39803W        W 6344  24.430  23.801  13.400
39804W        W 6345  43.579   9.688  13.437
39805W        W 6346  28.562  11.608   0.829
39806W        W 6347  22.442  12.057   2.329
39807W        W 6348  16.135  43.398   4.236
39808W        W 6349   2.004   7.796  12.112
39809W        W 6350  25.780  19.704  11.719
39810W        W 6351  32.030  40.926  14.777
39811W        W 6352   5.658  13.178   1.626
39812W        W 6353  42.920   2.077   3.728
39813W        W 6354  20.136  21.589  10.592
39814W        W 6355  30.880  40.830  10.637
39815W        W 6356   0.191   6.362   3.859
39816W        W 6357  31.079   3.847  14.301
39817W        W 6358  44.291  32.783   0.942
39818W        W 6359  36.194  10.843  10.700
39819W        W 6360  26.910  31.330   4.051
39820W        W 6361  25.744  19.295   1.123
39821W        W 6362  36.848  25.910   2.245
39822W        W 6363  25.266  19.664  13.003
39823W        W 6364  34.898  19.149   5.255
39824W        W 6365  21.119   0.107   1.215
39825W        W 6366  22.064  21.190  12.570
39826W        W 6367  21.223   3.107   4.067
39827W        W 6368  14.840  29.899  10.652
39828W        W 6369  17.528   7.660  12.095
39829W        W 6370  28.066  31.256   4.483
39830W        W 6371   0.257   1.896   4.665
39831W        W 6372  28.266  11.274   2.601
39832W        W 6373   6.194  28.214   1.340
39833W        W 6374   9.614  29.552   1.930
39834W        W 6375   1.017  17.053  10.320
39835W        W 6376  33.160  42.643   3.106
39836W        W 6377  22.518  17.742  13.952
39837W        W 6378  25.660   9.294  14.908
39838W        W 6379  34.343  38.870  14.015
39839W        W 6380  33.523  21.962  14.102
39840W        W 6381  13.856   9.373  11.180
39841W        W 6382  10.638  13.836   4.595
39842W        W 6383  42.555  16.826   1.188
39843W        W 6384  43.191  28.413   0.333
39844W        W 6385  43.767  15.096  11.134
39845W        W 6386  30.868   8.447  12.510
39846W        W 6387  21.649  27.960   0.397
39847W        W 6388  17.517  44.907   2.647
39848W        W 6389   4.155  22.953  13.568
39849W        W 6390  21.598   2.412  12.043
39850W        W 6391  38.438  16.742   0.707
39851W        W 6392   3.960   1.935  10.678
39852W        W 6393  15.838  31.042  11.572
39853W        W 6394   0.284  10.420  14.952
39854W        W 6395  14.623  28.920  11.561
39855W        W 6396  18.993  34.435  13.359
39856W        W 6397  43.333  33.793  11.435
39857W        W 6398   2.122   5.326  14.805
39858W        W 6399  44.978  27.006   1.606
39859W        W 6400  27.072  39.544  14.516
39860W        W 6401  36.505  33.125   0.859
39861W        W 6402  13.368  33.379   2.761
39862W        W 6403   7.200  20.291  11.363
39863W        W 6404   1.963  16.710   4.662
39864W        W 6405  28.469   0.347   2.002
39865W        W 6406  38.640   3.919  11.079
39866W        W 6407   6.221  42.396   0.007
39867W        W 6408  41.614  17.853   4.313
39868W        W 6409  42.100  26.477  14.249
39869W        W 6410  29.079  36.577  13.794
39870W        W 6411  20.026  31.481  11.181
39871W        W 6412  44.398  40.203  10.327
39872W        W 6413   3.966   0.703  10.676
39873W        W 6414  40.290  28.316   4.096
39874W        W 6415  21.192  23.316   0.286
39875W        W 6416  34.848  30.959  10.461
39876W        W 6417  21.286  23.452   3.709
39877W        W 6418  15.688  10.303   1.193
39878W        W 6419  18.746  20.806  11.189
39879W        W 6420   5.949  42.774  11.617
39880W        W 6421  31.063  35.253   4.880
39881W        W 6422  31.672  33.503  13.034
39882W        W 6423   1.007  39.757   2.200
39883W        W 6424  21.157  20.713  14.004
39884W        W 6425   5.926   1.991   1.791
39885W        W 6426   7.011   9.969   3.334
39886W        W 6427  18.307   5.788  10.665
39887W        W 6428  19.265  40.478   0.726
39888W        W 6429  11.781  13.669  10.908
39889W        W 6430  41.837  26.582   4.562
39890W        W 6431  26.673  37.452   2.295
39891W        W 6432  40.228  37.501   1.652
39892W        W 6433   4.748  24.579  11.358
39893W        W 6434  35.379  28.509  13.334
39894W        W 6435   5.402  10.056   0.844
39895W        W 6436  29.202  34.545   3.621
39896W        W 6437  10.752   1.618   4.570
39897W        W 6438  43.371  24.027   2.250
39898W        W 6439   1.226  16.430   0.257
39899W        W 6440  42.405  14.517   4.718
39900W        W 6441  22.490   0.824  14.110
39901W        W 6442  17.697  14.370  14.430
39902W        W 6443  12.783  13.917  13.663
39903W        W 6444   4.943   0.748   3.096
39904W        W 6445   0.315   9.885   2.358
39905W        W 6446   4.966   2.895  14.364
39906W        W 6447  11.888  44.202   3.519
39907W        W 6448  13.930  21.592  13.762
39908W        W 6449  37.082   3.321   2.763
39909W        W 6450  43.999  23.616   1.556
39910W        W 6451  17.657  29.480   3.263
39911W        W 6452   2.479  37.189  11.179
39912W        W 6453  28.429   5.688  13.508
39913W        W 6454  35.111  34.032  11.136
39914W        W 6455  43.989   2.849   2.844
39915W        W 6456  43.007  23.072   4.381
39916W        W 6457  44.193  28.179   3.208
39917W        W 6458  27.924   0.668   0.429
39918W        W 6459   0.059  13.609   1.654
39919W        W 6460  44.282  22.654   4.459
39920W        W 6461   1.844  14.317   0.190
39921W        W 6462  36.611  26.021   1.062
39922W        W 6463  15.305  15.150   2.268
39923W        W 6464  17.833   7.801  12.473
39924W        W 6465  10.718  32.821   1.430
39925W        W 6466   1.940   0.879  10.658
39926W        W 6467  30.014  18.841   3.423
39927W        W 6468  34.117   8.818   2.170
39928W        W 6469  12.223  27.994   3.256
39929W        W 6470   5.891  11.680   1.759
39930W        W 6471   2.788   0.451   2.943
39931W        W 6472  39.173  30.816  12.877
39932W        W 6473  36.106  39.562  14.407
39933W        W 6474  43.771   8.432  11.951
39934W        W 6475  24.804  21.276  13.515
39935W        W 6476   2.773  22.728   3.216
39936W        W 6477  11.645  43.002   4.311
39937W        W 6478  41.279   0.253   0.504
39938W        W 6479   8.448  25.489  13.018
39939W        W 6480   1.358   9.145  12.372
39940W        W 6481  19.254  22.105  11.502
39941W        W 6482  35.607  44.246  12.155
39942W        W 6483   5.212   2.281   1.418
39943W        W 6484  27.193  17.683  14.493
39944W        W 6485  16.751  24.720  12.610
39945W        W 6486  17.258  13.644  14.118
39946W        W 6487  42.007  35.046   5.389
39947W        W 6488  29.085  32.658   1.840
39948W        W 6489  33.536  33.254  13.179
39949W        W 6490  17.708  43.883  13.010
39950W        W 6491  18.733   3.160   3.608
39951W        W 6492  29.926   8.241   0.007
39952W        W 6493  11.047  30.470   1.258
39953W        W 6494  32.290  44.383   3.556
39954W        W 6495  15.664   3.976  10.656
39955W        W 6496   1.765   3.849  13.054
39956W        W 6497  42.514  38.964  10.631
39957W        W 6498   3.493  42.842  14.234
39958W        W 6499  39.333   9.936  12.359
39959W        W 6500  36.332  38.448   1.429
39960W        W 6501  24.956  29.600   4.052
39961W        W 6502   8.502  36.557  11.598
39962W        W 6503  31.887  34.305   1.599
39963W        W 6504  34.360  18.422   3.883
39964W        W 6505   0.228   6.328   3.333
39965W        W 6506  13.563  21.681   2.781
39966W        W 6507  20.756  24.324   4.518
39967W        W 6508  12.819  11.186  13.772
39968W        W 6509  35.338  37.790  12.385
39969W        W 6510  23.741  10.633  12.443
39970W        W 6511  16.305  24.508   0.967
39971W        W 6512  18.756  12.162  14.036
39972W        W 6513  24.918  23.406   1.644
39973W        W 6514  18.517   4.830  10.633
39974W        W 6515  43.197  14.673   2.629
39975W        W 6516  11.773  11.328  11.120
39976W        W 6517  13.103  34.364  10.685
39977W        W 6518  41.707   8.714  12.624
39978W        W 6519  33.698  42.787  11.014
39979W        W 6520  12.131  19.824  11.558
39980W        W 6521   5.218  36.963   3.761
39981W        W 6522   0.956  35.612   0.706
39982W        W 6523  34.063   9.397   1.257
39983W        W 6524  25.226  31.869  11.583
39984W        W 6525   2.783  43.514   3.322
39985W        W 6526  31.127  37.924   0.906
39986W        W 6527  44.497  24.435   0.753
39987W        W 6528  16.400  44.793   0.471
39988W        W 6529   4.330  42.319  10.993
39989W        W 6530  12.791  12.139   0.836
39990W        W 6531  25.427  25.480   0.479
39991W        W 6532  20.216   5.757   1.360
39992W        W 6533  19.105   7.359   4.068
39993W        W 6534  12.124  18.087  12.070
39994W        W 6535   5.347  37.835  13.422
39995W        W 6536  13.661  32.118   0.232
39996W        W 6537  16.015  21.959  12.941
39997W        W 6538  17.387  26.998   4.203
39998W        W 6539  30.152  24.474  11.635
39999W        W 6540  35.583  21.838  13.933
40000W        W 6541  41.386  10.779   3.181
40001W        W 6542  43.454  15.624   2.871
40002W        W 6543  31.824  11.919  14.421
40003W        W 6544  24.049  20.454   2.907
40004W        W 6545  35.896   0.442  14.919
40005W        W 6546  21.531   0.432   3.669
40006W        W 6547  33.149  30.679  14.383
40007W        W 6548  27.754   5.763  11.074
40008W        W 6549  29.020   2.023  12.054
40009W        W 6550  31.143  15.749  14.280
40010W        W 6551  24.615  28.156  12.558
40011W        W 6552  43.117  18.513   1.256
40012W        W 6553   5.156  31.689  11.010
40013W        W 6554  23.968  33.605  14.815
40014W        W 6555  33.867  15.134   2.380
40015W        W 6556  11.626  41.388  13.374
40016W        W 6557  10.940  27.434   4.617
40017W        W 6558  16.041   4.861  14.012
40018W        W 6559  28.514   1.960   0.835
40019W        W 6560   0.364  14.100   4.875
40020W        W 6561  34.164  28.901   2.654
40021W        W 6562  13.591  40.986  11.525
40022W        W 6563  26.638  23.984   1.772
40023W        W 6564  19.044  36.927  13.469
40024W        W 6565   9.647  12.304   0.835
40025W        W 6566  12.854  42.515  14.454
40026W        W 6567  12.825  22.276  12.551
40027W        W 6568  45.000   6.756   4.232
40028W        W 6569  12.766  26.943  12.691
40029W        W 6570  34.086  13.374  11.863
40030W        W 6571  23.710   7.999  12.067
40031W        W 6572  15.599  24.223   3.239
40032W        W 6573   3.253  10.232   1.598
40033W        W 6574  36.984  12.356   1.331
40034W        W 6575  30.178  12.259   0.040
40035W        W 6576  36.560  13.557   3.300
40036W        W 6577  27.616  32.487  11.509
40037W        W 6578  38.565   9.847   3.350
40038W        W 6579  33.845  37.300  13.105
40039W        W 6580  20.864  10.663   0.749
40040W        W 6581  33.848  22.669  14.995
40041W        W 6582   5.927  16.238   1.685
40042W        W 6583  40.509  35.133   1.930
40043W        W 6584  27.283  29.518   1.474
40044W        W 6585  43.986  34.529  13.385
40045W        W 6586  43.906  32.113   4.726
40046W        W 6587  32.953   7.758  11.624
40047W        W 6588  40.898  12.798  13.062
40048W        W 6589   8.853  17.041   4.041
40049W        W 6590  26.015  22.466   0.461
40050W        W 6591  35.056  38.417   1.984
40051W        W 6592   0.212  44.417  14.008
40052W        W 6593  15.320  25.847  11.200
40053W        W 6594  21.377  11.791   0.177
40054W        W 6595  36.422   2.921  10.693
40055W        W 6596  13.240  43.006   0.523
40056W        W 6597  21.172  32.431   2.993
40057W        W 6598  26.216  19.660  11.441
40058W        W 6599  17.047  39.900  13.405
40059W        W 6600  11.908   1.827   3.233
40060W        W 6601  31.045   6.622   4.487
40061W        W 6602  17.342  25.422  11.608
40062W        W 6603  40.352  31.926   1.980
40063W        W 6604  22.022  35.381   0.001
40064W        W 6605  18.596  38.766  10.796
40065W        W 6606  38.277  42.110   1.928
40066W        W 6607   2.950  41.078   1.277
40067W        W 6608   6.157  43.259  14.405
40068W        W 6609   2.212  41.909  11.247
40069W        W 6610  44.787  14.325  11.507
40070W        W 6611  26.441  41.455   4.577
40071W        W 6612  34.979  33.095  11.136
40072W        W 6613  41.200  41.420   0.312
40073W        W 6614  32.480  11.137   3.792
40074W        W 6615  21.472   3.153   0.466
40075W        W 6616  11.249  18.116   4.580
40076W        W 6617  36.277  37.620   0.398
40077W        W 6618  28.590   3.210   1.222
40078W        W 6619   4.158  35.080   2.327
40079W        W 6620  28.072  36.084  14.915
40080W        W 6621  27.088   5.163  14.535
40081W        W 6622  38.986   7.088   4.717
40082W        W 6623  28.426  37.028  14.262
40083W        W 6624  21.089   8.442   2.223
40084W        W 6625  35.997  42.541   4.687
40085W        W 6626  10.802   5.463   3.726
40086W        W 6627  34.296  11.409   0.206
40087W        W 6628  41.963  28.390  14.845
40088W        W 6629   7.539  22.557  13.387
40089W        W 6630  39.493   0.200   3.156
40090W        W 6631   8.616   9.232   2.172
40091W        W 6632  42.232  14.232  11.420
40092W        W 6633   8.105  26.911  10.854
40093W        W 6634  14.623  28.431  11.654
40094W        W 6635   7.663   2.896   2.743
40095W        W 6636  15.581  32.946  13.854
40096W        W 6637   4.346   4.241  14.554
40097W        W 6638  43.480  35.414  14.344
40098W        W 6639  44.473  17.234   3.761
40099W        W 6640   0.820   8.576  13.601
40100W        W 6641  14.299  11.244   1.093
40101W        W 6642   1.381  10.502   1.631
40102W        W 6643   9.841  30.359  14.565
40103W        W 6644  24.003   8.404   3.353
40104W        W 6645  37.440   5.663  12.031
40105W        W 6646   8.630   9.949   0.060
40106W        W 6647  27.443  36.954   2.438
40107W        W 6648  24.384  35.429   2.698
40108W        W 6649  15.731  34.416   3.681
40109W        W 6650  37.693   4.420  13.938
40110W        W 6651  12.604   3.682  12.087
40111W        W 6652  18.615  29.729   3.183
40112W        W 6653  42.229  44.453   3.311
40113W        W 6654   5.229   0.803  12.968
40114W        W 6655  11.242  11.743   3.703
40115W        W 6656  24.181  40.670  14.352
40116W        W 6657  37.311  32.928   4.108
40117W        W 6658   9.926  25.739   3.375
40118W        W 6659  35.520  30.987  13.361
40119W        W 6660   2.157  22.651  11.066
40120W        W 6661   5.155  41.101   4.128
40121W        W 6662   3.755  36.667   1.422
40122W        W 6663  31.381  42.321  11.664
40123W        W 6664  36.431  24.098   4.044
40124W        W 6665  26.567  42.574  12.019
40125W        W 6666  10.653   1.037  10.677
40126W        W 6667  40.543  16.209   4.225
40127W        W 6668  15.832  41.158  12.079
40128W        W 6669  19.017   4.928  12.897
40129W        W 6670  36.257   1.651   2.251
40130W        W 6671  39.599  20.748  10.611
40131W        W 6672  14.409  37.495  11.274
40132W        W 6673  33.120  27.556   2.851
40133W        W 6674  23.165  18.056   3.695
40134W        W 6675  26.445   7.888   4.395
40135W        W 6676  22.169   1.227  12.459
40136W        W 6677  15.581   3.471  10.669
40137W        W 6678  28.753  39.401   0.263
40138W        W 6679  29.136  13.595   0.262
40139W        W 6680  30.593  37.603  12.852
40140W        W 6681   7.906  21.580  12.773
40141W        W 6682  16.068  10.101  10.416
40142W        W 6683  22.014  20.258  11.493
40143W        W 6684   4.331  40.893  14.251
40144W        W 6685  32.854  17.299   1.727
40145W        W 6686  14.378  28.949  12.031
40146W        W 6687  43.496   5.475   4.112
40147W        W 6688  19.525  29.699   1.258
40148W        W 6689  21.489  39.070  11.985
40149W        W 6690  22.589  27.136  13.027
40150W        W 6691   5.972   8.498   1.941
40151W        W 6692  29.595  43.933  10.756
40152W        W 6693  21.017  12.092  15.000
40153W        W 6694  39.483  16.617   4.010
40154W        W 6695  26.128  21.601   4.975
40155W        W 6696  12.818   7.177  13.334
40156W        W 6697  38.452  14.650   1.237
40157W        W 6698  31.018  22.809   3.696
40158W        W 6699   5.669  13.350  10.690
40159W        W 6700   2.798  14.062  11.013
40160W        W 6701  10.908  38.705  10.235
40161W        W 6702   2.783  36.365   2.411
40162W        W 6703  38.526  43.937  13.988
40163W        W 6704  27.700  23.521   1.433
40164W        W 6705  27.719   0.268   3.698
40165W        W 6706   1.072  23.667   2.139
40166W        W 6707  44.348  15.723  10.754
40167W        W 6708   0.688   0.387   4.534
40168W        W 6709  30.465  21.836  13.222
40169W        W 6710  31.507   2.350   0.447
40170W        W 6711  14.136  27.540  14.231
40171W        W 6712  11.759  30.599   4.807
40172W        W 6713  36.826  35.010   2.001
40173W        W 6714  16.725  44.763  14.929
40174W        W 6715  20.566   0.390   3.385
40175W        W 6716  41.464  38.786  14.039
40176W        W 6717  15.613  39.509  11.497
40177W        W 6718  34.623  21.746  11.142
40178W        W 6719  29.509  20.707  14.525
40179W        W 6720  43.429  39.825   4.051
40180W        W 6721  18.889   1.344  13.955
40181W        W 6722  25.554  44.444  14.844
40182W        W 6723  26.722  19.118  11.244
40183W        W 6724   0.166   0.035  14.891
40184W        W 6725   0.810  15.117  11.000
40185W        W 6726  44.898  41.645   4.440
40186W        W 6727   0.666  24.548   2.494
40187W        W 6728  20.970  43.567  14.004
40188W        W 6729  24.503  14.297   4.636
40189W        W 6730  33.355  21.955  11.564
40190W        W 6731  40.346   6.531   2.783
40191W        W 6732  31.937  28.454  11.758
40192W        W 6733  40.925  11.653  11.137
40193W        W 6734  29.779  10.656  14.121
40194W        W 6735   4.676  33.403   2.151
40195W        W 6736  36.536  44.061  10.350
40196W        W 6737  39.274  17.066   2.259
40197W        W 6738  12.877   8.731  11.568
40198W        W 6739  24.262   9.320   1.000
40199W        W 6740  42.606  10.661   0.644
40200W        W 6741  44.157  43.724  13.510
40201W        W 6742  42.008  39.068   1.695
40202W        W 6743  33.051  13.080  13.032
40203W        W 6744  43.883  14.051  13.419
40204W        W 6745  24.085   1.832  13.420
40205W        W 6746  37.457  32.451   1.686
40206W        W 6747  10.213  31.418   4.540
40207W        W 6748  39.371  34.090   1.773
40208W        W 6749  25.071   5.205   2.339
40209W        W 6750  22.249  12.448  13.019
40210W        W 6751  33.858  32.884  13.030
40211W        W 6752   5.024  32.733  13.947
40212W        W 6753  17.241  43.139  10.739
40213W        W 6754  24.179  32.549   4.789
40214W        W 6755  35.058   9.223   0.703
40215W        W 6756   6.949   6.883   4.679
40216W        W 6757  42.063  39.277   3.193
40217W        W 6758  15.028  10.395  13.039
40218W        W 6759  38.445  38.354  11.088
40219W        W 6760  23.430  15.763   0.310
40220W        W 6761  22.684  43.386  12.117
40221W        W 6762   6.750  24.270   3.685
40222W        W 6763  11.410   0.533  12.537
40223W        W 6764  11.746  35.388  10.283
40224W        W 6765  35.108  39.243   1.411
40225W        W 6766  37.813  30.011   2.859
40226W        W 6767  40.855  41.878   2.591
40227W        W 6768  30.679  43.529   4.340
40228W        W 6769   1.002  29.475   2.446
40229W        W 6770  10.406  40.469   4.126
40230W        W 6771  43.390  22.606   4.410
40231W        W 6772  16.715  11.024   3.174
40232W        W 6773   2.867  33.571  11.164
40233W        W 6774  21.167  41.446   4.336
40234W        W 6775  20.162  34.521   2.327
40235W        W 6776   2.122  40.912   1.464
40236W        W 6777  17.310  34.458   4.145
40237W        W 6778  19.150   5.851   2.901
40238W        W 6779  40.213  19.665   4.064
40239W        W 6780  31.598  13.877   5.071
40240W        W 6781  18.466  35.116   5.121
40241W        W 6782  43.540  18.000  11.635
40242W        W 6783  18.324   1.477  11.603
40243W        W 6784  12.598   1.216  10.603
40244W        W 6785  33.751  44.660  13.992
40245W        W 6786  11.093   8.287   0.845
40246W        W 6787   8.575  32.061  12.927
40247W        W 6788  31.938  29.879  14.481
40248W        W 6789  19.299  15.886  13.043
40249W        W 6790  39.068  35.106   1.442
40250W        W 6791  24.386  32.607  12.574
40251W        W 6792  44.327   8.906  13.844
40252W        W 6793   2.302  19.659   1.523
40253W        W 6794  35.566   3.164  11.975
40254W        W 6795  28.810   3.088  12.807
40255W        W 6796  19.653  36.953   4.561
40256W        W 6797  41.053   5.054   3.798
40257W        W 6798   9.822  10.227  11.680
40258W        W 6799  42.352  41.051  13.791
40259W        W 6800  16.954   5.100   3.238
40260W        W 6801   7.300  37.111  14.165
40261W        W 6802  23.560  20.346  11.174
40262W        W 6803  39.274  34.273  14.049
40263W        W 6804  23.608  30.702   2.198
40264W        W 6805  17.590  29.504  13.812
40265W        W 6806  27.487   2.762   2.153
40266W        W 6807  20.697  16.322  12.544
40267W        W 6808  39.639  12.142  10.719
40268W        W 6809   1.922  26.551   0.501
40269W        W 6810  20.089  22.037   1.680
40270W        W 6811  26.604  28.478  12.973
40271W        W 6812   3.938   7.973  11.634
40272W        W 6813  44.153  32.335   5.115
40273W        W 6814  40.129  10.750   4.054
40274W        W 6815  24.958  24.721  13.688
40275W        W 6816   9.894  12.761   0.728
40276W        W 6817   8.798  32.416  14.048
40277W        W 6818  16.917  31.004   1.346
40278W        W 6819   3.293  39.298  11.441
40279W        W 6820   5.707   8.758   1.505
40280W        W 6821   6.927  30.409   2.436
40281W        W 6822  39.314  31.538   0.292
40282W        W 6823  38.078   1.011   4.494
40283W        W 6824  42.078  16.201  10.988
40284W        W 6825  14.360  42.049   3.188
40285W        W 6826  18.641  14.934   1.705
40286W        W 6827  27.116  35.115   1.392
40287W        W 6828  32.589  30.548  13.824
40288W        W 6829  12.620  38.335  10.669
40289W        W 6830  39.701  22.420   2.945
40290W        W 6831  40.611  34.490   1.380
40291W        W 6832  44.038  25.580  12.378
40292W        W 6833  44.959  35.379   2.402
40293W        W 6834   2.831  31.680  11.588
40294W        W 6835  43.388   8.023  12.587
40295W        W 6836  42.461  41.987  11.540
40296W        W 6837   5.566  22.695  14.012
40297W        W 6838  37.525  43.726   0.726
40298W        W 6839  25.758  28.030   1.887
40299W        W 6840  23.250  43.291   2.365
40300W        W 6841  24.642  27.894   2.797
40301W        W 6842  22.501  32.350  13.445
40302W        W 6843  43.233  30.366   3.682
40303W        W 6844  35.052  26.257  12.951
40304W        W 6845  18.727   1.524   0.235
40305W        W 6846  12.369  12.744  13.772
40306W        W 6847  20.070  43.448  12.473
40307W        W 6848  34.980  26.102   2.797
40308W        W 6849   3.760  32.248  12.578
40309W        W 6850  23.286   3.668  13.501
40310W        W 6851  20.574  36.996  11.681
40311W        W 6852  39.587   6.231   0.312
40312W        W 6853   2.813  31.917  13.469
40313W        W 6854  37.499   2.054   0.793
40314W        W 6855  35.481   8.627  10.735
40315W        W 6856  26.478  20.538  10.747
40316W        W 6857  30.420   2.430   3.658
40317W        W 6858  41.354  42.418   1.632
40318W        W 6859  23.404  19.055   2.851
40319W        W 6860   2.089  39.817  14.998
40320W        W 6861  24.531  38.776   0.090
40321W        W 6862   4.877  12.378   1.666
40322W        W 6863  25.195  14.527   0.408
40323W        W 6864  37.146   3.087  11.522
40324W        W 6865   8.815  12.339  11.194
40325W        W 6866  20.402   9.192  12.476
40326W        W 6867  21.506   7.403   4.060
40327W        W 6868  25.037   6.229  12.809
40328W        W 6869  28.740  43.959   3.123
40329W        W 6870  10.359  35.415  14.849
40330W        W 6871  44.502  29.358   0.752
40331W        W 6872  31.551  22.160   4.670
40332W        W 6873  42.714  18.741  14.409
40333W        W 6874  44.072  18.744  14.802
40334W        W 6875   3.274  42.682  11.139
40335W        W 6876   4.149  43.795  12.395
40336W        W 6877  18.941  43.478   0.737
40337W        W 6878  36.624  34.652   1.220
40338W        W 6879  27.310  29.908  12.973
40339W        W 6880  38.423   8.200   1.903
40340W        W 6881   0.869  27.449  11.909
40341W        W 6882  40.310  38.063  14.568
40342W        W 6883   6.412  24.244   9.955
40343W        W 6884   7.223  17.697  11.175
40344W        W 6885  26.169   4.704   4.597
40345W        W 6886  18.758  35.875   2.348
40346W        W 6887   1.438   4.658  14.399
40347W        W 6888  16.391   7.791  10.515
40348W        W 6889  13.468  43.312  14.675
40349W        W 6890  11.836  34.235   4.567
40350W        W 6891   3.439   3.487   3.687
40351W        W 6892  21.733  24.412  12.022
40352W        W 6893   1.149  16.603  11.037
40353W        W 6894  36.959  13.092  11.960
40354W        W 6895  22.463   9.256  14.502
40355W        W 6896  12.187  21.659   1.363
40356W        W 6897  32.031   5.888   0.989
40357W        W 6898   3.932  21.863  12.165
40358W        W 6899   3.629   9.219  14.666
40359W        W 6900  11.313  31.738  12.845
40360W        W 6901  15.853  28.159   3.581
40361W        W 6902   0.180  12.209   3.874
40362W        W 6903  42.421  14.518  11.044
40363W        W 6904  44.776  25.202   3.704
40364W        W 6905   4.164   7.499   3.757
40365W        W 6906  31.990  42.849   2.750
40366W        W 6907  13.608   6.218   3.018
40367W        W 6908  13.913  26.192   0.803
40368W        W 6909  43.520  30.232   2.667
40369W        W 6910  34.546   0.107  12.010
40370W        W 6911   5.137  38.539  11.476
40371W        W 6912  23.917  35.112   3.344
40372W        W 6913  27.507  23.027   1.321
40373W        W 6914  13.719  34.407   3.676
40374W        W 6915   1.954  22.601  13.580
40375W        W 6916   7.400   4.835   0.282
40376W        W 6917  15.263  42.760  11.433
40377W        W 6918  30.027  36.128  12.939
40378W        W 6919  17.124  31.640  11.629
40379W        W 6920  27.527  16.095   2.770
40380W        W 6921  11.530  16.829  13.423
40381W        W 6922  31.520  24.479  14.538
40382W        W 6923   7.071  13.319   2.357
40383W        W 6924   5.028  43.394   0.871
40384W        W 6925   4.804  25.955  13.409
40385W        W 6926  23.788  27.063  11.063
40386W        W 6927  26.716  42.128   4.197
40387W        W 6928  40.237  17.769  13.618
40388W        W 6929  21.656   8.419   3.997
40389W        W 6930  16.133  25.782  13.914
40390W        W 6931  15.068  17.261  11.371
40391W        W 6932  17.233  33.840   2.378
40392W        W 6933  13.309  30.477   0.852
40393W        W 6934   5.922  20.109   1.829
40394W        W 6935  17.345  43.373   2.170
40395W        W 6936  40.783  42.075   4.163
40396W        W 6937   6.470   3.822   0.516
40397W        W 6938  38.465  15.511   2.262
40398W        W 6939  18.267  16.287  10.619
40399W        W 6940   9.446  41.447   1.181
40400W        W 6941  16.593   8.778   4.120
40401W        W 6942  20.657  12.505   3.358
40402W        W 6943  18.472   4.755   2.215
40403W        W 6944  22.226  30.797  13.541
40404W        W 6945  40.802  31.042   1.793
40405W        W 6946  38.455   8.716  13.854
40406W        W 6947  19.030  13.122  12.409
40407W        W 6948  21.055  11.336  12.543
40408W        W 6949  29.454  28.634  12.477
40409W        W 6950  16.824   3.261   4.905
40410W        W 6951  19.153  17.685   4.639
40411W        W 6952  35.446   9.310   1.501
40412W        W 6953  42.897  32.471   5.062
40413W        W 6954   3.439  38.960  10.789
40414W        W 6955  34.010  30.910  13.352
40415W        W 6956   0.776  37.441   2.245
40416W        W 6957  24.680  43.268   4.061
40417W        W 6958  25.982  29.030  14.106
40418W        W 6959  42.361  36.625  13.499
40419W        W 6960  27.155  35.514  12.551
40420W        W 6961  36.399  28.066  14.817
40421W        W 6962  30.995   8.917  13.914
40422W        W 6963  11.959  25.230  10.137
40423W        W 6964  41.542  35.002  11.566
40424W        W 6965  14.437  31.461  13.988
40425W        W 6966   7.230  29.624   0.161
40426W        W 6967  13.757   4.289   1.503
40427W        W 6968   2.685  15.039   3.563
40428W        W 6969  16.567  12.108  10.564
40429W        W 6970   1.808  23.495   4.875
40430W        W 6971  39.963   2.815   1.198
40431W        W 6972   1.614  12.821   2.798
40432W        W 6973  11.913  20.550   4.105
40433W        W 6974   0.742  16.282   1.525
40434W        W 6975   4.488  15.835   1.461
40435W        W 6976  41.434  18.420  14.147
40436W        W 6977  39.489  26.009  14.927
40437W        W 6978  35.677  30.924   4.301
40438W        W 6979  42.987  20.568  14.715
40439W        W 6980  41.549   0.814  12.115
40440W        W 6981  16.872  24.752   0.067
40441W        W 6982  32.307   7.728   2.857
40442W        W 6983  22.814  33.912   4.578
40443W        W 6984  20.061  28.051  12.300
40444W        W 6985   3.541  13.270   0.818
40445W        W 6986  44.689   2.689  10.027
40446W        W 6987  28.689  44.412   1.666
40447W        W 6988   1.398   7.657   4.015
40448W        W 6989   0.292  38.565  11.127
40449W        W 6990  25.049   4.833  14.920
40450W        W 6991  41.326  34.901   4.277
40451W        W 6992  35.015  37.875   4.333
40452W        W 6993  26.905  40.944  11.021
40453W        W 6994  20.290   4.771  11.139
40454W        W 6995  24.953  25.422   4.611
40455W        W 6996  38.351  27.388  12.104
40456W        W 6997   0.225  36.566  14.355
40457W        W 6998  32.955  10.726  14.619
40458W        W 6999   3.935  26.402  10.334
40459W        W 7000  40.433  39.516   4.659
40460W        W 7001  28.953  39.881   4.613
40461W        W 7002  10.347  42.897  14.930
40462W        W 7003  44.448  21.996   3.332
40463W        W 7004  39.711  25.911  12.031
40464W        W 7005  25.294  41.516  14.501
40465W        W 7006  30.734  10.286   3.844
40466W        W 7007   9.798  31.284   4.922
40467W        W 7008  43.184  29.951  11.570
40468W        W 7009   6.161  37.839   4.988
40469W        W 7010  26.498  29.942   2.718
40470W        W 7011   7.951  34.125   0.659
40471W        W 7012  29.441   0.692   4.835
40472W        W 7013  16.087  13.135   2.202
40473W        W 7014  11.150  39.875   3.108
40474W        W 7015  36.304  35.307   4.987
40475W        W 7016  31.125  35.207   1.410
40476W        W 7017  35.479   9.209   3.733
40477W        W 7018  31.285  29.591   2.031
40478W        W 7019   1.299  30.089  14.993
40479W        W 7020  14.683  25.569   2.341
40480W        W 7021  44.312  33.899  11.555
40481W        W 7022   1.226   9.475  11.192
40482W        W 7023  41.328  11.614  14.589
40483W        W 7024  12.942  42.261   4.795
40484W        W 7025  20.139  12.750   3.208
40485W        W 7026  37.976  31.716   0.906
40486W        W 7027  30.442  24.432   1.046
40487W        W 7028  15.283  26.474  12.051
40488W        W 7029  39.368   1.357   2.465
40489W        W 7030   1.239  12.877  12.512
40490W        W 7031  42.553  19.830   3.732
40491W        W 7032  22.619  10.607  12.156
40492W        W 7033   5.774  19.683  14.653
40493W        W 7034   7.495  18.700   3.583
40494W        W 7035  34.769   6.611   4.283
40495W        W 7036  31.935  23.767  12.171
40496W        W 7037  44.291  11.304  14.308
40497W        W 7038  31.039   9.706  12.119
40498W        W 7039  12.836  38.396   2.781
40499W        W 7040  24.661  31.687  14.410
40500W        W 7041  19.305  10.124  12.457
40501W        W 7042  26.932   5.769  13.856
40502W        W 7043  24.467   4.294   2.616
40503W        W 7044  33.482  39.375   9.975
40504W        W 7045  15.130  39.300  10.665
40505W        W 7046  21.959   1.052   0.293
40506W        W 7047   7.041   1.452   4.619
40507W        W 7048  38.542   3.447  14.125
40508W        W 7049  12.107  35.500  12.474
40509W        W 7050  27.304  32.704  14.593
40510W        W 7051  40.938  40.915  10.680
40511W        W 7052  21.651  19.084  13.449
40512W        W 7053  44.030  34.187   2.857
40513W        W 7054  29.489  44.740   0.375
40514W        W 7055  26.040  19.376  14.056
40515W        W 7056  26.186  42.734  14.774
40516W        W 7057  34.515  11.083  11.021
40517W        W 7058  42.122  11.907  14.276
40518W        W 7059  16.697  11.773   3.535
40519W        W 7060  26.077  32.944   1.957
40520W        W 7061   8.815  16.338   4.686
40521W        W 7062   8.397  31.514   3.638
40522W        W 7063  23.358  38.479  13.498
40523W        W 7064  37.081  42.485   4.644
40524W        W 7065  44.683  42.831  11.541
40525W        W 7066  16.343  25.521  13.073
40526W        W 7067  28.526  36.969  10.876
40527W        W 7068  20.273   3.508  13.402
40528W        W 7069   0.702   4.473  14.408
40529W        W 7070  27.861   4.731   4.756
40530W        W 7071   5.999  37.447  14.780
40531W        W 7072  17.824   4.425  13.495
40532W        W 7073  10.700  29.832  14.492
40533W        W 7074  20.172   6.963   2.568
40534W        W 7075  36.536  18.860   0.147
40535W        W 7076   5.800  38.074   3.848
40536W        W 7077  31.233  43.969  12.130
40537W        W 7078  18.484  38.471  13.032
40538W        W 7079  30.706  15.218   1.168
40539W        W 7080  14.649   2.857  13.992
40540W        W 7081  15.183   1.784   4.489
40541W        W 7082   3.952  10.689  14.362
40542W        W 7083  44.864  37.881   0.408
40543W        W 7084  24.605  25.770   4.769
40544W        W 7085   6.263  11.262   4.074
40545W        W 7086  15.715  35.064   2.489
40546W        W 7087   1.476   8.206   1.880
40547W        W 7088  33.510  20.185   3.363
40548W        W 7089  35.306  42.460  11.503
40549W        W 7090  28.639   7.625  11.051
40550W        W 7091  22.519  12.131   0.066
40551W        W 7092   8.187  33.465   0.263
40552W        W 7093  27.494  42.070  13.515
40553W        W 7094  18.720   1.260  14.746
40554W        W 7095  38.943   6.236  12.073
40555W        W 7096  27.402  23.398   3.397
40556W        W 7097  36.600  31.830   4.050
40557W        W 7098  44.882   7.250   1.152
40558W        W 7099  39.131  12.048  10.846
40559W        W 7100  25.156  22.066  11.507
40560W        W 7101  15.111  35.156  14.944
40561W        W 7102  35.479  10.079  10.604
40562W        W 7103  34.297  31.638   0.236
40563W        W 7104   9.958  16.179   0.869
40564W        W 7105  11.235  11.364   1.835
40565W        W 7106  31.131   4.927   4.266
40566W        W 7107  16.636   0.982   2.272
40567W        W 7108  22.295   9.257   4.673
40568W        W 7109   2.855  42.906  13.014
40569W        W 7110  11.178  38.039  13.291
40570W        W 7111   8.786  26.771  14.365
40571W        W 7112  29.658  30.087  11.167
40572W        W 7113   3.505  22.022   1.196
40573W        W 7114  23.585   1.459   1.849
40574W        W 7115   5.956  43.404   1.247
40575W        W 7116   2.989  24.565   4.332
40576W        W 7117  18.766   9.409   0.365
40577W        W 7118  21.869   3.156  12.754
40578W        W 7119  37.793   9.915   4.046
40579W        W 7120  35.367  20.848   3.115
40580W        W 7121  22.767  40.288  10.961
40581W        W 7122  15.109   7.652  12.324
40582W        W 7123   4.094  23.943  10.295
40583W        W 7124   4.843  40.396  14.748
40584W        W 7125   6.520  42.806  14.961
40585W        W 7126  37.987  17.607  11.548
40586W        W 7127  24.622  24.112   3.711
40587W        W 7128  22.795  39.866  12.911
40588W        W 7129  29.954  27.097   1.939
40589W        W 7130  41.209  17.788  13.869
40590W        W 7131  39.604  37.633  14.230
40591W        W 7132   8.255  17.892   3.266
40592W        W 7133  19.316  18.214  12.030
40593W        W 7134   9.321  22.571   2.097
40594W        W 7135   9.664  42.900  10.649
40595W        W 7136  38.472  36.789   2.243
40596W        W 7137  16.837   3.715   3.384
40597W        W 7138  33.073   8.671  14.074
40598W        W 7139  32.459  37.561  10.622
40599W        W 7140  17.617  15.133  12.530
40600W        W 7141   1.742  33.177  14.935
40601W        W 7142  41.507  28.039  10.916
40602W        W 7143  13.425  10.679  11.362
40603W        W 7144   3.690  27.599  13.307
40604W        W 7145  27.583  15.080  11.457
40605W        W 7146  40.972   2.495   1.753
40606W        W 7147   8.184   6.600   4.174
40607W        W 7148  24.171   4.885   2.327
40608W        W 7149  37.050  18.647   3.362
40609W        W 7150   1.452  20.124  14.839
40610W        W 7151  22.152  25.480   4.226
40611W        W 7152   5.846  35.586   1.444
40612W        W 7153  40.208  37.979  10.721
40613W        W 7154  10.138  13.612   5.174
40614W        W 7155   6.842   5.319  12.799
40615W        W 7156  28.162   6.988  14.854
40616W        W 7157  28.075  36.383   2.618
40617W        W 7158   1.283  39.792   3.710
40618W        W 7159  25.837   6.424  12.488
40619W        W 7160  41.460  29.022  12.482
40620W        W 7161   9.753  13.765  11.240
40621W        W 7162   4.596  44.132   5.408
40622W        W 7163   7.420  35.603   4.158
40623W        W 7164  30.172  44.372   1.842
40624W        W 7165  16.129  18.588   3.520
40625W        W 7166  40.762   8.927  12.386
40626W        W 7167  12.359  13.858  13.345
40627W        W 7168  24.301   9.719  12.599
40628W        W 7169  19.511  30.608  14.882
40629W        W 7170  17.244  33.886   3.294
40630W        W 7171  22.215  25.013  14.885
40631W        W 7172  38.363  20.816   1.483
40632W        W 7173  18.351  29.968   4.560
40633W        W 7174  40.060  16.730  10.211
40634W        W 7175  17.581  22.722   4.589
40635W        W 7176  16.717  14.167   2.298
40636W        W 7177  11.106   9.191  13.820
40637W        W 7178  35.779  25.820  13.425
40638W        W 7179  20.588   4.941   1.144
40639W        W 7180  13.764   6.689   4.268
40640W        W 7181  33.971  27.135   0.857
40641W        W 7182   7.709  34.578   0.605
40642W        W 7183  17.906  27.223   0.423
40643W        W 7184  40.426  33.506   4.114
40644W        W 7185  20.156  42.435   2.076
40645W        W 7186   6.703  23.750   0.316
40646W        W 7187   5.925   7.992  13.734
40647W        W 7188  32.395  12.053   3.980
40648W        W 7189   3.690   6.417  13.863
40649W        W 7190  12.676  17.271  12.093
40650W        W 7191   9.823  25.617  12.048
40651W        W 7192  39.582  12.691   2.702
40652W        W 7193  30.446   1.445   2.812
40653W        W 7194   1.295   6.654   0.810
40654W        W 7195   1.724  20.285  14.445
40655W        W 7196   4.726   9.862   0.047
40656W        W 7197  32.002   7.436   4.128
40657W        W 7198   6.206  28.512   4.175
40658W        W 7199  30.532   8.645  13.883
40659W        W 7200  25.629  33.932  12.110
40660W        W 7201  44.524  30.541  11.596
40661W        W 7202  33.939  37.864   3.230
40662W        W 7203   0.336  30.207  10.754
40663W        W 7204  19.280   1.461  11.151
40664W        W 7205   9.101  33.622   4.346
40665W        W 7206  12.131  24.234   1.355
40666W        W 7207  38.955   1.773  13.474
40667W        W 7208   1.195  15.264  12.609
40668W        W 7209  40.948   5.800  11.041
40669W        W 7210  36.521  29.436   0.414
40670W        W 7211  12.192  28.686  12.297
40671W        W 7212  24.246   7.046  10.737
40672W        W 7213   2.065  24.299   3.411
40673W        W 7214  19.284  23.655  14.766
40674W        W 7215  15.956  17.823   2.962
40675W        W 7216  43.959  40.640   0.999
40676W        W 7217  23.557   9.628   4.039
40677W        W 7218  16.517  38.390  13.401
40678W        W 7219  23.063  11.255   2.296
40679W        W 7220   6.322  38.895  12.088
40680W        W 7221  32.931  35.482   0.688
40681W        W 7222   7.773  28.443  12.428
40682W        W 7223  30.617  21.180   5.053
40683W        W 7224  11.260  21.977  12.144
40684W        W 7225  31.864  29.303  13.276
40685W        W 7226  34.422   0.285   2.710
40686W        W 7227  41.795   3.282   4.131
40687W        W 7228  10.683   7.200  11.666
40688W        W 7229  40.436  36.396  14.553
40689W        W 7230  30.576  39.813   4.208
40690W        W 7231  42.111  35.343   2.331
40691W        W 7232  11.244  35.425   1.850
40692W        W 7233   9.939  31.443  12.111
40693W        W 7234  41.820  26.669   0.741
40694W        W 7235  25.477   1.596   0.985
40695W        W 7236   8.752   3.710   4.635
40696W        W 7237  29.662  24.072  13.823
40697W        W 7238  21.827  34.118  13.415
40698W        W 7239  38.401  10.296   0.816
40699W        W 7240  17.063   9.215  14.934
40700W        W 7241   0.317   0.241  13.096
40701W        W 7242  21.101   7.116   2.699
40702W        W 7243  40.033   6.703   3.131
40703W        W 7244  22.767  44.493   1.023
40704W        W 7245  38.399  31.371   4.030
40705W        W 7246   6.277  25.371   0.721
40706W        W 7247  11.489  14.693   3.646
40707W        W 7248   8.654   5.728  13.715
40708W        W 7249  20.105   3.022  13.267
40709W        W 7250  40.371  41.736  12.974
40710W        W 7251  35.515  30.399   4.950
40711W        W 7252  33.390  14.701  12.601
40712W        W 7253  14.340  27.447  12.041
40713W        W 7254  26.299  18.060  11.119
40714W        W 7255  39.565  30.099   0.878
40715W        W 7256  10.725  30.981  12.112
40716W        W 7257  37.270   1.961   5.335
40717W        W 7258  14.716  31.849  13.819
40718W        W 7259  24.554   0.766  11.072
40719W        W 7260  23.237  34.978   4.669
40720W        W 7261   7.631  20.241  12.553
40721W        W 7262  15.666  12.110  12.176
40722W        W 7263  20.605  40.832  10.714
40723W        W 7264  20.487   4.435   4.541
40724W        W 7265  19.089  14.606  12.460
40725W        W 7266  42.417  14.518  10.517
40726W        W 7267  28.929  42.591  14.503
40727W        W 7268  26.924  20.129   2.640
40728W        W 7269  37.650  16.811  14.538
40729W        W 7270  28.413  18.179   3.133
40730W        W 7271  24.331  15.420  11.112
40731W        W 7272   9.397   2.453   2.650
40732W        W 7273   0.657  34.501  11.682
40733W        W 7274  18.501  19.558   2.854
40734W        W 7275   6.659  28.478   3.808
40735W        W 7276  12.625  10.243  11.216
40736W        W 7277   4.648  35.778   1.482
40737W        W 7278  43.978  34.055   0.280
40738W        W 7279  27.222  14.618   4.063
40739W        W 7280  23.059  40.834   0.822
40740W        W 7281  11.704  44.950  14.924
40741W        W 7282   9.410   3.480  14.859
40742W        W 7283  15.005   5.296   3.160
40743W        W 7284  34.999  27.110  10.433
40744W        W 7285  21.518  43.326  14.389
40745W        W 7286  15.335  30.339   1.660
40746W        W 7287  20.671  31.465   2.902
40747W        W 7288   3.329   5.825  14.546
40748W        W 7289  28.457  10.728  10.952
40749W        W 7290  26.048  27.680  14.652
40750W        W 7291   4.216   6.261   4.175
40751W        W 7292  43.714  13.376   1.169
40752W        W 7293   0.852  12.161  11.939
40753W        W 7294  13.575  33.094   2.378
40754W        W 7295  10.198   6.896   1.435
40755W        W 7296  17.886  40.850  14.863
40756W        W 7297   5.494   0.453   1.636
40757W        W 7298  39.455   5.843   2.672
40758W        W 7299  11.319  32.398  14.824
40759W        W 7300  37.368  40.722   1.746
40760W        W 7301   1.782   3.942   2.528
40761W        W 7302  10.745   8.733   2.947
40762W        W 7303  13.258  41.429   4.549
40763W        W 7304   3.656   1.432   0.435
40764W        W 7305  14.090  20.693  13.344
40765W        W 7306  19.639   8.099  13.376
40766W        W 7307   0.738   4.514   4.932
40767W        W 7308   8.775  20.497  11.895
40768W        W 7309  42.976  43.937  11.734
40769W        W 7310  37.308  36.565  12.498
40770W        W 7311  26.646  24.668  14.193
40771W        W 7312  11.709   3.282   4.585
40772W        W 7313  35.601   2.817  14.820
40773W        W 7314  44.556  19.478  11.885
40774W        W 7315  35.115   5.909  12.057
40775W        W 7316  32.524   5.168   1.888
40776W        W 7317  31.169  21.513  11.916
40777W        W 7318  30.658  32.148  13.488
40778W        W 7319  16.941   7.631   4.943
40779W        W 7320  39.525  32.122  12.900
40780W        W 7321  36.425   8.865   0.374
40781W        W 7322  23.688  29.466   2.769
40782W        W 7323   9.793   5.770  13.546
40783W        W 7324  30.244  10.461  14.293
40784W        W 7325   4.488  29.904   2.761
40785W        W 7326  42.475  42.877  13.570
40786W        W 7327  20.824   1.456  10.963
40787W        W 7328  25.708  30.521   2.754
40788W        W 7329  43.832  29.598   4.792
40789W        W 7330  44.453   2.068  13.867
40790W        W 7331  22.709  24.182  12.996
40791W        W 7332  29.914  29.288   2.726
40792W        W 7333  35.641   8.434  14.938
40793W        W 7334  11.573  19.223   2.792
40794W        W 7335   4.142  43.549  11.319
40795W        W 7336   7.120  33.696   1.900
40796W        W 7337  32.343  31.848   4.884
40797W        W 7338  40.883  34.564   4.959
40798W        W 7339   9.842  41.209  12.518
40799W        W 7340  20.319   9.691  12.507
40800W        W 7341  17.417  22.281  10.185
40801W        W 7342  31.373  35.304   3.090
40802W        W 7343  18.061   1.351  12.045
40803W        W 7344  26.529  39.555   4.579
40804W        W 7345  31.962  20.093   4.834
40805W        W 7346  28.334  15.803  14.952
40806W        W 7347  25.656  37.243   2.122
40807W        W 7348  41.398   0.326  12.352
40808W        W 7349   8.438  11.997   0.240
40809W        W 7350   2.848  31.902   1.328
40810W        W 7351  10.338   1.475  13.370
40811W        W 7352  37.870  41.088  14.682
40812W        W 7353  17.730  42.486   1.865
40813W        W 7354   2.907  17.182   2.456
40814W        W 7355   1.346  42.744  11.896
40815W        W 7356   9.718  38.829  12.997
40816W        W 7357  43.237  33.863  11.924
40817W        W 7358  13.836   1.153  11.093
40818W        W 7359  18.236   1.062  13.512
40819W        W 7360  14.544   7.838  13.374
40820W        W 7361  36.058   7.767   1.477
40821W        W 7362   5.323  25.983   1.378
40822W        W 7363  40.580   2.288   3.617
40823W        W 7364  44.058  26.562  10.551
40824W        W 7365  19.278  34.336  13.812
40825W        W 7366  41.506  15.516  13.372
40826W        W 7367  29.018   2.602  14.335
40827W        W 7368  29.439  40.339   1.995
40828W        W 7369  24.671  16.747  13.446
40829W        W 7370   9.176  27.062   3.391
40830W        W 7371  34.992   9.311   1.754
40831W        W 7372   3.774   9.034   2.843
40832W        W 7373  39.257  18.495  11.507
40833W        W 7374  35.876  43.803   0.964
40834W        W 7375  39.337  15.204   4.608
40835W        W 7376  44.264  15.802   2.256
40836W        W 7377  37.369   7.795  12.911
40837W        W 7378  39.934   9.510  12.083
40838W        W 7379  38.805  25.104  12.966
40839W        W 7380  11.233   7.287   4.215
40840W        W 7381   4.749  15.216   2.987
40841W        W 7382  17.265   7.127   0.927
40842W        W 7383  44.832  10.579  14.236
40843W        W 7384  16.998   4.650  11.469
40844W        W 7385  39.921   1.649  13.497
40845W        W 7386   6.811  36.139  12.392
40846W        W 7387  21.576   4.276  11.249
40847W        W 7388  22.970   2.968   1.327
40848W        W 7389  23.773  39.145   1.758
40849W        W 7390  36.299  26.688  12.829
40850W        W 7391  31.455   7.730   3.167
40851W        W 7392  12.848  35.186  11.573
40852W        W 7393   0.743  44.423  13.993
40853W        W 7394  14.306  32.341   3.093
40854W        W 7395  20.138  29.668   2.300
40855W        W 7396   7.842  30.727  13.412
40856W        W 7397  33.363  41.038  10.716
40857W        W 7398   5.958  31.357  14.684
40858W        W 7399  41.890  41.797  12.898
40859W        W 7400   2.189  33.115   4.601
40860W        W 7401   4.365   9.473  14.703
40861W        W 7402   8.623  25.620   3.681
40862W        W 7403   2.998  34.280   3.554
40863W        W 7404  28.725  21.410   2.939
40864W        W 7405  19.890  32.015  13.989
40865W        W 7406   8.701  38.996   1.257
40866W        W 7407  11.440   9.201  12.897
40867W        W 7408  27.196  41.377   2.170
40868W        W 7409  39.994   4.219  10.683
40869W        W 7410  33.515  20.321   4.812
40870W        W 7411  29.181  17.732  11.613
40871W        W 7412  33.825  22.336   2.664
40872W        W 7413   4.841  37.590  10.309
40873W        W 7414  36.420  16.349   4.686
40874W        W 7415  27.897  28.616  10.668
40875W        W 7416  23.155  15.318   3.298
40876W        W 7417   5.670  44.001  10.854
40877W        W 7418  13.510  26.481   0.709
40878W        W 7419   3.326   4.224   1.433
40879W        W 7420  11.248  22.004   1.222
40880W        W 7421  25.649  25.727  13.866
40881W        W 7422  43.846  19.983   2.316
40882W        W 7423  30.065  16.436  10.796
40883W        W 7424  29.538   6.749  11.378
40884W        W 7425  30.173  24.128   2.746
40885W        W 7426  18.298  22.532  13.884
40886W        W 7427   9.890  25.841   1.503
40887W        W 7428   9.780  17.360  11.917
40888W        W 7429  16.213  26.691   3.718
40889W        W 7430  29.696  20.617   1.463
40890W        W 7431  18.590  24.784   1.703
40891W        W 7432  23.532   5.825   1.492
40892W        W 7433  19.707  28.116   2.131
40893W        W 7434  44.502  44.721  13.317
40894W        W 7435   4.484  37.639   2.561
40895W        W 7436  17.541  38.536  11.496
40896W        W 7437   8.943  13.342  13.074
40897W        W 7438  27.426  12.053   0.717
40898W        W 7439  11.341  20.954  14.321
40899W        W 7440  42.790   4.115  10.620
40900W        W 7441  25.103  11.247   0.811
40901W        W 7442  36.422  32.103   3.150
40902W        W 7443  25.006  12.725  14.081
40903W        W 7444  19.008  34.061   2.840
40904W        W 7445  23.994  35.159  11.613
40905W        W 7446  10.620   5.489   3.234
40906W        W 7447  25.984  21.007  13.817
40907W        W 7448  10.196  12.861   3.326
40908W        W 7449  22.058  31.619  14.042
40909W        W 7450   7.827  22.234  12.991
40910W        W 7451   3.942  27.177  10.913
40911W        W 7452  25.559  13.124   5.009
40912W        W 7453   7.825   7.999  11.202
40913W        W 7454  39.626  16.261  12.552
40914W        W 7455  40.084  17.341   1.371
40915W        W 7456  13.163  19.581   2.151
40916W        W 7457  40.825   9.783  12.948
40917W        W 7458   5.337  41.829   0.890
40918W        W 7459  15.292   8.439   4.862
40919W        W 7460  23.704  28.026   0.188
40920W        W 7461  34.772  33.716   1.770
40921W        W 7462  39.941  20.938   3.421
40922W        W 7463  39.870   2.846   2.819
40923W        W 7464  41.338  25.335  12.299
40924W        W 7465  19.807  30.190  10.886
40925W        W 7466  22.209  18.086   2.798
40926W        W 7467  28.049  34.837   0.965
40927W        W 7468  29.109  28.503  13.866
40928W        W 7469  43.149   8.698   0.706
40929W        W 7470   9.218  28.615  13.136
40930W        W 7471  39.603  42.802  11.621
40931W        W 7472  14.910   8.616  11.625
40932W        W 7473  44.264  17.856  11.182
40933W        W 7474  24.739   4.279  13.830
40934W        W 7475  34.309  22.940   1.524
40935W        W 7476  20.435   5.724  10.249
40936W        W 7477  21.167  42.585  14.063
40937W        W 7478   2.037  27.921   5.042
40938W        W 7479  14.376  29.442   9.868
40939W        W 7480  13.066  10.636   4.631
40940W        W 7481   2.618  25.214  14.292
40941W        W 7482  25.588  22.690  13.517
40942W        W 7483  19.462  12.258   3.628
40943W        W 7484  29.179  44.956  14.448
40944W        W 7485  22.231   9.772  12.539
40945W        W 7486   7.610  15.954   3.766
40946W        W 7487  42.399  27.742   3.878
40947W        W 7488   7.791   6.960  10.451
40948W        W 7489   9.696  23.137   4.811
40949W        W 7490   8.700  36.816  13.858
40950W        W 7491  29.109  29.934  13.571
40951W        W 7492  20.183  32.076   0.355
40952W        W 7493  13.631  13.740  14.835
40953W        W 7494  44.080  28.119  12.148
40954W        W 7495  17.069  33.676   3.771
40955W        W 7496  34.980  11.700   4.185
40956W        W 7497  21.509  27.315  14.567
40957W        W 7498  11.550  11.373   2.638
40958W        W 7499  17.095  38.111  13.876
40959W        W 7500  41.577   7.277   2.520
40960W        W 7501  11.055  34.446  13.539
40961W        W 7502   1.376  23.023   1.009
40962W        W 7503  19.695  12.138   2.425
40963W        W 7504  40.933   6.310  14.202
40964W        W 7505  23.698  23.068  14.485
40965W        W 7506  40.486  36.437   2.294
40966W        W 7507  14.059  44.504  10.891
40967W        W 7508  38.787  35.036   4.002
40968W        W 7509  37.703  15.988  10.257
40969W        W 7510  29.397   6.642   5.035
40970W        W 7511  38.594   8.489  13.367
40971W        W 7512  33.507  42.540  14.359
40972W        W 7513  21.498  12.759  11.755
40973W        W 7514   2.000   2.386  14.255
40974W        W 7515  35.827  17.996   4.149
40975W        W 7516  23.343   7.463   3.299
40976W        W 7517   3.074  20.310   1.364
40977W        W 7518  10.967  39.986  10.769
40978W        W 7519  40.849   2.524  14.403
40979W        W 7520  37.141  15.699   2.710
40980W        W 7521   8.253  18.847  13.390
40981W        W 7522   3.377   5.025   0.527
40982W        W 7523   4.747  11.905   4.735
40983W        W 7524   4.508  32.926  10.761
40984W        W 7525  30.861  37.626   2.832
40985W        W 7526  37.955  12.311   2.965
40986W        W 7527  38.523  42.963  14.417
40987W        W 7528  42.342  43.018  13.068
40988W        W 7529  21.664  39.651   1.515
40989W        W 7530   2.706  13.913   0.868
40990W        W 7531  28.833  35.956  13.270
40991W        W 7532   6.733  21.761  14.274
40992W        W 7533   4.780  15.610  11.159
40993W        W 7534  38.552  19.892   2.826
40994W        W 7535   8.260  26.044   3.593
40995W        W 7536  44.884  16.825  11.631
40996W        W 7537  38.375  37.907  14.297
40997W        W 7538   3.799   5.806  13.301
40998W        W 7539  27.978   5.562   2.154
40999W        W 7540  34.378  36.565  13.763
41000W        W 7541  21.649  29.026  11.684
41001W        W 7542  14.231  38.351  14.833
41002W        W 7543  18.763  34.999  11.610
41003W        W 7544  22.709  34.269   1.274
41004W        W 7545  21.361  32.854  12.584
41005W        W 7546  31.030   6.837   1.907
41006W        W 7547  29.955  33.154  14.098
41007W        W 7548  38.998   0.996   3.244
41008W        W 7549  44.033  19.719   0.041
41009W        W 7550  39.335   8.658  13.854
41010W        W 7551  18.553  23.195  14.438
41011W        W 7552  26.890  37.277   1.837
41012W        W 7553  32.408  23.201   0.810
41013W        W 7554  17.832   2.473   3.125
41014W        W 7555  36.460   0.855  12.408
41015W        W 7556   0.646  28.896   1.612
41016W        W 7557   6.863  18.048  13.505
41017W        W 7558  20.727  24.481   0.389
41018W        W 7559  29.876  22.269  15.000
41019W        W 7560  30.031  21.219   2.645
41020W        W 7561  15.266  12.455  10.388
41021W        W 7562  40.065  32.300  11.014
41022W        W 7563  10.680  23.039  14.906
41023W        W 7564   8.437  37.177   1.321
41024W        W 7565  21.930  18.369   3.134
41025W        W 7566  18.272  26.072  12.607
41026W        W 7567  33.771   6.332  13.939
41027W        W 7568  37.498  34.058   0.012
41028W        W 7569   5.341  12.290  11.037
41029W        W 7570  38.956  29.061   1.844
41030W        W 7571  42.343  35.532   4.813
41031W        W 7572  24.703  35.513  12.130
41032W        W 7573  28.235   0.870  14.278
41033W        W 7574   6.719  22.592   4.628
41034W        W 7575   0.953   6.611  10.607
41035W        W 7576  21.002  16.023  13.012
41036W        W 7577   6.738  39.083  14.402
41037W        W 7578  10.814   2.342   2.442
41038W        W 7579  34.210  43.913  10.683
41039W        W 7580  17.901  30.047   4.255
41040W        W 7581  30.480  43.195   1.761
41041W        W 7582  36.136   7.708  12.570
41042W        W 7583  44.797  15.614   3.116
41043W        W 7584  15.203  12.633  12.404
41044W        W 7585  41.820  33.620   1.925
41045W        W 7586  32.246  36.525  14.312
41046W        W 7587   7.629  26.513   1.886
41047W        W 7588  24.975  14.264   1.695
41048W        W 7589  14.685  35.491   3.530
41049W        W 7590  16.329   0.013   1.407
41050W        W 7591  24.528   2.392   1.976
41051W        W 7592  37.381  34.734  12.374
41052W        W 7593  23.110  22.289   2.022
41053W        W 7594  11.579   9.294  10.989
41054W        W 7595  36.308  15.800  12.455
41055W        W 7596   8.279  32.644  11.580
41056W        W 7597  13.028  22.227  11.545
41057W        W 7598  34.863  39.281   3.599
41058W        W 7599  31.423   5.246   1.774
41059W        W 7600  27.462  23.209  12.156
41060W        W 7601  12.650  10.632   1.967
41061W        W 7602   1.066  41.387   0.895
41062W        W 7603  24.658  14.779  11.410
41063W        W 7604  31.188   2.932   0.444
41064W        W 7605  36.372  25.922   2.898
41065W        W 7606  42.770   6.036   5.058
41066W        W 7607  25.270  23.452  14.775
41067W        W 7608  41.387  16.926  14.005
41068W        W 7609  30.543  44.174   2.166
41069W        W 7610  41.418  30.949  12.484
41070W        W 7611   0.355  28.480   3.357
41071W        W 7612   2.494  41.408   2.863
41072W        W 7613  20.185   7.324  14.540
41073W        W 7614  17.716  14.675   3.715
41074W        W 7615  19.304   4.309  10.620
41075W        W 7616  38.267  43.074  13.962
41076W        W 7617  41.841  37.139  12.002
41077W        W 7618   1.787   7.450  11.174
41078W        W 7619  42.426  22.138   3.117
41079W        W 7620  31.212  34.934   0.000
41080W        W 7621   6.075  13.102   3.462
41081W        W 7622  25.093  19.493   0.459
41082W        W 7623  15.735  36.006  10.725
41083W        W 7624  16.672  19.211   3.656
41084W        W 7625  21.230  27.089  13.032
41085W        W 7626  23.400  18.449  12.467
41086W        W 7627  43.315  16.754   4.232
41087W        W 7628  43.441   3.315  12.173
41088W        W 7629  24.945  22.932   1.371
41089W        W 7630  22.957   7.306  14.854
41090W        W 7631  41.535   3.356  13.499
41091W        W 7632  11.336  43.352   4.575
41092W        W 7633  25.622  36.395  13.846
41093W        W 7634  26.173  18.532  14.262
41094W        W 7635  30.137   1.987   2.287
41095W        W 7636  14.807  40.553   3.176
41096W        W 7637   3.792  30.156  12.783
41097W        W 7638  37.555  14.217  12.382
41098W        W 7639  24.519  32.383  11.908
41099W        W 7640  22.577  13.622  10.726
41100W        W 7641  41.262   2.170  13.437
41101W        W 7642  35.737  25.921  12.442
41102W        W 7643  37.327  35.615  14.239
41103W        W 7644  32.603   7.732   2.422
41104W        W 7645   5.233  17.183   0.980
41105W        W 7646  17.699   3.882   3.154
41106W        W 7647   2.882  41.907  11.442
41107W        W 7648  15.200  28.069  10.694
41108W        W 7649   9.519  21.417  10.702
41109W        W 7650  17.283  10.274  13.895
41110W        W 7651  18.215  27.095   3.289
41111W        W 7652   7.889  13.389  12.913
41112W        W 7653  30.944   7.958   1.187
41113W        W 7654  26.988  38.489   5.284
41114W        W 7655  15.385  11.900   4.692
41115W        W 7656  42.075  23.072  14.811
41116W        W 7657  14.432  34.949  13.492
41117W        W 7658  34.854  16.850   1.280
41118W        W 7659   6.868  13.804  10.836
41119W        W 7660   5.667  36.990   5.305
41120W        W 7661  24.820  15.231  11.731
41121W        W 7662  21.601  33.674  14.488
41122W        W 7663  44.189  15.736  14.292
41123W        W 7664  26.710  40.452  10.704
41124W        W 7665  26.579   0.969   3.607
41125W        W 7666  27.637   1.443   0.974
41126W        W 7667  22.634  23.865   5.211
41127W        W 7668  42.571  21.630  13.864
41128W        W 7669   5.819  17.777  12.830
41129W        W 7670  43.330  26.582  13.924
41130W        W 7671  10.895  19.210   0.078
41131W        W 7672   8.334  19.644   4.092
41132W        W 7673  20.190  28.179   0.882
41133W        W 7674  35.459  38.176   1.170
41134W        W 7675  13.172  39.230  12.650
41135W        W 7676  14.122  39.888   2.269
41136W        W 7677  24.405  11.771   0.819
41137W        W 7678  25.653   8.028   4.797
41138W        W 7679   1.896  17.500   3.183
41139W        W 7680  20.737  17.018   4.236
41140W        W 7681  15.542  17.190   2.269
41141W        W 7682  43.931   8.497   0.841
41142W        W 7683  23.620  15.678   0.794
41143W        W 7684  15.753  32.991   5.609
41144W        W 7685  36.526   9.165   0.810
41145W        W 7686  15.697  44.272  12.478
41146W        W 7687   4.844  29.287   1.302
41147W        W 7688  26.723  31.782  13.226
41148W        W 7689  32.942  19.748  12.100
41149W        W 7690  28.478  18.376  13.318
41150W        W 7691  42.450  28.601  14.837
41151W        W 7692  42.908  44.872   4.588
41152W        W 7693  44.803  12.149  10.739
41153W        W 7694  31.645  21.825   1.494
41154W        W 7695   1.210   4.973   1.349
41155W        W 7696  18.974   8.188   3.770
41156W        W 7697   1.417  24.144   4.399
41157W        W 7698  27.730  35.984   4.650
41158W        W 7699   5.992  16.124  14.300
41159W        W 7700  25.703  14.255  14.020
41160W        W 7701   1.024  25.689  10.803
41161W        W 7702  25.406  30.494  13.551
41162W        W 7703  14.299  39.568  13.447
41163W        W 7704   3.414  33.051  14.498
41164W        W 7705   4.004   5.095   2.390
41165W        W 7706  26.532  31.161   3.363
41166W        W 7707  13.781  20.241  13.388
41167W        W 7708   4.692  42.412  14.917
41168W        W 7709  30.498  30.209  11.090
41169W        W 7710  33.967  28.422   2.780
41170W        W 7711  42.302  20.319  14.880
41171W        W 7712   8.399   4.460  13.428
41172W        W 7713  13.198  44.386   0.305
41173W        W 7714  35.117   9.275   0.188
41174W        W 7715  27.965  41.817  10.713
41175W        W 7716   8.166   3.740   2.752
41176W        W 7717  32.636  25.053   0.243
41177W        W 7718  20.224  16.381   1.697
41178W        W 7719  33.048  16.337   1.372
41179W        W 7720  30.993  31.133   3.546
41180W        W 7721  40.480  31.164   2.167
41181W        W 7722  38.248  22.785   4.601
41182W        W 7723  12.284  39.968   0.020
41183W        W 7724  29.327   4.623   0.517
41184W        W 7725   5.447  43.341   1.158
41185W        W 7726  18.140  43.909   4.745
41186W        W 7727  44.375   8.346   4.099
41187W        W 7728  22.713  22.090  11.514
41188W        W 7729  25.753   9.948  12.581
41189W        W 7730  10.744  41.353  11.208
41190W        W 7731  21.591  19.507  13.995
41191W        W 7732  32.101  38.912   4.562
41192W        W 7733  37.433  42.404   1.934
41193W        W 7734  31.507  11.403   2.268
41194W        W 7735  38.495  32.465  13.556
41195W        W 7736  23.270  21.652   2.396
41196W        W 7737   9.840  33.340   3.662
41197W        W 7738  13.598   7.352  12.194
41198W        W 7739  29.966  20.111  13.095
41199W        W 7740   5.840  43.191  13.407
41200W        W 7741  31.067  39.971  13.591
41201W        W 7742   2.909   1.897   3.548
41202W        W 7743   4.927  38.314  11.057
41203W        W 7744  38.343  38.990  14.893
41204W        W 7745  27.507  42.471   4.600
41205W        W 7746  31.290  42.023   0.100
41206W        W 7747  27.942   3.973  14.960
41207W        W 7748   8.214  40.055   3.784
41208W        W 7749  20.039  32.470  14.731
41209W        W 7750  16.305  37.781  14.459
41210W        W 7751  16.278  12.861  13.899
41211W        W 7752  38.057  35.533   3.968
41212W        W 7753  21.529  12.140  14.801
41213W        W 7754  23.230  42.966  10.815
41214W        W 7755  40.982   9.654  14.844
41215W        W 7756   9.661  28.851  12.878
41216W        W 7757   1.443  26.050  10.025
41217W        W 7758  40.325   0.370  12.318
41218W        W 7759  44.380   3.761   3.697
41219W        W 7760  23.176  12.682   2.646
41220W        W 7761   4.286  19.702   4.265
41221W        W 7762  13.959  16.645  10.987
41222W        W 7763  29.228  30.454   2.416
41223W        W 7764   5.900   9.317   4.357
41224W        W 7765  31.508  29.733   1.043
41225W        W 7766  39.743  39.130  14.437
41226W        W 7767  33.580   0.985   4.429
41227W        W 7768   0.194  18.056   5.068
41228W        W 7769  42.443   3.361   1.012
41229W        W 7770  42.940  38.411  12.178
41230W        W 7771  43.127   8.288   1.416
41231W        W 7772   1.887   0.473  10.970
41232W        W 7773  15.796  14.700  11.681
41233W        W 7774  30.150  24.171   4.075
41234W        W 7775  33.351  25.989  13.248
41235W        W 7776  23.514   0.695   0.873
41236W        W 7777  16.729  28.557   4.560
41237W        W 7778  33.318  40.012  13.075
41238W        W 7779  41.449  16.321   3.142
41239W        W 7780  35.045  19.628   2.702
41240W        W 7781  21.141  20.518  13.495
41241W        W 7782  38.338   5.275  12.550
41242W        W 7783  35.554   9.343   0.510
41243W        W 7784  26.390  20.091   2.647
41244W        W 7785  22.006  41.067  12.707
41245W        W 7786  29.646  34.864  12.037
41246W        W 7787  32.412  43.336  10.797
41247W        W 7788  15.583  28.086  11.595
41248W        W 7789  14.008  11.337   0.159
41249W        W 7790  20.061   6.915   1.562
41250W        W 7791  31.974  23.697  14.113
41251W        W 7792   5.123  42.284   3.269
41252W        W 7793  18.695  43.764  10.815
41253W        W 7794   8.403  29.048   4.563
41254W        W 7795  20.282  34.868   0.196
41255W        W 7796   5.896  21.553  11.489
41256W        W 7797   0.644  23.011   3.109
41257W        W 7798  43.415  29.919   4.593
41258W        W 7799  13.082  21.114  10.721
41259W        W 7800   5.560  13.360   1.138
41260W        W 7801  19.069  18.320   0.903
41261W        W 7802   1.622  41.315  12.947
41262W        W 7803  12.043   4.700  11.036
41263W        W 7804   2.294  14.701  12.904
41264W        W 7805   0.621  44.789  14.821
41265W        W 7806  34.343  21.739  14.936
41266W        W 7807   8.041  21.155  13.019
41267W        W 7808  20.523  12.778  13.926
41268W        W 7809  15.553  18.324  13.432
41269W        W 7810   7.020  17.555  14.042
41270W        W 7811  42.584  26.963  11.584
41271W        W 7812  36.059   3.480  13.682
41272W        W 7813  14.065  33.172  11.520
41273W        W 7814  12.179   1.898  10.691
41274W        W 7815   9.263   2.025   2.337
41275W        W 7816   0.799  11.901   4.179
41276W        W 7817  30.087   6.336  14.987
41277W        W 7818  31.722  16.292  11.089
41278W        W 7819  10.125  33.746  13.812
41279W        W 7820   0.985  12.267   4.517
41280W        W 7821  11.935  10.734  11.932
41281W        W 7822  31.450  11.089   0.851
41282W        W 7823  41.014  29.403   2.263
41283W        W 7824  11.074  42.277   1.305
41284W        W 7825  18.216  16.552  12.922
41285W        W 7826  34.601  32.164   3.306
41286W        W 7827   8.621  26.729  11.996
41287W        W 7828  43.402  36.427  10.491
41288W        W 7829   5.790  39.191   1.422
41289W        W 7830   5.307  21.046  10.056
41290W        W 7831  35.358   3.267   2.076
41291W        W 7832   5.220   2.378   0.286
41292W        W 7833  41.755   1.383   4.563
41293W        W 7834   3.193  16.324  12.490
41294W        W 7835  41.621  31.915  13.363
41295W        W 7836  36.967   4.684  10.728
41296W        W 7837   8.731  44.073  10.701
41297W        W 7838   5.990   6.194   4.116
41298W        W 7839  14.662  15.615   4.208
41299W        W 7840  26.128  38.091  11.187
41300W        W 7841  36.948  26.949   3.240
41301W        W 7842  43.465  24.557   1.833
41302W        W 7843  27.600  19.777   4.848
41303W        W 7844  42.589  40.407  12.382
41304W        W 7845  22.470  29.822  13.387
41305W        W 7846  13.843  25.180  10.528
41306W        W 7847  10.450  36.228  13.368
41307W        W 7848  42.361  18.599  13.624
41308W        W 7849  19.215  11.158  12.405
41309W        W 7850  41.092  19.764  14.047
41310W        W 7851  16.098  21.453  12.952
41311W        W 7852  42.621  29.723  11.390
41312W        W 7853   1.750  37.394  10.684
41313W        W 7854  30.866  24.168   4.733
41314W        W 7855  27.489  29.965  10.525
41315W        W 7856  40.134  15.451  10.019
41316W        W 7857  34.696  30.925   0.920
41317W        W 7858  40.260   2.417   3.216
41318W        W 7859  10.404  24.087   2.086
41319W        W 7860  36.051  32.449  14.769
41320W        W 7861  20.092  43.060  10.690
41321W        W 7862  28.036  24.221  14.502
41322W        W 7863  14.887  18.347   2.629
41323W        W 7864  38.856  34.597  14.113
41324W        W 7865  38.733  26.936   2.187
41325W        W 7866   3.642  41.749   2.366
41326W        W 7867  12.071   7.253  10.705
41327W        W 7868  33.058  41.273   4.563
41328W        W 7869   2.324  35.957   0.186
41329W        W 7870  19.032  14.390   2.843
41330W        W 7871  16.651   0.056  12.233
41331W        W 7872  10.705  42.184   5.052
41332W        W 7873  38.203   3.864  11.343
41333W        W 7874  18.381  32.002   0.843
41334W        W 7875  36.116  44.424   1.918
41335W        W 7876  27.119  34.417   0.631
41336W        W 7877  35.362  34.646  14.743
41337W        W 7878  20.564  34.444   0.022
41338W        W 7879  26.759  38.531  10.173
41339W        W 7880   6.252  25.926   2.511
41340W        W 7881  18.751  27.062   3.366
41341W        W 7882  13.157  15.337   1.913
41342W        W 7883  32.579  37.816  13.052
41343W        W 7884   6.609  34.900   3.649
41344W        W 7885   4.491  41.021   1.800
41345W        W 7886  30.436  40.302  11.218
41346W        W 7887  43.391  12.624   4.151
41347W        W 7888  41.264  37.573   2.648
41348W        W 7889  15.399  22.114  12.260
41349W        W 7890   8.861   2.720  12.774
41350W        W 7891  14.624  35.928   1.529
41351W        W 7892  32.066  33.372   3.352
41352W        W 7893   5.409   5.666   5.001
41353W        W 7894  43.384  23.514  10.876
41354W        W 7895  24.977  14.699   1.424
41355W        W 7896  34.455  21.233  11.158
41356W        W 7897  16.323  33.980   0.748
41357W        W 7898  30.422  29.545   4.265
41358W        W 7899  15.607  24.105  10.659
41359W        W 7900   2.231  33.599   1.508
41360W        W 7901   0.315  40.777  11.335
41361W        W 7902   7.326  32.817   4.846
41362W        W 7903   6.059  24.605   4.041
41363W        W 7904  30.157   2.652  12.062
41364W        W 7905  24.599   6.427  12.618
41365W        W 7906   0.246   4.149  10.125
41366W        W 7907  32.560   6.315  14.618
41367W        W 7908  16.893  13.838   4.969
41368W        W 7909  19.720  20.486  11.929
41369W        W 7910  30.963   9.839  11.146
41370W        W 7911   2.020  13.062   3.619
41371W        W 7912  27.794  14.258  10.269
41372W        W 7913   1.984   5.322   4.116
41373W        W 7914  21.518  26.842  10.029
41374W        W 7915  15.770  33.308  14.830
41375W        W 7916  42.537   1.338  11.432
41376W        W 7917  36.657  27.451  14.478
41377W        W 7918  28.755  33.484  13.320
41378W        W 7919   4.301   9.938  14.327
41379W        W 7920  38.384   9.395  11.931
41380W        W 7921   5.257  11.142   2.737
41381W        W 7922  38.571  39.261   0.322
41382W        W 7923  15.174  22.598  13.912
41383W        W 7924  22.496  31.016   1.674
41384W        W 7925  12.762  24.187  14.071
41385W        W 7926  14.660  32.884  13.961
41386W        W 7927  11.617  24.505  12.815
41387W        W 7928  32.195  30.921  12.471
41388W        W 7929  22.048   2.441   1.369
41389W        W 7930   4.460  23.091   0.462
41390W        W 7931  38.396  36.121   1.760
41391W        W 7932  14.751  18.805  13.356
41392W        W 7933  44.115  15.718   1.237
41393W        W 7934   7.075  41.799   2.581
41394W        W 7935   5.783  27.167   2.309
41395W        W 7936  26.574  38.086   5.034
41396W        W 7937  19.667  27.510   1.893
41397W        W 7938   9.308   2.986   1.645
41398W        W 7939   1.440  25.786   3.664
41399W        W 7940  35.840   0.946   4.658
41400W        W 7941  28.209  15.919  14.411
41401W        W 7942  26.716  39.313  12.422
41402W        W 7943  43.591  21.418  13.936
41403W        W 7944  39.531   8.891   0.319
41404W        W 7945   0.498  39.298   4.869
41405W        W 7946  15.401  38.042   1.822
41406W        W 7947   3.376  40.004   4.831
41407W        W 7948  19.914  25.157  11.673
41408W        W 7949  28.215  16.179  10.762
41409W        W 7950  25.542  10.176  13.807
41410W        W 7951  24.682  18.790   2.658
41411W        W 7952  15.835  33.877  13.980
41412W        W 7953  43.023  15.604   3.159
41413W        W 7954  42.740   9.235   3.680
41414W        W 7955  11.857  20.454  14.772
41415W        W 7956  17.662  14.822   0.199
41416W        W 7957   3.216  15.315  12.002
41417W        W 7958  34.570   4.757   3.355
41418W        W 7959  39.007   2.515   0.327
41419W        W 7960  27.203   3.531  11.144
41420W        W 7961  13.782  26.705  10.245
41421W        W 7962  22.669   4.251   2.311
41422W        W 7963  27.884  43.436   0.570
41423W        W 7964  10.883  15.198  13.792
41424W        W 7965  36.926  35.612  13.392
41425W        W 7966  11.744  34.410  12.865
41426W        W 7967   8.580  18.049  11.096
41427W        W 7968  30.970  23.246   3.386
41428W        W 7969  13.806  27.103  14.456
41429W        W 7970  25.022  14.297   3.092
41430W        W 7971  27.856  19.281  14.092
41431W        W 7972   6.331  21.074   3.561
41432W        W 7973  14.101  21.292   4.780
41433W        W 7974   9.416  43.717  14.314
41434W        W 7975   1.648  10.151  14.273
41435W        W 7976   6.877  34.758  14.208
41436W        W 7977  31.697  32.643  12.131
41437W        W 7978  39.051   8.806   0.069
41438W        W 7979   0.841  21.549   4.243
41439W        W 7980  33.024  11.187  12.849
41440W        W 7981  22.159  37.167  13.947
41441W        W 7982  25.591   4.755  11.855
41442W        W 7983  19.172  44.630   3.932
41443W        W 7984  16.272  22.531   2.874
41444W        W 7985  28.024  43.304   4.614
41445W        W 7986   3.792   8.731   4.604
41446W        W 7987  22.056  18.103  14.710
41447W        W 7988   3.216  15.114   4.454
41448W        W 7989  16.260  29.510  12.427
41449W        W 7990  43.368  44.733   4.146
41450W        W 7991  33.148  33.129  11.157
41451W        W 7992  19.611   8.550  12.568
41452W        W 7993  31.896  29.434  14.741
41453W        W 7994  35.359  32.144   1.933
41454W        W 7995  25.444  44.498  12.546
41455W        W 7996  44.410   8.669   0.785
41456W        W 7997  23.407  23.668  13.476
41457W        W 7998  41.284  18.051  14.498
41458W        W 7999  30.521  30.600   2.364
41459W        W 8000   7.799  28.209   4.629
41460W        W 8001  42.585   9.925   2.195
41461W        W 8002  27.629   9.233  12.265
41462W        W 8003  19.718  40.241   1.507
41463W        W 8004   1.701  29.936   1.516
41464W        W 8005   6.769   7.135   3.718
41465W        W 8006  25.434  21.700   2.200
41466W        W 8007  26.435  12.759   5.112
41467W        W 8008  21.693   9.432  13.933
41468W        W 8009  27.401  43.724   1.737
41469W        W 8010  28.145  29.042   0.977
41470W        W 8011  15.134  18.575   1.645
41471W        W 8012  16.766  36.948   2.260
41472W        W 8013  21.489  43.000  14.797
41473W        W 8014   9.692  25.550  14.896
41474W        W 8015  27.598  25.564  10.932
41475W        W 8016  19.305   6.145  11.613
41476W        W 8017  11.471  22.265   4.168
41477W        W 8018   1.913  30.099   0.696
41478W        W 8019  38.754  12.373  13.059
41479W        W 8020  33.716   5.385   2.441
41480W        W 8021  38.778  19.791   4.459
41481W        W 8022  29.515   9.761  11.208
41482W        W 8023   6.021  19.338  11.130
41483W        W 8024  16.863  18.180   4.911
41484W        W 8025  32.155   8.481  13.148
41485W        W 8026  22.191   1.486   0.418
41486W        W 8027  37.340  37.994  11.614
41487W        W 8028  12.413  22.669  14.426
41488W        W 8029  13.358  18.355  14.999
41489W        W 8030  22.840  44.608   0.524
41490W        W 8031  17.635   1.901   1.026
41491W        W 8032  36.058  26.229   3.807
41492W        W 8033  43.811  32.484  10.456
41493W        W 8034   5.513   5.779  13.544
41494W        W 8035   2.713  14.580   1.829
41495W        W 8036  15.176   6.230   0.243
41496W        W 8037  44.400  15.180   2.035
41497W        W 8038   1.288  37.447   4.116
41498W        W 8039   7.313  11.354   4.389
41499W        W 8040   5.704  17.618   0.474
41500W        W 8041   9.173  40.206   1.841
41501W        W 8042  38.066  38.527   3.632
41502W        W 8043  33.708  11.248   3.624
41503W        W 8044  36.339  38.742  12.860
41504W        W 8045  36.369  21.252  14.359
41505W        W 8046  26.616   3.764   0.247
41506W        W 8047  17.825  15.653  12.803
41507W        W 8048   3.414  34.468   4.299
41508W        W 8049   2.592  18.381   3.802
41509W        W 8050  40.601   5.681   1.260
41510W        W 8051   3.749  44.505   4.993
41511W        W 8052  29.741  38.539   1.227
41512W        W 8053  31.564  14.711  12.400
41513W        W 8054   2.253  39.435   1.790
41514W        W 8055  39.469  26.766   0.406
41515W        W 8056  19.362  29.574   2.750
41516W        W 8057  29.017  37.454   2.495
41517W        W 8058  39.014   8.839  14.553
41518W        W 8059   5.334  33.661   5.006
41519W        W 8060  31.378  25.795  13.509
41520W        W 8061   5.799   1.277   0.825
41521W        W 8062  11.763  24.716   1.875
41522W        W 8063  39.658  12.282   1.925
41523W        W 8064  43.218  42.210   2.450
41524W        W 8065  10.285  40.716   1.822
41525W        W 8066  11.927  41.212   1.242
41526W        W 8067   5.130   4.137  11.113
41527W        W 8068  23.737  16.737  13.483
41528W        W 8069  41.353   7.994   0.715
41529W        W 8070   7.518  24.458   3.579
41530W        W 8071  31.575  35.347  12.456
41531W        W 8072   3.268  22.267   4.183
41532W        W 8073  37.619  36.905   4.170
41533W        W 8074   5.033   7.204   4.199
41534W        W 8075  26.028   5.324   9.830
41535W        W 8076  19.200   4.979  13.404
41536W        W 8077   0.028  26.569  14.885
41537W        W 8078  20.684  25.451   4.670
41538W        W 8079  30.010  39.273   0.820
41539W        W 8080   9.827   3.315   3.774
41540W        W 8081  14.378   0.650   0.778
41541W        W 8082   5.680  29.085   2.620
41542W        W 8083   5.119   4.855  14.408
41543W        W 8084  22.033  28.710   4.688
41544W        W 8085  40.516  18.637  13.686
41545W        W 8086  26.116  13.129   0.670
41546W        W 8087   9.113  14.577  10.441
41547W        W 8088  15.795  22.630   2.028
41548W        W 8089  14.705  29.665  14.147
41549W        W 8090   6.101  41.890  10.209
41550W        W 8091  38.368  24.427  14.258
41551W        W 8092  23.015  37.820   4.762
41552W        W 8093  12.668  44.789  13.030
41553W        W 8094  39.804  12.572   3.162
41554W        W 8095  41.535   0.423   4.289
41555W        W 8096   4.459  10.188   4.330
41556W        W 8097  25.114  36.250  13.025
41557W        W 8098  25.963  39.388  11.223
41558W        W 8099  12.257  14.731   2.651
41559W        W 8100  11.198  22.863   3.066
41560W        W 8101   9.854  15.831   1.706
41561W        W 8102  25.549   8.792  14.079
41562W        W 8103  22.473  25.909   0.427
41563W        W 8104  23.024   7.481   3.699
41564W        W 8105  20.221  25.711   4.697
41565W        W 8106  26.213  15.774  13.837
41566W        W 8107  18.087  40.417   0.562
41567W        W 8108   4.742  36.168  14.984
41568W        W 8109  29.936  33.198   2.910
41569W        W 8110  24.599  39.873  11.596
41570W        W 8111  30.593  10.499  10.180
41571W        W 8112  32.903  15.601  11.261
41572W        W 8113  23.240  37.964   1.948
41573W        W 8114   3.970  21.484  14.980
41574W        W 8115  24.634  41.239  11.196
41575W        W 8116   8.022   7.930  14.449
41576W        W 8117  28.976  26.893   4.152
41577W        W 8118  34.555  37.797   4.684
41578W        W 8119  37.661  22.099  13.839
41579W        W 8120  18.253   6.005   4.589
41580W        W 8121   6.670  35.155   4.482
41581W        W 8122  24.167   8.208   2.755
41582W        W 8123  30.723  34.069   0.728
41583W        W 8124  27.385  31.571   4.213
41584W        W 8125  14.610  41.569   3.225
41585W        W 8126   0.218  44.479  14.960
41586W        W 8127  16.076  39.606   2.900
41587W        W 8128  20.709  16.957   2.302
41588W        W 8129  27.033  34.886   2.804
41589W        W 8130   9.074  41.122  14.951
41590W        W 8131  11.681  43.916  13.458
41591W        W 8132  44.498  44.948  14.267
41592W        W 8133   9.087  18.657  14.288
41593W        W 8134  20.539  43.292  14.244
41594W        W 8135  22.629  33.449  12.703
41595W        W 8136  39.652   2.730  10.946
41596W        W 8137  27.890   4.406  11.721
41597W        W 8138  41.559   1.716  12.109
41598W        W 8139  26.512  18.643  13.860
41599W        W 8140  34.050  28.148  12.637
41600W        W 8141   1.406  27.621  11.878
41601W        W 8142  25.873  13.074  11.181
41602W        W 8143  44.377   8.883   3.212
41603W        W 8144   3.250  41.765   3.477
41604W        W 8145  18.014  12.311  11.504
41605W        W 8146  25.202  37.450  14.708
41606W        W 8147   2.577  41.524   0.046
41607W        W 8148   0.446   2.935  10.129
41608W        W 8149  37.372  32.010  14.062
41609W        W 8150  22.926   2.891   4.155
41610W        W 8151   8.090  39.903  14.296
41611W        W 8152  24.540   2.035   3.392
41612W        W 8153  27.218   2.309   3.272
41613W        W 8154  41.426  12.148   1.915
41614W        W 8155  25.043   6.059   3.648
41615W        W 8156   2.197  19.139   1.693
41616W        W 8157  12.620   9.192  12.405
41617W        W 8158  15.923  33.567   4.594
41618W        W 8159  23.649  19.428  11.108
41619W        W 8160   7.954  41.744   0.082
41620W        W 8161  20.356  25.557   3.306
41621W        W 8162   7.227  40.635  14.988
41622W        W 8163  25.503   3.202  10.128
41623W        W 8164   2.262  22.776   0.715
41624W        W 8165   6.344  25.555   2.873
41625W        W 8166  27.937  18.804   2.178
41626W        W 8167  15.579  10.333  13.736
41627W        W 8168  30.878   3.865   1.996
41628W        W 8169  38.272  13.808   4.073
41629W        W 8170  34.175  12.883  13.501
41630W        W 8171  31.648  23.019  14.538
41631W        W 8172   6.122  40.110   4.495
41632W        W 8173  17.068  38.270   1.973
41633W        W 8174   1.438  26.986   4.540
41634W        W 8175  41.180  36.891  14.028
41635W        W 8176  33.416  12.802   1.317
41636W        W 8177  20.161  31.060  10.901
41637W        W 8178  25.626  39.798  13.559
41638W        W 8179  40.354   5.002  10.664
41639W        W 8180  44.487  35.172   3.787
41640W        W 8181  28.463   8.751   1.777
41641W        W 8182  20.753   8.399   3.611
41642W        W 8183  39.915  30.189  10.620
41643W        W 8184  29.339  23.959  11.091
41644W        W 8185  26.350  17.474  14.374
41645W        W 8186  36.351  25.205  14.960
41646W        W 8187  25.486   5.079  14.805
41647W        W 8188   4.180  32.410   3.362
41648W        W 8189  18.728  38.323  14.512
41649W        W 8190  40.983  42.922   0.396
41650W        W 8191  41.360  12.279   4.650
41651W        W 8192  23.923  28.793  11.492
41652W        W 8193  21.688  19.667  13.025
41653W        W 8194  37.414  40.525  12.364
41654W        W 8195   8.431   6.012  13.337
41655W        W 8196  25.328  31.616  13.635
41656W        W 8197  11.486  36.517   4.146
41657W        W 8198  25.613  34.975   0.476
41658W        W 8199  33.466  32.254  13.532
41659W        W 8200  27.740  38.645  13.936
41660W        W 8201  27.073  15.871   4.511
41661W        W 8202  20.052   6.408  11.096
41662W        W 8203  15.265  24.196   2.848
41663W        W 8204  42.266  18.634   1.651
41664W        W 8205  21.566  33.951  13.010
41665W        W 8206  21.772  41.592  11.141
41666W        W 8207  32.124   5.457   2.786
41667W        W 8208  36.024  40.326   0.270
41668W        W 8209  37.155  42.808   2.061
41669W        W 8210   7.824  40.287   3.548
41670W        W 8211  42.906  39.759   3.782
41671W        W 8212   9.602  17.920  14.495
41672W        W 8213   7.102   2.812  12.794
41673W        W 8214  26.859  17.369  14.269
41674W        W 8215   5.969  20.620  11.343
41675W        W 8216  23.000  38.098  11.595
41676W        W 8217  21.635  23.665   2.331
41677W        W 8218  16.237   5.376  14.625
41678W        W 8219  10.924   2.976  11.117
41679W        W 8220  34.958   9.715  14.913
41680W        W 8221  36.957  40.545   4.686
41681W        W 8222   5.638  17.711  11.480
41682W        W 8223  12.019  27.670  14.353
41683W        W 8224  30.677  37.424   1.379
41684W        W 8225  28.449  10.889  14.444
41685W        W 8226  36.241  34.576  14.934
41686W        W 8227  25.409  32.943   1.293
41687W        W 8228  17.629  43.823   4.510
41688W        W 8229   9.091  41.635  14.964
41689W        W 8230  38.927  13.723  13.469
41690W        W 8231  12.225  34.178   2.300
41691W        W 8232  38.806  21.766   3.681
41692W        W 8233  43.085   8.807   1.769
41693W        W 8234  41.419  23.857  14.852
41694W        W 8235  20.055  29.214   3.481
41695W        W 8236  24.017   5.805   3.657
41696W        W 8237   5.032  12.608   2.090
41697W        W 8238  20.761   0.219   0.848
41698W        W 8239  37.473  25.981   3.761
41699W        W 8240  19.633  30.390  13.936
41700W        W 8241  17.987  23.674  12.871
41701W        W 8242  22.713  37.891  12.952
41702W        W 8243  24.598  43.340  14.061
41703W        W 8244  37.129  20.968  11.427
41704W        W 8245  42.524  20.144  12.554
41705W        W 8246   5.155  29.972  13.517
41706W        W 8247  42.720   6.199  11.090
41707W        W 8248  10.309  29.879   1.510
41708W        W 8249   1.365  14.688   0.170
41709W        W 8250  10.830  33.930  11.022
41710W        W 8251  18.863  13.423   5.378
41711W        W 8252  21.478   1.530   4.519
41712W        W 8253  38.547  18.067  13.586
41713W        W 8254  31.898  43.261  10.781
41714W        W 8255   1.389   4.854   0.445
41715W        W 8256  40.149   8.971   0.935
41716W        W 8257  40.228  18.117   1.288
41717W        W 8258  24.462  44.906   3.743
41718W        W 8259  33.552  40.309  14.720
41719W        W 8260  32.205  19.266   0.908
41720W        W 8261  34.614  38.368   1.187
41721W        W 8262  20.134   8.647  12.030
41722W        W 8263  26.445  33.976  13.745
41723W        W 8264   0.337  31.200  10.654
41724W        W 8265   1.034  40.993  14.157
41725W        W 8266  38.087  22.518  12.022
41726W        W 8267  20.773   2.755   0.032
41727W        W 8268  22.727   5.809  11.182
41728W        W 8269   8.929   7.983   4.662
41729W        W 8270  23.635   0.441   1.822
41730W        W 8271   9.640  13.650   4.640
41731W        W 8272  36.612  23.951  11.601
41732W        W 8273  19.286  40.806   0.343
41733W        W 8274  18.337  19.304   1.928
41734W        W 8275  42.304   8.212   4.300
41735W        W 8276  16.863  11.308   3.749
41736W        W 8277   9.717  38.475  11.997
41737W        W 8278  31.485  43.469  14.429
41738W        W 8279   7.250  44.660  14.311
41739W        W 8280  41.838   1.456   1.729
41740W        W 8281  30.178  36.151  11.508
41741W        W 8282  31.074  25.613  14.784
41742W        W 8283  23.335   9.710  14.262
41743W        W 8284  10.383  14.177  11.940
41744W        W 8285   1.253  26.165  10.805
41745W        W 8286  43.331  16.743  11.157
41746W        W 8287  39.470   6.774  12.521
41747W        W 8288  30.141  11.911   1.812
41748W        W 8289   0.489  18.681   4.031
41749W        W 8290  16.600   6.499   4.222
41750W        W 8291  42.353  44.234  11.984
41751W        W 8292   0.471  34.268   0.755
41752W        W 8293  29.205  41.331   3.114
41753W        W 8294  17.616  16.529   2.736
41754W        W 8295   6.402  21.580   1.790
41755W        W 8296  26.946  40.013  14.314
41756W        W 8297   9.916   8.208  13.834
41757W        W 8298  39.820   5.372   0.161
41758W        W 8299  20.546  23.265  11.644
41759W        W 8300   4.233   0.885   0.874
41760W        W 8301   8.870   9.633   0.417
41761W        W 8302  26.655   7.463  12.444
41762W        W 8303  28.453  15.099  11.120
41763W        W 8304  43.883  35.824   2.177
41764W        W 8305  10.893   1.791   2.564
41765W        W 8306   7.402   5.852  11.685
41766W        W 8307  29.915  33.897  12.899
41767W        W 8308  15.210  42.833   4.915
41768W        W 8309  13.542  10.776  13.461
41769W        W 8310  36.774   9.070   1.531
41770W        W 8311  23.279  38.985   4.088
41771W        W 8312  34.176  24.517   4.163
41772W        W 8313   7.778   3.893  13.932
41773W        W 8314  13.978  22.812  14.472
41774W        W 8315  25.707  34.901  10.654
41775W        W 8316  12.688  25.959   1.688
41776W        W 8317  11.083  28.710  13.866
41777W        W 8318  42.991  36.911   2.710
41778W        W 8319   7.256  42.757   4.978
41779W        W 8320  31.961  33.822   1.374
41780W        W 8321   0.005  42.602   2.804
41781W        W 8322  18.616  21.329  13.993
41782W        W 8323  44.246   9.869  12.468
41783W        W 8324  35.986  38.802   1.790
41784W        W 8325  28.378  36.105   1.251
41785W        W 8326  30.956  24.452  13.889
41786W        W 8327  32.229  17.911  10.842
41787W        W 8328  39.925  23.695   2.904
41788W        W 8329  31.420  20.850   1.717
41789W        W 8330  37.604  41.985   2.476
41790W        W 8331  25.423  10.797   0.881
41791W        W 8332   0.458  27.129   1.373
41792W        W 8333  27.927  31.988   0.313
41793W        W 8334   0.222  23.917  10.913
41794W        W 8335  24.095   1.836   9.896
41795W        W 8336  15.664  32.325  12.516
41796W        W 8337  24.126  28.014  11.467
41797W        W 8338  34.074  30.167  11.619
41798W        W 8339  35.967  32.593  13.441
41799W        W 8340  30.885  23.043   5.148
41800W        W 8341  30.693  33.548   0.449
41801W        W 8342  42.347   2.301   0.709
41802W        W 8343   0.011   6.716  14.300
41803W        W 8344  27.566  41.190   3.816
41804W        W 8345   0.465  23.536   2.935
41805W        W 8346  41.482  31.353   3.854
41806W        W 8347  21.673  37.775  11.471
41807W        W 8348   9.634  32.070  11.529
41808W        W 8349  29.981   8.023  12.409
41809W        W 8350  27.411  44.745   2.814
41810W        W 8351   3.467  12.296   0.788
41811W        W 8352  18.796  26.623   0.934
41812W        W 8353   2.926  31.393  12.013
41813W        W 8354  29.628   4.320  11.916
41814W        W 8355  41.974  27.884  14.752
41815W        W 8356  32.401  44.669   1.335
41816W        W 8357   7.202   2.889   0.178
41817W        W 8358   0.493   6.436   2.805
41818W        W 8359  34.912  18.013  12.102
41819W        W 8360  43.290  31.496  14.846
41820W        W 8361  21.597  33.438   2.268
41821W        W 8362  22.598  22.570   3.175
41822W        W 8363   3.943  32.684  11.625
41823W        W 8364  19.160  21.430   4.102
41824W        W 8365  21.617  44.711  14.431
41825W        W 8366  39.458  14.525   3.673
41826W        W 8367  11.159  41.869   4.564
41827W        W 8368  44.191  41.475  10.172
41828W        W 8369   9.323   8.633  12.147
41829W        W 8370  14.663  18.749  11.993
41830W        W 8371  44.705   3.720   4.092
41831W        W 8372  17.593  44.764   4.912
41832W        W 8373   8.194  10.748  14.693
41833W        W 8374  41.880   2.021   1.752
41834W        W 8375  16.327  34.932  10.578
41835W        W 8376  18.192  28.745  14.918
41836W        W 8377   3.257  41.753  10.865
41837W        W 8378  10.208   6.298  11.433
41838W        W 8379  19.696  20.970   1.860
41839W        W 8380   6.383   8.871   4.832
41840W        W 8381   9.232  14.643  13.480
41841W        W 8382  44.587  21.739   1.684
41842W        W 8383  29.164  27.135  14.882
41843W        W 8384  15.044  37.311   3.299
41844W        W 8385  22.228   2.778  11.911
41845W        W 8386  11.566  33.701   3.192
41846W        W 8387  18.896  26.196  12.084
41847W        W 8388   6.958   6.362  14.557
41848W        W 8389  35.867  16.313   4.026
41849W        W 8390  34.405  21.744   3.414
41850W        W 8391  29.723   8.636   1.733
41851W        W 8392  25.480  44.977   2.810
41852W        W 8393  37.984  16.646   3.918
41853W        W 8394  34.918  20.762  12.230
41854W        W 8395  28.482  35.410  13.899
41855W        W 8396  17.659   9.669  11.379
41856W        W 8397  18.766  21.077  14.945
41857W        W 8398  44.603  16.227  12.049
41858W        W 8399  41.552  14.686  12.071
41859W        W 8400   0.890  12.258  12.445
41860W        W 8401   0.985  20.130  13.948
41861W        W 8402   0.270  43.393  12.112
41862W        W 8403  18.666  39.526   2.956
41863W        W 8404  29.174  39.432  11.575
41864W        W 8405  30.835  14.541  10.780
41865W        W 8406  29.023  44.403   1.240
41866W        W 8407  18.061  16.169  12.616
41867W        W 8408  19.489  20.996   0.471
41868W        W 8409  34.909  10.435   2.692
41869W        W 8410   1.361   4.309  10.649
41870W        W 8411   6.754   0.314   0.991
41871W        W 8412   5.390  43.702   0.497
41872W        W 8413   4.519  29.338   0.880
41873W        W 8414  30.585   8.186  12.135
41874W        W 8415  22.052   5.344  11.691
41875W        W 8416  10.220  16.029  14.450
41876W        W 8417  42.385  41.335   4.589
41877W        W 8418  23.009  28.105   1.699
41878W        W 8419   4.513  34.689  12.997
41879W        W 8420   4.729   4.251   3.425
41880W        W 8421  44.932  15.110   2.044
41881W        W 8422   9.916  24.065  10.741
41882W        W 8423  22.149   8.631   1.641
41883W        W 8424  18.422  15.345  13.032
41884W        W 8425  22.695  41.375   1.419
41885W        W 8426  23.536   1.807  13.116
41886W        W 8427  33.394  44.800  14.976
41887W        W 8428  41.130  36.804   2.760
41888W        W 8429   9.284  43.092  13.488
41889W        W 8430   3.323  24.556  13.900
41890W        W 8431  12.651  40.031  11.715
41891W        W 8432  15.583  26.542   4.100
41892W        W 8433   4.424  41.986  14.797
41893W        W 8434  43.922  15.759   3.680
41894W        W 8435  13.977   4.319  11.257
41895W        W 8436  19.461  21.637  14.259
41896W        W 8437  30.981  30.661  10.636
41897W        W 8438  17.614  31.462  14.762
41898W        W 8439  21.676  17.312   1.706
41899W        W 8440   9.348  20.667  11.196
41900W        W 8441  26.251  27.822   4.774
41901W        W 8442  32.647   6.650   4.837
41902W        W 8443  44.303   8.103   0.756
41903W        W 8444  16.429  13.606  12.577
41904W        W 8445  17.008   5.932   0.256
41905W        W 8446  44.858  16.694   1.651
41906W        W 8447  26.549  10.050  10.511
41907W        W 8448  15.692  16.954   1.457
41908W        W 8449   6.865  13.620   1.325
41909W        W 8450  44.219  18.161  14.959
41910W        W 8451  13.367  32.922  12.639
41911W        W 8452  32.011  39.637   0.918
41912W        W 8453  30.521   1.970  13.548
41913W        W 8454  20.242   5.693   2.234
41914W        W 8455  14.661  31.392   2.269
41915W        W 8456  30.901   7.186   2.289
41916W        W 8457  34.099  42.280  12.736
41917W        W 8458  41.050   5.837   1.490
41918W        W 8459  43.507  33.566  12.230
41919W        W 8460   9.942  27.029  12.871
41920W        W 8461  18.075  43.357   1.472
41921W        W 8462  24.947   4.434   1.877
41922W        W 8463  31.846  30.355   3.186
41923W        W 8464  44.347  32.063  14.132
41924W        W 8465  42.241  41.466   2.065
41925W        W 8466  33.662   8.666   0.887
41926W        W 8467   4.494  23.993  11.630
41927W        W 8468   7.307  14.028   4.680
41928W        W 8469   7.688  44.963  14.340
41929W        W 8470  14.590   0.805   4.285
41930W        W 8471  21.057   2.477  11.591
41931W        W 8472  41.408  26.340   3.723
41932W        W 8473  40.493  41.539   1.646
41933W        W 8474  29.891  41.102  10.623
41934W        W 8475  19.109  38.860   2.508
41935W        W 8476  27.769  42.271   2.151
41936W        W 8477   4.184  43.573   3.784
41937W        W 8478   6.998  20.586   1.340
41938W        W 8479   1.556  14.460   1.179
41939W        W 8480  17.695  16.174  14.501
41940W        W 8481  22.977  41.596   3.789
41941W        W 8482  21.214  31.842   3.416
41942W        W 8483  25.984  13.244  14.660
41943W        W 8484  22.551  30.335  13.363
41944W        W 8485   4.221   3.832   2.676
41945W        W 8486   8.767  34.884  11.308
41946W        W 8487   3.961  34.042  12.435
41947W        W 8488  38.425  23.768  10.653
41948W        W 8489  37.790  34.551   3.617
41949W        W 8490  10.199  27.154  10.595
41950W        W 8491  36.667   4.133   2.333
41951W        W 8492  22.625   3.922  11.681
41952W        W 8493   2.999  20.639   4.109
41953W        W 8494   4.811  12.051  11.928
41954W        W 8495  19.711  39.677   0.389
41955W        W 8496  12.126  25.089   2.597
41956W        W 8497   3.913   8.306  14.083
41957W        W 8498  38.242   1.714   4.725
41958W        W 8499  28.594  29.967   3.318
41959W        W 8500   3.225  43.485  14.521
41960W        W 8501  11.653  37.552  10.230
41961W        W 8502  24.077   3.921   3.340
41962W        W 8503  19.721  41.353   0.095
41963W        W 8504  43.571  19.760  13.349
41964W        W 8505   5.807   5.430   1.477
41965W        W 8506   7.167  42.454   1.997
41966W        W 8507  19.458  43.935  14.003
41967W        W 8508  12.159   6.532   2.372
41968W        W 8509  42.978  30.440  10.520
41969W        W 8510  33.889  17.063  12.025
41970W        W 8511  44.777  38.548  14.730
41971W        W 8512  23.615   8.600  10.778
41972W        W 8513  20.643  17.357  11.082
41973W        W 8514  35.457  13.202  11.718
41974W        W 8515   4.193  31.024  12.914
41975W        W 8516  41.430  36.346  11.935
41976W        W 8517  16.208  42.535  13.450
41977W        W 8518  12.593   9.154  11.576
41978W        W 8519   6.759  27.514   4.265
41979W        W 8520  22.209   1.973   3.053
41980W        W 8521  44.890   6.338  14.641
41981W        W 8522  24.255  18.616   2.937
41982W        W 8523  22.705   6.336  11.995
41983W        W 8524  13.191  29.504  10.435
41984W        W 8525  21.691  37.481   2.784
41985W        W 8526  23.529  33.836   4.301
41986W        W 8527  35.500  29.048  12.169
41987W        W 8528   3.453  10.304  10.575
41988W        W 8529  29.009  17.093  12.239
41989W        W 8530  36.516  38.405  13.719
41990W        W 8531  10.825  18.266   0.626
41991W        W 8532   7.820   9.683   3.244
41992W        W 8533  31.836  18.960  12.648
41993W        W 8534  28.898  10.388  13.893
41994W        W 8535  15.738  41.715   4.216
41995W        W 8536  43.863  44.995  13.929
41996W        W 8537  22.140  30.620  11.492
41997W        W 8538  11.560  42.680   5.242
41998W        W 8539  33.085  17.605  14.535
41999W        W 8540  24.670  20.964   4.231
42000W        W 8541   4.258  11.821  12.670
42001W        W 8542  32.037  19.681  13.377
42002W        W 8543  41.979  36.269   2.309
42003W        W 8544  36.307  31.481   0.394
42004W        W 8545  16.126  39.357   0.331
42005W        W 8546   8.395  16.761   3.939
42006W        W 8547  17.424  20.054   4.488
42007W        W 8548  36.941  37.112   4.750
42008W        W 8549  19.589  24.642  13.510
42009W        W 8550  25.702  33.031   4.309
42010W        W 8551  22.177  14.661  10.681
42011W        W 8552  33.407  22.977   1.890
42012W        W 8553  13.123  10.549   3.707
42013W        W 8554   9.919  15.156  12.392
42014W        W 8555  24.729  28.576   0.354
42015W        W 8556   4.274   9.885   3.327
42016W        W 8557  25.875  12.852  14.333
42017W        W 8558  39.176  25.635  13.287
42018W        W 8559  41.760   0.767   4.691
42019W        W 8560  36.923   3.634   1.212
42020W        W 8561   7.151  35.016   2.752
42021W        W 8562  38.445  33.052  12.992
42022W        W 8563  19.814   4.417   3.775
42023W        W 8564  23.421  32.620  14.412
42024W        W 8565  33.115  27.905   3.406
42025W        W 8566  42.443  24.072  11.167
42026W        W 8567  20.770  30.183   0.173
42027W        W 8568   9.155  19.669  14.288
42028W        W 8569  35.137  20.252  14.403
42029W        W 8570  21.769  29.949   0.430
42030W        W 8571  12.669   3.433   2.810
42031W        W 8572  42.476   2.223  12.769
42032W        W 8573  21.034  11.862   2.742
42033W        W 8574  10.673  11.842  14.785
42034W        W 8575  20.470  42.021   4.056
42035W        W 8576  42.437   6.683  11.886
42036W        W 8577  16.178  21.330  12.448
42037W        W 8578  28.420  11.735   2.253
42038W        W 8579   5.291  38.557   0.270
42039W        W 8580   6.341  19.729   0.852
42040W        W 8581   8.319  39.490  10.426
42041W        W 8582  23.595   2.933   0.722
42042W        W 8583  30.062  13.698  14.259
42043W        W 8584  26.927   0.382   3.315
42044W        W 8585  43.584   3.917  14.191
42045W        W 8586  37.902  16.070   4.615
42046W        W 8587  26.227   1.375   0.909
42047W        W 8588  10.106  34.877   2.900
42048W        W 8589   2.476  39.773  11.302
42049W        W 8590   6.209  27.505  12.507
42050W        W 8591  38.477   9.935  14.474
42051W        W 8592  10.051  31.703   4.112
42052W        W 8593  19.240  13.818  11.100
42053W        W 8594  18.142  27.494   1.718
42054W        W 8595  17.882  34.417  10.831
42055W        W 8596  34.163   3.720  11.588
42056W        W 8597   5.694   7.809  14.696
42057W        W 8598   8.371  32.035  13.403
42058W        W 8599  15.861  12.272   3.239
42059W        W 8600   0.616  25.002  12.223
42060W        W 8601   2.115  14.218  12.109
42061W        W 8602   9.344  14.837   4.242
42062W        W 8603   2.254  14.515  13.795
42063W        W 8604  38.526  12.856   3.621
42064W        W 8605  27.138  40.300   4.610
42065W        W 8606  32.404   4.093   4.514
42066W        W 8607   8.643  36.526   4.675
42067W        W 8608  42.029  33.812   4.430
42068W        W 8609  15.275  36.603  11.128
42069W        W 8610  39.719  43.563   1.561
42070W        W 8611  40.331   0.431  10.438
42071W        W 8612  33.444  17.218  10.873
42072W        W 8613   7.108  31.584  14.372
42073W        W 8614  35.856  44.866   3.217
42074W        W 8615  24.968  20.709   3.326
42075W        W 8616  19.159   1.649  11.633
42076W        W 8617  37.901  17.733  12.552
42077W        W 8618  31.459  19.297  14.469
42078W        W 8619  28.146  11.136  12.432
42079W        W 8620  25.590  35.467   3.951
42080W        W 8621  27.503  35.299   0.367
42081W        W 8622  35.762   2.430   3.248
42082W        W 8623  22.708   2.386   0.600
42083W        W 8624  41.776  36.448  14.329
42084W        W 8625  26.112  31.346  11.478
42085W        W 8626  36.772  33.447   0.550
42086W        W 8627  13.590  43.720   3.926
42087W        W 8628   9.245   2.504   0.724
42088W        W 8629  39.686   5.808   1.719
42089W        W 8630  42.155   8.759   4.291
42090W        W 8631  29.767  42.827  14.768
42091W        W 8632  31.238  27.685  14.361
42092W        W 8633   2.975  44.002   3.375
42093W        W 8634  22.276  28.892  12.392
42094W        W 8635  42.321   5.425   2.134
42095W        W 8636  42.904  24.468   4.206
42096W        W 8637  14.335  34.301   3.259
42097W        W 8638  35.371  40.925  13.722
42098W        W 8639  30.088  12.438   2.722
42099W        W 8640   5.953  23.829  10.803
42100W        W 8641  12.251  40.282   2.828
42101W        W 8642  29.027  15.360  12.183
42102W        W 8643   6.384  42.884   3.182
42103W        W 8644  15.585   0.760   3.187
42104W        W 8645  26.039  38.276  12.054
42105W        W 8646  14.145  13.932  11.136
42106W        W 8647  44.203   5.037  12.484
42107W        W 8648  27.530  30.353   3.648
42108W        W 8649   2.318   1.276   3.547
42109W        W 8650  18.536  12.796  10.252
42110W        W 8651  42.024  26.205  10.561
42111W        W 8652  17.239  10.495   4.221
42112W        W 8653  42.253  10.843  13.292
42113W        W 8654   3.146  17.295  10.632
42114W        W 8655  19.227   8.891   4.237
42115W        W 8656   5.858  20.257   4.887
42116W        W 8657   0.238  20.689   3.858
42117W        W 8658  28.475  39.945   4.270
42118W        W 8659  44.941   8.599   2.321
42119W        W 8660  23.928   0.791   1.258
42120W        W 8661  43.329   2.146   1.145
42121W        W 8662  21.157  19.103  13.546
42122W        W 8663  23.682  24.756   2.305
42123W        W 8664  14.844  43.885   4.116
42124W        W 8665  33.467  43.128   1.144
42125W        W 8666  33.372   6.229  10.289
42126W        W 8667  40.346  14.172   2.738
42127W        W 8668   0.483   3.297  11.572
42128W        W 8669  37.571  25.126  13.828
42129W        W 8670  18.768  35.363   3.598
42130W        W 8671  22.498  31.992   1.694
42131W        W 8672  41.472  28.547   4.577
42132W        W 8673  36.440  38.375  14.941
42133W        W 8674  15.208  41.888  12.851
42134W        W 8675  10.058  12.100  12.077
42135W        W 8676   5.816  33.644  14.950
42136W        W 8677  14.520  10.790   3.651
42137W        W 8678   0.210  23.979  11.416
42138W        W 8679  14.222  11.230  12.056
42139W        W 8680  39.943  13.676  12.842
42140W        W 8681  30.560  44.898   3.603
42141W        W 8682  35.811  41.580  13.529
42142W        W 8683  30.230  27.845  14.929
42143W        W 8684  33.303  25.062  11.665
42144W        W 8685   3.751   6.078   2.759
42145W        W 8686   8.231  38.413   3.771
42146W        W 8687   0.283  28.018  14.877
42147W        W 8688  23.776  34.492   3.741
42148W        W 8689  44.136  28.174   5.049
42149W        W 8690  31.434  10.868   1.347
42150W        W 8691  18.846   1.405  10.392
42151W        W 8692  31.107   5.750   0.835
42152W        W 8693  43.933   2.319  12.931
42153W        W 8694  36.146  32.915  14.990
42154W        W 8695  10.811  40.941   4.320
42155W        W 8696  21.174  13.896  12.646
42156W        W 8697  22.954  44.923  10.541
42157W        W 8698  21.114  24.622  11.523
42158W        W 8699  13.575  44.329  12.995
42159W        W 8700   2.964  31.515   3.795
42160W        W 8701  27.514  34.107   4.309
42161W        W 8702  19.993  11.279  11.528
42162W        W 8703  38.803  10.235  13.801
42163W        W 8704  42.009  22.194   0.825
42164W        W 8705  27.712  32.085  11.977
42165W        W 8706  13.588  38.857   3.747
42166W        W 8707  18.284  20.062   4.600
42167W        W 8708   5.649  36.850   2.798
42168W        W 8709   7.885   6.708   0.812
42169W        W 8710  12.293  19.669   1.392
42170W        W 8711   6.021  39.823   1.260
42171W        W 8712   1.714  35.596   3.697
42172W        W 8713   1.242  24.124  14.011
42173W        W 8714  21.766   9.901  10.729
42174W        W 8715   0.584   4.413  10.432
42175W        W 8716  42.758   4.240   4.572
42176W        W 8717   3.210  43.773  12.204
42177W        W 8718  18.180  39.299   2.828
42178W        W 8719   7.413  15.456  10.918
42179W        W 8720  22.108  29.698   4.282
42180W        W 8721  43.494  22.368   2.348
42181W        W 8722  17.655   8.243  11.529
42182W        W 8723  42.292  25.940   2.407
42183W        W 8724  13.204  40.602   4.070
42184W        W 8725  18.552  40.793   4.302
42185W        W 8726   0.329  23.060  14.761
42186W        W 8727   3.516   3.487  11.467
42187W        W 8728  24.809  36.185  14.736
42188W        W 8729   5.363  38.007  14.477
42189W        W 8730  17.718  36.306   0.055
42190W        W 8731  31.865  40.911   0.775
42191W        W 8732  26.751  17.776   0.878
42192W        W 8733  29.098  16.188   2.414
42193W        W 8734  25.564  12.357  12.545
42194W        W 8735  15.112  30.912  14.963
42195W        W 8736   0.291  29.237  13.108
42196W        W 8737   5.445  14.695   4.141
42197W        W 8738  41.876   0.930   1.760
42198W        W 8739  13.337   6.609   2.802
42199W        W 8740   2.912  22.115   0.308
42200W        W 8741  24.302  14.197  13.016
42201W        W 8742   0.398  28.048  12.459
42202W        W 8743  15.704  18.954   1.320
42203W        W 8744  30.899  36.840  14.962
42204W        W 8745  16.458   6.150  13.946
42205W        W 8746  33.012  12.088  13.414
42206W        W 8747  18.445  10.583   2.277
42207W        W 8748  42.841  21.614   3.832
42208W        W 8749  18.933  17.091   4.177
42209W        W 8750  36.848  21.017  10.976
42210W        W 8751   0.951  28.711  11.998
42211W        W 8752  34.295  12.847   4.261
42212W        W 8753  12.259   7.029   2.371
42213W        W 8754  12.262   1.342  11.465
42214W        W 8755  20.030  20.760   1.318
42215W        W 8756   6.472   0.716   3.704
42216W        W 8757   5.346  31.162   4.064
42217W        W 8758  35.217  14.629  14.797
42218W        W 8759   0.595  22.627  13.858
42219W        W 8760  20.719  23.226  13.503
42220W        W 8761  27.571   9.166   2.813
42221W        W 8762  18.857  32.481   0.508
42222W        W 8763  16.348  43.100  11.538
42223W        W 8764  36.893  15.271  11.799
42224W        W 8765  32.143  30.949   3.400
42225W        W 8766   1.215  34.962  11.917
42226W        W 8767  18.747  36.959   2.833
42227W        W 8768   7.466   7.216   1.614
42228W        W 8769   7.789   7.322   3.305
42229W        W 8770  34.930  17.124  14.721
42230W        W 8771  15.446  22.977   2.840
42231W        W 8772   6.933  40.962  10.752
42232W        W 8773  18.437  14.549  13.370
42233W        W 8774  28.585  11.809  12.123
42234W        W 8775   2.270  23.273  13.008
42235W        W 8776   5.135  38.547   5.074
42236W        W 8777   1.487  28.650   0.980
42237W        W 8778  23.869  35.365   2.669
42238W        W 8779  42.321  23.565  13.126
42239W        W 8780  41.763  12.408  14.972
42240W        W 8781  37.797  31.190  11.978
42241W        W 8782   9.735   8.469   1.309
42242W        W 8783   7.744  43.701  14.951
42243W        W 8784   1.836  33.855  14.395
42244W        W 8785  22.978   3.409   4.622
42245W        W 8786  16.325  32.396  11.594
42246W        W 8787   8.626  24.750  10.685
42247W        W 8788  12.676  34.851  13.909
42248W        W 8789  27.938  39.198   2.838
42249W        W 8790   3.843  21.471   4.119
42250W        W 8791  19.708  19.505  14.807
42251W        W 8792  24.506  25.098   4.559
42252W        W 8793  43.298   4.965  14.348
42253W        W 8794  23.222  20.695   2.709
42254W        W 8795  38.970  43.773  13.026
42255W        W 8796   2.175  30.635   9.468
42256W        W 8797   8.651  35.580  11.541
42257W        W 8798   4.180  23.046   4.647
42258W        W 8799   3.901   9.998   0.273
42259W        W 8800  26.555  10.175   3.095
42260W        W 8801   8.222  43.478  14.752
42261W        W 8802  39.415  36.480   2.218
42262W        W 8803  13.961  13.158   2.892
42263W        W 8804  36.091  44.939   0.327
42264W        W 8805  26.648   8.128   0.318
42265W        W 8806   6.706  37.537   2.472
42266W        W 8807   4.540   5.842   5.187
42267W        W 8808  37.925  34.971  13.766
42268W        W 8809  28.151  17.134  13.094
42269W        W 8810  31.530  22.419   0.349
42270W        W 8811  40.608   1.410  13.878
42271W        W 8812  30.466  20.292   2.836
42272W        W 8813   7.407  40.053  12.096
42273W        W 8814  37.599  17.624   1.371
42274W        W 8815  42.994  28.432  14.831
42275W        W 8816  31.103  43.857   4.825
42276W        W 8817  21.449  14.574  14.879
42277W        W 8818  37.496  44.448  12.070
42278W        W 8819  38.336   8.780  11.714
42279W        W 8820   4.936   2.829   0.326
42280W        W 8821  33.062  44.218   2.019
42281W        W 8822  10.230   5.725   3.543
42282W        W 8823   1.715  21.612  13.474
42283W        W 8824   7.628  32.161  10.668
42284W        W 8825  33.520   9.134   0.340
42285W        W 8826  29.197  40.776  11.090
42286W        W 8827   8.671   0.150   3.742
42287W        W 8828  26.860   4.185   3.332
42288W        W 8829   3.514  32.642  14.996
42289W        W 8830   6.886  22.605  14.296
42290W        W 8831  14.287  31.203  12.628
42291W        W 8832  41.895  40.394  11.154
42292W        W 8833  39.597  16.702  10.399
42293W        W 8834  40.498  17.543   4.146
42294W        W 8835  44.874  26.726   3.718
42295W        W 8836   7.435  33.709  13.727
42296W        W 8837  34.878  21.162   4.502
42297W        W 8838  24.842  29.883  13.912
42298W        W 8839  10.595  29.916   2.808
42299W        W 8840  37.955   8.971  10.544
42300W        W 8841  33.046  22.396  12.783
42301W        W 8842  35.821  42.322   1.218
42302W        W 8843  23.493  22.581  14.474
42303W        W 8844  28.814   8.809  10.650
42304W        W 8845  11.710   8.714  13.467
42305W        W 8846  14.751   2.248  11.449
42306W        W 8847  24.389  23.659  12.480
42307W        W 8848  34.938  16.338   3.613
42308W        W 8849  44.480  31.698  12.099
42309W        W 8850  15.129   6.140   3.255
42310W        W 8851  17.634  36.729  11.440
42311W        W 8852  31.034  24.524  14.804
42312W        W 8853  19.327  42.497  13.828
42313W        W 8854  41.328  42.454   2.163
42314W        W 8855  13.926   7.910   1.455
42315W        W 8856  31.612  28.773  11.489
42316W        W 8857   0.254  28.243  14.398
42317W        W 8858   9.390  12.136  13.427
42318W        W 8859   3.501  10.614  13.405
42319W        W 8860   7.674  41.521  11.581
42320W        W 8861  18.747  22.520   0.816
42321W        W 8862  35.789   0.787  11.016
42322W        W 8863  32.045   1.699   1.797
42323W        W 8864  38.843  34.090   1.913
42324W        W 8865   6.778  19.831  11.943
42325W        W 8866  38.351  28.035   4.586
42326W        W 8867  27.329  14.136  14.678
42327W        W 8868   2.446  28.739  14.361
42328W        W 8869  17.167   9.351  11.651
42329W        W 8870  33.480  22.226   2.285
42330W        W 8871  40.208   1.855   0.915
42331W        W 8872  37.372  35.612  11.041
42332W        W 8873   9.750  28.925  14.742
42333W        W 8874  33.529  25.182  14.327
42334W        W 8875  43.019  34.425   1.786
42335W        W 8876  14.238  17.379   2.258
42336W        W 8877  18.259  36.071   2.259
42337W        W 8878  26.485   3.962  12.454
42338W        W 8879  14.172   6.003   4.879
42339W        W 8880  33.660  21.436   0.980
42340W        W 8881  15.972   7.953  14.938
42341W        W 8882  22.537  28.917  10.692
42342W        W 8883  37.322   8.822   0.466
42343W        W 8884   0.879  28.671   4.309
42344W        W 8885  32.173  29.246  11.964
42345W        W 8886   4.194  34.189   3.847
42346W        W 8887   8.230  11.598  13.852
42347W        W 8888  31.421  41.573   4.204
42348W        W 8889  31.108  39.931   0.006
42349W        W 8890   7.249  17.976   4.855
42350W        W 8891   5.588  26.509  13.615
42351W        W 8892  20.590   0.411  14.307
42352W        W 8893  11.243  41.890  11.237
42353W        W 8894  22.323   4.380  11.923
42354W        W 8895   4.173  35.604   1.649
42355W        W 8896  17.634   2.190   2.751
42356W        W 8897  14.597  15.124   2.836
42357W        W 8898  16.835  23.767   3.107
42358W        W 8899  18.770  13.218   0.715
42359W        W 8900  34.880  40.805  13.998
42360W        W 8901  17.694  38.407   0.654
42361W        W 8902  40.480  30.904  10.744
42362W        W 8903  19.418  11.778   4.193
42363W        W 8904   0.329  26.130  14.869
42364W        W 8905  28.660  27.471   2.714
42365W        W 8906   5.627  30.798   4.702
42366W        W 8907   4.054  22.794  11.018
42367W        W 8908  21.606  33.351   2.823
42368W        W 8909  38.572  28.184   2.811
42369W        W 8910  14.598  44.264  12.104
42370W        W 8911  22.585  25.715  14.501
42371W        W 8912  19.333  14.335   4.874
42372W        W 8913   6.641  33.036   1.275
42373W        W 8914  13.761  27.912   1.089
42374W        W 8915  13.742  20.564  11.633
42375W        W 8916   5.169  39.587   2.222
42376W        W 8917  43.363  21.958   3.220
42377W        W 8918  17.183  43.895  11.261
42378W        W 8919   7.773  38.808   0.954
42379W        W 8920   1.340  40.373  11.553
42380W        W 8921   7.638  32.523  13.468
42381W        W 8922  17.610   5.749  13.870
42382W        W 8923  27.191  32.938   2.329
42383W        W 8924  26.144  22.060   1.810
42384W        W 8925   8.034  12.107  14.166
42385W        W 8926  40.147  21.704   2.689
42386W        W 8927  24.559  40.005  12.105
42387W        W 8928  12.713  40.155  12.190
42388W        W 8929  18.314  13.743  11.964
42389W        W 8930  15.519  41.445   1.153
42390W        W 8931  43.443  31.178  12.435
42391W        W 8932  44.916  10.458   3.729
42392W        W 8933   5.171  11.612  14.093
42393W        W 8934  20.714  34.580  13.466
42394W        W 8935   8.757   5.964   2.757
42395W        W 8936  13.212  44.064   4.049
42396W        W 8937  34.411  22.649  12.063
42397W        W 8938  42.986  25.772  10.646
42398W        W 8939  25.718   2.912  12.389
42399W        W 8940   0.799   0.457  12.566
42400W        W 8941  12.236  19.653   4.322
42401W        W 8942  11.103  37.462   2.311
42402W        W 8943  11.758  10.425   2.842
42403W        W 8944  26.891   1.801  14.392
42404W        W 8945  37.033  42.420  13.747
42405W        W 8946   6.793  17.131   4.057
42406W        W 8947   4.357  14.886   2.463
42407W        W 8948  41.473  32.932   4.530
42408W        W 8949  22.144  26.062   3.264
42409W        W 8950  26.637  39.438  10.620
42410W        W 8951   3.278  41.784   1.405
42411W        W 8952  15.285  41.953  13.924
42412W        W 8953  16.511  12.761  10.137
42413W        W 8954  25.212  28.271  11.120
42414W        W 8955  23.046  36.380   0.894
42415W        W 8956  22.803  19.639   2.287
42416W        W 8957   0.268  13.154   1.486
42417W        W 8958  28.133   9.079   3.187
42418W        W 8959  38.490   6.779   2.090
42419W        W 8960   9.039  33.954   3.156
42420W        W 8961  20.151  14.477  11.485
42421W        W 8962  35.860  14.426  12.730
42422W        W 8963  26.558   9.696  12.034
42423W        W 8964  18.264  26.190  12.094
42424W        W 8965   0.887   3.197  10.908
42425W        W 8966  40.665  12.358   3.063
42426W        W 8967  21.694   9.040  12.489
42427W        W 8968  30.365  28.648   2.733
42428W        W 8969  26.124  32.386  14.441
42429W        W 8970  34.002  18.628   2.827
42430W        W 8971  23.201  27.647   0.782
42431W        W 8972  15.830  10.858   2.754
42432W        W 8973  26.946   8.739  12.004
42433W        W 8974   7.104  37.378  12.056
42434W        W 8975   4.819   3.479  11.721
42435W        W 8976  12.114  39.864   0.508
42436W        W 8977   0.159  23.163   3.151
42437W        W 8978  32.305  15.135  12.189
42438W        W 8979  28.056  37.340   4.090
42439W        W 8980  33.883  41.670   0.084
42440W        W 8981   9.246  34.120   3.606
42441W        W 8982  16.368  13.209   4.023
42442W        W 8983  21.284  38.117   0.873
42443W        W 8984  41.533   1.248  12.412
42444W        W 8985  28.609  26.470  13.768
42445W        W 8986   2.595  33.639  14.786
42446W        W 8987  29.621   8.970   2.216
42447W        W 8988   2.848  22.210  13.182
42448W        W 8989  21.449  27.438   2.345
42449W        W 8990  15.031  36.789   3.264
42450W        W 8991  30.480   9.738   4.549
42451W        W 8992  21.205   2.775  12.036
42452W        W 8993  29.425  44.210  14.900
42453W        W 8994  29.612  21.451   0.851
42454W        W 8995   4.874  29.667  13.151
42455W        W 8996  31.405   6.925  14.876
42456W        W 8997   6.255  21.427  13.748
42457W        W 8998   4.343  23.757  13.861
42458W        W 8999  34.049  17.562  14.424
42459W        W 9000  13.745  21.983  12.862
42460W        W 9001  31.437  11.445  14.006
42461W        W 9002  22.986  42.864   0.104
42462W        W 9003  25.258  16.943   1.368
42463W        W 9004  42.327   5.698  13.498
42464W        W 9005  34.995  30.488   0.810
42465W        W 9006  23.520  41.215  11.939
42466W        W 9007  32.822  35.785   0.266
42467W        W 9008  27.856  21.536   0.647
42468W        W 9009  17.057  44.273   1.235
42469W        W 9010  36.545  14.083   1.642
42470W        W 9011  22.373  42.470   3.615
42471W        W 9012  34.268  41.992   3.351
42472W        W 9013  29.633  11.792   1.808
42473W        W 9014  29.100   6.300   3.544
42474W        W 9015  27.682  32.091  14.379
42475W        W 9016  26.758  19.421  14.658
42476W        W 9017  40.978   2.279   0.766
42477W        W 9018   4.550  32.474  11.007
42478W        W 9019  29.196  14.029  13.450
42479W        W 9020  21.728  21.742  11.132
42480W        W 9021  11.427   0.942  11.031
42481W        W 9022  45.000  41.451  12.451
42482W        W 9023   5.338  16.896   4.611
42483W        W 9024  39.870  12.695  14.424
42484W        W 9025  24.969   0.991  13.907
42485W        W 9026  35.451  43.503  13.448
42486W        W 9027  16.602  32.681   0.496
42487W        W 9028  39.853  33.340   1.844
42488W        W 9029  12.132  12.975   4.405
42489W        W 9030  24.608  34.439  14.263
42490W        W 9031  44.414  28.856   2.657
42491W        W 9032  37.838   2.154  14.959
42492W        W 9033   3.440   0.934  12.879
42493W        W 9034  28.145  23.942  14.911
42494W        W 9035  18.978  32.539   1.028
42495W        W 9036  10.703  25.059  12.147
42496W        W 9037   2.849  25.571   0.672
42497W        W 9038  26.376  33.650   3.133
42498W        W 9039  34.352  41.767  12.634
42499W        W 9040  29.045  30.084   4.561
42500W        W 9041   1.269   7.205  14.053
42501W        W 9042  29.456  24.217   4.201
42502W        W 9043  35.479  27.923   2.269
42503W        W 9044  10.032  30.440  13.272
42504W        W 9045   0.659  41.122  13.762
42505W        W 9046  15.205   4.422   4.068
42506W        W 9047   4.777  44.258   1.231
42507W        W 9048  43.591  27.066   4.510
42508W        W 9049  35.211  12.430  11.102
42509W        W 9050  30.925  43.358   1.982
42510W        W 9051   4.905  32.553   2.710
42511W        W 9052  20.551  33.951   0.232
42512W        W 9053  24.668  35.394  14.015
42513W        W 9054  30.652  24.637   3.836
42514W        W 9055   7.211  12.310  12.644
42515W        W 9056  27.141   5.372   0.224
42516W        W 9057   1.829  44.117   2.377
42517W        W 9058  40.308  28.155   2.331
42518W        W 9059   2.509  38.872   0.940
42519W        W 9060  28.881  21.407   0.387
42520W        W 9061   1.994   1.754  11.629
42521W        W 9062  15.549  23.984  11.140
42522W        W 9063  10.321  10.304  14.025
42523W        W 9064  17.161  31.256  11.993
42524W        W 9065   6.494  36.109  12.867
42525W        W 9066  18.724  12.815  12.077
42526W        W 9067  23.025  32.444   4.862
42527W        W 9068  18.671   1.673  12.510
42528W        W 9069  20.958   0.589  13.095
42529W        W 9070  32.558   3.053   2.889
42530W        W 9071  29.667  11.097  14.386
42531W        W 9072   0.837  39.467  12.380
42532W        W 9073   3.805  20.600   4.648
42533W        W 9074  38.039  21.601   0.445
42534W        W 9075  34.587   6.708   2.168
42535W        W 9076   4.855  38.908   4.838
42536W        W 9077  22.143  32.897   3.122
42537W        W 9078  39.360  37.280   2.175
42538W        W 9079   6.545  31.999   0.925
42539W        W 9080  12.046   6.032  11.060
42540W        W 9081  23.055  27.134  10.713
42541W        W 9082  29.976  11.604   0.725
42542W        W 9083  22.967  37.898  10.574
42543W        W 9084  29.415  29.463  10.802
42544W        W 9085  43.710   5.188   1.937
42545W        W 9086  37.394  43.941  10.639
42546W        W 9087  44.427  12.846  10.819
42547W        W 9088  38.868   9.317  13.527
42548W        W 9089  32.611  25.491  14.959
42549W        W 9090  17.198  25.409   1.785
42550W        W 9091   3.661  22.609  12.858
42551W        W 9092  19.614  20.015   2.200
42552W        W 9093  31.470  24.993   1.361
42553W        W 9094  28.977  35.543   4.780
42554W        W 9095  18.622  40.452  14.413
42555W        W 9096  30.128   0.509   0.883
42556W        W 9097  44.165  37.329   2.279
42557W        W 9098  15.077   5.016   0.660
42558W        W 9099  17.242   9.677  12.083
42559W        W 9100  35.318  25.098   0.009
42560W        W 9101  17.853  26.525   3.499
42561W        W 9102  29.676  35.997   3.255
42562W        W 9103  23.604  10.617   1.869
42563W        W 9104   4.527  41.612   0.621
42564W        W 9105   0.872  28.319  12.334
42565W        W 9106  34.622  44.882   3.697
42566W        W 9107  40.856  16.813  11.870
42567W        W 9108  11.612  43.884   0.390
42568W        W 9109  13.596  34.814  11.192
42569W        W 9110  41.533  44.403   0.776
42570W        W 9111  14.287  28.474  13.863
42571W        W 9112  44.316  30.519  11.130
42572W        W 9113  39.514   4.374   0.994
42573W        W 9114  32.441  23.048   1.700
42574W        W 9115  17.229  17.075   0.332
42575W        W 9116  14.525  36.110  11.888
42576W        W 9117  23.572  30.870   0.792
42577W        W 9118  13.741  16.301   2.752
42578W        W 9119  16.857  29.120  14.416
42579W        W 9120  27.192  39.726  13.213
42580W        W 9121  19.787   2.375  13.425
42581W        W 9122  16.791  15.867   2.374
42582W        W 9123  10.092   9.945  11.278
42583W        W 9124   2.014   0.888  13.916
42584W        W 9125   4.733  11.188  11.503
42585W        W 9126  19.495  30.014  11.254
42586W        W 9127   1.683  21.108  14.274
42587W        W 9128  42.856  19.233   1.577
42588W        W 9129  35.354  26.657   3.760
42589W        W 9130  25.052  25.378  12.218
42590W        W 9131  13.137  40.801  11.237
42591W        W 9132   3.291  27.016  12.043
42592W        W 9133  33.805   4.633  13.462
42593W        W 9134   4.438  18.680  12.908
42594W        W 9135  33.834   0.400  10.724
42595W        W 9136   5.747  23.752   3.645
42596W        W 9137   4.655  41.375  13.854
42597W        W 9138  43.266  32.337   0.794
42598W        W 9139  25.525   4.435   4.004
42599W        W 9140  41.080  21.608   2.537
42600W        W 9141   3.376  44.243  12.090
42601W        W 9142  18.739   3.915   3.242
42602W        W 9143   5.454  42.951  11.594
42603W        W 9144  34.989  39.331  14.883
42604W        W 9145  24.910  34.015  14.483
42605W        W 9146   4.023  41.295  11.231
42606W        W 9147  14.694  25.256   0.848
42607W        W 9148   6.217  33.110  11.065
42608W        W 9149   7.479  16.317  13.102
42609W        W 9150   5.715   2.387   2.908
42610W        W 9151  36.563  28.573  14.967
42611W        W 9152   9.919  28.009  11.061
42612W        W 9153  23.595  26.073  11.441
42613W        W 9154  23.697  33.627   3.850
42614W        W 9155  43.562  23.082  10.625
42615W        W 9156  35.913  12.457   1.226
42616W        W 9157   2.016  25.418  12.900
42617W        W 9158  22.949  27.576  11.497
42618W        W 9159  30.784  24.747  12.730
42619W        W 9160   4.829  17.070   4.781
42620W        W 9161   0.258  25.540  12.081
42621W        W 9162  18.994  21.284  11.707
42622W        W 9163   9.232   5.899  13.500
42623W        W 9164  19.261  41.272   2.730
42624W        W 9165  23.202  22.201  11.640
42625W        W 9166   1.791  26.547   4.573
42626W        W 9167  25.974  15.636   0.814
42627W        W 9168  30.546  24.244  11.294
42628W        W 9169  23.509  39.506  14.294
42629W        W 9170  20.045  27.099   2.410
42630W        W 9171  19.049  24.481  11.151
42631W        W 9172  17.321  26.388  14.184
42632W        W 9173   8.736  22.582   4.547
42633W        W 9174  31.606  10.773  13.290
42634W        W 9175  30.987   1.880   1.985
42635W        W 9176  17.193   9.566   0.794
42636W        W 9177  31.903  18.820   0.824
42637W        W 9178  28.956  44.375  11.103
42638W        W 9179  31.339  20.623   0.427
42639W        W 9180  39.981  11.803  11.538
42640W        W 9181  35.055  18.466   0.888
42641W        W 9182  44.243  38.600   0.456
42642W        W 9183  27.969  11.390  13.751
42643W        W 9184  10.161   5.244   3.306
42644W        W 9185  18.039   4.463   4.590
42645W        W 9186  35.987  32.537   0.773
42646W        W 9187  31.998  23.301   1.707
42647W        W 9188  11.590  44.376   4.445
42648W        W 9189  24.695  41.794  12.151
42649W        W 9190  16.506  18.922   1.694
42650W        W 9191  12.578   9.592  12.811
42651W        W 9192  16.130  13.244   3.108
42652W        W 9193  37.915  19.538  13.329
42653W        W 9194  18.744  38.662  11.387
42654W        W 9195  24.606  12.908   0.443
42655W        W 9196  19.750  33.920  12.516
42656W        W 9197   2.526  43.931   3.641
42657W        W 9198  32.374  29.937   0.507
42658W        W 9199  42.469  20.512   1.264
42659W        W 9200  25.029  21.108   4.633
42660W        W 9201  41.504  26.536   2.324
42661W        W 9202  43.539   7.172  10.562
42662W        W 9203  36.648  17.412   3.342
42663W        W 9204  22.517  19.479   2.709
42664W        W 9205   6.844  11.259  14.901
42665W        W 9206  34.574  44.203  14.115
42666W        W 9207  15.247  11.606   2.853
42667W        W 9208  17.892  39.881   1.508
42668W        W 9209  31.698  22.832  12.347
42669W        W 9210  38.045  12.310   3.463
42670W        W 9211  27.898  27.962   0.079
42671W        W 9212  35.568  44.934   0.255
42672W        W 9213  31.396  15.052  13.331
42673W        W 9214  30.599  35.900   4.393
42674W        W 9215  41.099  37.974   1.768
42675W        W 9216  27.132  26.463   1.307
42676W        W 9217   4.739  10.836   0.921
42677W        W 9218  28.866  40.329   1.339
42678W        W 9219  37.013  14.084   0.851
42679W        W 9220  26.021  12.400   3.236
42680W        W 9221  11.285   3.477   4.808
42681W        W 9222   3.296  39.283   1.041
42682W        W 9223  42.435  22.033  11.615
42683W        W 9224   7.837  10.943   2.243
42684W        W 9225  15.353  41.582   3.875
42685W        W 9226  14.376  41.892   5.020
42686W        W 9227   4.184  16.333   4.375
42687W        W 9228  34.550  20.715  13.544
42688W        W 9229  37.414   6.006   2.244
42689W        W 9230   7.257  25.781   3.662
42690W        W 9231   8.985  36.724  11.516
42691W        W 9232  10.883  41.613  10.367
42692W        W 9233   0.429  11.608  14.365
42693W        W 9234   5.639  15.359   3.194
42694W        W 9235  37.401  10.797  11.724
42695W        W 9236  37.940  38.814  13.842
42696W        W 9237  21.554  30.121   2.333
42697W        W 9238  30.954  42.771  12.414
42698W        W 9239   5.702  35.493  14.433
42699W        W 9240  17.500  25.059   3.618
42700W        W 9241  41.047  22.041   1.612
42701W        W 9242  38.178   2.683   3.730
42702W        W 9243   1.375  37.444   1.112
42703W        W 9244   9.974   2.877   3.565
42704W        W 9245  26.905  30.481  12.636
42705W        W 9246  15.039  22.113   4.351
42706W        W 9247  17.151   8.710  12.067
42707W        W 9248  31.952   2.956   1.496
42708W        W 9249  39.881  18.199  12.021
42709W        W 9250   5.607  42.697   0.807
42710W        W 9251  28.214  29.129   2.350
42711W        W 9252   1.925   4.362   0.680
42712W        W 9253  44.397   0.905  11.716
42713W        W 9254  26.245  33.413  11.561
42714W        W 9255  22.651  29.425   2.751
42715W        W 9256  15.181  20.835  11.558
42716W        W 9257   8.691  34.034  11.894
42717W        W 9258  41.030  34.650  12.065
42718W        W 9259  42.520  18.070   3.880
42719W        W 9260  33.371  27.461  11.363
42720W        W 9261  35.145  18.129  14.794
42721W        W 9262   0.944  23.753   2.782
42722W        W 9263  28.245  32.502   0.620
42723W        W 9264   0.162  29.046   1.456
42724W        W 9265  12.342  20.834  11.471
42725W        W 9266  30.493  35.521   3.270
42726W        W 9267   6.068  32.550  11.111
42727W        W 9268  33.063  26.946   0.366
42728W        W 9269  21.009  10.639   2.880
42729W        W 9270  13.194  26.016  12.391
42730W        W 9271  33.317  37.057   4.318
42731W        W 9272  40.881  15.327   1.461
42732W        W 9273   8.227  41.683  13.269
42733W        W 9274  12.519  28.806  11.386
42734W        W 9275  27.559   6.968   4.770
42735W        W 9276  38.388  13.815   2.719
42736W        W 9277   5.789  29.162  10.968
42737W        W 9278  29.363  24.578   2.697
42738W        W 9279   0.729   6.203   3.186
42739W        W 9280  21.050   1.746  12.146
42740W        W 9281  25.365  25.414   2.141
42741W        W 9282  40.521   2.927  10.732
42742W        W 9283  22.989  24.792   2.901
42743W        W 9284  35.998  38.048   0.663
42744W        W 9285  44.844   4.871   2.230
42745W        W 9286  11.280  26.565  11.209
42746W        W 9287  23.663  24.247  12.522
42747W        W 9288  24.413  25.621   0.456
42748W        W 9289   7.383   3.230  10.039
42749W        W 9290  28.528  28.871   4.878
42750W        W 9291   3.551  21.495  12.098
42751W        W 9292  41.295   7.257  12.497
42752W        W 9293  15.200   8.306  10.931
42753W        W 9294   6.993  31.126   0.300
42754W        W 9295  25.067  17.324   3.574
42755W        W 9296  30.372   4.785  13.893
42756W        W 9297   2.197  25.956  11.016
42757W        W 9298  29.489  28.609   1.379
42758W        W 9299  35.469  36.942   4.570
42759W        W 9300  18.740  40.122   3.708
42760W        W 9301  29.149   6.451  12.022
42761W        W 9302  16.187  43.291   1.477
42762W        W 9303  22.000  37.288   3.750
42763W        W 9304  16.788  35.921  10.707
42764W        W 9305  24.649  37.996   4.208
42765W        W 9306  14.737  39.034  13.087
42766W        W 9307  20.052   7.720   4.611
42767W        W 9308   6.677   5.145   2.397
42768W        W 9309  19.125  12.770   2.238
42769W        W 9310  40.710  10.694  10.208
42770W        W 9311  32.464  15.589  10.746
42771W        W 9312  23.596  26.651   5.123
42772W        W 9313   3.258  10.734   3.321
42773W        W 9314  40.812  28.940  11.839
42774W        W 9315  29.265  33.584   3.637
42775W        W 9316   4.873  37.888   2.174
42776W        W 9317   4.263  13.712  14.687
42777W        W 9318  11.696  36.389  13.769
42778W        W 9319   5.193  19.269   4.652
42779W        W 9320   6.082  42.344   4.126
42780W        W 9321  17.636   3.215   1.921
42781W        W 9322  10.766  38.884  13.737
42782W        W 9323  12.360   1.257   1.785
42783W        W 9324  18.065  26.507   0.330
42784W        W 9325  44.343  31.643   2.350
42785W        W 9326  43.081  39.617  14.341
42786W        W 9327  12.635  43.975  10.651
42787W        W 9328  15.066   5.336   4.580
42788W        W 9329  23.880  44.705  11.024
42789W        W 9330  15.851  36.927   3.772
42790W        W 9331  37.984  13.374   4.168
42791W        W 9332  41.483  31.943  14.875
42792W        W 9333  33.495  26.171  13.711
42793W        W 9334  44.437  18.190   3.187
42794W        W 9335  42.065   8.785   2.433
42795W        W 9336   0.467   9.379   3.199
42796W        W 9337   0.222   2.378   1.618
42797W        W 9338  33.705  39.021   2.874
42798W        W 9339   4.702  32.538   2.219
42799W        W 9340  19.102   1.356   4.879
42800W        W 9341  12.639  30.469  13.030
42801W        W 9342   8.388  23.579   4.695
42802W        W 9343  14.607  34.993  14.218
42803W        W 9344  42.067  14.880   1.329
42804W        W 9345  25.758  41.300  14.632
42805W        W 9346  43.032  31.887   2.559
42806W        W 9347  36.582  18.356   3.874
42807W        W 9348  34.030   1.985   2.905
42808W        W 9349  35.454  27.697  12.820
42809W        W 9350  12.069  19.820   0.962
42810W        W 9351  23.986  28.309  13.290
42811W        W 9352  38.522  38.986  11.511
42812W        W 9353   4.741   0.751  11.995
42813W        W 9354  34.579  39.013   3.943
42814W        W 9355  32.663  14.213  11.991
42815W        W 9356  32.970  11.718  10.635
42816W        W 9357  36.162  34.046  13.847
42817W        W 9358  29.985   4.985  12.867
42818W        W 9359   9.479  10.041   0.866
42819W        W 9360   5.042  12.105   1.248
42820W        W 9361  39.379   3.276   0.796
42821W        W 9362  36.493   8.430  11.428
42822W        W 9363  21.095  31.274   4.215
42823W        W 9364  36.665  10.108  14.265
42824W        W 9365  27.126  41.619   4.994
42825W        W 9366  28.166  17.843   0.930
42826W        W 9367  29.878   1.064  11.734
42827W        W 9368  35.890  12.265   4.231
42828W        W 9369  43.471  13.421   4.549
42829W        W 9370  35.901  16.186   3.537
42830W        W 9371  16.142  16.944  10.114
42831W        W 9372  19.046   3.937   2.696
42832W        W 9373  21.073  43.300   4.696
42833W        W 9374  42.871  13.846  10.645
42834W        W 9375  34.457  26.964   0.999
42835W        W 9376   4.862   5.229  14.002
42836W        W 9377  21.236   3.921   3.765
42837W        W 9378  26.209  12.327   4.629
42838W        W 9379  43.905   9.038  13.583
42839W        W 9380  28.932  10.749   4.648
42840W        W 9381   1.917  34.292  10.279
42841W        W 9382  35.872  29.865   0.766
42842W        W 9383  10.659  11.416   4.144
42843W        W 9384   0.540  22.323   3.672
42844W        W 9385  42.987  28.496   2.684
42845W        W 9386   2.418  19.595   3.704
42846W        W 9387  23.626   9.381  10.172
42847W        W 9388  15.288  44.844  12.105
42848W        W 9389  34.103   2.936   1.397
42849W        W 9390   6.615  12.868   4.290
42850W        W 9391  19.201  22.226   4.494
42851W        W 9392   2.083  25.301   4.399
42852W        W 9393  28.161   1.062  11.410
42853W        W 9394  15.641   6.570   5.135
42854W        W 9395  29.657   2.200   1.428
42855W        W 9396  31.943  11.241   0.766
42856W        W 9397  41.030   6.014   4.181
42857W        W 9398  11.275  28.931   2.263
42858W        W 9399  42.015   1.192   0.366
42859W        W 9400  34.292  33.606   1.281
42860W        W 9401   7.985   5.723   2.357
42861W        W 9402  39.901  28.605  10.648
42862W        W 9403   9.108  35.619  13.384
42863W        W 9404  13.604  35.382  12.350
42864W        W 9405  29.978  34.335  14.701
42865W        W 9406  38.900  33.649   2.639
42866W        W 9407   7.383  23.960  11.459
42867W        W 9408   9.278  35.449  12.932
42868W        W 9409  20.967  36.029   2.219
42869W        W 9410  38.628  21.573  14.368
42870W        W 9411   0.215  19.732  13.754
42871W        W 9412  17.097  10.452  10.979
42872W        W 9413   2.794  20.840  13.089
42873W        W 9414  38.584   3.136  11.514
42874W        W 9415  11.375  30.691  13.939
42875W        W 9416  43.384  41.263  12.394
42876W        W 9417  34.012  36.953   3.759
42877W        W 9418  41.009  41.413   4.899
42878W        W 9419  18.836  25.013   4.133
42879W        W 9420  37.531  37.184  13.795
42880W        W 9421  17.294  38.957   4.089
42881W        W 9422  19.192  18.212   1.895
42882W        W 9423  40.143   9.206  14.082
42883W        W 9424  41.287  20.840   2.350
42884W        W 9425  35.901  16.223   2.756
42885W        W 9426  20.792   9.642   0.398
42886W        W 9427   1.691  26.430   3.654
42887W        W 9428  35.983  43.618   1.837
42888W        W 9429  40.582   3.418   4.646
42889W        W 9430  33.803  21.085  12.631
42890W        W 9431  28.672  32.011   4.427
42891W        W 9432  11.233  38.012   0.831
42892W        W 9433  22.068  43.464   4.522
42893W        W 9434   3.249  39.406  10.563
42894W        W 9435   1.906  14.791   1.388
42895W        W 9436   1.876   4.940  12.993
42896W        W 9437  33.020  12.434   0.958
42897W        W 9438  15.662   8.690  14.960
42898W        W 9439  35.249  34.880   4.189
42899W        W 9440   0.415  44.420  10.697
42900W        W 9441  36.017  13.299  11.100
42901W        W 9442   7.329  41.677   1.780
42902W        W 9443  32.498  30.187   3.096
42903W        W 9444  37.283  30.149   2.807
42904W        W 9445  12.795   1.892   1.902
42905W        W 9446  22.933  32.579   3.778
42906W        W 9447   6.296  13.207   4.502
42907W        W 9448  43.050  21.257   4.846
42908W        W 9449   1.799  19.091  13.167
42909W        W 9450  34.557  13.200  13.311
42910W        W 9451  32.981  19.122  14.345
42911W        W 9452  21.985  34.814  13.229
42912W        W 9453   0.899  13.020   0.266
42913W        W 9454  43.474  18.998   0.515
42914W        W 9455  17.823   4.024  12.709
42915W        W 9456  38.005  24.894   1.682
42916W        W 9457  40.987  27.572   4.236
42917W        W 9458   5.744  30.658  14.020
42918W        W 9459  39.479  20.079   4.178
42919W        W 9460  12.565  19.720  11.842
42920W        W 9461  12.289  24.493   0.832
42921W        W 9462  16.723  12.513   2.909
42922W        W 9463  25.671   0.737   3.473
42923W        W 9464  10.847  23.225   1.342
42924W        W 9465  33.347  14.685  13.116
42925W        W 9466  17.028  40.340  11.444
42926W        W 9467   2.710   5.262   3.310
42927W        W 9468  30.612  30.585  13.571
42928W        W 9469  31.029   8.854  10.758
42929W        W 9470  16.675  30.703  11.592
42930W        W 9471   2.722  44.485   1.423
42931W        W 9472  31.755  28.944  11.947
42932W        W 9473  43.821  41.152  14.595
42933W        W 9474   2.770  13.036   1.650
42934W        W 9475   2.298  13.896   4.104
42935W        W 9476  24.526   4.461  14.267
42936W        W 9477  33.079   3.279  13.714
42937W        W 9478   4.451  33.908  11.644
42938W        W 9479  36.289  18.844   2.851
42939W        W 9480  25.480   2.003  12.517
42940W        W 9481  34.946  12.752  14.673
42941W        W 9482  33.594  37.619   5.035
42942W        W 9483  40.013  28.420  11.107
42943W        W 9484  19.875  39.040   1.856
42944W        W 9485  38.840  36.426   0.735
42945W        W 9486   2.894  29.601   2.195
42946W        W 9487  43.311   9.739   0.922
42947W        W 9488   7.951   1.334  13.932
42948W        W 9489   9.327  17.856  14.938
42949W        W 9490   8.649  28.980  14.327
42950W        W 9491  43.241  27.032  14.889
42951W        W 9492  38.515  26.152  10.459
42952W        W 9493  36.549   6.895  11.470
42953W        W 9494  34.578  36.013  11.138
42954W        W 9495  11.000  37.021  11.577
42955W        W 9496  41.799  21.746   4.629
42956W        W 9497  27.899  24.499   3.216
42957W        W 9498   4.315  20.739  12.171
42958W        W 9499  36.113  37.898   3.236
42959W        W 9500  21.752  34.951  11.457
42960W        W 9501  34.622  35.551   3.205
42961W        W 9502  18.761  11.745  14.858
42962W        W 9503  10.848  29.694  13.864
42963W        W 9504  24.094  34.072  10.341
42964W        W 9505  17.571  37.109   4.622
42965W        W 9506  10.684  12.870  14.888
42966W        W 9507  32.426   3.186   1.883
42967W        W 9508  42.699  11.866  11.521
42968W        W 9509  23.394  12.575  14.014
42969W        W 9510   3.714  15.782  14.510
42970W        W 9511   0.760   0.765   1.802
42971W        W 9512  38.358   6.412   3.918
42972W        W 9513   2.424  31.968   2.768
42973W        W 9514  36.381  11.591  12.466
42974W        W 9515  31.637  28.232  12.639
42975W        W 9516  29.127  25.968  13.502
42976W        W 9517  36.547  30.330  10.317
42977W        W 9518  15.655  39.742  14.059
42978W        W 9519   9.600   9.224  12.579
42979W        W 9520  31.055   9.680   3.895
42980W        W 9521  30.888  38.961  12.970
42981W        W 9522   7.111  40.967  14.512
42982W        W 9523  14.436  22.046  12.037
42983W        W 9524  26.663   0.267   1.420
42984W        W 9525  27.056  20.608  13.403
42985W        W 9526  15.167  22.417  10.679
42986W        W 9527  29.708  32.596  13.387
42987W        W 9528   4.947  22.718  11.963
42988W        W 9529   4.802  43.467  10.637
42989W        W 9530   9.082  30.156   2.861
42990W        W 9531  30.972  26.728  12.795
42991W        W 9532  25.184   7.189   1.172
42992W        W 9533  13.679  10.249   2.762
42993W        W 9534   3.736   3.506   4.534
42994W        W 9535  17.778  19.795   0.217
42995W        W 9536  43.373   4.181   0.407
42996W        W 9537  43.777  10.566   1.407
42997W        W 9538  16.683  20.728   2.664
42998W        W 9539  34.318   3.561   4.124
42999W        W 9540  19.836  34.501  10.686
43000W        W 9541   5.469  42.959  14.938
43001W        W 9542   4.109  26.714   3.265
43002W        W 9543  30.481  22.810   2.857
43003W        W 9544  43.308  21.582   3.605
43004W        W 9545  44.023  18.219   1.037
43005W        W 9546   6.927  15.747   3.172
43006W        W 9547  42.953  40.975  12.352
43007W        W 9548  41.636  40.772  14.315
43008W        W 9549  39.625  10.362  13.516
43009W        W 9550  26.447  35.522   2.822
43010W        W 9551  22.170  22.091  12.852
43011W        W 9552  21.175   1.381  12.499
43012W        W 9553  39.621  27.246   0.254
43013W        W 9554  22.276  20.947  14.782
43014W        W 9555  11.289  16.145   0.490
43015W        W 9556  38.296   5.204   1.802
43016W        W 9557  13.018  40.669   5.045
43017W        W 9558  23.788  37.270   0.260
43018W        W 9559  43.486  28.739   1.624
43019W        W 9560  23.962   5.376   2.287
43020W        W 9561  19.603  17.163  11.185
43021W        W 9562  28.071  35.780   4.973
43022W        W 9563  25.447   8.405   0.727
43023W        W 9564   7.382  25.191   4.269
43024W        W 9565   3.858  16.616  13.476
43025W        W 9566  17.133  25.985   3.013
43026W        W 9567  19.656  36.017  10.768
43027W        W 9568  40.935  20.447  11.971
43028W        W 9569  23.979  25.256  12.201
43029W        W 9570  41.008   5.534   2.204
43030W        W 9571  21.606  23.214  13.483
43031W        W 9572  14.418  33.096  13.547
43032W        W 9573  15.225  42.290   0.309
43033W        W 9574  41.414  31.887  10.725
43034W        W 9575   9.581  27.050  11.109
43035W        W 9576  44.696  43.176  10.282
43036W        W 9577  14.562  14.001  10.620
43037W        W 9578  36.559   1.369  12.486
43038W        W 9579  18.130  11.230   0.746
43039W        W 9580  12.895   2.805   2.981
43040W        W 9581  36.333   7.274  14.726
43041W        W 9582  22.405  19.009  11.614
43042W        W 9583  10.629  43.633   4.508
43043W        W 9584  31.711  19.225  11.353
43044W        W 9585  24.110  11.268   2.478
43045W        W 9586  38.978  23.609   1.303
43046W        W 9587   5.528   9.786   1.264
43047W        W 9588   5.743  32.880  14.008
43048W        W 9589  28.201  42.569  12.295
43049W        W 9590  39.715  37.335   3.650
43050W        W 9591  11.503  44.435   4.963
43051W        W 9592  29.701  20.716  10.578
43052W        W 9593   5.103  35.899   3.699
43053W        W 9594  15.217   1.302   4.945
43054W        W 9595  32.214  37.876  14.482
43055W        W 9596  19.609   7.687   0.816
43056W        W 9597  28.637  20.169  13.823
43057W        W 9598   2.352  44.465  11.043
43058W        W 9599  40.489  38.795   2.778
43059W        W 9600  30.061  35.361  13.447
43060W        W 9601  27.585  31.108   4.347
43061W        W 9602   8.074  43.712   4.651
43062W        W 9603  42.382  13.400  11.685
43063W        W 9604   8.595  34.405  11.310
43064W        W 9605  24.427  23.238  13.419
43065W        W 9606  28.747  39.276  10.608
43066W        W 9607  31.050  44.855   1.917
43067W        W 9608  19.241   8.520   1.952
43068W        W 9609  15.285  19.950   0.987
43069W        W 9610  22.227  21.548  11.886
43070W        W 9611  42.353  25.408   2.407
43071W        W 9612  11.776  16.085  11.025
43072W        W 9613  42.924  15.466  12.004
43073W        W 9614  36.888  34.802  12.981
43074W        W 9615  32.496  26.661   5.185
43075W        W 9616  38.413  31.930   1.398
43076W        W 9617   7.970  35.281  13.835
43077W        W 9618   7.705  29.526   0.010
43078W        W 9619  10.425  17.276   2.279
43079W        W 9620  22.031  17.893   3.293
43080W        W 9621  32.140  22.913   1.289
43081W        W 9622  42.126   3.737  10.529
43082W        W 9623   9.676  15.766   4.648
43083W        W 9624   5.414  27.682  14.423
43084W        W 9625  12.137  10.280  12.702
43085W        W 9626  25.264  10.651   1.359
43086W        W 9627   0.037   5.086   1.186
43087W        W 9628   7.623  38.437  12.543
43088W        W 9629  41.389  27.613   3.307
43089W        W 9630  41.277  31.591  11.130
43090W        W 9631  30.605  28.377   3.770
43091W        W 9632  16.482  19.101  14.379
43092W        W 9633  11.557  15.692   3.224
43093W        W 9634   6.044   7.469   4.129
43094W        W 9635  20.936  27.596   2.326
43095W        W 9636  43.358   5.251  13.885
43096W        W 9637  16.107  26.509   4.201
43097W        W 9638  42.360  36.456   4.822
43098W        W 9639   2.805  40.572   2.403
43099W        W 9640  24.188  29.587   2.696
43100W        W 9641  36.782  31.854   1.974
43101W        W 9642  14.600  30.443   1.281
43102W        W 9643  34.379   0.822   4.110
43103W        W 9644  16.515  44.403  13.120
43104W        W 9645  44.988  27.059   4.597
43105W        W 9646   0.578   6.884   1.480
43106W        W 9647  28.202  20.300   4.437
43107W        W 9648  44.181   1.671   2.157
43108W        W 9649  14.812  29.514   1.898
43109W        W 9650  41.606   3.250   1.725
43110W        W 9651   5.666  28.044   5.079
43111W        W 9652  11.206   0.071  11.130
43112W        W 9653  39.068  22.062   2.488
43113W        W 9654  32.977   9.064  14.410
43114W        W 9655  13.063  34.549  13.388
43115W        W 9656  18.710  42.644   1.862
43116W        W 9657  21.396  33.468   0.381
43117W        W 9658  22.510   5.693  10.723
43118W        W 9659  15.781  39.624  10.371
43119W        W 9660  20.053  11.190  14.002
43120W        W 9661  17.578  13.082  12.352
43121W        W 9662  18.470  37.585   2.382
43122W        W 9663  37.666  38.639   4.435
43123W        W 9664  12.233  29.899   3.930
43124W        W 9665   9.178  13.814  13.087
43125W        W 9666  21.499   6.492  14.838
43126W        W 9667  18.873  42.800   4.451
43127W        W 9668   5.431  44.046  11.547
43128W        W 9669  18.613  44.282  10.804
43129W        W 9670  15.143  33.844   4.651
43130W        W 9671  34.018  22.070   4.565
43131W        W 9672  18.662  18.083   5.235
43132W        W 9673  34.426  31.821   1.934
43133W        W 9674  41.533  33.587  11.936
43134W        W 9675  22.707  20.707  14.884
43135W        W 9676  12.580  43.021   2.302
43136W        W 9677  16.241  33.946  11.967
43137W        W 9678  13.395  16.084   3.351
43138W        W 9679  29.249  44.462  13.880
43139W        W 9680  35.133  23.072   3.299
43140W        W 9681  44.965  17.283   0.379
43141W        W 9682   5.182   7.420  11.096
43142W        W 9683  16.973  28.105   4.494
43143W        W 9684  15.649  35.132  11.967
43144W        W 9685  44.368   9.359  11.501
43145W        W 9686  15.919   2.974   1.227
43146W        W 9687   1.065  35.591  10.757
43147W        W 9688  40.248  14.107  13.600
43148W        W 9689  36.308  13.758  14.419
43149W        W 9690   2.416  27.865   0.950
43150W        W 9691  42.300  32.498   3.685
43151W        W 9692  20.392  24.714   4.539
43152W        W 9693  19.191  41.547  10.762
43153W        W 9694  27.344   6.499  12.134
43154W        W 9695   4.197  22.773  14.043
43155W        W 9696  19.581  42.031   1.816
43156W        W 9697  41.030  30.914  13.016
43157W        W 9698  39.573  42.909  14.404
43158W        W 9699  27.439  18.287  12.973
43159W        W 9700  31.720   9.392   5.498
43160W        W 9701   6.993  33.136  14.893
43161W        W 9702  10.491  14.481   5.139
43162W        W 9703  13.210  37.493  12.889
43163W        W 9704  43.015  13.140   1.752
43164W        W 9705  14.051  31.232  11.788
43165W        W 9706  11.273  11.935   0.035
43166W        W 9707  25.094   5.490  12.135
43167W        W 9708   3.929  30.683   4.213
43168W        W 9709   0.383  16.119   2.211
43169W        W 9710  40.008  13.371   2.135
43170W        W 9711  32.887  35.936   2.702
43171W        W 9712  20.309  34.938  14.341
43172W        W 9713  40.536  12.615  14.394
43173W        W 9714  25.377  19.097  11.553
43174W        W 9715  29.176   1.799   4.138
43175W        W 9716  26.110   1.115   0.422
43176W        W 9717  21.678  18.118  13.181
43177W        W 9718  23.105  11.410  11.908
43178W        W 9719  14.061  36.025  11.677
43179W        W 9720  19.595  33.501  12.814
43180W        W 9721  31.061   4.530  12.013
43181W        W 9722  12.770  34.269   0.419
43182W        W 9723  37.413  30.981  10.703
43183W        W 9724  22.847  43.143   4.170
43184W        W 9725  34.998  10.420  11.296
43185W        W 9726  29.051  16.826   4.152
43186W        W 9727  24.906  24.125   1.358
43187W        W 9728  35.042  34.580   5.075
43188W        W 9729  41.297  15.188   0.679
43189W        W 9730   6.413  43.288   0.981
43190W        W 9731  10.943  24.092   1.945
43191W        W 9732  16.589  44.042   2.139
43192W        W 9733  17.988  17.707  11.452
43193W        W 9734  25.227  28.127   4.391
43194W        W 9735  12.349  32.907  10.551
43195W        W 9736  20.624  37.494  13.902
43196W        W 9737   3.701  33.983  11.994
43197W        W 9738  39.913  10.879   0.818
43198W        W 9739  10.646   2.108   2.903
43199W        W 9740  30.037  25.778   0.903
43200W        W 9741  19.663  43.425  10.691
43201W        W 9742   0.856  28.692   3.315
43202W        W 9743  44.433  31.868   1.877
43203W        W 9744   1.238  14.124   1.429
43204W        W 9745  19.050  16.384  10.315
43205W        W 9746  23.629  27.072  12.345
43206W        W 9747  33.620   8.493   3.205
43207W        W 9748  36.450  33.050   3.573
43208W        W 9749  33.907   6.382  13.403
43209W        W 9750   3.311  29.898   2.172
43210W        W 9751  17.272  21.052   3.702
43211W        W 9752  18.230  14.570  12.478
43212W        W 9753  30.931   1.958  13.904
43213W        W 9754  17.508  26.594  11.074
43214W        W 9755  36.007  15.705   3.663
43215W        W 9756  37.497  24.146   0.260
43216W        W 9757   8.804  23.531   0.812
43217W        W 9758  12.255  41.757   0.865
43218W        W 9759  41.787  14.240  14.335
43219W        W 9760   9.397   2.436   4.787
43220W        W 9761  13.855   7.731  11.635
43221W        W 9762  13.452  22.524  11.499
43222W        W 9763   5.315  16.330   0.851
43223W        W 9764  15.584   4.136   3.151
43224W        W 9765   6.767   8.252   4.355
43225W        W 9766   3.549  25.455   2.338
43226W        W 9767  18.215   2.327   0.551
43227W        W 9768  24.582  14.589   2.686
43228W        W 9769  14.556   2.676  14.971
43229W        W 9770   6.187  19.432  13.712
43230W        W 9771  17.411  27.413   1.659
43231W        W 9772  40.385   9.199  11.373
43232W        W 9773   8.680  21.513  13.837
43233W        W 9774  10.595  13.715  12.086
43234W        W 9775  22.357  21.571   2.304
43235W        W 9776  15.955  15.763  11.928
43236W        W 9777  26.620  40.848   0.166
43237W        W 9778  44.724   4.431  13.737
43238W        W 9779  40.771   0.385   1.765
43239W        W 9780  44.578  14.605  11.076
43240W        W 9781  38.595  35.201  13.339
43241W        W 9782   8.914  22.633   0.994
43242W        W 9783  27.754  10.028  12.123
43243W        W 9784   8.125  22.592   2.745
43244W        W 9785  40.108  20.495   2.523
43245W        W 9786  35.334  24.169  13.932
43246W        W 9787  44.037  14.772   4.608
43247W        W 9788   1.778  31.916  14.905
43248W        W 9789  25.017  24.931   2.898
43249W        W 9790  26.980  23.243   2.215
43250W        W 9791  24.682  15.034   2.951
43251W        W 9792  35.911  30.714   4.894
43252W        W 9793  25.067  42.261   4.568
43253W        W 9794  10.810  11.387  13.311
43254W        W 9795  41.308  18.359   2.281
43255W        W 9796  16.548  37.844   3.355
43256W        W 9797   3.998  38.131   1.924
43257W        W 9798   1.993  40.727  12.486
43258W        W 9799  43.594  17.753   4.287
43259W        W 9800  41.303  33.494   1.819
43260W        W 9801  25.477  37.108   2.923
43261W        W 9802  17.840  16.102   0.485
43262W        W 9803   1.762  16.651   4.191
43263W        W 9804   2.771  43.963   0.773
43264W        W 9805  11.257  39.344   0.373
43265W        W 9806   5.330  17.239  14.152
43266W        W 9807  11.589   3.698  13.468
43267W        W 9808  18.300  19.010   2.361
43268W        W 9809  24.478   2.230  12.527
43269W        W 9810  24.514   0.037   2.823
43270W        W 9811  34.501  12.785   2.409
43271W        W 9812  25.181  39.863   4.401
43272W        W 9813  40.807  23.985  11.899
43273W        W 9814  23.467  25.411   0.501
43274W        W 9815  13.260  17.562   4.033
43275W        W 9816  33.807  29.886   1.372
43276W        W 9817   0.826  40.961   0.674
43277W        W 9818   0.870  29.931   3.319
43278W        W 9819  21.237  14.272   1.407
43279W        W 9820  27.932  27.563  13.383
43280W        W 9821  34.930  37.406  14.008
43281W        W 9822   0.298  23.579  11.701
43282W        W 9823  40.294  11.187  10.745
43283W        W 9824   2.486  23.647   3.535
43284W        W 9825  44.451  15.317   1.140
43285W        W 9826  20.362  38.433   2.409
43286W        W 9827  12.140  35.117   0.488
43287W        W 9828  44.904  43.766  14.603
43288W        W 9829  33.921   3.216  12.579
43289W        W 9830  38.715  32.859   3.322
43290W        W 9831  14.558  11.533  14.496
43291W        W 9832  39.344  19.417   1.804
43292W        W 9833   2.701  43.258   4.230
43293W        W 9834   9.216   3.966  14.867
43294W        W 9835  38.004  13.781  13.984
43295W        W 9836  20.373  27.349   2.722
43296W        W 9837  21.659   5.578  12.608
43297W        W 9838   6.157   8.827   2.852
43298W        W 9839  30.439   9.941   0.674
43299W        W 9840  17.730  37.725   1.449
43300W        W 9841  22.909  13.287   0.909
43301W        W 9842  12.577  37.990  13.029
43302W        W 9843   5.181  12.134   2.204
43303W        W 9844  24.038  27.952   1.024
43304W        W 9845  25.717  17.222   1.378
43305W        W 9846  31.576   4.370  15.000
43306W        W 9847  21.563  17.572   2.143
43307W        W 9848  38.378  13.842  14.361
43308W        W 9849  15.625   7.011   4.887
43309W        W 9850  35.207  35.608  10.555
43310W        W 9851   3.408  35.707   3.295
43311W        W 9852  35.984  16.514   4.926
43312W        W 9853  22.609  36.660   4.532
43313W        W 9854  22.550  20.730   4.818
43314W        W 9855  15.331  31.523  14.249
43315W        W 9856  40.857   1.945  12.581
43316W        W 9857  43.440  26.862   0.336
43317W        W 9858   7.306  40.328  13.527
43318W        W 9859   5.268  42.898  12.433
43319W        W 9860  18.133  30.508  11.722
43320W        W 9861  14.706  17.361   2.845
43321W        W 9862  16.259  42.032  12.148
43322W        W 9863  15.918  35.132   3.440
43323W        W 9864   7.460  27.533   1.505
43324W        W 9865   2.770  24.128   4.908
43325W        W 9866  39.482  34.716  12.411
43326W        W 9867   7.185  29.080   3.243
43327W        W 9868  13.375  44.976  14.481
43328W        W 9869  18.663   4.343   1.960
43329W        W 9870  37.347  40.559   5.043
43330W        W 9871   4.207   3.808   0.821
43331W        W 9872  12.336  38.542   1.035
43332W        W 9873  38.096  11.293   0.642
43333W        W 9874  44.280  39.607  10.014
43334W        W 9875  42.029   9.823   1.328
43335W        W 9876  35.677  28.952   4.051
43336W        W 9877   8.984  10.024  12.182
43337W        W 9878  21.545  20.831   0.012
43338W        W 9879  19.347  44.361   1.812
43339W        W 9880  25.831  15.003  11.569
43340W        W 9881  20.968   1.206   3.317
43341W        W 9882  31.727  27.010  10.650
43342W        W 9883  16.373  21.712   4.506
43343W        W 9884   0.941   7.081  10.849
43344W        W 9885  29.668  33.905   2.219
43345W        W 9886   8.462  37.960   4.525
43346W        W 9887   0.318  27.005   0.871
43347W        W 9888  24.702  39.821   1.090
43348W        W 9889  15.148  27.559   2.692
43349W        W 9890  24.694  43.218   0.049
43350W        W 9891  14.729  38.449   2.726
43351W        W 9892  31.086  41.129   1.903
43352W        W 9893  16.246   2.698  12.314
43353W        W 9894   9.682  16.264   2.795
43354W        W 9895  34.961  44.945  14.890
43355W        W 9896  37.839  20.800   2.226
43356W        W 9897   5.881  34.635  12.449
43357W        W 9898   6.233  37.426  10.513
43358W        W 9899  22.073  40.703  14.350
43359W        W 9900  43.130  35.448  11.132
43360W        W 9901  28.549  33.649   4.717
43361W        W 9902  11.697   8.224  13.648
43362W        W 9903  29.440  24.501   1.838
43363W        W 9904  42.847  10.354   2.276
43364W        W 9905  40.795  13.577  11.665
43365W        W 9906   2.834  37.508   3.297
43366W        W 9907  38.357   1.639  11.464
43367W        W 9908   8.754  36.324  14.034
43368W        W 9909  13.601  34.558  13.399
43369W        W 9910  30.945  11.228  12.362
43370W        W 9911  17.854  24.174   3.357
43371W        W 9912   9.681  38.795  14.905
43372W        W 9913  29.628  44.018  12.990
43373W        W 9914  25.269  24.711   3.297
43374W        W 9915  21.651  32.342   4.985
43375W        W 9916   1.156   3.242   1.843
43376W        W 9917   8.088   1.900  14.984
43377W        W 9918  18.194  20.586   2.044
43378W        W 9919  33.074  15.363  12.261
43379W        W 9920  36.770  14.342  12.135
43380W        W 9921  23.350   3.561  12.304
43381W        W 9922  20.108  17.066  13.920
43382W        W 9923  39.811  34.559   3.209
43383W        W 9924   0.890  39.802  13.629
43384W        W 9925   2.451  22.133  10.914
43385W        W 9926  40.275  33.454  14.014
43386W        W 9927  24.047   9.133  10.021
43387W        W 9928   3.079   5.658   3.318
43388W        W 9929   6.127  16.823  11.353
43389W        W 9930   7.831  24.679  14.354
43390W        W 9931  37.515  17.937   2.121
43391W        W 9932  23.613  27.806  12.637
43392W        W 9933  11.358  28.427   2.212
43393W        W 9934  19.127  39.871   1.985
43394W        W 9935  34.922  44.498  10.675
43395W        W 9936   6.902  19.596   1.469
43396W        W 9937  36.431  33.363  12.802
43397W        W 9938  15.736   8.328   4.575
43398W        W 9939  14.571   1.907  14.563
43399W        W 9940  43.469  16.093  14.410
43400W        W 9941  38.736  43.894  12.552
43401W        W 9942   4.452  26.477  12.978
43402W        W 9943  40.870   9.150  11.598
43403W        W 9944  13.792  24.495   4.041
43404W        W 9945  19.665  38.456  11.007
43405W        W 9946  31.884  38.572   4.896
43406W        W 9947  25.656  40.635  13.162
43407W        W 9948  31.793  41.964   4.151
43408W        W 9949  38.836  29.594   4.074
43409W        W 9950  43.348  25.169  11.449
43410W        W 9951  19.812  33.251   3.120
43411W        W 9952  29.982   0.944  14.809
43412W        W 9953   0.712  19.162  10.681
43413W        W 9954  20.620  29.776  14.880
43414W        W 9955  21.575  11.947   5.041
43415W        W 9956  22.209  27.645   1.257
43416W        W 9957  13.632  32.582   2.381
43417W        W 9958  32.081  42.038  13.356
43418W        W 9959  30.680  11.589  12.082
43419W        W 9960  31.016  27.440   3.756
43420W        W 9961  25.800  27.021   4.438
43421W        W 9962  44.960  19.721  14.996
43422W        W 9963  28.975  42.834  12.781
43423W        W 9964  42.418   6.957   3.703
43424W        W 9965  12.131  19.664   4.835
43425W        W 9966  33.221  28.009  13.083
43426W        W 9967  22.862  33.421  10.967
43427W        W 9968  13.123   8.501  13.353
43428W        W 9969  15.824  41.947  13.998
43429W        W 9970  13.583   9.903   3.642
43430W        W 9971   8.369  15.164   3.062
43431W        W 9972  36.544   7.815  14.037
43432W        W 9973  39.926   4.163  14.288
43433W        W 9974  30.611  17.115  10.699
43434W        W 9975  28.657  38.817  14.099
43435W        W 9976  37.288  11.395  12.403
43436W        W 9977   6.289  21.629  11.121
43437W        W 9978  24.639  16.230  14.959
43438W        W 9979  25.051  43.609   2.798
43439W        W 9980   1.134  17.575   1.654
43440W        W 9981  16.249  24.629  10.813
43441W        W 9982  38.996  27.188  13.500
43442W        W 9983  22.535   5.338   1.322
43443W        W 9984  17.030  11.774  13.047
43444W        W 9985   1.779  40.992   1.099
43445W        W 9986   5.924  36.468   3.137
43446W        W 9987  39.019  12.774   4.590
43447W        W 9988  31.655  24.938   0.515
43448W        W 9989   6.839  12.755   3.831
43449W        W 9990  32.280   1.713  12.598
43450W        W 9991   1.341  16.074  13.852
43451W        W 9992  30.343  28.984  13.463
43452W        W 9993   8.149  34.145   2.145
43453W        W 9994   8.584  18.711  10.676
43454W        W 9995   2.640  22.483   0.548
43455W        W 9996  20.617  37.141   0.350
43456W        W 9997  43.525  23.018   2.165
43457W        W 9998  36.094  44.368  12.081
43458W        W 9999  36.867  31.578   4.632
43459W        W10000   8.743  44.403   1.943
43460W        W10001  39.783  35.426  10.713
43461W        W10002  22.115   8.059  13.198
43462W        W10003   4.056  40.575  10.672
43463W        W10004  21.274  37.353   1.211
43464W        W10005   4.157  29.510   2.910
43465W        W10006  14.362  38.848  10.648
43466W        W10007  30.754   7.144  11.929
43467W        W10008  14.652   9.103  12.933
43468W        W10009  26.116   6.246  10.488
43469W        W10010   4.759  18.026  11.249
43470W        W10011  14.204  10.411  13.077
43471W        W10012  41.824   8.393  11.198
43472W        W10013  38.914   5.713  12.051
43473W        W10014  15.663  33.021   2.237
43474W        W10015   9.602  28.478   0.002
43475W        W10016  18.693   2.410  11.709
43476W        W10017  25.430  34.654   4.770
43477W        W10018  34.583  35.146  11.885
43478W        W10019  11.903  27.974  10.231
43479W        W10020  22.102  37.854   2.763
43480W        W10021  24.543  37.514  11.239
43481W        W10022  24.517   1.696  13.676
43482W        W10023  36.794  35.355  11.280
43483W        W10024  39.545   5.317   4.622
43484W        W10025  16.152  23.461   0.011
43485W        W10026  14.839  19.984   3.604
43486W        W10027  37.892  43.649  13.178
43487W        W10028  24.669  42.594  13.337
43488W        W10029   6.335   9.238  12.969
43489W        W10030   2.365  22.270  11.400
43490W        W10031  39.256  41.947   1.269
43491W        W10032  16.193   3.781   3.746
43492W        W10033  17.102   6.528  12.126
43493W        W10034  29.483  11.544  11.703
43494W        W10035  25.675   1.392  13.943
43495W        W10036  13.214  31.045   2.861
43496W        W10037  22.180  11.661   1.842
43497W        W10038  43.349   1.553  13.016
43498W        W10039  14.205  15.203  10.261
43499W        W10040   9.281   6.027   3.344
43500W        W10041  33.455  16.562   2.489
43501W        W10042  22.988  28.125  10.604
43502W        W10043  39.962  44.480  14.778
43503W        W10044   6.146  31.305  14.199
43504W        W10045  13.889  18.722   0.344
43505W        W10046  21.205  39.289   1.676
43506W        W10047  39.116   8.620  10.205
43507W        W10048  17.782   2.013   4.037
43508W        W10049  40.510  29.606  13.362
43509W        W10050  34.229  28.111  11.048
43510W        W10051  24.692  28.484  11.916
43511W        W10052  11.655   6.669   2.271
43512W        W10053  42.930  20.687   0.995
43513W        W10054  18.029   7.652  11.941
43514W        W10055   1.515  13.109   4.319
43515W        W10056   5.273  18.266   2.227
43516W        W10057   0.812  35.322   4.064
43517W        W10058  43.825   2.669  14.334
43518W        W10059  26.539  43.712  10.380
43519W        W10060  35.083  22.260  14.673
43520W        W10061  29.070   8.624   3.473
43521W        W10062  12.582  19.749   0.938
43522W        W10063  15.530  29.129   3.340
43523W        W10064  42.827  34.974  13.377
43524W        W10065   3.368  22.270  13.281
43525W        W10066  13.002  34.681   4.242
43526W        W10067  16.590  42.759   3.737
43527W        W10068   7.684  19.702  11.536
43528W        W10069   8.895  34.064   4.102
43529W        W10070  31.186  19.295  11.471
43530W        W10071  13.785  28.668  11.100
43531W        W10072  22.066  35.460  10.625
43532W        W10073  23.798  43.133  14.900
43533W        W10074   5.246  14.558  14.745
43534W        W10075  22.962  43.792   1.618
43535W        W10076  20.251  39.548   3.275
43536W        W10077  17.979  29.168  13.088
43537W        W10078   0.368  41.833  12.396
43538W        W10079   9.202  20.179   1.386
43539W        W10080  13.131   5.463  12.001
43540W        W10081  16.216   6.445   0.872
43541W        W10082   5.612  10.193   0.007
43542W        W10083  25.689  29.752   1.402
43543W        W10084  24.796   9.640  10.775
43544W        W10085  15.672  43.256   2.348
43545W        W10086   7.737  11.832   1.131
43546W        W10087  28.630   0.310  11.565
43547W        W10088  21.834  21.283  12.077
43548W        W10089  13.106   5.100   2.790
43549W        W10090  37.945   5.752  12.272
43550W        W10091  42.167  27.736  12.841
43551W        W10092  11.135  23.653   2.181
43552W        W10093  10.928   1.704  14.545
43553W        W10094  26.744  29.243  10.110
43554W        W10095  19.250  35.500   0.895
43555W        W10096  11.077  17.608   3.133
43556W        W10097   8.466  38.053  12.824
43557W        W10098  14.209   4.762   0.814
43558W        W10099  28.055  20.511  13.461
43559W        W10100  33.659  20.945   3.621
43560W        W10101  40.432   3.941   0.351
43561W        W10102  32.096   6.807   4.769
43562W        W10103  35.801  17.970   2.809
43563W        W10104  29.163   1.362   2.392
43564W        W10105  35.006  33.881   3.941
43565W        W10106  42.003   9.195   4.027
43566W        W10107  44.755  14.527   3.731
43567W        W10108  26.172  15.592   1.305
43568W        W10109  20.496   9.832  13.946
43569W        W10110   2.402  39.731  11.809
43570W        W10111   0.501  26.062   2.755
43571W        W10112  27.431   9.529  10.372
43572W        W10113  38.145  30.682   0.893
43573W        W10114  30.909  44.327   1.252
43574W        W10115  29.615   9.292   1.010
43575W        W10116  33.106   5.779   0.146
43576W        W10117   7.122  43.005   2.586
43577W        W10118  23.132  21.160   4.770
43578W        W10119  37.161   3.400  10.171
43579W        W10120  21.490  43.628  13.939
43580W        W10121  19.939   5.829  10.148
43581W        W10122   7.367   9.474  12.552
43582W        W10123  33.105  31.274   1.011
43583W        W10124  40.869  19.765  13.460
43584W        W10125  14.157  42.226  14.623
43585W        W10126  35.532  42.502   2.224
43586W        W10127  40.496  44.451  13.417
43587W        W10128  38.606  33.381   1.344
43588W        W10129  32.631  14.050   4.963
43589W        W10130  42.836  25.194   2.453
43590W        W10131  30.464  39.997  11.628
43591W        W10132  42.906  13.210   2.751
43592W        W10133  43.294  18.067   0.475
43593W        W10134  36.835  26.714  13.402
43594W        W10135  16.824  39.560   0.508
43595W        W10136   7.390  40.547   4.203
43596W        W10137  20.110  21.726  13.444
43597W        W10138  10.661  32.417  13.570
43598W        W10139  16.587  17.466  14.763
43599W        W10140  34.929   8.132  12.888
43600W        W10141  35.175  33.610  12.329
43601W        W10142  25.513  30.870  13.223
43602W        W10143  31.477  12.305  14.572
43603W        W10144  27.091  25.987   2.155
43604W        W10145   1.356  15.842  12.147
43605W        W10146  16.738  19.728  10.654
43606W        W10147  34.964  24.504   1.088
43607W        W10148   2.497  18.519  12.177
43608W        W10149  35.909  13.696   4.763
43609W        W10150  12.363  28.434   4.037
43610W        W10151  34.368   8.821   0.250
43611W        W10152  10.209   0.291   3.752
43612W        W10153   5.925  27.261   4.050
43613W        W10154  42.739   4.704  12.613
43614W        W10155  21.880  24.605   5.357
43615W        W10156  25.206   3.240   3.955
43616W        W10157  38.386  24.717  10.847
43617W        W10158  23.583  18.630  10.723
43618W        W10159   4.283  25.140   1.641
43619W        W10160  15.167  15.678   4.070
43620W        W10161  27.029   4.649  14.548
43621W        W10162   6.393  28.796  14.244
43622W        W10163  25.723  31.444   1.767
43623W        W10164   5.239  11.104  14.788
43624W        W10165   7.374  21.603   2.762
43625W        W10166  14.790  20.451  14.308
43626W        W10167   1.184  30.480   0.908
43627W        W10168  33.636  10.931   4.911
43628W        W10169  29.955  40.387   4.601
43629W        W10170  40.820  28.908  14.378
43630W        W10171  44.487  14.713   3.280
43631W        W10172  16.594  31.533  13.449
43632W        W10173  24.985  22.571  14.338
43633W        W10174  12.600  25.561   2.302
43634W        W10175   7.189   1.940  11.252
43635W        W10176  38.960   0.731  13.482
43636W        W10177   8.223  44.864  14.469
43637W        W10178  22.152   4.132  14.686
43638W        W10179  10.142   9.618   3.171
43639W        W10180  30.617   7.650   1.439
43640W        W10181  37.061   5.537   4.400
43641W        W10182   7.132  44.977   2.114
43642W        W10183  21.472  17.328   0.035
43643W        W10184   8.348  20.157  11.966
43644W        W10185  16.936  13.574  12.409
43645W        W10186  16.814  19.029  13.464
43646W        W10187  38.379   6.819   2.593
43647W        W10188   8.752  19.242  10.684
43648W        W10189  32.092  20.422  14.874
43649W        W10190  22.260  24.566  13.539
43650W        W10191  34.582  10.550   4.933
43651W        W10192  30.512  29.132  14.914
43652W        W10193  32.864  38.618  13.471
43653W        W10194  24.785   3.469   1.363
43654W        W10195  21.508  35.936  10.981
43655W        W10196  38.069  17.264  11.932
43656W        W10197   5.662  38.382  10.615
43657W        W10198   8.705  32.014  14.734
43658W        W10199  14.654  35.945   3.772
43659W        W10200   9.655  16.787  11.364
43660W        W10201   0.285   0.982  11.991
43661W        W10202  28.486  25.556   4.606
43662W        W10203   7.288  39.601  14.820
43663W        W10204  19.097  31.740  12.116
43664W        W10205  11.281  23.489   2.686
43665W        W10206  36.825  15.603  14.681
43666W        W10207   4.340   6.816  13.281
43667W        W10208  37.518  22.230  11.582
43668W        W10209   9.938  23.645  14.789
43669W        W10210  29.425  41.317   1.181
43670W        W10211  28.306  35.619  10.487
43671W        W10212   8.697  21.206   2.705
43672W        W10213   0.184  33.716  12.801
43673W        W10214  22.192  32.141  11.494
43674W        W10215  11.387   0.190  13.013
43675W        W10216  25.256  36.096   2.876
43676W        W10217   8.330   9.730   2.159
43677W        W10218  26.822  32.277  13.398
43678W        W10219   3.498  38.529   3.758
43679W        W10220  26.131  16.242   4.708
43680W        W10221  26.689  32.133   3.131
43681W        W10222  32.829  34.441   2.205
43682W        W10223  36.498  36.447  10.647
43683W        W10224  19.311  25.202  12.480
43684W        W10225  13.702  27.760   0.559
43685W        W10226   4.178  11.314   2.057
43686W        W10227  18.702  43.937   1.583
43687W        W10228  31.446  44.193   2.845
43688W        W10229   7.576  16.592  13.546
43689W        W10230  40.515  15.655   2.328
43690W        W10231  32.021  25.974   0.483
43691W        W10232  15.464  23.758  10.305
43692W        W10233  39.282   6.453  11.720
43693W        W10234  22.470  41.513   1.864
43694W        W10235  20.776   7.786  12.523
43695W        W10236  21.241  27.048   3.670
43696W        W10237  35.387  13.093   3.267
43697W        W10238  25.341  13.648   0.467
43698W        W10239  20.797   5.167  13.865
43699W        W10240  13.911  27.709  13.720
43700W        W10241  23.945  30.689   0.477
43701W        W10242  35.133  18.289   3.345
43702W        W10243  18.627  27.002   4.902
43703W        W10244   2.206  38.349   4.643
43704W        W10245   3.738  20.593   0.936
43705W        W10246  17.697   3.211   4.736
43706W        W10247   1.657  10.700   4.261
43707W        W10248  42.955  19.504  10.300
43708W        W10249  25.300  11.272  14.325
43709W        W10250  17.607  31.717   4.973
43710W        W10251  43.572  44.968   3.293
43711W        W10252   8.670  25.786  10.566
43712W        W10253  26.920  31.404  11.140
43713W        W10254  28.529  13.577  13.792
43714W        W10255  14.583  36.510  12.652
43715W        W10256  15.694  25.291   2.286
43716W        W10257   0.395  13.544   0.678
43717W        W10258  30.963  42.500  11.929
43718W        W10259  37.801  42.746  14.831
43719W        W10260   2.545  13.846  10.588
43720W        W10261  33.966  25.110   1.410
43721W        W10262   6.348   3.265   4.667
43722W        W10263  34.880   6.065   2.335
43723W        W10264  44.925  39.726   2.309
43724W        W10265  44.682  13.064  13.001
43725W        W10266  22.503  10.487   2.871
43726W        W10267   7.914   4.677  13.453
43727W        W10268  22.578   3.675   9.610
43728W        W10269  13.074  26.152   2.417
43729W        W10270  37.842  31.849   4.546
43730W        W10271  13.169   3.669   1.858
43731W        W10272   9.488  18.366   1.231
43732W        W10273  33.585  28.132   2.218
43733W        W10274  29.503   2.234  12.177
43734W        W10275   3.711  40.315  12.050
43735W        W10276  39.738  10.395   0.872
43736W        W10277  27.105  10.132  11.435
43737W        W10278  19.690   7.153  14.848
43738W        W10279  10.366   4.611  14.893
43739W        W10280  26.999  15.181   0.502
43740W        W10281  34.622  21.187   2.323
43741W        W10282  36.433  38.116   0.416
43742W        W10283  22.531   1.732  13.933
43743W        W10284   7.182  32.872   2.884
43744W        W10285  30.704   9.737  10.680
43745W        W10286  26.868  37.531  11.313
43746W        W10287   5.367  14.712   1.580
43747W        W10288  15.737  14.851   3.374
43748W        W10289  13.102  35.065   0.473
43749W        W10290   6.214  17.678   0.314
43750W        W10291  14.050  29.065   1.028
43751W        W10292  25.711  24.594   2.354
43752W        W10293  42.846  41.242  13.868
43753W        W10294  23.988  43.411  10.683
43754W        W10295  15.653  23.329  14.350
43755W        W10296   6.227  37.623  11.809
43756W        W10297  12.347  20.317  11.595
43757W        W10298   0.370  10.906   2.250
43758W        W10299  44.973   9.966   3.627
43759W        W10300  28.494  19.268  14.908
43760W        W10301  44.428  18.514  11.921
43761W        W10302  30.737  43.811   3.481
43762W        W10303   6.922  35.746   3.806
43763W        W10304  23.113   8.113   0.400
43764W        W10305  18.335   3.966  11.481
43765W        W10306  23.178  34.057   1.632
43766W        W10307  19.603  15.930   5.478
43767W        W10308  15.305  25.219   3.168
43768W        W10309  41.318  25.061   2.342
43769W        W10310  34.578  35.063   0.361
43770W        W10311   1.381  38.903  12.684
43771W        W10312  28.917  26.531   1.230
43772W        W10313  15.275  43.564  14.816
43773W        W10314  39.643  18.826   1.353
43774W        W10315  32.009  38.176   4.599
43775W        W10316  14.861   3.898  13.670
43776W        W10317  21.837  29.187  12.585
43777W        W10318  40.533  34.723   3.718
43778W        W10319  10.055  18.039   0.884
43779W        W10320  31.042  21.471  12.431
43780W        W10321  11.263  11.822  12.695
43781W        W10322  27.730  17.579  13.627
43782W        W10323  41.966   2.066   3.648
43783W        W10324   7.905  15.590   2.281
43784W        W10325  22.906  11.760   1.490
43785W        W10326  24.296  39.913  10.062
43786W        W10327  23.433   8.930   9.999
43787W        W10328  13.177  32.678   1.477
43788W        W10329  29.452   2.883  14.931
43789W        W10330  41.174  33.210  11.994
43790W        W10331  24.651  38.729  12.450
43791W        W10332  30.965  37.908  12.566
43792W        W10333   0.008  40.836   0.265
43793W        W10334  35.925  38.785  14.053
43794W        W10335  21.075  28.478  10.806
43795W        W10336  17.879  42.800   4.405
43796W        W10337  26.710  35.784  11.117
43797W        W10338  35.062  31.949   0.151
43798W        W10339  25.947  24.937   2.744
43799W        W10340  19.264  34.296   4.468
43800W        W10341  33.774  38.030  12.334
43801W        W10342  42.377  25.949   4.827
43802W        W10343  42.937  19.592  10.813
43803W        W10344   2.364   2.810   2.303
43804W        W10345  11.805   3.949  13.907
43805W        W10346   4.411   9.245  10.822
43806W        W10347  12.359  31.020   2.354
43807W        W10348  36.322  12.767  11.553
43808W        W10349  27.087   5.188  12.578
43809W        W10350  21.144  17.520   1.819
43810W        W10351  38.102  16.598  14.387
43811W        W10352  30.343  21.093  10.801
43812W        W10353  27.358  31.382   0.028
43813W        W10354  35.949  26.794   5.112
43814W        W10355  33.406  19.995   1.003
43815W        W10356  34.629  12.345  14.840
43816W        W10357  20.749  11.695  11.588
43817W        W10358  37.339  38.255   4.293
43818W        W10359   2.592   5.864   2.484
43819W        W10360  37.482  36.113  12.699
43820W        W10361  18.968  37.067  11.036
43821W        W10362  33.528   0.949   0.705
43822W        W10363  32.181  30.975   1.417
43823W        W10364   5.256  27.636  10.446
43824W        W10365   9.663  15.296  13.833
43825W        W10366  12.776  24.607  14.476
43826W        W10367  11.731  20.215   2.759
43827W        W10368  28.844  39.052   4.368
43828W        W10369   0.931   6.797   1.852
43829W        W10370  35.631  41.122  13.299
43830W        W10371  37.547  25.465   1.864
43831W        W10372  36.846   4.597   2.191
43832W        W10373  33.267  29.048  14.784
43833W        W10374  18.591  33.824   0.322
43834W        W10375  35.176   3.988  11.872
43835W        W10376  20.997  41.128  10.866
43836W        W10377  16.784   2.406   2.263
43837W        W10378   1.887  31.687   0.426
43838W        W10379   9.419  22.549  13.011
43839W        W10380   3.559  13.070  12.555
43840W        W10381  28.460  14.604   3.601
43841W        W10382  28.123  13.325  11.985
43842W        W10383  42.838   2.745   1.325
43843W        W10384  29.081  41.557   2.226
43844W        W10385  13.100   4.014   4.579
43845W        W10386  26.223  42.229   2.759
43846W        W10387  14.075  43.906  14.614
43847W        W10388   5.698  34.953  11.596
43848W        W10389  36.032   5.371  10.895
43849W        W10390  29.704  31.038  11.159
43850W        W10391  35.551  44.203  14.861
43851W        W10392   5.197  19.990   0.291
43852W        W10393  14.096  21.334   4.025
43853W        W10394  35.368   4.423  12.876
43854W        W10395  24.409   1.097   3.370
43855W        W10396   8.306  26.253   4.493
43856W        W10397  22.587  18.546  13.523
43857W        W10398  13.580  18.973   4.345
43858W        W10399  43.982  30.513  10.645
43859W        W10400  36.792  21.506  10.763
43860W        W10401  29.589  21.684   3.340
43861W        W10402  42.015  41.226  10.619
43862W        W10403  14.995  24.546   2.186
43863W        W10404  14.409  17.794   3.214
43864W        W10405  39.862  25.465  13.785
43865W        W10406  25.762  23.307   0.215
43866W        W10407   6.641  14.235  12.992
43867W        W10408   2.977   8.180   4.185
43868W        W10409   7.764  43.934   2.880
43869W        W10410   7.348  44.009  13.054
43870W        W10411   6.601  33.861   0.391
43871W        W10412  17.419  41.335   3.164
43872W        W10413  44.211  42.798   1.621
43873W        W10414  10.656  35.105   1.350
43874W        W10415   2.024  10.812   0.499
43875W        W10416  28.427  40.520   3.661
43876W        W10417  21.025  43.536   3.893
43877W        W10418  31.538  41.354   0.978
43878W        W10419  25.500  19.772   2.552
43879W        W10420   2.076   0.395  11.440
43880W        W10421   4.952  41.914  14.912
43881W        W10422   7.005  23.389  10.340
43882W        W10423  11.631  17.638  14.465
43883W        W10424  37.297   2.905  13.839
43884W        W10425   7.372  40.448   2.400
43885W        W10426  36.038  20.637  12.334
43886W        W10427   4.034   6.405   4.624
43887W        W10428  42.888   0.768   2.336
43888W        W10429   4.475  22.015  11.118
43889W        W10430   5.897  26.169   2.165
43890W        W10431   7.424  11.563   2.820
43891W        W10432   5.454   9.303   3.163
43892W        W10433   0.958  24.638  12.910
43893W        W10434   6.508   9.420  10.711
43894W        W10435  29.482  16.599   1.278
43895W        W10436   0.497  44.074   0.784
43896W        W10437  16.314  20.852   2.305
43897W        W10438  18.706  18.568  10.424
43898W        W10439  39.438  43.414  10.927
43899W        W10440   0.525  23.833  12.973
43900W        W10441  21.639   8.764  14.530
43901W        W10442  25.194  42.344  14.736
43902W        W10443  21.730  32.223   4.481
43903W        W10444  35.889  37.279   4.105
43904W        W10445  37.524  38.865   2.741
43905W        W10446   2.963   9.893   4.722
43906W        W10447   5.407  25.782  11.301
43907W        W10448   9.794  32.488   4.833
43908W        W10449  42.692  14.683   5.125
43909W        W10450  14.998   4.888   2.398
43910W        W10451   0.773   1.821   4.174
43911W        W10452  43.936  15.199   1.118
43912W        W10453  15.579  13.034  11.197
43913W        W10454   4.873  33.051   4.866
43914W        W10455   1.528   0.750  12.151
43915W        W10456  14.079   1.375  13.927
43916W        W10457  26.440  19.751  10.075
43917W        W10458  30.636   3.535  14.375
43918W        W10459  10.381   3.250   2.222
43919W        W10460  19.604  19.615  11.396
43920W        W10461  40.497   4.925  14.708
43921W        W10462  42.925  28.806   4.115
43922W        W10463  27.200  38.246   1.973
43923W        W10464   8.309  22.032  10.642
43924W        W10465   4.490  30.905   2.634
43925W        W10466   2.480   7.473  13.612
43926W        W10467  40.014   8.727  12.004
43927W        W10468  22.625  27.682   5.254
43928W        W10469  44.927   3.175  13.446
43929W        W10470  41.696  27.520  12.917
43930W        W10471  19.416   8.919   4.724
43931W        W10472  18.523   9.818  10.581
43932W        W10473  10.188  30.146  11.850
43933W        W10474  13.098  21.818   1.154
43934W        W10475  44.365  40.795  11.598
43935W        W10476  17.676  12.734  10.578
43936W        W10477  17.076  28.738  14.026
43937W        W10478  20.910  27.604  12.340
43938W        W10479   9.137   2.778   3.377
43939W        W10480  42.097  35.129   0.649
43940W        W10481   4.396  16.908  13.857
43941W        W10482   1.156  12.271  14.106
43942W        W10483   5.967  43.085   0.807
43943W        W10484   7.364  33.544   0.694
43944W        W10485   7.792  37.563  10.229
43945W        W10486   2.899  17.310   1.915
43946W        W10487  43.887   0.780   4.419
43947W        W10488  34.906  16.700   1.775
43948W        W10489  19.587  29.769   3.166
43949W        W10490  22.180  19.988  11.066
43950W        W10491  14.160  32.964  13.108
43951W        W10492   3.944  34.432  13.895
43952W        W10493  17.099  32.943  14.792
43953W        W10494  32.066  39.424   4.408
43954W        W10495  14.121   8.446   0.944
43955W        W10496  21.089  10.138   2.711
43956W        W10497  11.584  20.823  13.879
43957W        W10498  37.079  42.457   0.910
43958W        W10499   9.465  30.980   3.302
43959W        W10500   1.805  29.249   4.182
43960W        W10501  36.245  14.460   1.382
43961W        W10502  30.568  13.774  12.395
43962W        W10503  27.050  37.596  13.467
43963W        W10504  27.528  12.828  14.011
43964W        W10505   8.936  25.603   0.581
43965W        W10506   5.265   2.519  12.516
43966W        W10507  23.584   2.991   0.201
43967W        W10508  30.845  34.016   0.230
43968W        W10509  42.291  25.658   1.911
43969W        W10510   1.361  10.796   3.706
43970W        W10511  35.946  42.446  12.966
43971W        W10512  23.960  19.592  14.722
43972W        W10513  40.335  40.541   1.361
43973W        W10514  26.673  42.777   1.339
43974W        W10515   7.739   9.134  12.455
43975W        W10516  37.861  43.276  11.604
43976W        W10517  16.988  43.048   1.965
43977W        W10518  39.522  41.147   1.961
43978W        W10519  39.074  42.959  13.517
43979W        W10520  13.572  25.971   2.868
43980W        W10521   3.564  19.706   0.629
43981W        W10522  44.307  14.519   4.966
43982W        W10523  19.970  17.216  14.909
43983W        W10524  38.933  13.048   5.072
43984W        W10525  28.649  36.501  11.056
43985W        W10526  22.625  44.126   5.016
43986W        W10527   6.312  12.007  12.468
43987W        W10528   8.782  39.178   3.563
43988W        W10529  37.929   8.233   3.239
43989W        W10530  15.632   1.377  13.999
43990W        W10531  15.281  25.532   1.283
43991W        W10532  26.219   1.358  14.830
43992W        W10533  22.062  37.425  10.675
43993W        W10534  40.807  13.185  12.004
43994W        W10535   5.976  17.248   2.848
43995W        W10536  36.143  44.433   3.221
43996W        W10537  35.530   9.954   3.253
43997W        W10538  13.274  34.467   0.267
43998W        W10539  38.155  38.029  13.821
43999W        W10540  39.381  43.718   4.246
44000W        W10541   3.667  20.845  13.845
44001W        W10542   0.099  26.306  14.435
44002W        W10543  42.003  13.653   1.018
44003W        W10544  41.057  40.540  14.313
44004W        W10545  14.553  25.579  12.495
44005W        W10546   7.939  30.383   2.307
44006W        W10547  34.627   3.777  12.794
44007W        W10548  43.412  30.587   3.234
44008W        W10549  24.758  32.570   0.426
44009W        W10550  12.314   2.517  12.396
44010W        W10551  40.995  39.849   3.618
44011W        W10552  40.515   1.526  11.430
44012W        W10553   9.341  13.730   1.462
44013W        W10554  19.325   1.208   2.217
44014W        W10555  27.103  15.108  14.498
44015W        W10556   3.334  22.919   2.439
44016W        W10557  24.901   2.712  12.115
44017W        W10558  18.850  39.994  14.544
44018W        W10559  28.603  12.194   0.009
44019W        W10560  17.164  12.499   1.784
44020W        W10561  28.464  19.112  11.136
44021W        W10562   1.295  24.294  12.504
44022W        W10563  22.938  20.766   3.567
44023W        W10564   6.217  33.128  13.940
44024W        W10565  23.717  38.122   1.755
44025W        W10566  38.989  28.022  11.574
44026W        W10567  17.803   4.498  12.515
44027W        W10568  36.012  18.790  13.407
44028W        W10569  18.553   6.166   1.331
44029W        W10570  35.029  24.141  14.340
44030W        W10571  15.163  34.951   0.418
44031W        W10572  38.377  40.410   1.888
44032W        W10573  12.012  44.942   1.268
44033W        W10574  32.040  41.513   4.055
44034W        W10575  17.799  16.753   1.396
44035W        W10576  32.617  11.820  14.844
44036W        W10577  25.980  44.397  10.653
44037W        W10578   5.174   8.645  13.438
44038W        W10579  13.408  12.824  10.773
44039W        W10580  17.640  40.592   4.707
44040W        W10581   3.307  24.465   2.240
44041W        W10582  21.642   5.288   3.703
44042W        W10583   4.334  31.224   3.565
44043W        W10584  39.976  14.358   3.645
44044W        W10585  22.174  33.365   0.885
44045W        W10586  16.564  26.111   0.354
44046W        W10587   4.770  23.588  11.422
44047W        W10588   9.168  22.546   2.695
44048W        W10589  40.445  19.113  13.464
44049W        W10590  34.390  24.071   4.308
44050W        W10591   0.347  10.360  11.877
44051W        W10592   8.755  26.110   0.443
44052W        W10593  44.013  12.136  11.402
44053W        W10594  29.932   4.493  14.752
44054W        W10595  14.110  14.056  14.368
44055W        W10596  10.410  26.147  13.442
44056W        W10597  16.774  20.144   3.781
44057W        W10598  16.684  22.156   4.533
44058W        W10599  12.980  12.167   3.690
44059W        W10600   3.670  21.942   4.183
44060W        W10601  34.826   3.077   1.869
44061W        W10602  13.249  33.714   3.129
44062W        W10603   3.226  17.652  11.929
44063W        W10604  43.878  30.215   3.961
44064W        W10605   6.257   5.694   1.834
44065W        W10606  37.036  27.273   4.152
44066W        W10607  25.591  39.945   0.816
44067W        W10608  24.920  37.837  11.105
44068W        W10609  21.685   7.694  11.559
44069W        W10610  15.558  44.674  14.589
44070W        W10611   1.266  12.654  14.465
44071W        W10612   4.637   2.987   1.286
44072W        W10613  11.400   6.250   0.477
44073W        W10614   6.678  38.319  10.370
44074W        W10615  38.570  20.025  10.441
44075W        W10616   4.260  21.557   4.994
44076W        W10617  42.436  37.439   0.211
44077W        W10618  36.215  15.433   4.936
44078W        W10619  44.469  37.084   3.208
44079W        W10620  36.362   0.180  14.969
44080W        W10621  26.481  37.993   4.525
44081W        W10622  39.628  35.731  12.497
44082W        W10623  15.726  14.275  10.148
44083W        W10624   4.841  30.620   4.644
44084W        W10625  34.476  21.665  12.084
44085W        W10626  25.946  29.609   1.824
44086W        W10627   1.866  36.835  13.068
44087W        W10628  19.683  35.399  12.855
44088W        W10629  16.783  23.008  12.113
44089W        W10630  22.481  43.108  11.733
44090W        W10631  30.634  22.204   1.261
44091W        W10632   0.629  40.422  11.133
44092W        W10633  31.043   5.890  13.464
44093W        W10634   6.292   7.236  10.781
44094W        W10635  12.331  28.207   2.815
44095W        W10636  17.341   1.955  12.064
44096W        W10637  40.453  14.089   1.774
44097W        W10638  35.082  14.292  11.511
44098W        W10639  20.680   4.015   2.352
44099W        W10640  38.985  19.979   4.025
44100W        W10641  12.656  22.682  12.854
44101W        W10642  23.679  43.196  14.021
44102W        W10643  19.769  22.318   0.312
44103W        W10644  10.006   0.034  11.735
44104W        W10645  29.476  10.611  11.536
44105W        W10646  14.894  19.276   2.297
44106W        W10647  28.231  44.247   4.377
44107W        W10648   0.348  11.137   2.716
44108W        W10649  12.894  28.532  14.870
44109W        W10650  26.743   4.327  13.114
44110W        W10651   7.231  23.328  12.528
44111W        W10652  18.794  34.860  10.701
44112W        W10653  20.450  40.315   0.217
44113W        W10654  30.965  13.239   1.942
44114W        W10655   8.522  41.424   4.589
44115W        W10656  19.571   3.417  12.411
44116W        W10657   5.063  43.794  14.994
44117W        W10658  24.572  35.749  14.459
44118W        W10659  42.108  43.959  14.347
44119W        W10660   9.563  14.720   5.038
44120W        W10661  43.060  10.916   0.512
44121W        W10662  25.450  33.382  11.916
44122W        W10663  16.846  27.104   2.154
44123W        W10664  23.064  16.164   2.839
44124W        W10665  17.188  19.986  11.616
44125W        W10666  28.476   0.372   2.504
44126W        W10667  22.056   7.297  12.610
44127W        W10668   7.165  19.715  13.514
44128W        W10669  43.479  22.173  10.892
44129W        W10670   2.408   8.671   4.506
44130W        W10671  38.904  32.908  13.960
44131W        W10672  38.439   0.192   0.520
44132W        W10673  23.262  35.964   3.272
44133W        W10674  37.641   8.454   4.546
44134W        W10675  38.368  17.968   3.264
44135W        W10676   2.205  26.712   4.224
44136W        W10677  39.014  27.477  10.940
44137W        W10678  36.503   3.853   1.437
44138W        W10679  28.988  33.059  11.219
44139W        W10680  10.756  41.848  11.080
44140W        W10681  11.206  12.916   0.020
44141W        W10682   9.114  20.528   2.064
44142W        W10683  43.495  21.001   5.068
44143W        W10684  14.026  42.502   3.263
44144W        W10685  15.235  21.207   1.327
44145W        W10686  20.266  44.480  10.568
44146W        W10687  19.404   1.337  14.052
44147W        W10688  42.586  12.004   4.391
44148W        W10689   9.227  44.080  13.344
44149W        W10690   4.325  16.872  12.059
44150W        W10691   6.397  43.738   1.223
44151W        W10692  22.815   9.287   4.662
44152W        W10693  32.572  37.847  14.850
44153W        W10694  19.201  25.424   3.626
44154W        W10695   9.555  24.582   1.605
44155W        W10696   6.279   1.617   1.665
44156W        W10697  20.657  18.280   5.017
44157W        W10698  35.392  23.670  13.798
44158W        W10699   4.851  40.226   0.759
44159W        W10700  12.627  19.619  12.371
44160W        W10701  29.594  27.604  13.385
44161W        W10702  23.646   4.622   3.581
44162W        W10703  24.163  14.480   3.421
44163W        W10704   1.434  10.419  14.933
44164W        W10705   1.736   3.242  13.858
44165W        W10706  14.927   2.251   4.485
44166W        W10707  27.006  16.791   4.081
44167W        W10708  16.133  33.067  12.221
44168W        W10709  20.998  26.834  11.429
44169W        W10710  31.643  22.716   1.374
44170W        W10711  44.404  30.392   2.251
44171W        W10712  43.905  31.279  12.630
44172W        W10713  40.803  14.328  10.418
44173W        W10714  31.156  22.948  12.458
44174W        W10715   0.252  41.189   1.338
44175W        W10716  40.042  16.900  13.546
44176W        W10717  32.789   9.946  13.975
44177W        W10718  13.104  36.634  13.859
44178W        W10719  17.788  35.613  11.163
44179W        W10720  17.445  31.245  10.075
44180W        W10721  28.436  22.742  14.483
44181W        W10722   2.219  10.939   1.404
44182W        W10723  12.211   1.775   4.210
44183W        W10724  40.194  35.514   0.460
44184W        W10725   9.615  14.722  14.426
44185W        W10726   5.870  25.683   1.792
44186W        W10727   9.457  41.862  13.857
44187W        W10728  29.491  21.368  11.305
44188W        W10729   5.725  15.954  14.716
44189W        W10730   0.550  18.814   1.322
44190W        W10731   7.089  26.994  10.687
44191W        W10732  44.993   9.355   0.991
44192W        W10733  39.634  40.149  13.481
44193W        W10734  16.893   6.774  14.746
44194W        W10735  33.349  28.187  10.869
44195W        W10736  30.711  39.524  14.293
44196W        W10737  33.609  25.229  11.124
44197W        W10738  27.394   5.265   1.387
44198W        W10739  17.342  22.955  11.377
44199W        W10740  42.850  14.588  13.568
44200W        W10741   8.780  24.526   4.356
44201W        W10742  12.571  40.976   3.366
44202W        W10743  42.816  39.577  14.794
44203W        W10744  11.098  34.709   4.324
44204W        W10745  21.589  14.217  11.604
44205W        W10746  41.548  26.980  14.374
44206W        W10747  13.109  29.501   4.663
44207W        W10748  12.600   5.973  12.448
44208W        W10749  18.470  23.993  10.698
44209W        W10750   8.623  42.166  11.843
44210W        W10751  11.075   3.723  13.562
44211W        W10752   9.850  23.408  12.885
44212W        W10753   7.229   3.387  11.565
44213W        W10754  14.093  17.248  11.863
44214W        W10755  15.552  18.070  12.693
44215W        W10756  39.462  41.975   4.541
44216W        W10757   9.886  23.700  13.820
44217W        W10758  10.599   5.275  12.484
44218W        W10759  20.985  29.957   4.971
44219W        W10760  37.480  27.536   0.869
44220W        W10761  28.585  38.075  11.108
44221W        W10762  19.588  15.557   3.208
44222W        W10763  29.852  25.428  11.252
44223W        W10764  17.287  22.762  12.089
44224W        W10765  34.617  30.401   1.705
44225W        W10766   8.306  40.161   0.668
44226W        W10767   1.177  13.184   3.394
44227W        W10768   2.915  22.361  10.726
44228W        W10769  23.854   8.646   9.940
44229W        W10770  11.115  20.784   4.432
44230W        W10771  21.241  32.115   1.342
44231W        W10772  18.125  38.305   3.866
44232W        W10773  21.963  10.357  14.747
44233W        W10774  28.193  30.277  13.568
44234W        W10775   0.379  16.298  14.746
44235W        W10776  35.076  28.935  13.296
44236W        W10777  24.724  37.565   2.524
44237W        W10778  40.707  16.539  11.487
44238W        W10779  28.497  32.129   2.707
44239W        W10780  28.436  14.723   1.827
44240W        W10781  39.845  11.562   4.093
44241W        W10782   1.826   9.684  10.676
44242W        W10783  24.556  11.392  13.130
44243W        W10784  15.200  38.299  13.605
44244W        W10785  44.501  36.202   5.139
44245W        W10786   2.936  39.386  12.685
44246W        W10787  15.813  31.057   1.483
44247W        W10788  43.011  25.651  14.997
44248W        W10789   3.664  41.394   1.969
44249W        W10790  27.634  20.108  13.849
44250W        W10791   8.774  23.915  11.805
44251W        W10792   8.933  34.420   1.262
44252W        W10793  17.783  44.082  11.070
44253W        W10794  11.609  38.324  12.358
44254W        W10795   1.778  42.453   4.392
44255W        W10796  26.990   3.719  13.898
44256W        W10797  29.691  24.483  10.756
44257W        W10798  22.580  17.928  10.326
44258W        W10799  20.224  31.902  13.391
44259W        W10800  14.647   6.413   2.449
44260W        W10801  32.085  17.125   0.661
44261W        W10802  30.342  19.722   0.714
44262W        W10803   8.129  35.934  13.459
44263W        W10804  25.656  37.195  14.469
44264W        W10805   2.893  14.766   1.363
44265W        W10806  29.638  27.236  10.624
44266W        W10807  10.470  21.506  14.061
44267W        W10808  17.073  15.785   3.919
44268W        W10809   2.754  15.589  10.632
44269W        W10810  32.480  16.590  13.461
44270W        W10811  42.823  11.382   2.258
44271W        W10812  17.690   6.885   0.678
44272W        W10813   8.745   1.229   4.228
44273W        W10814  40.528  18.973   1.207
44274W        W10815  36.588  18.728   2.442
44275W        W10816   5.960   9.403  10.623
44276W        W10817  19.220  20.747   1.149
44277W        W10818  27.001  41.968  11.080
44278W        W10819  23.465  23.233  14.937
44279W        W10820  16.541   8.731   2.729
44280W        W10821  42.048  35.012  11.600
44281W        W10822  22.475   9.824   0.232
44282W        W10823  23.809  38.143  13.573
44283W        W10824  28.776  38.385   3.708
44284W        W10825  22.561  13.811   1.698
44285W        W10826  10.497  12.574  12.698
44286W        W10827  41.556  33.943  13.917
44287W        W10828  12.252  12.453  10.390
44288W        W10829  21.778  27.755  14.473
44289W        W10830  12.350   2.634  11.119
44290W        W10831  18.222  20.457   2.540
44291W        W10832  20.655  25.730   3.683
44292W        W10833   2.463  12.183  12.683
44293W        W10834   5.244  38.108  12.987
44294W        W10835  26.563  19.148   1.648
44295W        W10836  24.640  43.462  11.292
44296W        W10837  35.605  10.271  14.461
44297W        W10838  12.277  43.468   4.666
44298W        W10839  17.077  43.430   2.623
44299W        W10840  17.311  35.648  10.305
44300W        W10841   0.825  43.970  14.408
44301W        W10842  20.680  31.573  14.287
44302W        W10843  30.160  33.979  14.349
44303W        W10844   6.855   1.006   4.969
44304W        W10845  12.140  19.746  12.467
44305W        W10846  41.536   9.407  11.652
44306W        W10847  42.913   6.497   3.360
44307W        W10848  24.524  16.057   0.837
44308W        W10849  25.582  25.794   3.841
44309W        W10850  44.478   2.300   4.154
44310W        W10851  23.181  40.615  13.384
44311W        W10852   8.192   6.183   2.209
44312W        W10853   6.718   2.253   0.521
44313W        W10854  41.805  20.307  14.728
44314W        W10855  43.861   5.019   4.525
44315W        W10856  31.388  43.069   2.252
44316W        W10857  13.770  42.050  10.714
44317W        W10858  40.914  41.702  13.118
44318W        W10859  12.721  31.404  12.093
44319W        W10860   3.737   1.319   1.310
44320W        W10861  35.989   3.143   1.951
44321W        W10862  36.427  25.007  13.064
44322W        W10863  30.330  30.048   0.393
44323W        W10864  41.382  11.626   3.785
44324W        W10865  36.640  25.515  11.504
44325W        W10866  36.740   5.835  11.295
44326W        W10867   4.445   2.933   4.082
44327W        W10868  10.476   1.130   1.818
44328W        W10869   9.827  29.228   4.123
44329W        W10870  31.411   1.863  11.132
44330W        W10871  29.481  37.301   2.256
44331W        W10872  16.736  40.832   3.405
44332W        W10873  23.330  17.618  14.312
44333W        W10874  20.418  21.232   9.949
44334W        W10875  26.012  20.680   4.708
44335W        W10876  16.369  14.685   2.761
44336W        W10877  11.734   7.864  11.857
44337W        W10878  31.146   1.309   0.384
44338W        W10879  38.917  17.261  13.411
44339W        W10880  31.583  11.592   2.732
44340W        W10881   9.776   2.932   4.740
44341W        W10882  22.697  19.618  13.010
44342W        W10883  17.749  11.869  14.937
44343W        W10884   1.792  38.951  11.005
44344W        W10885  29.435   5.227  13.738
44345W        W10886  33.524  26.690   0.335
44346W        W10887  35.587  16.623   2.707
44347W        W10888  24.119  37.623  12.859
44348W        W10889  38.844  28.557  12.554
44349W        W10890  26.467  36.020  11.531
44350W        W10891   8.396   9.086   4.919
44351W        W10892   2.724   2.442  13.446
44352W        W10893  22.620  14.328   1.669
44353W        W10894  32.673  28.480   2.894
44354W        W10895   1.816   5.476  13.829
44355W        W10896  19.307  15.732  12.392
44356W        W10897  10.321   5.147  14.873
44357W        W10898  15.051  16.224   4.139
44358W        W10899  10.827  21.655  10.566
44359W        W10900   5.152  33.030   0.493
44360W        W10901  35.617  35.472   1.281
44361W        W10902  24.492  16.101  12.979
44362W        W10903   1.317  41.348  14.406
44363W        W10904   4.226  26.917   1.996
44364W        W10905  44.162  11.790  11.739
44365W        W10906  38.509  11.779  11.501
44366W        W10907  17.630   2.710  14.978
44367W        W10908  32.947   2.979  11.658
44368W        W10909  28.124  29.421   4.372
44369W        W10910  24.661  25.710  14.983
44370W        W10911   6.533  10.165  12.545
44371W        W10912  10.822   7.847   0.710
44372W        W10913  20.446  32.368   4.817
44373W        W10914  43.258  21.239  14.308
44374W        W10915  38.082  17.527   3.866
44375W        W10916   7.398  41.516  12.915
44376W        W10917  41.718  27.035  14.862
44377W        W10918  31.097   3.263  10.398
44378W        W10919  16.123  20.056   3.761
44379W        W10920  23.008  23.510  11.329
44380W        W10921  25.966   1.895  10.727
44381W        W10922  30.100  25.816   0.061
44382W        W10923  19.030  23.779   3.640
44383W        W10924  12.371  13.687   4.020
44384W        W10925  31.418  28.556   4.943
44385W        W10926  24.163  10.593   0.325
44386W        W10927  28.610  10.893  12.527
44387W        W10928   6.944  30.525  13.163
44388W        W10929  16.804  32.556  11.876
44389W        W10930   6.507  13.559  11.256
44390W        W10931  38.101  43.328  10.751
44391W        W10932  16.070  13.555   1.480
44392W        W10933  22.343  44.489  11.968
44393W        W10934  36.880   0.072  14.961
44394W        W10935  38.514  20.500   1.876
44395W        W10936   5.606  35.732   3.700
44396W        W10937   2.686  15.751  14.514
44397W        W10938  20.066  19.771  11.678
44398W        W10939  12.206   5.330  12.862
44399W        W10940  43.485  42.923  14.217
44400W        W10941  33.897  12.583  13.187
44401W        W10942  25.127  12.506   3.245
44402W        W10943   7.898   6.386   1.678
44403W        W10944  39.444   4.172  11.469
44404W        W10945  25.159  29.793  14.294
44405W        W10946  10.585  11.847   2.480
44406W        W10947   4.817   9.364  12.101
44407W        W10948   0.943  12.628  12.938
44408W        W10949   4.712   2.779   0.818
44409W        W10950  31.485  19.798   2.274
44410W        W10951  20.889  30.239  12.221
44411W        W10952   9.796   1.488   1.266
44412W        W10953  38.665  42.864   0.927
44413W        W10954  17.230  40.499   2.781
44414W        W10955  36.657  42.868   0.522
44415W        W10956  42.978  17.065   1.407
44416W        W10957  14.605  26.158  11.837
44417W        W10958  34.513   7.282   0.221
44418W        W10959  37.099  19.707  10.725
44419W        W10960  25.120  28.204   2.936
44420W        W10961  34.788  36.929   0.185
44421W        W10962  27.556  34.533   0.937
44422W        W10963  29.470  28.207  10.211
44423W        W10964   3.458  24.967  12.974
44424W        W10965   5.304  17.156  14.669
44425W        W10966  35.440  37.547  13.783
44426W        W10967  30.934  18.503   4.754
44427W        W10968  22.068  35.870  12.109
44428W        W10969  20.599  20.861  11.173
44429W        W10970  14.321  24.514  13.384
44430W        W10971  12.263   3.103   4.651
44431W        W10972  33.403   0.177  10.930
44432W        W10973  14.697  30.648  12.918
44433W        W10974  37.404  42.835   3.824
44434W        W10975  15.686   6.382   0.264
44435W        W10976  31.516  38.617  10.740
44436W        W10977   7.224  37.675   3.211
44437W        W10978  29.434   6.970  14.916
44438W        W10979   6.974  42.996  14.871
44439W        W10980  11.601  37.590   2.341
44440W        W10981  39.566   4.726  11.407
44441W        W10982  30.880  10.753   4.620
44442W        W10983  23.169  41.857   0.764
44443W        W10984  19.712  40.275   2.414
44444W        W10985  21.008  43.053   3.648
44445W        W10986  32.372  25.970   0.864
44446W        W10987  23.572  28.654   4.432
44447W        W10988   7.580   0.774   0.154
44448W        W10989  18.739  12.632   2.738
44449W        W10990  30.943  27.972   3.735
44450W        W10991  38.536   8.372   4.580
44451W        W10992   9.603  40.442   0.562
44452W        W10993   0.811  12.896  13.377
44453W        W10994  29.619   2.488  12.630
44454W        W10995  43.972  28.167   0.489
44455W        W10996  22.103  33.013  10.189
44456W        W10997  39.127  39.890   4.792
44457W        W10998  26.690   8.301  11.885
44458W        W10999  35.548  42.759   4.898
44459W        W11000  15.536   4.867  13.015
44460W        W11001  27.655  28.290  14.769
44461W        W11002   3.906  28.974   2.206
44462W        W11003  10.595  17.539  14.431
44463W        W11004   7.864  42.628   0.319
44464W        W11005  11.412   1.813   3.095
44465W        W11006  38.631  44.139  10.895
44466W        W11007  24.762   2.363  14.905
44467W        W11008  37.416   3.627  11.989
44468W        W11009  26.503  44.188   3.183
44469W        W11010  11.478  10.095   3.108
44470W        W11011  23.115  23.970   3.296
44471W        W11012  17.040  30.106  12.357
44472W        W11013  11.120  41.536  10.840
44473W        W11014  17.479  31.187  12.401
44474W        W11015  22.720   7.658   3.308
44475W        W11016   4.738   3.832   2.651
44476W        W11017  27.090   2.382   0.437
44477W        W11018   7.887  34.175   3.695
44478W        W11019  44.144   0.678  12.602
44479W        W11020  30.953   4.789  14.469
44480W        W11021  10.308  10.366  12.613
44481W        W11022  42.885  12.143  13.198
44482W        W11023  21.166  28.047   0.582
44483W        W11024  24.812  18.754   4.700
44484W        W11025  22.625  42.546   3.164
44485W        W11026  30.861  34.405  12.998
44486W        W11027  17.263  13.325   1.408
44487W        W11028   9.352   2.026   1.765
44488W        W11029   2.482  11.889   0.660
44489W        W11030  44.769  26.146   0.705
44490W        W11031  14.112  36.742  10.580
44491W        W11032  22.795  39.238  12.514
44492W        W11033  20.015  37.560  14.791
44493W        W11034  41.330  18.380   0.209
44494W        W11035   5.103  30.372  14.232
44495W        W11036  39.456  24.523   2.232
44496W        W11037  18.206  17.505   3.645
44497W        W11038  24.297  41.110   5.153
44498W        W11039  31.131  38.794   1.448
44499W        W11040  25.108  14.768   3.289
44500W        W11041  24.322  16.580  13.083
44501W        W11042  26.455   8.309  11.418
44502W        W11043  32.936   4.489  11.564
44503W        W11044  19.187  12.631  12.416
44504W        W11045  11.852  13.623   2.152
44505W        W11046   6.802   0.581   4.111
44506W        W11047   5.881  14.136   5.068
44507W        W11048  42.501   6.231  12.121
44508W        W11049   9.581  30.593  11.506
44509W        W11050  42.048  19.157   4.002
44510W        W11051  38.390  23.324  14.062
44511W        W11052   3.376  16.717  12.021
44512W        W11053  12.712   5.393   1.761
44513W        W11054  35.617  38.604   2.832
44514W        W11055  22.520  38.141  14.856
44515W        W11056  17.561  28.063   2.841
44516W        W11057   0.435  29.306   0.291
44517W        W11058  11.106  37.339  11.976
44518W        W11059   0.764  40.477   1.438
44519W        W11060   0.419  13.792   0.223
44520W        W11061  31.777   3.031  12.860
44521W        W11062  21.131  42.303   0.430
44522W        W11063  38.403  44.604   1.194
44523W        W11064  37.561   7.530   0.624
44524W        W11065  39.778  18.761  10.951
44525W        W11066  22.727  34.947   1.824
44526W        W11067  12.362  14.074   1.741
44527W        W11068   7.343   7.274  12.778
44528W        W11069   4.727   0.745   0.927
44529W        W11070  20.041  27.626  10.857
44530W        W11071  26.805   3.838   1.217
44531W        W11072   2.301  19.134  11.392
44532W        W11073  11.231  40.130  14.968
44533W        W11074  39.133  34.962  11.146
44534W        W11075   2.904   3.227   0.204
44535W        W11076   5.390  37.999   2.236
44536W        W11077   2.198  33.034  10.688
44537W        W11078   8.695   0.489  10.714
44538W        W11079  22.189   5.710   3.031
44539W        W11080  26.415   0.804   4.051
44540W        W11081  39.611  35.021  13.337
44541W        W11082  12.669  42.511  13.139
44542W        W11083   8.190  40.680   5.081
44543W        W11084   3.918  19.484   0.351
44544W        W11085  23.116  19.215   0.599
44545W        W11086  40.790  31.499   4.126
44546W        W11087  25.166  13.528   4.625
44547W        W11088  11.825  25.138   1.286
44548W        W11089   5.846  12.205   1.645
44549W        W11090  18.163  10.590  10.666
44550W        W11091   7.531   4.303   2.416
44551W        W11092   1.976   2.646  13.042
44552W        W11093   7.131  27.233   0.712
44553W        W11094  25.387   6.706  13.458
44554W        W11095  28.557  20.622   0.435
44555W        W11096  42.247  32.019  13.934
44556W        W11097  14.140  24.439   3.410
44557W        W11098  28.078  18.737  12.373
44558W        W11099  15.086   5.342  10.486
44559W        W11100   3.948  13.761   1.384
44560W        W11101  39.288  11.310  13.381
44561W        W11102  19.596  19.208   0.231
44562W        W11103  32.150  28.374  10.768
44563W        W11104  10.789  18.539  10.995
44564W        W11105  21.169  31.995  11.477
44565W        W11106  37.685  32.382  13.919
44566W        W11107   1.023   0.956   2.323
44567W        W11108  38.795   2.496  13.955
44568W        W11109  19.002  30.233  12.867
44569W        W11110  24.749  33.170  13.551
44570W        W11111  31.771  20.411   1.765
44571W        W11112   5.466   0.367  11.544
44572W        W11113   1.230  15.171  14.938
44573W        W11114  36.128  44.021  10.665
44574W        W11115  19.083  25.522   0.260
44575W        W11116  22.580  15.318   4.767
44576W        W11117  15.771  24.923  10.894
44577W        W11118  31.890   6.436   1.906
44578W        W11119  44.347  26.492  11.519
44579W        W11120   5.288  34.859   3.382
44580W        W11121  34.357  43.177  14.879
44581W        W11122  29.047  18.141   4.088
44582W        W11123  19.782  20.841  13.611
44583W        W11124   7.970  20.070   2.883
44584W        W11125  26.346  30.362   5.041
44585W        W11126  43.843  25.730   3.257
44586W        W11127  26.873  22.114   0.314
44587W        W11128   1.402   1.248   1.415
44588W        W11129   3.367  15.825  14.908
44589W        W11130  39.546  29.159   0.713
44590W        W11131  16.741   5.170  11.135
44591W        W11132   5.898  41.407   2.440
44592W        W11133  15.160  12.507   0.727
44593W        W11134  12.811  43.766   1.349
44594W        W11135   9.791  15.091   4.412
44595W        W11136  25.027  39.572  12.500
44596W        W11137  29.564  32.380   3.164
44597W        W11138  15.109  28.713  11.628
44598W        W11139  20.222  41.819  14.378
44599W        W11140  15.129  26.974   1.039
44600W        W11141   4.943  30.839   5.139
44601W        W11142  16.484  39.360   2.684
44602W        W11143  37.856   3.204   2.148
44603W        W11144  14.066  18.792   4.360
44604W        W11145   6.826  23.255   3.567
44605W        W11146  23.559  29.334   1.832
44606W        W11147  25.224   7.265   4.161
44607W        W11148  30.014  15.814   1.265
44608W        W11149  23.535  14.769   1.842
44609W        W11150  12.617  29.466   3.313
44610W        W11151  40.319   0.038  13.903
44611W        W11152  23.090  26.147  11.637
44612W        W11153  17.002   9.773   3.833
44613W        W11154  30.490  31.319   3.499
44614W        W11155  15.857  11.876  10.988
44615W        W11156  38.764  32.178   1.713
44616W        W11157  27.262  33.161  11.204
44617W        W11158  14.572  16.139  14.525
44618W        W11159   9.861   4.336   1.292
44619W        W11160  26.962   6.626   4.118
44620W        W11161  40.893  16.797  14.197
44621W        W11162  23.027  22.696  11.915
44622W        W11163  23.658  24.995  14.514
44623W        W11164  21.990  34.614   2.882
44624W        W11165  37.501   9.074  12.096
44625W        W11166  14.002   9.285  14.138
44626W        W11167   8.608  15.785   3.762
44627W        W11168   6.939  32.884  12.986
44628W        W11169  13.703  16.896  14.244
44629W        W11170   6.732   0.082  12.917
44630W        W11171   8.658  25.001   2.865
44631W        W11172  34.978   0.222  13.448
44632W        W11173  36.952  39.721   4.171
44633W        W11174   3.286   9.234   4.073
44634W        W11175  43.104  27.988   2.739
44635W        W11176  35.099  39.899   3.349
44636W        W11177  41.560   5.724   2.757
44637W        W11178  34.985  11.923   4.683
44638W        W11179  13.725   8.790   1.059
44639W        W11180  44.568   9.868  13.345
44640W        W11181  24.488  11.529   4.526
44641W        W11182  34.163  12.336   5.615
44642W        W11183  35.500  15.788   0.443
44643W        W11184   0.446  17.566   0.360
44644W        W11185  33.571  11.501   0.704
44645W        W11186  24.229   6.866   5.031
44646W        W11187  34.029  42.864   0.980
44647W        W11188  36.891   1.307   1.020
44648W        W11189  24.454  18.775  12.398
44649W        W11190   5.855   9.295  13.188
44650W        W11191  42.733  34.845  13.913
44651W        W11192  14.635  35.494  11.579
44652W        W11193  29.911  39.977   3.431
44653W        W11194  33.500  42.964  11.461
44654W        W11195   8.507  13.061  14.861
44655W        W11196   2.201  39.007  13.836
44656W        W11197  28.462  35.469   4.847
44657W        W11198   3.856  43.842   3.264
44658W        W11199  12.212  28.552   3.220
44659W        W11200  17.015  20.933  13.421
44660W        W11201   5.635  29.892  11.602
44661W        W11202  15.033  34.119   0.188
44662W        W11203  18.717  30.926   0.093
44663W        W11204  42.869  24.265  12.955
44664W        W11205   5.479  11.752   1.435
44665W        W11206  23.085  16.978  11.972
44666W        W11207  42.390  14.697   3.729
44667W        W11208  43.365   4.276   2.951
44668W        W11209  39.950  32.040  13.210
44669W        W11210  31.348  40.125   3.698
44670W        W11211  40.613  32.994  13.888
44671W        W11212   1.843  15.778   0.703
44672W        W11213   1.678  30.536  13.572
44673W        W11214   6.278   5.812  13.926
44674W        W11215  35.536  41.825   4.463
44675W        W11216   1.611  13.389   3.677
44676W        W11217  21.562  17.308  10.623
44677W        W11218  19.319   8.646   2.443
44678W        W11219   6.946  11.265  10.698
44679W        W11220  43.767  17.236  11.625
44680W        W11221  23.544  30.648  14.295
44681W        W11222  35.573  32.643  14.920
44682W        W11223  38.852   9.122  13.033
44683W        W11224   7.454   9.674   1.939
44684W        W11225   5.294  21.277  11.013
44685W        W11226   8.712  14.437   5.041
44686W        W11227  37.098  37.583  12.482
44687W        W11228   3.283  26.411   1.581
44688W        W11229  13.254  34.661  13.860
44689W        W11230  42.824   3.281  11.461
44690W        W11231   6.814  37.499  11.612
44691W        W11232  12.253  38.937   3.248
44692W        W11233  29.958  42.076  12.087
44693W        W11234  13.226  18.712   4.593
44694W        W11235  32.249  42.875  12.008
44695W        W11236  36.593  35.701   5.096
44696W        W11237  15.307  10.344   3.614
44697W        W11238  22.550  17.131   2.295
44698W        W11239  19.154  17.778  12.234
44699W        W11240  43.193  32.353  11.584
44700W        W11241   8.273  27.091  13.496
44701W        W11242   2.741  17.913   1.654
44702W        W11243   9.253  31.372   3.041
44703W        W11244  13.040   8.476  14.313
44704W        W11245  24.075  31.616   3.779
44705W        W11246   2.218  24.247   0.813
44706W        W11247  41.429  10.819   4.412
44707W        W11248  31.988   6.982   3.281
44708W        W11249  28.584  31.862  11.016
44709W        W11250  17.344   1.295  10.706
44710W        W11251   7.880  13.758  14.375
44711W        W11252  34.387  30.580   4.734
44712W        W11253  29.944  12.602  14.673
44713W        W11254  25.403   2.894  12.900
44714W        W11255  14.059  37.523  12.687
44715W        W11256  25.919  16.725   4.655
44716W        W11257  42.374  20.033   2.601
44717W        W11258  31.637  41.504   3.283
44718W        W11259  41.263   3.175  13.906
44719W        W11260  32.464  32.034  10.916
44720W        W11261  10.124  21.190   0.805
44721W        W11262   9.156   7.205   3.760
44722W        W11263   4.333   5.708  11.391
44723W        W11264  32.674  11.558  11.503
44724W        W11265  16.773  30.030   2.619
44725W        W11266  23.717  42.368   1.341
44726W        W11267  36.474  11.561   1.203
44727W        W11268   5.841   6.265   0.200
44728W        W11269  10.058  26.652   3.219
44729W        W11270  35.962  33.276  13.039
44730W        W11271  16.115  43.809   4.527
44731W        W11272  32.456  29.894   3.556
44732W        W11273   2.410  12.802  11.565
44733W        W11274  22.230  15.536   2.807
44734W        W11275  44.633  17.744  11.517
44735W        W11276   2.456  35.043  10.691
44736W        W11277  44.959  39.978   0.738
44737W        W11278  21.691  16.287   2.873
44738W        W11279   4.058  14.065   2.644
44739W        W11280  42.921  44.821  11.594
44740W        W11281   7.410  31.622  10.696
44741W        W11282  33.296  10.342  13.158
44742W        W11283  21.978  23.153   2.055
44743W        W11284  39.538  43.590  10.440
44744W        W11285  41.092   3.945  11.526
44745W        W11286  40.350   3.443  14.401
44746W        W11287  12.538  31.320  14.265
44747W        W11288  24.614  43.306  12.143
44748W        W11289  12.826  12.997  13.782
44749W        W11290  29.509   3.760  14.056
44750W        W11291  22.603  33.286  14.388
44751W        W11292  36.543   7.492  12.291
44752W        W11293  42.458   0.773   0.946
44753W        W11294  38.829   1.401  12.531
44754W        W11295  18.201  32.473  10.629
44755W        W11296   2.783  10.654  12.375
44756W        W11297  23.629  44.389  10.571
44757W        W11298  31.858   0.088   3.778
44758W        W11299   2.660  18.830  12.580
44759W        W11300  13.664   2.202  11.989
44760W        W11301  28.060  16.809  13.950
44761W        W11302  28.431  21.096  10.318
44762W        W11303  42.010  24.724  11.549
44763W        W11304  25.473   1.784   2.994
44764W        W11305   6.871  18.379  13.070
44765W        W11306   6.667  35.880   2.187
44766W        W11307   0.034   9.408   0.483
44767W        W11308  41.777  12.430  13.212
44768W        W11309  43.453  19.121  12.553
44769W        W11310  13.621  13.683  10.846
44770W        W11311  18.836  13.915  14.979
44771W        W11312  42.017   8.501  11.825
44772W        W11313  38.578  39.937   1.283
44773W        W11314   7.239  39.744  13.493
44774W        W11315  26.235  25.223   3.097
44775W        W11316  18.483  17.800  11.623
44776W        W11317  32.461  28.555   4.325
44777W        W11318  21.646  37.032   4.612
44778W        W11319   4.961   3.503   3.149
44779W        W11320  14.398  42.468  13.797
44780W        W11321   9.746  20.332  14.004
44781W        W11322  44.331  22.882  13.385
44782W        W11323  36.996  30.616  11.522
44783W        W11324  29.259  40.871  14.136
44784W        W11325  35.597  25.117  13.181
44785W        W11326  35.738  27.483  14.847
44786W        W11327  21.865  42.702  13.350
44787W        W11328  44.703  11.435   0.428
44788W        W11329   3.847  29.404  11.777
44789W        W11330  44.305   1.264   3.856
44790W        W11331  25.402  10.011  14.305
44791W        W11332  20.697  25.765   0.945
44792W        W11333   9.048   2.389  12.450
44793W        W11334   6.199  16.081  10.793
44794W        W11335   2.388  32.618   2.121
44795W        W11336   5.176  38.002   1.322
44796W        W11337  42.889  44.895   0.319
44797W        W11338   8.941  30.523  11.115
44798W        W11339   6.056  33.398   0.887
44799W        W11340   0.212  20.933   3.372
44800W        W11341  11.853  15.749   2.800
44801W        W11342  33.181   4.064   3.384
44802W        W11343  12.819  16.750  13.898
44803W        W11344   0.455  14.107   2.427
44804W        W11345  18.552   3.108  14.699
44805W        W11346  24.204  22.700  11.082
44806W        W11347  33.427  44.380  10.583
44807W        W11348  15.107  27.616  12.382
44808W        W11349  27.032  30.978  14.227
44809W        W11350   7.888  33.450   1.400
44810W        W11351  31.090  39.799  10.796
44811W        W11352   3.929  29.802   3.314
44812W        W11353   9.388  30.308  14.317
44813W        W11354  40.049  35.841  10.495
44814W        W11355  14.642  27.456  14.268
44815W        W11356  28.259  42.369   4.789
44816W        W11357  43.246  30.859   2.231
44817W        W11358  42.291   5.767   2.510
44818W        W11359   7.226  10.081  13.121
44819W        W11360  22.098   3.760  11.973
44820W        W11361  35.059  22.954   4.541
44821W        W11362  37.962  34.561   2.198
44822W        W11363  32.243  44.427   4.174
44823W        W11364  35.419   5.480  12.584
44824W        W11365  30.330  40.772   2.400
44825W        W11366  37.998  30.409   3.741
44826W        W11367  44.894   3.223   3.149
44827W        W11368  20.925   5.171   2.848
44828W        W11369   8.204   5.328   2.112
44829W        W11370  38.859   1.819  11.387
44830W        W11371  21.177  37.750  12.824
44831W        W11372  12.112   0.408   1.474
44832W        W11373  10.187  18.642  10.586
44833W        W11374  18.844  18.541   0.464
44834W        W11375  22.060  33.198   1.705
44835W        W11376  44.882   0.931  10.988
44836W        W11377  17.298   0.495  11.935
44837W        W11378   8.321  26.096  10.323
44838W        W11379  25.077  11.256  11.699
44839W        W11380   3.869  35.165  11.969
44840W        W11381  33.569  40.339  11.451
44841W        W11382   7.589  29.048  11.033
44842W        W11383  12.645  17.228  13.852
44843W        W11384   1.902  32.848   2.185
44844W        W11385   5.339   7.293   2.211
44845W        W11386  23.171  33.406   2.596
44846W        W11387  26.123  40.605  14.412
44847W        W11388  36.165  20.690  10.595
44848W        W11389  42.942   8.239   0.927
44849W        W11390  29.553  41.292  14.869
44850W        W11391  14.732   2.288  14.197
44851W        W11392  31.916  24.790  11.090
44852W        W11393  26.951   9.701  10.547
44853W        W11394   8.368  26.948  12.987
44854W        W11395  33.284  38.324  13.465
44855W        W11396  29.431   3.663  11.114
44856W        W11397   5.795  23.679  12.067
44857W        W11398  42.638  16.577   0.715
44858W        W11399  32.115  31.412   1.748
44859W        W11400  31.133  29.151  11.460
44860W        W11401   0.022   6.985   0.155
44861W        W11402  31.014  16.261   2.385
44862W        W11403  13.391  14.588   3.120
44863W        W11404  18.040   5.278  12.422
44864W        W11405   0.390  20.439  10.840
44865W        W11406  28.567   0.316   3.023
44866W        W11407   4.797   5.714   2.670
44867W        W11408  44.548  16.707   3.925
44868W        W11409  21.703  28.510   1.830
44869W        W11410   1.431  29.253  14.370
44870W        W11411  19.947  20.009  12.628
44871W        W11412   5.271  15.812  14.486
44872W        W11413  26.235  32.293  12.353
44873W        W11414  32.622  30.989  13.538
44874W        W11415  36.957  19.166   3.222
44875W        W11416  29.462  17.058   2.192
44876W        W11417  29.522   2.378   4.734
44877W        W11418  18.829  33.528   4.517
44878W        W11419   1.098  28.907   2.538
44879W        W11420  17.996  18.225  10.543
44880W        W11421  13.383  37.005   2.279
44881W        W11422  32.525  35.296   3.769
44882W        W11423   4.727  44.036   1.691
44883W        W11424  38.496   9.587   1.428
44884W        W11425   5.699  39.056  14.375
44885W        W11426  25.643  40.562  14.166
44886W        W11427   4.231  20.274  14.310
44887W        W11428  35.036  13.422  11.015
44888W        W11429  37.308  41.956   1.725
44889W        W11430  15.386  38.880  11.948
44890W        W11431  28.597  29.129  14.486
44891W        W11432  25.515  30.518   3.227
44892W        W11433  28.416   7.797  14.372
44893W        W11434   6.139  44.725   4.608
44894W        W11435  38.881  10.621   1.816
44895W        W11436  34.534  11.173  11.931
44896W        W11437  37.539   1.851  14.013
44897W        W11438  40.686   8.859  10.667
44898W        W11439  30.983   6.933   1.407
44899W        W11440  17.276   0.975   3.224
44900W        W11441  38.442  44.452  10.117
44901W        W11442   8.884  12.307   0.252
44902W        W11443  29.187   0.889   0.798
44903W        W11444  11.473  12.188   3.531
44904W        W11445  37.964  41.551   3.299
44905W        W11446  22.946  16.809   3.331
44906W        W11447  13.512  31.628   0.222
44907W        W11448   4.890  25.498   0.895
44908W        W11449  25.590  27.033   1.182
44909W        W11450  41.871   5.226   4.179
44910W        W11451  32.020  27.677   2.788
44911W        W11452  12.530  18.098   1.270
44912W        W11453  31.606   6.772  11.822
44913W        W11454  18.797   3.953  14.373
44914W        W11455  38.835  21.270  11.213
44915W        W11456  30.023  30.384   2.330
44916W        W11457  28.584  40.818   2.686
44917W        W11458  12.154  22.198   4.577
44918W        W11459   6.956  35.033  10.644
44919W        W11460  28.189  33.042   4.121
44920W        W11461  41.320  41.613   1.503
44921W        W11462   6.823  31.395   2.327
44922W        W11463  27.200  18.709   1.661
44923W        W11464  44.466  43.825   4.571
44924W        W11465  33.304  23.096  13.437
44925W        W11466  25.758   7.195  11.448
44926W        W11467   9.906  24.817  11.137
44927W        W11468   7.886   3.228   0.239
44928W        W11469  10.829  36.106   4.560
44929W        W11470  34.110   3.971   5.108
44930W        W11471  20.702  30.933  13.002
44931W        W11472   1.714  26.109  13.966
44932W        W11473  15.886   1.454   2.743
44933W        W11474  21.174   4.022  11.439
44934W        W11475   4.707  30.103  12.879
44935W        W11476  42.462  20.470  13.295
44936W        W11477  14.593  23.470  14.949
44937W        W11478  10.423   1.725   0.252
44938W        W11479   3.630  37.897   2.705
44939W        W11480  24.063  24.161  13.375
44940W        W11481  35.904  13.795  12.052
44941W        W11482  12.403  35.264  13.770
44942W        W11483   0.136  36.607  10.856
44943W        W11484  26.598  25.569  14.954
44944W        W11485  42.359   4.997  14.418
44945W        W11486  36.811  36.188   3.651
44946W        W11487   9.604  34.558   1.807
44947W        W11488  26.591   4.702   2.856
44948W        W11489  15.526  27.107   4.588
44949W        W11490  31.345  24.157   1.864
44950W        W11491  28.469  19.025   1.333
44951W        W11492  17.810   9.144   1.269
44952W        W11493  10.890  41.530   1.317
44953W        W11494   6.934  40.204  12.909
44954W        W11495  21.178   7.299  14.618
44955W        W11496   3.686  18.509  13.472
44956W        W11497  19.157  17.135  12.411
44957W        W11498  37.334  39.968   0.837
44958W        W11499   4.311  35.163   1.843
44959W        W11500  24.605   6.858  12.913
44960W        W11501  22.242  25.213   0.359
44961W        W11502  38.487   5.244  10.755
44962W        W11503  18.190  31.005   0.950
44963W        W11504   0.959  34.901  14.383
44964W        W11505  36.310   5.228   0.019
44965W        W11506   2.792  19.506   0.261
44966W        W11507  12.858  41.279  11.079
44967W        W11508  36.877   4.788   4.240
44968W        W11509  25.900  19.064   1.993
44969W        W11510   5.747  38.869   0.302
44970W        W11511  32.620   2.875  14.334
44971W        W11512  21.759  25.022   0.159
44972W        W11513  22.892  22.553   0.461
44973W        W11514  18.591  23.963  11.556
44974W        W11515  37.789   3.495   0.789
44975W        W11516  43.659   4.364   0.015
44976W        W11517   0.387   5.875  12.397
44977W        W11518  28.686  37.522   5.241
44978W        W11519  42.543  33.930   2.410
44979W        W11520  43.418  39.841   1.746
44980W        W11521  35.030  38.774   3.752
44981W        W11522  43.260  11.644   2.019
44982W        W11523  39.119  33.689  12.770
44983W        W11524  32.952  38.523   3.610
44984W        W11525  33.899  39.739  12.021
44985W        W11526  36.410  43.236  12.588
44986W        W11527   1.434  44.405   2.222
44987W        W11528  41.897  38.300   2.207
44988W        W11529  42.719  31.758   2.162
44989W        W11530  13.342  29.232   2.834
44990W        W11531   0.470  12.572   0.280
44991W        W11532   5.522   5.886   3.711
44992W        W11533  34.489  43.429   4.654
44993W        W11534  37.845  12.620  14.452
44994W        W11535  30.348  14.055  14.518
44995W        W11536  17.729   3.486  14.336
44996W        W11537  10.401   9.872  12.500
44997W        W11538  29.275  43.969   3.192
44998W        W11539   2.348  14.663  12.006
44999W        W11540  33.412  33.554  12.425
45000W        W11541  41.448  40.022   2.269
45001W        W11542  31.364  28.367   2.735
45002W        W11543  12.245   3.753   2.647
45003W        W11544   7.363   6.079  14.724
45004W        W11545  19.226  25.631   1.659
45005W        W11546  31.967  35.950   0.521
45006W        W11547   3.910  10.617  13.823
45007W        W11548  23.540  30.136  11.950
45008W        W11549  44.517  41.239  12.378
45009W        W11550  28.937  18.930  14.827
45010W        W11551  20.604  42.320   3.197
45011W        W11552  21.266  23.628   1.853
45012W        W11553   3.711  40.058   1.375
45013W        W11554   6.140  34.110   3.159
45014W        W11555  21.381  44.379   1.709
45015W        W11556   2.985   6.807  12.647
45016W        W11557  35.900  21.995  13.558
45017W        W11558  21.431  39.158   4.873
45018W        W11559   9.346  33.457   3.396
45019W        W11560  17.551   4.174   0.790
45020W        W11561  43.833  31.862  14.040
45021W        W11562  29.164   0.875   1.700
45022W        W11563  38.467  44.263  12.290
45023W        W11564  20.196   0.607  13.572
45024W        W11565  29.265  28.611   0.046
45025W        W11566  42.296  31.587   4.383
45026W        W11567   3.500  20.637  14.582
45027W        W11568  20.687  14.857   0.739
45028W        W11569  20.261  13.567  11.670
45029W        W11570  21.158  30.459   0.007
45030W        W11571  16.708  44.242  14.959
45031W        W11572  27.167  14.565  14.918
45032W        W11573   5.869   0.537  14.435
45033W        W11574   4.494  41.457  10.987
45034W        W11575  36.449   2.030   3.998
45035W        W11576   6.710   7.490  11.645
45036W        W11577  39.498  28.054   0.291
45037W        W11578  28.460   7.839  11.599
45038W        W11579  10.919  40.449  12.477
45039W        W11580  24.256  35.442   3.580
45040W        W11581   0.580  10.493   3.217
45041W        W11582  27.978   8.513   2.146
45042W        W11583  30.903  36.957  11.124
45043W        W11584  40.352  18.630   4.529
45044W        W11585  31.010  44.871   2.422
45045W        W11586  28.848  15.380  11.243
45046W        W11587  38.443  28.348  11.967
45047W        W11588  16.761  23.023   3.790
45048W        W11589  30.618  33.616   0.979
45049W        W11590  35.911  28.140  13.703
45050W        W11591  16.858  17.501   3.996
45051W        W11592   9.666  40.514   0.039
45052W        W11593  28.936  19.312   0.343
45053W        W11594  31.642  29.273  11.565
45054W        W11595  22.244   2.804  14.815
45055W        W11596  12.556  35.500   3.335
45056W        W11597  38.214  11.265   2.162
45057W        W11598  35.355  39.511  12.110
45058W        W11599  25.129  43.754  12.856
45059W        W11600  34.880  31.902   2.196
45060W        W11601  29.905   0.287  12.896
45061W        W11602  39.998   2.275   2.791
45062W        W11603  29.368  31.353   4.974
45063W        W11604  39.459  13.144   3.383
45064W        W11605  26.636  22.099  10.019
45065W        W11606  29.247  16.454  12.716
45066W        W11607  43.288  38.700   0.797
45067W        W11608  41.795  23.347   1.759
45068W        W11609  10.724  21.618  12.372
45069W        W11610  29.545  17.462  10.154
45070W        W11611   2.183  42.430   0.575
45071W        W11612  11.174   3.435  14.394
45072W        W11613  44.021   8.586  14.971
45073W        W11614  16.709  44.263   0.840
45074W        W11615   8.777  13.249  10.605
45075W        W11616  22.615  40.696   4.627
45076W        W11617  44.721  30.122  12.599
45077W        W11618  28.779  25.137   3.117
45078W        W11619  15.367  40.496  11.776
45079W        W11620  38.314  19.193   0.870
45080W        W11621  24.069   9.826  13.877
45081W        W11622  27.176  21.920  14.911
45082W        W11623  21.442   8.957   3.323
45083W        W11624  44.975   2.644   1.112
45084W        W11625  42.870  17.396  11.625
45085W        W11626  30.564   1.575  11.272
45086W        W11627  44.192  24.494   3.691
45087W        W11628  35.003  24.881   3.664
45088W        W11629  23.828  25.887  14.839
45089W        W11630  21.609  18.286   3.518
45090W        W11631   6.141  31.648  12.427
45091W        W11632  34.804  10.652  12.250
45092W        W11633  26.171   1.280  12.515
45093W        W11634  25.272  10.457  13.425
45094W        W11635  17.421  13.552   4.365
45095W        W11636  21.174  14.887   1.694
45096W        W11637   9.634   2.178  14.785
45097W        W11638   2.038  14.266   1.238
45098W        W11639   8.780  37.174  10.723
45099W        W11640  34.856  41.801  10.532
45100W        W11641  40.294   7.865  14.802
45101W        W11642   5.487  25.429  13.099
45102W        W11643  26.562   2.031  10.920
45103W        W11644  26.591  28.698  10.386
45104W        W11645   5.780   3.931  13.888
45105W        W11646  43.058  41.373  11.084
45106W        W11647  15.065  33.852   5.160
45107W        W11648  20.692  15.633  11.075
45108W        W11649  30.747  42.970  11.996
45109W        W11650  13.827  30.709  12.929
45110W        W11651  35.474  15.843  11.628
45111W        W11652  33.754   1.338   5.059
45112W        W11653  14.509  14.521   9.968
45113W        W11654  31.273  40.374  11.646
45114W        W11655   0.207  42.989  11.488
45115W        W11656  29.406  34.210  12.956
45116W        W11657  24.899  10.142  13.113
45117W        W11658  41.356  31.747  12.955
45118W        W11659  23.586   4.982   1.650
45119W        W11660  24.780  43.135  11.684
45120W        W11661   0.063   1.394  11.238
45121W        W11662  36.939   1.441  13.846
45122W        W11663  31.118  35.576   0.287
45123W        W11664   8.796  17.804   4.434
45124W        W11665  43.102   0.263  10.915
45125W        W11666  10.358  21.708   4.622
45126W        W11667  11.180  10.467   1.640
45127W        W11668  38.286   6.215  11.027
45128W        W11669   3.457  35.648   4.596
45129W        W11670  22.449  11.354  12.591
45130W        W11671  26.434  28.558  13.887
45131W        W11672  36.164   5.286   4.278
45132W        W11673  13.836   0.007  13.623
45133W        W11674  30.659  12.517   1.390
45134W        W11675  19.273  28.078  10.799
45135W        W11676  39.491   1.521  12.968
45136W        W11677  40.325   1.775  12.576
45137W        W11678  42.129  22.549   4.801
45138W        W11679  26.270   9.645   3.855
45139W        W11680   5.115  35.763   4.979
45140W        W11681  15.329  33.752   0.855
45141W        W11682  21.711  13.298  11.593
45142W        W11683  19.107  30.524   4.326
45143W        W11684  36.346   1.018   2.841
45144W        W11685  16.548  39.077   2.214
45145W        W11686  23.986  28.833   1.311
45146W        W11687  26.507  20.073   0.227
45147W        W11688  20.533   6.257   3.712
45148W        W11689  18.340  12.492   0.350
45149W        W11690  35.338  24.754   0.674
45150W        W11691  24.306  22.303  14.910
45151W        W11692  34.546  24.030   2.801
45152W        W11693   7.813  36.872  12.818
45153W        W11694  25.589  15.186  11.998
45154W        W11695  22.685   0.875  14.584
45155W        W11696   5.985  40.696  11.808
45156W        W11697   6.322  13.682   2.664
45157W        W11698   9.583  28.119  10.631
45158W        W11699  15.241  11.898   1.876
45159W        W11700  27.234  29.052   1.254
45160W        W11701  13.744   4.201  10.427
45161W        W11702  27.976  33.568   4.329
45162W        W11703  25.709  23.530   5.049
45163W        W11704  28.610   8.157  13.990
45164W        W11705   6.841  13.291   4.498
45165W        W11706  29.762   0.611  11.153
45166W        W11707  14.824  16.040  12.512
45167W        W11708  42.819   7.628   5.049
45168W        W11709  36.453   4.382   1.347
45169W        W11710  11.129  21.570   2.627
45170W        W11711   5.310   8.953   4.818
45171W        W11712  41.570  19.068  11.344
45172W        W11713  42.209  23.503   0.453
45173W        W11714   1.521  15.120   2.587
45174W        W11715  28.117  40.974   0.224
45175W        W11716  41.070   6.824  11.988
45176W        W11717  37.868  30.935   4.575
45177W        W11718   1.379  44.188   1.155
45178W        W11719  40.907  35.004   2.623
45179W        W11720  12.201  34.441  13.103
45180W        W11721  39.119  26.259   1.736
45181W        W11722  44.304  27.511   2.472
45182W        W11723  29.284  14.508   0.989
45183W        W11724  17.099  39.363   1.309
45184W        W11725  36.605  24.097  11.112
45185W        W11726  16.204  14.113   2.482
45186W        W11727  26.168  36.846  14.485
45187W        W11728   9.771   8.091   4.595
45188W        W11729   2.904  21.173   2.794
45189W        W11730  43.359  22.542  11.236
45190W        W11731  39.268  15.159  11.147
45191W        W11732  11.704  32.544   2.531
45192W        W11733   8.445  24.615  14.941
45193W        W11734  17.698  10.808  12.937
45194W        W11735  25.482  36.061   1.359
45195W        W11736   6.182  23.195  14.711
45196W        W11737  35.977  30.561   2.882
45197W        W11738   4.401  27.311   4.524
45198W        W11739   7.301  44.951   2.614
45199W        W11740  18.675   4.383   1.440
45200W        W11741   0.445  19.325  11.507
45201W        W11742  37.624  11.106  12.104
45202W        W11743  32.775  29.004  13.668
45203W        W11744  13.137  17.526  13.783
45204W        W11745   3.353  16.308  10.587
45205W        W11746  26.186  34.357  13.543
45206W        W11747  10.155   2.045  10.639
45207W        W11748  34.207  14.648  14.752
45208W        W11749   5.204  37.335  14.258
45209W        W11750   0.773  43.128   4.138
45210W        W11751  12.266  31.600   3.257
45211W        W11752  15.263   5.298   0.262
45212W        W11753  38.000   3.854   5.583
45213W        W11754   2.106  29.701  12.846
45214W        W11755  31.136  39.900  12.479
45215W        W11756  34.738  43.964   0.177
45216W        W11757  14.790  29.381  10.656
45217W        W11758  30.921  33.961   2.921
45218W        W11759  14.574  39.637   3.192
45219W        W11760  26.094  22.964  12.048
45220W        W11761   8.686  35.125  12.605
45221W        W11762   5.956  10.129   4.532
45222W        W11763  43.826   9.203   4.819
45223W        W11764  17.770  21.637   1.826
45224W        W11765  44.304  10.257   2.678
45225W        W11766  15.243  13.199  10.799
45226W        W11767   2.851  26.574   4.827
45227W        W11768  10.846  33.386  14.328
45228W        W11769  13.394  31.055   2.352
45229W        W11770  26.976  14.341  12.898
45230W        W11771  35.930  39.781   2.797
45231W        W11772  28.488  42.163  12.129
45232W        W11773  30.894  30.679  14.854
45233W        W11774  27.788   9.074   2.341
45234W        W11775   8.697   6.162  10.799
45235W        W11776  21.160  24.694   0.234
45236W        W11777  19.380  31.105  11.645
45237W        W11778  38.733  25.253  11.936
45238W        W11779  20.239  19.335   4.857
45239W        W11780  16.731  26.431  12.897
45240W        W11781  30.976  26.035   0.721
45241W        W11782  18.283  27.497   5.002
45242W        W11783  12.668  44.429  10.315
45243W        W11784  31.928  24.938   3.762
45244W        W11785  10.830  16.182   1.266
45245W        W11786   6.366  37.183  14.462
45246W        W11787  36.549  44.924  10.654
45247W        W11788  32.055  34.053  10.900
45248W        W11789  12.807   2.857   3.963
45249W        W11790  21.104  41.404   1.994
45250W        W11791  44.996  39.097   3.729
45251W        W11792  44.792  22.453  11.134
45252W        W11793  22.343  22.079  11.864
45253W        W11794   3.502  28.922   3.227
45254W        W11795  19.055   8.639   0.402
45255W        W11796   7.193  43.750  12.571
45256W        W11797   2.175  36.890  14.304
45257W        W11798  23.146   1.347  11.494
45258W        W11799   5.785  24.617  14.829
45259W        W11800  17.761  20.577  13.598
45260W        W11801  22.468  38.929  14.211
45261W        W11802  11.670   7.823   0.161
45262W        W11803  26.524  30.845   0.084
45263W        W11804  42.044  27.120   1.877
45264W        W11805  14.371   9.403  11.201
45265W        W11806  10.356  30.572  11.092
45266W        W11807  18.928  16.567   4.226
45267W        W11808  19.465  42.027   3.738
45268W        W11809  23.268  26.477  10.512
45269W        W11810  10.376  38.876   0.298
45270W        W11811  15.218  37.413  10.675
45271W        W11812  42.426  43.706   3.808
45272W        W11813  36.528  41.022   0.426
45273W        W11814   1.450  14.714  11.210
45274W        W11815  40.517  23.987  14.069
45275W        W11816  44.897  11.794   3.987
45276W        W11817   8.883  22.909  14.393
45277W        W11818  18.390  33.562  13.507
45278W        W11819   5.250   3.619   3.589
45279W        W11820  13.862  24.494  12.925
45280W        W11821  27.016  11.733  14.789
45281W        W11822  36.293   9.292   1.256
45282W        W11823  43.683  36.961  11.938
45283W        W11824  41.238  24.098  14.381
45284W        W11825  11.798  39.249  10.878
45285W        W11826   0.002  29.977   0.677
45286W        W11827  17.659  39.215  12.156
45287W        W11828  35.274  43.415   3.098
45288W        W11829   8.312  26.681   3.032
45289W        W11830  12.105  29.079   4.106
45290W        W11831  37.169   3.584   4.896
45291W        W11832   5.752  10.542   1.890
45292W        W11833  31.722   4.409  12.494
45293W        W11834  25.202  35.498   2.251
45294W        W11835  31.323  35.726  14.372
45295W        W11836  34.356   6.042   2.175
45296W        W11837  39.964  25.146   1.398
45297W        W11838  25.229  33.368  13.749
45298W        W11839   3.235  36.083   1.753
45299W        W11840   2.730  25.796  10.202
45300W        W11841  27.914   0.983   1.315
45301W        W11842  21.051  16.106  10.685
45302W        W11843  38.902  37.002  10.600
45303W        W11844  41.808  42.282   3.780
45304W        W11845  10.676  43.893   3.139
45305W        W11846  30.997  36.313   4.930
45306W        W11847   7.798  15.667  12.518
45307W        W11848  32.620  20.545  11.568
45308W        W11849  35.646  32.295  12.976
45309W        W11850  28.158  22.043   1.853
45310W        W11851   6.045  11.580  11.104
45311W        W11852  38.215  21.912  13.934
45312W        W11853   7.297  30.290   2.804
45313W        W11854   1.500  35.652  10.197
45314W        W11855  26.195  18.154   3.461
45315W        W11856  44.541  13.072   2.252
45316W        W11857  30.169   5.314   1.687
45317W        W11858  20.617  19.291  12.397
45318W        W11859  19.093   1.522   1.848
45319W        W11860  28.915   6.238   4.591
45320W        W11861  44.865  11.717  12.828
45321W        W11862  33.814   7.108   5.053
45322W        W11863  36.536  35.335  12.588
45323W        W11864  25.893  20.157  11.914
45324W        W11865  13.132   4.965  10.300
45325W        W11866  18.311  42.324  10.993
45326W        W11867   9.605  34.760  14.090
45327W        W11868  10.048  35.615   4.132
45328W        W11869  34.150  32.640   3.316
45329W        W11870  23.489  43.721  11.094
45330W        W11871  40.957   3.813  12.449
45331W        W11872  38.922  24.056   0.391
45332W        W11873   2.933  22.179   4.564
45333W        W11874   7.776  38.556  13.916
45334W        W11875  28.487   3.366   0.752
45335W        W11876  10.686  24.264  14.865
45336W        W11877  41.718  35.497  10.660
45337W        W11878  22.489  34.645  14.843
45338W        W11879  14.217   3.370   4.215
45339W        W11880  12.376  41.846   0.305
45340W        W11881  31.027  37.609  11.629
45341W        W11882   2.792  13.721   3.183
45342W        W11883  39.435   5.941  10.469
45343W        W11884  23.609  21.142   3.405
45344W        W11885  43.444  33.276  10.833
45345W        W11886  33.870  29.696  11.555
45346W        W11887  16.169  26.714   0.869
45347W        W11888  39.227  25.267   0.769
45348W        W11889  23.855  42.661  14.748
45349W        W11890  30.500   7.341  12.326
45350W        W11891  29.763  35.581   0.275
45351W        W11892  22.229  28.769   0.390
45352W        W11893   7.899  42.002  12.469
45353W        W11894  24.638   3.766   2.587
45354W        W11895  25.062   8.971   1.843
45355W        W11896  33.183  22.065  11.025
45356W        W11897  39.868  27.447  11.655
45357W        W11898  28.009  35.862   2.666
45358W        W11899  33.691  39.088  14.527
45359W        W11900  23.706  15.938  11.102
45360W        W11901  30.019   8.689   3.742
45361W        W11902  28.267   5.335   1.750
45362W        W11903  33.625  28.607   2.433
45363W        W11904  33.554  24.873   3.732
45364W        W11905  21.994  25.017   4.074
45365W        W11906  33.603  24.904   4.646
45366W        W11907  43.718   7.056  12.412
45367W        W11908  11.066  35.153  13.057
45368W        W11909  24.788  15.290   0.278
45369W        W11910  22.305  40.997  13.110
45370W        W11911  18.685  23.122  11.037
45371W        W11912   8.967  22.388  14.342
45372W        W11913   7.782   3.486   3.652
45373W        W11914  33.309  39.890   1.950
45374W        W11915  22.376  12.289   3.701
45375W        W11916  20.490  44.749  11.633
45376W        W11917  39.346  38.910  10.263
45377W        W11918  32.930  24.040  13.932
45378W        W11919   0.126  27.954  13.928
45379W        W11920  27.937  42.918  12.562
45380W        W11921  18.536  27.010  11.594
45381W        W11922  10.164  20.918  10.319
45382W        W11923  23.819  39.774  12.206
45383W        W11924  23.923  14.882   4.174
45384W        W11925  30.442  23.163   4.890
45385W        W11926  16.801  15.335  14.975
45386W        W11927  41.850   1.638  14.476
45387W        W11928  24.137  40.165  14.398
45388W        W11929  18.138  29.265  14.824
45389W        W11930  16.289  26.132   3.614
45390W        W11931  41.955  25.587   4.204
45391W        W11932  15.050  41.469  13.978
45392W        W11933  25.409  37.293   4.086
45393W        W11934  10.926  43.795   3.606
45394W        W11935   2.824   4.201   0.346
45395W        W11936  10.837  12.589   0.771
45396W        W11937  18.588  29.480   4.565
45397W        W11938  16.075  14.254   2.955
45398W        W11939  22.945  16.507  14.981
45399W        W11940  43.081  42.817  12.495
45400W        W11941  13.892  21.808  11.117
45401W        W11942  16.745  20.161  10.918
45402W        W11943  23.070   5.879   1.736
45403W        W11944  20.124  41.933   4.931
45404W        W11945  29.369  12.269   0.988
45405W        W11946  19.760  15.259  14.860
45406W        W11947  13.640  32.051   4.934
45407W        W11948  16.345  13.263  14.722
45408W        W11949  12.876  22.538   1.292
45409W        W11950  17.981  13.117  14.069
45410W        W11951   1.416  20.153   1.716
45411W        W11952  42.293  38.086   3.410
45412W        W11953  36.371  24.007  12.979
45413W        W11954  34.086  12.624  10.685
45414W        W11955  35.429   5.552   9.792
45415W        W11956  26.913   2.954  11.983
45416W        W11957  22.125  36.988   2.259
45417W        W11958  20.518   1.473   0.382
45418W        W11959  28.529  42.187  13.058
45419W        W11960  34.166   5.281   1.475
45420W        W11961  29.428  19.148   0.470
45421W        W11962  15.064  29.606   2.713
45422W        W11963  25.321  33.775   0.234
45423W        W11964  44.727  40.872  13.549
45424W        W11965   2.972  13.539  13.096
45425W        W11966   1.354   3.835  10.874
45426W        W11967  24.792  32.663  11.098
45427W        W11968  17.822   1.327  13.984
45428W        W11969  38.573  25.943  13.486
45429W        W11970   4.763  30.096   4.060
45430W        W11971  40.037  36.004  12.897
45431W        W11972  32.578  29.966   4.568
45432W        W11973   9.947   5.178   0.701
45433W        W11974  13.581  42.972  11.136
45434W        W11975  28.816   3.041  14.510
45435W        W11976   0.599  13.302  14.938
45436W        W11977  38.913  35.262  10.399
45437W        W11978  33.911  26.037   1.435
45438W        W11979  41.056  32.582   4.368
45439W        W11980  22.138  37.573  11.548
45440W        W11981   3.239  34.052   1.190
45441W        W11982  38.463  40.526  12.898
45442W        W11983  44.641  15.776   1.301
45443W        W11984  10.622  42.006   1.358
45444W        W11985  20.082   0.140  11.555
45445W        W11986  15.017   9.430   3.544
45446W        W11987  27.653  30.447  10.691
45447W        W11988   1.334  15.297  12.120
45448W        W11989  43.324  25.952   2.342
45449W        W11990  25.094  24.292  12.939
45450W        W11991  24.497  11.807   4.094
45451W        W11992  38.571   0.156  11.402
45452W        W11993   2.384   0.518   2.289
45453W        W11994  10.259   9.838  13.013
45454W        W11995  37.508  29.042  10.693
45455W        W11996   6.381   4.963  10.957
45456W        W11997  30.231   8.581  11.982
45457W        W11998   3.254  15.776  10.582
45458W        W11999  19.776  25.526   0.947
45459W        W12000  18.242  29.394   3.891
45460W        W12001  31.090   2.426  12.833
45461W        W12002   2.331  10.205   4.093
45462W        W12003  31.971  23.943   3.634
45463W        W12004  39.515  30.563   0.680
45464W        W12005  19.299   5.641   2.171
45465W        W12006  22.512  11.099  12.162
45466W        W12007   4.105  23.574  14.281
45467W        W12008  16.521  13.996   4.585
45468W        W12009  17.691   1.340   2.335
45469W        W12010  14.811  22.267   2.725
45470W        W12011  29.056  33.863  12.558
45471W        W12012  21.991  16.290  12.937
45472W        W12013  20.160  40.216  14.437
45473W        W12014  10.771  15.187   3.984
45474W        W12015  12.809  41.864   3.116
45475W        W12016  28.296  11.686   4.496
45476W        W12017  38.980   2.180  11.741
45477W        W12018   2.268  18.989  10.902
45478W        W12019   3.268  38.356  12.841
45479W        W12020  42.335  26.446   4.641
45480W        W12021   4.675  20.872  14.854
45481W        W12022  12.615  27.771  13.566
45482W        W12023  38.083  41.304   4.621
45483W        W12024  20.152   8.662   3.665
45484W        W12025  20.720  39.754   3.139
45485W        W12026  43.999  27.000  11.838
45486W        W12027  44.742  40.288  10.686
45487W        W12028  38.879   2.682  13.072
45488W        W12029  21.201  24.998   2.355
45489W        W12030  24.871  44.177   5.030
45490W        W12031  28.086  14.843   3.865
45491W        W12032  23.732  27.335  13.568
45492W        W12033  17.650  28.101  13.517
45493W        W12034  39.167   8.786   4.243
45494W        W12035   2.770  10.177  11.093
45495W        W12036  37.856  18.176  12.281
45496W        W12037  33.889  12.713   0.338
45497W        W12038  10.883  32.683  14.879
45498W        W12039  27.168  39.862   3.286
45499W        W12040  12.222  16.649   1.838
45500W        W12041   7.299   4.773   0.801
45501W        W12042  43.619  24.052   2.714
45502W        W12043   3.394  30.770   5.463
45503W        W12044  34.537  14.704   3.351
45504W        W12045  37.593   7.003   0.649
45505W        W12046  17.833  31.248   5.555
45506W        W12047  26.124   7.770   3.691
45507W        W12048  29.570  18.737   2.082
45508W        W12049   5.914  22.706   1.165
45509W        W12050   4.097   0.002  14.052
45510W        W12051  31.412  11.829   1.347
45511W        W12052  22.712  36.354  13.785
45512W        W12053  10.822  41.772   2.296
45513W        W12054  40.318   8.749  13.824
45514W        W12055  43.939  38.691  13.697
45515W        W12056  14.418  36.074   3.322
45516W        W12057  38.292  17.073  10.713
45517W        W12058  42.332  34.119   4.142
45518W        W12059   1.979  11.745   0.745
45519W        W12060  38.417   6.711  14.136
45520W        W12061   8.222  13.590   0.612
45521W        W12062  21.679  31.400   2.952
45522W        W12063  41.341  36.374  11.430
45523W        W12064  27.191   4.892   1.069
45524W        W12065  30.445  43.120  11.595
45525W        W12066  15.330   5.356  14.344
45526W        W12067  10.575  26.634  11.781
45527W        W12068  13.783  35.959  13.983
45528W        W12069  15.647  35.332  13.023
45529W        W12070   7.330  40.574  12.017
45530W        W12071  11.759  34.103  14.380
45531W        W12072  32.418   0.007  12.371
45532W        W12073  22.134  23.465   0.793
45533W        W12074  31.869  40.452   0.332
45534W        W12075   8.342  28.862   3.744
45535W        W12076  33.127   3.808  12.048
45536W        W12077  26.968  30.362  11.204
45537W        W12078  37.575  22.570  11.986
45538W        W12079  12.550  34.201  10.057
45539W        W12080  37.799   7.700   2.169
45540W        W12081  40.534   4.378   3.746
45541W        W12082  32.023  21.241  13.478
45542W        W12083  20.951   9.583  13.829
45543W        W12084  41.374  39.492   3.711
45544W        W12085  39.653  32.928  12.026
45545W        W12086  41.917   6.232   1.543
45546W        W12087  29.463   8.160  14.541
45547W        W12088  13.100  40.889  10.745
45548W        W12089  14.886  29.370   9.829
45549W        W12090  21.549   5.844   2.763
45550W        W12091  25.771  13.567  11.298
45551W        W12092   3.676  37.025  12.001
45552W        W12093  30.290  24.646   4.188
45553W        W12094   6.788  22.726   0.491
45554W        W12095  13.803  16.890  13.711
45555W        W12096  35.995   1.802  10.669
45556W        W12097  16.157   6.996   3.241
45557W        W12098   6.153  42.953   3.637
45558W        W12099  14.194  34.376  13.050
45559W        W12100  33.469  10.849  12.893
45560W        W12101  20.182  31.155   0.098
45561W        W12102  35.307  22.569   2.081
45562W        W12103  35.417   7.592   0.437
45563W        W12104  35.606   2.256   3.766
45564W        W12105  30.421   0.927  14.522
45565W        W12106  23.287  22.885   4.486
45566W        W12107   4.449  18.409  14.904
45567W        W12108   6.199   3.337   0.753
45568W        W12109  33.944  37.364   2.470
45569W        W12110  14.732  11.429   1.309
45570W        W12111  20.525  15.336   0.830
45571W        W12112  31.195   5.410   0.444
45572W        W12113  33.146  17.005   2.205
45573W        W12114  38.870   3.410   3.201
45574W        W12115  16.822  39.824  14.270
45575W        W12116  20.325   4.736  12.518
45576W        W12117  19.627   0.286   3.194
45577W        W12118  30.125  39.817  14.013
45578W        W12119   3.484  19.290   3.759
45579W        W12120  28.496  42.950  14.467
45580W        W12121  24.906   5.121   1.349
45581W        W12122  20.736  34.598  11.142
45582W        W12123  36.253  15.202   0.324
45583W        W12124   3.880  11.985   0.811
45584W        W12125   0.944   7.726   1.486
45585W        W12126   0.533  20.777  11.689
45586W        W12127  12.124   5.185   0.317
45587W        W12128  14.502  28.275  12.523
45588W        W12129  26.446  40.714  11.082
45589W        W12130  23.582  35.896   0.239
45590W        W12131  41.062  12.614   2.770
45591W        W12132   7.689  40.786   5.017
45592W        W12133   7.314  35.378  13.050
45593W        W12134  40.446  36.546  11.248
45594W        W12135  31.542  41.368   1.499
45595W        W12136  23.507   6.933  14.756
45596W        W12137  36.838  27.785  14.863
45597W        W12138  20.112  22.572   0.008
45598W        W12139  27.263  15.972  13.155
45599W        W12140  30.407   9.300   1.812
45600W        W12141  13.016   1.265  13.916
45601W        W12142   1.699   0.199   4.491
45602W        W12143  31.497  19.690  11.602
45603W        W12144  12.640  23.178  12.619
45604W        W12145  23.173  27.825  11.902
45605W        W12146  25.009  16.618  10.729
45606W        W12147   4.346  30.464   1.733
45607W        W12148  35.449  26.912  11.138
45608W        W12149   3.330   6.268   1.314
45609W        W12150  15.429  24.716   3.142
45610W        W12151  13.312  19.720  14.686
45611W        W12152  38.147  31.989  11.928
45612W        W12153  34.471  12.325  12.447
45613W        W12154  17.616  34.641  11.220
45614W        W12155  44.928  36.045  12.107
45615W        W12156   4.839   2.283  14.018
45616W        W12157   5.656  41.088  10.631
45617W        W12158  20.463  32.003  10.092
45618W        W12159  12.293  25.190   3.871
45619W        W12160  31.664  30.964   4.659
45620W        W12161  35.213  18.487  14.040
45621W        W12162  36.187  20.761   0.978
45622W        W12163  34.476  16.244  10.992
45623W        W12164  33.895  12.570  11.538
45624W        W12165  30.678  26.976   4.449
45625W        W12166  23.008  44.937  13.870
45626W        W12167  19.298  18.168   3.024
45627W        W12168  13.934   6.953  10.624
45628W        W12169  33.378  18.446  10.298
45629W        W12170  43.505  12.893  14.391
45630W        W12171  37.573  20.170   1.193
45631W        W12172  10.565  34.402  13.367
45632W        W12173  16.497   7.435  12.434
45633W        W12174  24.574   5.559  12.335
45634W        W12175  38.847  23.470  10.731
45635W        W12176  33.078  14.348   0.902
45636W        W12177  13.818  11.809   3.092
45637W        W12178  24.260  13.616   0.658
45638W        W12179  27.872  29.036   1.946
45639W        W12180  35.757   7.677   4.312
45640W        W12181   2.236   3.296   3.171
45641W        W12182   5.711   2.305   0.533
45642W        W12183  26.627  39.603  14.189
45643W        W12184   8.915  25.549  12.841
45644W        W12185  10.844   5.956  12.018
45645W        W12186   1.255  19.673   2.437
45646W        W12187  29.035  43.837   2.722
45647W        W12188  26.585  24.419   3.232
45648W        W12189   1.755  43.010  10.659
45649W        W12190  38.124  36.097   1.326
45650W        W12191   8.841   0.480   0.232
45651W        W12192   9.932  44.356   2.243
45652W        W12193  26.104  38.367   0.852
45653W        W12194  12.507  14.774   0.329
45654W        W12195  44.152  14.875   3.634
45655W        W12196  15.294  36.112  13.950
45656W        W12197   8.922   5.067   1.795
45657W        W12198   1.290   6.839  13.573
45658W        W12199  14.363  27.069   4.246
45659W        W12200  26.747   2.158  10.445
45660W        W12201  37.972  25.096   2.182
45661W        W12202  27.201  31.490   0.504
45662W        W12203   9.145   4.754  11.321
45663W        W12204  19.068   1.769   2.854
45664W        W12205  32.812  28.717  11.959
45665W        W12206   4.758   9.980  10.470
45666W        W12207   0.151  24.036   3.016
45667W        W12208  40.936  29.070   4.416
45668W        W12209  11.805  29.528  14.105
45669W        W12210   8.528   5.391  14.529
45670W        W12211  38.740  13.353   3.595
45671W        W12212   9.918  16.022  11.014
45672W        W12213  33.897  17.117   2.284
45673W        W12214  44.392  10.744  14.489
45674W        W12215  21.657  24.498   0.233
45675W        W12216  22.578   9.857  11.657
45676W        W12217  21.661  13.908  12.364
45677W        W12218  31.535  39.389   0.933
45678W        W12219  40.291  43.923   3.530
45679W        W12220   7.189  41.818   0.386
45680W        W12221   8.914   0.937   1.393
45681W        W12222   2.447  10.520   1.233
45682W        W12223  38.381  35.712  11.032
45683W        W12224  15.117  36.494   2.270
45684W        W12225  43.002   4.964  13.021
45685W        W12226  41.471  24.145  13.863
45686W        W12227  20.822  14.147   4.295
45687W        W12228   6.325  15.561   3.922
45688W        W12229   2.564  23.110  11.118
45689W        W12230  27.232  43.974   3.823
45690W        W12231  24.752   0.948   2.337
45691W        W12232  44.497  41.333   3.656
45692W        W12233   6.213  41.912  11.697
45693W        W12234  11.589  13.330   1.815
45694W        W12235  24.448  35.598   4.048
45695W        W12236  18.196   1.032   3.349
45696W        W12237  29.571   1.081  11.171
45697W        W12238  13.617  41.774   3.488
45698W        W12239  41.374  28.970  10.696
45699W        W12240   4.085  23.525   0.627
45700W        W12241  14.875  32.690   2.531
45701W        W12242   5.730   0.519  12.917
45702W        W12243  25.270  36.798   1.301
45703W        W12244   4.786  12.334   4.435
45704W        W12245  26.553  13.408  13.861
45705W        W12246  33.867   0.898   4.030
45706W        W12247  19.040  40.093   4.567
45707W        W12248  33.646  29.628   2.651
45708W        W12249  43.404   4.299  12.901
45709W        W12250  15.015  40.969  13.650
45710W        W12251   8.379  17.332  14.995
45711W        W12252  14.903   8.898  13.425
45712W        W12253  30.529  13.549  14.506
45713W        W12254  41.964  32.922   2.372
45714W        W12255  12.165  44.445  15.000
45715W        W12256  40.932  33.840   0.028
45716W        W12257  16.434  42.250   3.678
45717W        W12258  22.235  17.089  12.541
45718W        W12259   4.945   9.294   3.193
45719W        W12260   0.502  44.884   3.656
45720W        W12261  37.434  35.448  13.329
45721W        W12262  28.163  40.102  14.922
45722W        W12263  34.082  34.473   4.819
45723W        W12264  28.949  26.986   2.022
45724W        W12265   8.344  24.166  13.252
45725W        W12266  40.890  37.468  11.429
45726W        W12267   8.357   6.692   0.991
45727W        W12268  26.759   6.493  13.411
45728W        W12269  42.083  34.909   3.651
45729W        W12270  36.299   7.687   4.219
45730W        W12271  34.099  14.133  14.784
45731W        W12272  19.487  20.957  12.507
45732W        W12273   8.749  44.397  13.443
45733W        W12274   1.975  34.619  13.743
45734W        W12275   0.447  31.975  13.085
45735W        W12276   7.029  11.823   0.357
45736W        W12277  27.054  41.682  12.157
45737W        W12278  20.879  34.098  13.707
45738W        W12279   8.294  26.519  10.601
45739W        W12280  29.743  36.990  12.087
45740W        W12281  19.198  16.212   4.576
45741W        W12282  25.759  36.141  13.404
45742W        W12283  23.300  44.837   0.456
45743W        W12284   8.315  33.760   0.734
45744W        W12285   8.334  41.067   2.700
45745W        W12286   2.000  18.051   4.160
45746W        W12287  20.618  39.501   0.500
45747W        W12288  25.030  23.259   0.958
45748W        W12289  10.327  31.700  13.067
45749W        W12290  28.011  27.871   3.685
45750W        W12291  44.820  15.111   4.562
45751W        W12292  37.106  44.513  13.585
45752W        W12293  28.645  14.414   2.200
45753W        W12294  23.610   6.452   2.048
45754W        W12295  20.277  36.312   4.785
45755W        W12296   7.287   7.803   0.929
45756W        W12297   4.235   4.439  13.053
45757W        W12298  37.872  14.419  10.951
45758W        W12299  40.996  10.779  14.412
45759W        W12300   1.930  44.478  11.856
45760W        W12301   8.676  30.576  13.756
45761W        W12302  34.154  38.009  13.482
45762W        W12303  11.601   3.978   3.382
45763W        W12304  26.653  43.526   0.021
45764W        W12305  43.949  33.570  14.339
45765W        W12306   2.658  15.244   1.240
45766W        W12307  13.569  40.347   1.007
45767W        W12308  26.390  35.805   4.172
45768W        W12309  25.891  20.652  14.158
45769W        W12310  39.778  17.921  13.451
45770W        W12311  35.599   4.498  14.720
45771W        W12312  35.592  43.210   3.640
45772W        W12313  16.090   6.654  12.012
45773W        W12314  28.135  39.909   2.889
45774W        W12315  29.620  40.598  12.862
45775W        W12316  38.372   7.358  10.453
45776W        W12317  15.585   6.873   1.708
45777W        W12318  19.464  18.949  13.878
45778W        W12319  27.484   5.572  11.997
45779W        W12320   5.202  18.580   1.776
45780W        W12321   1.464  21.483  14.758
45781W        W12322   2.338  30.656  13.556
45782W        W12323  40.767   4.859  10.934
45783W        W12324   0.217  25.834   4.267
45784W        W12325  44.675   3.564  13.838
45785W        W12326  24.944   9.595  12.128
45786W        W12327  38.770   2.804  11.132
45787W        W12328  11.011  31.975  14.101
45788W        W12329  27.945  13.698  14.547
45789W        W12330  41.601   9.129  14.740
45790W        W12331  16.658  20.611  11.158
45791W        W12332  41.612  10.006   5.091
45792W        W12333   4.212  42.087  12.235
45793W        W12334  35.510   5.324   2.633
45794W        W12335  44.773   8.324   0.727
45795W        W12336  33.187  34.494   2.612
45796W        W12337  34.449  10.305   2.845
45797W        W12338  12.705  39.050  14.977
45798W        W12339  18.353  22.447   4.170
45799W        W12340  43.752  10.375  12.857
45800W        W12341  32.890  18.610   3.614
45801W        W12342   9.349  16.444   3.611
45802W        W12343  10.912  38.846  11.970
45803W        W12344  13.841  42.059   3.133
45804W        W12345  38.102  28.503   3.760
45805W        W12346  31.388  30.491   3.383
45806W        W12347  36.039  12.954   1.246
45807W        W12348  42.126  23.930   0.192
45808W        W12349  13.614  11.847  10.767
45809W        W12350  39.785   8.306   1.869
45810W        W12351  25.784  19.278  12.446
45811W        W12352  19.586  13.122   4.164
45812W        W12353   7.748   3.756  14.457
45813W        W12354  43.283  27.876  13.546
45814W        W12355  29.683  16.630   3.382
45815W        W12356  13.390  11.600   1.156
45816W        W12357  17.877  37.186  11.512
45817W        W12358  15.637  28.617   3.639
45818W        W12359  23.202   4.668  14.670
45819W        W12360  43.021  33.041   4.644
45820W        W12361  37.938  40.592  11.133
45821W        W12362  10.367  16.226  12.010
45822W        W12363  29.206  25.051   2.280
45823W        W12364  10.240  24.532  13.428
45824W        W12365   2.268  31.491   2.606
45825W        W12366   0.915  33.468   3.590
45826W        W12367  44.477  11.165   4.951
45827W        W12368  16.111  27.418   4.175
45828W        W12369  21.564  12.051  13.369
45829W        W12370  19.563  35.927  14.638
45830W        W12371  13.691  22.278  12.367
45831W        W12372  29.819  17.204  12.300
45832W        W12373   7.457  42.325   3.703
45833W        W12374   3.837   5.928  13.799
45834W        W12375  32.141  20.278  12.077
45835W        W12376   5.561  34.311  11.077
45836W        W12377   3.890   5.926   4.485
45837W        W12378  25.177  34.423  12.577
45838W        W12379  23.418  11.990   0.823
45839W        W12380  30.414  16.245  14.789
45840W        W12381  33.891  13.447  13.973
45841W        W12382   3.041  33.772   3.376
45842W        W12383  11.274  17.741   2.666
45843W        W12384   3.217  39.720  14.427
45844W        W12385  34.849  32.021  12.915
45845W        W12386   8.247   2.972  13.473
45846W        W12387  43.515  41.268  11.910
45847W        W12388  15.189  18.063  12.338
45848W        W12389   2.488   8.663   5.021
45849W        W12390  14.126   4.549  12.472
45850W        W12391  24.674  16.635  14.508
45851W        W12392   8.185  33.990  12.009
45852W        W12393  20.340   4.403   2.380
45853W        W12394  37.516  43.373   3.121
45854W        W12395  25.502  11.357   2.726
45855W        W12396  36.533  25.653   0.196
45856W        W12397  19.759  12.706  14.323
45857W        W12398   0.222   0.573  11.677
45858W        W12399  24.768   5.401   1.788
45859W        W12400  38.756   3.003  13.954
45860W        W12401  39.486  15.357   3.075
45861W        W12402   8.396  25.177   0.539
45862W        W12403  12.954  43.866  11.031
45863W        W12404  28.616   9.520   0.459
45864W        W12405  37.421  12.455  13.150
45865W        W12406   6.369  42.321   2.324
45866W        W12407  10.736  19.818   4.649
45867W        W12408  37.883  20.495   2.678
45868W        W12409   0.405   6.913   2.305
45869W        W12410  36.322  32.237  11.226
45870W        W12411  18.344  34.996   3.459
45871W        W12412   8.123  15.541  12.083
45872W        W12413   2.424   8.749   0.865
45873W        W12414  22.534  18.777  10.771
45874W        W12415  43.354   6.244   2.491
45875W        W12416  41.552  29.168  13.829
45876W        W12417  34.081  12.614   4.681
45877W        W12418  12.277   4.448  12.156
45878W        W12419  38.867  20.819  12.560
45879W        W12420   9.442  33.353  11.190
45880W        W12421  20.471  34.632   5.095
45881W        W12422  20.088   1.195   0.433
45882W        W12423  20.204  31.848  14.384
45883W        W12424  30.054   9.494   4.740
45884W        W12425  25.430  11.428  13.452
45885W        W12426  33.566  22.061  12.033
45886W        W12427   9.978  18.813  14.622
45887W        W12428  26.451   0.244   2.336
45888W        W12429  17.694  42.781  11.489
45889W        W12430   3.930  37.172   4.609
45890W        W12431  29.976  43.304  14.001
45891W        W12432  22.383  27.014  12.558
45892W        W12433  39.865  19.884   3.753
45893W        W12434  31.912   3.316   4.505
45894W        W12435   8.197  24.491  12.855
45895W        W12436  15.295   0.487  10.440
45896W        W12437  12.319   7.864  14.842
45897W        W12438   6.994  18.964   0.299
45898W        W12439  43.745  29.061  14.564
45899W        W12440   6.649  27.217   2.434
45900W        W12441  26.109  17.310   0.710
45901W        W12442  44.320   4.464  14.225
45902W        W12443  38.571   0.814   2.352
45903W        W12444   2.305   1.385  10.358
45904W        W12445  27.906  10.741   0.871
45905W        W12446   5.334  38.250   1.787
45906W        W12447  33.538  25.363   4.424
45907W        W12448  21.612  15.042   0.427
45908W        W12449   7.308  14.250  11.485
45909W        W12450  15.322  23.016   3.805
45910W        W12451  20.795   2.755   1.774
45911W        W12452   0.027  39.492   4.937
45912W        W12453  35.908  10.595   2.734
45913W        W12454  21.063  44.778  10.757
45914W        W12455  25.049   9.161  10.651
45915W        W12456  11.058   7.246   4.714
45916W        W12457  31.733  43.004  12.903
45917W        W12458  38.859  28.610  13.579
45918W        W12459  21.088   8.391  14.505
45919W        W12460  36.465  35.844   3.766
45920W        W12461   6.443  16.237   1.685
45921W        W12462  25.543  24.455  11.588
45922W        W12463   3.943  30.155  11.092
45923W        W12464  28.994  34.029   3.673
45924W        W12465  23.070  36.609   1.464
45925W        W12466  37.333  44.061  14.308
45926W        W12467  21.568  31.513  11.754
45927W        W12468  31.637   8.643   1.656
45928W        W12469  33.903  23.109  10.835
45929W        W12470  29.210  21.633  10.390
45930W        W12471   4.288   9.290  12.130
45931W        W12472  30.635  19.616  11.440
45932W        W12473   4.300  35.276  13.051
45933W        W12474  14.640  30.469   2.237
45934W        W12475  10.474  16.278   0.797
45935W        W12476  16.721  15.240  11.982
45936W        W12477  42.683   9.757  14.244
45937W        W12478  12.419   4.704   3.503
45938W        W12479   5.453  21.575   0.022
45939W        W12480  16.680  14.463   3.734
45940W        W12481  22.244   8.375  11.423
45941W        W12482  11.411  26.292  13.096
45942W        W12483  28.257   3.688   2.349
45943W        W12484  35.408  22.160  10.731
45944W        W12485  37.913  10.121  12.824
45945W        W12486  11.152  30.442   2.444
45946W        W12487   7.581  10.950   2.773
45947W        W12488   7.712  28.344   0.645
45948W        W12489  34.156  14.900  13.458
45949W        W12490   6.630  40.137   4.379
45950W        W12491  30.146  44.985   2.238
45951W        W12492  32.425  35.006   0.288
45952W        W12493  29.434  36.325  12.986
45953W        W12494   9.367  21.733   0.991
45954W        W12495  11.293  39.047  10.687
45955W        W12496  36.405  11.387  11.965
45956W        W12497  13.125  11.374   0.551
45957W        W12498  31.991  12.524   1.632
45958W        W12499   4.533  36.889   4.628
45959W        W12500  25.592   0.896  14.332
45960W        W12501  42.852  18.244  14.492
45961W        W12502   3.999  26.118   0.159
45962W        W12503  13.838  43.434  12.511
45963W        W12504  42.207  26.496   0.394
45964W        W12505   7.313  39.080  14.777
45965W        W12506  28.134  20.147  13.837
45966W        W12507  14.148  25.729   3.590
45967W        W12508  32.602   0.883  11.434
45968W        W12509  20.066  16.721   2.135
45969W        W12510   4.697  10.855   4.179
45970W        W12511  42.812  19.524  11.880
45971W        W12512  29.486  10.853  14.793
45972W        W12513   5.048  33.706  13.810
45973W        W12514  21.229  39.427   3.882
45974W        W12515  15.893   7.540  11.111
45975W        W12516  39.326   5.319   2.788
45976W        W12517   5.476  18.409  10.961
45977W        W12518  12.197  40.329  13.993
45978W        W12519   1.343   8.861  14.184
45979W        W12520  25.341  43.944   5.015
45980W        W12521  30.726  31.571  14.313
45981W        W12522   0.409  40.797   0.953
45982W        W12523  41.822  28.318   4.884
45983W        W12524   8.602  31.136  14.867
45984W        W12525  27.077   5.788   4.174
45985W        W12526  37.188  40.993  14.896
45986W        W12527   5.308  12.233  13.380
45987W        W12528  38.466   0.751  14.348
45988W        W12529  12.690  42.803  12.331
45989W        W12530  18.959  11.711   2.671
45990W        W12531   7.710   9.850  13.672
45991W        W12532   9.690   6.190   2.938
45992W        W12533   9.672   5.338  10.657
45993W        W12534  38.808  14.146  14.397
45994W        W12535   8.795  33.450   2.259
45995W        W12536  17.155  40.877   0.271
45996W        W12537  18.328  11.772   1.789
45997W        W12538  38.420  44.737  12.473
45998W        W12539  18.251  39.496  11.033
45999W        W12540  37.847  12.815   0.904
46000W        W12541  19.740  38.370   0.952
46001W        W12542   4.498   9.769  12.115
46002W        W12543  19.037   0.325  12.441
46003W        W12544   1.213   0.883   4.779
46004W        W12545  42.613  19.666  12.783
46005W        W12546  34.953  32.038   1.164
46006W        W12547  12.950  37.709   1.862
46007W        W12548  20.156  12.243   0.878
46008W        W12549  44.803  34.501  10.129
46009W        W12550  10.397   2.866   3.896
46010W        W12551  44.087   4.887  12.990
46011W        W12552  17.126   7.230  14.759
46012W        W12553  19.763  38.101  10.642
46013W        W12554  20.100  22.455  12.630
46014W        W12555  36.051  25.234  13.584
46015W        W12556  12.547   9.685   1.089
46016W        W12557  15.347  31.683   5.089
46017W        W12558  34.149  13.060   1.222
46018W        W12559   9.611  32.705  14.363
46019W        W12560  10.246  11.359  14.056
46020W        W12561  31.824  26.696  10.240
46021W        W12562  20.110   1.210   1.296
46022W        W12563  10.664  20.867   2.663
46023W        W12564  12.370   1.460  13.309
46024W        W12565  21.758  42.878  12.426
46025W        W12566  10.663  31.887   3.622
46026W        W12567   0.795  33.866   2.318
46027W        W12568   3.325  40.261   1.707
46028W        W12569   7.175  34.176   3.212
46029W        W12570   2.831  35.303  14.321
46030W        W12571  31.659   4.939   4.144
46031W        W12572  31.249  30.033   4.183
46032W        W12573  38.980   7.104   3.309
46033W        W12574  19.624   4.337   4.252
46034W        W12575   2.671   8.288   0.829
46035W        W12576  33.541  14.591   0.846
46036W        W12577  23.562  15.966   2.694
46037W        W12578  35.109  13.396   2.208
46038W        W12579  24.165  24.922   0.266
46039W        W12580  43.229  44.986   0.739
46040W        W12581  36.526  19.424   1.829
46041W        W12582  12.572  25.424  12.459
46042W        W12583  17.996  24.246   4.204
46043W        W12584  33.833   9.601   3.611
46044W        W12585  15.143  37.107  14.215
46045W        W12586  33.288   7.888  14.897
46046W        W12587  36.593  36.554  12.126
46047W        W12588  28.414  33.871   1.757
46048W        W12589  38.502  10.263  14.907
46049W        W12590   1.768  32.687  10.736
46050W        W12591  16.115  13.182  12.519
46051W        W12592  26.844  44.644   4.106
46052W        W12593  31.989  28.655   1.174
46053W        W12594  23.941   6.638  14.492
46054W        W12595  33.160   5.564   0.620
46055W        W12596  42.693  21.568  12.302
46056W        W12597  42.795   1.892  12.502
46057W        W12598   1.427  11.685  11.601
46058W        W12599  27.709  12.872   1.359
46059W        W12600  33.036  44.196  11.135
46060W        W12601   8.948   8.639   0.278
46061W        W12602   5.915   8.172  12.434
46062W        W12603   2.149  28.179   0.357
46063W        W12604   8.769  29.608  12.955
46064W        W12605  16.346  44.297  14.614
46065W        W12606  13.091  41.389  10.634
46066W        W12607   0.376  24.593  14.335
46067W        W12608  34.944  22.161  10.988
46068W        W12609  32.382   8.006  11.054
46069W        W12610   7.309  19.340  11.583
46070W        W12611  14.904  14.652   3.200
46071W        W12612  22.512  27.138   1.857
46072W        W12613  29.413   5.589  10.569
46073W        W12614   1.772  19.189  10.625
46074W        W12615  35.804  42.455  11.601
46075W        W12616  28.028  40.309  10.662
46076W        W12617   1.640  41.029  13.426
46077W        W12618  24.151  31.708  12.847
46078W        W12619  43.340  28.893   2.553
46079W        W12620  44.422   0.757  13.973
46080W        W12621  26.224   0.017  12.521
46081W        W12622  17.163  16.340  10.926
46082W        W12623  28.926  22.055  14.825
46083W        W12624  28.029  17.392   2.815
46084W        W12625  18.049  27.473  10.977
46085W        W12626  28.529  41.760   2.741
46086W        W12627  10.642  33.093   4.721
46087W        W12628  42.592  30.544  14.044
46088W        W12629  43.974  26.448  12.739
46089W        W12630  30.091   1.000  11.243
46090W        W12631   4.162  41.227  13.886
46091W        W12632  35.722  20.242  14.542
46092W        W12633  37.954   5.344   4.176
46093W        W12634  37.961   4.946  12.444
46094W        W12635  30.337  14.837  12.951
46095W        W12636  26.953  26.712   0.451
46096W        W12637  11.557  28.010  13.007
46097W        W12638  19.709  43.223  13.273
46098W        W12639  23.744  33.355   4.293
46099W        W12640  27.804  36.386  11.462
46100W        W12641  40.951  10.673  14.910
46101W        W12642  20.233  41.421   5.023
46102W        W12643   3.016  39.538  11.812
46103W        W12644  28.155  26.203  10.712
46104W        W12645  27.470  11.288  12.977
46105W        W12646  18.981   6.760  13.123
46106W        W12647  43.382  18.346  10.400
46107W        W12648  12.299  10.370  10.696
46108W        W12649   8.110  12.218   4.821
46109W        W12650   6.246  31.274   1.182
46110W        W12651  25.557  42.818   2.688
46111W        W12652  14.412   4.093  13.366
46112W        W12653  34.307   8.164   1.802
46113W        W12654  44.268   0.367  11.488
46114W        W12655   9.550  42.305   3.931
46115W        W12656  21.612  38.011   1.310
46116W        W12657  12.844  44.121   1.724
46117W        W12658   3.694  44.335  12.910
46118W        W12659  29.704  10.360   4.668
46119W        W12660  44.054  10.125  14.383
46120W        W12661  23.963  25.776  11.631
46121W        W12662  35.737  21.627  10.882
46122W        W12663   9.445   8.366  13.664
46123W        W12664   2.988  44.782   4.519
46124W        W12665  27.405  23.441  10.595
46125W        W12666   3.451  19.005  12.464
46126W        W12667  12.356  27.690   2.846
46127W        W12668  26.520  24.196  11.992
46128W        W12669  41.127  17.589  11.965
46129W        W12670  29.440  43.980   0.889
46130W        W12671  29.546   4.335   2.725
46131W        W12672   9.191  40.415  11.658
46132W        W12673  26.277  16.390  10.645
46133W        W12674  32.066  28.556   0.322
46134W        W12675  18.306  14.626   3.212
46135W        W12676  27.395   6.377  14.441
46136W        W12677  37.495  11.287   2.441
46137W        W12678  16.749   0.122   4.861
46138W        W12679  12.229  12.340   1.711
46139W        W12680  27.025  42.210  12.070
46140W        W12681  42.997   3.388  14.905
46141W        W12682  18.813   6.506  14.861
46142W        W12683  12.083  43.888  12.076
46143W        W12684  23.516  30.981   1.755
46144W        W12685  17.098  40.008   2.942
46145W        W12686  32.543  32.157   2.457
46146W        W12687  12.278   0.047  12.818
46147W        W12688  27.028  44.395   1.862
46148W        W12689   4.397  11.693  14.937
46149W        W12690  42.296  32.888   3.327
46150W        W12691  44.398  29.024   2.123
46151W        W12692  10.549  39.810  13.425
46152W        W12693  20.069  15.782   2.033
46153W        W12694  41.690  20.132  12.968
46154W        W12695  44.353  29.498  11.253
46155W        W12696  18.415   7.825   3.029
46156W        W12697  22.846   5.412   4.425
46157W        W12698  35.395   6.979  13.493
46158W        W12699   1.504  10.861   0.417
46159W        W12700  44.462  22.152   4.625
46160W        W12701  35.435  41.338  12.307
46161W        W12702  17.653  17.809   2.332
46162W        W12703   5.685   1.481  14.398
46163W        W12704  28.173  21.096   3.647
46164W        W12705  23.663   2.231   2.281
46165W        W12706  22.688   6.383   4.068
46166W        W12707  20.194  31.892   3.636
46167W        W12708  42.207  25.598  11.959
46168W        W12709  12.697  21.284  11.076
46169W        W12710  19.680  18.429  14.666
46170W        W12711   9.169  36.569   4.591
46171W        W12712  35.322  29.363   2.338
46172W        W12713  31.086  23.423  13.881
46173W        W12714  25.390  39.435   1.272
46174W        W12715   9.825  29.598   3.322
46175W        W12716   2.556  16.706   1.250
46176W        W12717   2.746  21.194   2.274
46177W        W12718  39.532  15.741  13.050
46178W        W12719  20.650  25.408   0.512
46179W        W12720   0.645  26.908   0.389
46180W        W12721  14.363  20.688  10.900
46181W        W12722  35.666  17.482   4.204
46182W        W12723  26.157  14.089  12.598
46183W        W12724  36.896  30.006  13.392
46184W        W12725  34.304  33.562  10.853
46185W        W12726  21.181  25.580  11.910
46186W        W12727  12.343  41.361  11.566
46187W        W12728   3.209   3.658   0.875
46188W        W12729  11.755  10.433  13.993
46189W        W12730  11.678   5.594   4.945
46190W        W12731   6.387  12.381   1.625
46191W        W12732  42.480  15.698  13.034
46192W        W12733   9.385   4.856  14.845
46193W        W12734   6.731  28.995   2.217
46194W        W12735  35.098   8.382  10.469
46195W        W12736  12.536  25.277  11.671
46196W        W12737  44.473  10.365   2.170
46197W        W12738  10.166  23.110   0.028
46198W        W12739  19.534  32.615  14.757
46199W        W12740  40.563  35.873  10.413
46200W        W12741  29.670   0.410  12.460
46201W        W12742  23.927   7.784  10.995
46202W        W12743  24.500  23.190   0.049
46203W        W12744  37.181  20.721  10.719
46204W        W12745  13.350  10.184   4.569
46205W        W12746  19.560  37.641   0.226
46206W        W12747  36.348   2.448  14.387
46207W        W12748  14.280   7.432   0.164
46208W        W12749  14.608  18.399   3.764
46209W        W12750  32.746  29.880   4.064
46210W        W12751  26.929  11.625  11.449
46211W        W12752   1.694  33.960  13.363
46212W        W12753  11.154  39.823   2.215
46213W        W12754   4.338  10.380  12.401
46214W        W12755  17.232   6.001   3.650
46215W        W12756  36.965  18.741   4.553
46216W        W12757   1.990  40.186  14.663
46217W        W12758  36.689   4.737  13.376
46218W        W12759  29.668  19.171  11.704
46219W        W12760   7.795  27.906   0.956
46220W        W12761  26.960  44.327  14.739
46221W        W12762  22.499  37.361   2.329
46222W        W12763  12.978   0.828  13.473
46223W        W12764  30.586  14.833  13.823
46224W        W12765  43.148  12.583  13.062
46225W        W12766  28.521  37.916   1.360
46226W        W12767  28.011  21.297   2.264
46227W        W12768  10.846  43.219  14.060
46228W        W12769   1.815   4.642  12.538
46229W        W12770   2.421  41.239   4.652
46230W        W12771  17.068  15.710   0.265
46231W        W12772  16.910  41.252   3.106
46232W        W12773  33.421  32.592   0.369
46233W        W12774  35.557  10.684   3.734
46234W        W12775   1.501  19.326  13.522
46235W        W12776  22.006  15.438  11.054
46236W        W12777   3.431  36.404  11.602
46237W        W12778   8.806  34.934   1.312
46238W        W12779  30.483  24.550   4.684
46239W        W12780  42.758  26.148  14.927
46240W        W12781  36.576  30.453  11.215
46241W        W12782  30.854  17.568  13.454
46242W        W12783  19.345  11.823   1.805
46243W        W12784  13.430  11.650   2.815
46244W        W12785  30.928  28.560  11.988
46245W        W12786  32.079  39.379   0.450
46246W        W12787  31.867  32.326  14.858
46247W        W12788  13.133   5.387  10.628
46248W        W12789  26.176   2.867   2.303
46249W        W12790   1.353  33.390  13.978
46250W        W12791  35.637  14.302   2.679
46251W        W12792  10.214  39.555   2.149
46252W        W12793   7.922  35.924   2.760
46253W        W12794  31.587  32.925   0.355
46254W        W12795   6.165  27.698   1.403
46255W        W12796  17.885   8.910   3.054
46256W        W12797  18.065  11.600   9.932
46257W        W12798  33.030   7.828  12.572
46258W        W12799  25.044  33.908   2.253
46259W        W12800  36.001  14.274   1.788
46260W        W12801  26.079   4.538   3.775
46261W        W12802  42.521  34.060   4.626
46262W        W12803  33.364  35.845   3.488
46263W        W12804  41.479  10.335   4.230
46264W        W12805  14.763  41.523   0.383
46265W        W12806  22.120  27.219   0.264
46266W        W12807  22.804  43.001   3.323
46267W        W12808  40.854  18.264   2.460
46268W        W12809  23.042  23.446   3.276
46269W        W12810   3.847  25.046   2.564
46270W        W12811  43.369   7.947   2.630
46271W        W12812  17.515  30.418   3.004
46272W        W12813  20.155  41.569  14.843
46273W        W12814   5.381   4.665  12.190
46274W        W12815  23.166  17.995  12.335
46275W        W12816  38.063  30.865   2.814
46276W        W12817  36.116  25.154   1.371
46277W        W12818  21.459  41.878   4.254
46278W        W12819  37.233   8.403   1.105
46279W        W12820   6.256  39.523  13.723
46280W        W12821  14.035  16.062  11.681
46281W        W12822  10.218  24.989   4.097
46282W        W12823   0.805   3.633   1.750
46283W        W12824  16.772  11.740   4.561
46284W        W12825   7.873  16.612  12.560
46285W        W12826  34.389   5.266  13.084
46286W        W12827  31.106   8.986   4.508
46287W        W12828  35.055  19.531  12.043
46288W        W12829  31.069  14.372   2.190
46289W        W12830   3.851  38.307   3.368
46290W        W12831  20.716  37.610   4.861
46291W        W12832  31.131  37.398   4.122
46292W        W12833   1.206  35.005  14.852
46293W        W12834  41.002  18.518  14.535
46294W        W12835  32.972  24.169  14.969
46295W        W12836  29.044  35.115   1.622
46296W        W12837  15.272  28.637   1.098
46297W        W12838  36.069   7.645   2.861
46298W        W12839  39.329  18.267  12.872
46299W        W12840  27.039  43.375   4.775
46300W        W12841  32.347  14.021  13.884
46301W        W12842  41.496   8.657  12.141
46302W        W12843  16.130  14.042  12.102
46303W        W12844  37.940  44.963  12.492
46304W        W12845   4.329  39.064  12.168
46305W        W12846  23.504  25.194  11.966
46306W        W12847  38.820  13.297   4.636
46307W        W12848  34.965  29.370   0.785
46308W        W12849   9.684   7.295  14.006
46309W        W12850  36.318  31.423  14.399
46310W        W12851   4.453  37.804  14.399
46311W        W12852  28.530  20.017   1.400
46312W        W12853  14.656  37.047  13.338
46313W        W12854  35.795  11.343   4.942
46314W        W12855  42.108  18.066  13.980
46315W        W12856   8.937  10.540  10.737
46316W        W12857  43.421  29.152  13.853
46317W        W12858  40.898  11.853   9.842
46318W        W12859  11.400  42.030  13.379
46319W        W12860  34.502   2.090  14.502
46320W        W12861  44.964   5.848   4.391
46321W        W12862   2.820  26.044  12.164
46322W        W12863  17.023   2.765   3.359
46323W        W12864  17.450  11.306  10.611
46324W        W12865  33.001  24.233  12.983
46325W        W12866  15.589  16.003   5.192
46326W        W12867  35.876  29.570   3.234
46327W        W12868   8.024  13.865  14.872
46328W        W12869   3.510   0.453   1.098
46329W        W12870  31.784  43.466  13.134
46330W        W12871  34.953  22.301   0.541
46331W        W12872   5.575  12.080   4.454
46332W        W12873  37.798   1.019  12.023
46333W        W12874  22.788  20.184  14.811
46334W        W12875  20.731  14.126   0.065
46335W        W12876  22.628  26.694   3.726
46336W        W12877   0.277  26.547   4.646
46337W        W12878  26.175  42.326   4.368
46338W        W12879   0.356   3.104  12.448
46339W        W12880  28.861  22.238  13.368
46340W        W12881   3.440   1.389   1.754
46341W        W12882  13.896  13.741   4.937
46342W        W12883  21.995  39.753  12.339
46343W        W12884   3.876  40.913   4.532
46344W        W12885   5.387  25.274   0.868
46345W        W12886  13.794  25.059   1.280
46346W        W12887   1.874  31.580  14.465
46347W        W12888  19.507  24.081   2.757
46348W        W12889  34.805  35.524   0.568
46349W        W12890  29.092  43.313   3.842
46350W        W12891   2.726  21.930  11.626
46351W        W12892   5.765  37.913   3.363
46352W        W12893  22.621  40.943  13.523
46353W        W12894   2.672  30.158  10.710
46354W        W12895   5.930  42.003  14.863
46355W        W12896  25.640   9.700  13.016
46356W        W12897  16.049  26.152  14.272
46357W        W12898  40.081  43.385  13.604
46358W        W12899   7.723  26.516  13.633
46359W        W12900  23.813  36.943   3.393
46360W        W12901  32.464  41.083  10.681
46361W        W12902   7.909  26.730  12.898
46362W        W12903  43.458   1.849  10.725
46363W        W12904  21.033  41.923  13.552
46364W        W12905  16.149   0.759  13.579
46365W        W12906  43.561   9.787   3.678
46366W        W12907  17.157  39.112  12.910
46367W        W12908  30.210  17.730   1.504
46368W        W12909   1.862   1.491   0.716
46369W        W12910   8.848  29.532   4.090
46370W        W12911  33.799  38.794   0.456
46371W        W12912  33.373   8.652   0.438
46372W        W12913  33.755  25.913  11.730
46373W        W12914  23.460   9.727   3.546
46374W        W12915  16.528   7.438   4.107
46375W        W12916  44.797  44.684   0.829
46376W        W12917  37.436  11.127   1.409
46377W        W12918  23.375  31.943  12.876
46378W        W12919  25.759  27.258  11.094
46379W        W12920  27.415  21.278  12.794
46380W        W12921   8.964   5.453  11.147
46381W        W12922  38.997  31.894  13.962
46382W        W12923  38.072  22.419  13.811
46383W        W12924  16.530   2.817   3.232
46384W        W12925  12.650  14.421  12.581
46385W        W12926  33.306  26.109  12.731
46386W        W12927   3.423  21.574  10.593
46387W        W12928   3.846  39.379   2.652
46388W        W12929  21.769  25.180  14.117
46389W        W12930  18.974  43.219   4.184
46390W        W12931  13.281   4.919  14.463
46391W        W12932  21.623  35.069  10.453
46392W        W12933  35.174  32.627   4.137
46393W        W12934   1.945  21.458  14.534
46394W        W12935  44.515   8.654   5.024
46395W        W12936  10.648   1.762  13.682
46396W        W12937  36.489  26.942   4.940
46397W        W12938  28.967   0.325   2.690
46398W        W12939   9.938  21.639  11.613
46399W        W12940   8.320   0.932   4.220
46400W        W12941  11.631   6.324  13.355
46401W        W12942  13.231  20.582  14.782
46402W        W12943   5.186  23.999   2.645
46403W        W12944  32.026  24.542   0.417
46404W        W12945  40.035  30.677   4.389
46405W        W12946  30.446  26.451  10.646
46406W        W12947  15.583  43.771  10.736
46407W        W12948  11.712   1.372  12.669
46408W        W12949  34.957   2.040   2.668
46409W        W12950  18.966  13.204   2.023
46410W        W12951  41.344  30.337  10.745
46411W        W12952   5.263  26.998  12.852
46412W        W12953  23.897  35.129   4.556
46413W        W12954  31.499   1.413   2.941
46414W        W12955  39.972  34.666  14.461
46415W        W12956  42.886   7.771   4.003
46416W        W12957   9.566  42.390  13.852
46417W        W12958   1.106  33.215  14.908
46418W        W12959   0.215  31.060   3.110
46419W        W12960   6.687  16.611   3.866
46420W        W12961  14.886  40.602   2.300
46421W        W12962   4.202  25.081   3.627
46422W        W12963  15.850  44.818   3.269
46423W        W12964  35.586  34.936  11.062
46424W        W12965  21.444  14.630   4.848
46425W        W12966  19.114  20.686   1.645
46426W        W12967  16.196   5.306  10.396
46427W        W12968   0.074  22.094  14.309
46428W        W12969  18.128  25.264   2.772
46429W        W12970   5.634  18.229  11.432
46430W        W12971  27.964  28.655   0.673
46431W        W12972  43.790  40.646  14.545
46432W        W12973   4.800   5.968   3.153
46433W        W12974  33.808  13.057  11.598
46434W        W12975   3.690   4.845  11.497
46435W        W12976  27.659  15.868  12.440
46436W        W12977  12.163   8.208  13.862
46437W        W12978   2.502  39.423  13.910
46438W        W12979  11.820  15.065  11.155
46439W        W12980  30.990   5.626   2.391
46440W        W12981  26.273  11.261  14.080
46441W        W12982   6.293  16.728   0.927
46442W        W12983   2.928  34.407   4.088
46443W        W12984  22.781  39.721  11.126
46444W        W12985   0.447   9.928  14.866
46445W        W12986   0.312  42.487   1.687
46446W        W12987  36.086  29.690   4.999
46447W        W12988  27.282   9.181   2.360
46448W        W12989  30.627  15.177   1.695
46449W        W12990  23.882   0.333   4.664
46450W        W12991  27.996  11.612  10.365
46451W        W12992  22.555   8.107  14.447
46452W        W12993  11.403  41.561  13.824
46453W        W12994  30.045  32.517  10.726
46454W        W12995  11.182  26.623   4.044
46455W        W12996   8.712  10.064  13.758
46456W        W12997  37.662  31.760  11.961
46457W        W12998  44.377  37.657  13.413
46458W        W12999   8.161   2.356   3.164
46459W        W13000  12.313  44.310   0.878
46460W        W13001  33.930  32.066  12.791
46461W        W13002  39.452   3.717  12.707
46462W        W13003  33.271  24.458  14.660
46463W        W13004  42.785  32.519  10.878
46464W        W13005   7.444  12.313   4.237
46465W        W13006  10.374  10.234   4.614
46466W        W13007  30.369  40.069   4.648
46467W        W13008   4.722  23.574  11.941
46468W        W13009  18.494   6.861  14.495
46469W        W13010  15.710  31.534   0.198
46470W        W13011  43.979  35.406   4.541
46471W        W13012  14.787   9.071   0.316
46472W        W13013   0.216   3.347   1.651
46473W        W13014  15.307  31.709   4.120
46474W        W13015  28.357  24.293  11.047
46475W        W13016  18.713  23.038   0.785
46476W        W13017  21.559  26.078  12.845
46477W        W13018  24.047  33.115  11.385
46478W        W13019  36.772  34.996   2.877
46479W        W13020  39.834  31.350  12.656
46480W        W13021  42.526  18.557  12.121
46481W        W13022   0.781  17.854  12.516
46482W        W13023   7.112  33.661  12.632
46483W        W13024  19.788  35.500   3.757
46484W        W13025  23.234  10.704  10.694
46485W        W13026  11.821   7.720   2.216
46486W        W13027  19.739   7.065   3.228
46487W        W13028  22.503  43.045  14.469
46488W        W13029  21.238  17.721   1.346
46489W        W13030  18.312  25.496   2.320
46490W        W13031   9.169   1.323   3.263
46491W        W13032  18.081  11.673   1.349
46492W        W13033  29.865   6.187   0.924
46493W        W13034   5.887  38.915  12.339
46494W        W13035   9.336  25.181  14.770
46495W        W13036  15.251  41.715   3.384
46496W        W13037  28.159  24.404   4.677
46497W        W13038  13.558  13.650  12.287
46498W        W13039  36.905  32.362   1.159
46499W        W13040  36.376  23.954   3.547
46500W        W13041  26.982  26.732  11.100
46501W        W13042  31.166  41.923  12.110
46502W        W13043  29.274  36.797  14.854
46503W        W13044  29.796  14.299  11.603
46504W        W13045  29.644  39.044   0.364
46505W        W13046  32.470  16.183  14.706
46506W        W13047  37.517  39.521  10.629
46507W        W13048  11.346  31.283   2.839
46508W        W13049  15.097   0.318   0.320
46509W        W13050  33.100   4.471   1.817
46510W        W13051  25.081  26.501  13.982
46511W        W13052  18.567   9.224   4.205
46512W        W13053  14.225   6.915   4.089
46513W        W13054   5.861  27.912   4.592
46514W        W13055  29.149   4.261  11.748
46515W        W13056  19.795   1.529  14.376
46516W        W13057  39.098  10.681  10.772
46517W        W13058  41.105  32.028  13.329
46518W        W13059   5.948  41.506  11.494
46519W        W13060   6.447  38.107   0.713
46520W        W13061  19.952  43.355   3.169
46521W        W13062   7.217   9.397   0.924
46522W        W13063  16.586   6.155  11.730
46523W        W13064  25.482  32.224   1.932
46524W        W13065  34.290  10.851   1.192
46525W        W13066  26.551  44.844   0.468
46526W        W13067  13.769  10.435  14.863
46527W        W13068  18.780  22.636   3.215
46528W        W13069  35.559  43.967   4.083
46529W        W13070  44.150  36.349   4.755
46530W        W13071  41.628  25.344   3.674
46531W        W13072   1.417  33.638   4.664
46532W        W13073  34.415  39.916  12.067
46533W        W13074   7.079   3.204   4.176
46534W        W13075  16.312   3.336   5.025
46535W        W13076  27.080   4.492  11.999
46536W        W13077  43.908  37.420  13.558
46537W        W13078  15.407   3.339  14.895
46538W        W13079  29.025   4.198   0.412
46539W        W13080   4.346  15.316   3.573
46540W        W13081  44.346  23.593   4.115
46541W        W13082   9.907  29.146  13.284
46542W        W13083  43.920   1.982   0.975
46543W        W13084  44.821  34.514  14.844
46544W        W13085  34.774  37.591  13.555
46545W        W13086  28.143  26.028   1.986
46546W        W13087  42.844  19.935  11.187
46547W        W13088   0.274  10.345  11.385
46548W        W13089  29.922  40.292  11.389
46549W        W13090   2.756  33.602   5.210
46550W        W13091  42.493  27.856  11.225
46551W        W13092  28.678  43.440   2.570
46552W        W13093  41.921  38.568   0.824
46553W        W13094  25.952  14.684   2.359
46554W        W13095  29.568   7.889   4.126
46555W        W13096   9.909   3.285  14.965
46556W        W13097  26.778  34.994   1.799
46557W        W13098  13.850  35.499   2.802
46558W        W13099  20.665  43.117   1.970
46559W        W13100  37.989  41.509  13.435
46560W        W13101   7.464  26.933  11.533
46561W        W13102  22.622   2.977  13.384
46562W        W13103  19.587  33.828   1.342
46563W        W13104  31.908   9.711   1.788
46564W        W13105  44.750  17.793   0.431
46565W        W13106  13.671  18.093   4.710
46566W        W13107  41.030  43.209   1.355
46567W        W13108  15.257   4.313   2.637
46568W        W13109  14.782  14.144  12.076
46569W        W13110   8.742   6.122  14.044
46570W        W13111  23.387  26.177   0.223
46571W        W13112  23.965   9.693  11.151
46572W        W13113  34.912  13.136   1.768
46573W        W13114  20.564  13.431  13.493
46574W        W13115  26.945   0.438   2.303
46575W        W13116   3.824  10.929   4.087
46576W        W13117  17.771  36.846   3.581
46577W        W13118  28.417  12.692  12.468
46578W        W13119  20.708  10.226   3.928
46579W        W13120  44.365  37.501   0.862
46580W        W13121  42.440   4.376  12.328
46581W        W13122  44.523   2.486   2.818
46582W        W13123  19.641  11.873  13.461
46583W        W13124  39.574  13.115   2.399
46584W        W13125   4.014  17.650  14.508
46585W        W13126  16.581   0.978  12.607
46586W        W13127  35.604   5.866   0.999
46587W        W13128  39.397   6.806  11.129
46588W        W13129  13.338  24.269   3.695
46589W        W13130  24.354  12.656  12.405
46590W        W13131  17.183  12.780   1.330
46591W        W13132  36.054  17.935  12.408
46592W        W13133  14.689   1.257  14.993
46593W        W13134  24.712  22.743  10.421
46594W        W13135  38.383   1.979   3.248
46595W        W13136  12.575   5.901   1.727
46596W        W13137   8.329  21.454  10.559
46597W        W13138  11.293  36.180   2.348
46598W        W13139  44.143  28.601   4.722
46599W        W13140  11.398   5.845   2.562
46600W        W13141  32.189  28.704   1.643
46601W        W13142  25.667  28.137  12.481
46602W        W13143  42.495   2.355   2.773
46603W        W13144   6.695  35.430   0.859
46604W        W13145  13.719   9.424   3.451
46605W        W13146   2.974  23.641   4.254
46606W        W13147  21.642  44.509   1.270
46607W        W13148  10.628  44.941  14.015
46608W        W13149  29.147   4.222   3.209
46609W        W13150  28.276   8.988   5.024
46610W        W13151  40.986  30.406   2.346
46611W        W13152  37.526   8.172  14.772
46612W        W13153  25.047  34.419   2.495
46613W        W13154  40.208   5.800  12.169
46614W        W13155  33.584  44.850   0.499
46615W        W13156  23.257  13.817  11.497
46616W        W13157   6.547  37.344   0.518
46617W        W13158  41.402  22.738   1.465
46618W        W13159  25.996   9.869  13.959
46619W        W13160   9.218  33.909  11.919
46620W        W13161  13.161  33.597  10.245
46621W        W13162   6.345   0.963   3.258
46622W        W13163  19.084  36.011  13.383
46623W        W13164  38.359   3.878  14.369
46624W        W13165   7.418  10.707  13.603
46625W        W13166  21.901   6.229   3.625
46626W        W13167  20.858  31.373   4.668
46627W        W13168  33.917   2.171  12.561
46628W        W13169  25.319   6.709  12.627
46629W        W13170   6.848   1.395  10.562
46630W        W13171  44.981  44.855   9.945
46631W        W13172   4.817  41.847   3.224
46632W        W13173  35.638  18.820   4.137
46633W        W13174  28.746  12.624  12.092
46634W        W13175  14.379  18.081   0.896
46635W        W13176   5.817  29.521   2.895
46636W        W13177  20.282  40.585   0.766
46637W        W13178  15.634  23.669   3.876
46638W        W13179  32.592  11.215  12.047
46639W        W13180  19.057   9.420   1.702
46640W        W13181  40.927   0.198   4.681
46641W        W13182  16.924  42.343  14.525
46642W        W13183   9.165  37.545   3.866
46643W        W13184  29.166  37.455  10.687
46644W        W13185  21.091  31.888  14.372
46645W        W13186  21.815  33.055  12.342
46646W        W13187  33.118  31.139   4.609
46647W        W13188  23.759  39.011  12.868
46648W        W13189   6.241  41.909  10.719
46649W        W13190  13.080  34.116  10.218
46650W        W13191  27.102   0.501  13.840
46651W        W13192  17.126  30.685  14.099
46652W        W13193   0.686  29.473  14.874
46653W        W13194  26.212   5.633   1.299
46654W        W13195   2.370   9.213   4.634
46655W        W13196  16.487  29.398  11.100
46656W        W13197  40.066  17.108   0.508
46657W        W13198  33.595  39.231   1.292
46658W        W13199  34.999  38.753  12.418
46659W        W13200  12.323   9.143   2.654
46660W        W13201  39.514  38.530   0.345
46661W        W13202  38.747  29.128  10.284
46662W        W13203   5.203  18.106   2.770
46663W        W13204  30.262  13.827   3.796
46664W        W13205  37.372  33.963   4.205
46665W        W13206  29.503  25.815   2.134
46666W        W13207  11.867  40.569   1.289
46667W        W13208  15.589  37.961   5.114
46668W        W13209  37.518   1.411   1.226
46669W        W13210  34.037  43.480   4.933
46670W        W13211   1.959   5.411   1.107
46671W        W13212  19.806  21.210  10.651
46672W        W13213   2.276   6.837   0.442
46673W        W13214  26.555  20.955  12.642
46674W        W13215  25.035  20.979  12.220
46675W        W13216  11.885  14.346   2.769
46676W        W13217   2.237  29.543  14.719
46677W        W13218  43.737   1.810   2.408
46678W        W13219  19.288   7.985   3.193
46679W        W13220   1.367  24.565  10.199
46680W        W13221   2.301  22.779  10.603
46681W        W13222  12.289  21.670   3.717
46682W        W13223  16.672  28.460  11.697
46683W        W13224  43.450  31.961   2.159
46684W        W13225  34.828   8.781   0.499
46685W        W13226  33.297  26.410   4.590
46686W        W13227  38.451   9.145  12.641
46687W        W13228  16.699  25.260   1.805
46688W        W13229  37.825  37.808  11.583
46689W        W13230   9.459  27.290   3.037
46690W        W13231  28.805  29.155  12.930
46691W        W13232  17.721   8.273   4.301
46692W        W13233   3.869  22.209  13.139
46693W        W13234   5.925  17.089   3.803
46694W        W13235  11.897  41.542  12.346
46695W        W13236  35.632  16.117   4.869
46696W        W13237  28.622  19.621  12.503
46697W        W13238  42.363   4.269   4.208
46698W        W13239  25.520  14.850   4.148
46699W        W13240  39.392  36.596   3.229
46700W        W13241  32.432  19.782  12.056
46701W        W13242  31.165   6.728  10.449
46702W        W13243  14.863  44.693  10.575
46703W        W13244  34.063  29.743   1.850
46704W        W13245  33.915  39.957  14.386
46705W        W13246  21.500  30.256   0.795
46706W        W13247  41.975   4.052   1.797
46707W        W13248  22.024  40.396   2.839
46708W        W13249   4.999  31.850  11.495
46709W        W13250  13.225  19.619   9.993
46710W        W13251  42.480  44.201   3.712
46711W        W13252  44.874  10.176  10.637
46712W        W13253  35.800  36.558  14.354
46713W        W13254  25.546  38.405  11.324
46714W        W13255  21.963  13.748   4.161
46715W        W13256   8.894  39.820  14.819
46716W        W13257  40.234  14.590   0.797
46717W        W13258   7.208  41.586  11.953
46718W        W13259   1.846   9.171  14.309
46719W        W13260  16.777   1.362   0.486
46720W        W13261   9.134  29.432  12.513
46721W        W13262   9.997  17.816  12.631
46722W        W13263  40.258   2.924   0.765
46723W        W13264   8.039  34.004  14.364
46724W        W13265  29.535  40.818   1.831
46725W        W13266   3.503  23.951   3.317
46726W        W13267  32.237  41.217   3.687
46727W        W13268  42.500  20.584   1.875
46728W        W13269   4.393   5.375   2.799
46729W        W13270  43.668   0.415  13.402
46730W        W13271  13.368  21.840  11.460
46731W        W13272  43.614  32.377   1.160
46732W        W13273   7.970  37.044   2.128
46733W        W13274  25.529  37.013   0.897
46734W        W13275  17.548  30.386  10.257
46735W        W13276  20.514   8.275  12.120
46736W        W13277  25.462   7.745  11.605
46737W        W13278  39.550  12.687   3.611
46738W        W13279  23.154  22.709   4.009
46739W        W13280  36.102  28.121   0.254
46740W        W13281  30.934  28.368  11.121
46741W        W13282   4.895  39.049   4.346
46742W        W13283  33.021  25.918   4.161
46743W        W13284   4.726  39.323   3.256
46744W        W13285  15.529  10.806  13.973
46745W        W13286  24.480  28.916  12.084
46746W        W13287   1.557  15.095  14.538
46747W        W13288   5.923   8.990  12.743
46748W        W13289  27.189   6.941   1.860
46749W        W13290   1.269   1.228  14.573
46750W        W13291  37.346   5.837  12.559
46751W        W13292  10.108  26.589   0.911
46752W        W13293   6.802  31.593   3.768
46753W        W13294   4.662   8.693   4.536
46754W        W13295  44.963  20.063   0.879
46755W        W13296  14.191   8.836   2.302
46756W        W13297  34.446  35.989  14.958
46757W        W13298  29.119  13.177   2.638
46758W        W13299  29.901   9.908   1.369
46759W        W13300  28.619   7.878   0.009
46760W        W13301  40.867  15.486   3.768
46761W        W13302  42.843  13.536   3.858
46762W        W13303  39.355   7.238  12.663
46763W        W13304  16.214  27.373  14.621
46764W        W13305  44.585  27.383  12.471
46765W        W13306  24.058  35.103   1.539
46766W        W13307  42.511  16.297   4.006
46767W        W13308  37.904  25.700   3.712
46768W        W13309   9.429  21.291   4.742
46769W        W13310  38.010   0.426  11.640
46770W        W13311  39.844  44.405  13.777
46771W        W13312  37.462  15.840   4.476
46772W        W13313  18.986  22.425   9.747
46773W        W13314  17.014  35.697  11.581
46774W        W13315   9.637  40.833  13.896
46775W        W13316  34.500   9.897   3.169
46776W        W13317  43.018  22.448   0.245
46777W        W13318  39.366  14.960   2.085
46778W        W13319  35.309  43.287   0.677
46779W        W13320  17.648  34.672   3.164
46780W        W13321  26.953  10.392   4.954
46781W        W13322  12.336  40.325  11.032
46782W        W13323  13.232  12.000  14.759
46783W        W13324  38.062   8.158   4.630
46784W        W13325  23.000   3.372   0.384
46785W        W13326  40.047  17.534  12.643
46786W        W13327  15.158  16.932  11.758
46787W        W13328  18.686  31.434   1.596
46788W        W13329  42.288  18.716  14.131
46789W        W13330  26.681  21.161  14.375
46790W        W13331   9.863  37.865  10.068
46791W        W13332  20.704  30.065  14.457
46792W        W13333  40.521  25.819   3.810
46793W        W13334  22.387  16.054   3.740
46794W        W13335   9.439   1.745  11.750
46795W        W13336  27.934  34.124   1.733
46796W        W13337  16.359  18.214  14.838
46797W        W13338  43.275  33.455   0.043
46798W        W13339  16.917  16.275   1.301
46799W        W13340   7.954  20.663   3.698
46800W        W13341   4.764  19.197   0.051
46801W        W13342  35.569  35.557   3.323
46802W        W13343  33.437  39.409   3.626
46803W        W13344  14.340  33.155  12.377
46804W        W13345   4.608   7.331   5.012
46805W        W13346  22.585   9.098   5.087
46806W        W13347  25.076  27.048   3.671
46807W        W13348   8.645   4.479  11.068
46808W        W13349  25.649   3.259  14.415
46809W        W13350  31.601  27.126  11.511
46810W        W13351   7.543   2.460   4.012
46811W        W13352  37.354  31.450   1.765
46812W        W13353   8.144  15.674  12.897
46813W        W13354  16.669  24.493   1.324
46814W        W13355   1.742   4.893   2.808
46815W        W13356  12.558  25.664  10.696
46816W        W13357   1.882  36.015  10.368
46817W        W13358  21.633   3.416  11.814
46818W        W13359   2.745  41.894   4.062
46819W        W13360  43.954  10.559   3.958
46820W        W13361  31.930  35.410  13.374
46821W        W13362  38.975  21.116  11.719
46822W        W13363  26.878  32.074  13.888
46823W        W13364  23.120  44.232  11.184
46824W        W13365  23.897  22.095  10.477
46825W        W13366  21.986  26.481  14.338
46826W        W13367   8.725  34.652   0.821
46827W        W13368  13.122  37.577  14.315
46828W        W13369   1.895  28.241   4.197
46829W        W13370  34.884  35.318  10.257
46830W        W13371  27.789   9.927   0.263
46831W        W13372   3.476  41.054   2.875
46832W        W13373  15.984  35.427   2.787
46833W        W13374  15.001  19.630   0.242
46834W        W13375   8.450   1.459   4.680
46835W        W13376  29.191  15.745  13.077
46836W        W13377   7.371  26.595   0.753
46837W        W13378  31.881  20.499   3.701
46838W        W13379  41.581   0.733   2.860
46839W        W13380  35.936   3.787  14.634
46840W        W13381  21.249  12.798   5.003
46841W        W13382  30.166   1.320  13.003
46842W        W13383  19.621  23.948   3.259
46843W        W13384   8.978  11.300   1.135
46844W        W13385  11.638  31.375  13.045
46845W        W13386  44.632  30.849  10.232
46846W        W13387  11.223  42.518  10.932
46847W        W13388  32.496  41.182   4.126
46848W        W13389  14.013  13.451  12.083
46849W        W13390  12.242  35.784  14.777
46850W        W13391  41.474   1.521   3.240
46851W        W13392  39.058  22.505   4.265
46852W        W13393  25.972  34.428  14.980
46853W        W13394   7.472  14.927   3.517
46854W        W13395  44.264  40.977  14.835
46855W        W13396  25.713  18.570  14.955
46856W        W13397  42.031  41.585  13.392
46857W        W13398  15.688  40.309   4.124
46858W        W13399  20.572  11.612   2.806
46859W        W13400  38.807  10.345   1.265
46860W        W13401  38.012  39.623   1.984
46861W        W13402  42.439  11.277   5.036
46862W        W13403  13.326  22.089   0.498
46863W        W13404  34.972  17.340  12.837
46864W        W13405  33.343  12.672   2.139
46865W        W13406  34.594  16.501   2.493
46866W        W13407   0.253  34.621   4.112
46867W        W13408  32.630  22.981  13.909
46868W        W13409  30.965  15.666   0.245
46869W        W13410  36.821  12.666   0.932
46870W        W13411  17.605  12.038  14.447
46871W        W13412   9.224  15.010  10.717
46872W        W13413  29.577  43.331   1.214
46873W        W13414  35.534   4.684  13.841
46874W        W13415  25.507  38.620   1.934
46875W        W13416  14.496  24.073   0.214
46876W        W13417  28.537   0.325  13.320
46877W        W13418  37.796   0.282  14.986
46878W        W13419   2.783  28.872  11.915
46879W        W13420   6.095  19.475  12.844
46880W        W13421  34.693  44.549  12.701
46881W        W13422  28.525   9.428   4.915
46882W        W13423  17.568  18.497   4.104
46883W        W13424  11.235  28.175   4.518
46884W        W13425  23.262  41.706   3.180
46885W        W13426   2.786   4.539   2.160
46886W        W13427  22.578  29.354  13.549
46887W        W13428  30.843  21.697  13.525
46888W        W13429  32.927  10.766  12.543
46889W        W13430   5.107  22.709   2.981
46890W        W13431  18.601   7.215   4.105
46891W        W13432  23.245  10.743  13.682
46892W        W13433   8.767  40.975   4.778
46893W        W13434  19.669  19.575  12.507
46894W        W13435  32.933  44.753   3.307
46895W        W13436  28.204  33.621  12.367
46896W        W13437  26.553   5.617   9.832
46897W        W13438   8.307  41.155  13.419
46898W        W13439  27.030   8.185   4.037
46899W        W13440  16.859  18.242   3.542
46900W        W13441  12.618  22.166   4.846
46901W        W13442   2.193  37.465   4.906
46902W        W13443   3.144   1.151   4.101
46903W        W13444  13.416   1.748   0.336
46904W        W13445  21.568  22.971   0.228
46905W        W13446  42.725  16.151  12.975
46906W        W13447   2.320  31.256  14.298
46907W        W13448  41.043  26.968  11.628
46908W        W13449  12.156   4.819  12.501
46909W        W13450  39.316  14.016   3.615
46910W        W13451  32.595  23.625  10.721
46911W        W13452  23.058  44.885   2.313
46912W        W13453  24.489   2.370  14.363
46913W        W13454  44.323  20.474   0.593
46914W        W13455  11.142  23.985  13.386
46915W        W13456  15.294  35.097   4.053
46916W        W13457   6.901  27.584   2.179
46917W        W13458  32.811   8.336  12.416
46918W        W13459  40.637  12.510  12.443
46919W        W13460  21.776  13.852   5.068
46920W        W13461  19.419   8.276  11.624
46921W        W13462   5.159  33.862   3.194
46922W        W13463  36.470  21.284   0.097
46923W        W13464   0.503   9.621   4.519
46924W        W13465  37.373  21.620   2.233
46925W        W13466   4.176  19.116   2.249
46926W        W13467  10.388  19.482  12.550
46927W        W13468   0.921   7.657  11.062
46928W        W13469  44.520  14.114   4.644
46929W        W13470  25.039  10.676   2.584
46930W        W13471  26.704   0.454   3.790
46931W        W13472  26.918  29.421  13.829
46932W        W13473  41.411  16.081  14.380
46933W        W13474  28.148  28.668   2.674
46934W        W13475  24.264  37.533  14.387
46935W        W13476  36.342  26.963   1.308
46936W        W13477  39.423  12.916   4.951
46937W        W13478  20.586  44.998   0.176
46938W        W13479  32.653   0.404   2.381
46939W        W13480  32.523  41.343  13.406
46940W        W13481  32.735  42.998   4.631
46941W        W13482  12.462  26.758  11.970
46942W        W13483  33.408  22.403  12.396
46943W        W13484  22.369   3.602   4.964
46944W        W13485   6.551  13.308   1.622
46945W        W13486  12.623  33.034   1.436
46946W        W13487  18.795  40.116  14.031
46947W        W13488  39.419  25.021  14.782
46948W        W13489  33.677  20.629  12.462
46949W        W13490  41.818  35.570  14.944
46950W        W13491   1.917  42.011  11.644
46951W        W13492  16.325  32.702   5.044
46952W        W13493  32.856  33.582   1.198
46953W        W13494  44.870  19.070  12.792
46954W        W13495   7.221  30.212   0.819
46955W        W13496  42.572  37.079  13.439
46956W        W13497   2.803   5.549   2.086
46957W        W13498  10.636   5.346  13.452
46958W        W13499  18.243   0.210   1.227
46959W        W13500  22.938   2.118   3.707
46960W        W13501  13.270  34.553   1.944
46961W        W13502  14.265  44.440   4.646
46962W        W13503  20.648  33.594   1.810
46963W        W13504  20.031   2.408  14.780
46964W        W13505   3.226  20.235  12.566
46965W        W13506  16.492  10.273  12.839
46966W        W13507  18.373  32.455   0.306
46967W        W13508  23.194   1.672   3.730
46968W        W13509   5.499  17.261  12.256
46969W        W13510   8.915  30.110   1.240
46970W        W13511  32.207  15.378  11.736
46971W        W13512  15.564  41.014   0.486
46972W        W13513  42.490  27.241  14.511
46973W        W13514  35.901  15.547  11.570
46974W        W13515  23.987  25.229  13.535
46975W        W13516  27.495  12.381  12.535
46976W        W13517   6.825  18.895  12.946
46977W        W13518  31.290  38.887  10.364
46978W        W13519  35.555  11.789   3.439
46979W        W13520  14.209  15.009   4.501
46980W        W13521  39.026  25.950   2.166
46981W        W13522  23.646   6.640   3.505
46982W        W13523   1.737   2.421   1.908
46983W        W13524  33.222  23.573   4.091
46984W        W13525   2.628  38.479   3.495
46985W        W13526  18.281  40.188  14.074
46986W        W13527  20.576   0.893   3.192
46987W        W13528  12.894   6.455  12.016
46988W        W13529  15.455  16.080   1.309
46989W        W13530   0.456  44.368  13.548
46990W        W13531  19.218  13.082  10.783
46991W        W13532  32.425   5.041   2.846
46992W        W13533   0.482   9.701   0.346
46993W        W13534   7.236  32.593   0.249
46994W        W13535  42.808  14.283  14.222
46995W        W13536   3.007  11.786  13.847
46996W        W13537  14.920  27.110   3.224
46997W        W13538  44.023  26.068   1.381
46998W        W13539  20.177  20.810  11.611
46999W        W13540  28.649   6.506  13.330
47000W        W13541  19.601  15.744  11.357
47001W        W13542   4.927  34.263  12.829
47002W        W13543  11.085   6.533   3.068
47003W        W13544   2.891  18.669   1.256
47004W        W13545   1.341  28.676   3.489
47005W        W13546  19.796  39.839  14.505
47006W        W13547   1.008  38.841   2.158
47007W        W13548  10.508   6.254  10.239
47008W        W13549  32.570  15.572  13.369
47009W        W13550  14.724  26.200   4.683
47010W        W13551  27.684  41.618   4.910
47011W        W13552   1.450  37.269  14.329
47012W        W13553  37.534  44.706  13.378
47013W        W13554   4.868  15.332   0.510
47014W        W13555  12.528  13.318   3.088
47015W        W13556  25.114  26.495  12.988
47016W        W13557  44.029  28.668  11.052
47017W        W13558  11.253   3.180   2.341
47018W        W13559  36.333  13.190  12.793
47019W        W13560   0.330  25.083   4.945
47020W        W13561   2.995  12.793  13.820
47021W        W13562  25.990  43.444  13.789
47022W        W13563  42.485  35.417   3.208
47023W        W13564  31.951  25.584  13.269
47024W        W13565  20.781  30.890  12.072
47025W        W13566  33.617  29.161  13.521
47026W        W13567  35.331   8.718  13.683
47027W        W13568  12.672   3.509   1.888
47028W        W13569   2.548   6.382  12.350
47029W        W13570  12.052   8.164  10.742
47030W        W13571  40.306  22.037  14.993
47031W        W13572  29.539  27.316  13.829
47032W        W13573  16.187  10.624   4.515
47033W        W13574  27.476   2.838  11.439
47034W        W13575   5.771  27.174  11.057
47035W        W13576  18.166   4.787  14.315
47036W        W13577   8.653  26.843   5.003
47037W        W13578  27.022  22.962  12.094
47038W        W13579  30.852  38.810   2.307
47039W        W13580   8.441  11.395  11.475
47040W        W13581  42.015  30.865   1.276
47041W        W13582  12.255  44.789   4.252
47042W        W13583  40.071   2.720  10.583
47043W        W13584  17.064  39.350   4.371
47044W        W13585  31.298  13.667  14.394
47045W        W13586  29.416  23.473   2.777
47046W        W13587   4.777  17.591   1.777
47047W        W13588  15.113   8.456  13.265
47048W        W13589  31.099   1.997  14.781
47049W        W13590   7.942  43.456   2.775
47050W        W13591  17.193  13.168   2.813
47051W        W13592  28.664  15.099   0.922
47052W        W13593   7.118   5.423  11.473
47053W        W13594  32.063   5.564  14.230
47054W        W13595  21.737  42.248  13.565
47055W        W13596   5.527  20.938   0.389
47056W        W13597   6.342   1.203   3.792
47057W        W13598  37.353  42.243  14.527
47058W        W13599  31.163  38.795   0.312
47059W        W13600  43.929   9.452  12.666
47060W        W13601  10.813  17.484   4.939
47061W        W13602  36.434  12.322   2.200
47062W        W13603  22.824  40.327   1.526
47063W        W13604  30.901  37.650   3.734
47064W        W13605  10.602  10.693   4.576
47065W        W13606  24.059  16.325   0.820
47066W        W13607   1.172  25.940  11.243
47067W        W13608  15.648  13.098   4.520
47068W        W13609  43.299   3.914  13.215
47069W        W13610  30.231  31.529  12.800
47070W        W13611  40.064  23.247   3.645
47071W        W13612  38.574   7.929  13.349
47072W        W13613   0.731  39.396  11.379
47073W        W13614  32.870   1.166  10.946
47074W        W13615  20.581  21.962   4.317
47075W        W13616  17.054   4.607   3.191
47076W        W13617  21.618  25.099  12.567
47077W        W13618   6.245   6.046   3.257
47078W        W13619  35.458   4.879   4.436
47079W        W13620  41.027  10.569   5.214
47080W        W13621  16.361  39.867  12.030
47081W        W13622  30.141   7.681   2.733
47082W        W13623  22.170  25.010   3.257
47083W        W13624  36.628   4.327  12.139
47084W        W13625  24.107  30.928   2.413
47085W        W13626  17.254  34.343   1.623
47086W        W13627  23.099  25.771  14.291
47087W        W13628  31.853  27.458   1.810
47088W        W13629  35.477  29.071  12.683
47089W        W13630  37.652  34.546   0.037
47090W        W13631  12.132  34.112   3.243
47091W        W13632  25.581  43.555   4.079
47092W        W13633  25.518  33.464  14.865
47093W        W13634  20.150  26.639  10.341
47094W        W13635  20.335  39.316  13.462
47095W        W13636  32.194  11.634  13.181
47096W        W13637  40.965  23.350  13.308
47097W        W13638  23.034  43.646   0.780
47098W        W13639   3.411   5.648  13.664
47099W        W13640  18.124  30.654   0.576
47100W        W13641  39.932  22.787  14.260
47101W        W13642  43.950  19.070  13.299
47102W        W13643  40.782  36.154  11.186
47103W        W13644  29.552  27.403  14.352
47104W        W13645   2.905  30.458  11.075
47105W        W13646  43.436  23.521   2.365
47106W        W13647   9.646  27.312  12.529
47107W        W13648   3.492  11.172  12.641
47108W        W13649   1.930  22.426   1.838
47109W        W13650   4.884  26.971  11.475
47110W        W13651  18.232  19.766  12.530
47111W        W13652  29.639  10.300  10.386
47112W        W13653  30.619  23.652   3.430
47113W        W13654  16.539  41.285   2.752
47114W        W13655   6.959  25.243   2.212
47115W        W13656  22.067   1.226   3.923
47116W        W13657  15.563   3.310  13.386
47117W        W13658   9.146  38.815  14.438
47118W        W13659  14.383  20.202  12.040
47119W        W13660   2.491  19.086   0.390
47120W        W13661  15.291  13.846  13.029
47121W        W13662  30.735  40.512  14.412
47122W        W13663  26.579  18.396   5.062
47123W        W13664  16.074   3.721   4.671
47124W        W13665  29.883  35.808   2.235
47125W        W13666   4.363  12.273  12.915
47126W        W13667  35.563  44.399  11.320
47127W        W13668  11.373   2.409  14.352
47128W        W13669  26.601  40.215   1.486
47129W        W13670  36.452  19.432  14.452
47130W        W13671   9.338   0.353   0.192
47131W        W13672  18.331  18.032  12.952
47132W        W13673  34.401  42.462   3.223
47133W        W13674  16.558  36.994   1.778
47134W        W13675  11.178  30.017  11.316
47135W        W13676  24.425  44.013   3.665
47136W        W13677  39.753  15.327  12.848
47137W        W13678  16.239  33.882  14.318
47138W        W13679  22.023  44.504  13.009
47139W        W13680  33.063   7.733   2.645
47140W        W13681  13.584  14.807  11.119
47141W        W13682  29.114  41.786   3.417
47142W        W13683  19.834  24.784  12.044
47143W        W13684  23.903  16.186  13.797
47144W        W13685  39.523  21.313   3.697
47145W        W13686  14.843  38.160  10.765
47146W        W13687  43.177  26.527   4.738
47147W        W13688  33.350  12.864  13.978
47148W        W13689  10.263  31.643   1.147
47149W        W13690   9.094  33.146   4.633
47150W        W13691  16.523  25.113  12.381
47151W        W13692  30.771  12.226   0.982
47152W        W13693  37.032  44.719  10.677
47153W        W13694   0.979  26.867   4.852
47154W        W13695  35.376  32.893  13.007
47155W        W13696  34.731  16.522   0.887
47156W        W13697  23.252  17.453  14.807
47157W        W13698  30.635  22.332   2.787
47158W        W13699  34.602  44.886  10.779
47159W        W13700  32.294  19.615  12.930
47160W        W13701  40.344   2.392  14.520
47161W        W13702   5.903  42.469   3.665
47162W        W13703  29.533  20.927   3.843
47163W        W13704  39.018  26.647  13.935
47164W        W13705  28.964  11.294  13.840
47165W        W13706   8.243  40.447  11.587
47166W        W13707  15.826  31.193  14.444
47167W        W13708   8.261  13.498  10.767
47168W        W13709  27.640  20.496   3.223
47169W        W13710   7.928   9.230  11.181
47170W        W13711  41.451  23.143  14.055
47171W        W13712  31.845   7.108  10.879
47172W        W13713  44.775  29.949  13.562
47173W        W13714   2.465  30.982  12.638
47174W        W13715  30.875  42.881   2.207
47175W        W13716  27.608  28.369   0.971
47176W        W13717  12.416  38.974   2.375
47177W        W13718  19.635   5.694   1.790
47178W        W13719  21.166  44.871   2.609
47179W        W13720  30.462  20.163  10.657
47180W        W13721  25.687   4.854   3.655
47181W        W13722   6.748   2.088  11.536
47182W        W13723  10.571  16.021   2.756
47183W        W13724   0.453  36.628  13.452
47184W        W13725  11.082  17.559   0.160
47185W        W13726  23.792  22.044  13.696
47186W        W13727   3.733  22.183  11.485
47187W        W13728  12.198  19.599  13.414
47188W        W13729  36.045  19.302  13.224
47189W        W13730  10.659  31.572  13.437
47190W        W13731  34.695  15.232   3.240
47191W        W13732  16.099  30.217  11.190
47192W        W13733  31.129  24.947  13.866
47193W        W13734  33.015  29.822   0.981
47194W        W13735  33.680  15.410   5.005
47195W        W13736  42.000   1.711  13.015
47196W        W13737   2.211  42.983  11.387
47197W        W13738  18.787  10.958   2.194
47198W        W13739  18.783  31.711   3.138
47199W        W13740  25.612  36.887   3.705
47200W        W13741  19.566  27.632   4.513
47201W        W13742  41.910  13.585   1.520
47202W        W13743  11.783   7.878  11.347
47203W        W13744  18.782   7.694  11.445
47204W        W13745   5.929  41.282   1.933
47205W        W13746  10.530  35.628   1.356
47206W        W13747  21.307  39.748  14.546
47207W        W13748  23.622  31.035   0.241
47208W        W13749  15.269  32.269  11.362
47209W        W13750  30.995  18.294   0.848
47210W        W13751   6.766  30.066  12.936
47211W        W13752  31.077   3.591  10.814
47212W        W13753   3.968   6.777  12.920
47213W        W13754   4.762   4.945  11.587
47214W        W13755  15.120  14.984   4.569
47215W        W13756  10.205   6.243  13.873
47216W        W13757  12.818  13.483  13.945
47217W        W13758   8.684  25.407   1.915
47218W        W13759  25.758  27.135   1.703
47219W        W13760  31.887  30.813  14.907
47220W        W13761  13.157  12.722   4.135
47221W        W13762  20.066  17.030   4.876
47222W        W13763  43.928   4.230  13.338
47223W        W13764  23.397  32.857   0.420
47224W        W13765  35.129  18.326  12.469
47225W        W13766   5.772  10.838  14.294
47226W        W13767  36.546  16.612  11.750
47227W        W13768  16.413  30.920   1.406
47228W        W13769  11.300   7.807   0.902
47229W        W13770   6.300  12.575   0.349
47230W        W13771  38.999  44.415   3.866
47231W        W13772  18.723  24.327  14.368
47232W        W13773  35.917  41.741  12.037
47233W        W13774  10.799  41.485   4.540
47234W        W13775  11.134  22.475  12.104
47235W        W13776  29.645   5.939   1.336
47236W        W13777  19.734  27.226  11.149
47237W        W13778   3.566  26.542  11.151
47238W        W13779   7.283  27.479  14.900
47239W        W13780  23.000   2.848   0.478
47240W        W13781  36.882  11.241   4.541
47241W        W13782  34.583  23.534   2.619
47242W        W13783  15.527  16.025   4.199
47243W        W13784  16.649  18.080  12.120
47244W        W13785  15.581  33.649  13.599
47245W        W13786  41.286  10.898   4.922
47246W        W13787  22.305  12.735   4.040
47247W        W13788  42.339  42.437   4.499
47248W        W13789  28.520  11.687   2.770
47249W        W13790  16.727   4.167   4.818
47250W        W13791   6.256  30.708  10.367
47251W        W13792  37.876  39.589  12.126
47252W        W13793  29.552  36.549   4.587
47253W        W13794  42.706  23.676   3.356
47254W        W13795   8.911  23.579   1.320
47255W        W13796  15.249   1.925  10.766
47256W        W13797  38.320  40.304   4.576
47257W        W13798  26.480  37.101   0.895
47258W        W13799   9.746  38.834   2.709
47259W        W13800  16.768   5.810  14.819
47260W        W13801  25.149  19.981   3.729
47261W        W13802  26.882   4.959  11.939
47262W        W13803   9.839  40.982   1.792
47263W        W13804  14.038  28.946  13.816
47264W        W13805  37.373   9.572   3.797
47265W        W13806  16.315  41.318  12.019
47266W        W13807  31.169   8.713   1.856
47267W        W13808  27.074  19.184   1.423
47268W        W13809  11.621  34.606  14.392
47269W        W13810  30.426  32.944  14.024
47270W        W13811  16.747  35.895  11.979
47271W        W13812   2.975   2.070  13.725
47272W        W13813   6.957  24.085   3.227
47273W        W13814  33.575  14.244  10.414
47274W        W13815  13.848   3.996  11.702
47275W        W13816   6.073  24.086   1.374
47276W        W13817  16.566  10.990   1.354
47277W        W13818  16.110   2.743   0.798
47278W        W13819   9.741   1.321  14.539
47279W        W13820  30.402  21.100  14.804
47280W        W13821  28.009  12.264  13.822
47281W        W13822  18.503   4.488   3.335
47282W        W13823  37.546  30.936  12.518
47283W        W13824  34.851  27.277   3.402
47284W        W13825   6.289  23.493   0.432
47285W        W13826  28.471  39.568  14.826
47286W        W13827  26.140  12.351  10.670
47287W        W13828  20.736  22.383  14.496
47288W        W13829  36.002  35.911   0.195
47289W        W13830  28.647  25.511  14.050
47290W        W13831   4.714  21.013   0.357
47291W        W13832   9.668  11.890  11.121
47292W        W13833  32.602  38.577  13.958
47293W        W13834  15.310  24.949   2.199
47294W        W13835  28.787   5.261  13.451
47295W        W13836   7.400  21.585   0.210
47296W        W13837  32.861  26.416   4.326
47297W        W13838   2.108  36.381   0.376
47298W        W13839  42.459  23.105   4.232
47299W        W13840   5.359   8.744  10.722
47300W        W13841   7.415  41.078  11.576
47301W        W13842  23.256  42.969   2.811
47302W        W13843  37.112  27.083  11.592
47303W        W13844  38.753  18.335   1.441
47304W        W13845  41.591  25.069   3.221
47305W        W13846   4.791  17.048  14.849
47306W        W13847  24.211  20.281  12.912
47307W        W13848  37.751  18.976   3.614
47308W        W13849  15.711  15.500   5.008
47309W        W13850  43.318  43.393   3.963
47310W        W13851  39.520  38.346   4.761
47311W        W13852   1.304   8.807  11.981
47312W        W13853  38.898  30.353  10.716
47313W        W13854   3.655   9.218   0.869
47314W        W13855  14.553  25.970  14.199
47315W        W13856   4.510   6.631   0.520
47316W        W13857  37.304  18.832   1.674
47317W        W13858  12.937   3.692   2.304
47318W        W13859  12.963  19.661  14.281
47319W        W13860  42.017  30.305   0.452
47320W        W13861  34.205  16.696   3.797
47321W        W13862   1.159  22.416   1.337
47322W        W13863  23.589  13.491  10.519
47323W        W13864  26.441  24.003  11.533
47324W        W13865  14.056  10.363   3.090
47325W        W13866  21.342   4.586   2.264
47326W        W13867  23.717  10.839   0.258
47327W        W13868  20.131  16.657   4.509
47328W        W13869  29.528   6.186  10.721
47329W        W13870  43.580  28.866  11.151
47330W        W13871  43.058  37.670  10.408
47331W        W13872  42.072  10.256   1.879
47332W        W13873  43.842   6.076   1.837
47333W        W13874  35.148  13.596   1.646
47334W        W13875   3.731  39.644   4.128
47335W        W13876   1.680  21.614   4.623
47336W        W13877  43.678  21.053  11.584
47337W        W13878  33.363  21.467  13.444
47338W        W13879  10.453  36.334   4.130
47339W        W13880  21.338   3.678  10.624
47340W        W13881  44.900  36.178   0.778
47341W        W13882  28.695  32.340  11.106
47342W        W13883  18.284  44.876  13.006
47343W        W13884  35.995  41.002  14.067
47344W        W13885  29.650   4.649   1.770
47345W        W13886  20.231  24.948   1.513
47346W        W13887  31.174  18.314  12.541
47347W        W13888  12.506   6.259  11.124
47348W        W13889   7.801  21.168   0.040
47349W        W13890  20.688   9.385   2.169
47350W        W13891  22.494  15.073   2.485
47351W        W13892  22.134   1.775   4.041
47352W        W13893  44.390  17.743   4.727
47353W        W13894  30.197  29.384  11.364
47354W        W13895  33.272   0.116   3.739
47355W        W13896  40.512  24.291   4.442
47356W        W13897  27.128  11.226  10.552
47357W        W13898  42.773  18.655  11.252
47358W        W13899  40.420   2.913  14.424
47359W        W13900  33.372  36.197  11.597
47360W        W13901  41.758   2.201  12.075
47361W        W13902  13.676  11.654   4.083
47362W        W13903  15.596  41.859  13.514
47363W        W13904   9.853   1.358  13.537
47364W        W13905  28.670  13.370   1.904
47365W        W13906  11.837  29.976  10.710
47366W        W13907  13.193  41.343   2.769
47367W        W13908  20.311  25.574  12.693
47368W        W13909  17.093  26.550   3.166
47369W        W13910   3.888  29.200   1.358
47370W        W13911  36.128  10.008  13.418
47371W        W13912  19.260   2.030  13.360
47372W        W13913  25.670  27.694   3.225
47373W        W13914   0.034   0.271   1.933
47374W        W13915  43.658   4.215  10.665
47375W        W13916  25.072   9.320   4.905
47376W        W13917  18.686  20.008   4.938
47377W        W13918  26.456  28.509   1.680
47378W        W13919  25.436  34.063   0.916
47379W        W13920  12.171  31.795   4.994
47380W        W13921   8.765  33.910   3.616
47381W        W13922   6.024   4.991   2.651
47382W        W13923  28.270  42.333   2.930
47383W        W13924  19.003  19.588   0.735
47384W        W13925  37.293  21.806  11.383
47385W        W13926  10.512  21.208   1.169
47386W        W13927  39.448  24.074   0.018
47387W        W13928  40.835   4.739  14.355
47388W        W13929  27.106  13.771  13.834
47389W        W13930  27.812  26.608  11.921
47390W        W13931  30.094  27.938   1.481
47391W        W13932   4.817  13.921  11.605
47392W        W13933  33.329  44.375  13.897
47393W        W13934  32.705  19.488   1.322
47394W        W13935  13.676  37.100   3.206
47395W        W13936  30.871  38.471   4.260
47396W        W13937  42.100  11.615   1.236
47397W        W13938  12.878  17.600  13.031
47398W        W13939  39.539  36.535  12.086
47399W        W13940  19.273  30.149   0.514
47400W        W13941  28.120  44.955   3.637
47401W        W13942  36.626  22.275   3.162
47402W        W13943  12.932  24.589   2.790
47403W        W13944   8.276  12.989  14.377
47404W        W13945  35.475   1.206  11.101
47405W        W13946  27.788  17.531  14.581
47406W        W13947  37.451  12.162   4.311
47407W        W13948  33.075   9.177   4.104
47408W        W13949  35.677   8.039  12.515
47409W        W13950  35.933  26.504   2.389
47410W        W13951  43.242   2.150  12.618
47411W        W13952  13.901   7.250  12.601
47412W        W13953  28.341   8.688  12.673
47413W        W13954  32.372   3.708   1.878
47414W        W13955  43.402  32.781  10.668
47415W        W13956  13.786   9.818   4.309
47416W        W13957  24.919  28.482  13.889
47417W        W13958  44.430   6.233  11.303
47418W        W13959  36.341  27.201  12.865
47419W        W13960  44.901  42.108   3.658
47420W        W13961  40.423  14.338  12.210
47421W        W13962  43.555  14.182   1.919
47422W        W13963   9.218  22.057  13.085
47423W        W13964  41.809  23.713  13.031
47424W        W13965  40.463  23.113   2.351
47425W        W13966  24.214  12.899   1.381
47426W        W13967  23.141  13.349  12.109
47427W        W13968  17.869  25.823   1.434
47428W        W13969  10.301   4.893   4.146
47429W        W13970  23.628   0.002   4.293
47430W        W13971  15.605   6.496  10.948
47431W        W13972   9.149  34.091   4.563
47432W        W13973  28.385  20.276   1.864
47433W        W13974  20.927  33.459  13.922
47434W        W13975  20.204  37.012  14.916
47435W        W13976  14.893   5.188  10.952
47436W        W13977  20.320  43.711   0.001
47437W        W13978  39.844   7.081  14.488
47438W        W13979  38.465  36.839  14.885
47439W        W13980   2.392  33.309   1.923
47440W        W13981  27.069  25.230   4.472
47441W        W13982   1.496  43.537   3.899
47442W        W13983  35.991  43.097  10.662
47443W        W13984  18.484  28.542   4.730
47444W        W13985  18.279   1.843   1.852
47445W        W13986  16.342   9.714   3.274
47446W        W13987  11.003   0.484  14.495
47447W        W13988   5.911  13.759  11.542
47448W        W13989  39.383  44.764  11.013
47449W        W13990   4.158  31.652  11.270
47450W        W13991  30.377  10.680   3.109
47451W        W13992  10.297  41.219   1.848
47452W        W13993  10.746  17.226   0.386
47453W        W13994  20.241  13.844   1.261
47454W        W13995   6.627  20.507  10.635
47455W        W13996  29.147  20.114   0.749
47456W        W13997  39.183   0.651  12.999
47457W        W13998  35.126   8.388   1.315
47458W        W13999   2.313   1.374   0.976
47459W        W14000  11.624  35.873   2.753
47460W        W14001  19.997   4.681   3.274
47461W        W14002  16.831  30.515  12.566
47462W        W14003  26.472  38.524  11.209
47463W        W14004  15.718  31.312   2.669
47464W        W14005   7.761  39.363  14.817
47465W        W14006  30.458   0.426   1.998
47466W        W14007  39.342   9.761  14.222
47467W        W14008  27.693  23.227  11.191
47468W        W14009  23.182  12.280   4.180
47469W        W14010   5.213  38.342  13.438
47470W        W14011  17.683  28.474   4.154
47471W        W14012  36.495  42.778   2.757
47472W        W14013  14.848  19.787  14.790
47473W        W14014  16.591  31.717   1.280
47474W        W14015   2.707  22.001  14.845
47475W        W14016  13.323   5.621  12.876
47476W        W14017  43.481   2.965  11.389
47477W        W14018  11.097  38.956  13.303
47478W        W14019  20.016   0.967   2.764
47479W        W14020  10.307   7.133   3.303
47480W        W14021  44.835  24.211  10.749
47481W        W14022  15.311  29.456   1.708
47482W        W14023   9.214  18.780   0.305
47483W        W14024  20.981  25.103  10.653
47484W        W14025   6.668  33.554  13.484
47485W        W14026  44.256  22.989  12.254
47486W        W14027   1.244  12.053   2.229
47487W        W14028   8.195  34.952   3.616
47488W        W14029  10.695  17.833  12.077
47489W        W14030   7.185   9.426   3.756
47490W        W14031   7.914  30.382  14.980
47491W        W14032   3.531  35.118   3.254
47492W        W14033   8.408  23.493  13.056
47493W        W14034   7.788   7.251   4.407
47494W        W14035  37.542   3.146   2.584
47495W        W14036  24.190  41.504  11.199
47496W        W14037  19.289  21.545   1.748
47497W        W14038  43.978  17.218  13.169
47498W        W14039  37.128  26.972  12.396
47499W        W14040  34.217  21.541  13.901
47500W        W14041  34.459  16.164  14.365
47501W        W14042   5.327  11.689   1.922
47502W        W14043  41.431  19.183   3.247
47503W        W14044   2.828   1.364   2.289
47504W        W14045  36.548  10.636  14.520
47505W        W14046  11.182  14.844  12.080
47506W        W14047  18.045  28.661  13.088
47507W        W14048  19.926  15.095  14.066
47508W        W14049   6.081  41.970  13.952
47509W        W14050  34.150  10.949  13.579
47510W        W14051  12.680  18.533   2.918
47511W        W14052   2.519  24.705   1.953
47512W        W14053   1.416  37.373   2.690
47513W        W14054  23.639  39.051  11.373
47514W        W14055  21.227  41.452  13.461
47515W        W14056   1.256  44.964  13.904
47516W        W14057  12.632  43.412   4.155
47517W        W14058   4.131  16.638  12.488
47518W        W14059  23.373  44.679  11.176
47519W        W14060  16.540  25.539   1.396
47520W        W14061  41.084  15.773   5.220
47521W        W14062   1.728  24.010  12.991
47522W        W14063  31.126  29.961  13.080
47523W        W14064  38.032  23.494   4.472
47524W        W14065   2.512  21.054   3.539
47525W        W14066   7.302  31.921  12.118
47526W        W14067  32.486  14.585  13.810
47527W        W14068  38.104  15.816  11.158
47528W        W14069  32.894  13.237   1.761
47529W        W14070  43.455  40.332  11.848
47530W        W14071  19.140  28.680   3.806
47531W        W14072   3.362  20.026   0.985
47532W        W14073  11.382  34.614   2.408
47533W        W14074  44.358   8.440  12.431
47534W        W14075  35.506  16.191  13.605
47535W        W14076  29.605  11.326   1.277
47536W        W14077  21.709  23.891   1.347
47537W        W14078  35.540  33.668  10.551
47538W        W14079  23.135  11.549   0.532
47539W        W14080  20.906   1.939   4.972
47540W        W14081  44.389   8.897  13.322
47541W        W14082  10.825  37.823  13.705
47542W        W14083  21.781  14.676  11.516
47543W        W14084  38.010   0.367   4.995
47544W        W14085   4.845  17.547   0.783
47545W        W14086  43.774  40.089  11.023
47546W        W14087  43.038  17.844  10.738
47547W        W14088  44.708  12.017   0.973
47548W        W14089  11.132  38.005   9.732
47549W        W14090   0.189   5.400  12.515
47550W        W14091  18.999  17.816  11.734
47551W        W14092  37.718  23.711   3.774
47552W        W14093  31.565  24.528  13.046
47553W        W14094  21.184  26.734   0.151
47554W        W14095   4.098   9.589  11.142
47555W        W14096  14.962  21.653   3.626
47556W        W14097   1.695  15.819  10.795
47557W        W14098  22.478  38.435   1.286
47558W        W14099  16.226  29.354  11.543
47559W        W14100  22.165  13.484   0.461
47560W        W14101  31.279  12.077   0.888
47561W        W14102  26.310  24.821  12.432
47562W        W14103  38.249   2.127  14.522
47563W        W14104  29.679  15.424   3.076
47564W        W14105  19.726  29.490   4.593
47565W        W14106  44.415  35.443  12.364
47566W        W14107  14.669  14.738   3.717
47567W        W14108  38.401  19.172   2.281
47568W        W14109  21.731  28.454  14.211
47569W        W14110  13.322  23.021  12.120
47570W        W14111   7.766   5.567  12.917
47571W        W14112  28.032  25.210   0.849
47572W        W14113   1.413  21.848  12.671
47573W        W14114  31.897   3.856  11.343
47574W        W14115  15.772  42.211   4.099
47575W        W14116   5.678  20.515   0.759
47576W        W14117  37.993  29.574   0.628
47577W        W14118  31.168  29.173   4.357
47578W        W14119  24.530   1.154  11.967
47579W        W14120  30.292   7.230  14.793
47580W        W14121   7.854   8.274   0.929
47581W        W14122  10.143  22.830   0.922
47582W        W14123   3.963   8.129  10.808
47583W        W14124  26.344   8.670  10.057
47584W        W14125  43.016  35.132  10.741
47585W        W14126  29.906  13.924   4.949
47586W        W14127  34.471  24.154   3.300
47587W        W14128  13.560  19.034  13.878
47588W        W14129  14.915  34.888  13.311
47589W        W14130  33.960  32.324  14.726
47590W        W14131  32.877   0.862  12.957
47591W        W14132   9.878  38.311  13.003
47592W        W14133  41.424  11.288   3.039
47593W        W14134  22.082   8.951  14.305
47594W        W14135  36.601   8.766  14.038
47595W        W14136  38.377  40.577  11.464
47596W        W14137  15.673  33.080  11.509
47597W        W14138  33.507  24.672  13.783
47598W        W14139  36.999  21.473   0.965
47599W        W14140  35.911   2.744  14.336
47600W        W14141  23.242  24.480  13.844
47601W        W14142  17.015  35.925   0.021
47602W        W14143  21.723  18.709  12.691
47603W        W14144  33.127  28.835   1.877
47604W        W14145  37.905   1.047  11.026
47605W        W14146  41.500   2.830  10.699
47606W        W14147  26.660  13.853  14.071
47607W        W14148  14.638   6.314  10.717
47608W        W14149   1.799  14.703  14.805
47609W        W14150   4.744  14.299   3.146
47610W        W14151  39.387   8.455   4.997
47611W        W14152  32.385  29.429  11.514
47612W        W14153  17.308  37.552   3.763
47613W        W14154   7.266  35.031  14.030
47614W        W14155  42.351  30.435   2.390
47615W        W14156  23.668  32.226  12.301
47616W        W14157  44.847  30.057  10.610
47617W        W14158  24.492  43.757   1.355
47618W        W14159  41.036  27.018  13.600
47619W        W14160  31.977   3.243   0.539
47620W        W14161  29.631  42.687  10.294
47621W        W14162  12.458   6.748  10.672
47622W        W14163   5.225  31.347   1.371
47623W        W14164  17.537  35.385  13.921
47624W        W14165   8.052  11.606   0.267
47625W        W14166   7.322   6.784  14.040
47626W        W14167  40.889  40.568   0.886
47627W        W14168  25.734  20.902  13.375
47628W        W14169  30.766  21.571  11.587
47629W        W14170  32.231  23.689  12.591
47630W        W14171  16.607  24.729   3.114
47631W        W14172   0.928  41.491   1.434
47632W        W14173  24.198  18.793  10.736
47633W        W14174  21.857  30.386   3.232
47634W        W14175  38.076  25.416   1.762
47635W        W14176   6.654   3.753   2.855
47636W        W14177  39.462  39.967  13.035
47637W        W14178  41.327   5.214   0.419
47638W        W14179   2.931  16.369  11.231
47639W        W14180  11.660   8.416   3.719
47640W        W14181  34.561  41.470   2.793
47641W        W14182  38.815  16.070  12.765
47642W        W14183  24.499  37.321  12.596
47643W        W14184  14.789  20.826  12.925
47644W        W14185   8.806  41.886   2.874
47645W        W14186  25.478  22.728  10.107
47646W        W14187  12.551  28.978  10.753
47647W        W14188   2.627   5.159  14.867
47648W        W14189  38.093  14.695  12.964
47649W        W14190  16.142  22.810   2.382
47650W        W14191  11.509  13.665   0.661
47651W        W14192   7.648  18.579  10.494
47652W        W14193  31.901   4.423  11.180
47653W        W14194  41.358  32.508   0.455
47654W        W14195  30.499   7.897  11.145
47655W        W14196   1.927  42.579  13.869
47656W        W14197  13.717  36.902  12.403
47657W        W14198  44.847  10.655  10.329
47658W        W14199  15.368  44.051  13.091
47659W        W14200  26.712  30.485   0.954
47660W        W14201  35.922  25.920  10.368
47661W        W14202  34.062  18.345  10.754
47662W        W14203  32.468   2.174  13.507
47663W        W14204  38.251   6.355  12.812
47664W        W14205  34.997  34.493  10.846
47665W        W14206   8.704   7.204  11.606
47666W        W14207  28.400  16.625   1.399
47667W        W14208  20.726  31.460   1.016
47668W        W14209  42.348  21.867  11.127
47669W        W14210  29.891  15.719   3.423
47670W        W14211  22.968  38.376  14.772
47671W        W14212   8.668  44.748   1.308
47672W        W14213   4.105  36.341  14.273
47673W        W14214  33.540  24.241   1.284
47674W        W14215  24.416  16.989  11.978
47675W        W14216   9.556  23.017   2.218
47676W        W14217  11.137  10.312   2.679
47677W        W14218  31.806  10.315  13.138
47678W        W14219  27.093  41.929   3.634
47679W        W14220  33.863   8.142  14.806
47680W        W14221  21.930  18.795   4.003
47681W        W14222  31.448   4.944   2.209
47682W        W14223  33.919  27.239   3.173
47683W        W14224   0.302  35.124   4.151
47684W        W14225   4.431   2.003   2.906
47685W        W14226  21.698  16.580  13.286
47686W        W14227  10.215  23.349   1.073
47687W        W14228  44.516  14.136  12.964
47688W        W14229   6.231   4.046  12.592
47689W        W14230  41.528  35.136  13.273
47690W        W14231  26.574  23.709   2.773
47691W        W14232  39.539   4.332  13.395
47692W        W14233  20.175  32.659   3.243
47693W        W14234  32.237  10.261  14.499
47694W        W14235   4.914  16.568  14.696
47695W        W14236  33.960  35.623  12.376
47696W        W14237  23.307   0.439   3.420
47697W        W14238   8.408   1.346  14.831
47698W        W14239  36.505  37.883   0.892
47699W        W14240   7.459   1.843   0.711
47700W        W14241  33.549   0.874  12.815
47701W        W14242  39.294  23.137   3.953
47702W        W14243   9.098  13.740   1.001
47703W        W14244   0.325  38.502   0.383
47704W        W14245  27.955  27.096  14.000
47705W        W14246  39.570  16.739  13.785
47706W        W14247  26.548  22.603   0.776
47707W        W14248  37.047  43.497   4.243
47708W        W14249  10.336  17.074  14.647
47709W        W14250  24.628  25.093   3.203
47710W        W14251  13.604  24.657  13.896
47711W        W14252  42.816   0.336  11.821
47712W        W14253  34.987   8.790  10.779
47713W        W14254  17.248  40.509  10.457
47714W        W14255  12.896   4.758  13.683
47715W        W14256  34.353  38.481  13.401
47716W        W14257  16.588   9.886   4.125
47717W        W14258  34.054  31.960   2.830
47718W        W14259  36.562  34.350   0.266
47719W        W14260  16.629  18.687   3.680
47720W        W14261  11.845  14.581   2.320
47721W        W14262   5.301  23.663  11.988
47722W        W14263  25.043   0.507   2.341
47723W        W14264  36.969  36.346   1.722
47724W        W14265  41.576  28.484  12.624
47725W        W14266  42.895  12.649   0.465
47726W        W14267  31.001   8.845   2.329
47727W        W14268   7.394  44.658   0.194
47728W        W14269  37.664   2.346  11.847
47729W        W14270  14.298   7.680  14.250
47730W        W14271  41.331   2.294  14.356
47731W        W14272  11.273   9.102   3.983
47732W        W14273  32.185  13.215   3.235
47733W        W14274  26.803  27.548  10.842
47734W        W14275  17.763   1.526   0.378
47735W        W14276   8.805   8.254  11.491
47736W        W14277  41.890  24.708   0.303
47737W        W14278  29.929  42.248   1.271
47738W        W14279  15.543  33.496  10.227
47739W        W14280  37.231  42.245   2.819
47740W        W14281  40.866   1.201  12.171
47741W        W14282  43.088  27.585   1.351
47742W        W14283   6.379  33.640  13.051
47743W        W14284   3.165  14.853   3.695
47744W        W14285  29.622   0.372  14.155
47745W        W14286  32.565  44.925  10.714
47746W        W14287  36.431  13.715  12.856
47747W        W14288  14.123  10.333  11.880
47748W        W14289  44.250   1.326  12.794
47749W        W14290  21.521  19.168  12.521
47750W        W14291  11.409  11.802   0.928
47751W        W14292   0.746  14.526  14.517
47752W        W14293   6.449   5.461  13.134
47753W        W14294  15.357  33.429  14.530
47754W        W14295   9.672  13.608  10.741
47755W        W14296  38.509  32.503  14.540
47756W        W14297   3.925  14.716  11.845
47757W        W14298  35.589  31.028   2.458
47758W        W14299   4.288  39.601  13.361
47759W        W14300  16.763  34.829  12.819
47760W        W14301  12.344  23.976  11.236
47761W        W14302  10.075   8.493   9.865
47762W        W14303  30.065  30.389   1.241
47763W        W14304  41.508  12.366   2.770
47764W        W14305  44.965  36.224   4.390
47765W        W14306   2.391  14.233   3.739
47766W        W14307  37.538   7.904  12.439
47767W        W14308  10.627  43.454   3.864
47768W        W14309  25.007  38.130   2.851
47769W        W14310   3.648  37.474   2.315
47770W        W14311  14.283  29.407   4.196
47771W        W14312   3.665   2.500  14.286
47772W        W14313   4.938  28.325  12.180
47773W        W14314  25.323  17.614   1.765
47774W        W14315  33.881  44.432  11.360
47775W        W14316  10.870  28.416  12.578
47776W        W14317  42.981  11.833   1.000
47777W        W14318  44.876  39.530   3.944
47778W        W14319  29.371   5.211  14.290
47779W        W14320  40.671  43.665  12.873
47780W        W14321   7.890  28.734  10.789
47781W        W14322   4.562  12.357   1.254
47782W        W14323  26.925   4.719   3.241
47783W        W14324  33.990  43.788   4.124
47784W        W14325  11.872  35.723  12.061
47785W        W14326  35.372   0.387   0.774
47786W        W14327  14.246  44.726   2.289
47787W        W14328  39.930   4.712   2.990
47788W        W14329  39.020  43.661   2.307
47789W        W14330  40.876   0.553   2.712
47790W        W14331  13.223  40.517  14.494
47791W        W14332  12.121  16.088  11.730
47792W        W14333  29.304  10.623  14.365
47793W        W14334  39.910  16.830   2.740
47794W        W14335  16.407   7.958   0.885
47795W        W14336  43.914  29.642   2.648
47796W        W14337   8.188  37.445   0.907
47797W        W14338  27.595  27.781   4.074
47798W        W14339  35.079  11.694   1.437
47799W        W14340  21.783  14.208  14.478
47800W        W14341  35.862  11.701   0.964
47801W        W14342   7.855  18.563  14.544
47802W        W14343   5.043  16.903   1.456
47803W        W14344  27.195  18.235   0.438
47804W        W14345  19.241  15.193  14.832
47805W        W14346  38.640   2.272   2.235
47806W        W14347  20.428  12.042   3.568
47807W        W14348  40.020  16.933   4.623
47808W        W14349  20.788   4.476  12.535
47809W        W14350  43.407  27.912  11.135
47810W        W14351  23.257  33.014  13.482
47811W        W14352  41.994  41.974  12.425
47812W        W14353  32.120  34.401   2.739
47813W        W14354  41.553  14.813   1.304
47814W        W14355   8.739  14.811   3.082
47815W        W14356  24.092   0.280  11.110
47816W        W14357  18.295  21.394   4.565
47817W        W14358   9.805  44.967   4.026
47818W        W14359  17.030  22.257   3.291
47819W        W14360   1.186  10.694  10.691
47820W        W14361  17.511  33.816  11.507
47821W        W14362  22.115   4.435   0.127
47822W        W14363  40.400   5.043  14.215
47823W        W14364  20.342  33.755   4.234
47824W        W14365  11.818  16.610  13.011
47825W        W14366  23.552  25.258   2.334
47826W        W14367   0.019  30.451  11.485
47827W        W14368  18.739  27.075  13.395
47828W        W14369  31.765  31.268  13.328
47829W        W14370  28.282  29.231  12.077
47830W        W14371   8.070  42.271  13.978
47831W        W14372  16.126   2.352  10.722
47832W        W14373  19.952  38.437   0.028
47833W        W14374  16.268  20.158   0.778
47834W        W14375  10.245  17.140  10.052
47835W        W14376  35.129  33.359  13.140
47836W        W14377  27.534   4.945  11.248
47837W        W14378  36.294  39.914  11.116
47838W        W14379  17.793   5.999   2.382
47839W        W14380  41.353  42.887   1.796
47840W        W14381  20.388  17.220  10.641
47841W        W14382  42.936  18.594  14.872
47842W        W14383  10.136  33.594  12.471
47843W        W14384  29.123   1.182  11.381
47844W        W14385  44.251  39.071  10.052
47845W        W14386  25.463   4.173   4.441
47846W        W14387  42.353  23.040   0.271
47847W        W14388   9.209   0.697   1.900
47848W        W14389   9.586  35.606   3.299
47849W        W14390  11.711  19.435   3.258
47850W        W14391   7.937  38.028   4.483
47851W        W14392  24.994  34.867   3.870
47852W        W14393  31.184  36.458  11.167
47853W        W14394  39.197  18.676  13.316
47854W        W14395  26.181  14.514   0.407
47855W        W14396  26.661  34.543   2.640
47856W        W14397  38.872  22.032  13.335
47857W        W14398  17.295  42.669   4.990
47858W        W14399  20.701  13.563   1.273
47859W        W14400  43.350  18.527   0.245
47860W        W14401  23.705  23.777   2.783
47861W        W14402  20.331  33.132   3.152
47862W        W14403  36.619   5.967   3.751
47863W        W14404   8.440  33.015   0.301
47864W        W14405  44.900   4.192  13.315
47865W        W14406  43.236   6.691  12.481
47866W        W14407   3.365  26.298  14.493
47867W        W14408  37.399  13.411  10.159
47868W        W14409  30.435   0.143  14.065
47869W        W14410   8.883  19.506  13.196
47870W        W14411  12.861  34.624   3.358
47871W        W14412   3.617  41.705  12.977
47872W        W14413   4.390  15.612  12.550
47873W        W14414  35.111   3.943   2.616
47874W        W14415   7.237  39.298   2.166
47875W        W14416  36.271  21.575   3.623
47876W        W14417  19.508   8.156  14.713
47877W        W14418  18.264  25.502  14.076
47878W        W14419   3.198  20.530  13.021
47879W        W14420  43.955  12.890  12.909
47880W        W14421  33.858  25.787   4.501
47881W        W14422  38.108   6.424  13.512
47882W        W14423   4.362  19.768   0.437
47883W        W14424  37.036  23.272  13.075
47884W        W14425   4.320  29.585   0.430
47885W        W14426  16.830  27.451   2.911
47886W        W14427  39.811  39.123   1.197
47887W        W14428   2.333   9.357  12.525
47888W        W14429  12.090  29.798  11.504
47889W        W14430  28.065   4.808   3.912
47890W        W14431  44.897  40.367   2.380
47891W        W14432   2.307  12.672   1.059
47892W        W14433   0.909   4.121   0.414
47893W        W14434   3.572  40.832   3.688
47894W        W14435  28.379  13.818   9.811
47895W        W14436  14.647   9.156  10.833
47896W        W14437  20.906   2.282   0.338
47897W        W14438   7.177  30.784   2.732
47898W        W14439  18.133  38.587   0.394
47899W        W14440  16.569  18.471   1.466
47900W        W14441   3.500  24.351  14.713
47901W        W14442  22.654   9.175   1.847
47902W        W14443   9.611  20.698  12.097
47903W        W14444   4.452  25.619   1.393
47904W        W14445  19.271   4.409  10.097
47905W        W14446   7.146  21.807  11.069
47906W        W14447  16.869  21.162   2.878
47907W        W14448  36.693  25.249   1.482
47908W        W14449  13.543   7.261  13.988
47909W        W14450  39.655   0.964   2.270
47910W        W14451   7.633  17.642  11.512
47911W        W14452  42.914  44.345   4.621
47912W        W14453  13.704  20.791   1.624
47913W        W14454  28.552   5.825  10.634
47914W        W14455   5.696  27.383   0.405
47915W        W14456  19.246  25.187   2.527
47916W        W14457  30.412  34.484   4.749
47917W        W14458  10.272  39.917   0.005
47918W        W14459   1.931  29.069  10.578
47919W        W14460  33.702  40.202   4.970
47920W        W14461  10.609  43.428  13.178
47921W        W14462  35.242  28.505   4.262
47922W        W14463  26.209   8.265  12.105
47923W        W14464  38.816  26.076   4.638
47924W        W14465  22.228   4.369   0.631
47925W        W14466  33.455  37.676   3.138
47926W        W14467  36.990  14.357  14.554
47927W        W14468   2.797  33.388  10.694
47928W        W14469  44.553  28.598  12.197
47929W        W14470  17.572  32.615  13.866
47930W        W14471   5.429  19.072   1.718
47931W        W14472  37.520  35.761  14.841
47932W        W14473  16.176  24.782  14.138
47933W        W14474  44.003  32.143  11.590
47934W        W14475  14.869   2.987  11.260
47935W        W14476  19.972   7.875   1.616
47936W        W14477  22.680   8.290  10.228
47937W        W14478  32.120   3.515  13.524
47938W        W14479  30.571  10.239   3.331
47939W        W14480  30.110  29.539   0.219
47940W        W14481   2.917  34.374   5.558
47941W        W14482  18.183  29.944  13.352
47942W        W14483  44.309  16.359   3.627
47943W        W14484  31.181   6.435   3.401
47944W        W14485  23.895  26.694  12.012
47945W        W14486   4.966  18.495  13.761
47946W        W14487  31.079  37.841   3.272
47947W        W14488  41.322  36.891  11.278
47948W        W14489  23.135  27.643   2.660
47949W        W14490  43.340  26.611  12.844
47950W        W14491   5.957  22.307  12.953
47951W        W14492  17.568  33.533   3.093
47952W        W14493  31.926  39.609   4.948
47953W        W14494  35.139  25.676   4.106
47954W        W14495  25.494  26.767   3.530
47955W        W14496   3.923  20.082  12.727
47956W        W14497   8.285  10.786   1.339
47957W        W14498  38.421  35.330   4.796
47958W        W14499  14.703  14.270   2.946
47959W        W14500  18.761  39.975  11.155
47960W        W14501   2.008  27.087  11.460
47961W        W14502  21.704   5.336  12.124
47962W        W14503  22.733  44.810   4.264
47963W        W14504   4.309  10.331  13.553
47964W        W14505  18.151  38.537  12.650
47965W        W14506  13.861  39.831  12.647
47966W        W14507  30.445  35.480   0.896
47967W        W14508  40.899  37.005  14.477
47968W        W14509   8.765  27.988  11.604
47969W        W14510  44.447   5.831   0.817
47970W        W14511  19.259   7.839  11.430
47971W        W14512   6.108  13.134   2.915
47972W        W14513  25.991   8.524   2.816
47973W        W14514   3.986  37.504   2.741
47974W        W14515  35.653  17.576  13.662
47975W        W14516  11.643  24.039  10.038
47976W        W14517  14.055  32.522  10.295
47977W        W14518  22.759  33.451   4.893
47978W        W14519  39.786  27.243  12.108
47979W        W14520  16.701  30.408  14.856
47980W        W14521   5.840  19.539   4.147
47981W        W14522   6.796  23.454  14.920
47982W        W14523  13.316  38.323   3.024
47983W        W14524  44.862  14.050  11.925
47984W        W14525  39.743   0.937  11.759
47985W        W14526  39.624  15.714   1.731
47986W        W14527  34.587  11.685  14.580
47987W        W14528   7.763  30.727  10.615
47988W        W14529  11.635  37.478  14.609
47989W        W14530  20.570  20.688  14.865
47990W        W14531   4.645  20.549   4.555
47991W        W14532  39.870  41.035  13.011
47992W        W14533  35.499  36.314  12.493
47993W        W14534  35.726  21.638   4.699
47994W        W14535  44.947  32.991   4.733
47995W        W14536  27.427  13.780   0.977
47996W        W14537  35.582   8.820  12.067
47997W        W14538  32.326  33.984   4.516
47998W        W14539   6.321   7.772   0.363
47999W        W14540  38.604  22.636   0.917
48000W        W14541  14.830  31.617   1.832
48001W        W14542  25.084  26.132   3.620
48002W        W14543  13.153  20.583   4.667
48003W        W14544   6.465   3.750   4.862
48004W        W14545  28.082  30.995  12.939
48005W        W14546  21.178  27.537  12.772
48006W        W14547   1.671  33.175   4.639
48007W        W14548  44.025  40.846   0.501
48008W        W14549  29.136  24.217   0.970
48009W        W14550  22.038  32.587   4.714
48010W        W14551   2.429  12.635  10.011
48011W        W14552  38.627  10.501  10.749
48012W        W14553   4.653  22.824   4.782
48013W        W14554  13.289  42.954   4.870
48014W        W14555  39.360  36.482   3.960
48015W        W14556   9.760   4.936  12.361
48016W        W14557  17.532  22.963  10.716
48017W        W14558  23.021   1.789   2.219
48018W        W14559  21.987  32.597  11.455
48019W        W14560   5.609  10.447  13.760
48020W        W14561  43.860   5.699   1.450
48021W        W14562  37.230  25.575   1.384
48022W        W14563   1.747  27.668  10.675
48023W        W14564  24.036  19.579   4.892
48024W        W14565  39.777  34.178  14.120
48025W        W14566   6.830   8.012  10.669
48026W        W14567  19.730  42.888   4.687
48027W        W14568  18.568   9.776  11.582
48028W        W14569  27.228  39.171   2.905
48029W        W14570  40.207  21.898   3.256
48030W        W14571  38.162  20.094   1.796
48031W        W14572  17.046  36.894   1.679
48032W        W14573  29.989  29.085   1.839
48033W        W14574  41.979  32.339   1.198
48034W        W14575   2.034  30.026   3.270
48035W        W14576  43.459   4.833  12.156
48036W        W14577   6.636  30.986   4.619
48037W        W14578   9.709  44.416  10.589
48038W        W14579   6.727   7.485  10.667
48039W        W14580  37.439   6.358   2.641
48040W        W14581  28.733  23.239  13.589
48041W        W14582   7.759  31.554  11.109
48042W        W14583   4.903   2.835  12.348
48043W        W14584  39.712  14.032   1.221
48044W        W14585  11.267  34.226   4.360
48045W        W14586  25.033  12.325  12.455
48046W        W14587   5.681  31.160  14.030
48047W        W14588  44.526   8.369  13.773
48048W        W14589  18.806  26.633   0.392
48049W        W14590   0.472  19.984  14.985
48050W        W14591  15.456  23.599  10.806
48051W        W14592  34.563   8.141  11.193
48052W        W14593  43.461  25.050   2.659
48053W        W14594  37.051  40.417  11.609
48054W        W14595  34.618  34.396   0.860
48055W        W14596  18.075  43.320  11.109
48056W        W14597  38.779  20.309   4.380
48057W        W14598  11.420   8.062   4.893
48058W        W14599   5.688   7.713  13.356
48059W        W14600  28.211  29.715  11.871
48060W        W14601   8.366   8.514   3.182
48061W        W14602   1.839  12.387  12.028
48062W        W14603   9.392   2.885   2.930
48063W        W14604  30.110  42.841   4.638
48064W        W14605  44.699  17.807  12.980
48065W        W14606  37.459   5.246   0.629
48066W        W14607  12.909   4.904  10.765
48067W        W14608  37.147  29.146   0.468
48068W        W14609   2.480  29.761  10.402
48069W        W14610   4.541  18.250  13.553
48070W        W14611  40.815  26.189   0.123
48071W        W14612  19.287  39.425  12.058
48072W        W14613  21.969  41.457   1.763
48073W        W14614   0.826  15.488   3.177
48074W        W14615  13.145   7.898   3.020
48075W        W14616  27.469   6.628  13.031
48076W        W14617   4.328  27.170   5.007
48077W        W14618  37.914  34.018   4.440
48078W        W14619  39.147  20.810   2.918
48079W        W14620  31.339   3.907  13.017
48080W        W14621  12.435   6.410  14.031
48081W        W14622   4.823  24.493  13.745
48082W        W14623  16.121   6.858   1.743
48083W        W14624  41.272  28.026  11.473
48084W        W14625  31.077  37.920  12.057
48085W        W14626  34.500  13.700  13.516
48086W        W14627  37.062  32.021   3.917
48087W        W14628  28.978   0.675  11.408
48088W        W14629  32.304  34.705   3.115
48089W        W14630  16.770  11.079  12.913
48090W        W14631  30.067  32.551   2.321
48091W        W14632  33.468  14.189  11.395
48092W        W14633  17.830   9.723  13.992
48093W        W14634  16.709  37.818   0.161
48094W        W14635  26.063  25.270  11.605
48095W        W14636  35.496   6.233   1.735
48096W        W14637  44.971  38.362   0.736
48097W        W14638  35.078   0.933  10.327
48098W        W14639  35.022  26.248   3.290
48099W        W14640  11.427  32.731   1.769
48100W        W14641   0.900  43.754  14.898
48101W        W14642  24.431   9.415  12.997
48102W        W14643  15.988  13.962   3.420
48103W        W14644  43.128  31.586  11.125
48104W        W14645  26.364   7.087   9.932
48105W        W14646  39.157  37.074   4.470
48106W        W14647  11.560   7.000   1.805
48107W        W14648   6.684   2.990   3.683
48108W        W14649  44.736  24.085  11.754
48109W        W14650  14.269  29.658  13.454
48110W        W14651   5.359  16.832   2.184
48111W        W14652  16.949   2.799  14.339
48112W        W14653  37.997   5.173  12.926
48113W        W14654  28.055  21.880  14.437
48114W        W14655  43.449  39.313   1.396
48115W        W14656  36.532  18.946  11.288
48116W        W14657  34.471  29.396   4.981
48117W        W14658  29.370  29.226  11.251
48118W        W14659  23.515  10.304   3.288
48119W        W14660  10.161  31.331  13.465
48120W        W14661  20.759  12.057   4.525
48121W        W14662  12.941  37.822   3.658
48122W        W14663  39.492   8.474   1.458
48123W        W14664  26.237  29.828   1.466
48124W        W14665   4.163   5.460   4.600
48125W        W14666   7.126  22.815  14.731
48126W        W14667   1.855  29.831   9.843
48127W        W14668  21.547  10.270  12.090
48128W        W14669  28.997  18.073  12.009
48129W        W14670   9.372  41.026  13.444
48130W        W14671  26.540  21.667   4.641
48131W        W14672   5.257  14.774  13.785
48132W        W14673  31.520  28.459   3.907
48133W        W14674  33.078  24.925  14.433
48134W        W14675  44.914   4.839   0.731
48135W        W14676  40.935  41.429   4.368
48136W        W14677  41.778  36.336   0.786
48137W        W14678  18.764  14.357   3.303
48138W        W14679   9.818  29.050  11.483
48139W        W14680  35.538   4.857  14.342
48140W        W14681  22.409  27.013  14.813
48141W        W14682  34.831  19.124   4.539
48142W        W14683   3.598  15.585   3.228
48143W        W14684  23.961  21.181  13.107
48144W        W14685  30.465   3.671   1.711
48145W        W14686  17.004   4.805   1.355
48146W        W14687  30.900  14.558  10.179
48147W        W14688  25.686  41.722   4.878
48148W        W14689  42.270  13.216  11.185
48149W        W14690  35.957  10.155   1.402
48150W        W14691   0.755  37.885  14.276
48151W        W14692  42.001  35.352   4.471
48152W        W14693  21.280  41.314   0.342
48153W        W14694  23.788   3.298   1.483
48154W        W14695  21.272  29.751  12.992
48155W        W14696  28.637  36.572  14.059
48156W        W14697  20.674  39.345   3.506
48157W        W14698  12.596  35.842   3.775
48158W        W14699   1.497  21.069   1.798
48159W        W14700  16.758   2.736  11.165
48160W        W14701  39.435  32.478  10.397
48161W        W14702  30.495  29.586  11.001
48162W        W14703  25.690  43.447   1.972
48163W        W14704  10.939  31.036   0.154
48164W        W14705  21.298   1.190  10.721
48165W        W14706  39.652  22.259  12.252
48166W        W14707  33.197   0.155  11.914
48167W        W14708  36.485  30.399  12.097
48168W        W14709  33.074   1.056   3.749
48169W        W14710  24.172  37.821   4.226
48170W        W14711  41.346   9.885  12.978
48171W        W14712  44.928  24.748   0.897
48172W        W14713  22.193  18.794   1.082
48173W        W14714  32.068  29.949  12.395
48174W        W14715  28.876   5.395   3.633
48175W        W14716  39.623  22.793   3.757
48176W        W14717  25.272   0.368  11.655
48177W        W14718  21.244  24.066  13.874
48178W        W14719   5.199   5.427   4.550
48179W        W14720  10.410  25.569   3.269
48180W        W14721  39.952   4.413  11.648
48181W        W14722  41.777  21.122   0.334
48182W        W14723  29.650  41.896  14.044
48183W        W14724  20.190   6.461  12.460
48184W        W14725  43.284  43.188   2.981
48185W        W14726  24.188  33.342   2.793
48186W        W14727  42.273  35.090   4.092
48187W        W14728  25.525  23.964  10.705
48188W        W14729  26.045   1.394  10.720
48189W        W14730  17.956   4.719   2.262
48190W        W14731  16.595  44.964  13.587
48191W        W14732  16.218  16.630  11.121
48192W        W14733   3.480   4.302   2.846
48193W        W14734  16.892  26.709   1.486
48194W        W14735  33.904  39.269   4.692
48195W        W14736  22.587  11.483  13.842
48196W        W14737  10.150   2.667   0.533
48197W        W14738   9.497   0.760   0.479
48198W        W14739  23.101  10.801   1.681
48199W        W14740   2.806  20.064   2.896
48200W        W14741  15.799   5.848   0.132
48201W        W14742  10.406  26.549  13.100
48202W        W14743  41.907   8.715  14.869
48203W        W14744  36.269  14.828  14.971
48204W        W14745   8.686   9.232   3.564
48205W        W14746  17.499  11.140  11.436
48206W        W14747  12.396   3.783   3.163
48207W        W14748   0.969  44.865   0.234
48208W        W14749  30.034  11.827   3.723
48209W        W14750   9.256  12.628   0.990
48210W        W14751  32.010  35.575   2.352
48211W        W14752  21.004  16.479  11.083
48212W        W14753  39.561  26.631   2.566
48213W        W14754  17.549   9.314   3.121
48214W        W14755  38.940  23.556   3.268
48215W        W14756  39.997  38.472  14.389
48216W        W14757  34.846  30.308  12.353
48217W        W14758  24.798   9.273   1.174
48218W        W14759  11.678   2.489  13.960
48219W        W14760  38.946  37.914  12.107
48220W        W14761  25.423  40.033  14.967
48221W        W14762   5.672  14.164   0.938
48222W        W14763  40.394  34.878  10.352
48223W        W14764  30.936  18.840   0.854
48224W        W14765  30.541  38.726  12.505
48225W        W14766  40.483  12.620  13.460
48226W        W14767  29.612   4.948   2.194
48227W        W14768  40.836   8.830  13.884
48228W        W14769  24.174  32.092  12.462
48229W        W14770   3.681  25.550  14.922
48230W        W14771   0.946  15.873  11.461
48231W        W14772  29.073  41.784   2.903
48232W        W14773  10.762  19.125  13.579
48233W        W14774  27.274   2.144   2.788
48234W        W14775  22.156  18.151  11.471
48235W        W14776   7.125  11.992  12.254
48236W        W14777  43.859  35.019   3.210
48237W        W14778   4.330  23.835   9.853
48238W        W14779  35.364  21.485  14.874
48239W        W14780  22.867  36.039   3.676
48240W        W14781  32.299  29.928   5.007
48241W        W14782   6.859  15.614   0.842
48242W        W14783  37.386   5.840   0.331
48243W        W14784  31.641  35.915  11.566
48244W        W14785  10.799   2.598   2.927
48245W        W14786  25.179  38.492  13.460
48246W        W14787  15.286  10.606   1.239
48247W        W14788   1.805  24.040  11.690
48248W        W14789  11.853   7.172  14.344
48249W        W14790   3.459  17.924   4.378
48250W        W14791  18.731   1.972   2.163
48251W        W14792  12.046   3.265   2.714
48252W        W14793  32.321  34.867  12.083
48253W        W14794  11.758   4.781  13.411
48254W        W14795  29.827  41.422  11.478
48255W        W14796  26.304  21.630  13.469
48256W        W14797   9.691  39.631  13.415
48257W        W14798  36.389   2.395   0.884
48258W        W14799  24.303  22.751   2.218
48259W        W14800  29.039   2.880  10.697
48260W        W14801   3.279  32.369  12.432
48261W        W14802  34.452  17.768  12.031
48262W        W14803  41.260  19.253   2.783
48263W        W14804   9.236  35.143  14.124
48264W        W14805  25.468   6.917   2.395
48265W        W14806  28.022  35.345  10.807
48266W        W14807  29.566   9.008  13.167
48267W        W14808   9.384  23.414   0.527
48268W        W14809  36.848  29.567   4.452
48269W        W14810  13.742  17.554   1.164
48270W        W14811  32.686  30.173  11.984
48271W        W14812  23.273  24.472  10.514
48272W        W14813   4.077  38.827  12.600
48273W        W14814  12.523  37.083  11.728
48274W        W14815  15.656   8.444  11.094
48275W        W14816  18.205  13.147  13.615
48276W        W14817  40.949  30.924   0.322
48277W        W14818   5.371   0.292   2.118
48278W        W14819   1.274  19.544  13.056
48279W        W14820  20.271  34.601  12.973
48280W        W14821  21.377  39.287   4.357
48281W        W14822  32.497  33.814  14.930
48282W        W14823   2.004  27.393   0.367
48283W        W14824   0.709  11.423   3.654
48284W        W14825  27.155  29.341   3.115
48285W        W14826   0.331  11.692   4.772
48286W        W14827   7.074   2.187   0.872
48287W        W14828  18.076  35.653   4.657
48288W        W14829  28.610   2.248  14.258
48289W        W14830  30.952  21.768   0.359
48290W        W14831   1.055  39.550  14.065
48291W        W14832  22.322  39.933   0.013
48292W        W14833  43.966  13.679   4.760
48293W        W14834  42.071  24.039  10.792
48294W        W14835  37.261  19.774   2.905
48295W        W14836  16.549  27.495  11.328
48296W        W14837  35.548  40.531   1.039
48297W        W14838  33.559   4.617  13.942
48298W        W14839   8.412  24.223   0.310
48299W        W14840  36.386  31.137   1.747
48300W        W14841  30.997  35.452   3.934
48301W        W14842   1.407  44.814   2.525
48302W        W14843  27.613  31.993  14.889
48303W        W14844   8.862  15.825  13.478
48304W        W14845   1.029  27.255  13.518
48305W        W14846  29.848   3.334  13.251
48306W        W14847   1.742  24.109   0.995
48307W        W14848  20.114  18.093   0.759
48308W        W14849  17.899  35.362   2.513
48309W        W14850  15.376   8.740  10.689
48310W        W14851  30.994  38.196   4.715
48311W        W14852   7.479   6.826  10.850
48312W        W14853  11.493  16.662  14.328
48313W        W14854  12.972  23.882   3.611
48314W        W14855   2.833  26.631  10.773
48315W        W14856   9.788  15.323   1.855
48316W        W14857  27.243  12.683   1.259
48317W        W14858  20.642  11.751  14.844
48318W        W14859  24.769   1.227  14.340
48319W        W14860  17.749   3.946   0.335
48320W        W14861  43.637  14.032  13.882
48321W        W14862  30.232  35.450  12.533
48322W        W14863  33.635  23.940   2.732
48323W        W14864  22.116  33.534   4.383
48324W        W14865  20.051  13.779   3.129
48325W        W14866  36.459  10.812  11.137
48326W        W14867   4.790  17.036   3.354
48327W        W14868  20.542  11.676   0.864
48328W        W14869  15.024  31.529  11.517
48329W        W14870  32.973   6.372  13.848
48330W        W14871  38.391  29.894   1.948
48331W        W14872  10.082  14.194   4.019
48332W        W14873  43.689  41.561   2.900
48333W        W14874  36.526  20.797  12.369
48334W        W14875  27.587   3.388  12.590
48335W        W14876  36.744  39.851   3.705
48336W        W14877  30.639  17.527   2.359
48337W        W14878  20.595  43.564   2.862
48338W        W14879  10.263  27.959   2.469
48339W        W14880  43.441  12.861  14.958
48340W        W14881  15.120  42.772  12.776
48341W        W14882  31.540  16.275   2.293
48342W        W14883   5.490  14.621   1.093
48343W        W14884  18.655  43.909   2.635
48344W        W14885  16.139   2.807   2.642
48345W        W14886  23.689  29.006   4.040
48346W        W14887  14.684  12.762   0.505
48347W        W14888   7.547   2.518  13.933
48348W        W14889  32.814  35.602   5.081
48349W        W14890  24.415  31.969   1.048
48350W        W14891   2.598   5.916   3.888
48351W        W14892  14.623  34.989   4.821
48352W        W14893  20.492   4.745   2.027
48353W        W14894  13.342  19.531  10.976
48354W        W14895   3.322  38.708   2.442
48355W        W14896   3.828   5.819  14.299
48356W        W14897  28.241   4.213   3.270
48357W        W14898  32.892  16.070   2.722
48358W        W14899  42.347  37.142   4.978
48359W        W14900  39.356  14.368   1.370
48360W        W14901  20.784  33.514   4.126
48361W        W14902   3.823   4.117  13.145
48362W        W14903   0.359  27.193   1.890
48363W        W14904  28.888  38.028  12.609
48364W        W14905  44.549  13.543  13.961
48365W        W14906   1.864   1.407   4.776
48366W        W14907   3.318   5.250   1.465
48367W        W14908  24.946  42.368  12.489
48368W        W14909  33.945  30.872   3.831
48369W        W14910  14.682  21.818   1.744
48370W        W14911  25.279  14.064   3.476
48371W        W14912  18.172  33.360   0.861
48372W        W14913  32.074  20.513  14.009
48373W        W14914  25.829   2.154   3.801
48374W        W14915  12.842  29.918  10.479
48375W        W14916  13.780  32.920  14.815
48376W        W14917  18.200  16.546   2.182
48377W        W14918  32.435   9.489  11.343
48378W        W14919  28.003  42.557   1.363
48379W        W14920  34.182  24.778   1.756
48380W        W14921  27.921  24.206  10.675
48381W        W14922  10.110  25.750  10.758
48382W        W14923  40.795  17.199  10.216
48383W        W14924   0.240  24.150  14.071
48384W        W14925  37.454  27.934  10.660
48385W        W14926  35.427  12.045   4.160
48386W        W14927  19.215  29.598   4.651
48387W        W14928  14.780  34.965  11.587
48388W        W14929  12.177  19.138  14.228
48389W        W14930  19.475  41.159   4.137
48390W        W14931  40.602  28.824  12.622
48391W        W14932  35.189   2.790  12.089
48392W        W14933   3.338  40.535  14.799
48393W        W14934  34.462  13.575   2.830
48394W        W14935   4.683  39.044  14.439
48395W        W14936  36.521  17.796   3.700
48396W        W14937  40.497  30.109  12.018
48397W        W14938  33.399  28.864   5.287
48398W        W14939  15.595  26.664   2.723
48399W        W14940  39.371  28.709   1.025
48400W        W14941   8.599  19.175   1.786
48401W        W14942  11.688   8.672   2.302
48402W        W14943  17.346  33.911   1.324
48403W        W14944   3.177  34.736  12.601
48404W        W14945  24.702  15.513  13.426
48405W        W14946  31.425  27.850   2.583
48406W        W14947  15.544   0.343  13.999
48407W        W14948  35.556  23.729   0.356
48408W        W14949  27.483  30.800  14.955
48409W        W14950  27.910   7.619   3.152
48410W        W14951   8.483  40.551   4.652
48411W        W14952  22.082  28.204  11.623
48412W        W14953  41.545  34.143   3.142
48413W        W14954   5.462  18.084   0.422
48414W        W14955  14.137   2.746  13.922
48415W        W14956   0.945   9.096   3.237
48416W        W14957  16.698   7.293   0.077
48417W        W14958  41.593  11.767   1.290
48418W        W14959  36.977  39.314  12.495
48419W        W14960  31.724  11.912   0.365
48420W        W14961  33.861  25.961   0.410
48421W        W14962  27.658  19.659   1.681
48422W        W14963   6.795  27.659   9.920
48423W        W14964  21.416  11.141   3.645
48424W        W14965   6.380  16.298   2.721
48425W        W14966   4.046   8.014  12.639
48426W        W14967  40.576  30.022  11.138
48427W        W14968  30.412  11.636   1.451
48428W        W14969   9.495  11.745  12.541
48429W        W14970   3.951  20.497   3.114
48430W        W14971   0.010  38.125  14.914
48431W        W14972  15.113  41.001   4.179
48432W        W14973  10.457  41.201   0.979
48433W        W14974   0.719  15.288   1.937
48434W        W14975  24.266  17.743   0.843
48435W        W14976  16.744  18.541  13.325
48436W        W14977  19.847   0.193   0.896
48437W        W14978  21.554  23.771  13.530
48438W        W14979   9.951  37.624   1.037
48439W        W14980  23.188  12.766  12.841
48440W        W14981  19.942   4.352   4.648
48441W        W14982  24.414  11.171   1.642
48442W        W14983  26.216  14.611   2.837
48443W        W14984  28.227  28.249   3.096
48444W        W14985  28.782  36.176   3.698
48445W        W14986   0.870  23.987  10.637
48446W        W14987   2.274  17.623   2.666
48447W        W14988   8.893  27.563  13.887
48448W        W14989   4.791  38.435   4.646
48449W        W14990  26.010  29.561  14.805
48450W        W14991  18.539  26.458   2.223
48451W        W14992   6.431   5.804   4.745
48452W        W14993  28.107   5.125  10.650
48453W        W14994  38.822  35.390   1.822
48454W        W14995   0.398  20.203   3.717
48455W        W14996  42.525   5.410   1.293
48456W        W14997  14.577  36.460   0.825
48457W        W14998  13.795  39.459  11.853
48458W        W14999   4.305  44.212  14.943
48459W        W15000  38.309  29.428  12.627
48460W        W15001  18.690  38.297   1.028
48461W        W15002  33.137  41.527  11.175
48462W        W15003  12.618   4.022  14.371
48463W        W15004   6.028  35.871   3.986
48464W        W15005  12.848  37.002   2.401
48465W        W15006  16.581   4.204  13.838
48466W        W15007  14.385  27.421  12.809
48467W        W15008   1.455  15.661  14.819
48468W        W15009  42.368   2.933   2.800
48469W        W15010  24.028  26.656   1.918
48470W        W15011  38.182  25.587  11.612
48471W        W15012  15.322  39.874  14.448
48472W        W15013  16.341  42.577   3.286
48473W        W15014  22.369  10.995   1.348
48474W        W15015  16.213  25.583  12.413
48475W        W15016  34.493  28.940  12.952
48476W        W15017  35.047  41.856  11.522
48477W        W15018  16.619  21.262   4.722
48478W        W15019  21.690  27.447  14.076
48479W        W15020  14.662   9.040   2.138
48480W        W15021   7.661  35.115   2.850
48481W        W15022  41.760  35.086   0.228
48482W        W15023  32.205  21.578  13.858
48483W        W15024  14.672   6.002   3.743
48484W        W15025  19.127  21.157  11.139
48485W        W15026  31.638  24.559   4.049
48486W        W15027  37.931  36.271  13.017
48487W        W15028  15.726  25.107   0.528
48488W        W15029  32.555  42.318   0.875
48489W        W15030  16.339  11.693  13.452
48490W        W15031  26.258  32.592   2.297
48491W        W15032  39.705  35.674   0.283
48492W        W15033  23.698  43.151  12.102
48493W        W15034  38.880  42.419  11.126
48494W        W15035   5.988   2.744  13.546
48495W        W15036  29.121  18.681   2.364
48496W        W15037  20.782  22.577  11.063
48497W        W15038  11.271  25.862   2.207
48498W        W15039   8.864  41.613   4.217
48499W        W15040  17.185  16.267   4.142
48500W        W15041  40.878   8.739   1.256
48501W        W15042  25.938   7.961  12.602
48502W        W15043  22.984   9.501  12.188
48503W        W15044  44.467  29.082  13.981
48504W        W15045  43.912  13.653   0.327
48505W        W15046  19.107  41.818   1.863
48506W        W15047  43.045   3.249   4.626
48507W        W15048  30.925  20.351   4.452
48508W        W15049  21.155  36.653   1.588
48509W        W15050  40.910  35.825  13.004
48510W        W15051  40.233  32.909   5.166
48511W        W15052  42.938  28.772   2.217
48512W        W15053  28.609   4.836  14.155
48513W        W15054  36.846  23.164   1.389
48514W        W15055  30.243  31.504   2.962
48515W        W15056  33.070  35.494  11.244
48516W        W15057  15.333   7.644  14.411
48517W        W15058  42.328   7.603  13.320
48518W        W15059  15.677   8.327  12.477
48519W        W15060  31.133   2.921   1.973
48520W        W15061   3.838  13.867   1.875
48521W        W15062   5.386  35.996  13.362
48522W        W15063  30.548  12.611   3.571
48523W        W15064  34.058  29.463  13.782
48524W        W15065   5.444  41.890   3.262
48525W        W15066  44.517  30.997   3.642
48526W        W15067  15.714  40.387  13.081
48527W        W15068  37.110  23.304   0.847
48528W        W15069  22.136   4.850   2.053
48529W        W15070  32.627  40.110  11.694
48530W        W15071  32.718  44.288   1.553
48531W        W15072   3.082  35.026  14.919
48532W        W15073  31.824  17.531  12.369
48533W        W15074  26.374  21.337   2.679
48534W        W15075  14.373  20.040   0.833
48535W        W15076  35.736  44.082   1.873
48536W        W15077  26.252   4.363  12.942
48537W        W15078  39.935  43.546  14.871
48538W        W15079   7.867  21.212  10.623
48539W        W15080  35.297  25.087   2.376
48540W        W15081  39.240  11.141   2.371
48541W        W15082  23.057   6.508   4.479
48542W        W15083  16.286  32.616   3.674
48543W        W15084  44.674  41.298   1.758
48544W        W15085  12.403  30.539  11.151
48545W        W15086  20.849  25.085  10.124
48546W        W15087   2.339  32.992  13.392
48547W        W15088  29.734  31.318   4.591
48548W        W15089   4.327  16.026  14.385
48549W        W15090  17.034   1.213  11.119
48550W        W15091  31.612  20.326  13.855
48551W        W15092  23.583  22.174  11.284
48552W        W15093  36.929   2.534  13.886
48553W        W15094  40.550  25.356   4.074
48554W        W15095  36.323  41.212  10.680
48555W        W15096   9.548   4.842  12.815
48556W        W15097  33.445   3.760  12.485
48557W        W15098  23.118  42.724  11.297
48558W        W15099  15.183  30.071   5.096
48559W        W15100  20.053  30.146   4.853
48560W        W15101  15.560  31.558  11.621
48561W        W15102  25.534  42.572  13.051
48562W        W15103  38.531  26.592  11.216
48563W        W15104  17.278  32.506   3.889
48564W        W15105   7.287  18.275  14.561
48565W        W15106  40.032  11.894   0.850
48566W        W15107  37.216  25.173   4.938
48567W        W15108   3.409  18.734  13.073
48568W        W15109  25.164  39.821  12.922
48569W        W15110   7.807  39.814   0.731
48570W        W15111  29.133  19.004   1.821
48571W        W15112  17.281  32.223  13.040
48572W        W15113   1.912  41.556   1.907
48573W        W15114  25.607  33.576   2.760
48574W        W15115   0.819   4.449   4.404
48575W        W15116  31.921  37.680   2.698
48576W        W15117  12.679   9.306  13.622
48577W        W15118  26.745  33.094  11.218
48578W        W15119  24.324  15.234   4.100
48579W        W15120   4.296  20.540  11.717
48580W        W15121  40.016   1.440  13.992
48581W        W15122  38.551   4.760   1.925
48582W        W15123   3.120  13.818   3.791
48583W        W15124  28.866  22.079  12.075
48584W        W15125  27.351  39.863  11.578
48585W        W15126   9.224  17.844   1.739
48586W        W15127   5.365   3.902  10.692
48587W        W15128  20.108  39.406   4.608
48588W        W15129  15.477  39.803   3.472
48589W        W15130  40.615   5.328   4.663
48590W        W15131  15.133  38.284   0.891
48591W        W15132  14.725  38.556  14.363
48592W        W15133  15.090   1.480   3.227
48593W        W15134   6.380   0.326   4.305
48594W        W15135   1.158  17.108   4.642
48595W        W15136  31.636  30.092  12.140
48596W        W15137  23.773  11.042   4.672
48597W        W15138  29.696   7.697  14.548
48598W        W15139  12.332  26.701   4.526
48599W        W15140   0.817   3.990  14.229
48600W        W15141  42.429   8.070  13.543
48601W        W15142   5.332  24.576   3.519
48602W        W15143  40.534  19.352  12.029
48603W        W15144  30.532   1.404  12.526
48604W        W15145  26.181   5.005   2.774
48605W        W15146  22.322  31.263  13.303
48606W        W15147  33.868  17.245  13.863
48607W        W15148  36.931  43.011  13.606
48608W        W15149  22.536  26.193  13.627
48609W        W15150  12.096  42.629   3.100
48610W        W15151  22.658  14.252   0.549
48611W        W15152  38.536  25.103  14.836
48612W        W15153  35.327   7.066   3.731
48613W        W15154  37.509  24.726   4.616
48614W        W15155   1.941   1.605   3.361
48615W        W15156   1.773  42.967   1.660
48616W        W15157  37.584  28.687  13.837
48617W        W15158  14.670  10.470   0.105
48618W        W15159   1.657  38.945  10.029
48619W        W15160  25.529  41.035   1.840
48620W        W15161  15.850  29.014   5.398
48621W        W15162  20.559  21.046  14.058
48622W        W15163  42.520   4.981   2.341
48623W        W15164  27.142  33.417   2.700
48624W        W15165   0.430  22.570   2.290
48625W        W15166  27.530  43.424  10.851
48626W        W15167  13.816   4.503   1.033
48627W        W15168  35.370  27.417   3.285
48628W        W15169  14.771  21.737  14.734
48629W        W15170  28.649   5.883   0.898
48630W        W15171  40.428  43.442  10.365
48631W        W15172  40.567  30.134   2.390
48632W        W15173  14.376  26.580  14.802
48633W        W15174  38.815  38.875  11.978
48634W        W15175  25.093  33.654   3.537
48635W        W15176  19.696  33.897   1.866
48636W        W15177  42.298  41.362   3.580
48637W        W15178   7.045   8.450   1.284
48638W        W15179  41.041  31.291  11.496
48639W        W15180  34.458  39.093  12.953
48640W        W15181  17.268  42.941   1.510
48641W        W15182   8.846  44.006   0.251
48642W        W15183   7.829  37.542   4.117
48643W        W15184   3.357   9.921  11.649
48644W        W15185  33.411  30.080   2.364
48645W        W15186  15.071  33.643  14.891
48646W        W15187  13.316  26.123   4.907
48647W        W15188   0.718  10.186  10.138
48648W        W15189  19.480  35.561  13.369
48649W        W15190  35.453  28.017  13.502
48650W        W15191  10.841  30.865   2.381
48651W        W15192  27.903   6.210  14.330
48652W        W15193  36.462  42.299  10.691
48653W        W15194   2.337  43.787  13.445
48654W        W15195   2.148  21.577   0.371
48655W        W15196  24.961   4.776  11.660
48656W        W15197  38.392  44.182   0.727
48657W        W15198  24.416  14.604  13.381
48658W        W15199  20.157  39.571  12.003
48659W        W15200  41.234  16.431  14.051
48660W        W15201  12.607  24.491  11.563
48661W        W15202  11.691  22.023   3.753
48662W        W15203   7.849  40.850   2.686
48663W        W15204   6.653  23.494  12.051
48664W        W15205   7.401  38.023   2.697
48665W        W15206   7.971  27.115  14.363
48666W        W15207   9.682   6.363   3.426
48667W        W15208  30.104  33.953   3.863
48668W        W15209  19.336  14.330  11.172
48669W        W15210   1.018  37.106   3.820
48670W        W15211   3.824  28.242   1.752
48671W        W15212  28.949   6.791   4.750
48672W        W15213  24.077   4.262  13.327
48673W        W15214  29.901  42.129  13.540
48674W        W15215  43.238  31.042   3.085
48675W        W15216   6.285  30.335   9.999
48676W        W15217  42.052   6.408  10.140
48677W        W15218   3.202  12.287  12.144
48678W        W15219  17.132  30.634   0.122
48679W        W15220  39.550  31.127  13.043
48680W        W15221  44.638   2.714  13.523
48681W        W15222  13.269  22.782  14.061
48682W        W15223  19.262  20.044   0.769
48683W        W15224  40.914   3.599  12.902
48684W        W15225  15.619  27.099  14.061
48685W        W15226  30.662  23.895  12.432
48686W        W15227   2.994   3.960  14.059
48687W        W15228  40.438  21.791  13.976
48688W        W15229  38.729  34.997  12.028
48689W        W15230  26.287  35.068   1.883
48690W        W15231  31.289  41.418  14.035
48691W        W15232   6.334  30.423  14.385
48692W        W15233  18.631  28.674  11.134
48693W        W15234   1.404   8.838   1.427
48694W        W15235   7.428  37.024  13.131
48695W        W15236  22.707   1.963   3.285
48696W        W15237  14.273  15.069   3.641
48697W        W15238  13.755  38.108  11.120
48698W        W15239  14.322  13.537   4.542
48699W        W15240   5.503  31.494  13.531
48700W        W15241  41.045  26.949   1.225
48701W        W15242  15.246  21.634  12.380
48702W        W15243  28.708  36.520   0.517
48703W        W15244   3.696  36.379  13.382
48704W        W15245   0.799  16.684  13.394
48705W        W15246  15.788  24.177  10.172
48706W        W15247  37.222  34.479  14.752
48707W        W15248  29.614  35.117  13.393
48708W        W15249  35.225  23.119   4.057
48709W        W15250  36.157   5.181  14.480
48710W        W15251  10.742  20.214   1.861
48711W        W15252   3.900  42.062   3.631
48712W        W15253  23.418  43.821  12.406
48713W        W15254   0.688  40.414   3.621
48714W        W15255   7.360  30.945  11.633
48715W        W15256  42.581   0.722  10.621
48716W        W15257  37.053  35.097  13.409
48717W        W15258  17.008  23.406   5.423
48718W        W15259  21.709   8.861   1.476
48719W        W15260  30.533  15.019  14.299
48720W        W15261  34.891   6.456  12.886
48721W        W15262  37.327  28.603  13.372
48722W        W15263  40.575  27.572  11.144
48723W        W15264  42.949  27.692   5.029
48724W        W15265  40.110  27.135   1.481
48725W        W15266  22.959   3.761  14.991
48726W        W15267  22.274  35.515   2.229
48727W        W15268   6.248   5.645   4.283
48728W        W15269  24.768   4.874   4.562
48729W        W15270  33.007  21.397  13.057
48730W        W15271  26.609  15.983  10.597
48731W        W15272  21.562  19.787   3.836
48732W        W15273  15.673  17.575   2.622
48733W        W15274  32.552  34.997  11.111
48734W        W15275  13.575  25.218   1.736
48735W        W15276  29.142  11.133   1.466
48736W        W15277   2.328  30.611  13.019
48737W        W15278  11.129  42.262   3.844
48738W        W15279  38.057  24.680  11.609
48739W        W15280  12.182  27.591  10.929
48740W        W15281  35.788  43.265   3.153
48741W        W15282  20.674  32.627  14.369
48742W        W15283  41.774  23.699  11.712
48743W        W15284  18.767  21.269  13.041
48744W        W15285  13.612  31.550   2.304
48745W        W15286   5.501  10.030  13.279
48746W        W15287   2.363  16.118  10.359
48747W        W15288   6.674   1.853   4.744
48748W        W15289   5.369  14.376  10.668
48749W        W15290  44.982  44.761  14.453
48750W        W15291  21.584  33.913   0.209
48751W        W15292   2.645  19.125  14.003
48752W        W15293   6.978  26.727  14.327
48753W        W15294   2.893   4.828   0.280
48754W        W15295  36.866   7.585   0.426
48755W        W15296  44.204  20.646  13.067
48756W        W15297   7.740  19.589   1.605
48757W        W15298   1.890   5.777  14.761
48758W        W15299  33.081  43.754  13.404
48759W        W15300  19.862   7.938   2.297
48760W        W15301  32.819  10.330  12.946
48761W        W15302  36.393  37.506   2.856
48762W        W15303  27.500   4.905   3.273
48763W        W15304  23.716   8.642   1.679
48764W        W15305  26.125  44.622   2.206
48765W        W15306  43.861  19.324   0.334
48766W        W15307  20.288  37.736  14.308
48767W        W15308   9.656  33.573   2.622
48768W        W15309  17.711   3.429   0.200
48769W        W15310  11.054  30.623  13.518
48770W        W15311  14.535  41.596  10.387
48771W        W15312  38.011  14.208   2.900
48772W        W15313  26.218   9.901  10.893
48773W        W15314  29.662  42.028   1.694
48774W        W15315  22.536  10.731  14.378
48775W        W15316  28.667   0.273  14.770
48776W        W15317  22.899  42.310   0.689
48777W        W15318  39.079  33.553   1.248
48778W        W15319  18.069  24.739   1.398
48779W        W15320  35.460  11.113   4.180
48780W        W15321  24.527  40.821  12.092
48781W        W15322  38.460  18.122  12.998
48782W        W15323  10.084   4.806  13.936
48783W        W15324  38.836  41.243  11.893
48784W        W15325  14.345  41.456  10.858
48785W        W15326  28.563  30.126   4.288
48786W        W15327  35.022  15.283   4.872
48787W        W15328  20.488   1.415   3.208
48788W        W15329   8.252  42.989   0.305
48789W        W15330  44.205  42.505   0.701
48790W        W15331   4.877  36.010  10.774
48791W        W15332   7.258   6.288   1.265
48792W        W15333  26.070   7.179  12.209
48793W        W15334  11.928   8.170   0.475
48794W        W15335  27.690   4.683  10.828
48795W        W15336  15.346  28.521   1.746
48796W        W15337  35.857   6.377  12.931
48797W        W15338   2.796  22.874  10.698
48798W        W15339   9.923  36.874   3.714
48799W        W15340  14.614  22.592   4.550
48800W        W15341  42.809  39.002   4.157
48801W        W15342  27.693  26.268  12.651
48802W        W15343  34.952  24.048  12.500
48803W        W15344  14.442  30.236   5.477
48804W        W15345  44.850  34.987  11.944
48805W        W15346  26.484  33.922   4.148
48806W        W15347  16.854  36.812  12.901
48807W        W15348  27.003  15.624   0.009
48808W        W15349  33.542  36.345   2.767
48809W        W15350  34.034  16.399   0.912
48810W        W15351  37.382  10.453   2.697
48811W        W15352  17.789  19.818  13.853
48812W        W15353  25.933  38.470  14.270
48813W        W15354   9.736  34.383  14.937
48814W        W15355  30.103  18.531  12.664
48815W        W15356  34.455  36.546   3.257
48816W        W15357   2.560   8.415   1.372
48817W        W15358  13.658  15.147  10.635
48818W        W15359  17.080  42.293  11.121
48819W        W15360  44.405  14.378  14.275
48820W        W15361  36.836   0.997   1.838
48821W        W15362  14.295  30.758  11.728
48822W        W15363   6.835   4.176   0.502
48823W        W15364   2.773  15.038  14.842
48824W        W15365  22.961  38.543  11.901
48825W        W15366   7.908  18.547   2.662
48826W        W15367  12.561   1.410  12.443
48827W        W15368  41.780  36.073  11.148
48828W        W15369  34.956  12.233   4.277
48829W        W15370  18.178  34.088   1.209
48830W        W15371  20.067  38.334   0.536
48831W        W15372  34.903  28.472  14.056
48832W        W15373  18.949   5.192  11.379
48833W        W15374  33.841  24.745  11.123
48834W        W15375  22.569  26.610   1.798
48835W        W15376  23.741  26.073   1.956
48836W        W15377  20.264  41.751   1.306
48837W        W15378  26.912   6.756  10.678
48838W        W15379   5.298  21.203   3.216
48839W        W15380   9.717  35.234   0.390
48840W        W15381   1.991   2.459   2.341
48841W        W15382   8.761  20.595  14.281
48842W        W15383  44.361  13.741  13.528
48843W        W15384  27.424  34.665  12.057
48844W        W15385  41.263  34.314   3.532
48845W        W15386  40.378  19.157   4.574
48846W        W15387  21.487  35.437   0.015
48847W        W15388  42.503  14.967  13.368
48848W        W15389  17.757  28.559  11.386
48849W        W15390   3.229  25.801  13.456
48850W        W15391  42.842  10.444  11.788
48851W        W15392  16.041  10.928   1.378
48852W        W15393  32.065  30.523  13.779
48853W        W15394   6.691  24.513  14.931
48854W        W15395   8.667  20.156  11.109
48855W        W15396  42.767  42.403  12.604
48856W        W15397  32.443   0.198   1.290
48857W        W15398  20.757   7.355   0.901
48858W        W15399  31.557   1.738  14.756
48859W        W15400  34.949  42.089   2.593
48860W        W15401  38.730  19.802  14.770
48861W        W15402  41.809  37.090   3.145
48862W        W15403  43.939  20.252   0.321
48863W        W15404  42.968  41.730   1.664
48864W        W15405  44.304  40.054   4.158
48865W        W15406  40.715  17.392   2.284
48866W        W15407  28.689   2.504  14.734
48867W        W15408   5.704  33.778   0.973
48868W        W15409  27.396   6.612  11.582
48869W        W15410  20.569   2.654  11.438
48870W        W15411  11.751  11.584  12.098
48871W        W15412   4.273  40.021   2.091
48872W        W15413  10.253  44.333  14.269
48873W        W15414   8.738  21.615   2.386
48874W        W15415   3.271  37.694  13.881
48875W        W15416   1.687  40.112  13.717
48876W        W15417  30.740  11.319  12.833
48877W        W15418  33.171   0.801  13.385
48878W        W15419  16.956  28.181   0.384
48879W        W15420  12.214   1.473  12.827
48880W        W15421  15.757  25.667   1.148
48881W        W15422  30.868  12.719  14.265
48882W        W15423  36.096  40.491   4.006
48883W        W15424   2.763   0.228  12.935
48884W        W15425  16.637  15.855   4.685
48885W        W15426  21.429  15.982   3.216
48886W        W15427  16.533   7.936  11.392
48887W        W15428  15.262  16.116  13.340
48888W        W15429   6.918   6.393   4.365
48889W        W15430   4.346  19.515  11.612
48890W        W15431  22.343  33.009  13.970
48891W        W15432   2.238  11.194   3.762
48892W        W15433  24.604  14.746  11.902
48893W        W15434   9.126  38.443  13.648
48894W        W15435  13.279  23.297  10.739
48895W        W15436  22.287  41.348   3.261
48896W        W15437  29.592  30.644  13.363
48897W        W15438   8.711  13.722   1.355
48898W        W15439  30.325  31.517   1.554
48899W        W15440  17.334  32.936   4.635
48900W        W15441  37.790  16.600   4.447
48901W        W15442  24.375   2.179   2.888
48902W        W15443  31.320   1.772   0.211
48903W        W15444  27.176   7.884  13.849
48904W        W15445  44.480   2.204  11.187
48905W        W15446   9.971  13.188  13.898
48906W        W15447  31.118  33.376   3.707
48907W        W15448   7.098  41.184   3.035
48908W        W15449  24.036  40.305   2.746
48909W        W15450  32.763   9.093   0.780
48910W        W15451   2.010  19.502   3.269
48911W        W15452  44.874  40.759  11.590
48912W        W15453  16.394   3.132   1.031
48913W        W15454   8.944  25.789  12.010
48914W        W15455  43.336  20.751   1.340
48915W        W15456   9.528  12.604  12.426
48916W        W15457  36.958  32.053  12.596
48917W        W15458   2.970  38.029   4.662
48918W        W15459  26.067  34.673  11.199
48919W        W15460   0.836   3.109  10.420
48920W        W15461  16.642  33.016  12.050
48921W        W15462  32.136  38.817   1.359
48922W        W15463  42.200  15.999  14.918
48923W        W15464  26.510   3.850   1.703
48924W        W15465  41.297  17.016   0.750
48925W        W15466  24.055  12.709   3.116
48926W        W15467  25.785   9.870  11.178
48927W        W15468  42.439  41.450   1.182
48928W        W15469  44.063  14.085   1.840
48929W        W15470  26.108  19.536  13.577
48930W        W15471  35.662   7.801   1.878
48931W        W15472  44.000  41.417  10.642
48932W        W15473  27.847  13.743   1.894
48933W        W15474  25.674  24.219  11.136
48934W        W15475  40.358  39.102   4.998
48935W        W15476  32.393   8.691   0.433
48936W        W15477   1.774  20.132  12.495
48937W        W15478  38.253  14.345   0.369
48938W        W15479  14.916  38.983  14.607
48939W        W15480  11.541  25.555   0.218
48940W        W15481  29.023  22.894   4.132
48941W        W15482  23.948   8.572   1.217
48942W        W15483  41.026  32.121  12.455
48943W        W15484  43.891  15.515   5.434
48944W        W15485   7.368  44.183   3.646
48945W        W15486  18.657  16.505   0.569
48946W        W15487  13.670  42.418   4.137
48947W        W15488  36.147  24.785  10.813
48948W        W15489  12.606  33.531  14.299
48949W        W15490  32.151  24.723   1.786
48950W        W15491  17.351  23.489  11.474
48951W        W15492  31.317  10.736  12.375
48952W        W15493  15.267  37.917  13.989
48953W        W15494   8.374  25.469   2.353
48954W        W15495  16.153  34.342  10.240
48955W        W15496  18.215  21.558   4.090
48956W        W15497   7.669  29.548  12.505
48957W        W15498  43.930  24.511  12.052
48958W        W15499  28.993  31.398   0.687
48959W        W15500  37.335  44.744   4.473
48960W        W15501  23.008  41.260   4.639
48961W        W15502  18.525  20.572  10.784
48962W        W15503  38.858  32.873   4.530
48963W        W15504   1.042  17.531  13.380
48964W        W15505  15.787   7.163  10.300
48965W        W15506  43.402  44.185  13.907
48966W        W15507  16.059  22.542   3.842
48967W        W15508  33.619  23.544  11.579
48968W        W15509   6.478  42.696  11.626
48969W        W15510  44.678  19.215   0.808
48970W        W15511   2.138  22.197   2.715
48971W        W15512  11.709   4.266   4.518
48972W        W15513  40.544   1.902   1.348
48973W        W15514   9.388  39.416   1.397
48974W        W15515  39.846   3.332   4.115
48975W        W15516  17.803  15.988   1.858
48976W        W15517   9.667  39.674  10.677
48977W        W15518  25.243  39.450   3.238
48978W        W15519  17.710  23.237   4.713
48979W        W15520  30.916  30.964  13.919
48980W        W15521  24.371  23.472  12.976
48981W        W15522  38.210  12.929  11.169
48982W        W15523  44.509  29.697   0.353
48983W        W15524   8.694  36.859   4.263
48984W        W15525  31.197  37.078   1.246
48985W        W15526  18.615   4.417  11.375
48986W        W15527  26.039  10.208   3.247
48987W        W15528  29.521  18.328   5.002
48988W        W15529   9.660  20.963   2.780
48989W        W15530   2.421  43.331   1.004
48990W        W15531  23.270  24.650   4.118
48991W        W15532  18.012  18.675   2.732
48992W        W15533  41.974  17.565  11.128
48993W        W15534  40.580   0.786  13.032
48994W        W15535  24.459  20.296  10.645
48995W        W15536   7.628  42.853   2.663
48996W        W15537  32.541  14.998   0.714
48997W        W15538  33.858  35.638   2.952
48998W        W15539  19.638  26.722  11.170
48999W        W15540  14.203  18.636   2.663
49000W        W15541  27.466  17.755   4.769
49001W        W15542  17.951  35.393  13.118
49002W        W15543  18.511  38.938  12.189
49003W        W15544  13.448  37.472   4.963
49004W        W15545  34.839   0.437   0.859
49005W        W15546  22.622   8.452  14.054
49006W        W15547  14.250  15.557   4.552
49007W        W15548  16.174  42.982   1.012
49008W        W15549  43.878  20.093  13.078
49009W        W15550  40.999   0.053  14.455
49010W        W15551  15.205  33.682  12.518
49011W        W15552  40.322  28.949   0.317
49012W        W15553   7.824  21.031   3.336
49013W        W15554  14.655   4.784  10.706
49014W        W15555  32.853  27.078  12.997
49015W        W15556  12.382  43.821  13.115
49016W        W15557  15.360  19.879  10.743
49017W        W15558  13.698  17.130   1.460
49018W        W15559  18.602  33.315   0.210
49019W        W15560  29.377  27.089   1.020
49020W        W15561   5.425   8.850  13.961
49021W        W15562  16.194   3.718  12.081
49022W        W15563  19.263  26.564   0.725
49023W        W15564  35.896  34.516  11.551
49024W        W15565  41.604  30.209  13.130
49025W        W15566  25.101  22.171   4.858
49026W        W15567  25.499  27.215  13.951
49027W        W15568  27.574  39.558  12.894
49028W        W15569  28.424  35.052   0.354
49029W        W15570  32.783  44.408   4.416
49030W        W15571  36.095   2.176   1.806
49031W        W15572   6.365   3.970  11.567
49032W        W15573   4.413  36.665  12.520
49033W        W15574  21.273  38.371   0.293
49034W        W15575  35.211  42.543   2.620
49035W        W15576  10.999  38.993   9.829
49036W        W15577  35.477  26.211   2.711
49037W        W15578  25.158   6.459   1.694
49038W        W15579  12.385   3.235  13.885
49039W        W15580   3.996   1.857  11.621
49040W        W15581  18.564  44.678  14.941
49041W        W15582  13.750  43.670   4.849
49042W        W15583  43.369  18.543   0.756
49043W        W15584  34.479  22.301   4.648
49044W        W15585   3.089   2.351   0.097
49045W        W15586  13.627  39.023  13.914
49046W        W15587   0.979   4.510   1.314
49047W        W15588   6.155  44.928   3.412
49048W        W15589  26.395  24.352  13.814
49049W        W15590  32.661  24.426  12.039
49050W        W15591  22.073  32.368  11.004
49051W        W15592  27.972  31.599   3.356
49052W        W15593  28.032  38.434   0.679
49053W        W15594   3.628  43.444   0.995
49054W        W15595   4.457   9.470   1.922
49055W        W15596  17.973  21.154   1.381
49056W        W15597  15.250  25.220   2.653
49057W        W15598  22.831  22.791  10.946
49058W        W15599   8.124  14.166   3.207
49059W        W15600  10.176   9.746  13.916
49060W        W15601  44.556  12.287   1.454
49061W        W15602  22.054  37.152   3.238
49062W        W15603  34.405   9.494   4.083
49063W        W15604  32.923  14.047   1.293
49064W        W15605  19.686   9.774   4.755
49065W        W15606  22.145  28.207   1.268
49066W        W15607  40.078  37.327  14.889
49067W        W15608  36.588  15.079  10.463
49068W        W15609  10.637  28.737  11.145
49069W        W15610   0.617   8.264  11.253
49070W        W15611  26.220  18.574  13.403
49071W        W15612  27.522  30.323  11.945
49072W        W15613  20.421   3.225   2.801
49073W        W15614  42.412  40.925   2.805
49074W        W15615  43.574  44.982  14.358
49075W        W15616  27.601  14.855  12.452
49076W        W15617  12.597  20.999   3.421
49077W        W15618  28.562  34.285   3.454
49078W        W15619  30.168   6.740   0.817
49079W        W15620   3.416  28.006   1.963
49080W        W15621  36.106  24.508  12.987
49081W        W15622  38.851   7.977  11.109
49082W        W15623  15.886  17.770  10.872
49083W        W15624   1.871  15.221   4.508
49084W        W15625   8.859  10.403   0.246
49085W        W15626  13.757   4.322   2.849
49086W        W15627  33.393  14.299  10.895
49087W        W15628  26.624   6.255  11.632
49088W        W15629  14.258  29.153   2.353
49089W        W15630  44.298  44.763   4.205
49090W        W15631  29.929  22.813  12.917
49091W        W15632  44.896  37.398  14.446
49092W        W15633  21.180  12.350   3.220
49093W        W15634   8.720  27.517  12.906
49094W        W15635  29.071  22.258  10.620
49095W        W15636  28.163  19.561   1.770
49096W        W15637  14.428  20.804  14.415
49097W        W15638   4.220  25.292  13.388
49098W        W15639  38.375  17.145   9.967
49099W        W15640  33.499  16.830  14.278
49100W        W15641  16.877  29.408   0.911
49101W        W15642  37.378  33.719  12.515
49102W        W15643  29.177  37.893   1.680
49103W        W15644  29.157  14.305   2.214
49104W        W15645  29.326  27.036   0.480
49105W        W15646   0.432  14.725   0.231
49106W        W15647  30.842   6.124   4.577
49107W        W15648  10.824  36.739  11.146
49108W        W15649  27.988  29.161   2.802
49109W        W15650  35.392  15.566   1.847
49110W        W15651  32.050  36.393   2.707
49111W        W15652  17.977  33.548  12.031
49112W        W15653  13.769  12.043  14.013
49113W        W15654  38.573  29.988   3.516
49114W        W15655  13.836  15.849   1.723
49115W        W15656  10.317  41.042  12.454
49116W        W15657  17.795  11.920   1.728
49117W        W15658  20.054   8.362   9.830
49118W        W15659  10.586  10.976   0.004
49119W        W15660   3.538   7.239   1.634
49120W        W15661   4.125  11.340   4.737
49121W        W15662  16.095  36.383   0.438
49122W        W15663  44.912  10.945   3.826
49123W        W15664  15.561   3.788   4.722
49124W        W15665  26.452  35.084   3.669
49125W        W15666  23.578   8.246  11.138
49126W        W15667  32.021   4.719  11.635
49127W        W15668  36.425  27.871   5.088
49128W        W15669  38.940   9.820   1.216
49129W        W15670  33.004   2.488   1.419
49130W        W15671  15.394  24.278  12.475
49131W        W15672  18.661  22.511  14.590
49132W        W15673  33.726  36.005   0.733
49133W        W15674  30.628   8.186   0.294
49134W        W15675  38.209  31.844   4.925
49135W        W15676  40.807  41.816   0.330
49136W        W15677  44.424  16.918   1.410
49137W        W15678   8.588  23.370   3.874
49138W        W15679  25.707   2.961   0.907
49139W        W15680  32.212   6.266   0.005
49140W        W15681   9.222  12.551   1.901
49141W        W15682  18.822   7.739   0.298
49142W        W15683  35.493  16.604   4.594
49143W        W15684  12.738  35.836  12.423
49144W        W15685  26.032  22.617  10.781
49145W        W15686  18.121  17.563   1.671
49146W        W15687  38.177  14.279   4.328
49147W        W15688  41.625  11.349  14.929
49148W        W15689   1.875  13.251  11.635
49149W        W15690  21.173  30.077   4.182
49150W        W15691   4.197  39.007   0.768
49151W        W15692   1.407   0.199   2.173
49152W        W15693   6.988  38.382  14.504
49153W        W15694  21.961  10.280  14.222
49154W        W15695  40.586  28.592   3.253
49155W        W15696  32.857  34.006  12.005
49156W        W15697  11.520  35.593   3.198
49157W        W15698  22.572   5.702  12.925
49158W        W15699  34.129  27.687  13.125
49159W        W15700  22.040  29.915  13.103
49160W        W15701  23.953  27.671  13.925
49161W        W15702  38.784  17.266   0.905
49162W        W15703  14.842  41.480   2.360
49163W        W15704   7.686  21.943   2.357
49164W        W15705  19.151  42.036   4.666
49165W        W15706   1.663  28.003   4.610
49166W        W15707  11.647  28.050  14.381
49167W        W15708  25.574  40.055  10.351
49168W        W15709  13.915  15.403   2.457
49169W        W15710   7.082  42.494   0.016
49170W        W15711   5.175  27.028  12.351
49171W        W15712  10.013  36.324  14.662
49172W        W15713   6.254   0.259  13.115
49173W        W15714  33.498  24.669   0.430
49174W        W15715  15.172  40.001  12.029
49175W        W15716  28.404  28.431   0.829
49176W        W15717   7.462  34.954   1.027
49177W        W15718   0.715   8.372   1.818
49178W        W15719  34.971  35.868   0.052
49179W        W15720  17.005  36.912  14.304
49180W        W15721   5.415  15.634  12.558
49181W        W15722  24.567  31.116  13.441
49182W        W15723  11.734  39.017   4.643
49183W        W15724  36.036  16.096  12.901
49184W        W15725   4.160  30.288  11.600
49185W        W15726   3.896  34.578   0.876
49186W        W15727  27.794  34.548   0.046
49187W        W15728  11.370  40.904   0.533
49188W        W15729  29.188  37.297  14.848
49189W        W15730   7.888  15.042   2.165
49190W        W15731  37.732  32.141  13.086
49191W        W15732  13.805  35.813  13.007
49192W        W15733  21.753  10.789   3.221
49193W        W15734   7.298  17.849  10.699
49194W        W15735  11.259  39.827  13.098
49195W        W15736   6.356  42.888   4.106
49196W        W15737  27.000  19.078   3.950
49197W        W15738  41.138  11.400   2.191
49198W        W15739  24.345   0.486   1.300
49199W        W15740  19.392  37.839   0.814
49200W        W15741  37.430   2.381   1.198
49201W        W15742  30.663  16.211  11.083
49202W        W15743  23.205  11.159   0.899
49203W        W15744  32.658  17.314   3.660
49204W        W15745  36.622  44.778   2.365
49205W        W15746  23.205   7.183   2.716
49206W        W15747   2.930  23.588  14.909
49207W        W15748  33.416  11.212   1.095
49208W        W15749  33.146   8.227  11.495
49209W        W15750  14.816  12.777  13.001
49210W        W15751  39.931   9.752  13.456
49211W        W15752  12.245  22.662   0.466
49212W        W15753  19.859  27.783   4.126
49213W        W15754   4.501  10.912  14.790
49214W        W15755  26.610   3.289   0.430
49215W        W15756  23.335  31.812   0.087
49216W        W15757  35.392  42.318   4.672
49217W        W15758  10.112  44.637   1.202
49218W        W15759  14.502  26.664  10.708
49219W        W15760  20.537   3.518   2.395
49220W        W15761  22.067  18.294   4.229
49221W        W15762  33.600   7.763   0.298
49222W        W15763  33.861  38.403   4.403
49223W        W15764  36.217   1.281   3.848
49224W        W15765   7.944  42.069   2.347
49225W        W15766  31.428  22.066   2.371
49226W        W15767  39.981   8.805  13.410
49227W        W15768  12.649  37.459  11.394
49228W        W15769  19.041   1.601  12.133
49229W        W15770  38.391  26.478  11.732
49230W        W15771  36.074  35.860   1.672
49231W        W15772  20.968  21.614   2.183
49232W        W15773  41.703  34.509  13.967
49233W        W15774   2.282  21.717   1.689
49234W        W15775   5.905  40.782   3.680
49235W        W15776  24.714  44.762   0.213
49236W        W15777  10.294  11.167   0.410
49237W        W15778  41.019  40.446  13.256
49238W        W15779  20.576  25.418  10.655
49239W        W15780  41.108  38.713  12.553
49240W        W15781  30.701   4.230  10.527
49241W        W15782  28.476  18.225   0.770
49242W        W15783   7.320  40.574   0.877
49243W        W15784  15.775   2.681  14.956
49244W        W15785   3.448   0.489  11.561
49245W        W15786  29.480  37.019   3.670
49246W        W15787  18.948  19.968  12.414
49247W        W15788  31.948  17.246   5.037
49248W        W15789  18.175  39.513  10.516
49249W        W15790  34.094   5.261  10.395
49250W        W15791  16.781  25.553  11.132
49251W        W15792  38.665  41.338   0.993
49252W        W15793  26.293  44.288  13.550
49253W        W15794  17.543   9.279  13.839
49254W        W15795  28.049  44.350   1.984
49255W        W15796  13.584  17.280   4.303
49256W        W15797  34.364  33.012  11.601
49257W        W15798  19.695  35.120  13.524
49258W        W15799  38.340   1.825   0.283
49259W        W15800  33.681   2.466  13.928
49260W        W15801   6.433  13.099   0.470
49261W        W15802  21.009  29.916   3.282
49262W        W15803   1.878   2.242  13.775
49263W        W15804   6.000  10.786  12.933
49264W        W15805  19.608  41.043  11.938
49265W        W15806  13.672  20.647   4.671
49266W        W15807  39.482  31.071   0.470
49267W        W15808   4.240   9.869   2.410
49268W        W15809  42.886   9.774  13.778
49269W        W15810  12.872  29.610  14.897
49270W        W15811  25.841  21.511   1.025
49271W        W15812  13.605   2.856  11.438
49272W        W15813  10.330  42.067  10.217
49273W        W15814   4.853  40.370   5.127
49274W        W15815   7.091   1.164   9.745
49275W        W15816  33.905  39.412   1.738
49276W        W15817  16.146  36.962  10.715
49277W        W15818  34.000   4.297  11.168
49278W        W15819  21.750   4.107  12.516
49279W        W15820   1.030   9.904  11.441
49280W        W15821  38.956   1.720  14.349
49281W        W15822  32.495  36.556  10.760
49282W        W15823  35.880  37.023  11.563
49283W        W15824  19.579   5.846   3.591
49284W        W15825  28.495  37.918   4.486
49285W        W15826  20.380  11.608   0.332
49286W        W15827  26.553   7.658   0.548
49287W        W15828  22.610  17.514   0.457
49288W        W15829  21.588  43.020   4.885
49289W        W15830  14.506  42.890  12.637
49290W        W15831   5.764  12.415  11.964
49291W        W15832   6.776  15.638  13.702
49292W        W15833  16.707  19.345   1.472
49293W        W15834  41.557  40.310  11.563
49294W        W15835  27.621  16.148   3.739
49295W        W15836  36.598  24.997  10.664
49296W        W15837  25.126  28.528   2.175
49297W        W15838  19.675  17.288  11.692
49298W        W15839  17.396   8.800   3.209
49299W        W15840  13.889  29.153  12.895
49300W        W15841  39.614  17.131   1.368
49301W        W15842  17.808  28.574   0.489
49302W        W15843  25.724   3.715  13.411
49303W        W15844  40.399  18.656  13.178
49304W        W15845  23.110  15.113   1.898
49305W        W15846   5.728  26.175   1.683
49306W        W15847  44.645   6.722   2.699
49307W        W15848  23.783   3.487  13.514
49308W        W15849   7.812  31.195  14.421
49309W        W15850  39.963  22.859   1.691
49310W        W15851  36.384  32.199  13.866
49311W        W15852  15.189  18.059  14.372
49312W        W15853  17.145  16.147  14.912
49313W        W15854  39.021  28.070  14.458
49314W        W15855  28.670  26.625   2.771
49315W        W15856  34.530  43.058  11.488
49316W        W15857  34.722  19.596  11.668
49317W        W15858  12.431  33.895   1.830
49318W        W15859  35.504   7.111   4.529
49319W        W15860  29.874   3.386   3.710
49320W        W15861  22.740  36.456  10.036
49321W        W15862  10.655   2.671   0.363
49322W        W15863   3.205  41.582  13.962
49323W        W15864   6.830   3.455   3.798
49324W        W15865  16.522  28.090   4.780
49325W        W15866   2.635  11.753  12.487
49326W        W15867  41.230  27.638   0.885
49327W        W15868  41.144  13.865   1.239
49328W        W15869  44.443  19.541   3.412
49329W        W15870  20.978  29.596   2.772
49330W        W15871  34.707  42.498   2.392
49331W        W15872  21.754  20.210   0.665
49332W        W15873  22.968  11.280  12.861
49333W        W15874   4.985  38.495  11.975
49334W        W15875  20.957  23.327  10.043
49335W        W15876   0.723  32.199  13.986
49336W        W15877  24.698  15.774   4.545
49337W        W15878  23.516  25.523  14.528
49338W        W15879  27.624  11.612   0.905
49339W        W15880  21.776  20.165  12.235
49340W        W15881   6.268   9.704   3.430
49341W        W15882  13.411  33.050  10.757
49342W        W15883  10.346  13.404  12.850
49343W        W15884  11.148  13.739   0.302
49344W        W15885  28.534  34.686   0.773
49345W        W15886  18.371  19.166  10.692
49346W        W15887  23.705  13.153  10.870
49347W        W15888  39.074  25.750  14.766
49348W        W15889  23.009  36.388   1.910
49349W        W15890  10.318  34.149  12.099
49350W        W15891  21.133   8.623   4.605
49351W        W15892   2.352  36.888  13.283
49352W        W15893  35.051   4.394   2.879
49353W        W15894  30.919  22.925  13.951
49354W        W15895  38.577   7.209   1.790
49355W        W15896   6.462  27.971  12.512
49356W        W15897  18.737  10.262   1.820
49357W        W15898  33.597  16.055  14.661
49358W        W15899  34.047  28.957  14.475
49359W        W15900  11.723   8.393   4.657
49360W        W15901   5.166  41.846  11.661
49361W        W15902   3.316   0.371  14.858
49362W        W15903   4.792  38.652   1.501
49363W        W15904  35.939  18.606   0.369
49364W        W15905   4.725   0.357   4.458
49365W        W15906  23.689  13.285  12.817
49366W        W15907  26.415  31.078  11.859
49367W        W15908  19.200  13.897   9.797
49368W        W15909  36.118   4.833  12.699
49369W        W15910  12.009  37.015  11.725
49370W        W15911  39.420  13.871   1.675
49371W        W15912  14.618  16.153  13.040
49372W        W15913  30.821  21.430   1.346
49373W        W15914  38.979  24.188  11.206
49374W        W15915   8.900  29.904  12.567
49375W        W15916  20.156   1.118  13.648
49376W        W15917  42.426  33.393   0.652
49377W        W15918  24.880  38.644   2.867
49378W        W15919  27.016  23.193   4.156
49379W        W15920  14.181  18.696   1.613
49380W        W15921   7.975  44.580  13.164
49381W        W15922   4.682  22.830   2.233
49382W        W15923  37.993  34.589   1.260
49383W        W15924  11.594  38.498  13.825
49384W        W15925  38.014  12.813   3.640
49385W        W15926  38.885  25.480   9.975
49386W        W15927  37.475   3.751   1.615
49387W        W15928  14.782  28.729   1.267
49388W        W15929  26.100  19.656   1.358
49389W        W15930  20.722  37.825  10.797
49390W        W15931  37.463   4.811  12.317
49391W        W15932  16.152  40.366  14.337
49392W        W15933  38.089   2.261   4.736
49393W        W15934   9.269  22.652   0.622
49394W        W15935   5.903  16.222  12.844
49395W        W15936  42.554   2.473  14.750
49396W        W15937  17.089   8.855  12.953
49397W        W15938  31.437   2.355  12.432
49398W        W15939  40.947  24.946   2.703
49399W        W15940   4.990  42.038   1.820
49400W        W15941  24.648  18.612   3.754
49401W        W15942  16.169   1.286  11.827
49402W        W15943   8.638  13.893   3.332
49403W        W15944  30.091   1.063  12.563
49404W        W15945   4.734  29.368  12.157
49405W        W15946  40.289  41.915   0.018
49406W        W15947   6.752  21.019  10.715
49407W        W15948   0.395  30.482  14.544
49408W        W15949  11.029  26.021   2.643
49409W        W15950  32.439   2.754   1.599
49410W        W15951  22.431  38.368  13.512
49411W        W15952   5.203  12.151  12.880
49412W        W15953  11.851  13.082   2.199
49413W        W15954  28.037  32.418   3.318
49414W        W15955  15.227  23.585   0.093
49415W        W15956   4.817  35.441   4.640
49416W        W15957  33.285  15.857   1.375
49417W        W15958  17.547  20.551  10.815
49418W        W15959  43.374   2.209  13.684
49419W        W15960  32.113  24.932   4.624
49420W        W15961  20.148  30.950  14.584
49421W        W15962   0.387  15.136   2.335
49422W        W15963  22.691  21.454  13.099
49423W        W15964  22.752  42.238   4.362
49424W        W15965  41.716  17.484  14.901
49425W        W15966  16.356  11.890  11.085
49426W        W15967  17.178   5.401  11.345
49427W        W15968  14.646  29.362   2.908
49428W        W15969   2.781  34.500  12.879
49429W        W15970  20.599  41.802   3.161
49430W        W15971   2.803   3.683  12.188
49431W        W15972   4.841  16.361  13.361
49432W        W15973  18.163   2.790   0.796
49433W        W15974  31.644  13.312  10.840
49434W        W15975  10.226  14.251   2.222
49435W        W15976   0.525   1.135  14.028
49436W        W15977  38.710  15.539   2.711
49437W        W15978  22.715  41.993   1.838
49438W        W15979  34.092  28.054   2.347
49439W        W15980  17.975  33.865  10.236
49440W        W15981  22.188  29.710   3.729
49441W        W15982  17.252  22.387   0.948
49442W        W15983  42.997  20.064  14.022
49443W        W15984  17.068   2.367   2.676
49444W        W15985  25.804  14.487  11.434
49445W        W15986  43.472   0.227  12.956
49446W        W15987  36.374  10.366  10.837
49447W        W15988  26.675  41.060   3.583
49448W        W15989  25.337  36.062  14.761
49449W        W15990  32.006  17.297  11.918
49450W        W15991  19.259   4.730  14.551
49451W        W15992  31.448  15.311   3.039
49452W        W15993  22.437   8.719  10.100
49453W        W15994  41.283  25.231   0.996
49454W        W15995  42.755  26.921  12.772
49455W        W15996   8.963   1.511   4.615
49456W        W15997   0.290  26.110  10.437
49457W        W15998  21.236  28.833   4.247
49458W        W15999  26.421   6.377   3.272
49459W        W16000  14.076   4.150   0.765
49460W        W16001  21.639  43.911  14.844
49461W        W16002  40.040  11.352   1.761
49462W        W16003  43.564  18.589  11.582
49463W        W16004  17.710  18.182  14.852
49464W        W16005  40.466  11.648  11.647
49465W        W16006  35.429  23.288  11.451
49466W        W16007  32.299  44.839   3.798
49467W        W16008  32.214  19.913  12.515
49468W        W16009  18.306  27.456  11.441
49469W        W16010  38.511  36.676   3.436
49470W        W16011  19.728  39.533   1.827
49471W        W16012  44.461   5.395   5.039
49472W        W16013  19.460  21.949  11.039
49473W        W16014  33.627  29.543  11.033
49474W        W16015  14.718  22.567   3.254
49475W        W16016  29.649  15.497  11.764
49476W        W16017  39.918  29.655  10.635
49477W        W16018   1.828   1.527   2.357
49478W        W16019  14.017   6.786   1.972
49479W        W16020  33.718   2.819   0.261
49480W        W16021   9.299  33.623  14.076
49481W        W16022  13.347  30.125  14.571
49482W        W16023  37.277   1.802  11.232
49483W        W16024  27.105  26.092   1.659
49484W        W16025  15.655   5.521  13.078
49485W        W16026  41.005  24.049   2.799
49486W        W16027   8.292  35.569   3.255
49487W        W16028  25.540   6.375  12.930
49488W        W16029   9.199   9.321  12.219
49489W        W16030  12.728  13.898  11.650
49490W        W16031  12.663  32.582  14.771
49491W        W16032  43.753  28.480  13.308
49492W        W16033   1.344  24.748  10.683
49493W        W16034   8.875  28.156   3.664
49494W        W16035  18.137  18.770   0.924
49495W        W16036  14.269  20.948  13.814
49496W        W16037   7.426   5.908  13.111
49497W        W16038  31.618  32.230  11.423
49498W        W16039  35.593   0.885  10.536
49499W        W16040  20.931  32.458   0.220
49500W        W16041  22.245  28.362   3.917
49501W        W16042  35.544  24.039   0.829
49502W        W16043  34.028  28.427  13.623
49503W        W16044   3.878  17.167   4.381
49504W        W16045   4.486  32.118  12.880
49505W        W16046  13.771   5.421   2.074
49506W        W16047   8.332  11.281  13.432
49507W        W16048  12.047  39.095   5.064
49508W        W16049  10.741  36.130   3.621
49509W        W16050   0.590  24.753  10.897
49510W        W16051   5.893  44.971   0.331
49511W        W16052  29.225  44.691  12.474
49512W        W16053  37.102  31.582  13.908
49513W        W16054  24.796  14.734  14.079
49514W        W16055  19.582  34.359  11.587
49515W        W16056  23.181  43.343   3.387
49516W        W16057  13.216  11.887  11.132
49517W        W16058  38.893  23.717   1.833
49518W        W16059  29.144   7.760   0.915
49519W        W16060  30.264   6.205   3.119
49520W        W16061  15.899  11.899   4.015
49521W        W16062  20.429  15.676  10.642
49522W        W16063   5.697  42.207   0.899
49523W        W16064  11.341  14.261   2.862
49524W        W16065   7.815  14.771  13.784
49525W        W16066  21.766   2.063  13.846
49526W        W16067  22.362  33.300  11.049
49527W        W16068  34.305  20.110   2.847
49528W        W16069  19.808  21.078   0.883
49529W        W16070   1.236  26.627  11.710
49530W        W16071  40.279  44.285  14.398
49531W        W16072   0.412  13.635  12.543
49532W        W16073  26.181  28.671  12.032
49533W        W16074  16.882  19.988  12.405
49534W        W16075  44.052  25.715  11.479
49535W        W16076  43.346  14.034   3.349
49536W        W16077  14.705  21.062  11.746
49537W        W16078  25.100  35.944  10.576
49538W        W16079  23.290  37.378   0.433
49539W        W16080  32.119  10.652  14.826
49540W        W16081  13.868   3.592   2.291
49541W        W16082  40.399  14.637  10.355
49542W        W16083   7.227  37.117  10.725
49543W        W16084  19.482  30.641   1.711
49544W        W16085  42.320  13.760  14.712
49545W        W16086  39.334  24.526  12.001
49546W        W16087  34.427  32.900   2.887
49547W        W16088   4.811  32.885  11.190
49548W        W16089  22.717  36.563  14.263
49549W        W16090  37.174  37.497   2.415
49550W        W16091  42.450  22.601   3.935
49551W        W16092  10.585  37.909   1.796
49552W        W16093  40.365  10.151   0.195
49553W        W16094  35.475   6.727  13.007
49554W        W16095  18.866  33.437  13.410
49555W        W16096   2.775   4.874   2.747
49556W        W16097  15.604  12.144  14.055
49557W        W16098  13.068   3.185   4.248
49558W        W16099  42.876   2.955   2.649
49559W        W16100  31.104   7.403  12.930
49560W        W16101  33.012  29.424  10.954
49561W        W16102  43.093  14.886   0.364
49562W        W16103   2.431  38.553  12.510
49563W        W16104   3.943  14.902  13.276
49564W        W16105  29.557  13.907  14.804
49565W        W16106  11.964  23.134  11.819
49566W        W16107  21.451  31.669  14.665
49567W        W16108  39.080   7.976  12.460
49568W        W16109  30.079   0.218  14.442
49569W        W16110   2.281  39.316   0.730
49570W        W16111  22.702   2.696   3.693
49571W        W16112  41.840   9.546  14.482
49572W        W16113  32.079   5.418   4.605
49573W        W16114  18.603  43.104   2.058
49574W        W16115  36.733   1.830  10.193
49575W        W16116  24.821   4.386   3.344
49576W        W16117  25.226   9.093   3.318
49577W        W16118  24.668   5.774  13.746
49578W        W16119  28.620  30.462   1.707
49579W        W16120  18.128  14.111   2.672
49580W        W16121  14.346  36.906  11.044
49581W        W16122   0.220  28.566   3.880
49582W        W16123  31.134   4.812   1.761
49583W        W16124  26.271  19.642   0.458
49584W        W16125  43.209   4.243  12.002
49585W        W16126  32.822   3.920   1.684
49586W        W16127  39.327  11.432   3.263
49587W        W16128   9.134  19.032   0.953
49588W        W16129  38.595  23.746   2.880
49589W        W16130  19.523  13.307  12.467
49590W        W16131   2.231  29.772  11.505
49591W        W16132  22.028   3.871   0.669
49592W        W16133   7.261  13.138  13.967
49593W        W16134  43.206  23.991  12.361
49594W        W16135  17.064   1.758  14.555
49595W        W16136   1.810  44.272   4.013
49596W        W16137   6.139  35.552  13.425
49597W        W16138  44.846  29.249  12.769
49598W        W16139  23.024  31.163   2.706
49599W        W16140   2.321  37.938  14.711
49600W        W16141  16.332  39.876  14.413
49601W        W16142  37.337  31.258   3.187
49602W        W16143  11.672  30.837  14.384
49603W        W16144   2.299  26.768  12.957
49604W        W16145   3.290  27.034   0.934
49605W        W16146   2.251  26.296   4.570
49606W        W16147  44.347  18.750  13.825
49607W        W16148   1.495  42.571  14.869
49608W        W16149   2.362  32.525  14.982
49609W        W16150  12.894  13.689   4.176
49610W        W16151  27.729  27.834   2.442
49611W        W16152   9.481  43.133  11.403
49612W        W16153  25.973  26.502   3.336
49613W        W16154  38.356  22.123  13.473
49614W        W16155  38.628  22.692   1.428
49615W        W16156   5.881   3.193  14.546
49616W        W16157  38.399  29.577   0.945
49617W        W16158  44.860  21.792  13.897
49618W        W16159  44.699  15.377   1.655
49619W        W16160  19.945  32.348  12.095
49620W        W16161  11.609  11.324  12.947
49621W        W16162   1.910  20.613  13.610
49622W        W16163  40.437   0.919  13.941
49623W        W16164   2.792  26.504  14.531
49624W        W16165   1.390  40.019  12.416
49625W        W16166  19.133  26.412  13.089
49626W        W16167  33.445   2.973   3.603
49627W        W16168  12.328  15.532   1.738
49628W        W16169   3.454  41.358   3.748
49629W        W16170  39.382  12.585  12.877
49630W        W16171  32.119  14.626  11.032
49631W        W16172  26.288  38.291  13.957
49632W        W16173  31.549  37.421  12.949
49633W        W16174   7.524  11.720   0.230
49634W        W16175  24.210  24.243  11.490
49635W        W16176  34.381   6.619  11.073
49636W        W16177  39.524  23.363  11.083
49637W        W16178   6.902   1.612  11.544
49638W        W16179  11.810  36.351   2.548
49639W        W16180  34.941  23.256  14.862
49640W        W16181  36.927  21.340   2.258
49641W        W16182  44.663  18.036  13.725
49642W        W16183  16.279  35.248   1.940
49643W        W16184  11.668  25.658   1.922
49644W        W16185  17.088  15.950  12.450
49645W        W16186  44.750   3.459   1.806
49646W        W16187  27.113  42.884   4.028
49647W        W16188  14.088  12.294   3.053
49648W        W16189  14.632  40.065   2.274
49649W        W16190   5.737  31.629  14.261
49650W        W16191  18.655  41.386  10.944
49651W        W16192   8.365  24.117  14.788
49652W        W16193  25.390  20.282   1.722
49653W        W16194  11.454  28.168   2.676
49654W        W16195  29.928  17.316   2.311
49655W        W16196  28.219  41.815  13.874
49656W        W16197  30.486  23.559   1.870
49657W        W16198   6.809  28.096   0.047
49658W        W16199  23.393  19.531  14.816
49659W        W16200   4.880  43.010   1.851
49660W        W16201  44.130  29.781   1.283
49661W        W16202   3.823  35.628  11.549
49662W        W16203  10.719  44.434  14.071
49663W        W16204  23.912  38.636  14.438
49664W        W16205  32.060  15.423   0.382
49665W        W16206  33.048  23.545  13.246
49666W        W16207  26.072  20.087  12.397
49667W        W16208  42.661   2.975   4.076
49668W        W16209  19.847  26.073   2.705
49669W        W16210  41.797  31.530  11.002
49670W        W16211  36.569  44.772  11.138
49671W        W16212  24.304  16.075  12.011
49672W        W16213  35.692  32.616   1.216
49673W        W16214   5.797   6.392  12.956
49674W        W16215  20.218   6.670   1.136
49675W        W16216   7.115   7.599   1.803
49676W        W16217   1.480  35.908   1.889
49677W        W16218  32.094  12.648  13.899
49678W        W16219   2.103  16.571  11.087
49679W        W16220  32.386  22.189  10.690
49680W        W16221  29.483  34.234  14.869
49681W        W16222   6.279  28.253   2.662
49682W        W16223  28.758  15.470  14.970
49683W        W16224  35.496   6.717   0.995
49684W        W16225   6.818   1.906   2.965
49685W        W16226  34.404   8.728   2.763
49686W        W16227  10.620  30.165   1.194
49687W        W16228  18.605  44.373   2.847
49688W        W16229  17.465   9.826  13.640
49689W        W16230  17.754  30.568   2.586
49690W        W16231  31.740  30.468   4.907
49691W        W16232  13.839  39.426   0.246
49692W        W16233  12.820  38.474   3.707
49693W        W16234   7.351  39.624   2.735
49694W        W16235  31.359   6.195   4.645
49695W        W16236   8.154  27.421  14.830
49696W        W16237  19.233  29.117  14.163
49697W        W16238  14.787  10.296  11.212
49698W        W16239   3.764  27.948   2.306
49699W        W16240  22.550  42.072  13.831
49700W        W16241   6.448  36.536  11.627
49701W        W16242  25.979   4.551  12.149
49702W        W16243  34.906  29.083   1.274
49703W        W16244  15.477  26.597   2.219
49704W        W16245  23.557  21.243  14.890
49705W        W16246   1.681   0.488  13.828
49706W        W16247   5.210  15.553  13.027
49707W        W16248  24.577  43.346  14.568
49708W        W16249  13.651   8.262   4.647
49709W        W16250  24.712  20.475  12.983
49710W        W16251  31.600  30.515  11.368
49711W        W16252  11.786  41.507   0.849
49712W        W16253   0.644  36.463   0.196
49713W        W16254   4.258  17.241   2.207
49714W        W16255  40.180  24.717   1.742
49715W        W16256  25.220  24.649   2.199
49716W        W16257   4.796  28.863  11.539
49717W        W16258  39.047  26.925   3.151
49718W        W16259  29.709  16.178   1.503
49719W        W16260   5.761   0.992   0.373
49720W        W16261  10.473  44.780   2.773
49721W        W16262  37.640  20.096   1.719
49722W        W16263  20.647  26.289   0.842
49723W        W16264  24.053   7.680   0.401
49724W        W16265  38.171  44.805  12.928
49725W        W16266  25.169  43.303  10.626
49726W        W16267  33.115  14.545   4.279
49727W        W16268  14.723  14.257   4.818
49728W        W16269  28.592  15.135  13.021
49729W        W16270  31.072  31.890  10.202
49730W        W16271  14.690  14.851   1.814
49731W        W16272  23.518  44.811   4.763
49732W        W16273  23.573  25.124   3.294
49733W        W16274  18.228  35.080   2.216
49734W        W16275  23.903   7.961   3.652
49735W        W16276  33.493  32.777  13.421
49736W        W16277  33.540  31.061  13.519
49737W        W16278  24.528  21.305  14.948
49738W        W16279  20.586   2.511   2.178
49739W        W16280  26.783   9.939   2.696
49740W        W16281  44.829  11.249   0.883
49741W        W16282  42.795  18.979  12.567
49742W        W16283  28.364  44.550  11.890
49743W        W16284  32.986  11.525  11.104
49744W        W16285  17.911  14.666  13.295
49745W        W16286  23.168  17.485  11.074
49746W        W16287  23.745  28.527   0.367
49747W        W16288  10.180  20.181  11.948
49748W        W16289   5.892  42.344  12.880
49749W        W16290  43.276   8.938  12.923
49750W        W16291  17.386  33.900   1.872
49751W        W16292   0.212  40.416  11.778
49752W        W16293  14.049   9.960   1.837
49753W        W16294   3.389  41.056  14.793
49754W        W16295   2.972   7.405   0.867
49755W        W16296  43.933  31.947   2.363
49756W        W16297  39.733  34.416   2.446
49757W        W16298  20.607  12.743  11.108
49758W        W16299  34.959  16.176  10.736
49759W        W16300  31.049  38.490  13.708
49760W        W16301   3.197  22.929  11.942
49761W        W16302  35.745  31.507  11.960
49762W        W16303   4.986  15.075  14.909
49763W        W16304  37.518  43.276   4.071
49764W        W16305  21.143  21.169  12.406
49765W        W16306  44.437  40.637   1.216
49766W        W16307  39.458   6.356   1.216
49767W        W16308  17.958  29.031   0.285
49768W        W16309   2.755  25.010  11.509
49769W        W16310   1.060  39.009   1.127
49770W        W16311  25.599  41.775  11.160
49771W        W16312  34.014   5.126  13.523
49772W        W16313  37.854  31.670  14.938
49773W        W16314  16.731  43.980  10.758
49774W        W16315  20.606  32.591   1.620
49775W        W16316  23.672  40.817   4.085
49776W        W16317  29.072   6.512  10.651
49777W        W16318  26.362  26.312  13.180
49778W        W16319  24.630  11.903  13.322
49779W        W16320  33.626  24.576  10.649
49780W        W16321   6.440  12.835   1.874
49781W        W16322  18.440  35.456  11.862
49782W        W16323  37.067  16.119  14.856
49783W        W16324   7.694  16.418   2.037
49784W        W16325  19.751   8.665  10.780
49785W        W16326  36.085   0.959   0.569
49786W        W16327  34.869   9.733   4.106
49787W        W16328  15.773   8.829  14.433
49788W        W16329  22.035   1.634  13.810
49789W        W16330  13.275   3.583  14.960
49790W        W16331  36.896  27.676  13.010
49791W        W16332  12.929  23.102  13.081
49792W        W16333  39.904  33.787  13.777
49793W        W16334  20.638   8.463   1.731
49794W        W16335  12.106   0.709  13.618
49795W        W16336   9.218  34.798   1.013
49796W        W16337   7.716  14.203  14.586
49797W        W16338  12.879  18.032  13.356
49798W        W16339   4.737  37.641   4.180
49799W        W16340  19.997  22.947  12.480
49800W        W16341  43.965  19.471   2.481
49801W        W16342  36.462  22.935   3.641
49802W        W16343  19.261  20.776  13.723
49803W        W16344  19.735  12.647   4.319
49804W        W16345  37.561  22.042  12.934
49805W        W16346  40.426   7.835   0.298
49806W        W16347  42.776  11.283   3.224
49807W        W16348   9.614  36.283   4.550
49808W        W16349  39.842  39.870   1.636
49809W        W16350  12.817   4.674   4.180
49810W        W16351  34.904  10.746  10.556
49811W        W16352  10.602   5.756   1.250
49812W        W16353  30.050  37.856  12.691
49813W        W16354  23.383  25.652  11.612
49814W        W16355   6.145  34.036   4.131
49815W        W16356  16.243  39.366  11.891
49816W        W16357  11.191   9.329   0.733
49817W        W16358  35.423  15.926   0.961
49818W        W16359  38.146  42.237   3.778
49819W        W16360  19.044  27.684  13.936
49820W        W16361  17.557  10.257   3.166
49821W        W16362  10.830  42.563   0.687
49822W        W16363  32.903  28.510  13.862
49823W        W16364  42.461   8.304  14.015
49824W        W16365  26.969  37.060  11.534
49825W        W16366  41.490  14.747  11.438
49826W        W16367   9.721  35.513   1.997
49827W        W16368  38.832  27.090   0.782
49828W        W16369   9.811  29.529  11.665
49829W        W16370  24.240  15.935  12.571
49830W        W16371  35.389  41.905  14.909
49831W        W16372  31.925  36.803   4.882
49832W        W16373   1.849  22.012   0.385
49833W        W16374   5.181  28.401  12.615
49834W        W16375   8.460   6.485  11.120
49835W        W16376   0.521   7.679  11.874
49836W        W16377  32.635   9.355  10.880
49837W        W16378  37.257  44.318  13.123
49838W        W16379  14.743  34.085   2.788
49839W        W16380  38.925   8.175  11.588
49840W        W16381  28.548  25.499  10.588
49841W        W16382  20.338   7.032  13.047
49842W        W16383   7.131  36.090  11.240
49843W        W16384  38.068  30.338  10.350
49844W        W16385   7.599  30.026   0.243
49845W        W16386  44.549  13.334  12.364
49846W        W16387  21.039  34.626   0.024
49847W        W16388  24.913  19.175   0.831
49848W        W16389  23.233  31.437  12.105
49849W        W16390  29.565  32.920   0.410
49850W        W16391  21.505   3.791  11.095
49851W        W16392  27.199  44.923   3.261
49852W        W16393   7.424  26.598  12.964
49853W        W16394  28.629  42.509  14.918
49854W        W16395  22.691  21.630   3.101
49855W        W16396  26.452  40.956   1.769
49856W        W16397  33.930  20.455   2.275
49857W        W16398  22.040   0.792  11.032
49858W        W16399  19.587   4.347   1.987
49859W        W16400  42.744  14.016   2.281
49860W        W16401  15.234  44.478   3.748
49861W        W16402  35.461  25.955   1.226
49862W        W16403  16.522  17.959   1.304
49863W        W16404  28.672  11.233   3.701
49864W        W16405   3.306  44.017  14.466
49865W        W16406  43.679   1.893  12.708
49866W        W16407  42.544  23.171  10.797
49867W        W16408  44.359  42.970  14.185
49868W        W16409  37.419  36.361  10.516
49869W        W16410  18.599  21.955  14.493
49870W        W16411   3.850  33.675  11.601
49871W        W16412   6.661  28.760  11.279
49872W        W16413   1.190  18.961  13.273
49873W        W16414  23.587  33.637  12.411
49874W        W16415  13.855  35.884   1.496
49875W        W16416  38.552   8.697   2.799
49876W        W16417  31.104  44.210   4.179
49877W        W16418  38.499  16.579  11.343
49878W        W16419  19.677   6.639  12.424
49879W        W16420  41.341  16.602   4.742
49880W        W16421  23.446  43.969   0.906
49881W        W16422  16.082   1.476  14.356
49882W        W16423  42.262   7.997  12.489
49883W        W16424  35.918  26.728  13.535
49884W        W16425  32.716  33.114   3.220
49885W        W16426  14.403  37.773   4.427
49886W        W16427  30.602   7.457   2.729
49887W        W16428  11.618  34.663   4.324
49888W        W16429  23.433  44.131  14.880
49889W        W16430  37.932  16.049  13.862
49890W        W16431   7.819  28.700  12.855
49891W        W16432  25.910  10.273   4.171
49892W        W16433  18.790   3.427  14.358
49893W        W16434  32.642  20.209  11.176
49894W        W16435  23.115  15.575  14.399
49895W        W16436  12.137  21.514   4.225
49896W        W16437  34.174   9.362  13.003
49897W        W16438   9.055   7.779  14.382
49898W        W16439   7.299  26.851  12.040
49899W        W16440  40.992   8.002  12.348
49900W        W16441  33.525   3.672  13.416
49901W        W16442   6.976  31.076  14.391
49902W        W16443  21.989  27.885   4.133
49903W        W16444  25.531   3.507  13.848
49904W        W16445  43.534  34.519  14.341
49905W        W16446  16.803  25.601  14.582
49906W        W16447  30.615  34.658   3.778
49907W        W16448  36.777  13.590   1.685
49908W        W16449  26.583  33.588  12.954
49909W        W16450   6.943   8.076  14.909
49910W        W16451  20.140   7.738   4.110
49911W        W16452   1.587  25.182  11.172
49912W        W16453  26.194  23.157  12.556
49913W        W16454  10.234   5.047   2.336
49914W        W16455  14.349   9.839   4.242
49915W        W16456  13.856  15.987   3.151
49916W        W16457  18.437  31.501   3.447
49917W        W16458  11.588   2.656  10.377
49918W        W16459  43.599  27.515  12.500
49919W        W16460   3.488  43.560   1.835
49920W        W16461  37.355  11.324  11.027
49921W        W16462  19.001  17.184   4.677
49922W        W16463  29.056  32.578  11.369
49923W        W16464   0.420   8.628  12.447
49924W        W16465  33.891  20.861   3.075
49925W        W16466  12.941  38.926   2.416
49926W        W16467  17.310  15.825   2.429
49927W        W16468  24.122   6.787   3.344
49928W        W16469  27.683  24.234   3.939
49929W        W16470  38.804  37.138  14.577
49930W        W16471   3.835   3.344  14.734
49931W        W16472  32.531  39.243   3.821
49932W        W16473  41.834  31.184   3.211
49933W        W16474  10.955  39.982  12.713
49934W        W16475  20.603  35.427   4.692
49935W        W16476  25.878  23.774   1.792
49936W        W16477  36.871   1.995   0.234
49937W        W16478  32.117  26.546  12.899
49938W        W16479   2.168   1.893   0.921
49939W        W16480  11.119  38.845   3.434
49940W        W16481  22.419  15.043  12.094
49941W        W16482  29.039  23.320   3.165
49942W        W16483  14.163  11.235  13.582
49943W        W16484   8.858  15.420  14.498
49944W        W16485  28.566  39.352  12.312
49945W        W16486  44.812  29.684   2.703
49946W        W16487  24.561  20.088   1.032
49947W        W16488  43.854  36.889   1.365
49948W        W16489  13.860   6.348  11.896
49949W        W16490  44.563  16.646   4.461
49950W        W16491  33.935  25.571  10.920
49951W        W16492  24.068  18.195   3.196
49952W        W16493  30.858  23.985  12.923
49953W        W16494  42.890   1.484  13.250
49954W        W16495  13.556   3.934  13.376
49955W        W16496  20.675  12.289  13.923
49956W        W16497  44.433   4.596   2.394
49957W        W16498   6.422  10.953  14.876
49958W        W16499  42.986  32.621  10.426
49959W        W16500  19.036  42.509   4.853
49960W        W16501  12.118  41.955  12.644
49961W        W16502  12.142  29.018  14.963
49962W        W16503   5.839  27.529  11.596
49963W        W16504  12.782  18.822  11.181
49964W        W16505  42.045  16.734   1.262
49965W        W16506  29.390  38.878   2.141
49966W        W16507  34.925  19.650   2.178
49967W        W16508   7.655   6.291   4.971
49968W        W16509  20.980  11.875  11.176
49969W        W16510   6.496  44.516   3.259
49970W        W16511   4.376  31.391   0.480
49971W        W16512  25.553   2.990   3.283
49972W        W16513  37.404   5.211  13.220
49973W        W16514  41.588  42.493  10.815
49974W        W16515  35.684  26.675   2.820
49975W        W16516   1.394   8.355   4.524
49976W        W16517  29.118  43.139  13.849
49977W        W16518  33.405  40.527  11.882
49978W        W16519  35.416  13.532  12.091
49979W        W16520   6.447  16.805  12.479
49980W        W16521  39.969  21.094  10.800
49981W        W16522  30.587  34.427   2.467
49982W        W16523  10.254   3.957   0.723
49983W        W16524  13.109  15.501   0.021
49984W        W16525  20.633  35.465  13.629
49985W        W16526  18.275   0.039  13.529
49986W        W16527  19.207  30.021   1.858
49987W        W16528  10.240   3.914   4.571
49988W        W16529   4.094  15.782   5.015
49989W        W16530  21.294  23.818   0.273
49990W        W16531  34.853   7.276  11.429
49991W        W16532  28.449  39.590  10.334
49992W        W16533  39.571  42.245   2.764
49993W        W16534   8.447  12.336  12.055
49994W        W16535   3.397  17.550   3.877
49995W        W16536  18.007  21.213   3.144
49996W        W16537  13.881  38.711  14.727
49997W        W16538   8.799  40.307   5.523
49998W        W16539  44.262  23.678  10.206
49999W        W16540  43.457  25.326  11.924
50000W        W16541   2.027  43.181  14.528
50001W        W16542  34.064  26.505   1.628
50002W        W16543   9.591  33.537   4.128
50003W        W16544  32.207  28.048   0.369
50004W        W16545  38.406  32.024  14.803
50005W        W16546  23.274  43.557  13.000
50006W        W16547  22.057  38.184  13.801
50007W        W16548  44.513   1.407   2.481
50008W        W16549  34.651  17.227   1.010
50009W        W16550  26.524  29.677  14.115
50010W        W16551  22.570  16.729   0.751
50011W        W16552  29.977  34.969  11.580
50012W        W16553  40.771  36.320  12.509
50013W        W16554  25.585   4.021  13.895
50014W        W16555   3.733  44.246  11.696
50015W        W16556  18.335  33.861  11.232
50016W        W16557  44.375   1.025   2.826
50017W        W16558   1.499  34.135  14.671
50018W        W16559  19.279  20.723   2.133
50019W        W16560  10.209  44.958  10.103
50020W        W16561  27.955  11.345  14.710
50021W        W16562  17.252  36.102   3.219
50022W        W16563  16.690   9.402  10.755
50023W        W16564  25.764  43.429  13.322
50024W        W16565  35.465   8.345  11.169
50025W        W16566  33.587  14.784   2.153
50026W        W16567  42.377  21.471  13.408
50027W        W16568  27.463  42.724   0.345
50028W        W16569  40.366  17.075   2.772
50029W        W16570  31.899  43.923   0.878
50030W        W16571  23.684  36.748  11.122
50031W        W16572  33.148   7.783  10.702
50032W        W16573  16.151  13.855  10.393
50033W        W16574  32.925   6.179   3.229
50034W        W16575   2.003  30.155   4.027
50035W        W16576  38.290   9.696  10.932
50036W        W16577  31.690  34.302  14.359
50037W        W16578  35.006   2.991   3.302
50038W        W16579   0.252   6.180   0.419
50039W        W16580  15.082  17.531  10.947
50040W        W16581  38.951  42.874   3.229
50041W        W16582  44.687  36.483   4.734
50042W        W16583  13.152   9.552   0.781
50043W        W16584  31.038  43.295   3.998
50044W        W16585  30.040  38.993  13.403
50045W        W16586   4.354  40.115   1.607
50046W        W16587  41.445  40.774   4.905
50047W        W16588   9.242  26.928  14.983
50048W        W16589  11.900  25.007  13.554
50049W        W16590  30.214  39.478  12.468
50050W        W16591   4.910  35.556  13.855
50051W        W16592   7.143  30.872   4.507
50052W        W16593  25.080   3.400   2.581
50053W        W16594   3.775  18.135   4.729
50054W        W16595  42.861   5.931   4.546
50055W        W16596  38.959  32.201   0.700
50056W        W16597  39.128  37.681   0.815
50057W        W16598  31.839  17.273   2.952
50058W        W16599  43.232  10.684   1.366
50059W        W16600  41.316  34.144  13.519
50060W        W16601   2.883   1.242  14.051
50061W        W16602  12.881   0.326   2.651
50062W        W16603   2.088  43.368   1.939
50063W        W16604  39.530  14.806  14.292
50064W        W16605  25.365   9.566   3.119
50065W        W16606  20.197  29.852  12.804
50066W        W16607  27.036  31.496   1.503
50067W        W16608  17.696   2.795   1.018
50068W        W16609  36.522  40.276   4.629
50069W        W16610  19.340  14.666  11.584
50070W        W16611  11.867  34.116  10.646
50071W        W16612  10.672  37.635   3.143
50072W        W16613  29.132  38.991   0.962
50073W        W16614  32.586  40.834   1.461
50074W        W16615  38.233  11.478  13.360
50075W        W16616  35.396  14.081  14.153
50076W        W16617   2.819  36.966  14.932
50077W        W16618  34.656   2.990  12.142
50078W        W16619  28.417  10.763   4.694
50079W        W16620  34.518  38.316  10.722
50080W        W16621  28.577  14.577  11.992
50081W        W16622   9.687   7.717   2.189
50082W        W16623  30.242  20.584  13.366
50083W        W16624   0.773  28.022   0.100
50084W        W16625  18.538  28.151   1.228
50085W        W16626   2.267  35.822  10.671
50086W        W16627  34.849   6.410  13.387
50087W        W16628   9.592  40.435  13.004
50088W        W16629  13.674  29.743  10.267
50089W        W16630  32.087  12.263   2.933
50090W        W16631  44.284  30.875  11.985
50091W        W16632  10.676  44.956  13.498
50092W        W16633  35.204  21.697  10.901
50093W        W16634   5.357  41.592   0.172
50094W        W16635  44.342   6.191   3.313
50095W        W16636  19.226  21.281  12.819
50096W        W16637  17.995  27.500  14.743
50097W        W16638  38.802  21.813  12.402
50098W        W16639   1.525   9.878   4.762
50099W        W16640  19.350  16.722  11.191
50100W        W16641   8.338   1.290  12.889
50101W        W16642   5.190   2.129   2.294
50102W        W16643  43.475  21.200  10.556
50103W        W16644   6.389  19.812   2.203
50104W        W16645   3.410  44.834   3.616
50105W        W16646  22.770  30.771   4.196
50106W        W16647  40.102  42.603   3.908
50107W        W16648   5.900  19.722   2.195
50108W        W16649   9.373  10.704  10.967
50109W        W16650  39.986   9.092   2.222
50110W        W16651  15.069  33.383  12.906
50111W        W16652   1.283  13.752   3.872
50112W        W16653   6.237  10.338  12.951
50113W        W16654  27.430   2.674   3.587
50114W        W16655  22.302  38.006   0.714
50115W        W16656  32.028   7.064   0.212
50116W        W16657  37.697   0.026  12.975
50117W        W16658  18.233  20.551   0.369
50118W        W16659  15.383   7.024   4.404
50119W        W16660  44.730  20.579   4.126
50120W        W16661  19.623   4.253  14.846
50121W        W16662  32.438  18.702   1.729
50122W        W16663  28.488   2.151  13.743
50123W        W16664   5.140  15.290  11.666
50124W        W16665   5.328   5.504   1.753
50125W        W16666  13.166  42.713  14.070
50126W        W16667   5.826   6.793  11.575
50127W        W16668  36.001   7.659   3.392
50128W        W16669  22.537   4.366  14.355
50129W        W16670  11.800  31.427  10.115
50130W        W16671  25.486   6.271   9.815
50131W        W16672  30.207  40.415  14.362
50132W        W16673  14.534  13.634  11.012
50133W        W16674  30.021  29.040   0.109
50134W        W16675  15.188  21.179  10.385
50135W        W16676   7.974  23.581   5.031
50136W        W16677  28.674  28.070  10.675
50137W        W16678   6.028  31.936  10.672
50138W        W16679   4.188  16.241  11.143
50139W        W16680   8.658  11.399   0.142
50140W        W16681  17.103  17.579   0.221
50141W        W16682  10.128  38.272   4.043
50142W        W16683  36.547  11.802  11.351
50143W        W16684   5.778  31.223   3.747
50144W        W16685   9.735  37.584   4.065
50145W        W16686  19.080  22.524   1.338
50146W        W16687   2.742  18.146  13.879
50147W        W16688  14.498   7.252   3.023
50148W        W16689   4.843  29.732  11.314
50149W        W16690  35.610   3.058   1.247
50150W        W16691  37.175  25.051  12.551
50151W        W16692  24.632  28.139   3.800
50152W        W16693  25.285  35.404  11.400
50153W        W16694  28.630   1.870   0.336
50154W        W16695  13.183  32.790  13.614
50155W        W16696  24.542  26.120  10.745
50156W        W16697  35.588  36.655   2.256
50157W        W16698  41.370   6.848  14.886
50158W        W16699  26.331  12.753   1.122
50159W        W16700   7.296  11.026  14.838
50160W        W16701  43.986  19.941  10.594
50161W        W16702  43.970  19.006   2.219
50162W        W16703  18.072  42.267   3.683
50163W        W16704  37.586  19.032   2.557
50164W        W16705  35.467  16.802   0.228
50165W        W16706  16.005  33.994   0.327
50166W        W16707  39.329  29.636   4.439
50167W        W16708  16.247   9.719  13.615
50168W        W16709   7.585  36.633  13.411
50169W        W16710   9.785  10.134   1.269
50170W        W16711  17.139   7.163  11.274
50171W        W16712  25.405  32.649   4.144
50172W        W16713   3.275  34.393  12.978
50173W        W16714  17.642  28.394   1.457
50174W        W16715  38.830  26.179   2.656
50175W        W16716  42.264  30.841   0.348
50176W        W16717  41.310  42.685  13.794
50177W        W16718   0.284  12.817  14.225
50178W        W16719  17.890  33.079  10.771
50179W        W16720  16.515  19.714   3.661
50180W        W16721  33.599  20.178  13.972
50181W        W16722  44.846  17.111  13.430
50182W        W16723  30.665  30.126  12.017
50183W        W16724  37.716  43.069   3.487
50184W        W16725  30.488  10.659   2.606
50185W        W16726  41.398  39.512   2.385
50186W        W16727  12.297  43.994  11.614
50187W        W16728  25.081  38.060   0.246
50188W        W16729  10.602   9.927   4.246
50189W        W16730  44.395  17.801   1.924
50190W        W16731  39.605   2.950   3.310
50191W        W16732  14.706  25.523  13.475
50192W        W16733  37.397  39.291  11.121
50193W        W16734   1.325  21.735   3.828
50194W        W16735  11.758   7.219  10.253
50195W        W16736  16.979   2.964  12.906
50196W        W16737  31.840  36.475  12.445
50197W        W16738  37.408  26.695   2.416
50198W        W16739   8.623  19.659  14.367
50199W        W16740  29.879  19.255   3.785
50200W        W16741   3.249  15.092  13.864
50201W        W16742  38.881  36.379   2.203
50202W        W16743  12.319  18.477   1.911
50203W        W16744  34.513  23.968  14.884
50204W        W16745  22.316  36.334  12.171
50205W        W16746  37.856  23.986   4.621
50206W        W16747  17.377  41.439   0.950
50207W        W16748  14.410  24.100  12.409
50208W        W16749  29.427  19.170  10.814
50209W        W16750  40.022   6.805  12.091
50210W        W16751   0.797  29.671  12.033
50211W        W16752  20.656  24.783  14.393
50212W        W16753  35.437  40.023  12.072
50213W        W16754  36.127  24.924   3.650
50214W        W16755  33.089  27.228   4.163
50215W        W16756  39.992  36.820  11.954
50216W        W16757  41.042  16.513   2.713
50217W        W16758  16.849   3.018  13.407
50218W        W16759  33.389  26.607   2.825
50219W        W16760   2.412   2.901  13.007
50220W        W16761  34.204  10.924   4.275
50221W        W16762  30.818  29.669   2.248
50222W        W16763  22.488   6.501   3.616
50223W        W16764  33.871  34.205   1.745
50224W        W16765   4.023  23.278  12.303
50225W        W16766  38.017  31.669   3.859
50226W        W16767   1.631  21.911  13.885
50227W        W16768   2.264  34.929   4.567
50228W        W16769  43.077  27.676   0.212
50229W        W16770   4.226  13.735  10.902
50230W        W16771   1.392  41.275   1.307
50231W        W16772   6.463  16.189   4.950
50232W        W16773  15.101  26.031  11.872
50233W        W16774   4.363  39.632  12.073
50234W        W16775  26.759  44.022  10.731
50235W        W16776  42.576  18.298  14.022
50236W        W16777  22.640  10.549  10.740
50237W        W16778  14.014  40.235  11.554
50238W        W16779  15.333   1.122   1.704
50239W        W16780  42.958  35.783   1.379
50240W        W16781  41.779  36.392   1.824
50241W        W16782   9.714  28.235  13.702
50242W        W16783   4.302  40.448  13.326
50243W        W16784  44.775  27.752   3.827
50244W        W16785  16.265  16.956  12.462
50245W        W16786   0.081  27.560  11.546
50246W        W16787  21.926  27.215  12.425
50247W        W16788  25.004  24.782  13.033
50248W        W16789   4.344  24.142   2.882
50249W        W16790  43.317  12.372  11.167
50250W        W16791   4.193  33.670   3.871
50251W        W16792   0.670  24.188   0.419
50252W        W16793  33.752  10.128  14.728
50253W        W16794  11.210   6.667  12.427
50254W        W16795  19.292  19.060   4.306
50255W        W16796  15.311  24.641   4.362
50256W        W16797  40.125  30.071  12.373
50257W        W16798  28.469  36.492   1.602
50258W        W16799  24.722  44.248   0.061
50259W        W16800   4.776  41.324   3.137
50260W        W16801  17.587  21.702  13.276
50261W        W16802  18.031  18.231  12.474
50262W        W16803  23.724  15.666   3.555
50263W        W16804   3.907  44.362   4.216
50264W        W16805  20.231  44.333  11.480
50265W        W16806  13.888   1.262   2.283
50266W        W16807  34.517  42.290   1.457
50267W        W16808  26.517   2.972  11.525
50268W        W16809  17.274   7.213  12.097
50269W        W16810  12.042   4.913  13.974
50270W        W16811   0.756  22.270   1.934
50271W        W16812  38.950   0.435  10.652
50272W        W16813   5.383  30.336   2.718
50273W        W16814  13.166   0.790   4.491
50274W        W16815   4.262  20.328  13.018
50275W        W16816  15.082  35.630   3.808
50276W        W16817  26.348   4.717   2.331
50277W        W16818  11.336  11.434  11.376
50278W        W16819  13.634  14.705   2.672
50279W        W16820  14.225  43.992  14.085
50280W        W16821   9.629  17.799  10.631
50281W        W16822  39.880  36.010  10.935
50282W        W16823  24.763  32.287   3.655
50283W        W16824  35.547  22.238  12.946
50284W        W16825  15.258  41.827   2.878
50285W        W16826  24.149  32.076  13.253
50286W        W16827  18.764  26.525  11.655
50287W        W16828  17.502   0.358  11.445
50288W        W16829  39.771  24.061  13.376
50289W        W16830   4.697   8.444  11.863
50290W        W16831   8.201   8.576  13.074
50291W        W16832  28.171  28.150   0.467
50292W        W16833  23.727  16.562   3.493
50293W        W16834  35.117  21.052   4.035
50294W        W16835  24.172  37.298   0.719
50295W        W16836  30.369  25.890  14.357
50296W        W16837  40.553  37.954   0.943
50297W        W16838   1.487  33.383  14.527
50298W        W16839  33.268   4.182  11.234
50299W        W16840  39.501  36.870  14.545
50300W        W16841  37.089  18.301  14.886
50301W        W16842   4.579  40.963  13.502
50302W        W16843  34.086  10.293   3.190
50303W        W16844  13.616  32.850   4.552
50304W        W16845  36.576  18.449  14.795
50305W        W16846  28.512   0.951  13.024
50306W        W16847   3.983   1.798  12.618
50307W        W16848   9.631   3.355   1.492
50308W        W16849  20.940  40.510   1.915
50309W        W16850  17.578  38.565   4.528
50310W        W16851   9.397  44.073   3.515
50311W        W16852  31.962  32.534   0.327
50312W        W16853   8.155  27.699  12.132
50313W        W16854  36.306   9.345  12.641
50314W        W16855  43.432  23.335   1.211
50315W        W16856   3.902   4.889  14.786
50316W        W16857  37.222  15.268   0.452
50317W        W16858  10.283  22.481  11.637
50318W        W16859  19.769  41.757   1.411
50319W        W16860  39.377  31.369  12.439
50320W        W16861  40.995   4.086  12.009
50321W        W16862  44.956  17.171   1.859
50322W        W16863  33.182   7.493   4.797
50323W        W16864  16.825  43.731   3.904
50324W        W16865  20.650   6.857   2.760
50325W        W16866  26.096   8.947  14.918
50326W        W16867  31.452  29.972  12.606
50327W        W16868  21.618  12.979   4.565
50328W        W16869  40.915   3.008  14.562
50329W        W16870  32.532  17.230  12.821
50330W        W16871  21.203  24.081   4.504
50331W        W16872  16.822  10.648   0.345
50332W        W16873   7.884   0.929   3.223
50333W        W16874  22.670  39.348  10.750
50334W        W16875  22.031   6.285  12.571
50335W        W16876  24.564   4.673   3.673
50336W        W16877  41.282   2.800  14.249
50337W        W16878   3.364  17.014   1.251
50338W        W16879   9.182  43.750  10.810
50339W        W16880  17.043  24.662   4.377
50340W        W16881   5.751  20.180  10.675
50341W        W16882   2.859  35.879   0.196
50342W        W16883  32.373   8.682   2.752
50343W        W16884  11.334  25.165  11.587
50344W        W16885  13.868  43.034  14.320
50345W        W16886   6.699  16.506  13.344
50346W        W16887  20.802  19.508  12.867
50347W        W16888  12.127  41.290   4.189
50348W        W16889  16.155  20.238  14.960
50349W        W16890   0.292  28.093   1.407
50350W        W16891   8.296  38.925  13.366
50351W        W16892  10.416  40.153   3.606
50352W        W16893  33.356   5.184   3.208
50353W        W16894  41.430  23.150   4.266
50354W        W16895   6.818  12.238   3.165
50355W        W16896   8.428  28.868  12.529
50356W        W16897  11.237  31.139   0.552
50357W        W16898  27.065  38.865   3.310
50358W        W16899  25.458  27.243   3.350
50359W        W16900  17.202   6.317  13.529
50360W        W16901   9.722   3.901  14.865
50361W        W16902   7.893   0.877  14.156
50362W        W16903  31.287  13.701   3.744
50363W        W16904  39.445  44.727  11.519
50364W        W16905  10.126  25.175   2.766
50365W        W16906   0.321  35.515  13.341
50366W        W16907  15.565  34.782  12.361
50367W        W16908  12.669  32.420   2.213
50368W        W16909  18.266   3.718   2.285
50369W        W16910  25.761  43.283  10.960
50370W        W16911   9.481  37.506  12.624
50371W        W16912  12.106  37.952   0.415
50372W        W16913  26.689  18.893   4.815
50373W        W16914  11.333  19.500  12.988
50374W        W16915  38.492  36.773  14.355
50375W        W16916   1.838   2.941  11.157
50376W        W16917   7.921  20.044   3.456
50377W        W16918  35.129   0.237  11.436
50378W        W16919  29.377  36.617  11.595
50379W        W16920  35.611  17.674   1.278
50380W        W16921  22.997  37.306   4.863
50381W        W16922  33.408  28.291  11.433
50382W        W16923  43.969  31.736  11.923
50383W        W16924   3.162  25.858   2.359
50384W        W16925  17.001  39.891  10.718
50385W        W16926  36.093  28.463  10.735
50386W        W16927  43.889  15.306  10.254
50387W        W16928   0.818  17.808  14.398
50388W        W16929  38.895  22.135  12.788
50389W        W16930  22.032  16.224  10.941
50390W        W16931   3.944  44.002   5.112
50391W        W16932  34.872  24.973   4.190
50392W        W16933   9.291  21.304  13.550
50393W        W16934  40.312  38.532  14.816
50394W        W16935  11.884  40.816   4.084
50395W        W16936   7.313  22.290  13.789
50396W        W16937   2.904   1.210   4.756
50397W        W16938  31.978  32.825   3.696
50398W        W16939  19.935  22.041  12.943
50399W        W16940  17.187  31.546  14.477
50400W        W16941  22.140  32.709   1.912
50401W        W16942   3.375  31.358  12.671
50402W        W16943  30.218  11.224  14.802
50403W        W16944  35.888  31.105   1.620
50404W        W16945  23.800  43.457  11.541
50405W        W16946  40.811  22.936  12.355
50406W        W16947  19.070   9.845  12.839
50407W        W16948   8.270  18.888  11.582
50408W        W16949  39.595  13.336  13.513
50409W        W16950  29.932   0.727   0.336
50410W        W16951  31.400  33.196  11.625
50411W        W16952  18.545  17.778  14.729
50412W        W16953  36.543  22.744  11.167
50413W        W16954  29.827  38.832   4.623
50414W        W16955  25.429  20.450  14.339
50415W        W16956  13.376  34.626   3.364
50416W        W16957  30.638  35.657  14.273
50417W        W16958   4.950  31.369  12.174
50418W        W16959   7.850  40.144  11.424
50419W        W16960  41.714  39.864  10.932
50420W        W16961  30.560  36.589   1.585
50421W        W16962   6.074   7.272  12.145
50422W        W16963  16.787  18.886   1.245
50423W        W16964  29.912   2.418   0.697
50424W        W16965  29.166  40.115   3.227
50425W        W16966  12.650   9.725  14.288
50426W        W16967  39.445  28.250  11.427
50427W        W16968  32.960   5.302  12.787
50428W        W16969  25.038  21.121  11.726
50429W        W16970  16.726   5.919  10.397
50430W        W16971  19.497  44.394  11.079
50431W        W16972  16.933  34.435  12.433
50432W        W16973  36.007  37.286   0.071
50433W        W16974  19.567  22.674   1.249
50434W        W16975   9.918   0.739  13.873
50435W        W16976  18.790  39.730   3.398
50436W        W16977   2.174  34.025   3.570
50437W        W16978  36.597  10.308  13.083
50438W        W16979  12.892   0.427  12.202
50439W        W16980  19.970  28.733  14.603
50440W        W16981  35.875  44.471  10.672
50441W        W16982  26.883  38.001   3.572
50442W        W16983  37.927  41.595  11.108
50443W        W16984  17.174   4.308   1.379
50444W        W16985   9.676  20.987  10.944
50445W        W16986  26.642  35.055   4.610
50446W        W16987  19.582   4.189   1.487
50447W        W16988  11.862  30.059   3.164
50448W        W16989  37.461  41.843  14.837
50449W        W16990  27.262  30.209   4.502
50450W        W16991  13.076   7.715  11.451
50451W        W16992  19.234  25.273   3.094
50452W        W16993  43.341   5.181  10.520
50453W        W16994  26.081  36.149   3.921
50454W        W16995  18.055  16.255   0.924
50455W        W16996  20.149   9.186  13.409
50456W        W16997  13.963  40.300   3.100
50457W        W16998  25.758  25.142  12.947
50458W        W16999  39.912  39.074   2.125
50459W        W17000  18.273   0.221   0.359
50460W        W17001   9.318  25.214   4.630
50461W        W17002  26.697  30.901   3.827
50462W        W17003  10.190  15.262   2.271
50463W        W17004  17.128  35.404  13.591
50464W        W17005  19.682  43.201  14.479
50465W        W17006  33.094  35.000   0.957
50466W        W17007  25.232  31.507   0.465
50467W        W17008  34.929   4.406   3.898
50468W        W17009  11.382  41.802   0.544
50469W        W17010  31.880  26.074  12.079
50470W        W17011   4.709  13.157  13.345
50471W        W17012   3.328  35.475   0.980
50472W        W17013   0.954  31.111  14.357
50473W        W17014  24.214   4.134   1.356
50474W        W17015  13.208  23.023  13.524
50475W        W17016  24.432   8.962   0.144
50476W        W17017  40.555   3.721  14.837
50477W        W17018  22.906  24.532  14.699
50478W        W17019   5.156  33.584  10.227
50479W        W17020  41.646   6.782   2.708
50480W        W17021  43.113  14.163   0.939
50481W        W17022  32.089  29.580  12.901
50482W        W17023  33.191  27.730  13.581
50483W        W17024  24.033  44.838   4.659
50484W        W17025  25.669  11.438  12.408
50485W        W17026   4.023   3.012  10.814
50486W        W17027   3.616  43.342   2.372
50487W        W17028  26.309   5.417  10.249
50488W        W17029  36.625  11.017   4.109
50489W        W17030  17.685  20.911  10.450
50490W        W17031  16.794   0.211   3.406
50491W        W17032   6.569  27.359   1.378
50492W        W17033   3.326  35.649   2.003
50493W        W17034  39.059  36.403  14.792
50494W        W17035  41.821  44.743  13.986
50495W        W17036  34.355  44.387   2.405
50496W        W17037  22.984  19.692  10.681
50497W        W17038  38.323  39.575  10.404
50498W        W17039  37.383  13.423  12.805
50499W        W17040  36.846   6.991  13.554
50500W        W17041  21.136  10.009   3.687
50501W        W17042  19.145  37.910   4.918
50502W        W17043  29.830  26.020   1.301
50503W        W17044   1.279  42.007  12.441
50504W        W17045  13.315  13.725   0.547
50505W        W17046  39.095  22.658   1.666
50506W        W17047  12.803  17.867  13.969
50507W        W17048  32.569  23.939  11.153
50508W        W17049  40.794  28.219   4.213
50509W        W17050   1.424   9.922   2.416
50510W        W17051  33.581   4.483  10.927
50511W        W17052  27.544  23.238  14.465
50512W        W17053   2.795  39.918  12.085
50513W        W17054  26.103   3.025   3.935
50514W        W17055   2.783  13.209  11.070
50515W        W17056  26.749   8.299  10.990
50516W        W17057  15.555  16.942  11.354
50517W        W17058   9.575  28.379  11.149
50518W        W17059  35.612  32.007  13.578
50519W        W17060  34.967   5.800  12.559
50520W        W17061   3.928   4.808   4.584
50521W        W17062   9.905   2.779   4.059
50522W        W17063  14.061  32.595  10.956
50523W        W17064  11.196  35.861  14.008
50524W        W17065   0.009   0.642  14.990
50525W        W17066  15.572  40.096  10.499
50526W        W17067  32.098   4.429  10.697
50527W        W17068   2.208  22.064  14.757
50528W        W17069  21.652  30.012  10.613
50529W        W17070  41.475  30.960   2.908
50530W        W17071   7.096  41.909  13.985
50531W        W17072  39.984   4.559  12.872
50532W        W17073  27.859  15.980   1.887
50533W        W17074  24.958   0.956   4.144
50534W        W17075  37.943   3.776  13.318
50535W        W17076   9.262  27.345   1.614
50536W        W17077  13.137  26.616  10.819
50537W        W17078   6.690  16.486   0.727
50538W        W17079  34.445   5.904   0.896
50539W        W17080   3.366  35.303  12.621
50540W        W17081   1.475  33.907  10.962
50541W        W17082  19.042   2.289  13.813
50542W        W17083  15.417  18.211   4.529
50543W        W17084  21.961  36.123   0.587
50544W        W17085   4.562   4.385  11.088
50545W        W17086  19.533  31.039   1.380
50546W        W17087  19.358  27.579   2.893
50547W        W17088  40.925  29.665   1.803
50548W        W17089   9.957  37.314  12.597
50549W        W17090   6.420   7.220   1.670
50550W        W17091  44.844  37.870  13.529
50551W        W17092  34.866  25.363   3.812
50552W        W17093  21.157  38.644  12.522
50553W        W17094  12.689  26.550  13.956
50554W        W17095  27.681  20.582   4.777
50555W        W17096   4.324   7.622  14.472
50556W        W17097  44.222  19.134   4.080
50557W        W17098   9.324  26.489  13.075
50558W        W17099  36.334  22.170  10.758
50559W        W17100  17.629  14.686   2.351
50560W        W17101  31.192  11.124  14.831
50561W        W17102  35.350  29.373  13.149
50562W        W17103  42.635   0.935   3.702
50563W        W17104  42.988  14.139   9.959
50564W        W17105  44.879  38.351  11.336
50565W        W17106  42.282  36.499   0.779
50566W        W17107   5.510  35.624   2.124
50567W        W17108  38.294  28.479   1.674
50568W        W17109   6.117  43.937  13.756
50569W        W17110  37.505  17.188  13.568
50570W        W17111  29.267  39.434   0.347
50571W        W17112  29.970  36.903  12.530
50572W        W17113   7.967   4.796  10.448
50573W        W17114  30.200  15.272   1.220
50574W        W17115  18.697  42.979   1.475
50575W        W17116  33.228  21.587  11.190
50576W        W17117  21.631  38.030   2.592
50577W        W17118   2.759  39.357   1.859
50578W        W17119  41.956  40.254  13.053
50579W        W17120  32.426   3.228   4.224
50580W        W17121  39.354  19.056   3.196
50581W        W17122  40.468  15.240  11.618
50582W        W17123  44.655  35.864   4.179
50583W        W17124  28.246  15.691  13.531
50584W        W17125   7.286   0.421   4.230
50585W        W17126  33.544  36.201   1.186
50586W        W17127  32.106   6.045  13.472
50587W        W17128  22.589  28.688  13.773
50588W        W17129  26.451  11.104   0.736
50589W        W17130  10.625  29.622   1.865
50590W        W17131   2.288  30.060  12.331
50591W        W17132  25.038  13.392  14.642
50592W        W17133  40.378  13.386  12.207
50593W        W17134  41.131  16.807  12.310
50594W        W17135   8.176  18.340  13.468
50595W        W17136  44.940  36.437   1.409
50596W        W17137  43.070  17.659  12.281
50597W        W17138  15.162  40.133   1.257
50598W        W17139  41.938  44.908  14.455
50599W        W17140   2.764  10.194  12.638
50600W        W17141  41.487  28.161  14.028
50601W        W17142  20.268  40.880   5.129
50602W        W17143  41.605  30.512   0.716
50603W        W17144   6.945   1.213  14.840
50604W        W17145   4.732  31.704  12.653
50605W        W17146  33.796  18.736   1.884
50606W        W17147  36.939  42.107  11.923
50607W        W17148   6.898   7.080   0.323
50608W        W17149  28.116  35.314  11.675
50609W        W17150  27.461  40.736   1.397
50610W        W17151  39.326  19.504  11.923
50611W        W17152  33.669  24.512  14.972
50612W        W17153  41.791  32.507   3.641
50613W        W17154  16.333  36.244   3.368
50614W        W17155  18.281   3.637   4.102
50615W        W17156  34.360  10.153  13.313
50616W        W17157  39.465  21.127   3.199
50617W        W17158  19.333  13.535  11.524
50618W        W17159   0.890  13.828  13.939
50619W        W17160  18.700  26.712  11.181
50620W        W17161   6.392  26.000   0.091
50621W        W17162  16.569  15.121  12.446
50622W        W17163  25.575  28.462   4.617
50623W        W17164   6.711   9.230   0.847
50624W        W17165  13.113  40.761  12.548
50625W        W17166  44.555  34.401  14.399
50626W        W17167  22.767  39.541  11.644
50627W        W17168  33.130  13.553   4.049
50628W        W17169  24.658  20.368  13.843
50629W        W17170  44.318  18.550   0.753
50630W        W17171  27.701  17.092  12.845
50631W        W17172  34.961  37.150  13.300
50632W        W17173  44.623  34.057  10.997
50633W        W17174  19.113  10.447   4.640
50634W        W17175  23.685  32.840  11.165
50635W        W17176  14.351  27.090   0.029
50636W        W17177  13.933   9.171   0.321
50637W        W17178  21.254  43.764   4.892
50638W        W17179  28.913  23.844  10.690
50639W        W17180  11.874  28.631   3.965
50640W        W17181  18.141   6.691   0.943
50641W        W17182  36.217  22.073   3.730
50642W        W17183   8.730  35.975   2.346
50643W        W17184  41.318  41.002   1.321
50644W        W17185  21.907  17.092  10.936
50645W        W17186   2.481  11.109  10.699
50646W        W17187  12.878  28.353   3.936
50647W        W17188  40.049  30.989  12.960
50648W        W17189   0.304  39.434   0.004
50649W        W17190  18.084  39.082   0.298
50650W        W17191  32.194  36.883  12.433
50651W        W17192  10.587  21.010  13.888
50652W        W17193   6.675  35.691  14.797
50653W        W17194  14.317   8.837   0.276
50654W        W17195  11.231  41.512  11.591
50655W        W17196  37.342  13.894   4.541
50656W        W17197   9.851  37.654   0.280
50657W        W17198  19.675  40.349  14.540
50658W        W17199  34.136   8.122  13.415
50659W        W17200  40.099  40.959  11.246
50660W        W17201  19.239   9.600  13.258
50661W        W17202  44.756  25.054  13.876
50662W        W17203  21.269  24.016   2.284
50663W        W17204  42.806  28.059  12.524
50664W        W17205  19.714   8.892  11.751
50665W        W17206  13.534   8.763   2.963
50666W        W17207  35.771  12.237  11.122
50667W        W17208  32.683  40.123   1.452
50668W        W17209  22.260  21.489   3.892
50669W        W17210  43.313  13.195   2.296
50670W        W17211  19.201   7.706   3.621
50671W        W17212  14.301  41.959  10.732
50672W        W17213  42.929  25.976  12.394
50673W        W17214  31.569  36.420   3.815
50674W        W17215  16.176  32.149   2.822
50675W        W17216  42.288   3.802  13.348
50676W        W17217   3.740  42.352  11.990
50677W        W17218   5.750  37.898  14.950
50678W        W17219   5.130  23.156   3.218
50679W        W17220  42.112  40.016   0.126
50680W        W17221  34.944  15.684  13.885
50681W        W17222  22.311  17.677  11.551
50682W        W17223  33.017  41.494   0.814
50683W        W17224  35.226  27.887   1.823
50684W        W17225  37.353  30.031   1.865
50685W        W17226   4.404  32.537  13.963
50686W        W17227  16.619  34.538   3.432
50687W        W17228  17.144  40.571   0.739
50688W        W17229  37.558  24.744  11.676
50689W        W17230   5.984  39.971   4.990
50690W        W17231  44.062  42.695   3.676
50691W        W17232  21.642   6.352   2.696
50692W        W17233  37.664  29.150  14.034
50693W        W17234   9.695  44.328   4.750
50694W        W17235  22.773   0.758   3.700
50695W        W17236  18.437  23.707  12.011
50696W        W17237  23.545  21.573   3.683
50697W        W17238  36.389  12.605  14.985
50698W        W17239  42.863  14.137   3.201
50699W        W17240   1.785  24.439   3.814
50700W        W17241  34.339  27.124  14.086
50701W        W17242  22.132  26.947  12.030
50702W        W17243  27.062  17.946  10.778
50703W        W17244   7.636  25.549  12.041
50704W        W17245  44.956  13.550   0.342
50705W        W17246  34.031  11.711  12.868
50706W        W17247  10.381  21.997  14.302
50707W        W17248   1.366  36.723   0.681
50708W        W17249   5.733  14.559   0.112
50709W        W17250  31.484  15.739   3.330
50710W        W17251  27.993  37.419   2.592
50711W        W17252  35.154  39.069  11.943
50712W        W17253  14.849  35.758  12.025
50713W        W17254  36.075   3.193   1.450
50714W        W17255  15.331   4.391  11.531
50715W        W17256  28.103   7.719  13.409
50716W        W17257   5.231  30.037  14.698
50717W        W17258  19.543  26.637  14.901
50718W        W17259   6.249   4.880  11.462
50719W        W17260  39.567   3.216  11.517
50720W        W17261  26.404  31.116   2.852
50721W        W17262   4.203  11.235   4.220
50722W        W17263  41.806  40.981  13.758
50723W        W17264  33.854  30.021  11.136
50724W        W17265  12.606  12.102   3.104
50725W        W17266  30.023  44.043  13.864
50726W        W17267  40.274   9.659   1.735
50727W        W17268  10.231  44.243  13.423
50728W        W17269  23.186  44.856  13.381
50729W        W17270  13.647  34.733   1.629
50730W        W17271   2.444  30.083  14.917
50731W        W17272  13.377  34.882  14.509
50732W        W17273  15.122   1.513  10.462
50733W        W17274  44.397  28.846   0.738
50734W        W17275  31.092  37.763  13.500
50735W        W17276  33.076  27.267  12.154
50736W        W17277  39.071  34.117  12.030
50737W        W17278  10.552   4.148   0.343
50738W        W17279  34.850  37.396   0.455
50739W        W17280   7.752  13.244  10.713
50740W        W17281   9.467  10.786  12.538
50741W        W17282  12.103  25.218   0.851
50742W        W17283  17.773  33.572   4.212
50743W        W17284  20.160  18.974   2.936
50744W        W17285   9.901   4.710   0.929
50745W        W17286  27.957  42.560  11.164
50746W        W17287  32.682  24.205  13.422
50747W        W17288   0.772  20.162  12.618
50748W        W17289  15.647  17.093   2.776
50749W        W17290  32.387  38.103  13.928
50750W        W17291  22.787  10.753   0.218
50751W        W17292  42.547  38.148  11.903
50752W        W17293   4.694  42.804  14.572
50753W        W17294  34.862  12.825  12.945
50754W        W17295  19.619   3.911   4.542
50755W        W17296   5.673  21.141   1.961
50756W        W17297  29.122  36.315  14.700
50757W        W17298   4.017  15.186  14.868
50758W        W17299  24.234  22.531  13.791
50759W        W17300  11.992  22.365   4.111
50760W        W17301  23.169  22.050   4.804
50761W        W17302  29.127   9.564   0.273
50762W        W17303  42.395  13.587   2.336
50763W        W17304   8.099   2.324  11.465
50764W        W17305  16.387  31.880  13.920
50765W        W17306  28.938   5.671  11.580
50766W        W17307  24.401  38.068   3.762
50767W        W17308  38.089  27.278   4.057
50768W        W17309  11.215  23.546   4.541
50769W        W17310  32.272   4.376   3.567
50770W        W17311  41.512   9.921   4.564
50771W        W17312  41.359  34.812  12.446
50772W        W17313   7.469  41.443   4.319
50773W        W17314  28.182  34.585   0.382
50774W        W17315  20.703  29.190  13.376
50775W        W17316   0.352   9.906   4.098
50776W        W17317   5.729   5.491  13.906
50777W        W17318  35.991  31.417  12.894
50778W        W17319  43.252  23.516   3.311
50779W        W17320  20.031  13.771   0.755
50780W        W17321  18.325   2.321  12.053
50781W        W17322   4.750   0.803   2.156
50782W        W17323  39.911  10.671   1.311
50783W        W17324  22.800  13.726   5.188
50784W        W17325  18.987  36.136   0.788
50785W        W17326  43.419   2.938  13.543
50786W        W17327   1.702  16.045   3.589
50787W        W17328   2.431   7.183   5.127
50788W        W17329  28.722  26.495  11.380
50789W        W17330  18.502   3.269  11.640
50790W        W17331  27.151  19.748  11.441
50791W        W17332  12.608  21.753  13.512
50792W        W17333  20.404  17.352   4.568
50793W        W17334  44.755  19.521  13.869
50794W        W17335   0.921  23.233   2.737
50795W        W17336  24.474  31.433  14.850
50796W        W17337  42.803  33.947   1.398
50797W        W17338  30.944  18.256  13.001
50798W        W17339   4.183  41.177   4.210
50799W        W17340  32.924  35.904   3.222
50800W        W17341   0.513   1.063   3.122
50801W        W17342  33.041   0.788  14.340
50802W        W17343  35.663  33.351   4.196
50803W        W17344  28.962  20.815  11.030
50804W        W17345   4.833  22.269   0.870
50805W        W17346   7.135  30.839  13.928
50806W        W17347   8.864  25.055   0.745
50807W        W17348  20.254  14.584   0.504
50808W        W17349  24.708  28.102   4.776
50809W        W17350  42.919  22.045  13.014
50810W        W17351  30.517  30.410   3.346
50811W        W17352   3.692  14.891   4.638
50812W        W17353  31.049  42.444  13.425
50813W        W17354  29.841  36.721  10.830
50814W        W17355  43.471  29.264  14.971
50815W        W17356  31.452  22.492  11.162
50816W        W17357  17.549  22.087   1.944
50817W        W17358  16.289   1.386   4.113
50818W        W17359  42.058  17.049   3.720
50819W        W17360  11.133  30.958  10.706
50820W        W17361  18.036   1.335  12.946
50821W        W17362  38.995  44.210  12.137
50822W        W17363   7.187  22.107  11.487
50823W        W17364  13.681  23.473   4.643
50824W        W17365  20.243  34.258   3.848
50825W        W17366  17.185  26.527  12.384
50826W        W17367  24.414   8.788   1.330
50827W        W17368  38.213   0.751  10.694
50828W        W17369  40.004   5.288  12.040
50829W        W17370   0.301  31.476  13.002
50830W        W17371   2.916  43.709   5.007
50831W        W17372  35.104  16.379   2.156
50832W        W17373  16.322  30.853   0.604
50833W        W17374  15.402  19.278   2.266
50834W        W17375  40.121  38.433   1.712
50835W        W17376  40.436   8.342   2.794
50836W        W17377  40.061   4.902   0.083
50837W        W17378  34.760  25.997  13.293
50838W        W17379  26.161   0.797   0.852
50839W        W17380   0.679   4.425   0.748
50840W        W17381  27.927  37.565  12.489
50841W        W17382  44.378  27.494  14.786
50842W        W17383  14.845  31.179   2.722
50843W        W17384  42.288   5.866  11.786
50844W        W17385  16.182  27.121   1.184
50845W        W17386  19.521  27.211  12.543
50846W        W17387   5.201  31.384   0.374
50847W        W17388  42.946  43.277   2.162
50848W        W17389  32.161  26.645   1.349
50849W        W17390   7.277  15.648   1.823
50850W        W17391  33.035  33.948   4.607
50851W        W17392  43.397   3.042  13.046
50852W        W17393   4.978  29.613  10.842
50853W        W17394  16.649   1.686   3.224
50854W        W17395  23.702  14.598   3.208
50855W        W17396  33.294  18.064   3.017
50856W        W17397  32.485  40.931  14.055
50857W        W17398  23.201  23.262  12.644
50858W        W17399  29.926  43.285  12.635
50859W        W17400  24.470  17.392  13.949
50860W        W17401  21.674   3.973   1.497
50861W        W17402  10.784  29.691   1.341
50862W        W17403  36.553  41.394   2.794
50863W        W17404   1.762  44.822   2.162
50864W        W17405   5.876  42.534   2.267
50865W        W17406   7.956  15.247   4.528
50866W        W17407  16.734  29.744  10.758
50867W        W17408  10.863   0.917   0.091
50868W        W17409   3.921  29.667  12.676
50869W        W17410  37.560  13.195   0.648
50870W        W17411  14.841  31.678  11.987
50871W        W17412   9.806  22.684   3.629
50872W        W17413  17.467  10.237   2.135
50873W        W17414  24.213  43.410   3.393
50874W        W17415  42.192   3.453   2.780
50875W        W17416  44.075  11.207   2.787
50876W        W17417   7.381  29.907   1.208
50877W        W17418  16.112  37.922  10.704
50878W        W17419  31.872  35.894   2.813
50879W        W17420  21.137  19.185  12.170
50880W        W17421  27.017  18.305   2.880
50881W        W17422  35.595  25.078  13.728
50882W        W17423   3.796  40.744  14.691
50883W        W17424  15.643  29.639   1.233
50884W        W17425  17.775  30.982  14.032
50885W        W17426  19.808  41.308  11.551
50886W        W17427  43.061  30.409   0.040
50887W        W17428  10.216   2.446   3.651
50888W        W17429  39.744  42.483   2.335
50889W        W17430   1.390  10.823  12.190
50890W        W17431  20.936  35.796  13.876
50891W        W17432  11.678  38.111  13.045
50892W        W17433  39.340  37.046  12.310
50893W        W17434   9.781  42.056   2.829
50894W        W17435  31.159   0.309   4.588
50895W        W17436  41.121  20.977   1.161
50896W        W17437  36.401  40.362  13.472
50897W        W17438  44.286  16.585  10.541
50898W        W17439  28.201  35.804   0.764
50899W        W17440  25.949  30.134  11.958
50900W        W17441  20.311  40.064  12.001
50901W        W17442   9.783  19.101  13.165
50902W        W17443  20.976  28.138  12.158
50903W        W17444  22.060   4.166   1.894
50904W        W17445  22.622  13.322  14.514
50905W        W17446  39.741  16.239  11.542
50906W        W17447  16.338  23.993   0.834
50907W        W17448   9.938  31.678  14.847
50908W        W17449  26.733  11.562  10.774
50909W        W17450  14.854  29.164  11.971
50910W        W17451  10.146  28.046   0.360
50911W        W17452   9.205  38.072   1.727
50912W        W17453   3.707   4.999   1.250
50913W        W17454  35.111  28.836   4.855
50914W        W17455  36.135  40.973   4.697
50915W        W17456  17.799  22.854  11.162
50916W        W17457  29.320  26.609  12.198
50917W        W17458  40.760  39.016  14.381
50918W        W17459  20.181  41.274  14.400
50919W        W17460  15.663  20.040  14.893
50920W        W17461  33.366  27.450  14.877
50921W        W17462  44.014  32.643  11.931
50922W        W17463  35.430  44.911  13.476
50923W        W17464  41.433  40.820  11.840
50924W        W17465  39.745  36.048   3.294
50925W        W17466  28.957  41.623   0.372
50926W        W17467  18.306  35.312   0.889
50927W        W17468   8.365   8.344   2.702
50928W        W17469  24.041   1.276  11.397
50929W        W17470  34.473  21.052   1.608
50930W        W17471  21.116  36.550   3.512
50931W        W17472  24.380  24.457   1.859
50932W        W17473  10.902   8.593  13.017
50933W        W17474   0.447  26.883   3.219
50934W        W17475  32.668  33.662  13.451
50935W        W17476  18.381   5.238   4.140
50936W        W17477   8.414  33.063   4.007
50937W        W17478  11.293  43.297   0.665
50938W        W17479  18.259  27.028  11.147
50939W        W17480   4.852  33.047   2.886
50940W        W17481   7.763   1.496   4.206
50941W        W17482  22.990  35.325   0.917
50942W        W17483  32.080  44.571   0.156
50943W        W17484  16.278   7.346   1.807
50944W        W17485  34.093  11.739   4.122
50945W        W17486  24.868  26.882  12.765
50946W        W17487   0.846  18.377  12.533
50947W        W17488  39.079   2.873  12.611
50948W        W17489  41.750   7.402   1.265
50949W        W17490  36.613  10.964   0.390
50950W        W17491  36.389  43.224  14.759
50951W        W17492   7.532  19.742   3.603
50952W        W17493  42.546  36.396   3.161
50953W        W17494   5.318  36.926   4.299
50954W        W17495   1.010  22.158  10.733
50955W        W17496  31.805  25.732  11.068
50956W        W17497  35.850  36.321  12.968
50957W        W17498   9.273  18.318   2.272
50958W        W17499  28.174  24.194   0.785
50959W        W17500  32.412  16.630   2.402
50960W        W17501  22.520  17.774   1.057
50961W        W17502  20.235  23.201  13.818
50962W        W17503  11.054   3.208  12.701
50963W        W17504  40.726  27.996  14.752
50964W        W17505  17.747  34.296  14.700
50965W        W17506   5.367  41.466   2.471
50966W        W17507  18.077  44.085  10.617
50967W        W17508  33.190  21.132   4.736
50968W        W17509  10.322   4.236   4.995
50969W        W17510  16.041   5.482   1.910
50970W        W17511  35.875  11.346   4.398
50971W        W17512   4.418  26.408   0.345
50972W        W17513  31.688  17.615  11.612
50973W        W17514  20.733   2.868   3.931
50974W        W17515   5.435  38.941  11.551
50975W        W17516  27.377  44.652  11.122
50976W        W17517  11.992  29.607  11.035
50977W        W17518   8.646  29.738   1.971
50978W        W17519   2.170  34.237  14.252
50979W        W17520  32.667  32.718  12.022
50980W        W17521  12.676  44.606   1.536
50981W        W17522  21.675  25.780   0.814
50982W        W17523  41.049   2.012   3.628
50983W        W17524  44.347  40.555  13.375
50984W        W17525  30.919   5.218  14.754
50985W        W17526  18.416  33.604   3.153
50986W        W17527  10.720  35.917   0.431
50987W        W17528  30.385  10.826   2.136
50988W        W17529  10.823  39.618   0.326
50989W        W17530  31.554  39.134  13.468
50990W        W17531  44.455  12.926   1.402
50991W        W17532  20.076   9.100   3.922
50992W        W17533  31.747  36.348  14.308
50993W        W17534  37.050   8.836  12.028
50994W        W17535  43.219   1.380  10.795
50995W        W17536  43.223  34.516  13.925
50996W        W17537  30.456  40.460   0.343
50997W        W17538  19.612  44.783   1.832
50998W        W17539  35.055  13.550   4.018
50999W        W17540  39.675  37.656  12.414
51000W        W17541  39.272  35.178   2.702
51001W        W17542   1.212  42.033   3.260
51002W        W17543   3.559   5.059   2.126
51003W        W17544   2.807  12.531  11.765
51004W        W17545  27.719  33.184  10.994
51005W        W17546  14.814   0.422   1.000
51006W        W17547  29.161   6.261  12.505
51007W        W17548  22.700  21.212  14.986
51008W        W17549   0.857  43.074   2.423
51009W        W17550  19.698  25.355   3.319
51010W        W17551   7.149  15.917  13.114
51011W        W17552  30.728  36.217  13.535
51012W        W17553  35.399  13.161  13.900
51013W        W17554   0.636   4.372  13.359
51014W        W17555  18.158   9.253  14.499
51015W        W17556  37.974  15.612   2.102
51016W        W17557  38.663  22.689   2.834
51017W        W17558  15.960  34.131   9.797
51018W        W17559  40.049   2.192   3.619
51019W        W17560  29.471  16.068   3.738
51020W        W17561  42.319  30.504  11.517
51021W        W17562  26.511  38.726   3.245
51022W        W17563  27.187   0.415   0.040
51023W        W17564  31.955  17.812   0.842
51024W        W17565  21.004  19.308   4.125
51025W        W17566  16.272  26.143   4.523
51026W        W17567  34.553   2.315   2.428
51027W        W17568  19.221   2.976   3.713
51028W        W17569  38.709   3.244  12.393
51029W        W17570  11.143  11.171   2.871
51030W        W17571   0.108  19.431  11.106
51031W        W17572  21.663  13.769  11.871
51032W        W17573  22.950  20.529  14.460
51033W        W17574   6.784   6.988  11.551
51034W        W17575   5.943  43.471   4.655
51035W        W17576  31.460  19.307   2.142
51036W        W17577  11.893   0.363  12.379
51037W        W17578  25.260  39.391   1.797
51038W        W17579   9.763  35.315   3.715
51039W        W17580  30.039  18.360   3.684
51040W        W17581   1.013  37.601   3.703
51041W        W17582  16.776  24.265   0.881
51042W        W17583  39.130  17.678   3.009
51043W        W17584  37.885  16.348   9.778
51044W        W17585  17.983  33.509   3.438
51045W        W17586  35.137  25.086  13.508
51046W        W17587  10.245  22.106  14.811
51047W        W17588  44.754   5.482  14.915
51048W        W17589  19.714  13.037   0.920
51049W        W17590  13.833   7.281  11.001
51050W        W17591  33.956  32.727  11.639
51051W        W17592  20.511  33.521   0.516
51052W        W17593  28.373   5.812  14.017
51053W        W17594  10.672  19.943  10.741
51054W        W17595  43.396  15.789  12.129
51055W        W17596  23.120  41.123  13.333
51056W        W17597  25.509  14.834  12.831
51057W        W17598   3.343   6.806   1.383
51058W        W17599  31.750  26.431   2.234
51059W        W17600  38.942   2.725  14.403
51060W        W17601  39.352  32.665  14.085
51061W        W17602  39.274  12.257  14.999
51062W        W17603  20.777  18.090   2.952
51063W        W17604  10.856   0.380   0.326
51064W        W17605  30.200  42.870   2.969
51065W        W17606  34.343  13.242  12.834
51066W        W17607  28.364   6.447   2.312
51067W        W17608  27.921  43.419  12.390
51068W        W17609  11.684  33.600  10.625
51069W        W17610   0.413  24.529   0.799
51070W        W17611  17.840  13.851  12.194
51071W        W17612   4.290  22.283   0.071
51072W        W17613  26.617  36.160  12.901
51073W        W17614  24.013   3.307  14.542
51074W        W17615  13.825  41.520  13.403
51075W        W17616   1.725  12.260   2.283
51076W        W17617  33.341  37.130  13.060
51077W        W17618  30.060  25.685   2.259
51078W        W17619  20.219  14.235   0.891
51079W        W17620   9.375   3.274  12.112
51080W        W17621   7.491  19.098  11.176
51081W        W17622  27.964   2.657  10.180
51082W        W17623   3.914  36.482  13.824
51083W        W17624  21.115  30.269  12.891
51084W        W17625  14.285  32.468  13.124
51085W        W17626  16.869   9.323  12.991
51086W        W17627   3.660  29.934   2.540
51087W        W17628  42.851   1.713  11.590
51088W        W17629  27.912  39.190  14.030
51089W        W17630  28.891  35.972   1.248
51090W        W17631   4.928  40.883  12.691
51091W        W17632  44.287  25.143   0.733
51092W        W17633   2.795  22.674   2.280
51093W        W17634  33.812  27.663   4.090
51094W        W17635   3.640  28.538   3.881
51095W        W17636  40.154  17.609  11.796
51096W        W17637  30.881  19.024   2.878
51097W        W17638  42.803   2.471   4.054
51098W        W17639   8.427  24.692  12.397
51099W        W17640  34.914  37.424   1.516
51100W        W17641  34.206  17.272   0.757
51101W        W17642  34.177  15.264   3.286
51102W        W17643  42.207  21.746   1.029
51103W        W17644  22.058  34.899  14.691
51104W        W17645   7.111  11.804   3.205
51105W        W17646  35.479  10.759  13.588
51106W        W17647  22.084  29.240  11.513
51107W        W17648  36.598  29.746  12.526
51108W        W17649  20.231  17.758   2.242
51109W        W17650  29.742   3.312   4.981
51110W        W17651  35.394  36.928  10.709
51111W        W17652   2.183   2.429   0.342
51112W        W17653  41.996   0.038  13.565
51113W        W17654  35.196  41.034   0.424
51114W        W17655  26.526  40.222  14.035
51115W        W17656  23.830  12.698   4.557
51116W        W17657  23.754  34.621  14.725
51117W        W17658  23.669  30.430   2.646
51118W        W17659  43.382  11.409  12.842
51119W        W17660   4.717  10.158  13.286
51120W        W17661  33.305  28.494  11.899
51121W        W17662  42.045   7.135  11.545
51122W        W17663  16.639  12.306  11.042
51123W        W17664  40.813   9.088   2.765
51124W        W17665   5.862   1.281  10.377
51125W        W17666  13.769  42.865  11.821
51126W        W17667  13.304  44.477  13.917
51127W        W17668  37.109  15.975   4.869
51128W        W17669  12.931  15.287   2.361
51129W        W17670  18.605  43.501   2.948
51130W        W17671   6.211  14.999   1.339
51131W        W17672  24.287  21.151  14.445
51132W        W17673   3.361   0.325   5.221
51133W        W17674  36.983  38.785   2.643
51134W        W17675  17.451   0.009   1.746
51135W        W17676  31.991  28.438  13.972
51136W        W17677  12.329   6.204  10.645
51137W        W17678  28.399  22.361  12.680
51138W        W17679   1.514  28.628  14.920
51139W        W17680   2.234  18.589   0.638
51140W        W17681  19.172  27.441   1.648
51141W        W17682  24.008  21.233  11.244
51142W        W17683   0.493  35.871  13.910
51143W        W17684  20.132  32.600   1.388
51144W        W17685  12.345   8.915   0.857
51145W        W17686  29.799  39.837   3.961
51146W        W17687  10.186  31.478   2.171
51147W        W17688  43.477  32.013  11.105
51148W        W17689  31.834  34.319   2.120
51149W        W17690  17.723  25.079  11.537
51150W        W17691  17.299  34.735  11.637
51151W        W17692  17.818  23.719  11.364
51152W        W17693  25.709  22.277  13.855
51153W        W17694  15.409  37.530  14.958
51154W        W17695  22.131  21.145   4.696
51155W        W17696  15.209  26.978  12.219
51156W        W17697  22.020   9.400  10.523
51157W        W17698  27.167   3.864   4.291
51158W        W17699  35.104  23.969   0.224
51159W        W17700  12.660  16.450  11.551
51160W        W17701   8.269  11.603  11.026
51161W        W17702   2.247  33.020  14.804
51162W        W17703  27.164  29.259  14.763
51163W        W17704   6.238   9.467  11.474
51164W        W17705  33.586  18.317  12.032
51165W        W17706   6.953  10.902  12.827
51166W        W17707  22.284  37.134  14.720
51167W        W17708   8.707  37.376   0.901
51168W        W17709  43.778  36.878   0.645
51169W        W17710   9.626  40.043  11.056
51170W        W17711  38.306  34.435  10.714
51171W        W17712  22.717  13.093  10.766
51172W        W17713  17.325  10.158  10.593
51173W        W17714  36.025  11.609   2.627
51174W        W17715  21.952  19.101  13.881
51175W        W17716   4.830  43.737   2.255
51176W        W17717  35.372  16.172  12.083
51177W        W17718  14.829  15.824  13.442
51178W        W17719  20.197  43.561  14.512
51179W        W17720  31.116  27.235  14.582
51180W        W17721  37.426  20.630   1.030
51181W        W17722  27.750  14.702   9.995
51182W        W17723  20.192  16.994   0.344
51183W        W17724   6.863   1.098  11.567
51184W        W17725   0.926  17.672  12.040
51185W        W17726  22.154  21.808  13.749
51186W        W17727   8.275  40.116  13.539
51187W        W17728   1.936  33.909  10.743
51188W        W17729  30.598  22.540   3.321
51189W        W17730  11.910  18.008  11.601
51190W        W17731  10.592  19.597  14.898
51191W        W17732  13.202   2.887  10.598
51192W        W17733   1.823  32.465   3.503
51193W        W17734  20.711  22.952   4.240
51194W        W17735  38.651   9.812   4.703
51195W        W17736   7.154  10.803   1.033
51196W        W17737  29.582  25.268   0.320
51197W        W17738  44.901  35.574  14.915
51198W        W17739   1.583  16.504   2.851
51199W        W17740  31.922  21.895  10.656
51200W        W17741  44.524  37.242   4.961
51201W        W17742   7.730  41.421   0.911
51202W        W17743  25.531   4.241  11.457
51203W        W17744  44.873  19.595   5.115
51204W        W17745  32.916  18.169  11.467
51205W        W17746  41.912   2.012   0.790
51206W        W17747  11.836  36.819  13.461
51207W        W17748   8.254  26.063   0.972
51208W        W17749  43.751  13.339  11.135
51209W        W17750  44.230  28.725   1.225
51210W        W17751  28.944   9.275   4.610
51211W        W17752  15.267  18.753  13.408
51212W        W17753   4.406  24.998  12.990
51213W        W17754  25.210   0.823   2.749
51214W        W17755  13.111  15.143   4.439
51215W        W17756  42.593  10.220   1.792
51216W        W17757   6.244  11.733   4.934
51217W        W17758  43.821   3.305   0.549
51218W        W17759  37.340  11.378   4.293
51219W        W17760  21.911   1.443  12.986
51220W        W17761  29.393  11.890   1.364
51221W        W17762  38.882  18.327   2.271
51222W        W17763  12.198  25.123   0.009
51223W        W17764  33.369  35.139  13.763
51224W        W17765  23.768  10.141   3.696
51225W        W17766  42.972  24.062   1.216
51226W        W17767  33.111  41.318  12.902
51227W        W17768  36.968  10.249  14.971
51228W        W17769  32.728  40.558  14.338
51229W        W17770   8.734  21.863  12.474
51230W        W17771   0.490   7.212   0.300
51231W        W17772  32.044  39.407  10.639
51232W        W17773   6.424  22.722  11.607
51233W        W17774  31.759   1.977  11.508
51234W        W17775  15.199  19.025   3.608
51235W        W17776  26.931  27.004   3.272
51236W        W17777   4.683  34.781  11.458
51237W        W17778  41.494  28.150   0.004
51238W        W17779  10.852  29.251   1.585
51239W        W17780  23.462   8.474  10.264
51240W        W17781  40.102   6.857   1.689
51241W        W17782  37.083  11.469   2.786
51242W        W17783  28.940   3.797   0.060
51243W        W17784  10.846  32.326  12.120
51244W        W17785  11.178  36.604   4.570
51245W        W17786   9.908   0.800   3.078
51246W        W17787   5.178  26.574   3.167
51247W        W17788   1.249  14.654   1.559
51248W        W17789  22.971  23.179   2.838
51249W        W17790  17.110  18.567   3.855
51250W        W17791  34.532  15.135  14.627
51251W        W17792  28.581  21.239  14.626
51252W        W17793   2.034  27.962   3.780
51253W        W17794  21.462  41.953   0.215
51254W        W17795  30.064   9.648  13.868
51255W        W17796  17.624  23.139  12.027
51256W        W17797  24.414  10.988  14.469
51257W        W17798  36.455  22.206  11.767
51258W        W17799  22.749  41.066   1.854
51259W        W17800  33.334  16.958  10.422
51260W        W17801  34.427  24.598  13.592
51261W        W17802  44.966  37.001   3.343
51262W        W17803  30.937  33.365  13.301
51263W        W17804  35.316   1.100  11.697
51264W        W17805  38.336  12.597   2.709
51265W        W17806  18.042  33.039  11.833
51266W        W17807  31.698   3.298  13.301
51267W        W17808  32.504  36.706  13.914
51268W        W17809  30.792   9.351  12.445
51269W        W17810   2.453   8.416   0.338
51270W        W17811   9.843  34.842   3.927
51271W        W17812  41.928  27.931   1.357
51272W        W17813  21.235  16.336  13.379
51273W        W17814  16.203   0.815  12.096
51274W        W17815  14.677   6.847   4.702
51275W        W17816   3.833  33.177  11.633
51276W        W17817  18.921  18.288   4.760
51277W        W17818  11.934  39.572  14.845
51278W        W17819  24.615  32.627   2.324
51279W        W17820   5.894  15.166  14.587
51280W        W17821   7.901  21.510   0.429
51281W        W17822   8.385  14.739   1.416
51282W        W17823   0.220   9.440  14.966
51283W        W17824  16.282  33.342  14.937
51284W        W17825  21.530  28.918  12.942
51285W        W17826  25.386  39.308   4.583
51286W        W17827  44.676  36.915  11.628
51287W        W17828   3.357  11.794  11.336
51288W        W17829  15.413  36.439  11.604
51289W        W17830  11.813   6.265  14.372
51290W        W17831  32.909  39.995  11.258
51291W        W17832  39.123  30.556   2.221
51292W        W17833  39.474  34.488  14.477
51293W        W17834  44.435   6.463  14.378
51294W        W17835  40.596  25.491  14.804
51295W        W17836  16.590  22.723   4.689
51296W        W17837  30.524   3.390   4.657
51297W        W17838   4.100  43.146  10.121
51298W        W17839  34.324  11.987  11.252
51299W        W17840   9.413   5.967   0.355
51300W        W17841  38.452   0.449   0.075
51301W        W17842  33.936   7.624   4.871
51302W        W17843  40.513  25.719   0.935
51303W        W17844  17.652  35.067   0.275
51304W        W17845  19.872  26.144   3.751
51305W        W17846  24.580  38.484   2.450
51306W        W17847  30.558  40.370   1.005
51307W        W17848   2.770   5.819  13.989
51308W        W17849  11.994  33.857  11.909
51309W        W17850  19.670  17.818   4.896
51310W        W17851  27.088  12.722  10.625
51311W        W17852  11.142  35.944   1.868
51312W        W17853  43.771  31.590   4.713
51313W        W17854  40.978  16.076   3.078
51314W        W17855  44.561   3.766   4.601
51315W        W17856  11.509  38.621   0.797
51316W        W17857  15.867  37.773   1.700
51317W        W17858  41.337  21.404   0.999
51318W        W17859  13.850  43.960   4.286
51319W        W17860  13.415  16.284  12.364
51320W        W17861   2.257  29.541   3.551
51321W        W17862  18.204  24.187   0.357
51322W        W17863  11.666  37.550   3.263
51323W        W17864  12.366  18.611  10.983
51324W        W17865  34.193  11.498  13.303
51325W        W17866  38.844  29.676   2.133
51326W        W17867  19.883   8.229  11.040
51327W        W17868  22.680  19.255   0.886
51328W        W17869  38.810  29.787   1.631
51329W        W17870   6.919   6.885  14.499
51330W        W17871   7.793  14.736   2.580
51331W        W17872  16.624  41.155   4.379
51332W        W17873   1.937  35.048  10.694
51333W        W17874  33.138  40.441   0.653
51334W        W17875  10.350   8.484   2.393
51335W        W17876  42.366  17.795  13.090
51336W        W17877  33.830  12.696  10.232
51337W        W17878  17.340   6.811  13.403
51338W        W17879  17.307  35.379   4.132
51339W        W17880  40.026  33.548  14.876
51340W        W17881  17.367  13.054   3.630
51341W        W17882  30.414  37.743   2.313
51342W        W17883  19.551  23.983   0.961
51343W        W17884  26.142  16.255  12.907
51344W        W17885  25.107  11.297   3.695
51345W        W17886  35.772  36.852  14.890
51346W        W17887  29.430  10.120   1.408
51347W        W17888  12.152   5.219   3.193
51348W        W17889   8.448  25.902   4.070
51349W        W17890  25.670  36.540   0.710
51350W        W17891  13.715  33.443  11.822
51351W        W17892  11.750  39.032   1.054
51352W        W17893  32.443  17.505  11.103
51353W        W17894  15.594   0.829  11.606
51354W        W17895   8.506  37.756  12.014
51355W        W17896  14.690  33.199  12.018
51356W        W17897  29.068  44.966  12.028
51357W        W17898  41.320  41.689  11.984
51358W        W17899  32.928  21.763  13.457
51359W        W17900  10.164  20.573   1.368
51360W        W17901   3.197  27.199   0.020
51361W        W17902  33.589   5.157  10.272
51362W        W17903   1.837   8.653  14.258
51363W        W17904   8.451  10.283  10.728
51364W        W17905   0.319  27.854   0.368
51365W        W17906  22.191  18.076  12.299
51366W        W17907  30.019   0.483  13.838
51367W        W17908   2.492  43.425  10.681
51368W        W17909  20.484  31.970  10.982
51369W        W17910   8.180  23.158  12.346
51370W        W17911   5.480  29.159   3.838
51371W        W17912  12.648  37.279  14.248
51372W        W17913  24.077  33.907  13.392
51373W        W17914   4.416   4.830  11.974
51374W        W17915  11.755  25.512   3.440
51375W        W17916  13.407  40.324   0.514
51376W        W17917   2.662  31.849  12.090
51377W        W17918  41.243  42.248  11.102
51378W        W17919  11.296   4.477  14.532
51379W        W17920   6.006  27.926   3.238
51380W        W17921  35.648  43.777   3.205
51381W        W17922  12.127  33.198   0.496
51382W        W17923  18.906   7.175   4.530
51383W        W17924  31.404   8.416  14.972
51384W        W17925   5.327  37.417  11.572
51385W        W17926  18.640  19.106   0.190
51386W        W17927  30.298   8.798   1.627
51387W        W17928   8.150   4.676  13.917
51388W        W17929  11.989  22.111  12.343
51389W        W17930  40.077  33.120   4.019
51390W        W17931   4.950  31.617   2.267
51391W        W17932   4.790  35.622  14.931
51392W        W17933  25.600  16.176  11.644
51393W        W17934  27.105   8.951   2.844
51394W        W17935  34.376   2.752   2.690
51395W        W17936   0.915  24.250   2.871
51396W        W17937  25.061   9.650  13.741
51397W        W17938  31.374  17.243   3.677
51398W        W17939  31.055  38.526  14.226
51399W        W17940  25.079  36.359   1.465
51400W        W17941  22.601  39.049  14.678
51401W        W17942  39.211  12.433  13.985
51402W        W17943  18.888  22.045   2.396
51403W        W17944  40.021  19.178  14.888
51404W        W17945  15.260  44.892   2.420
51405W        W17946   2.486  31.066  13.185
51406W        W17947   9.992   8.060   3.295
51407W        W17948  14.848  29.984   4.178
51408W        W17949  24.743  40.713  11.074
51409W        W17950  13.794  26.596  12.064
51410W        W17951   2.080   4.227  13.859
51411W        W17952  32.685  24.527   2.650
51412W        W17953  15.703   7.448  13.756
51413W        W17954  43.850  33.083   0.266
51414W        W17955  28.605  43.996  10.612
51415W        W17956  27.058  40.432   3.179
51416W        W17957   6.185  17.077  10.718
51417W        W17958  42.025  35.914  10.697
51418W        W17959  43.475  10.327   3.093
51419W        W17960   8.683   8.648   1.914
51420W        W17961  17.236   9.778   0.313
51421W        W17962  39.437  38.317   2.322
51422W        W17963  16.726  29.484  14.802
51423W        W17964  41.272  14.723   0.886
51424W        W17965  13.153  15.628  13.611
51425W        W17966  36.947  26.073   4.632
51426W        W17967  12.341  43.537   2.212
51427W        W17968  38.017  35.750  12.115
51428W        W17969  19.159  16.056   1.403
51429W        W17970   3.529  23.236  12.476
51430W        W17971  43.250  11.154   4.095
51431W        W17972  22.554  36.855   1.434
51432W        W17973  40.779  40.433  10.484
51433W        W17974  18.291  14.089   3.180
51434W        W17975  28.465  24.773   3.916
51435W        W17976  20.239   1.371  14.115
51436W        W17977  32.528  29.210   3.219
51437W        W17978  40.717  20.758  13.515
51438W        W17979   6.659  21.424  10.278
51439W        W17980   9.070  10.834  13.037
51440W        W17981  23.645   4.017  13.422
51441W        W17982   0.266   8.634   1.779
51442W        W17983   8.494  41.764  11.523
51443W        W17984   4.776  19.840   1.232
51444W        W17985  33.529  31.919   2.602
51445W        W17986   5.413  26.266   3.612
51446W        W17987  26.536  18.738   2.908
51447W        W17988   6.163  29.098   2.881
51448W        W17989  24.976  44.476  13.911
51449W        W17990  36.661   6.912  10.590
51450W        W17991  18.623   3.767  13.088
51451W        W17992  41.092  31.692   3.760
51452W        W17993  28.252  43.432   1.764
51453W        W17994  43.261  24.059   4.541
51454W        W17995  41.042  26.647  13.279
51455W        W17996  39.164  41.469   1.072
51456W        W17997  27.615  10.193   2.760
51457W        W17998  24.077  22.283   2.170
51458W        W17999  22.561   8.309  13.532
51459W        W18000  21.195   9.743  14.307
51460W        W18001  38.475  27.725   3.376
51461W        W18002  36.592  15.752  10.125
51462W        W18003   6.421  29.391  13.401
51463W        W18004  31.786  13.780   3.579
51464W        W18005   8.579   8.912  14.893
51465W        W18006  17.061   4.831   2.268
51466W        W18007   7.650  42.517  13.796
51467W        W18008  27.139  21.064   0.738
51468W        W18009  22.750  30.729   2.278
51469W        W18010  10.780  26.692   2.216
51470W        W18011  21.803  17.745   0.030
51471W        W18012   8.804  44.189  12.047
51472W        W18013  24.262   9.271  13.862
51473W        W18014  17.193   8.959   5.011
51474W        W18015  33.112   7.695   4.308
51475W        W18016  33.123   9.868  12.133
51476W        W18017  16.989  12.175  11.726
51477W        W18018  42.790  37.486  11.869
51478W        W18019   2.928   8.244   0.313
51479W        W18020  38.986  18.315  11.109
51480W        W18021  22.789  42.680  12.587
51481W        W18022   0.863  19.797   3.978
51482W        W18023   2.779  14.838   4.751
51483W        W18024  42.487   7.263  14.485
51484W        W18025  20.036  26.163  13.915
51485W        W18026   6.618  41.020   0.236
51486W        W18027  29.821  38.009  13.126
51487W        W18028  40.581   9.696  11.020
51488W        W18029  20.231  22.524   0.516
51489W        W18030   5.783   3.457   2.000
51490W        W18031  29.943  42.393  11.182
51491W        W18032   4.666  17.609   0.288
51492W        W18033  32.973  31.273   2.101
51493W        W18034  12.850  24.654   1.403
51494W        W18035  31.999  38.458   3.728
51495W        W18036  17.931  14.575   2.821
51496W        W18037  24.876  17.122  13.736
51497W        W18038  30.528  30.713   4.118
51498W        W18039  38.657  38.454   1.159
51499W        W18040  23.741  36.421  14.522
51500W        W18041  15.558  10.754  13.451
51501W        W18042   8.868  31.969   1.633
51502W        W18043  37.888  41.378   1.314
51503W        W18044  32.452  25.719   4.749
51504W        W18045  43.317  42.809  12.969
51505W        W18046  14.632  24.580   0.254
51506W        W18047  38.530   3.160   2.451
51507W        W18048  14.583   3.640   3.319
51508W        W18049  11.803  35.336   3.836
51509W        W18050  15.242  41.205   3.302
51510W        W18051  10.425  41.445   2.279
51511W        W18052  34.081  12.148   4.425
51512W        W18053  10.730  21.210  14.758
51513W        W18054  40.939  37.628   3.217
51514W        W18055  29.490  22.897  10.779
51515W        W18056  19.600   7.865   4.870
51516W        W18057  28.198   4.640  10.793
51517W        W18058   1.850  26.239   4.159
51518W        W18059  15.120  30.614   0.400
51519W        W18060  34.867  29.145   2.165
51520W        W18061  44.000  24.567  13.899
51521W        W18062  17.524   5.362  14.424
51522W        W18063   2.632  28.961   2.806
51523W        W18064  23.459  15.052  12.069
51524W        W18065   9.092  33.779   1.888
51525W        W18066  22.417  26.055  10.740
51526W        W18067  27.651   5.169   2.355
51527W        W18068   3.722   7.664   4.910
51528W        W18069  44.861  38.080  13.061
51529W        W18070  40.984  16.839  13.688
51530W        W18071  23.792  12.302  14.165
51531W        W18072  42.138  31.863  11.207
51532W        W18073  41.427  24.505  10.747
51533W        W18074  43.180   8.097  11.182
51534W        W18075  21.255  16.438  14.267
51535W        W18076  13.361  24.119   2.750
51536W        W18077  16.268   4.982   3.743
51537W        W18078   0.304   3.340   3.658
51538W        W18079  17.572  21.895  11.925
51539W        W18080   8.656   7.612  13.065
51540W        W18081  26.437  21.536   1.167
51541W        W18082  12.173  44.821  13.268
51542W        W18083  16.324  32.343   2.384
51543W        W18084  13.727  30.112   0.369
51544W        W18085   8.193  25.625  10.492
51545W        W18086  27.510  22.672   0.260
51546W        W18087   6.723  44.330  13.504
51547W        W18088   4.141  33.946   0.851
51548W        W18089  23.984  18.190   1.729
51549W        W18090  14.223  25.735  13.412
51550W        W18091  22.987  42.286  10.363
51551W        W18092  28.636  43.863  14.647
51552W        W18093  25.565  21.714  10.782
51553W        W18094   2.954  38.477   2.875
51554W        W18095  27.958  22.567  11.904
51555W        W18096  38.446  42.965  12.699
51556W        W18097  34.599  40.929  12.010
51557W        W18098  16.575  39.771  13.215
51558W        W18099  38.873  29.577  14.418
51559W        W18100  42.154  37.578   4.012
51560W        W18101   4.766  21.477   4.078
51561W        W18102  34.017  17.442  12.868
51562W        W18103  26.127   5.871   1.829
51563W        W18104   1.850   7.005   0.176
51564W        W18105  21.091  35.943  14.359
51565W        W18106  20.123  35.376   3.328
51566W        W18107  38.420  14.090   3.178
51567W        W18108  42.756  38.500  10.710
51568W        W18109  32.540  10.457   0.697
51569W        W18110  44.877  21.733  13.191
51570W        W18111  30.997  10.545   1.457
51571W        W18112   6.850   4.167  11.459
51572W        W18113  28.452   2.909   2.244
51573W        W18114  26.658  35.394  11.443
51574W        W18115  37.523  28.757  11.134
51575W        W18116   0.029  33.398  11.551
51576W        W18117  22.675  11.561   4.438
51577W        W18118  37.451  10.797   3.301
51578W        W18119  31.508  22.932   3.546
51579W        W18120  40.929  30.643  10.867
51580W        W18121  23.659  16.722  14.442
51581W        W18122  36.067   2.574   2.181
51582W        W18123  17.759  34.067  14.254
51583W        W18124  38.918   4.025   4.528
51584W        W18125  44.049  22.980  14.915
51585W        W18126  25.918  15.353  12.564
51586W        W18127  28.451  43.742   1.269
51587W        W18128  39.454  39.196   1.919
51588W        W18129  27.237  33.925   3.857
51589W        W18130  19.052  12.132   0.042
51590W        W18131  38.984  28.618   0.318
51591W        W18132   4.003  40.917  12.305
51592W        W18133   8.285  39.371   3.984
51593W        W18134  43.217   7.708  12.210
51594W        W18135  38.453  11.399   4.798
51595W        W18136   2.391   1.811   3.511
51596W        W18137  40.563  13.020  12.520
51597W        W18138  10.249  31.480  10.728
51598W        W18139  24.569  39.425  14.257
51599W        W18140  42.769  31.412  14.879
51600W        W18141  13.092  22.694   3.881
51601W        W18142  14.576   9.734   2.692
51602W        W18143  27.911  33.872   2.669
51603W        W18144  21.819   4.335  13.773
51604W        W18145  30.502  32.366   2.128
51605W        W18146  16.294  19.510   0.370
51606W        W18147  10.125  22.125   4.350
51607W        W18148  16.265  11.394   1.487
51608W        W18149  12.349  34.367  13.937
51609W        W18150  38.771  20.962   1.779
51610W        W18151  39.810  10.021  12.127
51611W        W18152  25.100  11.775  14.388
51612W        W18153  33.091  14.518  12.067
51613W        W18154  20.516   9.237   0.229
51614W        W18155   2.982  37.149   2.794
51615W        W18156  13.882  31.221  12.963
51616W        W18157  20.792  37.923  14.152
51617W        W18158  21.473   4.773   0.901
51618W        W18159  43.966  42.788   4.181
51619W        W18160   8.804  20.258   3.011
51620W        W18161  32.556  21.782   3.697
51621W        W18162  41.876  16.606   4.776
51622W        W18163  12.609   0.007  13.524
51623W        W18164   5.930  35.506   2.443
51624W        W18165  31.208  31.186   3.078
51625W        W18166  23.629  42.639   4.744
51626W        W18167  39.225  42.121   3.694
51627W        W18168  13.371   2.711   2.765
51628W        W18169  11.842  24.558   3.831
51629W        W18170   5.089  30.666   1.352
51630W        W18171   7.806  25.280   4.556
51631W        W18172  15.607  24.038   1.408
51632W        W18173   5.165   5.373  14.379
51633W        W18174  29.028  31.584   4.653
51634W        W18175  31.486   8.809   3.219
51635W        W18176  12.493   9.672   1.643
51636W        W18177  14.203  23.833  12.850
51637W        W18178  34.991  11.380  13.883
51638W        W18179  12.731  19.058   0.456
51639W        W18180  42.123  14.164  12.475
51640W        W18181   5.699  20.608   4.548
51641W        W18182  39.479  14.460  13.080
51642W        W18183  42.003  42.501  11.106
51643W        W18184  16.597  16.132  14.479
51644W        W18185  42.076  40.537   2.863
51645W        W18186   7.778  36.393   2.889
51646W        W18187  12.561  21.163  12.408
51647W        W18188  34.895  15.158  10.920
51648W        W18189   2.499   2.225  13.960
51649W        W18190   2.725   1.245  11.611
51650W        W18191  22.673  23.106   0.329
51651W        W18192  36.947  39.087  14.682
51652W        W18193  20.760  14.578   1.513
51653W        W18194  39.738  19.199   5.025
51654W        W18195  12.402  32.914  12.313
51655W        W18196  28.000  16.690  13.367
51656W        W18197   3.227  22.129  11.561
51657W        W18198  24.075  28.200  13.817
51658W        W18199   7.091  30.109   0.324
51659W        W18200   6.398  19.468   0.390
51660W        W18201  24.010   3.083   0.998
51661W        W18202  43.377   8.479   2.595
51662W        W18203  29.531  44.364   2.144
51663W        W18204   3.969  44.519  12.073
51664W        W18205  23.447  16.238  11.501
51665W        W18206  23.036  16.697   2.831
51666W        W18207  11.524  34.532  12.404
51667W        W18208  32.438  28.207  13.804
51668W        W18209   4.486  15.928   4.198
51669W        W18210  17.070   4.467   1.855
51670W        W18211  21.478  14.282  13.619
51671W        W18212  10.360   2.330   5.181
51672W        W18213  16.767  20.660   1.080
51673W        W18214  32.027  13.453   1.510
51674W        W18215  21.050   5.736   1.497
51675W        W18216  24.638  21.434   4.545
51676W        W18217   8.920  10.711  11.235
51677W        W18218  15.720  32.854  12.517
51678W        W18219  40.488  23.388  12.497
51679W        W18220  42.410  27.034   1.276
51680W        W18221  15.130  35.561  11.429
51681W        W18222  33.574  30.729   0.289
51682W        W18223   6.785   5.103  10.135
51683W        W18224  11.978  10.733  14.666
51684W        W18225  10.347  26.640  12.339
51685W        W18226  33.789  35.514   0.358
51686W        W18227  28.848  33.870   4.190
51687W        W18228  42.560  38.789  12.502
51688W        W18229  17.267  44.977   3.614
51689W        W18230  44.920  34.084  12.050
51690W        W18231   3.843  39.105  10.076
51691W        W18232  13.643   5.362  13.366
51692W        W18233  23.140  30.101  11.625
51693W        W18234  10.206  33.104   1.591
51694W        W18235   5.711  42.888   3.867
51695W        W18236  24.014  16.273   2.774
51696W        W18237   7.377  38.113   4.493
51697W        W18238  16.660  10.637  11.612
51698W        W18239  14.166   1.730  14.303
51699W        W18240  40.061  10.335   2.819
51700W        W18241   2.979  38.946  11.652
51701W        W18242  29.807  11.193  12.981
51702W        W18243   6.231  18.739   1.802
51703W        W18244  14.600  36.131   2.832
51704W        W18245  26.475  33.081   4.722
51705W        W18246   4.805  16.552  12.053
51706W        W18247  13.367  10.305   2.319
51707W        W18248  42.558   6.371  10.589
51708W        W18249  19.694   4.661   2.818
51709W        W18250  15.509  32.101   2.293
51710W        W18251  28.417  13.873  11.588
51711W        W18252  41.440  16.623   4.239
51712W        W18253  33.992  39.581   0.128
51713W        W18254  37.546  22.712   1.302
51714W        W18255  14.148   8.920  11.130
51715W        W18256  22.300   2.179  12.639
51716W        W18257  13.317  20.156   3.378
51717W        W18258   0.309  14.064  13.435
51718W        W18259  33.871   8.202   4.831
51719W        W18260  25.995  38.545   1.333
51720W        W18261  16.890  14.643   2.707
51721W        W18262   9.438  31.372   0.753
51722W        W18263  38.576  29.973   1.205
51723W        W18264  31.906  43.877  12.842
51724W        W18265   5.980  16.316   3.062
51725W        W18266  44.391  14.714   4.041
51726W        W18267  19.896  37.403   1.411
51727W        W18268  15.239   1.569  11.476
51728W        W18269   6.850  28.577   0.261
51729W        W18270  40.844  42.989   1.801
51730W        W18271  44.304   7.889   4.354
51731W        W18272  15.214  15.739   1.657
51732W        W18273  31.580   5.880  13.334
51733W        W18274  41.876  32.854  12.528
51734W        W18275  30.466  31.048   0.777
51735W        W18276  21.110   7.738   4.062
51736W        W18277  12.521  25.478   1.775
51737W        W18278  37.310   3.872   0.281
51738W        W18279  20.005   3.709  12.279
51739W        W18280   3.413   0.774   9.833
51740W        W18281  37.062   8.936  14.964
51741W        W18282  12.767  17.498   4.608
51742W        W18283  43.776  32.401  14.852
51743W        W18284  44.027   5.779   4.154
51744W        W18285   5.525  29.335   1.792
51745W        W18286   3.157  24.159   4.050
51746W        W18287   4.243  38.993  13.116
51747W        W18288  39.450  39.439  12.974
51748W        W18289   7.818  13.588  11.493
51749W        W18290  42.444  16.436  12.634
51750W        W18291  33.875   5.863   2.594
51751W        W18292   7.813  20.175   4.321
51752W        W18293  28.680   3.034  11.131
51753W        W18294  11.047  13.857   0.808
51754W        W18295  25.731  10.966   4.565
51755W        W18296  27.692  28.129  11.587
51756W        W18297  26.194  41.645  12.561
51757W        W18298   0.489  44.774  14.276
51758W        W18299  20.786  34.824  11.626
51759W        W18300  11.259  10.102   1.245
51760W        W18301   9.883   2.725  11.150
51761W        W18302   9.611  37.429   3.600
51762W        W18303  43.738   7.705   3.442
51763W        W18304  16.763   7.696  14.530
51764W        W18305  13.588   9.042  14.333
51765W        W18306  24.271  41.968   1.656
51766W        W18307  29.642   5.837  12.825
51767W        W18308  37.783   7.172   3.713
51768W        W18309   5.975  24.969  11.553
51769W        W18310   9.713  13.222  11.654
51770W        W18311   9.043   2.377   1.202
51771W        W18312  30.917   2.488  13.859
51772W        W18313  15.107  31.707   2.295
51773W        W18314  40.655  13.766   1.396
51774W        W18315   8.728  36.040  12.364
51775W        W18316   9.172  18.177   3.218
51776W        W18317  18.062  36.263   4.164
51777W        W18318  26.091  15.507   0.316
51778W        W18319  16.557  10.428   2.127
51779W        W18320   0.960  13.230   2.167
51780W        W18321  25.444   1.842  10.693
51781W        W18322  41.388  12.690   3.173
51782W        W18323  24.325   3.513   2.147
51783W        W18324  36.205  26.543   4.753
51784W        W18325  23.092  11.645   1.038
51785W        W18326  34.519  18.802  12.053
51786W        W18327  19.068  37.511  14.880
51787W        W18328  11.806  31.009  13.883
51788W        W18329   3.315  38.697  12.393
51789W        W18330   2.436  18.219   0.252
51790W        W18331  17.366  18.167   5.067
51791W        W18332  14.208  25.041   4.822
51792W        W18333   8.200  30.048   3.201
51793W        W18334  31.812   2.276  11.089
51794W        W18335  27.195  35.944   1.574
51795W        W18336   2.264   1.975  12.571
51796W        W18337  42.217  39.767   3.257
51797W        W18338  28.695  18.594   2.673
51798W        W18339   6.326  22.726   0.852
51799W        W18340  15.406  36.093  13.005
51800W        W18341  38.070  20.345   4.220
51801W        W18342  43.953   3.008  13.949
51802W        W18343  31.855  24.274   1.770
51803W        W18344  22.229  32.109  14.792
51804W        W18345  18.698  18.282   1.721
51805W        W18346  44.163  25.678   4.851
51806W        W18347   8.425  42.115  14.420
51807W        W18348  12.157  26.959   4.124
51808W        W18349  24.668  17.242   0.337
51809W        W18350  32.454  32.273  11.933
51810W        W18351  33.054  32.115   2.349
51811W        W18352  32.458   9.453  14.859
51812W        W18353   7.358  20.623   2.599
51813W        W18354  42.591  38.789  14.803
51814W        W18355  22.754  11.021   4.354
51815W        W18356  19.915  32.525  13.826
51816W        W18357  12.860   2.283  11.484
51817W        W18358   6.819  37.233   4.631
51818W        W18359  23.830  28.859   0.774
51819W        W18360  28.190   1.248   3.277
51820W        W18361   0.564  25.657  14.802
51821W        W18362   7.353  12.083   2.806
51822W        W18363  10.484  35.219  10.815
51823W        W18364  22.512  37.612  14.778
51824W        W18365  39.244  21.277   1.672
51825W        W18366  39.939  21.397  12.124
51826W        W18367   3.883  12.353  14.908
51827W        W18368   0.705   5.327  13.415
51828W        W18369   5.802   9.690   2.336
51829W        W18370   0.974  36.447   2.341
51830W        W18371  13.807  44.888   3.491
51831W        W18372  29.679  14.371   0.036
51832W        W18373   7.250   1.770   5.391
51833W        W18374  21.797  39.867  11.859
51834W        W18375   0.318  10.218   0.449
51835W        W18376  20.767  32.120   3.062
51836W        W18377  34.454  11.860  13.578
51837W        W18378  36.174   7.182  12.028
51838W        W18379  13.925  20.712   0.969
51839W        W18380  28.445  13.125  14.013
51840W        W18381  32.475  40.042   3.242
51841W        W18382  28.679  16.404  10.600
51842W        W18383  33.620   4.494  10.425
51843W        W18384  28.443  26.695   4.219
51844W        W18385   4.467  17.178   2.694
51845W        W18386   2.295  40.730  13.015
51846W        W18387  13.527  20.895  14.241
51847W        W18388  17.795  29.876   1.805
51848W        W18389  20.566  20.590  14.313
51849W        W18390  19.341   9.163   2.605
51850W        W18391  26.499   4.820  10.722
51851W        W18392  14.170  27.626   0.741
51852W        W18393  26.624  39.978  14.962
51853W        W18394  17.210  32.440   2.259
51854W        W18395  19.769  11.039  14.737
51855W        W18396  36.812  22.759   3.302
51856W        W18397  41.342  31.434   4.705
51857W        W18398   2.253  21.702   3.418
51858W        W18399  44.514  10.097   4.524
51859W        W18400  14.627  28.392  14.244
51860W        W18401  43.796  25.973  12.626
51861W        W18402  26.779  25.539  13.405
51862W        W18403  40.760  22.639  10.600
51863W        W18404   5.766  24.613  12.805
51864W        W18405  40.449   4.490  10.701
51865W        W18406  19.339  36.115   0.347
51866W        W18407   8.246  23.015  10.922
51867W        W18408   4.968  23.039  10.701
51868W        W18409  15.135   0.879  10.964
51869W        W18410  22.527   0.631   2.774
51870W        W18411  17.167   9.420  13.492
51871W        W18412  17.139   7.108  10.272
51872W        W18413  34.641  28.082  11.862
51873W        W18414   4.407  19.599  13.882
51874W        W18415  37.833   6.679  14.331
51875W        W18416  44.764  24.574   2.434
51876W        W18417  26.123  10.658   3.883
51877W        W18418  25.063   0.380   0.738
51878W        W18419  38.895  37.459   1.861
51879W        W18420  36.344  43.435   3.206
51880W        W18421   3.148   1.893   1.032
51881W        W18422   8.931  24.654   3.879
51882W        W18423  19.477  18.149  10.222
51883W        W18424   2.284  24.575  11.099
51884W        W18425  10.192  33.113   2.099
51885W        W18426  14.938   2.069  13.722
51886W        W18427  35.429  38.413   3.738
51887W        W18428  27.773  22.815  11.485
51888W        W18429  13.091  23.823   1.306
51889W        W18430  41.060  43.537   0.962
51890W        W18431  42.786  38.256   0.290
51891W        W18432  25.989  27.129   2.625
51892W        W18433  32.942   9.769  11.349
51893W        W18434  11.314  14.535   2.221
51894W        W18435   2.662   5.552  12.031
51895W        W18436   2.752  31.917   1.858
51896W        W18437  25.247  26.170  12.019
51897W        W18438   7.962  41.343   0.462
51898W        W18439  18.602  31.016   0.642
51899W        W18440   8.713   6.943  12.549
51900W        W18441  13.363  39.952  14.910
51901W        W18442  32.082  20.787  14.464
51902W        W18443  10.832  10.275  13.409
51903W        W18444  10.075  30.664   1.227
51904W        W18445   7.332  37.054   0.062
51905W        W18446  27.775  44.041   3.262
51906W        W18447   6.118  43.620   2.862
51907W        W18448  19.325  37.001   4.133
51908W        W18449   1.891  16.815   2.588
51909W        W18450   4.872  23.117  13.014
51910W        W18451  30.234  21.219  14.342
51911W        W18452  18.271   0.721   1.244
51912W        W18453  12.334   5.833  13.054
51913W        W18454  38.051   5.866   4.041
51914W        W18455  16.110  44.774  11.090
51915W        W18456   4.632  37.875   1.236
51916W        W18457  40.521  13.862  12.025
51917W        W18458  34.602  19.041  14.738
51918W        W18459  10.773  43.982   2.135
51919W        W18460  17.188  14.049  13.756
51920W        W18461  20.672  12.190   0.870
51921W        W18462   9.847  38.853  13.907
51922W        W18463  32.495  10.284  10.719
51923W        W18464   4.808  41.049  10.211
51924W        W18465  30.905  20.359  14.503
51925W        W18466  34.403   7.908   4.133
51926W        W18467  37.176  27.368  14.389
51927W        W18468  17.522   7.485  14.946
51928W        W18469  36.317  31.910   2.209
51929W        W18470  18.085  24.661   3.406
51930W        W18471  12.896  18.006  14.994
51931W        W18472  18.694  11.845   3.095
51932W        W18473   5.016   1.911  13.526
51933W        W18474  44.919  44.474  11.501
51934W        W18475  40.026  21.207   0.993
51935W        W18476  40.932   3.939   0.521
51936W        W18477  18.495  18.540  12.158
51937W        W18478  34.256  42.285   2.192
51938W        W18479  34.937  44.892   3.215
51939W        W18480  37.498  20.757   0.019
51940W        W18481  12.085  34.944   2.679
51941W        W18482   6.653  41.785   3.748
51942W        W18483   0.700  24.732   3.661
51943W        W18484  27.934  29.614  14.723
51944W        W18485  21.118  30.900   4.630
51945W        W18486  40.328  44.964   1.203
51946W        W18487  19.831  25.927   0.484
51947W        W18488  25.541  40.345  12.685
51948W        W18489  22.447  32.614  10.268
51949W        W18490  44.516  38.832  11.647
51950W        W18491   9.449  40.029   2.672
51951W        W18492  26.174  10.370  10.659
51952W        W18493  35.870  10.449  10.633
51953W        W18494  28.623  14.064  12.009
51954W        W18495   0.476  22.470  14.367
51955W        W18496   8.405  40.623  13.454
51956W        W18497  28.618  16.559  13.093
51957W        W18498  41.968  20.329  13.402
51958W        W18499  42.828  26.723   1.063
51959W        W18500  33.682  16.200   2.183
51960W        W18501  41.071  27.919  11.945
51961W        W18502   4.342   3.345   1.510
51962W        W18503  37.666  35.936  10.714
51963W        W18504  38.071  39.274   2.355
51964W        W18505  14.167  28.927  14.780
51965W        W18506  20.134  31.382   0.868
51966W        W18507  37.331  16.118  10.654
51967W        W18508  43.576  10.194  14.201
51968W        W18509  28.477  37.116   4.989
51969W        W18510  34.687   8.464  14.999
51970W        W18511  19.062  41.206  13.472
51971W        W18512  12.939  20.110   3.759
51972W        W18513  18.962  39.858  12.023
51973W        W18514  34.994  20.940   2.737
51974W        W18515  36.630  10.933  11.993
51975W        W18516   8.613  34.403   9.831
51976W        W18517  20.643   0.265  12.803
51977W        W18518  10.375  18.093  12.408
51978W        W18519  43.182  26.081   0.748
51979W        W18520  20.707  20.133   4.124
51980W        W18521  17.046  24.212  14.271
51981W        W18522  39.505   1.321  11.504
51982W        W18523  40.264  16.270  10.160
51983W        W18524  11.229  42.911  13.595
51984W        W18525  16.547   1.207   1.813
51985W        W18526  22.482   6.283  14.428
51986W        W18527   7.212   0.794  14.740
51987W        W18528  33.583  15.793   3.885
51988W        W18529  39.778  30.442  12.374
51989W        W18530  32.131   9.756  11.829
51990W        W18531  23.907  21.719   4.274
51991W        W18532  36.558  17.909   3.170
51992W        W18533  21.932   3.343  12.223
51993W        W18534   1.034  41.567  14.869
51994W        W18535  14.352  29.396  12.876
51995W        W18536  39.650  42.990   2.405
51996W        W18537  30.517  33.518  10.429
51997W        W18538  37.287   7.373   3.638
51998W        W18539   9.787   5.858   3.312
51999W        W18540  24.189  15.896  11.212
52000W        W18541  35.179  17.592  13.890
52001W        W18542  22.995  20.949   1.256
52002W        W18543   5.238  18.122  13.996
52003W        W18544  27.301  18.034  11.231
52004W        W18545  18.563   0.218   0.794
52005W        W18546  29.654  18.383  14.441
52006W        W18547  43.308  37.600   2.220
52007W        W18548  10.872  18.283   3.741
52008W        W18549  39.348  35.708  11.527
52009W        W18550  18.185  35.234   4.289
52010W        W18551  14.951  34.353   5.196
52011W        W18552  22.112  27.914   0.839
52012W        W18553  26.220  31.157   3.777
52013W        W18554  18.489  25.440   5.029
52014W        W18555   0.903  24.092   2.369
52015W        W18556  14.826  44.498   3.258
52016W        W18557  39.878  36.989  13.528
52017W        W18558   3.951   9.821   1.246
52018W        W18559  25.645  34.428  12.351
52019W        W18560  43.283  42.234   3.266
52020W        W18561  14.683  16.257   4.510
52021W        W18562  30.109   6.195   0.480
52022W        W18563  13.131  44.266  13.445
52023W        W18564  15.559  20.822  13.344
52024W        W18565   7.920   7.029   2.313
52025W        W18566  31.489   2.258  10.579
52026W        W18567  31.458  35.733  12.031
52027W        W18568   9.582  34.002   1.793
52028W        W18569  23.638   0.964  12.054
52029W        W18570  23.208  29.568  12.919
52030W        W18571  40.326  16.752   3.565
52031W        W18572  10.442  25.089   4.946
52032W        W18573  11.859  16.648   4.716
52033W        W18574  30.641   6.806  13.493
52034W        W18575   5.067   9.869  13.002
52035W        W18576   3.241  26.243   1.096
52036W        W18577   3.919   5.169   2.878
52037W        W18578  17.303  17.911   0.569
52038W        W18579   9.627  13.393   2.820
52039W        W18580   0.790  32.131   0.860
52040W        W18581  33.450  29.478   4.138
52041W        W18582  39.065  18.998   4.931
52042W        W18583  33.926  33.955  11.723
52043W        W18584  28.150  38.048   1.003
52044W        W18585  25.928  16.762  10.510
52045W        W18586   1.475  14.036  13.908
52046W        W18587   9.643  40.389  14.528
52047W        W18588  22.675  28.071   3.840
52048W        W18589  25.472  17.577  13.026
52049W        W18590  41.363  23.049   1.899
52050W        W18591  32.150  16.393  12.011
52051W        W18592   1.262  25.230   0.281
52052W        W18593   8.770  15.030   0.777
52053W        W18594   8.573  16.021  11.149
52054W        W18595  34.568  41.438  11.786
52055W        W18596  12.620  32.656  13.247
52056W        W18597  41.913   9.346   2.203
52057W        W18598   5.006  19.318   2.680
52058W        W18599  26.640  25.995  10.732
52059W        W18600  39.862  10.159   0.355
52060W        W18601  32.031  29.037   2.476
52061W        W18602  35.258  33.407   2.154
52062W        W18603  38.892   7.356   2.662
52063W        W18604  34.002  29.348  14.804
52064W        W18605  29.602  28.930  12.003
52065W        W18606  44.780  12.527  12.301
52066W        W18607  43.314  10.769   2.823
52067W        W18608  26.714  33.691  14.958
52068W        W18609   6.008  35.878  14.615
52069W        W18610  15.275  44.885  10.832
52070W        W18611   3.890  37.861   3.726
52071W        W18612  40.512  18.206   2.842
52072W        W18613  39.362  10.811   1.207
52073W        W18614  43.081   8.741  14.386
52074W        W18615   5.961  18.605  11.567
52075W        W18616  34.989  23.408  11.711
52076W        W18617  44.257   6.935  10.831
52077W        W18618   7.770   7.775  14.869
52078W        W18619  39.974  33.753  10.981
52079W        W18620  38.533  34.157   3.238
52080W        W18621  15.142  20.373  10.731
52081W        W18622  34.061  38.562  10.681
52082W        W18623  27.475  26.518   4.325
52083W        W18624  10.372  13.302  14.811
52084W        W18625  23.693  39.337   3.353
52085W        W18626  31.241  36.916  14.088
52086W        W18627   4.393   7.027   3.735
52087W        W18628  41.074  25.061  12.709
52088W        W18629  23.572  36.214  11.112
52089W        W18630  36.559   9.110  14.907
52090W        W18631   2.492  35.091   4.123
52091W        W18632   7.256  22.723   0.218
52092W        W18633  27.858  31.361  14.892
52093W        W18634  27.325  11.396   4.132
52094W        W18635  20.542  21.753  11.400
52095W        W18636  28.313   0.349  14.350
52096W        W18637  32.487  33.596  14.352
52097W        W18638   6.628  20.134  10.980
52098W        W18639   3.439  27.288  11.631
52099W        W18640  11.296  33.114  11.226
52100W        W18641  38.001  15.686   0.569
52101W        W18642  27.554   9.157  14.875
52102W        W18643  37.454  20.501  11.181
52103W        W18644  21.621  41.349  12.473
52104W        W18645  26.280   4.554  14.344
52105W        W18646  18.856  26.820  13.972
52106W        W18647  13.649  40.130   2.381
52107W        W18648   8.646  22.572   2.756
52108W        W18649  40.476  34.012   3.190
52109W        W18650  44.816  13.282   4.653
52110W        W18651  21.249   5.140   1.726
52111W        W18652  30.638   7.634  12.926
52112W        W18653  34.848  22.008  12.409
52113W        W18654  21.114  34.955  11.198
52114W        W18655  17.845   9.680  14.519
52115W        W18656  41.369  29.528   2.904
52116W        W18657  40.089  37.533   0.443
52117W        W18658  35.938  18.101   0.439
52118W        W18659  43.811  27.790  13.989
52119W        W18660  11.276  18.021   0.755
52120W        W18661  11.299  22.521   4.584
52121W        W18662  32.054   8.816   1.919
52122W        W18663   3.365  15.775   2.823
52123W        W18664  42.891  41.320   4.693
52124W        W18665   3.878   0.888  13.152
52125W        W18666   3.356   0.830   2.843
52126W        W18667  18.189  22.973  11.654
52127W        W18668  43.816  42.564   0.304
52128W        W18669  42.763  34.272  13.999
52129W        W18670  12.892  25.889  12.999
52130W        W18671   1.898  22.968  11.638
52131W        W18672  23.779  24.694   4.117
52132W        W18673  42.769  43.286  12.478
52133W        W18674  29.931   6.972   1.388
52134W        W18675   0.384   6.349   2.301
52135W        W18676  42.895  23.727  14.955
52136W        W18677  13.762  24.054  10.694
52137W        W18678  31.658  40.212   2.146
52138W        W18679   1.195   6.896   2.701
52139W        W18680  41.828  34.940   1.579
52140W        W18681   0.946   1.141  12.579
52141W        W18682  27.321   3.280   4.990
52142W        W18683   0.703  18.259   0.222
52143W        W18684  31.009  36.008  12.068
52144W        W18685  44.321  10.832  11.585
52145W        W18686  18.334  22.853   3.509
52146W        W18687  24.113  36.110  13.096
52147W        W18688  22.514  25.635   0.921
52148W        W18689   3.826  40.281  14.917
52149W        W18690  17.831  40.379   1.671
52150W        W18691   3.307  17.884  10.276
52151W        W18692  15.863   3.344  11.465
52152W        W18693  17.083  22.355  13.956
52153W        W18694  24.961  34.074   4.336
52154W        W18695  30.083  39.213   4.138
52155W        W18696   8.886  31.647  13.022
52156W        W18697  30.483   2.807  14.910
52157W        W18698  40.266  27.143   1.976
52158W        W18699  20.305   9.568  14.505
52159W        W18700  17.723  42.427  13.897
52160W        W18701   7.448  44.590   2.276
52161W        W18702   5.477  44.896  11.342
52162W        W18703  35.824   7.347   1.695
52163W        W18704  42.882  41.122   2.621
52164W        W18705  24.402  10.682   3.906
52165W        W18706  16.821  20.499   0.160
52166W        W18707   4.568   6.315   0.074
52167W        W18708   0.840  19.559   4.475
52168W        W18709  16.633  24.065   2.704
52169W        W18710  18.306  20.395  14.270
52170W        W18711  44.962   7.221  13.489
52171W        W18712   9.357   5.232   3.500
52172W        W18713   1.226  19.321   3.222
52173W        W18714  36.471  28.619   2.384
52174W        W18715   1.314   0.806   2.824
52175W        W18716   7.371  23.513  10.697
52176W        W18717  23.194  21.264  10.715
52177W        W18718  29.231  20.587   2.840
52178W        W18719   7.714   7.344   5.343
52179W        W18720   2.500  32.353   1.688
52180W        W18721  38.519  42.063  11.421
52181W        W18722  28.259   7.650   2.737
52182W        W18723  30.992  33.305   0.774
52183W        W18724  37.149   9.840   3.361
52184W        W18725   3.300   4.780   2.898
52185W        W18726  26.440  38.980  12.751
52186W        W18727  18.168   4.506   3.725
52187W        W18728  19.012  24.084  12.465
52188W        W18729  39.355   1.348   0.998
52189W        W18730   2.433  16.302  11.358
52190W        W18731  36.987  22.710  14.757
52191W        W18732  44.493  40.852   0.303
52192W        W18733  33.586  12.574   3.784
52193W        W18734  15.076  28.946  14.644
52194W        W18735  38.427  35.613   3.178
52195W        W18736  29.691  38.871   4.117
52196W        W18737  18.207  12.785   4.572
52197W        W18738  35.637   3.426   1.644
52198W        W18739   0.875  30.173  12.041
52199W        W18740  36.994  21.689   3.274
52200W        W18741  34.957   2.523   3.088
52201W        W18742  37.262  14.339  11.972
52202W        W18743  44.853   6.754  11.571
52203W        W18744  38.456  28.068   1.375
52204W        W18745  30.976  24.317  10.969
52205W        W18746   7.910  18.653  12.869
52206W        W18747   1.509  39.395   4.625
52207W        W18748  38.599  31.694  10.888
52208W        W18749  43.128   9.824   1.421
52209W        W18750  41.066  14.150   1.705
52210W        W18751  35.733  12.128  13.907
52211W        W18752  15.580  32.179   3.224
52212W        W18753  34.550  21.167  12.194
52213W        W18754  16.511  25.589   0.514
52214W        W18755  36.469   4.827  14.708
52215W        W18756  31.541  21.167  11.746
52216W        W18757   6.988   6.319   2.996
52217W        W18758   1.839  40.718  11.092
52218W        W18759  17.880  40.529  14.078
52219W        W18760  13.181  34.160   2.269
52220W        W18761  24.959  38.244  13.870
52221W        W18762  16.065   8.299  13.291
52222W        W18763  15.339  18.311  13.931
52223W        W18764   1.763  31.513   2.696
52224W        W18765   2.455  28.256  13.059
52225W        W18766  36.002  28.231   4.965
52226W        W18767  41.546  23.033  10.660
52227W        W18768   4.625  33.919   3.965
52228W        W18769  30.516  17.692   4.878
52229W        W18770  39.557  15.127  14.703
52230W        W18771  20.132  29.650  13.817
52231W        W18772   0.469  19.953   0.860
52232W        W18773  12.652  22.105  10.703
52233W        W18774  19.469  11.833   2.815
52234W        W18775  18.984  23.451  14.387
52235W        W18776  11.798   8.384  11.149
52236W        W18777  43.712  28.152   3.379
52237W        W18778  23.963   8.873  12.177
52238W        W18779  30.870   1.374   1.869
52239W        W18780  28.716   6.709  12.572
52240W        W18781   9.869  13.336  14.997
52241W        W18782  18.679  18.174   1.218
52242W        W18783  13.594  41.045   2.639
52243W        W18784  36.653   5.267  14.481
52244W        W18785  19.858  20.200   3.669
52245W        W18786  35.148  36.044   0.543
52246W        W18787  10.292  37.040  10.084
52247W        W18788  19.298  33.976   3.307
52248W        W18789  38.034   3.614  10.363
52249W        W18790  23.746  34.552  13.358
52250W        W18791  44.432  32.271  13.648
52251W        W18792  22.280  10.334  10.442
52252W        W18793  34.368  25.966   1.112
52253W        W18794   3.325  42.676   1.950
52254W        W18795  43.740   3.983   3.312
52255W        W18796   8.559  10.876   1.779
52256W        W18797  15.709  22.072  11.637
52257W        W18798  12.571   8.390  14.116
52258W        W18799  39.727  12.221  13.092
52259W        W18800   2.684  43.305  12.754
52260W        W18801  26.497  37.249  11.591
52261W        W18802  36.506  40.529   0.276
52262W        W18803  18.330  25.762   0.827
52263W        W18804  31.780  30.128  11.646
52264W        W18805   2.483  29.361  11.154
52265W        W18806  44.771  23.662  10.966
52266W        W18807  19.190   9.133   0.372
52267W        W18808  29.782   2.872  12.987
52268W        W18809  28.071  19.248   3.134
52269W        W18810   9.669  23.099  12.497
52270W        W18811  11.241  22.054  11.632
52271W        W18812  20.062  41.930   0.818
52272W        W18813  40.835  36.106  14.346
52273W        W18814   8.205  15.096  11.153
52274W        W18815  26.437  27.219   1.148
52275W        W18816  19.209   8.072   4.586
52276W        W18817  24.028  31.780   0.719
52277W        W18818  21.794  42.414  11.608
52278W        W18819   8.122  38.823   2.029
52279W        W18820  41.295   8.305   1.745
52280W        W18821  19.657   8.792   1.024
52281W        W18822  35.815  24.027  12.028
52282W        W18823  38.046  22.577   3.869
52283W        W18824  38.850  22.191   1.481
52284W        W18825  37.874  36.857   1.730
52285W        W18826  30.702   4.919  13.491
52286W        W18827  13.097  41.673   2.272
52287W        W18828   9.902   7.432   3.585
52288W        W18829  32.748  31.448  10.964
52289W        W18830  19.767  16.591   3.402
52290W        W18831  33.652  29.665   2.150
52291W        W18832  30.449  39.422   3.866
52292W        W18833  17.025   7.703  14.986
52293W        W18834   3.911  25.476   2.858
52294W        W18835  34.380  39.095   4.895
52295W        W18836  35.569  22.164   3.244
52296W        W18837  30.677  19.720  14.412
52297W        W18838  15.706  43.489   1.405
52298W        W18839   9.091   0.489   3.839
52299W        W18840   8.751  14.549   1.086
52300W        W18841  42.379   3.200   3.252
52301W        W18842   0.055  20.162   1.692
52302W        W18843  14.811  15.849   3.716
52303W        W18844  43.775  13.646   4.200
52304W        W18845  18.369  41.250  14.025
52305W        W18846  18.469  39.313   4.646
52306W        W18847  34.973  23.866  13.007
52307W        W18848  16.092  34.314  13.952
52308W        W18849  22.004  36.351   2.827
52309W        W18850  35.931  21.013   0.240
52310W        W18851   7.753  15.076  10.902
52311W        W18852  37.645  30.870  13.044
52312W        W18853  35.983  20.676   3.072
52313W        W18854  37.050  14.247   5.344
52314W        W18855  28.377  37.599  11.079
52315W        W18856  14.011  17.132   0.716
52316W        W18857  28.368   2.092  14.689
52317W        W18858  29.845  40.311  11.888
52318W        W18859   4.108  15.693   3.258
52319W        W18860  27.638  25.891   0.966
52320W        W18861  14.872  13.270   1.718
52321W        W18862   2.360   2.238   1.346
52322W        W18863  15.094   6.387   5.104
52323W        W18864  10.737  11.901   1.287
52324W        W18865  39.288  25.523   1.252
52325W        W18866  15.874  34.144  13.503
52326W        W18867  37.360  13.197  13.874
52327W        W18868  14.218   7.153   3.625
52328W        W18869  33.170  36.574  12.867
52329W        W18870  13.522   4.187  12.052
52330W        W18871  40.381  13.738  12.585
52331W        W18872   6.369  37.411  13.062
52332W        W18873  41.873  19.505   3.235
52333W        W18874  25.849  30.066   4.404
52334W        W18875   4.369   7.101   0.347
52335W        W18876  16.163  28.531   1.020
52336W        W18877   7.013  41.988  11.280
52337W        W18878  25.132  21.532   1.808
52338W        W18879   0.438  29.764  14.527
52339W        W18880  12.748   4.340   0.904
52340W        W18881   8.735  37.355   5.095
52341W        W18882   4.662  22.205  13.477
52342W        W18883  10.884  18.327  14.272
52343W        W18884  28.845  11.687   4.504
52344W        W18885  14.489  11.059  13.946
52345W        W18886  20.120  37.976   2.299
52346W        W18887  23.301  18.120  14.160
52347W        W18888  13.281  22.775   4.379
52348W        W18889  30.475  44.990  11.475
52349W        W18890  15.311  38.561   1.304
52350W        W18891  42.905  26.573   3.878
52351W        W18892  35.086  38.077  11.959
52352W        W18893  36.332  10.190   3.635
52353W        W18894   7.667   1.692  10.042
52354W        W18895   8.898  34.527  10.904
52355W        W18896   4.058  30.816   5.037
52356W        W18897   1.379  23.221  13.284
52357W        W18898   0.721  13.618  10.824
52358W        W18899  18.215   6.451  13.111
52359W        W18900  26.124  23.708   0.914
52360W        W18901  29.423  13.126   1.435
52361W        W18902   7.249   6.913   2.897
52362W        W18903  33.905  23.109   4.632
52363W        W18904  28.631  14.337   3.129
52364W        W18905  40.460  22.207   2.257
52365W        W18906  29.531  43.476   3.140
52366W        W18907   1.509  35.310   3.301
52367W        W18908  26.831  41.285  11.872
52368W        W18909  16.302  23.437  12.735
52369W        W18910  35.578   4.177  13.925
52370W        W18911  30.731  25.661  12.400
52371W        W18912  34.614   1.884  13.048
52372W        W18913  20.939  28.524   4.560
52373W        W18914  21.547  40.841  14.451
52374W        W18915  12.810   2.359   3.729
52375W        W18916  41.284  15.218   1.170
52376W        W18917   6.351  42.792  12.561
52377W        W18918  39.410  27.002  14.849
52378W        W18919  14.653  10.050  14.797
52379W        W18920  12.556  21.998  14.914
52380W        W18921   9.155  32.271   1.947
52381W        W18922  39.594  10.584  10.889
52382W        W18923   1.487  28.253  10.191
52383W        W18924  15.956  34.293   1.850
52384W        W18925  12.799   4.023   1.841
52385W        W18926  16.839  29.383  11.979
52386W        W18927  19.607  24.484   0.902
52387W        W18928  10.215  11.065  11.457
52388W        W18929  41.135  31.793   5.028
52389W        W18930  17.605  37.051   1.336
52390W        W18931  28.734  41.642  14.906
52391W        W18932  41.136  23.233   2.955
52392W        W18933  24.588  20.734   2.183
52393W        W18934  39.769  22.726   4.824
52394W        W18935   6.516   7.985   4.905
52395W        W18936  11.985  44.443   3.070
52396W        W18937   1.981  38.291  14.880
52397W        W18938  44.017   5.869  13.303
52398W        W18939   4.441  27.132  10.125
52399W        W18940  20.575  42.848  14.558
52400W        W18941  25.940  26.642  13.370
52401W        W18942  38.850   8.251   3.147
52402W        W18943   4.733  18.363  10.324
52403W        W18944  43.795  14.491  10.520
52404W        W18945  38.954  16.980   2.889
52405W        W18946   2.463  39.227   4.714
52406W        W18947  26.433  33.425   3.993
52407W        W18948  24.214   6.939   1.793
52408W        W18949  39.283  38.031  10.804
52409W        W18950  34.581  33.270   1.580
52410W        W18951  31.116   0.697  14.369
52411W        W18952   2.250   7.610  11.716
52412W        W18953  11.773  14.172  10.666
52413W        W18954  26.560  31.593  11.466
52414W        W18955  40.943   4.264   1.275
52415W        W18956   8.378  17.285  13.546
52416W        W18957  32.928  21.832   1.477
52417W        W18958  27.993  33.610  11.100
52418W        W18959   1.496  29.633   2.395
52419W        W18960  30.051  12.240   2.230
52420W        W18961  34.539   1.643   1.266
52421W        W18962   7.641  39.746  14.473
52422W        W18963  23.587  43.979  11.518
52423W        W18964  37.237  19.032   3.635
52424W        W18965  10.825  38.345  11.975
52425W        W18966   2.701  10.767  12.899
52426W        W18967  20.029  44.730   0.828
52427W        W18968  27.387  24.062  13.891
52428W        W18969  17.892   1.829   4.516
52429W        W18970  35.236  16.561  13.330
52430W        W18971  17.551   8.814   4.456
52431W        W18972  29.232  41.697   1.667
52432W        W18973  37.109  29.513  13.406
52433W        W18974   0.289  18.565  12.092
52434W        W18975  22.983   4.411  12.523
52435W        W18976  38.939  35.285   0.958
52436W        W18977  21.702  43.492   1.231
52437W        W18978  18.596  23.197   0.302
52438W        W18979  24.574  36.043   0.390
52439W        W18980  21.716  40.990   1.781
52440W        W18981  18.508  21.302   0.334
52441W        W18982   0.891   1.355   0.908
52442W        W18983  28.116  16.167   3.048
52443W        W18984   6.927  28.006   4.520
52444W        W18985  35.964  41.449  13.011
52445W        W18986  34.107  38.399   2.234
52446W        W18987  18.566   4.657  14.704
52447W        W18988  15.618  36.132   4.408
52448W        W18989  28.081   7.943   3.538
52449W        W18990  22.276  13.907   2.435
52450W        W18991  28.238  33.403  14.105
52451W        W18992  19.121  26.606  10.917
52452W        W18993   1.100  11.890  13.395
52453W        W18994  30.597  40.922  14.086
52454W        W18995  14.709   8.594   0.030
52455W        W18996  38.834  39.516   4.586
52456W        W18997   2.801   6.672   4.191
52457W        W18998   7.918   7.349   1.893
52458W        W18999   2.318  10.656  14.813
52459W        W19000  17.274  27.629   2.731
52460W        W19001  20.685  17.648  10.630
52461W        W19002   9.037  25.258  11.135
52462W        W19003  25.373  22.522   4.594
52463W        W19004  20.647  29.508   2.325
52464W        W19005   1.782  29.305   5.031
52465W        W19006  23.540  37.124   1.778
52466W        W19007  33.900  36.465  13.954
52467W        W19008  18.647   6.277   2.233
52468W        W19009  12.688  41.089  12.434
52469W        W19010  11.816   3.195  11.639
52470W        W19011  44.734  20.603  13.434
52471W        W19012  26.375  32.148  14.002
52472W        W19013   8.672   4.343   0.290
52473W        W19014  34.925  19.259  12.457
52474W        W19015  35.415  11.192  11.123
52475W        W19016  31.072  26.641   4.551
52476W        W19017  28.774  25.595  13.495
52477W        W19018  13.320  38.496  13.292
52478W        W19019  14.281   2.938   0.329
52479W        W19020  24.083  30.288   3.229
52480W        W19021  21.963  11.209  13.819
52481W        W19022  29.919  23.415   1.245
52482W        W19023  11.597  15.600  13.902
52483W        W19024  34.079  10.437   4.181
52484W        W19025  27.268  24.704   3.773
52485W        W19026  38.845  36.364   3.114
52486W        W19027   4.745   8.994   0.585
52487W        W19028  15.179   8.831   0.086
52488W        W19029   8.404  38.880  11.557
52489W        W19030  43.231  29.699   5.024
52490W        W19031  12.153  17.550  14.416
52491W        W19032   3.951  37.353  13.351
52492W        W19033  21.585  15.557   1.377
52493W        W19034  41.533  18.886  13.887
52494W        W19035  41.616  38.922   4.907
52495W        W19036  24.112  13.126   0.478
52496W        W19037  37.787  39.060  12.063
52497W        W19038  42.452  23.805  12.153
52498W        W19039   2.232  38.436  11.624
52499W        W19040  20.410  40.830   3.462
52500W        W19041  43.811  44.184   1.488
52501W        W19042  36.462  33.382   4.481
52502W        W19043  11.082  24.536   2.232
52503W        W19044  18.794  35.264   1.606
52504W        W19045   7.381  22.711  11.886
52505W        W19046  43.551  35.197  11.250
52506W        W19047  17.620  39.826   0.730
52507W        W19048  32.988  33.061  14.013
52508W        W19049  37.320  42.749  14.602
52509W        W19050   4.111  41.023   2.169
52510W        W19051  31.210   5.388  12.055
52511W        W19052  36.083   7.423  12.991
52512W        W19053   6.781  33.074   3.790
52513W        W19054   2.022  17.215   1.683
52514W        W19055  25.256   5.433   2.755
52515W        W19056  33.638  27.894  11.184
52516W        W19057  22.067   4.026   4.069
52517W        W19058   8.251  21.469  14.902
52518W        W19059   3.942  12.077  12.341
52519W        W19060  22.889  20.967  12.096
52520W        W19061  25.714  44.230   4.485
52521W        W19062  14.245  14.373   1.815
52522W        W19063  44.796   3.084   4.958
52523W        W19064   1.796  27.151  11.007
52524W        W19065  11.054  15.487  14.605
52525W        W19066  30.598  19.073   1.894
52526W        W19067  31.112  28.649  11.505
52527W        W19068  39.503  17.312   1.861
52528W        W19069  22.554  35.026  13.922
52529W        W19070  23.271  24.288   2.150
52530W        W19071  21.601  34.909   0.012
52531W        W19072  43.035  14.625   1.222
52532W        W19073  22.909  31.740  12.810
52533W        W19074  24.025  40.272   3.539
52534W        W19075  12.261   6.991   1.151
52535W        W19076   7.248  18.967   0.916
52536W        W19077  28.809  15.650   1.545
52537W        W19078  35.079  39.307  10.922
52538W        W19079  43.482   2.752   2.783
52539W        W19080  23.632   5.913  11.221
52540W        W19081  37.149  26.208  12.788
52541W        W19082   0.167  33.851   0.831
52542W        W19083  39.985  40.572   2.355
52543W        W19084   6.803   1.064   3.459
52544W        W19085   9.634  40.104   4.294
52545W        W19086   8.046  16.566   2.629
52546W        W19087  39.117  10.837  10.270
52547W        W19088  44.170  11.432   4.229
52548W        W19089  33.580  38.982   5.054
52549W        W19090  23.565  16.589   4.513
52550W        W19091  36.604  22.913  13.963
52551W        W19092  23.468  16.574  14.907
52552W        W19093  21.678  38.018  11.968
52553W        W19094  24.415  22.205  11.008
52554W        W19095  29.997  16.173  12.085
52555W        W19096   6.362  22.545  13.367
52556W        W19097  32.421  38.575   2.715
52557W        W19098   2.221  33.110   3.202
52558W        W19099  26.144  22.936  11.167
52559W        W19100   5.886  20.068   4.395
52560W        W19101  25.593  12.702   3.265
52561W        W19102  38.746   8.898  10.439
52562W        W19103  19.345  37.552   3.277
52563W        W19104  25.979  21.625  11.075
52564W        W19105  12.412   6.732   2.781
52565W        W19106  16.588  35.601  13.321
52566W        W19107   3.337  24.045  13.894
52567W        W19108   0.935  36.042  11.007
52568W        W19109  12.278  19.202   2.279
52569W        W19110  17.024  12.220  13.868
52570W        W19111   7.631  38.437   3.109
52571W        W19112   6.354  25.019   0.354
52572W        W19113  39.499   9.872   3.463
52573W        W19114  19.180  44.360  14.098
52574W        W19115  42.396   0.732  13.444
52575W        W19116  35.153  43.866  14.887
52576W        W19117  35.425  12.260  11.528
52577W        W19118   2.557   9.395  12.991
52578W        W19119  24.507  13.936  11.190
52579W        W19120  15.623   7.899   2.802
52580W        W19121  10.275  43.039   0.462
52581W        W19122  34.887  30.897  13.419
52582W        W19123  31.375  11.388   4.188
52583W        W19124  29.642   8.551  13.431
52584W        W19125   5.645   2.817  12.715
52585W        W19126  10.893  37.522   3.628
52586W        W19127   2.365  39.932   3.272
52587W        W19128  34.556   3.107   4.101
52588W        W19129  13.106   8.214  12.423
52589W        W19130  14.124  27.099   2.896
52590W        W19131  29.668   8.769   4.118
52591W        W19132  23.574  24.212  14.144
52592W        W19133  40.561  10.332   4.498
52593W        W19134  35.034  11.248   2.838
52594W        W19135  14.196   6.923   0.024
52595W        W19136  23.992  43.821  11.117
52596W        W19137   9.890   6.240  12.835
52597W        W19138  26.640  15.075  14.248
52598W        W19139   9.232  35.345  12.056
52599W        W19140  44.008  18.547  13.024
52600W        W19141  42.283  11.408  14.311
52601W        W19142  32.206   4.951  14.806
52602W        W19143  16.832  44.338  14.432
52603W        W19144   1.720  41.876   3.256
52604W        W19145  44.227   6.803  14.756
52605W        W19146  34.039  38.819  13.088
52606W        W19147  20.218  40.821   2.647
52607W        W19148  14.567  30.981   0.809
52608W        W19149  22.505  23.545   4.281
52609W        W19150   9.183   9.915   3.332
52610W        W19151  20.221   6.175   5.056
52611W        W19152  15.752  44.615   2.516
52612W        W19153  31.800   4.866  12.707
52613W        W19154  27.885  11.056   2.870
52614W        W19155   6.271  17.018  13.008
52615W        W19156  28.202  21.665  13.041
52616W        W19157  33.655  29.883  12.029
52617W        W19158   4.392  32.103  14.369
52618W        W19159   9.614  43.545  11.054
52619W        W19160   2.770  39.338   0.938
52620W        W19161  21.195   1.663   2.085
52621W        W19162  32.993  43.599   3.494
52622W        W19163  23.154  22.170   2.522
52623W        W19164  38.178   4.352  12.080
52624W        W19165   1.229   3.747  11.880
52625W        W19166  23.214  34.350  13.429
52626W        W19167  12.424  18.300  13.327
52627W        W19168   8.445   5.188   2.865
52628W        W19169  19.516   4.773  10.692
52629W        W19170  43.528  33.666   1.010
52630W        W19171  42.182   9.895  14.293
52631W        W19172  15.019  18.430   4.251
52632W        W19173  30.445   2.715   2.840
52633W        W19174   8.157  20.074  11.058
52634W        W19175  17.086   6.363   4.274
52635W        W19176  13.898  42.924   2.282
52636W        W19177  28.504  14.230   0.547
52637W        W19178  31.909  39.918  13.580
52638W        W19179   8.991  43.488   0.954
52639W        W19180  15.622   6.223  14.744
52640W        W19181  33.437  35.528  12.991
52641W        W19182  21.349  24.220   4.981
52642W        W19183  18.693  21.232  10.863
52643W        W19184  28.538  41.280   0.215
52644W        W19185   9.561   0.418   2.912
52645W        W19186   7.866  30.687  12.890
52646W        W19187   0.619   5.381  11.124
52647W        W19188   2.787   3.167  12.125
52648W        W19189  32.643  16.021  11.143
52649W        W19190  14.867  14.308   3.949
52650W        W19191   6.756  16.783   0.309
52651W        W19192  22.559  42.782  12.130
52652W        W19193  27.225  35.898   3.116
52653W        W19194   0.999  28.704   4.797
52654W        W19195  24.681  24.189  12.647
52655W        W19196  44.762  44.018  10.792
52656W        W19197  22.468   2.736  10.322
52657W        W19198  25.869   4.252   4.748
52658W        W19199  15.369  37.271   3.708
52659W        W19200  24.316  35.638  13.206
52660W        W19201  42.025  37.777   2.242
52661W        W19202  29.209  40.918   1.414
52662W        W19203  19.055  14.130  10.742
52663W        W19204   9.047  14.231   2.629
52664W        W19205  29.135  19.968   4.602
52665W        W19206  10.281   2.319  12.069
52666W        W19207   8.958  33.523   4.952
52667W        W19208   9.278  19.570  11.454
52668W        W19209  29.640  23.915  12.419
52669W        W19210  15.743  27.971  13.973
52670W        W19211  24.106  30.916   0.925
52671W        W19212   2.240  18.734   2.450
52672W        W19213  30.021   3.336   4.563
52673W        W19214  14.651  22.483  13.975
52674W        W19215   0.863  42.376   4.643
52675W        W19216  11.803   3.445   0.664
52676W        W19217  11.515   3.454  10.708
52677W        W19218  28.226  13.758   3.289
52678W        W19219   6.947  32.106   3.755
52679W        W19220  10.866  30.922  11.621
52680W        W19221  30.577  23.564  12.045
52681W        W19222  40.909  19.686   1.073
52682W        W19223  22.688   1.367  10.939
52683W        W19224  21.399   6.669  10.582
52684W        W19225   9.242  26.188   1.680
52685W        W19226  36.519   8.260   3.583
52686W        W19227  13.194  13.718  11.454
52687W        W19228  37.371  22.032  13.429
52688W        W19229  21.985  21.888   2.074
52689W        W19230  19.052  24.317   2.705
52690W        W19231  10.240  18.593  13.764
52691W        W19232  34.484  29.747  13.948
52692W        W19233  41.045  23.243   3.924
52693W        W19234  23.337  25.620   1.368
52694W        W19235  22.464  43.644  12.586
52695W        W19236   7.759  40.542   3.116
52696W        W19237  10.562  14.160  11.466
52697W        W19238  29.523   9.922   3.833
52698W        W19239  32.473  26.259  14.366
52699W        W19240   6.848  26.626   4.554
52700W        W19241  32.567  37.093   1.283
52701W        W19242  11.737   0.536   5.018
52702W        W19243  39.506  34.624   4.436
52703W        W19244  14.671   5.656  13.867
52704W        W19245  14.788  12.755   1.014
52705W        W19246   1.527   6.191  13.302
52706W        W19247  15.872  21.430  14.068
52707W        W19248  30.052   2.476  13.875
52708W        W19249  37.356  38.222   0.417
52709W        W19250  43.370  41.683   3.338
52710W        W19251  38.888   6.263   0.905
52711W        W19252  18.241   6.914   4.370
52712W        W19253  38.399   0.988  11.132
52713W        W19254  29.071  29.424  11.612
52714W        W19255   1.252  28.697   2.976
52715W        W19256  40.992  30.766  11.361
52716W        W19257  43.045   9.262   4.115
52717W        W19258  23.162  24.740   2.404
52718W        W19259  14.120   4.167  10.803
52719W        W19260  18.830   8.099  12.916
52720W        W19261  42.620  13.299   4.265
52721W        W19262  42.914  37.349   3.771
52722W        W19263   9.399  15.846  11.125
52723W        W19264  42.029  13.448   0.013
52724W        W19265  28.437   0.714   3.342
52725W        W19266   2.255  31.923  12.458
52726W        W19267  23.762  21.594   3.222
52727W        W19268  21.213   3.783  11.867
52728W        W19269  16.606   7.915   2.566
52729W        W19270  13.873  36.418   1.461
52730W        W19271   3.901  11.598  13.954
52731W        W19272  10.608  36.558   4.574
52732W        W19273  21.570   4.336   1.856
52733W        W19274  19.276  27.667  12.499
52734W        W19275  39.710  10.711  13.913
52735W        W19276  41.448  20.293  11.845
52736W        W19277  15.766  12.655  10.440
52737W        W19278  33.540   0.740   1.625
52738W        W19279   7.356  15.759  14.258
52739W        W19280  44.268  41.918   3.047
52740W        W19281  30.937  25.249   0.181
52741W        W19282  25.284  12.808  12.550
52742W        W19283  16.962  29.137   0.464
52743W        W19284  42.315  41.857   0.885
52744W        W19285  17.206  15.348   1.166
52745W        W19286  39.967  41.786  12.590
52746W        W19287   2.818  35.337  13.339
52747W        W19288   8.992  27.204  14.559
52748W        W19289  10.956  43.777   4.122
52749W        W19290  18.983  23.120   3.325
52750W        W19291  23.725  11.831  11.696
52751W        W19292  38.098  24.261   0.873
52752W        W19293  17.842  12.139   1.215
52753W        W19294  10.943  16.131   1.782
52754W        W19295  15.327  15.007  13.937
52755W        W19296  26.753  32.007  12.333
52756W        W19297  22.788  19.212  10.639
52757W        W19298  19.186   1.487  14.965
52758W        W19299  23.791   6.528   2.990
52759W        W19300  31.675  16.660   1.700
52760W        W19301  12.890  43.800   4.639
52761W        W19302  17.731   9.451  13.387
52762W        W19303  32.442   8.950   1.441
52763W        W19304  31.678  25.786  13.941
52764W        W19305  22.658  21.640   3.610
52765W        W19306   6.683  26.663  11.891
52766W        W19307  19.770  41.088   2.693
52767W        W19308  16.759   4.804   0.748
52768W        W19309  33.110  34.887  14.140
52769W        W19310  42.511  35.340   0.319
52770W        W19311  16.298  42.041  12.660
52771W        W19312  30.860   1.166  14.397
52772W        W19313   4.944  32.589   0.700
52773W        W19314   2.282   0.410   2.780
52774W        W19315  21.243  42.028   0.868
52775W        W19316  16.681  38.728  10.923
52776W        W19317  15.979  17.009  14.692
52777W        W19318   2.910  11.838  11.075
52778W        W19319   1.295  43.747   1.654
52779W        W19320   3.470  11.932   2.774
52780W        W19321  43.797   5.771  11.226
52781W        W19322  28.524  15.598   1.094
52782W        W19323   0.020   7.668  11.642
52783W        W19324  15.120  23.729   2.170
52784W        W19325  12.841   1.697   1.389
52785W        W19326  15.861  44.771  11.553
52786W        W19327  18.530  44.401   9.857
52787W        W19328  10.932  44.007  13.910
52788W        W19329  17.336  24.679  14.330
52789W        W19330  21.583  25.606  12.634
52790W        W19331  33.964  23.741   1.838
52791W        W19332  40.283  12.652   4.055
52792W        W19333  37.186  28.346  12.525
52793W        W19334  15.235  32.010   2.714
52794W        W19335   3.699  11.257   4.461
52795W        W19336  27.390  17.299  12.036
52796W        W19337  32.143  20.021   0.195
52797W        W19338  36.121   3.916   2.245
52798W        W19339  35.002   7.056   2.234
52799W        W19340  19.026  21.490   3.615
52800W        W19341   1.815  17.780  11.822
52801W        W19342  35.571  37.758   1.859
52802W        W19343  38.967  20.043  12.951
52803W        W19344   4.715  17.257  12.899
52804W        W19345  19.978  35.863  12.573
52805W        W19346  24.570  40.494   2.672
52806W        W19347  14.075  32.181  12.758
52807W        W19348  28.983   5.031   2.803
52808W        W19349  41.284  40.471   1.296
52809W        W19350  25.214   4.882   0.959
52810W        W19351  18.532  34.756  11.159
52811W        W19352  34.224  35.041   4.229
52812W        W19353   9.407  20.551   0.054
52813W        W19354  13.918  14.155  12.941
52814W        W19355  18.835  29.435  12.956
52815W        W19356   5.199  39.059  14.448
52816W        W19357  40.035   5.760  11.213
52817W        W19358  40.033   5.977  12.673
52818W        W19359  19.090  36.027  11.106
52819W        W19360  10.970   8.102   4.640
52820W        W19361  35.397  32.901   0.330
52821W        W19362  12.793  30.843   0.011
52822W        W19363   2.423  42.871  13.296
52823W        W19364  31.190  43.400  11.206
52824W        W19365  15.315  28.697   3.195
52825W        W19366  33.036  22.889  11.908
52826W        W19367  30.758  21.527   4.091
52827W        W19368   7.421  37.780   2.240
52828W        W19369   6.341  15.608  12.009
52829W        W19370  22.682  39.650  13.815
52830W        W19371  11.019  31.500  13.835
52831W        W19372   0.169  25.972  13.842
52832W        W19373  18.708   2.818   0.940
52833W        W19374   0.511  23.545   3.483
52834W        W19375  41.006  30.137  11.973
52835W        W19376  34.470   7.024  13.898
52836W        W19377  19.291  12.457  12.992
52837W        W19378  20.771  41.512  11.860
52838W        W19379  14.794  21.069   4.630
52839W        W19380  12.652  20.542   4.550
52840W        W19381  13.765  35.253   0.273
52841W        W19382   0.693  16.765  11.183
52842W        W19383  42.048  21.555  13.979
52843W        W19384   4.987  36.002   0.419
52844W        W19385  38.031   5.890  14.157
52845W        W19386  23.248  17.713  11.557
52846W        W19387  31.577  11.138  11.938
52847W        W19388  20.953  15.704  11.522
52848W        W19389  31.525  24.186   3.706
52849W        W19390  27.908  36.964  14.431
52850W        W19391   6.596  33.836  14.407
52851W        W19392  24.602  15.662   1.161
52852W        W19393   0.434  38.367   1.431
52853W        W19394  29.056  22.324  13.858
52854W        W19395   4.402  44.954   4.188
52855W        W19396  15.520  25.640  12.509
52856W        W19397  15.685  35.189   1.442
52857W        W19398  30.467   1.984  14.488
52858W        W19399  22.534   7.184   1.870
52859W        W19400  32.622  17.119  13.326
52860W        W19401   2.660  20.012   0.421
52861W        W19402   1.363  32.287  12.125
52862W        W19403  14.356   1.317  12.033
52863W        W19404  43.473  27.502  14.924
52864W        W19405  13.857   8.611   1.957
52865W        W19406   7.330  13.574   3.444
52866W        W19407  32.025  15.654   4.697
52867W        W19408  15.991   9.972  14.890
52868W        W19409   0.443   6.480   0.808
52869W        W19410  19.303   0.905   4.621
52870W        W19411  14.739  36.861   0.495
52871W        W19412   3.199  30.113   0.791
52872W        W19413  34.002  35.472  10.861
52873W        W19414  14.526   7.961  11.187
52874W        W19415   6.308  36.314   4.955
52875W        W19416   6.198  40.947  14.552
52876W        W19417  28.145  34.350   0.836
52877W        W19418  30.937  42.889   2.726
52878W        W19419   8.970   1.814   0.395
52879W        W19420  25.122  44.040   2.436
52880W        W19421   9.164  11.149  10.823
52881W        W19422  12.781  37.324  12.675
52882W        W19423  16.362  10.415  13.402
52883W        W19424  29.476  22.030   3.792
52884W        W19425   2.103   8.040   3.547
52885W        W19426  13.175  36.754  14.785
52886W        W19427   2.220   1.817   2.164
52887W        W19428  15.778  18.019  13.804
52888W        W19429  20.403  15.537   1.731
52889W        W19430  30.326   1.752  12.033
52890W        W19431   5.085  12.125  11.438
52891W        W19432   4.831  43.263   1.344
52892W        W19433  31.379   6.918   4.214
52893W        W19434  21.785  33.932   4.728
52894W        W19435   8.058  20.169   4.768
52895W        W19436  25.984  27.179  14.822
52896W        W19437   9.213   7.766  12.159
52897W        W19438  23.000  28.392  14.969
52898W        W19439  43.524   5.302   1.460
52899W        W19440  34.889  15.318   2.244
52900W        W19441   7.279  36.083   1.379
52901W        W19442  42.978  16.270   0.263
52902W        W19443  25.869  42.833  11.170
52903W        W19444  32.861  20.785   3.805
52904W        W19445  27.561  33.338  13.089
52905W        W19446  32.309  13.815   3.622
52906W        W19447  41.964  25.229   0.267
52907W        W19448  32.597   4.881  11.463
52908W        W19449  40.396   8.855   1.470
52909W        W19450   5.712  29.372  11.633
52910W        W19451  18.839  18.236  12.968
52911W        W19452  18.788  14.294   2.370
52912W        W19453  12.118  18.708  13.438
52913W        W19454  34.783  11.163  14.327
52914W        W19455  10.367   5.912   4.576
52915W        W19456  18.036   7.240  11.585
52916W        W19457  19.104  24.529  13.348
52917W        W19458  30.583  26.518   4.727
52918W        W19459  20.934  14.423  11.873
52919W        W19460  14.158  31.670   0.883
52920W        W19461  34.680  33.438   3.935
52921W        W19462  11.873  21.182   2.602
52922W        W19463  13.200  36.540  12.475
52923W        W19464  37.155  17.939  13.509
52924W        W19465  14.613  36.675  10.667
52925W        W19466   8.420  19.264   3.351
52926W        W19467   2.005  32.510  12.729
52927W        W19468   0.876  33.343  11.137
52928W        W19469  24.865  19.078   3.603
52929W        W19470  44.678  12.586  10.456
52930W        W19471   7.911   3.848   4.150
52931W        W19472   5.188  13.712   3.731
52932W        W19473   1.761   7.834  10.789
52933W        W19474  14.730   3.862  11.083
52934W        W19475  22.962  29.059  13.764
52935W        W19476  34.570   3.109  14.219
52936W        W19477   4.917  17.343   3.750
52937W        W19478  15.004  17.145   4.589
52938W        W19479  42.492  12.163   3.617
52939W        W19480  24.582  13.282  11.915
52940W        W19481  11.348  27.651  10.717
52941W        W19482  12.723  44.737   0.928
52942W        W19483   3.398  33.698  12.937
52943W        W19484  41.054  30.865   1.376
52944W        W19485  35.466  28.285  14.462
52945W        W19486  16.701  34.592   2.924
52946W        W19487  21.703  19.636  14.495
52947W        W19488  19.539  38.545   2.782
52948W        W19489  19.582  35.153   0.482
52949W        W19490  23.230  26.938   1.362
52950W        W19491   8.682   8.824   2.767
52951W        W19492  23.784  20.072  14.905
52952W        W19493  39.767  43.072  13.943
52953W        W19494  10.648   1.442   3.384
52954W        W19495  20.556   1.362   4.296
52955W        W19496  27.127  28.699  11.712
52956W        W19497   6.937  19.759  13.048
52957W        W19498  25.577  22.007   4.621
52958W        W19499  12.598  15.955  11.453
52959W        W19500  33.072  29.383  13.842
52960W        W19501  18.699  33.660   9.932
52961W        W19502  22.909  25.896  12.513
52962W        W19503   8.687  29.110  12.894
52963W        W19504  28.477  21.157   0.203
52964W        W19505   2.789  29.598  14.045
52965W        W19506  13.739   4.981  11.756
52966W        W19507  12.897   9.576   0.302
52967W        W19508  25.725  22.061   3.741
52968W        W19509  12.134  15.671  12.648
52969W        W19510  41.085   0.973   3.689
52970W        W19511  18.048   0.165  12.532
52971W        W19512  26.792  28.104   1.961
52972W        W19513  20.083   3.396  10.639
52973W        W19514  39.382  16.490   3.144
52974W        W19515  25.331  35.981   5.116
52975W        W19516  11.169  17.152  11.055
52976W        W19517  31.372   6.477  12.427
52977W        W19518  12.330  11.397   3.425
52978W        W19519  15.810  35.100  10.622
52979W        W19520  30.670   5.858  13.100
52980W        W19521  19.314  11.803   1.283
52981W        W19522  36.462  30.431   0.375
52982W        W19523  35.839  27.126   1.721
52983W        W19524  28.870  31.412   4.193
52984W        W19525  13.870  17.646  11.638
52985W        W19526  28.448   9.624  12.535
52986W        W19527  21.544  22.753  11.201
52987W        W19528  43.074  31.930   1.740
52988W        W19529   1.709  30.052   5.431
52989W        W19530  41.556  43.275  12.764
52990W        W19531   5.328   2.645  13.052
52991W        W19532  26.478  27.171   3.079
52992W        W19533  42.707  29.062   3.703
52993W        W19534   4.709  20.064   2.416
52994W        W19535  25.968  23.148   2.171
52995W        W19536  16.268  13.606  11.267
52996W        W19537  29.553  44.519   3.047
52997W        W19538   7.219  18.309  10.912
52998W        W19539   1.517  43.830  12.987
52999W        W19540  11.625  28.531  13.165
53000W        W19541  39.911   4.250   0.706
53001W        W19542  42.083  28.146   2.793
53002W        W19543  25.524  18.343   2.236
53003W        W19544  12.048  17.774   3.924
53004W        W19545   1.261  43.830   3.283
53005W        W19546   9.226  22.804  14.776
53006W        W19547  11.866   8.195   2.374
53007W        W19548   6.727  28.971  13.568
53008W        W19549  35.266  43.869   1.870
53009W        W19550  14.777   3.865  12.159
53010W        W19551  19.117  26.671  10.402
53011W        W19552  22.119  15.352   2.312
53012W        W19553  18.815   5.774   2.292
53013W        W19554  27.019   6.267  13.967
53014W        W19555  24.262  27.200  14.941
53015W        W19556  34.790  34.228   1.770
53016W        W19557  30.909  41.234   4.918
53017W        W19558  40.634   8.328  13.111
53018W        W19559  16.515  38.682  14.860
53019W        W19560  24.342  15.055   0.454
53020W        W19561   4.525  17.191  13.369
53021W        W19562  24.372  15.651  14.240
53022W        W19563  44.371  18.785  13.320
53023W        W19564  38.828  34.339  10.766
53024W        W19565  18.676  34.149   1.020
53025W        W19566   5.874  16.212   3.546
53026W        W19567  13.207  44.444  10.328
53027W        W19568   6.278  29.100  13.806
53028W        W19569   3.657  41.244   2.447
53029W        W19570  41.599  20.031  10.682
53030W        W19571  23.681  39.433  11.047
53031W        W19572  35.961  25.294  14.539
53032W        W19573  11.840   0.047  11.981
53033W        W19574   3.905  19.376  14.400
53034W        W19575  21.170  35.058  10.703
53035W        W19576   9.651  22.995   0.737
53036W        W19577   6.903  28.620  14.238
53037W        W19578  18.102  15.728   3.620
53038W        W19579   5.406  21.420   2.775
53039W        W19580  13.185  20.966   2.314
53040W        W19581   3.902  37.516  12.008
53041W        W19582  14.082   3.391   0.458
53042W        W19583  25.099  35.650  13.186
53043W        W19584  25.995   9.716   1.469
53044W        W19585   8.697  36.026   4.836
53045W        W19586  17.598  43.189   0.745
53046W        W19587  11.806  40.291   4.059
53047W        W19588  20.969  37.107   0.779
53048W        W19589  21.616  39.643   4.622
53049W        W19590  12.232  31.575  10.368
53050W        W19591  13.829   1.433   2.761
53051W        W19592  41.980  18.612   2.315
53052W        W19593   7.943  40.849  11.715
53053W        W19594   3.260  33.904   2.924
53054W        W19595  24.030   0.206   2.114
53055W        W19596  16.259  30.338   0.619
53056W        W19597  16.919  19.646   5.026
53057W        W19598  12.816  26.513   4.537
53058W        W19599  13.897   0.312  10.915
53059W        W19600  33.167  33.552   0.419
53060W        W19601  14.458  28.082   4.893
53061W        W19602  37.467  22.281  10.705
53062W        W19603  38.367   6.206  13.918
53063W        W19604  22.868  32.100  13.727
53064W        W19605  32.966  29.337   1.904
53065W        W19606  30.092   7.735   2.163
53066W        W19607   1.360  37.103   4.884
53067W        W19608   2.420  43.408  11.192
53068W        W19609  35.039  27.005   5.066
53069W        W19610  43.282  35.945  13.886
53070W        W19611  42.113  17.041   4.607
53071W        W19612   1.258  31.868  11.814
53072W        W19613  23.139   7.741   5.021
53073W        W19614  44.494  12.246  11.591
53074W        W19615  33.465   3.309   1.190
53075W        W19616  43.660  39.082  11.493
53076W        W19617  13.661   1.393  11.516
53077W        W19618  35.372  17.571   1.723
53078W        W19619  40.883  37.600   4.574
53079W        W19620  27.162  19.635  11.960
53080W        W19621  21.348   4.216  12.121
53081W        W19622   8.949  39.348   0.647
53082W        W19623   7.672  15.838  13.043
53083W        W19624  16.681  17.632  14.277
53084W        W19625  28.602  41.910  12.582
53085W        W19626  29.600  20.111  13.978
53086W        W19627   4.230   6.318  12.068
53087W        W19628  17.827  30.113   0.435
53088W        W19629  24.566  13.548  14.757
53089W        W19630  14.777  21.279   4.148
53090W        W19631  14.132  42.467  10.637
53091W        W19632  38.834   7.377  14.893
53092W        W19633  25.933  28.550   1.798
53093W        W19634  20.718  32.670   0.701
53094W        W19635  10.590  24.039  14.294
53095W        W19636  32.044  12.792   3.652
53096W        W19637  27.053  40.829   2.772
53097W        W19638  34.111  10.781  11.085
53098W        W19639  11.234  15.149   1.455
53099W        W19640  24.810  26.869  11.097
53100W        W19641  24.188  20.004   2.640
53101W        W19642   8.763  28.441  12.381
53102W        W19643   4.200  27.918  11.981
53103W        W19644  25.837   5.836   4.143
53104W        W19645  35.908   9.151   1.662
53105W        W19646  21.135  34.122  12.766
53106W        W19647  20.759   7.322  12.821
53107W        W19648  43.009  25.199   1.957
53108W        W19649   9.727   2.019   4.772
53109W        W19650   0.446  16.610   3.815
53110W        W19651   7.850   1.219   0.888
53111W        W19652  43.786   4.822  14.343
53112W        W19653  40.414  11.858  11.140
53113W        W19654  28.520  20.531  11.068
53114W        W19655   0.541  10.818  13.227
53115W        W19656  21.792   9.377   2.703
53116W        W19657  22.649   6.208   4.557
53117W        W19658  39.533  40.272   2.799
53118W        W19659  15.895  35.112   0.964
53119W        W19660  28.467  40.313  10.942
53120W        W19661  24.575  36.488  12.198
53121W        W19662  44.697  24.681   3.674
53122W        W19663   4.518  32.980  12.848
53123W        W19664  10.661  29.622  14.987
53124W        W19665  32.368  32.361  14.772
53125W        W19666  38.400  42.870   3.176
53126W        W19667  39.380  33.309  12.182
53127W        W19668  27.693  31.991   2.243
53128W        W19669  29.463  20.805   0.037
53129W        W19670  40.970  31.058   2.796
53130W        W19671  21.938  35.572  13.094
53131W        W19672  22.598  24.087  10.660
53132W        W19673  33.799  40.753   3.630
53133W        W19674  17.808  20.293   0.040
53134W        W19675   9.340   2.468   4.166
53135W        W19676   2.136  15.813  13.428
53136W        W19677  24.153  24.141   3.164
53137W        W19678  14.477  43.228  11.415
53138W        W19679   0.002  44.654  13.451
53139W        W19680  13.233  23.682  11.650
53140W        W19681   9.918   1.322  11.152
53141W        W19682   2.525  42.299  11.473
53142W        W19683  26.700  36.528   2.261
53143W        W19684  17.826  19.211   3.633
53144W        W19685   7.330  39.746   1.237
53145W        W19686  16.666   8.875  14.880
53146W        W19687   9.897  18.459   4.364
53147W        W19688   1.275  26.816  13.413
53148W        W19689  17.089  10.140   3.435
53149W        W19690  15.745  16.714  10.895
53150W        W19691   5.898  11.895   4.076
53151W        W19692  23.903  44.327  14.977
53152W        W19693  17.767  35.854   2.348
53153W        W19694   5.761  30.402  12.448
53154W        W19695  44.474   5.680  11.979
53155W        W19696  18.343   4.246  12.607
53156W        W19697  27.689   4.049   3.095
53157W        W19698  39.156  38.980  13.577
53158W        W19699  42.182  12.098  14.828
53159W        W19700  13.657   9.144   4.358
53160W        W19701   9.696  15.275  14.375
53161W        W19702  18.587  37.918   0.310
53162W        W19703  39.563   8.576  12.919
53163W        W19704  19.185  19.339   3.268
53164W        W19705   5.640  35.562  13.349
53165W        W19706   0.869   5.641  14.906
53166W        W19707  41.359  17.826  12.344
53167W        W19708   3.691  12.199  11.370
53168W        W19709  29.585  26.422  10.815
53169W        W19710  20.368  13.811  11.198
53170W        W19711   7.915   7.386   1.380
53171W        W19712   9.226  12.693   0.465
53172W        W19713   8.925  43.918  14.350
53173W        W19714  21.132   2.158   2.962
53174W        W19715  12.935  43.275  11.652
53175W        W19716  42.074  44.943   3.438
53176W        W19717  20.664  37.879   2.016
53177W        W19718   8.295   5.674   2.764
53178W        W19719   2.080  31.564  12.140
53179W        W19720  14.301  35.639  11.975
53180W        W19721  18.166  43.694   0.321
53181W        W19722  20.715  40.052   0.603
53182W        W19723  37.676  28.196  14.449
53183W        W19724  38.414  40.019  10.655
53184W        W19725  37.117  28.674  11.666
53185W        W19726  39.885   5.213  10.618
53186W        W19727  27.904  37.492   1.658
53187W        W19728  19.270   3.782   4.903
53188W        W19729  10.596  19.487  11.417
53189W        W19730  41.469   9.798   3.220
53190W        W19731  10.652   0.814  11.510
53191W        W19732   4.271  13.322   1.405
53192W        W19733  23.037  29.506   0.028
53193W        W19734  13.014  18.717  14.424
53194W        W19735  32.807  10.264  11.221
53195W        W19736  41.815  19.627   1.403
53196W        W19737  11.022  32.859   0.664
53197W        W19738  37.362   4.767   1.512
53198W        W19739  35.359  28.579  12.823
53199W        W19740  14.217  42.418   3.763
53200W        W19741  14.240  43.142   4.983
53201W        W19742  11.685   6.723  14.059
53202W        W19743  43.881  36.537  14.838
53203W        W19744  19.777  21.671  12.087
53204W        W19745  22.018  20.743  12.818
53205W        W19746  28.328  41.438   4.175
53206W        W19747  10.931  18.037  12.470
53207W        W19748  26.708  36.980   3.613
53208W        W19749  38.579   6.291  12.434
53209W        W19750  33.849   3.749  14.069
53210W        W19751   1.872  30.848   4.986
53211W        W19752  17.553  25.980  10.938
53212W        W19753   0.943   0.847   3.787
53213W        W19754  12.526   1.156  11.964
53214W        W19755  29.461  32.869  11.523
53215W        W19756  38.490  30.649  10.509
53216W        W19757  28.199   4.316   0.796
53217W        W19758   4.032  36.318   4.216
53218W        W19759  26.506  15.300   2.320
53219W        W19760  43.380   9.595  12.418
53220W        W19761  22.121  15.839  14.914
53221W        W19762  22.147  28.533   0.866
53222W        W19763  34.072  30.673  12.901
53223W        W19764  21.436  40.329  14.982
53224W        W19765  31.993  17.217  11.413
53225W        W19766   0.157   6.838   2.749
53226W        W19767   6.487  38.525   3.578
53227W        W19768  10.629  20.670  11.990
53228W        W19769  37.454  34.438  14.249
53229W        W19770  33.355  11.090  13.814
53230W        W19771  21.496  27.413  10.797
53231W        W19772  31.703  21.614  13.868
53232W        W19773   3.356  20.738  12.571
53233W        W19774  41.326  19.896   2.161
53234W        W19775  35.637  15.537  12.040
53235W        W19776  30.429  30.097   2.504
53236W        W19777   1.061   3.348   0.432
53237W        W19778  14.817   7.304   3.437
53238W        W19779  36.493  20.245   3.825
53239W        W19780  18.657  35.575  12.869
53240W        W19781  35.283  15.209   3.872
53241W        W19782  37.350  36.566  11.090
53242W        W19783   4.366  15.506  14.324
53243W        W19784  19.287  30.045   4.096
53244W        W19785  19.070  23.963  14.414
53245W        W19786  14.705  43.014   3.314
53246W        W19787  35.499   0.450   0.270
53247W        W19788   1.272  42.797   1.654
53248W        W19789  43.209   3.217  10.685
53249W        W19790   4.384   0.028  14.467
53250W        W19791  29.484   4.246  11.042
53251W        W19792  13.353   4.151  12.952
53252W        W19793  36.591   2.321   3.606
53253W        W19794  19.526  37.603   2.287
53254W        W19795  41.251  30.375   3.726
53255W        W19796  43.156  17.758   1.017
53256W        W19797  16.085  41.822   0.537
53257W        W19798  41.260  21.130   0.280
53258W        W19799  10.514  10.169   3.797
53259W        W19800  24.678  13.655   4.418
53260W        W19801  20.982  44.998  13.906
53261W        W19802   1.687   8.694   1.863
53262W        W19803  42.181  42.602   3.995
53263W        W19804  40.059  22.417   1.472
53264W        W19805  13.601  21.066  10.754
53265W        W19806  31.441   5.409  10.184
53266W        W19807  36.791   1.777  14.233
53267W        W19808  10.793  43.110  11.694
53268W        W19809  27.236  39.295   1.959
53269W        W19810  25.703  35.897   1.772
53270W        W19811  34.024   6.637   1.871
53271W        W19812  21.565  25.943  12.235
53272W        W19813  30.181  34.864  12.056
53273W        W19814  17.541  35.877  14.829
53274W        W19815  31.072  38.093  11.488
53275W        W19816  40.831  19.001   2.864
53276W        W19817  42.005  21.245   4.592
53277W        W19818  10.366  17.331   4.159
53278W        W19819  41.923   3.946   3.606
53279W        W19820  35.323  42.851  14.844
53280W        W19821  43.912  10.889  10.735
53281W        W19822  36.852  10.253   3.600
53282W        W19823  11.672  20.740   2.786
53283W        W19824   9.226  43.606   3.271
53284W        W19825  40.212  33.004  11.145
53285W        W19826  28.429  24.749   2.459
53286W        W19827   9.432  33.531   1.603
53287W        W19828   8.204  35.019   3.114
53288W        W19829  23.203  18.331  13.691
53289W        W19830  29.463  23.032  13.134
53290W        W19831  20.445  34.750   1.329
53291W        W19832   4.715  38.497  13.279
53292W        W19833  43.453  42.935  10.662
53293W        W19834   4.828  13.538  13.013
53294W        W19835  27.224  44.822  10.549
53295W        W19836  28.015  15.240   3.080
53296W        W19837  12.401  30.938  13.413
53297W        W19838   0.272  22.462   1.801
53298W        W19839  39.381  18.099  12.381
53299W        W19840  10.915  33.565   1.808
53300W        W19841  19.219  16.731   4.610
53301W        W19842   5.753  23.598   2.126
53302W        W19843  10.110  43.905   1.421
53303W        W19844   2.433   8.902   1.369
53304W        W19845  25.797  21.043   1.214
53305W        W19846   6.214  31.770  14.504
53306W        W19847   7.420  24.183   0.425
53307W        W19848   4.339   6.839  10.866
53308W        W19849  29.447  10.101  11.572
53309W        W19850  29.570   6.654   1.695
53310W        W19851  25.415  33.121   4.744
53311W        W19852   5.534   7.554   1.774
53312W        W19853   0.318  34.863  12.128
53313W        W19854  30.548  13.114  12.009
53314W        W19855  16.224   5.359  13.933
53315W        W19856   4.749  32.499  10.516
53316W        W19857   9.153  37.885  14.508
53317W        W19858   6.778  42.153  13.664
53318W        W19859   0.017  37.113  13.061
53319W        W19860  33.493  33.534   9.829
53320W        W19861  18.350  30.218   4.057
53321W        W19862  19.500   2.895  12.544
53322W        W19863  29.005  27.947   0.146
53323W        W19864   1.675  20.907  12.973
53324W        W19865  26.647   2.276   4.703
53325W        W19866  40.615  43.485  11.856
53326W        W19867   1.367  16.156   0.665
53327W        W19868  36.854  17.832   0.769
53328W        W19869   6.411   3.992   3.264
53329W        W19870  24.794  14.720   3.717
53330W        W19871  21.834  42.401   3.599
53331W        W19872  24.460  18.219  12.991
53332W        W19873  14.945  41.401  12.068
53333W        W19874  12.817  43.276   4.624
53334W        W19875  32.799  24.986   4.221
53335W        W19876  23.658  36.667  11.990
53336W        W19877  24.046   2.433  12.222
53337W        W19878  24.136  19.061   2.166
53338W        W19879  25.289  42.676  13.788
53339W        W19880  40.475  39.425   0.503
53340W        W19881  13.506  11.129   2.836
53341W        W19882  10.049  26.082   2.979
53342W        W19883   5.495  13.839  11.183
53343W        W19884  34.644  23.785  14.333
53344W        W19885   3.644  33.906  13.771
53345W        W19886  33.975  23.211   1.923
53346W        W19887   9.778  40.995  11.045
53347W        W19888  39.104  38.098  13.943
53348W        W19889   1.285  14.174  13.430
53349W        W19890  38.647   9.310   4.915
53350W        W19891  13.527  25.627  12.406
53351W        W19892  16.654  40.856   4.830
53352W        W19893  36.859  43.429  14.904
53353W        W19894   5.940  43.888   0.319
53354W        W19895  30.584  27.985   4.114
53355W        W19896  23.068   0.998  10.133
53356W        W19897   3.381   8.137   2.669
53357W        W19898  15.661   8.833   4.954
53358W        W19899  35.537  23.539  11.899
53359W        W19900  12.735  37.243   4.342
53360W        W19901  36.303  22.749   3.188
53361W        W19902  30.155   3.855   0.875
53362W        W19903  15.075  25.672   1.753
53363W        W19904  42.961  30.145  13.074
53364W        W19905  33.130  12.653  14.621
53365W        W19906  37.728  32.622  12.854
53366W        W19907   3.448  30.886  14.028
53367W        W19908  41.833   2.155  11.218
53368W        W19909  36.487   9.177  13.127
53369W        W19910  26.503  36.648  13.720
53370W        W19911  16.197   8.943  10.248
53371W        W19912   0.202  25.632   1.765
53372W        W19913   4.096  41.453  12.982
53373W        W19914  31.269  29.484  12.542
53374W        W19915  15.372   7.405  11.180
53375W        W19916  22.250   9.892  13.406
53376W        W19917  13.991   7.267  11.479
53377W        W19918  16.181  38.971  14.086
53378W        W19919  28.617  12.641  13.766
53379W        W19920  23.133  43.291  14.405
53380W        W19921   8.884  16.857   4.575
53381W        W19922  11.619  11.120  11.958
53382W        W19923  23.190   5.385  12.566
53383W        W19924   0.757   7.343  13.062
53384W        W19925  41.502  13.802  14.239
53385W        W19926  36.804  28.517  13.357
53386W        W19927   4.068   9.369  13.203
53387W        W19928  30.978  44.431   2.703
53388W        W19929  15.606  16.121  11.618
53389W        W19930  41.769  15.178   0.492
53390W        W19931  11.740  28.629  14.152
53391W        W19932   8.488  32.349   0.969
53392W        W19933  14.416  36.996   2.105
53393W        W19934  38.060   5.360   4.709
53394W        W19935  27.977  19.807  14.235
53395W        W19936  13.023  10.015  14.531
53396W        W19937   0.776  43.987   9.508
53397W        W19938   2.676  35.576  11.453
53398W        W19939  38.950  19.109  14.383
53399W        W19940  15.227  29.413   2.237
53400W        W19941  25.937  29.047  13.596
53401W        W19942  23.405  22.876  12.319
53402W        W19943   1.540  44.372  10.666
53403W        W19944  32.769  13.577   1.402
53404W        W19945  14.357  36.483   4.850
53405W        W19946   5.643  44.197   4.113
53406W        W19947  38.370  22.609  11.585
53407W        W19948   0.314   4.273   2.715
53408W        W19949  40.789   9.913  10.589
53409W        W19950  39.027  39.103   2.686
53410W        W19951  29.125   2.244  11.501
53411W        W19952  42.011  18.578  12.986
53412W        W19953  19.430   4.808  13.893
53413W        W19954   0.275  16.116   4.678
53414W        W19955  24.761   2.986   2.960
53415W        W19956  42.886  28.273   4.087
53416W        W19957  32.940  19.363   0.346
53417W        W19958  19.194  30.461   3.817
53418W        W19959  26.759   9.604   1.022
53419W        W19960   2.855   4.044   0.857
53420W        W19961  12.354  44.024  12.630
53421W        W19962  29.524  26.980   3.701
53422W        W19963  26.430  40.002   9.750
53423W        W19964   8.285  12.295   2.282
53424W        W19965  12.476  12.967  13.317
53425W        W19966   6.343  12.546   3.389
53426W        W19967  24.397  16.367   2.208
53427W        W19968  21.136  12.842  11.052
53428W        W19969  25.178  13.634   0.954
53429W        W19970  30.690  21.104   2.290
53430W        W19971  17.854  32.333   0.039
53431W        W19972  19.580   3.267   0.159
53432W        W19973  32.030  21.202   2.764
53433W        W19974  26.783  31.987   0.914
53434W        W19975  44.491  37.708   4.628
53435W        W19976  16.379  14.630   4.125
53436W        W19977  43.978  19.057  12.800
53437W        W19978  22.028  32.255   1.661
53438W        W19979  44.751  14.674   2.821
53439W        W19980  43.985  24.132   1.428
53440W        W19981   5.434  20.792   4.143
53441W        W19982  29.544   1.253   1.429
53442W        W19983  32.675  33.959   2.386
53443W        W19984  19.798  25.516   4.423
53444W        W19985   6.284  23.082  10.675
53445W        W19986  44.931   0.486  10.698
53446W        W19987  38.559  32.895   1.205
53447W        W19988  30.420  40.683  10.868
53448W        W19989   1.708  41.205  11.048
53449W        W19990  11.501  21.304   2.282
53450W        W19991  15.126  26.267   2.750
53451W        W19992  22.155  43.756  10.703
53452W        W19993  35.060  21.624  13.498
53453W        W19994  11.236  39.561  10.644
53454W        W19995  19.110   9.356  14.912
53455W        W19996   2.185   1.002  14.428
53456W        W19997  15.296  42.923   2.193
53457W        W19998  26.563  17.537  14.824
53458W        W19999   4.990  25.525  13.977
53459W        W20000  38.955  21.663   1.245
53460W        W20001   2.036  29.082  11.106
53461W        W20002  22.762   4.044   3.698
53462W        W20003   9.850   4.472   3.554
53463W        W20004   1.446  19.269   2.721
53464W        W20005  39.933  17.291  14.441
53465W        W20006  19.722  20.132   2.702
53466W        W20007  11.587  16.184   2.735
53467W        W20008  33.194   1.241  14.049
53468W        W20009  17.821  41.027  11.375
53469W        W20010  34.602  15.640  11.947
53470W        W20011  18.295  42.492   4.191
53471W        W20012   1.215  29.782   2.799
53472W        W20013   6.460  14.279   0.392
53473W        W20014  36.532  41.026   1.328
53474W        W20015   4.661  28.444  13.534
53475W        W20016  23.529  26.570   0.580
53476W        W20017   2.257  17.062  10.920
53477W        W20018  42.789  39.237   2.206
53478W        W20019  17.970  20.478  10.503
53479W        W20020  22.319  30.219   2.924
53480W        W20021   9.411   4.341   4.192
53481W        W20022  15.275  36.151   2.640
53482W        W20023  38.319  17.253   4.635
53483W        W20024   2.315  31.002   2.321
53484W        W20025  28.166  26.936   3.813
53485W        W20026   3.375  28.161   4.111
53486W        W20027  18.325  26.125  13.543
53487W        W20028   4.202  23.969   0.372
53488W        W20029  22.479  35.039   2.280
53489W        W20030  17.572  31.906  14.430
53490W        W20031  16.227  40.895   3.578
53491W        W20032  39.143  43.154   2.317
53492W        W20033   0.911   7.636   2.280
53493W        W20034  15.519  31.477   0.677
53494W        W20035  22.493  25.433  12.605
53495W        W20036  31.687  15.146  11.600
53496W        W20037  18.234   6.352   0.517
53497W        W20038  35.833   5.383  14.842
53498W        W20039  37.377  26.254  11.023
53499W        W20040  23.164   6.113  11.126
53500W        W20041  21.056  24.459   1.250
53501W        W20042  30.945  44.253  12.517
53502W        W20043  42.460  31.091   4.544
53503W        W20044  27.511  34.586   2.888
53504W        W20045   5.852  42.833   3.156
53505W        W20046  21.566   6.078  12.632
53506W        W20047  40.041  25.989  11.548
53507W        W20048  29.387  14.118   2.690
53508W        W20049  33.067   8.489   2.236
53509W        W20050  38.049   4.690   2.689
53510W        W20051  43.301  31.974   1.209
53511W        W20052  43.201  43.132  13.833
53512W        W20053  44.515  12.769   3.987
53513W        W20054  23.984  25.120   4.463
53514W        W20055  31.122  15.321  12.976
53515W        W20056  32.935   7.258  13.384
53516W        W20057  42.093  29.864   4.569
53517W        W20058  28.737  32.240  13.404
53518W        W20059  39.858  44.534  11.276
53519W        W20060   0.686  19.052  13.497
53520W        W20061  40.512  34.573   1.889
53521W        W20062   5.884  40.177   0.845
53522W        W20063   5.467  18.603  13.880
53523W        W20064  15.377  30.936   4.592
53524W        W20065  44.414  12.832  14.538
53525W        W20066  23.015  12.706   3.135
53526W        W20067  12.564  40.268   0.879
53527W        W20068  31.034  22.736   2.779
53528W        W20069   2.940   2.623  12.103
53529W        W20070  12.762  11.740  14.463
53530W        W20071  28.106  27.101   0.987
53531W        W20072  26.684  18.063   3.608
53532W        W20073  26.411   5.307  11.967
53533W        W20074  21.357  17.308  13.611
53534W        W20075  10.914   9.797  12.430
53535W        W20076  18.682  15.243  14.980
53536W        W20077  27.579  21.039  14.171
53537W        W20078   9.228   7.857  11.173
53538W        W20079  19.435  34.597  14.689
53539W        W20080  22.288  21.917  14.691
53540W        W20081  44.248   3.557  13.533
53541W        W20082   2.733  15.530  11.985
53542W        W20083  12.611  33.664   3.615
53543W        W20084  19.357  18.618   0.588
53544W        W20085  42.883  40.106  14.459
53545W        W20086  28.619   1.034   4.720
53546W        W20087  17.763   3.231  13.886
53547W        W20088  38.790  14.432   1.589
53548W        W20089   4.819  27.500  10.695
53549W        W20090  24.625  14.644  12.385
53550W        W20091  11.688  13.146  12.159
53551W        W20092  10.832   7.220  14.431
53552W        W20093  21.027  36.054   1.701
53553W        W20094   1.948  35.338   2.451
53554W        W20095  35.250  37.946   3.518
53555W        W20096  23.670  11.796  12.971
53556W        W20097  39.377  40.766   0.494
53557W        W20098  39.233   4.478  12.041
53558W        W20099  40.868  15.331   0.442
53559W        W20100  25.493  11.209   3.297
53560W        W20101  24.400   0.110  14.942
53561W        W20102  11.368  34.190   0.412
53562W        W20103  41.154   9.055  10.789
53563W        W20104  41.195  16.522   1.280
53564W        W20105  30.686  22.688   2.392
53565W        W20106  43.965  41.404  11.140
53566W        W20107  44.304  28.152   4.531
53567W        W20108   2.392  30.131   0.478
53568W        W20109   0.428  37.104   3.877
53569W        W20110  41.590  25.045   0.595
53570W        W20111  11.581   8.775  10.891
53571W        W20112   4.217  32.003  12.441
53572W        W20113   9.681  40.690  10.611
53573W        W20114   9.756  44.888  10.857
53574W        W20115   0.225  16.384  13.429
53575W        W20116  28.735  36.218  13.688
53576W        W20117  34.424  43.498  14.154
53577W        W20118   1.276  29.492  12.021
53578W        W20119  28.930  19.750   4.150
53579W        W20120  17.640  12.395  13.421
53580W        W20121   5.433   5.178   4.162
53581W        W20122  36.818  13.862   2.954
53582W        W20123  11.858  29.515   3.938
53583W        W20124  17.023  37.141   4.615
53584W        W20125  31.383  43.134  13.992
53585W        W20126  27.686  12.264   3.170
53586W        W20127  42.308  21.274  12.932
53587W        W20128  31.164  43.315   0.352
53588W        W20129  42.013  24.045  11.998
53589W        W20130  41.257  35.481  11.394
53590W        W20131  12.731  24.715   3.267
53591W        W20132   3.968   7.111  14.965
53592W        W20133  19.902  18.236  10.531
53593W        W20134   6.965  24.191  12.523
53594W        W20135  36.961  41.290   0.399
53595W        W20136   6.998  33.145   1.830
53596W        W20137   8.727  24.419  13.581
53597W        W20138  29.100  28.940   1.222
53598W        W20139  34.316  41.379   0.365
53599W        W20140   6.876  23.713  11.614
53600W        W20141  10.934  26.702   1.362
53601W        W20142   1.943  34.907   2.184
53602W        W20143  22.661  38.633   4.912
53603W        W20144   6.566  13.248   2.173
53604W        W20145  15.831  37.815   1.176
53605W        W20146  12.332  24.660   0.313
53606W        W20147  26.800  18.050  11.199
53607W        W20148  33.558  19.586   2.653
53608W        W20149  14.840  17.091   3.255
53609W        W20150  17.293   3.207  14.280
53610W        W20151  20.979  42.800   1.498
53611W        W20152  19.722  29.030   4.831
53612W        W20153  10.659   7.334   2.884
53613W        W20154  12.640  36.028   2.275
53614W        W20155   5.830   5.765   3.308
53615W        W20156   5.825  24.310   0.360
53616W        W20157   6.279  37.940  14.913
53617W        W20158   6.723  36.703   4.682
53618W        W20159   8.176  18.192  12.964
53619W        W20160  42.404   5.822  11.219
53620W        W20161  11.489  38.471  11.455
53621W        W20162  33.610   9.698  14.456
53622W        W20163  40.454   8.134   4.186
53623W        W20164  32.460  21.518  13.404
53624W        W20165   7.637   2.572  11.542
53625W        W20166  16.164  35.382   1.415
53626W        W20167   2.861  27.830  11.993
53627W        W20168  10.805   3.877   2.372
53628W        W20169  11.330  29.259   4.111
53629W        W20170  26.020  18.081  13.315
53630W        W20171  10.869  35.355   2.589
53631W        W20172  38.841  37.820   0.363
53632W        W20173  18.565  31.935   1.712
53633W        W20174  38.365  17.654  12.793
53634W        W20175  25.539  44.488  10.369
53635W        W20176   2.041   3.452  10.945
53636W        W20177  25.819   1.936  13.033
53637W        W20178  34.715  38.120  14.386
53638W        W20179   3.871  20.213   2.670
53639W        W20180   4.268  12.305  11.895
53640W        W20181  30.066  26.794   0.983
53641W        W20182   3.262  27.459  13.991
53642W        W20183  35.053   4.836  13.962
53643W        W20184  31.866   9.042   4.799
53644W        W20185  43.297  19.692  13.782
53645W        W20186   8.613   0.950   4.663
53646W        W20187  43.269  39.896  13.787
53647W        W20188  42.391  25.997  12.683
53648W        W20189  26.701  41.511  11.424
53649W        W20190  39.004  40.797  10.948
53650W        W20191  25.082  34.725   0.487
53651W        W20192  36.522  10.243   4.925
53652W        W20193  37.593  19.327  13.817
53653W        W20194  13.126  37.068  10.568
53654W        W20195  19.224  17.081  11.544
53655W        W20196  28.998  37.930   2.263
53656W        W20197  43.912  19.988  12.580
53657W        W20198   3.519  10.654   0.399
53658W        W20199  38.119  18.020   3.726
53659W        W20200  22.770  25.728  13.565
53660W        W20201   9.978  29.679   5.127
53661W        W20202   6.850  28.092   3.550
53662W        W20203   4.819  38.811   3.321
53663W        W20204  38.520  16.053  11.982
53664W        W20205   5.584   4.984   0.193
53665W        W20206  13.138  28.236  12.380
53666W        W20207   9.119  35.703  14.355
53667W        W20208   4.637  30.184  11.477
53668W        W20209   3.917  22.220   0.424
53669W        W20210  19.745  43.382   0.427
53670W        W20211  15.804  38.077   0.149
53671W        W20212  15.100  27.163  14.087
53672W        W20213  15.160   6.763   4.011
53673W        W20214   6.216  26.337   0.445
53674W        W20215  36.492  31.520  13.054
53675W        W20216   6.899  44.690  12.613
53676W        W20217  42.882  34.633  10.736
53677W        W20218  33.947  24.921  13.907
53678W        W20219  16.662  18.593  12.051
53679W        W20220  15.590   4.605  13.896
53680W        W20221  25.716  43.048  12.924
53681W        W20222  33.010   5.883   1.015
53682W        W20223  38.984   5.126  10.672
53683W        W20224   3.343  14.586   0.830
53684W        W20225  29.121  43.307   4.381
53685W        W20226  43.085  24.894  14.089
53686W        W20227  11.926  25.134   3.083
53687W        W20228  38.828  19.787  13.845
53688W        W20229  41.481  10.290   3.363
53689W        W20230  43.794  10.577  14.533
53690W        W20231  43.450  17.892  11.041
53691W        W20232  12.068  26.457   3.215
53692W        W20233   1.274  16.147  14.838
53693W        W20234  30.452  29.159   2.659
53694W        W20235  18.009  12.182   3.834
53695W        W20236  12.162  25.922  12.379
53696W        W20237  31.876  28.974  14.518
53697W        W20238  33.615  44.019   4.732
53698W        W20239  20.812  43.165  12.756
53699W        W20240   6.465  31.737   2.111
53700W        W20241  20.114  30.681   4.800
53701W        W20242  44.256  35.399   3.137
53702W        W20243  22.692  41.389   4.160
53703W        W20244   2.754  20.257  14.533
53704W        W20245  44.056  29.940   0.446
53705W        W20246  23.750  37.370   2.222
53706W        W20247  12.322  16.686  12.571
53707W        W20248  41.379  35.186   3.359
53708W        W20249  42.827  43.722  13.268
53709W        W20250  40.547  29.685   2.138
53710W        W20251  12.609   8.784  14.439
53711W        W20252   7.362  14.782   4.055
53712W        W20253  29.966  37.274   1.646
53713W        W20254  44.851  35.321  14.431
53714W        W20255   4.306  38.663  13.542
53715W        W20256  26.587  32.659  10.561
53716W        W20257  22.107  13.097  12.072
53717W        W20258   6.772   4.639   2.339
53718W        W20259  27.615   6.912  11.927
53719W        W20260  13.273  44.872   4.470
53720W        W20261  13.792  38.379   3.755
53721W        W20262  12.763  14.547   4.550
53722W        W20263  30.464  18.013  10.504
53723W        W20264  14.190   0.461   1.681
53724W        W20265   2.659  42.622   3.885
53725W        W20266   1.048  12.856   2.602
53726W        W20267  18.754   0.116  14.140
53727W        W20268  22.784   5.347  14.021
53728W        W20269  30.466  20.172   1.344
53729W        W20270  18.143  27.120   4.668
53730W        W20271  33.618   1.138   1.242
53731W        W20272  35.419  18.316  12.010
53732W        W20273   3.266  40.802   3.270
53733W        W20274  22.621  33.404  11.856
53734W        W20275   5.980  18.397  11.065
53735W        W20276  24.704   8.753  10.744
53736W        W20277  10.397  16.804  12.537
53737W        W20278  44.553   9.808   2.793
53738W        W20279  26.203  35.322   1.049
53739W        W20280  29.546  11.950  12.602
53740W        W20281  27.201  14.283   3.062
53741W        W20282  14.648  40.537  11.054
53742W        W20283  17.571  34.634   1.339
53743W        W20284  42.917  42.843   1.402
53744W        W20285   5.177  42.932  14.510
53745W        W20286  14.606  35.601   0.730
53746W        W20287  22.568  27.964   1.456
53747W        W20288  35.049  17.092   0.214
53748W        W20289  37.238  29.274   2.623
53749W        W20290   4.336  34.076  10.771
53750W        W20291  19.112  21.189  13.992
53751W        W20292  40.631  30.434  13.623
53752W        W20293   6.850  26.198  14.299
53753W        W20294  22.677  21.838   1.382
53754W        W20295   3.107  33.609  14.888
53755W        W20296  27.734  14.208   1.206
53756W        W20297  13.360  34.134  13.844
53757W        W20298  20.319  40.804   0.303
53758W        W20299  43.338  11.911   0.269
53759W        W20300  11.630   5.731  10.957
53760W        W20301  36.282  26.882  12.075
53761W        W20302   9.401  13.278  10.396
53762W        W20303  12.258  18.202   3.726
53763W        W20304  30.288  18.791  11.728
53764W        W20305  25.945  28.731  11.124
53765W        W20306  44.515   8.855   2.700
53766W        W20307  40.485   8.809   3.034
53767W        W20308   7.945  17.843   2.119
53768W        W20309   1.259  16.761   4.180
53769W        W20310  31.716   0.381  14.072
53770W        W20311  41.288  16.662  14.517
53771W        W20312   8.178  17.929  12.500
53772W        W20313  39.382  37.455  13.083
53773W        W20314  14.652   8.912   4.022
53774W        W20315  11.325  38.810   1.260
53775W        W20316  10.412  37.895  14.095
53776W        W20317  24.636  10.908   0.350
53777W        W20318  30.603   2.469  13.081
53778W        W20319  35.559   7.893  13.438
53779W        W20320  16.085  22.793  13.880
53780W        W20321  38.288   6.765   0.279
53781W        W20322   0.896  30.484  11.549
53782W        W20323  36.332  14.375  12.383
53783W        W20324  42.737  19.367  13.257
53784W        W20325  24.155   1.267  14.282
53785W        W20326  38.122  22.448  11.133
53786W        W20327  30.577  19.517   3.201
53787W        W20328  15.340  27.730  12.843
53788W        W20329  14.909  24.226  12.311
53789W        W20330  21.014  13.292   3.268
53790W        W20331   5.755  28.476   1.253
53791W        W20332  31.595  35.937  10.590
53792W        W20333  16.190  20.744  12.322
53793W        W20334  15.773  32.484  14.991
53794W        W20335   8.422  38.618   0.358
53795W        W20336   8.798  21.533  13.319
53796W        W20337  13.328   1.752   3.155
53797W        W20338  43.938   9.602   2.325
53798W        W20339   1.906  44.595   2.615
53799W        W20340  40.819  13.752   1.901
53800W        W20341  11.155  44.819  13.321
53801W        W20342  27.712  33.027  12.143
53802W        W20343  31.372   4.390  12.853
53803W        W20344   0.913  42.738   2.833
53804W        W20345  15.154  11.131  11.514
53805W        W20346  38.280   3.194  12.659
53806W        W20347  41.759  33.336   0.962
53807W        W20348  41.102  18.037   4.581
53808W        W20349  25.662  15.755   1.329
53809W        W20350  12.213  26.145   1.418
53810W        W20351  28.361   2.995   3.609
53811W        W20352  22.887  22.459   3.614
53812W        W20353   5.081  10.727  11.664
53813W        W20354  26.370  23.095   0.812
53814W        W20355  44.995  18.101  14.730
53815W        W20356  25.576  21.225   3.315
53816W        W20357  30.859  15.490  13.390
53817W        W20358  16.145  35.318   0.345
53818W        W20359  37.789  18.502   1.001
53819W        W20360  41.252  16.643  11.412
53820W        W20361  24.747   0.945   2.984
53821W        W20362   3.386  38.833   0.257
53822W        W20363   3.588  21.266  13.446
53823W        W20364  43.842  21.760  11.948
53824W        W20365  14.791  16.321  11.194
53825W        W20366   6.698  14.614  12.322
53826W        W20367  20.749  23.901  12.022
53827W        W20368  15.734  30.025   0.823
53828W        W20369  28.445   1.622   2.990
53829W        W20370  22.561  29.166  12.045
53830W        W20371  30.636  18.829  14.269
53831W        W20372  36.435  27.653   2.327
53832W        W20373   7.053  24.707  13.352
53833W        W20374  14.540  24.773   2.110
53834W        W20375  15.668  40.261  14.916
53835W        W20376  36.481  36.377  11.632
53836W        W20377   9.998  11.678  12.644
53837W        W20378  18.311   1.548  14.896
53838W        W20379  36.428   7.242  13.764
53839W        W20380  10.380  30.586  12.003
53840W        W20381  22.675  11.370   3.964
53841W        W20382  35.658  34.654   2.259
53842W        W20383  28.172  37.631  12.940
53843W        W20384   6.929  40.415   2.722
53844W        W20385   9.135   4.397   0.573
53845W        W20386  43.405   0.259   3.714
53846W        W20387  25.408  43.058  11.245
53847W        W20388  37.387  11.397  13.210
53848W        W20389  36.381   1.857  12.463
53849W        W20390  27.088  31.052  14.767
53850W        W20391  36.221   0.022   2.735
53851W        W20392  10.893  39.171   2.594
53852W        W20393  12.988  31.634   0.188
53853W        W20394  40.898  28.453  13.504
53854W        W20395  20.808  19.190   0.976
53855W        W20396  38.761  21.815  13.818
53856W        W20397  19.053  14.672  13.456
53857W        W20398   8.150  33.443   3.212
53858W        W20399   1.527  31.536   3.166
53859W        W20400   7.614  24.040  14.958
53860W        W20401  37.406  29.092  13.577
53861W        W20402  43.871   1.998   3.389
53862W        W20403  16.920  18.910   2.383
53863W        W20404  19.076   5.714   4.697
53864W        W20405  17.340  33.207   1.838
53865W        W20406  21.209  18.580   0.258
53866W        W20407  14.098  19.167   1.854
53867W        W20408  43.193  41.176  10.155
53868W        W20409  21.245  33.104  10.737
53869W        W20410  33.624  13.402  14.444
53870W        W20411  14.631  12.742   4.945
53871W        W20412  29.845  10.598  12.374
53872W        W20413  20.455  29.754   1.352
53873W        W20414  26.499   0.026   4.557
53874W        W20415  24.294  17.180   1.321
53875W        W20416  22.597  16.050  13.617
53876W        W20417  25.057  36.559   4.554
53877W        W20418  28.039  36.847  13.937
53878W        W20419  33.320  11.703   2.376
53879W        W20420  12.776  30.551  13.537
53880W        W20421  31.582   4.857   3.198
53881W        W20422  21.413  27.024   2.667
53882W        W20423   8.478   8.124  13.130
53883W        W20424  43.505  33.139  13.964
53884W        W20425  43.471   8.954   4.006
53885W        W20426   6.183  17.327   5.001
53886W        W20427   5.100  15.481   0.949
53887W        W20428   3.193  14.689  14.883
53888W        W20429   1.246  28.522  10.712
53889W        W20430  26.187  36.803  12.226
53890W        W20431  16.567  13.890  10.058
53891W        W20432  25.542  19.847  14.323
53892W        W20433  19.083   7.656  12.784
53893W        W20434  23.489  10.495  13.027
53894W        W20435  15.603  42.558  11.915
53895W        W20436  37.479   0.284  10.884
53896W        W20437  22.596  37.114   1.871
53897W        W20438  33.114  20.663  13.766
53898W        W20439  22.685  34.101  13.068
53899W        W20440  20.085  19.810   4.032
53900W        W20441  29.945  30.135  14.007
53901W        W20442   6.179  20.165   3.778
53902W        W20443   5.237   2.904   1.754
53903W        W20444  27.767  23.857   0.883
53904W        W20445  39.712  33.128   4.397
53905W        W20446  19.604  32.377   3.728
53906W        W20447  39.349  31.984   1.006
53907W        W20448  43.154  22.743   2.400
53908W        W20449   0.163  12.646   3.055
53909W        W20450  43.449  24.125  11.025
53910W        W20451  12.103  36.706   2.285
53911W        W20452  41.049  41.995  13.531
53912W        W20453  29.980   2.996   0.003
53913W        W20454  38.331  13.981   5.214
53914W        W20455   7.392  14.987  13.514
53915W        W20456  40.582  22.745  11.061
53916W        W20457   2.367  33.568   4.780
53917W        W20458  24.585  32.104   2.109
53918W        W20459  17.961  16.981  12.762
53919W        W20460  20.182  11.178  11.996
53920W        W20461  23.768  24.217   0.871
53921W        W20462  31.450  14.655   5.420
53922W        W20463   2.817  44.480   0.923
53923W        W20464  36.047  21.568  13.914
53924W        W20465  40.799   5.105  12.973
53925W        W20466  26.442  13.798  13.529
53926W        W20467  42.654  44.668   3.597
53927W        W20468  37.008  18.238  11.595
53928W        W20469   5.445   7.923   3.481
53929W        W20470  33.177  35.498  14.279
53930W        W20471  28.190  27.156  11.660
53931W        W20472  29.556  10.835   1.541
53932W        W20473  24.683  22.673  10.932
53933W        W20474   7.460  44.386  13.916
53934W        W20475  44.250  16.842   2.952
53935W        W20476   6.514  15.151   0.857
53936W        W20477  14.680  27.426  13.335
53937W        W20478  24.497  15.197   4.852
53938W        W20479  37.300  15.693  10.093
53939W        W20480   8.868  15.291  13.310
53940W        W20481  43.937  12.675  12.383
53941W        W20482  23.724  10.814  13.412
53942W        W20483  16.920  36.295  12.868
53943W        W20484  25.783  42.865  13.809
53944W        W20485  22.617  30.839  12.547
53945W        W20486   0.362   1.517  14.725
53946W        W20487  19.420  24.705  14.900
53947W        W20488  42.987  12.903  14.331
53948W        W20489  22.836  11.346  13.389
53949W        W20490   6.137   8.166  11.727
53950W        W20491   5.644  37.210   3.557
53951W        W20492  33.640  13.538  10.242
53952W        W20493  18.724  32.060  11.162
53953W        W20494  25.673  32.962  14.930
53954W        W20495  41.024  35.607   0.165
53955W        W20496  22.480  10.899  11.140
53956W        W20497  41.684  16.044   0.764
53957W        W20498  21.820  21.323   3.698
53958W        W20499  23.976  42.809   0.455
53959W        W20500  16.356  37.458   3.710
53960W        W20501  20.825  34.542  13.976
53961W        W20502  32.894   2.078   1.735
53962W        W20503  14.910  38.070  14.459
53963W        W20504  10.406  40.987  11.569
53964W        W20505   7.365  12.177   1.141
53965W        W20506  34.656  24.143   4.740
53966W        W20507  10.410   4.322  11.407
53967W        W20508  25.946  14.648   0.911
53968W        W20509  23.820  19.908  11.046
53969W        W20510  26.613  28.271   0.286
53970W        W20511  15.518   3.420   1.684
53971W        W20512  24.760  31.411  13.059
53972W        W20513   6.748  30.470  14.056
53973W        W20514  39.630  40.064   3.649
53974W        W20515  20.205  26.523   0.561
53975W        W20516  22.085   3.223  14.546
53976W        W20517  39.582  28.950  14.812
53977W        W20518   5.589  27.999  11.492
53978W        W20519  34.543  35.106  14.767
53979W        W20520   1.036  36.412  12.624
53980W        W20521  21.273  20.076  14.786
53981W        W20522  44.929   9.605  10.481
53982W        W20523  13.267   0.243  12.525
53983W        W20524   0.817  19.293   0.360
53984W        W20525  29.970  14.755  11.962
53985W        W20526  43.260   2.519  11.203
53986W        W20527   6.170   6.201  14.250
53987W        W20528  29.789  16.804  14.866
53988W        W20529  14.014   1.410   3.902
53989W        W20530  39.501   9.425   1.438
53990W        W20531  35.329   3.362   3.051
53991W        W20532  43.390  25.780  12.891
53992W        W20533  44.268  22.535  14.807
53993W        W20534  33.878   7.160   4.170
53994W        W20535  42.094   8.815   0.967
53995W        W20536  30.619  11.142   3.826
53996W        W20537   7.561  10.411  12.867
53997W        W20538  27.409  37.439   1.721
53998W        W20539   7.756   1.538  11.466
53999W        W20540  35.446  17.196  11.724
54000W        W20541  41.798  35.338   3.644
54001W        W20542  41.853  34.077   1.675
54002W        W20543  22.797   6.225   3.251
54003W        W20544  43.550  29.161  10.721
54004W        W20545  14.606  14.043   4.313
54005W        W20546  40.906  10.715  12.850
54006W        W20547  23.708  33.649   1.759
54007W        W20548  43.872  40.491  13.176
54008W        W20549  41.049  42.186   3.705
54009W        W20550  14.783  24.539  13.626
54010W        W20551   9.521  13.777  13.550
54011W        W20552  24.791  42.892   2.865
54012W        W20553  22.851  10.843   2.590
54013W        W20554  37.651   5.688  13.358
54014W        W20555   1.041   9.726  13.575
54015W        W20556  42.743  32.412  12.251
54016W        W20557  10.887   8.909   0.780
54017W        W20558  17.545  20.366  11.660
54018W        W20559  36.127  28.865   4.275
54019W        W20560   5.301  33.056  11.045
54020W        W20561  14.462   0.698   1.286
54021W        W20562  14.490   8.587   1.926
54022W        W20563  38.711  34.417   3.682
54023W        W20564   3.350  17.119   2.724
54024W        W20565  20.970   7.398   0.080
54025W        W20566  39.086  11.165  12.931
54026W        W20567  19.260  19.844   3.167
54027W        W20568  37.670  39.546   0.249
54028W        W20569  19.651  23.732  11.112
54029W        W20570  43.436  28.738  14.825
54030W        W20571  12.283  17.496   1.478
54031W        W20572  43.021  23.174  12.933
54032W        W20573  43.901  15.866   2.812
54033W        W20574  11.206  41.251   3.639
54034W        W20575  36.029  36.418   2.377
54035W        W20576  25.543  10.725   2.252
54036W        W20577  36.361  37.044   1.450
54037W        W20578  34.091  20.746  11.067
54038W        W20579   7.912   1.427  14.951
54039W        W20580  15.421  44.539   0.108
54040W        W20581  17.452  39.068   4.569
54041W        W20582  16.727  41.799   1.279
54042W        W20583  14.808  39.913   3.547
54043W        W20584   2.992   1.750   1.737
54044W        W20585  21.634  33.856   2.789
54045W        W20586   3.184  25.095   0.188
54046W        W20587   6.676  30.725   4.178
54047W        W20588  18.801  41.098   2.127
54048W        W20589  39.282  31.453   1.788
54049W        W20590  44.071   0.095  13.430
54050W        W20591  19.381   7.205  13.978
54051W        W20592   7.965  44.380   3.819
54052W        W20593  17.122  24.592  13.859
54053W        W20594  14.632  32.208   1.296
54054W        W20595  20.646  21.300   1.227
54055W        W20596  34.632  37.074  11.130
54056W        W20597  30.868  44.419  13.429
54057W        W20598   3.674  33.055   1.397
54058W        W20599  42.925  28.946  13.958
54059W        W20600  38.238  34.718   5.110
54060W        W20601  28.577   9.297   3.371
54061W        W20602  12.007   1.518  13.972
54062W        W20603  39.252  40.382   3.454
54063W        W20604  25.801  30.086  14.723
54064W        W20605  13.148  29.219  12.437
54065W        W20606  11.267   6.680  13.291
54066W        W20607  43.929  40.957  11.887
54067W        W20608   5.746  44.706   3.174
54068W        W20609  29.437  32.078  10.811
54069W        W20610  37.875   3.892  12.006
54070W        W20611  21.032  42.751  10.732
54071W        W20612  13.561  15.801   0.343
54072W        W20613  34.887  36.765   3.497
54073W        W20614   8.797   4.649   5.057
54074W        W20615   9.748  29.659   3.846
54075W        W20616   5.170  18.800  10.804
54076W        W20617  38.797  18.795  10.856
54077W        W20618  36.377   9.847  13.896
54078W        W20619   6.660  30.359  13.566
54079W        W20620  22.559  37.606   2.800
54080W        W20621   7.536   6.340  14.227
54081W        W20622  30.878  32.509  11.160
54082W        W20623  29.975  31.068  10.703
54083W        W20624   1.664   8.306  11.240
54084W        W20625  41.281   4.300   3.277
54085W        W20626  41.388   2.916  13.246
54086W        W20627  33.864  12.477  13.698
54087W        W20628   6.611  39.296  13.055
54088W        W20629  29.224   6.015   2.793
54089W        W20630  17.126  37.618   0.945
54090W        W20631  40.235  30.548   1.315
54091W        W20632  34.008  14.609   3.717
54092W        W20633  33.899  36.246  11.629
54093W        W20634   9.686  29.185   3.632
54094W        W20635  40.327  24.198   1.766
54095W        W20636  16.584  25.064  14.452
54096W        W20637  37.873  34.063  13.756
54097W        W20638  19.128   4.750   0.878
54098W        W20639  27.199  17.243  13.886
54099W        W20640  19.774   9.883   0.318
54100W        W20641  18.877   9.162   2.894
54101W        W20642  10.749  20.486  13.137
54102W        W20643  44.542  31.099  14.480
54103W        W20644  13.104   2.733  11.396
54104W        W20645  41.414  43.381   4.427
54105W        W20646  14.123   0.733  11.131
54106W        W20647  27.171  11.821   0.299
54107W        W20648  16.324  32.134   1.072
54108W        W20649   6.577  12.306  11.579
54109W        W20650  42.313   2.620   3.198
54110W        W20651   1.720  39.286   3.318
54111W        W20652   9.317  16.794   3.234
54112W        W20653  26.482   9.838   4.297
54113W        W20654  40.968  24.259  13.948
54114W        W20655  19.563  16.610   2.044
54115W        W20656   5.723  29.664   4.806
54116W        W20657  44.761   1.874   4.196
54117W        W20658  40.415  18.947  11.619
54118W        W20659  41.941  43.997   1.827
54119W        W20660   2.509   0.862  14.050
54120W        W20661  38.894  13.943   0.690
54121W        W20662  15.381  10.757  14.717
54122W        W20663  31.901  38.064  13.768
54123W        W20664  13.794  17.167   2.433
54124W        W20665  41.264  23.232   1.371
54125W        W20666  37.246  13.911   9.538
54126W        W20667  29.465  10.334   2.305
54127W        W20668  26.211  31.518   1.648
54128W        W20669  26.548  30.601  12.107
54129W        W20670  18.985  10.792  12.051
54130W        W20671  32.646  18.691  10.707
54131W        W20672  25.748  12.779  11.818
54132W        W20673   7.293  44.529   1.359
54133W        W20674  12.102   9.170  12.427
54134W        W20675  21.524  25.896   0.315
54135W        W20676  39.012  26.611  11.008
54136W        W20677  20.779  10.837  11.471
54137W        W20678  34.802  44.263  13.649
54138W        W20679  21.686   7.027  10.824
54139W        W20680  19.420  15.334  14.008
54140W        W20681  43.869  34.910  12.453
54141W        W20682  31.114  12.328   1.931
54142W        W20683  36.880  18.605   1.478
54143W        W20684  23.245  15.363   4.177
54144W        W20685  32.834  30.125   1.401
54145W        W20686   3.925  21.062  10.506
54146W        W20687  41.382  40.786   0.863
54147W        W20688  26.468  21.190  11.950
54148W        W20689   0.764  13.178  10.547
54149W        W20690  42.420  17.517  13.506
54150W        W20691  13.282  40.915   0.901
54151W        W20692  22.942  26.516   3.332
54152W        W20693  10.344  23.060  14.470
54153W        W20694   4.591  11.190   4.555
54154W        W20695  32.664  17.104   0.715
54155W        W20696  40.249  34.133  13.911
54156W        W20697  17.121   1.416  12.924
54157W        W20698  32.036  41.766  13.791
54158W        W20699   2.944  41.873  13.628
54159W        W20700  20.109  41.255   0.420
54160W        W20701  20.773   8.404  14.018
54161W        W20702  35.171   2.504   1.743
54162W        W20703  28.723  11.850  13.185
54163W        W20704  36.923  44.438   4.337
54164W        W20705  18.705  38.955   5.008
54165W        W20706  19.497  43.204  13.986
54166W        W20707  43.335  15.628  13.178
54167W        W20708  30.121  14.061   4.498
54168W        W20709   1.992  28.065  13.804
54169W        W20710  20.022   3.074   4.541
54170W        W20711   7.768   5.637  12.005
54171W        W20712  18.589  30.633   4.305
54172W        W20713  10.886  36.486  11.927
54173W        W20714   9.887  37.377   1.494
54174W        W20715  11.412  18.594  12.907
54175W        W20716  39.673  39.789   2.751
54176W        W20717   7.547  38.949   1.921
54177W        W20718   8.189  44.354  14.577
54178W        W20719   1.068  27.857  12.196
54179W        W20720  23.178  34.986  12.844
54180W        W20721  12.946  15.645  12.651
54181W        W20722  38.916  39.025  14.041
54182W        W20723  15.642  43.988   1.288
54183W        W20724   4.984  39.349  12.774
54184W        W20725  38.283  13.436  12.995
54185W        W20726  17.193   5.181  12.340
54186W        W20727  39.404  10.354   3.636
54187W        W20728   2.004  11.646   3.546
54188W        W20729  24.904  41.225   3.123
54189W        W20730   8.710   0.204   2.412
54190W        W20731  23.748  42.518   3.208
54191W        W20732  37.607  41.316   0.053
54192W        W20733  34.151   8.831  13.019
54193W        W20734  43.496  35.465  13.816
54194W        W20735  33.469  21.190   2.274
54195W        W20736   3.858  40.145   4.130
54196W        W20737  23.199  41.281   3.442
54197W        W20738  40.545  19.271  11.240
54198W        W20739  24.551  19.313  12.348
54199W        W20740  12.505   0.081   0.456
54200W        W20741  39.348  16.667   0.236
54201W        W20742  19.260  33.831  13.997
54202W        W20743  19.482  12.230  10.559
54203W        W20744  16.997  21.488   5.035
54204W        W20745  42.099  32.978  13.005
54205W        W20746   3.342  19.711  14.584
54206W        W20747  34.884   0.316  10.744
54207W        W20748  22.079  39.353   2.402
54208W        W20749  43.064  24.620  11.657
54209W        W20750   9.349  26.830  14.433
54210W        W20751  37.317  28.973   3.640
54211W        W20752  13.883  33.897  12.091
54212W        W20753  26.966  25.225  10.655
54213W        W20754  27.754   2.916  12.802
54214W        W20755  27.930   0.962   2.049
54215W        W20756  25.939  32.977   2.473
54216W        W20757  41.437  29.154   2.079
54217W        W20758  16.267   8.762  14.319
54218W        W20759  25.507  25.909   2.173
54219W        W20760  34.592  17.500  11.616
54220W        W20761  26.639  29.410   3.813
54221W        W20762  39.113   1.840  14.853
54222W        W20763  23.462  11.231  13.598
54223W        W20764  21.199  22.240  14.378
54224W        W20765  43.913  31.488   3.367
54225W        W20766  43.859   7.569  14.826
54226W        W20767  23.921  26.551  12.520
54227W        W20768   4.419  38.964   4.518
54228W        W20769  12.032  13.303  11.197
54229W        W20770  14.398  41.486   3.702
54230W        W20771   0.413  11.756   1.831
54231W        W20772  24.505  15.122  14.289
54232W        W20773   7.662  43.113  11.207
54233W        W20774  43.922  10.044   1.370
54234W        W20775   5.190  39.873   2.677
54235W        W20776  18.837   3.273  13.137
54236W        W20777  21.941  36.019   3.977
54237W        W20778  17.938   8.256   3.834
54238W        W20779  43.375  31.459   0.901
54239W        W20780  41.024  14.673  11.654
54240W        W20781  27.218  17.122  11.201
54241W        W20782  26.492  18.029  13.533
54242W        W20783  26.102  25.164   3.604
54243W        W20784  35.393   7.754  12.157
54244W        W20785   8.050  23.595   2.146
54245W        W20786  12.695  20.143   0.393
54246W        W20787  32.650  42.942  10.526
54247W        W20788  19.685   6.870   0.281
54248W        W20789  26.064   6.112  14.493
54249W        W20790  41.429   1.724   1.896
54250W        W20791  23.254  34.079   2.494
54251W        W20792  15.936  13.088   1.711
54252W        W20793  27.928   5.466  12.926
54253W        W20794  20.903  24.369   3.567
54254W        W20795  29.576  15.183   1.785
54255W        W20796  41.761   0.362  11.984
54256W        W20797   8.403   8.594  11.505
54257W        W20798  44.412   0.826  10.762
54258W        W20799  43.055   2.059  11.003
54259W        W20800  17.302  42.331   2.406
54260W        W20801  27.179  21.664  13.982
54261W        W20802   0.680   1.253   3.581
54262W        W20803   9.622  28.399   0.853
54263W        W20804  20.951   4.979   2.165
54264W        W20805  26.031  21.437  12.062
54265W        W20806  16.747  29.966   3.161
54266W        W20807  10.523  35.582   2.253
54267W        W20808   2.492  43.806   2.918
54268W        W20809   7.058  36.636  14.908
54269W        W20810  37.027  11.779   4.479
54270W        W20811  21.586  20.139  11.751
54271W        W20812  20.476  43.813   4.223
54272W        W20813  18.266  23.411  13.503
54273W        W20814  23.645  19.152   1.296
54274W        W20815  15.313  10.100  13.357
54275W        W20816  23.429  16.536  12.988
54276W        W20817  44.980  18.821   2.793
54277W        W20818  37.700  26.581  14.517
54278W        W20819  11.226  13.277  12.390
54279W        W20820  37.099   1.422   2.526
54280W        W20821  24.993  32.150   0.247
54281W        W20822  18.662  24.006   2.902
54282W        W20823   2.650  28.619  10.727
54283W        W20824  18.957  13.590  10.708
54284W        W20825  12.948  34.684  14.302
54285W        W20826  43.648  42.968  14.716
54286W        W20827  20.920  33.372   0.202
54287W        W20828  42.769  12.360  13.853
54288W        W20829  39.972  43.094  12.365
54289W        W20830  38.012  30.507  11.745
54290W        W20831  41.169   3.720   0.923
54291W        W20832  30.947  36.919  13.052
54292W        W20833  27.915  16.694   0.030
54293W        W20834   3.426  40.488  12.964
54294W        W20835  16.540   7.952  14.130
54295W        W20836  10.761  33.121  13.042
54296W        W20837  14.709   3.761  14.149
54297W        W20838  11.235  29.153  12.240
54298W        W20839  42.037  30.961  11.500
54299W        W20840   2.174  33.480   0.046
54300W        W20841  44.495  23.219  10.459
54301W        W20842   6.528  16.107  10.348
54302W        W20843   3.029  12.590   0.747
54303W        W20844   7.806  32.430  11.482
54304W        W20845  21.577  30.729  14.969
54305W        W20846  43.312  32.397   3.621
54306W        W20847  11.390   6.954  11.785
54307W        W20848  11.372  24.207   3.206
54308W        W20849  33.081  17.135  14.281
54309W        W20850   1.419  24.437  12.987
54310W        W20851   6.743  11.709  12.478
54311W        W20852  30.047  17.972  11.315
54312W        W20853   1.716  29.959   2.815
54313W        W20854  42.015  21.010  12.611
54314W        W20855   6.985  18.463  13.825
54315W        W20856  12.112  17.108   4.644
54316W        W20857  19.725   3.983  14.332
54317W        W20858   1.940  36.441   1.464
54318W        W20859   1.551  16.579   0.920
54319W        W20860  44.400   1.404  12.176
54320W        W20861  26.673   7.436   2.191
54321W        W20862  19.675  16.659  12.648
54322W        W20863  20.086   8.741   0.659
54323W        W20864  36.714  24.484  13.628
54324W        W20865  24.585  31.443  10.832
54325W        W20866   5.319  12.240   0.676
54326W        W20867  34.634  43.453   1.419
54327W        W20868  23.415  18.730  14.842
54328W        W20869  44.789  35.892   0.350
54329W        W20870  24.024  10.625  14.309
54330W        W20871  20.672   7.422  13.884
54331W        W20872  10.768   8.446  13.901
54332W        W20873  10.202   0.707  10.669
54333W        W20874  25.964  23.141  13.618
54334W        W20875  27.037  17.636   2.313
54335W        W20876  19.307   0.184  11.182
54336W        W20877  11.103  30.438   3.271
54337W        W20878  32.972  10.715  14.110
54338W        W20879  29.966  26.596  13.836
54339W        W20880  17.962   8.103  13.101
54340W        W20881  35.613  24.247  13.507
54341W        W20882  13.090   1.335  10.757
54342W        W20883  11.833  15.318  13.551
54343W        W20884  13.293  20.800  12.919
54344W        W20885  22.230  30.137   4.532
54345W        W20886  30.831  28.521   0.960
54346W        W20887  21.238  41.277  12.103
54347W        W20888  20.142  26.219   4.599
54348W        W20889  28.119  44.864  14.442
54349W        W20890  25.603  31.774   3.924
54350W        W20891  33.081  39.369   1.329
54351W        W20892  40.377  31.914   1.461
54352W        W20893  21.534  10.416  11.566
54353W        W20894  33.121  41.931  10.866
54354W        W20895  25.249  41.244   2.683
54355W        W20896  26.641  44.746  10.639
54356W        W20897   4.816  21.084  11.153
54357W        W20898   6.553   2.964   3.184
54358W        W20899  12.808  14.601   4.033
54359W        W20900  25.695   2.903   4.812
54360W        W20901   6.087   7.679  12.467
54361W        W20902  16.785   1.196   3.322
54362W        W20903  41.140   6.883   1.787
54363W        W20904  19.599  22.575  12.497
54364W        W20905  23.211  12.257   3.293
54365W        W20906  33.888  44.906   1.349
54366W        W20907  13.925   5.420  12.376
54367W        W20908  40.888  28.834   3.605
54368W        W20909  31.140  37.272  10.348
54369W        W20910  35.145  25.670  10.741
54370W        W20911  40.803  28.685  13.062
54371W        W20912  32.913  38.878   2.307
54372W        W20913  19.622  41.023   1.766
54373W        W20914  41.175   4.679   1.842
54374W        W20915   9.431  39.931  14.353
54375W        W20916  14.223   8.811  12.909
54376W        W20917  16.217  19.703  10.721
54377W        W20918   4.291  27.972   2.804
54378W        W20919   4.294   8.873   4.851
54379W        W20920  26.110  33.908   4.518
54380W        W20921  28.990  23.593  11.122
54381W        W20922  17.238   7.228   2.241
54382W        W20923  29.440  24.443   3.723
54383W        W20924  28.044   9.363   3.616
54384W        W20925  21.252  34.102  10.561
54385W        W20926  24.079   5.209  13.609
54386W        W20927   0.922  33.436   1.364
54387W        W20928   4.898   0.872  13.581
54388W        W20929  22.176  13.850  13.172
54389W        W20930  16.850  35.976   3.603
54390W        W20931  26.125  11.233  11.288
54391W        W20932  36.465  37.920  13.514
54392W        W20933  33.087  29.905  10.747
54393W        W20934  34.746  22.653  11.075
54394W        W20935  20.065  21.049   3.150
54395W        W20936  35.166  32.101  11.288
54396W        W20937   1.228  38.313  14.381
54397W        W20938  17.824  39.523   0.324
54398W        W20939  14.195  26.228  12.958
54399W        W20940  10.888  26.325   3.274
54400W        W20941  37.997   0.428  13.156
54401W        W20942  27.038  40.976   1.283
54402W        W20943  13.290  43.775   1.661
54403W        W20944  32.266  28.718  12.038
54404W        W20945  42.588  23.038  14.794
54405W        W20946  20.136  20.505   2.604
54406W        W20947  37.974  19.539  11.956
54407W        W20948  32.916   4.286  12.028
54408W        W20949  42.031  16.119   3.868
54409W        W20950  25.592  13.432  14.963
54410W        W20951  28.635  22.530  10.617
54411W        W20952  37.312  37.355   0.425
54412W        W20953  26.458  36.174  10.919
54413W        W20954  25.039  21.786   3.240
54414W        W20955   8.320  39.938  11.666
54415W        W20956  30.401  35.497   3.835
54416W        W20957  20.890  27.219   2.702
54417W        W20958   9.292  39.675   0.879
54418W        W20959  17.089  13.087  12.136
54419W        W20960  34.300  31.478   2.846
54420W        W20961   8.720  15.153  13.989
54421W        W20962  43.788  26.164   2.220
54422W        W20963  12.399  14.346   1.319
54423W        W20964  17.620  21.734  12.772
54424W        W20965   9.997  16.819  10.506
54425W        W20966  43.252   4.125   4.356
54426W        W20967  43.728  41.425   4.163
54427W        W20968  20.468  33.820   1.357
54428W        W20969  38.935   1.916  10.370
54429W        W20970  39.991  28.972   3.564
54430W        W20971  37.884  29.183   3.239
54431W        W20972  33.658   3.914  12.060
54432W        W20973  26.467  40.967   4.768
54433W        W20974  27.182  42.758  14.903
54434W        W20975   7.844  33.053  10.656
54435W        W20976  37.623  28.570  11.598
54436W        W20977  19.878  31.655   3.269
54437W        W20978  13.687   2.012   4.088
54438W        W20979  22.669   8.196  11.681
54439W        W20980  34.848  40.433   0.287
54440W        W20981  29.406   2.318   0.551
54441W        W20982  15.915  14.648   9.812
54442W        W20983  20.159  25.164   0.487
54443W        W20984  16.719  18.717   0.634
54444W        W20985  33.185  26.039  11.712
54445W        W20986  36.029  44.154  12.543
54446W        W20987  29.547  17.529   1.978
54447W        W20988   1.109  37.802   0.308
54448W        W20989   8.794   7.232   2.174
54449W        W20990  43.044  24.265  10.689
54450W        W20991  13.638   1.000  14.372
54451W        W20992   5.217   6.787   2.145
54452W        W20993  10.786  14.602   2.850
54453W        W20994   7.710  21.534   4.689
54454W        W20995  16.220   4.347  14.710
54455W        W20996  36.926   8.805   3.329
54456W        W20997  41.304  33.412   3.702
54457W        W20998  10.096   0.688   4.577
54458W        W20999   9.929  15.154   3.928
54459W        W21000  38.597  33.448  13.470
54460W        W21001   8.711  20.891   3.536
54461W        W21002  10.731  26.206  10.489
54462W        W21003  19.696  10.776  10.748
54463W        W21004  38.502  35.831   4.611
54464W        W21005  17.833  25.788  12.816
54465W        W21006  22.377  27.397   2.272
54466W        W21007  15.178  35.623  13.863
54467W        W21008   4.398  23.813   0.990
54468W        W21009  43.261  24.858   0.335
54469W        W21010  41.908  27.970   0.262
54470W        W21011  21.431  40.696   3.123
54471W        W21012  29.066   9.082  13.329
54472W        W21013  25.456  36.895   2.461
54473W        W21014  31.344  27.687   1.109
54474W        W21015  18.206  16.794   1.719
54475W        W21016   7.470  32.350  11.110
54476W        W21017  18.101  31.882   5.005
54477W        W21018   1.935  14.024   4.994
54478W        W21019   2.443  18.432   4.299
54479W        W21020   2.938   9.507   2.750
54480W        W21021  26.756  20.545  10.306
54481W        W21022  19.765  18.599  11.708
54482W        W21023   3.894  15.247   3.856
54483W        W21024  31.630  30.588   1.677
54484W        W21025  24.766  17.507  12.259
54485W        W21026  35.813   3.892   3.762
54486W        W21027  19.578  16.921   3.024
54487W        W21028   9.140  15.279   2.920
54488W        W21029  22.511  42.014  14.362
54489W        W21030  14.649  14.609   0.962
54490W        W21031   4.966  30.568  11.387
54491W        W21032  10.479   8.760   4.290
54492W        W21033  16.729  26.977  12.972
54493W        W21034  40.813  19.222   0.836
54494W        W21035  18.655  10.128  11.949
54495W        W21036  27.984   8.234   0.655
54496W        W21037  27.507  35.443  14.514
54497W        W21038  42.481  36.980   1.473
54498W        W21039  37.766   7.258   0.212
54499W        W21040  20.193  15.522  13.974
54500W        W21041  18.575   3.640   3.656
54501W        W21042  16.682  31.688   0.230
54502W        W21043  35.197  12.813  14.216
54503W        W21044  28.026  43.937  11.347
54504W        W21045  19.225  21.934   4.063
54505W        W21046  28.522   9.284   3.878
54506W        W21047  42.449  21.360   0.768
54507W        W21048   8.337  31.086   2.202
54508W        W21049  17.253  36.429  12.508
54509W        W21050  10.825  31.628  14.977
54510W        W21051   8.739  30.194   3.815
54511W        W21052  28.124   2.041  11.675
54512W        W21053  40.767  19.827  10.741
54513W        W21054  18.477  17.003  12.880
54514W        W21055  15.160  34.019   1.275
54515W        W21056  11.811  36.364   1.187
54516W        W21057   5.949  21.673   4.122
54517W        W21058  15.549  13.299  11.664
54518W        W21059  17.636  14.228   1.394
54519W        W21060  23.562  30.968  12.957
54520W        W21061  28.961  15.899  14.729
54521W        W21062  31.525  23.951   2.344
54522W        W21063  16.463  23.262  11.772
54523W        W21064  40.078  37.139  13.050
54524W        W21065  27.355  32.249   4.962
54525W        W21066  31.628  24.902  11.896
54526W        W21067  29.226  38.087  10.956
54527W        W21068  39.372  23.025  10.704
54528W        W21069  29.450  16.862  12.439
54529W        W21070  43.474  38.775   4.021
54530W        W21071   5.437   1.011  14.325
54531W        W21072  18.993   3.003   1.873
54532W        W21073   2.420   7.580  12.285
54533W        W21074  38.115  17.234   3.192
54534W        W21075  12.846   7.819  12.666
54535W        W21076   9.720  42.402  12.503
54536W        W21077  38.493   9.825   1.913
54537W        W21078  17.574  34.636  13.369
54538W        W21079   7.979  19.175   2.304
54539W        W21080   9.212   2.453  14.799
54540W        W21081   2.765   7.176   4.259
54541W        W21082  43.972  37.373   0.532
54542W        W21083   9.165  34.740   2.061
54543W        W21084  27.846  28.037  12.773
54544W        W21085   1.696  39.212  11.917
54545W        W21086  35.812  17.868   1.785
54546W        W21087   5.895  44.001   3.703
54547W        W21088  12.933   4.970  11.325
54548W        W21089   5.198  17.408   4.595
54549W        W21090  22.108  39.353   3.865
54550W        W21091  21.035  26.591   0.635
54551W        W21092  10.079  38.019  14.477
54552W        W21093   2.820  33.624   2.861
54553W        W21094  36.519  32.519   1.444
54554W        W21095  17.689   3.175  14.737
54555W        W21096  23.642  11.696  13.983
54556W        W21097   5.231  31.187   3.561
54557W        W21098  18.512  42.796   2.458
54558W        W21099   4.266  41.926  11.739
54559W        W21100   5.509  33.170  10.045
54560W        W21101  42.959  22.982  11.207
54561W        W21102   9.323   0.796   4.159
54562W        W21103  10.200  23.466  13.481
54563W        W21104  43.356  34.680  14.949
54564W        W21105  18.156  14.610   0.026
54565W        W21106  10.277   1.578  10.892
54566W        W21107  24.676  27.945  11.132
54567W        W21108  31.065  20.953  12.433
54568W        W21109  31.397   1.702   1.218
54569W        W21110  10.401  27.513  10.273
54570W        W21111   0.421  27.429  11.102
54571W        W21112  42.398   6.663   2.176
54572W        W21113  10.350  10.242  14.581
54573W        W21114  12.709  29.631  13.085
54574W        W21115  20.140  16.729   3.066
54575W        W21116  22.483   3.413   4.510
54576W        W21117   2.437   3.187   2.696
54577W        W21118   0.539  43.926   2.873
54578W        W21119  42.745  33.978   1.921
54579W        W21120   5.700  41.008  11.520
54580W        W21121  32.949  38.590  12.468
54581W        W21122  25.624  23.957  14.855
54582W        W21123  30.958  28.073  13.547
54583W        W21124  44.514   9.926   0.311
54584W        W21125  39.039  41.814   3.322
54585W        W21126  13.279  17.481  11.025
54586W        W21127   8.162  39.348  12.613
54587W        W21128   8.389  36.030   0.692
54588W        W21129  11.293  27.066  14.445
54589W        W21130   7.761  11.021  11.162
54590W        W21131  28.869  10.808  11.429
54591W        W21132  43.600  27.446   1.260
54592W        W21133   8.622  29.106   0.451
54593W        W21134  27.262   3.031  11.035
54594W        W21135  37.903   6.636   2.704
54595W        W21136  37.194  25.632  10.503
54596W        W21137  37.732  10.801  13.948
54597W        W21138  17.055  35.154  11.253
54598W        W21139  40.601   5.472  14.538
54599W        W21140  29.530  20.302   4.649
54600W        W21141   4.663  39.231   0.799
54601W        W21142   5.778  39.848  12.826
54602W        W21143   0.307   6.720  13.410
54603W        W21144  22.558  29.425  10.685
54604W        W21145  13.207   2.058   3.905
54605W        W21146  31.820  14.372   5.114
54606W        W21147   6.679  12.354   2.655
54607W        W21148   4.823  13.194   3.676
54608W        W21149  19.769  36.592  12.255
54609W        W21150  16.473  12.063  11.695
54610W        W21151  25.332  18.510   0.329
54611W        W21152  11.756  18.670   0.243
54612W        W21153  10.321   9.305   2.778
54613W        W21154  28.399  12.849   9.747
54614W        W21155   4.163  41.816   0.233
54615W        W21156   1.742   9.464  11.180
54616W        W21157  39.545   9.263  11.475
54617W        W21158  30.450  17.149   3.158
54618W        W21159  20.309  36.334  13.460
54619W        W21160   7.460   0.366   1.327
54620W        W21161   0.358  17.539  11.198
54621W        W21162   4.675  37.394   2.128
54622W        W21163  20.684  38.325   3.345
54623W        W21164  14.218  20.155  12.579
54624W        W21165  36.453  30.403  13.421
54625W        W21166   3.476  14.197  12.875
54626W        W21167   4.787  23.682   2.686
54627W        W21168  11.931  29.529   0.922
54628W        W21169  25.488  31.875  14.089
54629W        W21170   7.205  22.181   3.877
54630W        W21171  28.167  33.281  10.766
54631W        W21172  13.207  26.693  14.080
54632W        W21173  42.963  33.361   3.801
54633W        W21174  37.462  12.690  14.077
54634W        W21175  42.515  37.883   0.833
54635W        W21176  25.851  38.900  10.584
54636W        W21177   3.155  30.866   0.372
54637W        W21178  25.118  12.138   4.565
54638W        W21179  19.164  37.997   0.157
54639W        W21180  14.285  16.821  12.066
54640W        W21181  35.467  15.054  12.053
54641W        W21182  42.375  26.025   1.405
54642W        W21183  43.545   2.077  11.192
54643W        W21184  36.625  36.634  13.049
54644W        W21185  33.105   3.683   4.035
54645W        W21186  35.067  16.236   3.119
54646W        W21187  38.469  41.344   3.710
54647W        W21188  20.319  27.603  13.425
54648W        W21189  37.909  44.211  14.971
54649W        W21190  22.430  32.492   2.913
54650W        W21191   4.567  10.698  11.708
54651W        W21192  13.533  13.060   4.173
54652W        W21193  12.656  13.112   1.723
54653W        W21194  17.542  38.796  14.169
54654W        W21195  29.075  37.770  14.721
54655W        W21196  11.032  31.868   3.218
54656W        W21197  24.528  20.254   1.861
54657W        W21198  21.466  25.478   2.167
54658W        W21199  30.604  41.463  12.048
54659W        W21200  44.971  20.768   0.448
54660W        W21201  30.497  28.036  11.115
54661W        W21202  25.737  30.612   0.858
54662W        W21203  26.730  24.584   2.343
54663W        W21204  17.517  38.484  13.284
54664W        W21205  43.301   0.934  14.336
54665W        W21206   0.229   2.852   3.859
54666W        W21207  17.258  38.887  14.997
54667W        W21208  32.371  27.594   3.982
54668W        W21209  24.894  21.013   2.521
54669W        W21210   9.211  10.613  13.458
54670W        W21211  27.006  39.055   0.199
54671W        W21212  14.142  28.957   4.568
54672W        W21213  25.783   6.658   5.472
54673W        W21214  13.066  10.126  13.066
54674W        W21215   8.305   0.493  11.037
54675W        W21216   3.954  31.055  12.076
54676W        W21217  31.945  19.508   1.929
54677W        W21218   3.491  32.159   3.176
54678W        W21219  41.797  29.118   2.887
54679W        W21220  40.015  13.656   1.360
54680W        W21221  28.438  23.639   3.729
54681W        W21222   8.294  43.387   3.768
54682W        W21223  40.283   5.973  10.796
54683W        W21224  11.997  41.244   3.304
54684W        W21225  22.013  25.471  14.960
54685W        W21226  24.958   4.760   0.444
54686W        W21227  19.217  38.805  13.980
54687W        W21228  14.832  41.026  11.065
54688W        W21229  18.181  20.282  13.444
54689W        W21230  40.903  37.894   4.146
54690W        W21231  18.580   7.664  12.845
54691W        W21232  32.681  32.876  12.500
54692W        W21233  38.542  28.727   2.099
54693W        W21234  12.959  33.895  14.073
54694W        W21235  34.135  21.633  11.248
54695W        W21236  37.706  25.209   4.734
54696W        W21237  18.049   4.196   3.349
54697W        W21238  12.898  43.289   1.480
54698W        W21239  32.852  34.719  12.670
54699W        W21240  35.894  21.126   4.692
54700W        W21241   1.760  19.647  11.359
54701W        W21242  33.725  38.641   3.236
54702W        W21243  23.283  40.471  13.893
54703W        W21244   8.147  34.496   0.941
54704W        W21245   1.567   8.900  14.657
54705W        W21246  22.802  16.355   0.467
54706W        W21247   9.948   5.088  11.239
54707W        W21248  12.347  31.351   1.941
54708W        W21249  17.161  19.868   0.787
54709W        W21250  35.875  28.992   3.182
54710W        W21251  41.947  36.987  13.480
54711W        W21252   0.551   1.898  13.019
54712W        W21253   6.763  30.201   4.139
54713W        W21254   7.274  27.548  12.178
54714W        W21255  35.987  44.376  13.016
54715W        W21256   2.319  34.578  12.356
54716W        W21257  35.999   6.271  10.673
54717W        W21258  37.548  10.493  13.396
54718W        W21259   3.262  23.185   1.012
54719W        W21260  16.096  37.131  13.350
54720W        W21261  41.158   6.559   2.634
54721W        W21262  19.190  43.965  11.034
54722W        W21263  33.988  43.211   2.195
54723W        W21264   8.327  35.135   0.154
54724W        W21265  26.713  38.028  11.228
54725W        W21266  24.058  21.607  10.572
54726W        W21267  42.484  42.475  10.916
54727W        W21268  10.085  19.794   2.376
54728W        W21269   0.002  28.991  10.770
54729W        W21270  26.214  10.755  11.424
54730W        W21271  13.528  16.010  10.584
54731W        W21272  32.562  28.690   3.346
54732W        W21273  18.707  33.157   3.175
54733W        W21274  42.379  29.333  12.088
54734W        W21275   6.547  28.429   1.692
54735W        W21276  36.529   3.741   0.877
54736W        W21277   6.818   5.542   5.027
54737W        W21278   3.412  22.736   2.907
54738W        W21279   0.244   8.174   3.723
54739W        W21280  28.173  43.016  13.039
54740W        W21281  14.134  19.153   2.775
54741W        W21282  20.460  24.094   1.855
54742W        W21283  30.875  27.974  14.105
54743W        W21284   6.519   2.943   0.914
54744W        W21285  28.598  33.021   0.950
54745W        W21286  31.389  15.393   2.474
54746W        W21287  43.488  19.822  12.856
54747W        W21288  31.675  17.665  10.751
54748W        W21289  40.438  27.476  12.468
54749W        W21290  14.217  29.908  10.230
54750W        W21291  14.569  40.263  13.983
54751W        W21292  12.088   2.771  11.553
54752W        W21293  12.687   7.013  14.845
54753W        W21294   2.844  31.357   1.240
54754W        W21295  31.163  29.838  12.173
54755W        W21296  22.255  43.459  13.040
54756W        W21297  29.681   8.391   0.458
54757W        W21298  40.052  42.443   2.769
54758W        W21299  13.956  31.942   3.073
54759W        W21300  33.620  38.171   2.386
54760W        W21301  16.524  20.272   4.535
54761W        W21302  10.798  37.583   1.425
54762W        W21303  21.113  20.562  14.920
54763W        W21304   3.931  13.634  11.687
54764W        W21305  19.775  17.197   1.275
54765W        W21306  40.087  40.252   3.626
54766W        W21307  33.092   3.991  13.469
54767W        W21308   1.731  23.662  12.581
54768W        W21309  20.509  16.040   1.375
54769W        W21310  26.077  32.383  10.662
54770W        W21311   5.672  28.500  14.534
54771W        W21312  30.993  31.519  11.309
54772W        W21313  29.501  29.188  12.453
54773W        W21314  31.401  36.371   4.325
54774W        W21315  18.763  23.613  10.911
54775W        W21316  42.438  24.941   4.708
54776W        W21317   1.889   6.154  10.770
54777W        W21318  21.244  35.625   4.385
54778W        W21319  19.307  30.730   2.218
54779W        W21320  37.037  41.347   2.976
54780W        W21321  24.965   0.300  13.522
54781W        W21322   9.884  29.396  14.542
54782W        W21323   3.821  21.874   1.611
54783W        W21324  10.630  36.801   2.847
54784W        W21325  10.319  26.658   3.671
54785W        W21326  16.184   8.297  11.561
54786W        W21327  40.579   7.457  12.947
54787W        W21328   6.018   3.822   4.523
54788W        W21329  10.572  31.083  14.798
54789W        W21330  39.232  25.702   4.057
54790W        W21331  34.610  32.818   1.931
54791W        W21332  22.945  27.156   0.660
54792W        W21333   3.766  32.197  14.817
54793W        W21334  33.696  40.916  11.572
54794W        W21335  29.095  29.047  13.747
54795W        W21336   3.262   4.886   3.865
54796W        W21337   1.966  23.220   0.800
54797W        W21338   0.812  28.472  14.356
54798W        W21339  36.836  39.051   3.066
54799W        W21340  43.381  26.493   2.657
54800W        W21341  26.792   9.905   0.578
54801W        W21342  25.059  15.321   2.745
54802W        W21343   0.316  29.382  11.971
54803W        W21344  40.505   5.548  10.987
54804W        W21345  12.166  26.215   4.591
54805W        W21346   1.026  44.030  11.200
54806W        W21347   7.307  38.846   3.113
54807W        W21348  21.655  36.612   2.363
54808W        W21349   1.205  34.820   3.677
54809W        W21350  36.131  19.854  14.419
54810W        W21351  28.605  39.494   4.495
54811W        W21352  12.751  15.235   0.280
54812W        W21353  30.964  18.280  11.597
54813W        W21354  14.162   6.877   3.177
54814W        W21355   9.356  42.389   4.911
54815W        W21356  20.276  24.639  10.882
54816W        W21357  34.820  10.296  13.087
54817W        W21358  32.055  10.616  10.745
54818W        W21359  14.333  35.868  11.222
54819W        W21360  31.337  44.317   3.319
54820W        W21361  19.621  17.606   3.373
54821W        W21362  38.498  18.842   2.693
54822W        W21363   7.731  44.287   1.307
54823W        W21364  28.618  43.275  13.854
54824W        W21365  37.311  41.341  10.558
54825W        W21366  35.076  44.419   0.834
54826W        W21367  39.781  39.418   3.080
54827W        W21368  37.990  27.061  11.905
54828W        W21369  15.189  20.273   4.349
54829W        W21370  22.777  21.932  12.932
54830W        W21371  32.193   0.842  12.453
54831W        W21372  22.045  24.403  14.358
54832W        W21373  36.305   9.627  11.009
54833W        W21374  34.789  26.038   0.431
54834W        W21375  26.502   2.184   4.192
54835W        W21376  25.939  37.931  11.658
54836W        W21377  26.745  31.629   0.296
54837W        W21378  12.409  29.365   0.798
54838W        W21379  20.681   6.070  14.422
54839W        W21380   5.372   3.638  12.849
54840W        W21381  41.343  44.289  13.990
54841W        W21382  22.723   0.402   4.308
54842W        W21383  35.442   4.737   3.405
54843W        W21384   9.875  42.854   2.178
54844W        W21385  30.653  28.733  13.825
54845W        W21386  24.198  28.708  10.759
54846W        W21387  28.147  27.688   0.679
54847W        W21388   3.175  24.263  11.917
54848W        W21389  13.523  41.577   1.991
54849W        W21390  32.597  22.074  14.929
54850W        W21391  34.385  21.661   2.316
54851W        W21392  19.238  11.692  10.602
54852W        W21393  37.343  36.027  12.002
54853W        W21394  39.582   5.133  12.299
54854W        W21395  36.094   8.875  12.051
54855W        W21396  17.703  22.454  12.101
54856W        W21397  42.255  10.291   1.397
54857W        W21398  30.693  28.487   3.259
54858W        W21399  14.795  36.756   1.788
54859W        W21400   8.875  16.483  12.865
54860W        W21401   9.550  44.084  11.055
54861W        W21402  37.799  40.873   3.823
54862W        W21403   9.759  10.682   0.282
54863W        W21404  13.284  30.255   5.409
54864W        W21405  31.502   1.367  10.967
54865W        W21406  16.276  38.099  12.465
54866W        W21407  29.029  34.881  13.392
54867W        W21408  17.087  35.860   0.851
54868W        W21409  24.761  17.538   0.848
54869W        W21410  23.222  37.910   0.329
54870W        W21411  29.415  31.836  12.930
54871W        W21412   9.862  26.755   1.450
54872W        W21413   0.103  13.279  13.985
54873W        W21414  43.914   8.176   3.253
54874W        W21415  13.394  15.356  14.460
54875W        W21416  29.486  34.513   4.126
54876W        W21417   6.172   9.195  11.039
54877W        W21418  10.381  42.282  12.724
54878W        W21419  40.376   5.486   3.275
54879W        W21420  12.167  22.742  14.901
54880W        W21421  34.408  31.273   1.177
54881W        W21422  39.337  26.190   2.822
54882W        W21423   6.679   0.787  14.952
54883W        W21424  33.047  39.593  14.975
54884W        W21425   8.099  13.171  13.332
54885W        W21426  16.398  28.893   1.312
54886W        W21427  29.207  34.507  11.576
54887W        W21428  28.409  38.352  12.329
54888W        W21429  32.901  35.417  13.091
54889W        W21430  43.542  23.161  12.997
54890W        W21431   9.815  18.330  13.621
54891W        W21432  19.758  35.009  10.792
54892W        W21433  25.567  26.521  11.609
54893W        W21434  25.405  35.408  14.768
54894W        W21435  21.274  28.589   2.798
54895W        W21436   3.426   8.446  12.227
54896W        W21437  31.975  35.975  12.525
54897W        W21438  41.021  35.171  14.259
54898W        W21439   5.945  14.280   2.719
54899W        W21440  11.443   3.016  11.181
54900W        W21441  22.240  34.958   3.188
54901W        W21442  27.695  27.260   3.975
54902W        W21443  37.874  32.088  10.581
54903W        W21444  11.297   3.967  14.028
54904W        W21445  37.059  14.384  11.511
54905W        W21446  29.091  37.472  14.293
54906W        W21447  41.931   6.960   0.089
54907W        W21448  26.700  28.650   3.306
54908W        W21449  33.455  16.595  13.837
54909W        W21450   8.458  44.478  12.980
54910W        W21451   1.971   7.572   3.691
54911W        W21452  43.017  24.400  14.042
54912W        W21453   8.442  35.308  11.157
54913W        W21454  14.284  15.750   2.240
54914W        W21455  24.710  39.820   4.037
54915W        W21456  24.149   1.257   1.381
54916W        W21457  12.578  14.901  12.769
54917W        W21458  29.731   2.597   0.248
54918W        W21459  27.292  43.326   2.835
54919W        W21460   6.931  29.575   2.855
54920W        W21461  41.745  40.551   0.468
54921W        W21462  29.655   6.740  14.423
54922W        W21463  15.770  27.623   1.854
54923W        W21464  24.078  35.542   3.105
54924W        W21465   1.550   6.146  14.964
54925W        W21466  33.983   7.640  10.524
54926W        W21467   8.702  16.243  11.602
54927W        W21468  13.721   0.454   0.295
54928W        W21469  25.014  23.609  14.320
54929W        W21470   7.740  27.888   5.038
54930W        W21471   1.539  36.060  13.967
54931W        W21472  19.817  28.025   4.809
54932W        W21473  23.080  20.287  13.451
54933W        W21474  21.447   3.602   4.147
54934W        W21475  21.479  20.622  10.917
54935W        W21476  21.622  12.707   2.253
54936W        W21477   3.179  34.397  14.379
54937W        W21478  10.411  14.794   2.213
54938W        W21479   6.885  43.012  11.701
54939W        W21480  16.772  37.368   1.502
54940W        W21481  33.139  43.940  10.705
54941W        W21482  21.668  25.408   3.964
54942W        W21483   3.150  34.021  11.184
54943W        W21484  30.534   6.837   2.077
54944W        W21485  19.711   7.808   3.809
54945W        W21486  10.838  37.394   4.551
54946W        W21487  11.233  19.240   3.208
54947W        W21488  20.919  16.708   4.619
54948W        W21489  14.693  44.981   2.190
54949W        W21490  10.790  36.049   2.270
54950W        W21491  39.372  13.539  13.964
54951W        W21492  11.056  15.177  11.413
54952W        W21493  39.845   6.269   2.817
54953W        W21494  11.851  44.036   0.852
54954W        W21495   1.500  13.655   1.503
54955W        W21496  44.140  17.059   5.020
54956W        W21497  34.464  42.066  10.735
54957W        W21498  37.767  25.715  14.423
54958W        W21499  33.359   6.994   4.146
54959W        W21500  42.131  30.715  11.946
54960W        W21501  38.035  28.911  11.557
54961W        W21502  11.123  43.835  12.090
54962W        W21503  34.618  16.698   3.496
54963W        W21504  26.916  38.657  14.405
54964W        W21505  13.310  40.891   4.541
54965W        W21506  22.602  23.199   3.370
54966W        W21507  19.367  11.362   1.529
54967W        W21508  36.526  23.898   1.709
54968W        W21509  33.246   5.916   1.998
54969W        W21510  41.843   5.590   2.351
54970W        W21511   0.043  41.857  14.429
54971W        W21512  13.244  38.924  13.575
54972W        W21513  13.283  11.747   4.425
54973W        W21514  15.144  28.433   3.638
54974W        W21515  25.553  40.365   2.769
54975W        W21516  28.757  26.462  14.793
54976W        W21517  43.881   1.736   0.479
54977W        W21518  20.061   6.778  14.422
54978W        W21519  39.425   7.846   4.704
54979W        W21520  31.052  31.416  13.447
54980W        W21521   0.553  12.642   5.039
54981W        W21522  25.012  28.583  11.507
54982W        W21523  32.986  32.871  13.547
54983W        W21524  14.555  38.593  12.445
54984W        W21525  35.767  22.684  12.903
54985W        W21526  29.451  31.168  10.731
54986W        W21527  41.278  28.455   3.677
54987W        W21528  30.621   2.884   4.795
54988W        W21529   4.668  44.848   0.888
54989W        W21530   2.450  29.611   1.244
54990W        W21531  18.684  10.095   3.751
54991W        W21532   6.706  36.987  14.785
54992W        W21533  10.181  37.393   0.634
54993W        W21534  44.950   1.069  14.716
54994W        W21535  40.478  43.191   1.355
54995W        W21536  15.669  17.142  10.163
54996W        W21537  27.604   5.213  10.788
54997W        W21538  18.717  19.719   2.416
54998W        W21539  35.887  41.209  12.061
54999W        W21540  30.027  27.363  11.521
55000W        W21541  33.414   1.938  11.896
55001W        W21542  38.327  27.043   4.690
55002W        W21543   0.253  17.062   2.286
55003W        W21544  21.831  39.423  13.818
55004W        W21545  35.168  19.145  12.942
55005W        W21546  37.629   7.170  10.800
55006W        W21547  20.690  24.531   1.630
55007W        W21548  24.119   1.973  10.654
55008W        W21549  36.050  38.344   3.555
55009W        W21550   3.920   7.198  13.384
55010W        W21551  27.085  25.137   3.973
55011W        W21552  18.515  27.646  10.800
55012W        W21553  24.632   4.856  14.579
55013W        W21554  26.221  16.110   3.723
55014W        W21555   4.849  12.693   3.528
55015W        W21556   1.943  31.016   0.876
55016W        W21557  30.356  18.445  13.545
55017W        W21558  39.002  32.681   2.819
55018W        W21559   0.724  19.733   1.279
55019W        W21560  31.593  44.024  10.671
55020W        W21561   4.438  31.645  11.689
55021W        W21562  19.813  14.343  13.863
55022W        W21563  43.707  42.600   0.807
55023W        W21564  36.571  22.122   2.134
55024W        W21565  12.789  17.193   3.594
55025W        W21566  40.811  12.677  10.277
55026W        W21567  21.718   5.350   1.821
55027W        W21568  41.588  11.895  13.058
55028W        W21569  12.203  24.657   3.165
55029W        W21570  32.827  11.073  11.506
55030W        W21571  27.356  14.689  12.996
55031W        W21572  15.318  14.681  11.460
55032W        W21573  30.434   6.766   3.844
55033W        W21574   5.918  39.021   0.791
55034W        W21575  34.444  32.801   1.435
55035W        W21576   3.009  17.168  13.491
55036W        W21577   1.046  16.705  12.936
55037W        W21578  38.444   2.619   4.850
55038W        W21579  27.132   2.719  13.403
55039W        W21580  22.801  31.172   1.200
55040W        W21581  17.327  16.208   3.655
55041W        W21582  14.648  34.433  12.495
55042W        W21583  11.827   2.748  12.583
55043W        W21584  24.701   1.835  11.211
55044W        W21585  29.142  16.654   2.226
55045W        W21586  24.080  39.346   3.720
55046W        W21587  34.888  15.978   0.947
55047W        W21588  19.923  35.918   4.611
55048W        W21589  25.023  12.306  14.468
55049W        W21590  10.818  42.153  11.504
55050W        W21591  10.352   0.343   4.267
55051W        W21592  37.628  37.345   1.320
55052W        W21593  15.796  40.734   3.834
55053W        W21594  43.077  14.508  14.589
55054W        W21595  14.697   0.175  11.538
55055W        W21596   7.727   2.658   4.486
55056W        W21597  13.752  34.859   4.843
55057W        W21598  37.158  27.440  10.739
55058W        W21599  23.731  40.091   3.130
55059W        W21600  22.226  11.852  12.175
55060W        W21601   4.402   8.606   2.862
55061W        W21602  39.039  23.972   2.964
55062W        W21603  21.635  11.638  14.749
55063W        W21604  44.845  40.759   2.719
55064W        W21605  21.995  23.573  13.318
55065W        W21606  26.110  14.565  14.121
55066W        W21607  39.007   7.728  14.505
55067W        W21608  18.816  22.557   2.265
55068W        W21609   4.522  18.712   4.881
55069W        W21610  36.892  34.569   3.118
55070W        W21611  41.542  18.306  12.793
55071W        W21612  34.860  26.401   2.357
55072W        W21613  36.973  40.770   0.335
55073W        W21614  14.252   0.513   0.160
55074W        W21615  38.858  37.610  14.364
55075W        W21616  12.588   0.497   2.249
55076W        W21617  42.259  31.990   2.120
55077W        W21618  11.917  41.225   2.236
55078W        W21619   9.474  42.884  13.904
55079W        W21620  18.587  29.544  12.507
55080W        W21621  28.198  35.960  14.403
55081W        W21622   4.611   1.656   1.155
55082W        W21623  39.306   6.622  13.904
55083W        W21624  28.145  17.799  13.815
55084W        W21625   7.787  38.341   0.025
55085W        W21626  36.454  41.568   1.254
55086W        W21627  41.473   2.281   3.696
55087W        W21628   1.112  25.156  12.341
55088W        W21629  12.908  14.691  13.571
55089W        W21630  33.164  12.327   0.037
55090W        W21631   6.171  40.245  11.621
55091W        W21632   7.685  19.519  12.024
55092W        W21633  41.542  14.709   0.425
55093W        W21634   4.482   0.688  14.284
55094W        W21635  31.091  30.340  12.696
55095W        W21636  40.012   4.914  12.485
55096W        W21637  42.264  21.651   4.808
55097W        W21638   6.696  34.955   1.792
55098W        W21639  14.035  37.838   2.571
55099W        W21640  39.880  11.102   0.312
55100W        W21641  20.251  25.512  12.203
55101W        W21642  25.641  32.440  12.801
55102W        W21643  17.111  13.405  10.633
55103W        W21644  31.924  29.682  11.471
55104W        W21645  44.489  14.215   4.136
55105W        W21646  17.693  28.098  13.006
55106W        W21647   4.678   7.384  11.033
55107W        W21648  27.592  36.469  10.435
55108W        W21649  43.843  22.346  11.246
55109W        W21650   5.626  20.151  11.188
55110W        W21651  32.153  36.864  10.551
55111W        W21652  22.264  29.051  14.467
55112W        W21653  28.200   1.509   0.389
55113W        W21654   3.205  29.545   0.821
55114W        W21655  41.942   4.730  12.200
55115W        W21656  35.314  30.692  13.013
55116W        W21657  23.564  19.715   4.685
55117W        W21658   1.103   0.234  13.473
55118W        W21659  39.935  14.513   1.210
55119W        W21660  43.793  26.659  12.300
55120W        W21661   7.745  11.586   0.689
55121W        W21662  33.284   3.619   9.567
55122W        W21663   6.842   3.825  13.891
55123W        W21664  14.776  17.498  11.699
55124W        W21665  35.156  41.748  10.942
55125W        W21666  12.683  39.812   4.053
55126W        W21667  43.013  10.260   4.495
55127W        W21668   7.822  20.497   3.216
55128W        W21669  23.025  19.782   4.434
55129W        W21670  14.245  33.126  14.845
55130W        W21671  32.480  43.433  12.613
55131W        W21672  31.835   5.729  13.791
55132W        W21673  13.083  44.909  11.578
55133W        W21674  19.535  13.617   2.359
55134W        W21675  19.261  22.096  12.356
55135W        W21676  43.016  16.062  13.843
55136W        W21677  27.896  10.729   4.741
55137W        W21678   4.383   3.340   0.977
55138W        W21679  43.776  12.370   4.395
55139W        W21680  40.842   5.152   4.250
55140W        W21681  29.357  38.521  12.042
55141W        W21682   9.969   2.840  14.288
55142W        W21683   7.316  24.985   2.894
55143W        W21684  38.335  14.333  13.240
55144W        W21685  13.331  30.128   2.284
55145W        W21686   8.934   1.510  12.545
55146W        W21687   0.834  43.945   1.847
55147W        W21688   0.534  11.630   0.524
55148W        W21689   9.848  22.611   2.139
55149W        W21690  12.697  42.214   1.785
55150W        W21691  12.846  14.193   3.729
55151W        W21692   8.650  32.600   3.256
55152W        W21693  37.442   1.236  14.593
55153W        W21694  31.321  40.563   4.195
55154W        W21695  43.937  20.367   4.413
55155W        W21696  40.409  21.073  12.485
55156W        W21697  17.611   3.240   4.230
55157W        W21698  43.567  26.948  13.600
55158W        W21699  10.130  26.164   4.397
55159W        W21700  42.521  43.722  14.602
55160W        W21701  26.672  21.132   0.920
55161W        W21702  38.586  42.139  11.976
55162W        W21703  13.681   1.403   1.259
55163W        W21704  27.914  35.645   3.136
55164W        W21705  42.850  33.600  10.734
55165W        W21706  38.285  39.774  12.469
55166W        W21707  17.167  38.491   4.846
55167W        W21708  16.072  16.732  14.257
55168W        W21709  12.384  42.786  14.476
55169W        W21710   4.814  34.140   0.209
55170W        W21711  27.660  14.700   2.476
55171W        W21712  39.773  43.811   2.723
55172W        W21713  39.687  21.087   4.135
55173W        W21714  26.416   6.980   2.310
55174W        W21715  24.093  13.230  11.732
55175W        W21716  35.185  25.355  11.989
55176W        W21717  29.604  22.299  11.525
55177W        W21718  43.390  39.419   2.900
55178W        W21719   7.316   3.741  10.789
55179W        W21720   9.005  13.783   2.363
55180W        W21721  11.686  12.628  12.060
55181W        W21722  23.242  26.135   3.153
55182W        W21723  34.055  17.195   3.916
55183W        W21724   4.524  25.749  11.213
55184W        W21725  42.523  24.006   2.564
55185W        W21726  20.373  44.757   2.245
55186W        W21727  44.391  34.915   4.780
55187W        W21728  32.006  23.450   4.637
55188W        W21729  38.393   1.347   0.017
55189W        W21730  32.200   4.474   2.544
55190W        W21731  19.682   5.824   3.098
55191W        W21732  35.513   5.522   4.621
55192W        W21733  23.564  11.155   4.204
55193W        W21734  20.143   5.661  12.945
55194W        W21735  40.944  12.958  10.703
55195W        W21736  32.907  22.134  12.325
55196W        W21737  32.365  11.177   4.281
55197W        W21738  44.420  27.658   3.429
55198W        W21739  42.926   4.706   2.480
55199W        W21740  38.552  31.513   1.147
55200W        W21741  15.997  41.361  14.883
55201W        W21742  16.853  28.302  12.151
55202W        W21743  25.045  17.152   1.807
55203W        W21744  39.264   6.303   2.797
55204W        W21745  34.963  19.685  11.239
55205W        W21746   3.198  28.450   3.297
55206W        W21747  23.106  28.165   2.686
55207W        W21748  22.927   0.895   4.258
55208W        W21749  29.253  37.392  11.273
55209W        W21750  35.975  29.128  13.562
55210W        W21751  25.046  34.588   4.430
55211W        W21752   7.467  11.106  10.656
55212W        W21753  30.095  32.443  11.951
55213W        W21754  40.294   5.505  10.517
55214W        W21755   3.732  32.424   9.734
55215W        W21756   7.228  16.677   1.426
55216W        W21757  15.643  12.758   1.464
55217W        W21758  30.924   6.759  10.913
55218W        W21759  10.249  12.578   0.035
55219W        W21760  31.384   7.016   2.228
55220W        W21761  20.392  29.254   1.481
55221W        W21762   6.727   2.699  12.474
55222W        W21763  22.501  18.806  12.112
55223W        W21764  31.520  13.320  13.000
55224W        W21765   8.443  29.385   3.732
55225W        W21766   1.919  10.743   3.802
55226W        W21767   9.249  16.067   4.545
55227W        W21768  18.736   3.720  11.649
55228W        W21769  41.685   6.205  12.257
55229W        W21770  41.722  35.005  13.770
55230W        W21771  13.440  13.068   2.759
55231W        W21772  10.799   8.204  14.367
55232W        W21773   1.292  17.800   4.194
55233W        W21774   8.039   8.738   5.064
55234W        W21775   6.138   1.730   4.746
55235W        W21776   4.249  16.186  14.880
55236W        W21777  18.051  26.297   4.452
55237W        W21778  26.158  31.119   4.510
55238W        W21779  20.211  18.530  14.530
55239W        W21780  42.925  31.685   0.303
55240W        W21781  33.234  10.981   0.631
55241W        W21782  36.900  38.553   3.247
55242W        W21783  12.207  22.668   3.319
55243W        W21784   8.772  35.061  14.860
55244W        W21785  34.324  29.143   3.678
55245W        W21786  37.922  31.044   4.076
55246W        W21787  44.250  10.201  12.889
55247W        W21788  21.965   4.894  12.998
55248W        W21789   1.947  11.653  14.795
55249W        W21790   7.205  26.495   0.237
55250W        W21791   5.802  18.143   2.632
55251W        W21792  36.858  27.050   4.588
55252W        W21793   0.065  42.081   2.652
55253W        W21794  32.518  21.773   4.566
55254W        W21795  19.986  33.239  10.045
55255W        W21796  15.674  10.252   2.127
55256W        W21797  13.725  22.454  14.774
55257W        W21798   1.553  12.536   0.394
55258W        W21799   9.345  41.059   3.633
55259W        W21800   5.647  39.313   2.339
55260W        W21801  43.591  17.257   1.848
55261W        W21802  29.704   6.737  13.350
55262W        W21803  15.629  12.390  13.574
55263W        W21804   8.836  15.584   0.834
55264W        W21805  37.038   9.103   2.916
55265W        W21806  23.115  20.982  14.759
55266W        W21807  13.462  14.926   0.399
55267W        W21808  40.589  10.161   3.537
55268W        W21809  11.886  41.534  12.896
55269W        W21810  13.090  29.021   1.408
55270W        W21811  43.279  16.809   3.239
55271W        W21812  18.137   9.571   1.273
55272W        W21813  18.556  24.299  11.121
55273W        W21814  10.932  31.689  11.175
55274W        W21815  44.798  29.983   3.440
55275W        W21816  21.077   3.936   0.242
55276W        W21817  31.011  25.484  11.415
55277W        W21818  17.802   7.160   0.263
55278W        W21819  21.763  19.143  14.373
55279W        W21820  23.637   7.385   0.385
55280W        W21821  31.058  15.596   2.838
55281W        W21822   7.181  22.216   1.960
55282W        W21823  23.524  27.567   0.368
55283W        W21824  36.784  32.902   2.935
55284W        W21825   3.714  15.121   1.306
55285W        W21826   3.708  34.242   2.937
55286W        W21827  24.116   0.976  12.233
55287W        W21828  32.100  37.383   3.073
55288W        W21829  17.161  30.696  11.264
55289W        W21830  24.235  33.605  13.843
55290W        W21831  18.524  42.851   0.383
55291W        W21832  10.091  39.886  13.199
55292W        W21833  24.732  13.080  14.943
55293W        W21834   2.864  23.127  14.267
55294W        W21835  11.275  14.836   2.816
55295W        W21836   7.084  36.587  12.452
55296W        W21837  24.060  24.421   0.335
55297W        W21838  24.660   3.827  12.552
55298W        W21839  42.691  32.581  14.354
55299W        W21840  33.351  35.238   5.082
55300W        W21841  29.207  38.545   2.851
55301W        W21842  15.817  17.229   3.273
55302W        W21843  37.469   6.845  11.689
55303W        W21844  28.623  38.052   0.356
55304W        W21845  32.103  30.207   2.753
55305W        W21846  13.535  15.331  11.992
55306W        W21847   2.172  26.580   3.726
55307W        W21848   8.441  17.550  11.934
55308W        W21849  16.110  42.651   2.768
55309W        W21850   4.740  28.517  14.385
55310W        W21851  27.802  37.277  12.902
55311W        W21852  44.985  16.323   0.822
55312W        W21853  40.020  40.907  14.057
55313W        W21854  25.101  13.188  13.103
55314W        W21855  44.621  11.729  11.514
55315W        W21856  22.401  38.910   1.463
55316W        W21857  26.676  28.721  13.429
55317W        W21858  25.923  43.770   3.706
55318W        W21859  44.417   3.140  13.313
55319W        W21860   7.313  31.611   2.290
55320W        W21861  21.287  32.604  14.811
55321W        W21862   8.777   9.307  12.993
55322W        W21863  23.834  39.849   2.603
55323W        W21864  13.743  39.374   1.245
55324W        W21865  32.673   0.322   4.162
55325W        W21866  21.234  27.633   0.274
55326W        W21867  26.058  12.932   3.261
55327W        W21868  17.830   8.334   1.050
55328W        W21869  22.218  34.932   4.567
55329W        W21870  18.598  13.840   2.578
55330W        W21871   8.541   2.448  12.306
55331W        W21872  17.018  30.305  11.558
55332W        W21873  16.356  44.997  10.705
55333W        W21874   8.578  30.363   3.362
55334W        W21875   8.762  31.975   2.162
55335W        W21876  21.721   2.671  14.774
55336W        W21877  15.195   1.431  10.972
55337W        W21878  28.672  33.894   2.242
55338W        W21879  44.477  35.946  11.879
55339W        W21880   5.873  36.029   2.903
55340W        W21881  29.758  10.697  11.030
55341W        W21882  42.450  10.774   4.119
55342W        W21883   8.407   1.935   0.474
55343W        W21884  25.842  37.582   1.280
55344W        W21885   6.656  37.873   1.654
55345W        W21886   5.690  13.246   4.864
55346W        W21887  43.060  11.249  13.596
55347W        W21888  35.059  20.673  11.279
55348W        W21889  43.934  42.679  13.490
55349W        W21890   9.420   6.162  11.147
55350W        W21891  38.413  10.830   1.739
55351W        W21892  10.739   1.316  14.234
55352W        W21893   9.066   3.634  13.476
55353W        W21894  39.559   5.688   4.260
55354W        W21895  41.017  27.476   2.297
55355W        W21896  26.097  31.451   0.748
55356W        W21897  30.623  37.292  11.721
55357W        W21898  20.618  43.233   4.970
55358W        W21899  33.498  22.843   3.708
55359W        W21900  31.950   7.680   0.352
55360W        W21901  20.503  20.072   0.239
55361W        W21902  34.833  34.893  10.546
55362W        W21903  21.209  44.387  13.281
55363W        W21904  41.862  18.805  13.441
55364W        W21905  11.751  21.850   0.676
55365W        W21906  31.218  34.530  10.476
55366W        W21907  12.058  40.431  14.915
55367W        W21908   3.311  11.271   0.721
55368W        W21909   3.917  32.397   1.918
55369W        W21910  28.117  10.620   1.934
55370W        W21911   6.161  17.193   0.743
55371W        W21912   6.181  34.103  14.516
55372W        W21913   2.946  39.814   2.938
55373W        W21914   3.762  10.040   2.608
55374W        W21915   5.387  32.674   1.829
55375W        W21916  11.374   2.448   3.777
55376W        W21917  38.935  41.851  11.210
55377W        W21918  26.875  12.853  14.493
55378W        W21919  11.557  22.089   0.240
55379W        W21920  10.144  12.285   3.210
55380W        W21921   0.520  26.473  11.873
55381W        W21922  18.206  15.470   2.181
55382W        W21923  24.509  38.995  12.016
55383W        W21924   6.163  21.107   1.828
55384W        W21925   5.432  16.662  14.752
55385W        W21926  31.191  11.595  12.959
55386W        W21927  31.773   9.327  12.582
55387W        W21928  38.104   6.918   0.728
55388W        W21929   7.898  23.772   3.268
55389W        W21930  20.771  26.943  13.895
55390W        W21931   5.433  40.517   2.442
55391W        W21932  29.642  11.503   3.760
55392W        W21933  40.838  16.037   2.580
55393W        W21934  19.811  22.427   3.723
55394W        W21935  21.392  20.812   3.181
55395W        W21936   6.258  30.781   2.646
55396W        W21937   8.846  13.749  11.358
55397W        W21938  30.591  32.552  12.834
55398W        W21939  13.648  21.776  12.421
55399W        W21940  18.970  32.730   2.423
55400W        W21941  26.008   3.321  11.107
55401W        W21942  25.821   7.118  14.900
55402W        W21943  35.880  22.947  11.235
55403W        W21944   3.049  13.105   0.851
55404W        W21945  10.668  44.712  14.484
55405W        W21946  38.990   1.650  12.970
55406W        W21947  32.799  10.697   1.449
55407W        W21948  26.679  15.070   3.650
55408W        W21949   8.086   4.015   3.637
55409W        W21950  38.480  13.255  10.718
55410W        W21951  13.078  20.633   2.721
55411W        W21952  22.482  23.261  10.952
55412W        W21953  41.398   7.687   4.103
55413W        W21954  22.878  22.608  11.441
55414W        W21955  11.710  26.873   3.683
55415W        W21956  37.794  36.142   2.214
55416W        W21957   9.602  22.216   2.348
55417W        W21958  28.875   2.786   1.308
55418W        W21959  32.387  23.966  12.084
55419W        W21960  27.444  40.990   2.413
55420W        W21961  38.976  24.394   2.376
55421W        W21962  22.526   7.667   4.360
55422W        W21963  17.051  42.486  13.602
55423W        W21964   8.927  20.163   0.833
55424W        W21965  19.850  25.290   1.441
55425W        W21966  37.718  40.933   4.946
55426W        W21967  41.789  22.712  13.345
55427W        W21968   3.569  22.232  10.031
55428W        W21969  35.057  41.835   1.682
55429W        W21970   9.985  21.702  14.002
55430W        W21971   3.490   5.174   2.619
55431W        W21972  11.929  32.425   5.223
55432W        W21973  29.407  41.753  11.608
55433W        W21974  25.075  25.392  10.782
55434W        W21975   8.284  31.703   4.632
55435W        W21976   7.388   8.832  11.540
55436W        W21977  12.768  19.729   1.843
55437W        W21978  29.618  15.821  12.170
55438W        W21979  28.411  27.219   1.384
55439W        W21980  40.907  36.042  14.891
55440W        W21981  17.070  24.456  13.337
55441W        W21982  18.252  24.731  12.813
55442W        W21983  40.845  15.219  14.399
55443W        W21984  37.968  42.632   3.377
55444W        W21985  10.621   0.259   2.867
55445W        W21986   7.331  23.730   1.291
55446W        W21987  13.525  29.032   1.070
55447W        W21988  21.743   7.155   0.634
55448W        W21989   9.393  31.846   0.980
55449W        W21990  38.519  14.301  11.430
55450W        W21991  17.078  41.749  11.125
55451W        W21992  37.301  15.297   9.745
55452W        W21993  27.078  28.570  12.724
55453W        W21994  29.092   9.656   1.762
55454W        W21995   1.111   4.521  13.063
55455W        W21996   1.801   5.719  12.441
55456W        W21997  41.645  35.185   0.925
55457W        W21998  44.947  30.645   4.255
55458W        W21999  28.405   7.941   1.413
55459W        W22000  41.116  30.285  12.940
55460W        W22001  12.164  33.065  12.797
55461W        W22002   7.840  28.586  14.292
55462W        W22003   5.183   7.669   4.364
55463W        W22004  13.089   6.396   1.279
55464W        W22005   5.252   5.923  12.804
55465W        W22006   7.154   6.317   0.772
55466W        W22007  30.392  29.639  12.630
55467W        W22008   7.474   3.320  14.382
55468W        W22009  26.339   6.381   0.932
55469W        W22010  21.643   2.851   3.835
55470W        W22011  14.794   4.511   2.757
55471W        W22012  39.054  33.660   5.057
55472W        W22013  25.649  22.824   1.904
55473W        W22014  34.394  32.099  11.839
55474W        W22015  37.616  23.174   1.763
55475W        W22016  37.866  15.484   3.048
55476W        W22017  39.890  27.247  14.781
55477W        W22018  23.635  44.227  11.061
55478W        W22019  21.617   1.753   4.086
55479W        W22020   8.332  33.699  14.020
55480W        W22021  13.114  37.478   4.019
55481W        W22022  11.359  37.560  10.645
55482W        W22023   6.202  40.810   0.473
55483W        W22024   9.990  35.407  12.451
55484W        W22025  29.162  42.911  10.173
55485W        W22026  11.827  37.609   4.580
55486W        W22027  36.786  40.899   1.761
55487W        W22028  22.577  27.610  11.149
55488W        W22029  39.985  11.477  11.970
55489W        W22030   3.415  12.104  14.891
55490W        W22031   6.154   0.367  13.608
55491W        W22032  20.242  17.042  11.107
55492W        W22033  27.934  18.279   2.872
55493W        W22034  30.656  11.617   2.653
55494W        W22035  13.240  11.607  12.496
55495W        W22036  14.740   6.883   0.580
55496W        W22037  33.636   9.691  12.143
55497W        W22038  44.572  18.763   1.537
55498W        W22039  29.330  41.985   2.096
55499W        W22040  41.376  12.076  11.627
55500W        W22041  37.970  35.076   2.368
55501W        W22042  23.975  20.079  13.365
55502W        W22043  15.320  31.894   1.851
55503W        W22044   3.949  33.938  14.798
55504W        W22045  33.545  40.461   4.541
55505W        W22046  26.778  18.759  10.853
55506W        W22047   4.692  22.471   3.224
55507W        W22048   9.913  35.347  11.114
55508W        W22049  44.513  30.218   0.453
55509W        W22050  24.505   4.309  12.444
55510W        W22051  21.239  37.208  13.991
55511W        W22052  33.293   4.836  10.659
55512W        W22053  35.776  41.964   3.999
55513W        W22054   0.788  36.039   0.451
55514W        W22055  13.687   0.706   3.702
55515W        W22056  27.410  14.985   4.381
55516W        W22057  30.661  38.939   0.278
55517W        W22058  35.689  10.130   0.271
55518W        W22059   1.861  35.028   0.501
55519W        W22060  26.080   6.218  13.993
55520W        W22061  21.912  23.525  11.456
55521W        W22062  23.000  28.656  11.519
55522W        W22063  14.591  13.656   1.482
55523W        W22064  30.578  24.594   0.145
55524W        W22065  23.385  38.111  11.262
55525W        W22066  35.534   8.909   0.791
55526W        W22067   2.048  12.830   1.485
55527W        W22068  43.470   0.044  11.209
55528W        W22069  10.179   7.930  13.093
55529W        W22070  11.826  15.623   4.656
55530W        W22071  24.959  36.738  13.052
55531W        W22072   2.589   7.344   0.379
55532W        W22073  22.393  15.369  11.429
55533W        W22074  27.078   2.325  12.619
55534W        W22075   9.629  18.765  12.338
55535W        W22076  43.368   5.343  12.217
55536W        W22077  29.359  18.602  13.872
55537W        W22078  34.021  39.083  10.716
55538W        W22079   0.321   6.295  14.378
55539W        W22080  22.908  39.480   4.551
55540W        W22081  23.478  43.029  11.579
55541W        W22082  10.775  19.020   2.343
55542W        W22083  24.928  17.124   4.987
55543W        W22084  25.970  37.832   2.622
55544W        W22085   0.878  27.564   1.931
55545W        W22086   7.841   8.436  14.347
55546W        W22087  18.844  14.570  11.611
55547W        W22088   1.224  25.980  13.984
55548W        W22089  29.153   2.175  12.563
55549W        W22090   1.103   0.717  10.558
55550W        W22091  35.547  11.323  14.788
55551W        W22092  34.929   3.252   2.365
55552W        W22093  18.822  39.163  13.964
55553W        W22094  35.447  28.549   1.851
55554W        W22095  42.746  22.507  12.915
55555W        W22096   3.581  35.953  11.839
55556W        W22097  38.034  43.872   0.941
55557W        W22098   3.339  39.388  13.022
55558W        W22099   3.837  33.498   4.202
55559W        W22100  40.501  40.326   4.129
55560W        W22101  29.219  22.696  14.845
55561W        W22102   1.231  15.881   2.336
55562W        W22103   2.674  19.279   4.060
55563W        W22104   1.850  17.234  11.154
55564W        W22105  42.064  16.100  12.398
55565W        W22106  41.104  44.280   2.261
55566W        W22107  14.063   2.794   0.791
55567W        W22108  39.973  18.367  14.619
55568W        W22109  43.103  10.251  13.995
55569W        W22110   9.896  21.575   3.615
55570W        W22111  31.894  18.074  12.946
55571W        W22112  15.387  29.128  14.276
55572W        W22113  30.189  42.548  13.468
55573W        W22114  43.483  14.609   2.204
55574W        W22115  13.156  18.205   4.524
55575W        W22116  39.114   5.154   4.924
55576W        W22117   9.867  43.326  12.419
55577W        W22118  32.790   6.688  12.686
55578W        W22119   9.649   0.188  12.719
55579W        W22120   3.923   6.859   1.688
55580W        W22121  36.135  34.607   0.481
55581W        W22122  21.674  23.704   3.218
55582W        W22123  13.423  30.474   9.890
55583W        W22124  39.821  14.371  14.473
55584W        W22125   0.837  14.354  14.047
55585W        W22126  18.058  15.038   1.261
55586W        W22127  12.471  44.600  14.185
55587W        W22128   8.916  12.725  14.870
55588W        W22129   2.599  41.211  12.881
55589W        W22130  28.241   2.693  11.115
55590W        W22131  42.605  21.285  10.613
55591W        W22132  31.826  11.291  11.483
55592W        W22133  11.221   0.911   2.929
55593W        W22134  40.760   7.842  13.953
55594W        W22135  40.574  29.825  12.463
55595W        W22136  10.544   8.065  11.607
55596W        W22137  34.568  30.111  13.536
55597W        W22138  33.687  11.070  10.977
55598W        W22139  31.783  42.505   2.406
55599W        W22140   3.405  44.085   3.061
55600W        W22141  11.650  34.851   3.856
55601W        W22142  20.095  36.377   2.666
55602W        W22143  28.524   6.657  13.810
55603W        W22144   3.313  26.177  12.263
55604W        W22145  17.182  19.102   3.778
55605W        W22146   8.013  18.945   3.490
55606W        W22147  32.394   0.025  12.865
55607W        W22148  42.332  43.293  14.385
55608W        W22149  29.223  39.094   4.035
55609W        W22150  42.292   7.734   0.638
55610W        W22151  35.794  35.383  11.201
55611W        W22152   7.071  33.564  10.778
55612W        W22153  14.111  36.116  12.677
55613W        W22154  18.022  43.360  14.943
55614W        W22155   5.424  19.555   0.457
55615W        W22156   7.316  26.430   4.663
55616W        W22157  27.629  44.436  12.008
55617W        W22158   8.334  15.774   4.195
55618W        W22159  37.603  11.145  12.817
55619W        W22160  38.714  21.085   3.181
55620W        W22161   7.814  19.498  11.045
55621W        W22162   5.307  19.271  11.663
55622W        W22163  42.894  12.108   2.868
55623W        W22164  26.483  15.840   4.089
55624W        W22165  41.907   4.512  11.478
55625W        W22166  23.082   9.656  10.865
55626W        W22167  22.213  33.683   0.051
55627W        W22168  21.718  22.611   4.334
55628W        W22169  27.443   3.764  14.889
55629W        W22170  29.978  13.695   0.733
55630W        W22171  43.494   7.146   2.035
55631W        W22172   2.929  30.063   3.646
55632W        W22173  42.771  28.166  13.451
55633W        W22174   3.425  17.811  12.979
55634W        W22175  16.614  12.229   3.774
55635W        W22176  21.726   3.506  10.307
55636W        W22177   8.387  44.177   0.483
55637W        W22178  35.809  19.514  11.728
55638W        W22179  41.090  28.663  12.630
55639W        W22180  20.677   7.007   4.236
55640W        W22181   9.760  35.310  12.892
55641W        W22182  15.311   8.075   2.325
55642W        W22183  37.536  20.449   3.553
55643W        W22184  26.494  16.611   4.544
55644W        W22185  14.680   5.946  13.445
55645W        W22186   9.863   3.401   2.320
55646W        W22187  12.186  18.238  13.824
55647W        W22188  38.892  43.795   4.078
55648W        W22189  38.821  31.176   1.920
55649W        W22190   0.237  30.237   3.569
55650W        W22191  42.288  25.974   0.458
55651W        W22192  44.430  40.824  12.665
55652W        W22193   0.383  28.235  12.969
55653W        W22194  14.493  23.506   0.981
55654W        W22195  34.352  44.117   1.952
55655W        W22196  21.556   0.695   4.348
55656W        W22197  10.840  41.033   4.820
55657W        W22198  14.930  35.161  12.866
55658W        W22199  42.402  38.383   2.123
55659W        W22200  27.095  28.437  13.218
55660W        W22201  31.521  24.690   3.564
55661W        W22202  36.451   6.262  12.946
55662W        W22203  42.746  17.585   0.082
55663W        W22204  16.792  16.010  11.678
55664W        W22205  30.413  15.518   2.559
55665W        W22206  32.115  21.528  12.996
55666W        W22207  28.802  31.350  14.277
55667W        W22208  38.420   3.350   2.957
55668W        W22209  31.352  15.729  12.738
55669W        W22210  28.517  32.563  11.543
55670W        W22211  22.158   3.202  11.118
55671W        W22212  37.369  24.516   2.198
55672W        W22213  36.342   1.492   3.124
55673W        W22214  14.827  39.170   3.285
55674W        W22215  15.653  39.484  14.511
55675W        W22216  32.532  22.988  11.984
55676W        W22217   9.362  27.958   0.847
55677W        W22218  31.824   7.662  10.812
55678W        W22219   1.704  14.137   1.616
55679W        W22220   7.734   6.450  10.607
55680W        W22221  30.191  26.959   1.484
55681W        W22222  29.597   1.941  10.697
55682W        W22223  35.976   4.818  14.970
55683W        W22224   0.456  21.126  13.430
55684W        W22225  38.593  34.849   1.429
55685W        W22226   5.753  36.475  12.305
55686W        W22227   9.517  42.086   9.729
55687W        W22228   3.987  31.478  13.031
55688W        W22229  23.004  23.033   1.894
55689W        W22230   0.065  44.354   3.694
55690W        W22231  44.501  34.525   3.021
55691W        W22232  37.391  14.321   4.970
55692W        W22233  38.475   6.357   4.432
55693W        W22234  31.061  10.862  11.966
55694W        W22235  42.181  36.871   4.590
55695W        W22236   1.682  25.027  13.512
55696W        W22237  41.950  40.093   3.571
55697W        W22238  27.700   7.878   4.380
55698W        W22239  22.701  22.687   0.010
55699W        W22240   0.898  14.244   4.521
55700W        W22241   5.479  22.346  14.465
55701W        W22242  10.849   4.384  14.802
55702W        W22243  37.151  25.000   3.582
55703W        W22244  29.880  16.518   2.909
55704W        W22245   1.343  26.926   1.656
55705W        W22246  27.111  31.569   1.001
55706W        W22247  27.486  42.521   4.074
55707W        W22248  38.413  23.710   4.792
55708W        W22249  25.174   7.199  14.313
55709W        W22250  43.749  31.016  10.681
55710W        W22251  34.469  38.707   1.543
55711W        W22252  23.958  17.677   2.145
55712W        W22253  42.336  17.269   4.132
55713W        W22254  24.255  17.276   2.263
55714W        W22255   9.785  11.672  10.666
55715W        W22256  24.253   1.988  12.094
55716W        W22257  38.251  42.537  14.640
55717W        W22258   0.893  27.674  10.993
55718W        W22259  43.909  18.998  13.848
55719W        W22260  40.475  43.377   2.836
55720W        W22261  13.174  22.603   5.153
55721W        W22262   2.441   4.777   0.555
55722W        W22263   3.245  36.152   3.670
55723W        W22264  14.717   6.898   2.722
55724W        W22265  14.893  21.266  12.188
55725W        W22266  32.446   9.199  14.388
55726W        W22267  40.422   8.131   0.729
55727W        W22268   6.835  39.322  14.848
55728W        W22269  19.098   2.466   0.993
55729W        W22270   6.026  24.472  11.979
55730W        W22271  37.420  14.326   1.627
55731W        W22272  12.079  12.532   0.599
55732W        W22273  22.024  29.160  12.019
55733W        W22274  12.032  44.903   0.324
55734W        W22275  17.639  40.378  11.774
55735W        W22276  29.059  38.463   0.931
55736W        W22277  23.013  22.027   0.333
55737W        W22278  22.619  30.197  14.798
55738W        W22279   4.915  25.730  12.515
55739W        W22280  18.786  35.093  14.362
55740W        W22281   8.742   3.414  12.533
55741W        W22282  23.711  36.136   2.933
55742W        W22283  11.453  10.653  10.755
55743W        W22284  37.914   6.762   3.263
55744W        W22285  11.697   5.428   2.807
55745W        W22286  13.322  17.981  11.141
55746W        W22287  20.694  12.268   1.770
55747W        W22288  15.292  37.472   4.561
55748W        W22289  39.170  42.771   1.022
55749W        W22290  29.450   4.759  13.974
55750W        W22291  30.814  29.338  12.702
55751W        W22292   8.335   2.959   0.191
55752W        W22293   1.731  28.772   3.114
55753W        W22294  18.634   6.661  11.048
55754W        W22295   0.994  38.640  10.955
55755W        W22296  18.199  32.870   3.619
55756W        W22297  11.772   2.901   3.261
55757W        W22298  29.627  16.613   2.442
55758W        W22299   9.460  11.630   1.785
55759W        W22300   7.327  26.532  11.201
55760W        W22301   7.277   1.933   2.701
55761W        W22302   3.264  25.490   3.204
55762W        W22303  31.019  11.611   2.236
55763W        W22304  14.317   1.548   1.650
55764W        W22305   7.424  12.365  11.984
55765W        W22306  39.780  35.551   1.777
55766W        W22307  26.545  14.320   1.751
55767W        W22308   7.341  34.530  14.337
55768W        W22309  21.978  17.404   4.227
55769W        W22310  36.819   7.357  14.068
55770W        W22311   9.914  29.447   2.370
55771W        W22312  24.988  42.845  14.230
55772W        W22313   7.384  29.437   2.638
55773W        W22314  24.728  34.359  12.802
55774W        W22315  25.738   7.920  13.981
55775W        W22316  37.601  20.034   2.614
55776W        W22317  36.910  44.776   1.823
55777W        W22318   1.368  21.991  11.839
55778W        W22319  44.298  15.827  12.166
55779W        W22320  17.018  14.655   1.897
55780W        W22321  10.580  25.698  11.648
55781W        W22322  29.186   1.142   4.695
55782W        W22323   0.037  16.747  12.113
55783W        W22324   9.762  38.629   4.054
55784W        W22325   3.789   3.776  12.442
55785W        W22326  11.242   6.229   1.687
55786W        W22327  21.214  20.535   2.790
55787W        W22328  20.939  21.094  13.711
55788W        W22329  26.798  26.302   2.834
55789W        W22330  34.431  11.914   1.016
55790W        W22331  20.686  31.897   4.768
55791W        W22332  33.948  29.169  12.807
55792W        W22333  31.582  38.100  10.622
55793W        W22334  29.924  40.086  10.419
55794W        W22335  20.480  32.336   3.552
55795W        W22336  31.064   3.518  13.890
55796W        W22337  25.727  24.648   0.373
55797W        W22338  31.370  28.046  12.105
55798W        W22339  17.190  28.385  11.784
55799W        W22340  43.363   7.946   4.158
55800W        W22341  38.769   4.339   3.266
55801W        W22342  38.619  26.438  13.616
55802W        W22343  37.105  43.300   2.819
55803W        W22344  37.605  22.159  14.729
55804W        W22345   5.205  44.506  11.564
55805W        W22346  25.589  36.518   2.825
55806W        W22347   3.761  19.123   4.219
55807W        W22348  25.123  40.508  11.443
55808W        W22349  23.166  39.888  11.617
55809W        W22350  21.116  22.111  10.618
55810W        W22351  31.477  16.236   3.727
55811W        W22352  42.104  33.798  11.104
55812W        W22353  15.876  35.462  14.480
55813W        W22354  19.845  27.393   0.958
55814W        W22355  41.919  11.561   3.118
55815W        W22356   3.245  14.624   4.649
55816W        W22357  36.069  28.409  11.244
55817W        W22358   0.581  35.046   3.121
55818W        W22359   0.577  28.996  11.668
55819W        W22360   8.424  29.920   0.429
55820W        W22361   2.329  30.100   0.999
55821W        W22362  16.545  42.676   0.810
55822W        W22363  17.423  31.097  11.502
55823W        W22364   3.656  29.525  14.606
55824W        W22365   6.597  21.550  11.936
55825W        W22366  18.818  34.674  12.040
55826W        W22367  27.419  35.798   0.469
55827W        W22368   6.006   4.619  11.036
55828W        W22369   7.937  17.825   4.236
55829W        W22370  41.297  34.788  11.157
55830W        W22371  18.310  33.866   0.758
55831W        W22372  32.602   1.418   5.076
55832W        W22373  32.405  21.067   1.819
55833W        W22374  32.510  27.286  14.321
55834W        W22375  43.779   7.077  11.021
55835W        W22376  44.934  39.348  14.632
55836W        W22377   8.169  25.690  12.656
55837W        W22378  14.334  15.834   3.190
55838W        W22379  33.313  40.362   1.748
55839W        W22380  44.881  43.794  14.074
55840W        W22381  35.829  31.158  11.502
55841W        W22382  29.652   1.524  13.167
55842W        W22383  21.114  26.212   0.243
55843W        W22384  30.155  41.115  11.053
55844W        W22385  28.678  10.310   4.667
55845W        W22386  34.867  43.520   2.728
55846W        W22387   6.485  27.649  12.908
55847W        W22388   1.749  40.956   0.580
55848W        W22389  24.711   5.792  14.703
55849W        W22390  24.681  16.824   1.253
55850W        W22391  41.011  26.681  11.168
55851W        W22392   7.509   3.659  11.242
55852W        W22393  31.489  39.341   1.821
55853W        W22394  42.343  28.003   2.253
55854W        W22395   6.445  34.500   1.876
55855W        W22396  28.067  19.273  12.356
55856W        W22397  19.773   3.282  11.941
55857W        W22398  35.629  34.849  12.389
55858W        W22399   1.889  30.299   1.193
55859W        W22400  33.130   6.505   5.054
55860W        W22401  14.696  20.986   3.728
55861W        W22402   4.014  19.950   2.249
55862W        W22403  37.951  36.064  14.830
55863W        W22404  23.430  12.300   4.640
55864W        W22405   0.861  35.833   4.171
55865W        W22406  40.881  32.151   4.617
55866W        W22407  31.029  28.186   2.375
55867W        W22408  35.387  37.098  14.036
55868W        W22409  17.330  32.413   2.912
55869W        W22410  44.221   1.206  13.466
55870W        W22411   5.159  11.257   4.204
55871W        W22412  21.899  33.561   0.444
55872W        W22413  33.350   0.346  11.402
55873W        W22414   5.238   1.781  13.971
55874W        W22415  44.957  32.930  13.836
55875W        W22416  29.502  15.776  10.792
55876W        W22417  23.153  33.387   1.045
55877W        W22418  39.013  40.031   0.330
55878W        W22419   8.612  41.460  14.896
55879W        W22420  39.583  41.405   4.117
55880W        W22421  22.659   8.458   0.358
55881W        W22422  26.749  33.517  11.509
55882W        W22423  24.485  17.092   2.705
55883W        W22424   7.504  37.607  14.259
55884W        W22425   1.268   2.313  12.635
55885W        W22426   0.889   0.139   3.255
55886W        W22427   0.811   9.364  14.432
55887W        W22428   4.839  31.157  13.925
55888W        W22429  32.915  33.573  11.044
55889W        W22430  11.090   1.720  11.498
55890W        W22431  34.422   5.149  14.806
55891W        W22432  40.967  40.227   2.286
55892W        W22433   5.145  44.359   2.948
55893W        W22434   4.858  41.522   0.246
55894W        W22435  20.392  36.048  10.240
55895W        W22436  11.375  12.851   1.757
55896W        W22437  41.705  44.455   1.665
55897W        W22438   5.406  22.650   5.163
55898W        W22439  33.075  16.892  12.035
55899W        W22440  22.973  41.965  13.560
55900W        W22441  24.226  22.013  13.966
55901W        W22442  24.282   8.195   4.579
55902W        W22443  16.902  28.091  11.351
55903W        W22444   7.147   1.471   1.766
55904W        W22445  34.949   2.014  11.626
55905W        W22446  40.852  37.058  12.061
55906W        W22447  31.997   8.879  12.796
55907W        W22448  27.539  18.783  14.931
55908W        W22449   3.801   7.557  12.462
55909W        W22450  15.035  22.185  14.856
55910W        W22451  33.171  44.263   4.110
55911W        W22452  27.212  20.541   3.498
55912W        W22453  35.588  42.883   0.486
55913W        W22454   5.156  34.611   2.882
55914W        W22455  10.135  21.981  12.079
55915W        W22456  17.386   8.876  12.537
55916W        W22457   8.686   8.177   3.404
55917W        W22458  23.549  17.041   3.637
55918W        W22459  37.738  44.008  12.356
55919W        W22460  36.796  24.601   0.975
55920W        W22461  34.155  13.574   1.317
55921W        W22462  35.078  17.311   1.361
55922W        W22463  40.279  39.539  10.727
55923W        W22464  15.486  25.548   0.739
55924W        W22465   2.896  36.517   3.843
55925W        W22466  42.292  40.465   3.708
55926W        W22467   8.671  26.200  13.254
55927W        W22468  36.053   5.751  14.213
55928W        W22469  17.604   4.153   4.537
55929W        W22470   8.362  44.340  10.985
55930W        W22471   7.169  29.162   0.424
55931W        W22472   1.133  24.936  11.093
55932W        W22473  27.619  15.071  14.391
55933W        W22474   2.461   8.039   2.989
55934W        W22475  15.650  14.771   2.181
55935W        W22476  39.939  32.172  14.199
55936W        W22477  30.427  20.358  12.948
55937W        W22478   1.212  38.634   4.482
55938W        W22479  39.739  36.452   1.786
55939W        W22480   8.746  38.498  11.552
55940W        W22481  17.719  28.430   3.253
55941W        W22482  16.198  24.665  12.828
55942W        W22483  12.677  19.628   4.643
55943W        W22484   5.496   6.275  14.801
55944W        W22485  41.011  17.587   3.247
55945W        W22486  39.372  32.343  12.451
55946W        W22487   0.015  21.348   3.642
55947W        W22488  15.676  17.578  12.866
55948W        W22489  15.335  22.624   0.723
55949W        W22490  22.420  20.514  14.494
55950W        W22491  41.050  12.171  12.009
55951W        W22492  33.506  34.422   9.876
55952W        W22493  43.264  38.909   3.575
55953W        W22494  42.329   4.097   1.439
55954W        W22495  42.834   5.189  14.475
55955W        W22496  31.542  23.645   4.818
55956W        W22497  20.577  22.129   3.754
55957W        W22498  15.701  23.435   0.261
55958W        W22499  40.337  24.115  13.215
55959W        W22500  36.399  34.919   3.698
55960W        W22501  32.431   4.841   3.719
55961W        W22502  39.757  31.078   4.245
55962W        W22503  23.229  11.063   0.385
55963W        W22504  30.632  10.057  12.045
55964W        W22505  29.964   7.121   3.899
55965W        W22506   2.228   2.482   3.640
55966W        W22507  25.198   1.817   0.430
55967W        W22508  42.905  18.667   2.337
55968W        W22509  21.012   4.308   4.523
55969W        W22510  40.550  33.213   4.925
55970W        W22511   0.920  19.116   4.795
55971W        W22512  27.541  17.630  14.106
55972W        W22513   9.780  26.759   1.972
55973W        W22514  11.609   7.311   4.577
55974W        W22515   3.876  44.729   0.333
55975W        W22516  22.180  42.595   4.597
55976W        W22517  44.284  23.013  13.880
55977W        W22518  34.626   0.470   9.719
55978W        W22519  32.101   6.974  14.231
55979W        W22520  26.549   4.700   0.289
55980W        W22521  18.292  21.337   2.724
55981W        W22522  39.256  20.682  11.630
55982W        W22523  17.470  38.612   1.884
55983W        W22524  13.261  40.123  13.482
55984W        W22525   9.251  24.412   0.188
55985W        W22526  10.782  33.077  13.889
55986W        W22527  32.447  40.435  13.899
55987W        W22528  19.624  20.453  12.428
55988W        W22529  40.541  35.118   3.371
55989W        W22530  40.807   9.836  11.894
55990W        W22531  41.781   9.692   0.884
55991W        W22532  17.382  27.948  11.497
55992W        W22533   7.333  12.307   1.637
55993W        W22534  25.156  13.342   1.398
55994W        W22535  20.047  40.484  14.907
55995W        W22536  30.938  10.724   0.026
55996W        W22537  33.007  25.496   4.559
55997W        W22538  41.589  22.665   4.170
55998W        W22539   4.894  13.857   1.824
55999W        W22540  41.591   7.918   2.764
56000W        W22541   9.212  23.165  13.379
56001W        W22542  18.515  17.835   2.409
56002W        W22543  30.411  36.340   2.793
56003W        W22544   3.426   5.647   2.794
56004W        W22545  10.628  19.684  14.280
56005W        W22546  36.489  42.412  12.140
56006W        W22547  34.377   3.954  13.217
56007W        W22548  10.333  30.380   1.574
56008W        W22549  20.178  35.792   3.629
56009W        W22550  34.887  18.600   4.563
56010W        W22551  36.959   9.397   2.497
56011W        W22552  14.176  36.586  12.348
56012W        W22553  27.673  38.969   0.750
56013W        W22554  22.973   9.286   3.279
56014W        W22555  28.880  35.998   0.408
56015W        W22556  14.848  37.526   1.425
56016W        W22557  39.086   3.081   4.545
56017W        W22558   3.036  38.083  12.016
56018W        W22559  17.650  36.397  12.146
56019W        W22560  31.001  14.371   5.436
56020W        W22561   4.000  13.612  13.003
56021W        W22562  28.620   9.239  14.418
56022W        W22563   9.286   1.685  14.397
56023W        W22564  18.251  11.113  10.732
56024W        W22565  23.561  32.603   2.485
56025W        W22566   3.847  37.584   1.821
56026W        W22567  17.963   1.752  11.256
56027W        W22568  13.751  25.082   2.220
56028W        W22569  23.565  33.476   0.362
56029W        W22570  17.896  17.079   3.813
56030W        W22571   8.465  39.537  12.181
56031W        W22572   6.936  44.477  14.954
56032W        W22573  35.625  20.080   1.398
56033W        W22574  17.345   1.706  13.406
56034W        W22575   3.273   1.088   2.150
56035W        W22576   6.088   3.881   3.655
56036W        W22577   4.258  11.790   4.916
56037W        W22578  37.525  39.615   1.789
56038W        W22579  25.659   6.195  11.603
56039W        W22580   0.410  13.853  11.158
56040W        W22581  25.063  19.522  11.538
56041W        W22582  28.685   2.630   1.827
56042W        W22583  24.158  15.342   3.191
56043W        W22584  33.555  18.182  10.703
56044W        W22585  25.779   9.393   4.554
56045W        W22586  16.827  13.686   2.150
56046W        W22587  16.078  13.639   2.334
56047W        W22588  22.722  32.386   0.905
56048W        W22589  12.885  39.724  12.529
56049W        W22590  20.281   1.717  11.194
56050W        W22591  29.996  17.307   1.740
56051W        W22592   6.477  20.202  14.262
56052W        W22593  17.024  10.192  12.836
56053W        W22594   1.408   4.827  12.800
56054W        W22595  33.402  44.483   4.550
56055W        W22596  22.630   1.036   5.054
56056W        W22597   8.042  15.582   1.415
56057W        W22598  21.894  32.482   3.884
56058W        W22599  29.863  15.493  12.658
56059W        W22600  13.341  30.098  11.904
56060W        W22601  19.776  21.623  13.854
56061W        W22602  44.008   5.430  11.994
56062W        W22603  41.626  15.515   1.913
56063W        W22604  38.447  26.693  12.703
56064W        W22605  29.615   1.743   1.114
56065W        W22606  16.055  44.266  11.162
56066W        W22607  11.822  40.888  14.656
56067W        W22608  17.864  31.756   5.437
56068W        W22609  37.034  33.053  11.575
56069W        W22610  31.891   6.672  11.147
56070W        W22611  24.164  18.535   1.367
56071W        W22612  21.624  38.472  13.074
56072W        W22613   7.228  27.189   3.823
56073W        W22614  29.893  37.918  11.694
56074W        W22615  17.164  23.754  12.492
56075W        W22616  25.532  42.478   0.935
56076W        W22617  15.068  20.078   2.772
56077W        W22618  33.631   5.123  13.860
56078W        W22619  20.762  36.105   4.854
56079W        W22620  24.989  15.778  10.575
56080W        W22621  15.461   1.246  13.344
56081W        W22622  23.915   1.951  14.986
56082W        W22623   6.764   8.813   2.211
56083W        W22624  40.989  43.524   3.063
56084W        W22625   0.449   3.840   3.412
56085W        W22626  39.142  33.087   2.410
56086W        W22627   4.434  35.909  14.225
56087W        W22628   7.814   0.528  11.590
56088W        W22629   8.181  15.875  14.842
56089W        W22630  36.667   3.000  11.666
56090W        W22631  42.383  20.104  11.399
56091W        W22632  24.703   0.159   4.142
56092W        W22633   8.763  19.647   0.828
56093W        W22634  17.059  24.289  12.487
56094W        W22635  17.708  31.494   9.614
56095W        W22636  18.147  12.318   2.706
56096W        W22637  19.646   2.044   1.216
56097W        W22638  43.545  19.143   2.480
56098W        W22639  11.843   4.403  11.896
56099W        W22640   6.334  24.947   1.005
56100W        W22641  22.483  29.663  11.120
56101W        W22642  12.124  35.534  13.362
56102W        W22643  18.540   4.706  13.970
56103W        W22644  14.508   6.273   1.249
56104W        W22645  19.478  44.178  14.928
56105W        W22646   5.093  24.275  12.253
56106W        W22647   1.304  39.798  14.442
56107W        W22648  31.957   3.309   0.012
56108W        W22649   8.030  14.316  13.608
56109W        W22650  12.960  33.420   4.569
56110W        W22651  17.047  28.119   1.352
56111W        W22652  41.193  27.444  12.927
56112W        W22653  12.129  43.887  10.727
56113W        W22654  20.263   0.968   0.860
56114W        W22655  34.886  10.795   1.694
56115W        W22656  31.916  30.026   2.297
56116W        W22657  34.099  19.686   1.694
56117W        W22658  14.731  19.019  14.143
56118W        W22659  10.024  26.979   0.205
56119W        W22660  14.065  20.856   0.347
56120W        W22661  21.222  27.692   2.741
56121W        W22662  13.618  41.375  11.874
56122W        W22663  36.993  11.712  11.091
56123W        W22664  39.553  31.935   4.082
56124W        W22665  36.487   2.515   1.876
56125W        W22666  36.100  33.941   1.244
56126W        W22667  40.696  14.960   5.373
56127W        W22668   1.868   8.659   3.145
56128W        W22669  19.439   2.937  11.195
56129W        W22670  17.576  22.603  14.828
56130W        W22671  29.079  38.973  11.342
56131W        W22672   6.420  20.637   3.816
56132W        W22673  22.183  21.249  10.528
56133W        W22674   1.969   9.832  14.505
56134W        W22675  16.652  24.570  14.113
56135W        W22676  12.644  28.505   1.926
56136W        W22677  26.628  12.210  12.497
56137W        W22678  12.748  41.924   4.452
56138W        W22679   5.772  14.531  14.095
56139W        W22680  21.266  18.044   0.345
56140W        W22681  40.078  31.626  14.037
56141W        W22682  29.688  15.151   3.530
56142W        W22683  42.006  15.710  10.850
56143W        W22684   0.417  37.539   5.146
56144W        W22685  16.809  39.120  14.890
56145W        W22686  40.196  25.737  11.977
56146W        W22687  15.112  25.456  14.813
56147W        W22688  11.116  34.945  13.937
56148W        W22689  30.280   6.951   4.830
56149W        W22690  29.229  13.173   0.879
56150W        W22691   3.953  27.916   0.879
56151W        W22692  24.959  20.690   0.030
56152W        W22693   0.862  24.146   0.917
56153W        W22694  10.339  21.223  11.035
56154W        W22695  30.671  41.819   2.252
56155W        W22696  34.090  23.620   3.989
56156W        W22697  30.603  10.531   5.015
56157W        W22698   7.891   9.725  11.194
56158W        W22699  41.797  15.696   4.079
56159W        W22700  28.038  38.815   2.428
56160W        W22701   1.336  27.202   3.542
56161W        W22702  24.958   6.471   4.475
56162W        W22703   7.066  21.559  12.734
56163W        W22704  32.213   0.470   0.274
56164W        W22705  27.005   7.820  13.372
56165W        W22706  17.567  30.474   4.013
56166W        W22707  24.561  36.324  11.176
56167W        W22708   1.521  35.606   2.418
56168W        W22709  30.669  27.983   3.291
56169W        W22710  29.628  26.625   4.650
56170W        W22711  33.372  40.450  12.375
56171W        W22712   7.285  24.236  10.146
56172W        W22713  41.045  27.966   1.345
56173W        W22714  30.586  18.940   3.313
56174W        W22715  11.166  18.753   3.441
56175W        W22716  38.820  40.338   1.508
56176W        W22717   7.792  38.975   1.473
56177W        W22718   8.901  44.918   4.656
56178W        W22719   5.934   1.730  13.471
56179W        W22720  40.067  12.569   1.717
56180W        W22721   0.465  35.839  11.075
56181W        W22722   7.237   7.185   1.144
56182W        W22723   8.102   5.358   0.400
56183W        W22724  17.286   4.484  13.498
56184W        W22725  26.813  39.464   0.489
56185W        W22726   1.211  16.253   4.868
56186W        W22727  33.391  24.068  10.675
56187W        W22728  11.226  35.907   0.021
56188W        W22729  27.798  20.634  13.894
56189W        W22730  27.165   8.811  13.490
56190W        W22731  16.702  30.401   4.453
56191W        W22732  39.350   5.964  11.875
56192W        W22733  44.518  29.563   3.870
56193W        W22734  11.250  12.354   0.978
56194W        W22735  23.023  13.096  11.176
56195W        W22736  15.072  23.217   1.919
56196W        W22737  33.886   8.786   0.426
56197W        W22738  23.261  25.455  11.120
56198W        W22739  40.335  26.452  10.593
56199W        W22740   1.205  13.846  10.724
56200W        W22741   3.552  32.661   4.735
56201W        W22742  29.116  19.668   3.670
56202W        W22743  26.521   4.135   2.962
56203W        W22744   8.622  42.750   1.457
56204W        W22745  27.192  26.361  11.424
56205W        W22746  12.917  25.170  10.334
56206W        W22747   6.480  25.120   1.463
56207W        W22748  24.489  31.433   2.887
56208W        W22749  28.480  15.309   3.261
56209W        W22750  33.853   7.315  13.087
56210W        W22751  36.106   8.580   2.205
56211W        W22752   0.211   2.031   1.169
56212W        W22753  21.826  44.448  14.004
56213W        W22754  38.461  32.372   4.196
56214W        W22755  24.030   2.484  14.119
56215W        W22756  30.952  13.969  10.747
56216W        W22757   4.399  16.374  13.977
56217W        W22758  39.998  31.899   2.347
56218W        W22759  21.732  34.944  11.968
56219W        W22760   5.822  21.026  10.719
56220W        W22761  33.031  30.775   1.963
56221W        W22762   6.763  11.764  10.671
56222W        W22763  41.867  27.422  13.988
56223W        W22764  23.646  38.570   0.868
56224W        W22765  10.358  12.240   4.536
56225W        W22766  36.907  41.391   2.380
56226W        W22767  26.998  44.027   0.335
56227W        W22768  11.656  16.339  13.440
56228W        W22769  42.437  16.066   3.541
56229W        W22770  25.713  31.107  12.812
56230W        W22771   2.282  43.578  14.010
56231W        W22772  43.474   9.444  12.925
56232W        W22773  20.227  10.408   2.127
56233W        W22774   4.358  21.605  12.420
56234W        W22775  42.999  20.527   3.092
56235W        W22776  32.564   0.883   3.647
56236W        W22777   7.103  21.665  12.006
56237W        W22778  31.593  42.004   2.290
56238W        W22779  11.268  35.742  10.903
56239W        W22780  27.332  35.961   5.007
56240W        W22781  14.371  16.793  10.657
56241W        W22782   1.146  39.795   2.800
56242W        W22783  17.177  27.901  12.949
56243W        W22784  40.011  39.799  12.063
56244W        W22785  34.108  24.494  10.753
56245W        W22786  21.728  13.187   2.064
56246W        W22787   6.431   4.948  13.867
56247W        W22788  13.215   5.707  11.556
56248W        W22789  34.327  34.385  14.527
56249W        W22790  25.811  35.626  12.628
56250W        W22791  34.829  14.792   1.357
56251W        W22792  30.152  34.572  12.508
56252W        W22793   6.173   6.563   3.300
56253W        W22794   2.380  24.313  13.855
56254W        W22795  27.439  28.533  10.424
56255W        W22796  37.749  11.716   4.098
56256W        W22797  20.589  36.503   3.310
56257W        W22798  43.260   5.702  10.572
56258W        W22799  29.543  34.582   1.847
56259W        W22800  13.647  34.964  13.973
56260W        W22801  17.673  38.374   0.141
56261W        W22802  18.592  16.172   0.993
56262W        W22803  39.737  10.183   1.344
56263W        W22804  43.426  21.708  14.428
56264W        W22805  41.847  27.871   2.374
56265W        W22806  41.929  37.613  11.208
56266W        W22807  15.585  21.243   1.732
56267W        W22808  25.614  13.288  13.032
56268W        W22809  16.191  41.448   4.282
56269W        W22810  24.551  14.041  14.590
56270W        W22811  41.417  41.957  11.528
56271W        W22812  17.521  22.429  10.731
56272W        W22813   7.978  17.740  12.002
56273W        W22814  15.983  14.959  13.012
56274W        W22815  23.275  10.717   1.174
56275W        W22816   8.311   7.434  14.745
56276W        W22817  23.544   8.781   5.228
56277W        W22818   9.469  26.772  12.678
56278W        W22819  35.827  15.745  13.216
56279W        W22820  21.607   2.266   4.208
56280W        W22821  25.899  19.577   0.038
56281W        W22822  33.584  20.083   0.366
56282W        W22823  26.438  26.693  11.086
56283W        W22824  37.913  12.908  12.038
56284W        W22825  21.101  21.679  12.467
56285W        W22826  30.160  23.560  14.407
56286W        W22827  28.519  28.427  12.654
56287W        W22828   8.919  23.245   0.369
56288W        W22829  12.282  31.530  11.384
56289W        W22830   5.263  23.460  11.515
56290W        W22831  39.460  16.704  12.355
56291W        W22832  19.960  11.246   3.309
56292W        W22833  33.514  16.464  10.245
56293W        W22834  11.329  10.119   2.234
56294W        W22835  41.000  39.400   3.357
56295W        W22836  35.077  41.150  10.229
56296W        W22837  12.753   8.256   2.892
56297W        W22838  26.609  28.029   4.140
56298W        W22839  27.469   8.856  12.593
56299W        W22840  44.028  37.887  11.010
56300W        W22841  11.389  33.800  12.932
56301W        W22842  43.765  28.980   0.298
56302W        W22843  31.350  24.797   3.099
56303W        W22844  31.355  32.320  12.401
56304W        W22845  15.227  42.817   0.317
56305W        W22846   2.495   0.105  11.581
56306W        W22847  13.912   3.495   5.177
56307W        W22848  30.149  21.871  12.830
56308W        W22849   5.174  28.746   3.780
56309W        W22850   3.906   9.116  10.862
56310W        W22851  23.071  24.144  14.996
56311W        W22852   0.883  27.403  14.007
56312W        W22853   9.617  13.871  14.838
56313W        W22854  35.288  20.542  14.809
56314W        W22855   0.578  22.782   3.989
56315W        W22856   5.955  43.203  13.921
56316W        W22857  23.441  29.478   4.138
56317W        W22858  44.832  18.034   4.255
56318W        W22859  39.719  42.482  13.943
56319W        W22860  29.555  43.067  14.323
56320W        W22861  10.973  14.875  11.002
56321W        W22862  16.226   4.816   1.898
56322W        W22863  25.054  22.468   1.170
56323W        W22864  33.108  22.151  14.920
56324W        W22865  42.229   9.234   2.623
56325W        W22866  31.312   2.343  11.049
56326W        W22867  15.665  42.523   0.468
56327W        W22868  14.628  44.455  10.972
56328W        W22869   3.033  33.579   1.178
56329W        W22870  22.643  10.347  14.058
56330W        W22871  19.194  13.774  11.970
56331W        W22872   0.450  10.155   4.545
56332W        W22873  35.282  33.739   2.549
56333W        W22874  20.936  12.385   2.721
56334W        W22875  24.653  32.936  14.045
56335W        W22876   0.278  26.046   0.736
56336W        W22877   1.292  32.433  12.626
56337W        W22878  21.775  19.078   0.978
56338W        W22879   5.509  19.257  14.452
56339W        W22880  26.769  34.414   0.245
56340W        W22881  35.515   2.697   0.867
56341W        W22882  26.009   0.089   0.308
56342W        W22883  25.609  23.745   4.230
56343W        W22884  13.179  38.368   4.479
56344W        W22885  24.570  20.108   0.492
56345W        W22886  35.609  40.069  13.911
56346W        W22887  28.491  39.291  13.332
56347W        W22888  26.453  11.157  13.076
56348W        W22889  21.398  25.509  13.967
56349W        W22890  16.249  32.994   0.301
56350W        W22891  36.475  20.222  14.016
56351W        W22892  29.932   1.986   3.275
56352W        W22893  21.938   1.927   0.488
56353W        W22894  25.187  13.237   4.191
56354W        W22895  39.639   9.336  14.115
56355W        W22896  40.435   1.394   3.294
56356W        W22897  20.999  12.892  12.492
56357W        W22898  10.503  37.683   0.953
56358W        W22899  25.842  18.246  14.539
56359W        W22900  11.912  20.216  12.484
56360W        W22901  24.675   6.266  10.290
56361W        W22902  40.902  12.155   1.272
56362W        W22903  14.300   2.692   2.676
56363W        W22904  22.575  27.917   4.333
56364W        W22905  29.663  34.920  12.900
56365W        W22906  18.184  15.954  14.513
56366W        W22907  37.721  10.874   3.784
56367W        W22908  30.418  12.840  12.464
56368W        W22909   4.914  34.538  13.290
56369W        W22910   5.125  39.688   5.313
56370W        W22911   9.493  10.515  13.010
56371W        W22912  34.515   8.819  11.523
56372W        W22913   5.943  20.397   1.371
56373W        W22914   6.233  19.250   2.051
56374W        W22915   1.876   4.875  12.074
56375W        W22916   7.843   0.937  10.184
56376W        W22917  39.240  36.090  12.576
56377W        W22918  21.481  35.482  12.551
56378W        W22919  37.246  32.638   4.593
56379W        W22920   4.638  38.701  11.616
56380W        W22921  39.551  34.757   2.806
56381W        W22922  12.218  33.683   0.321
56382W        W22923  25.788  32.896  11.074
56383W        W22924  29.727  18.184   2.731
56384W        W22925   7.736  34.764   4.354
56385W        W22926  28.612  29.094  11.608
56386W        W22927  42.908  34.843  12.139
56387W        W22928  42.737  42.047  11.111
56388W        W22929  39.886  12.622  11.135
56389W        W22930  26.983  17.738   1.386
56390W        W22931  26.557  43.088  10.725
56391W        W22932  37.840  38.735  12.945
56392W        W22933  12.176  36.299  14.849
56393W        W22934  16.112  36.901   0.236
56394W        W22935  18.629  29.909  12.998
56395W        W22936  17.602  38.108  12.261
56396W        W22937   9.734  31.980   4.674
56397W        W22938  16.436  33.541   4.661
56398W        W22939   7.441   8.664   4.090
56399W        W22940   2.485  36.031  12.942
56400W        W22941  11.378  26.391   1.332
56401W        W22942  22.490   5.796  13.915
56402W        W22943  25.282   5.469  10.258
56403W        W22944  21.588  24.198  11.584
56404W        W22945  15.683  19.669  12.023
56405W        W22946   3.439   7.778  11.447
56406W        W22947   6.356  27.799  11.107
56407W        W22948  36.107  40.231   1.843
56408W        W22949  33.210   1.235  13.093
56409W        W22950  25.187   6.673   4.885
56410W        W22951  42.639  38.906  11.514
56411W        W22952   4.316  30.438  10.878
56412W        W22953  31.133  25.242   3.342
56413W        W22954  39.998  25.239  13.013
56414W        W22955   8.389   7.862  12.618
56415W        W22956   3.933  25.493   1.424
56416W        W22957  44.553  22.752  12.618
56417W        W22958  20.480  28.887  12.105
56418W        W22959   8.105  24.017   4.743
56419W        W22960  12.474  27.409  14.202
56420W        W22961  39.950   0.961  11.266
56421W        W22962   4.276   9.335   2.404
56422W        W22963  43.677   5.666   0.284
56423W        W22964  18.004   5.378   0.877
56424W        W22965  20.742   8.473  13.460
56425W        W22966  29.557  43.296   2.649
56426W        W22967  28.987  27.365  11.630
56427W        W22968  26.172  22.557   2.979
56428W        W22969  24.665  12.018   2.764
56429W        W22970  40.733  41.767  14.798
56430W        W22971   6.238  29.004   4.352
56431W        W22972  26.953  19.128   2.407
56432W        W22973  30.849  30.119   0.300
56433W        W22974   6.438  20.129   1.786
56434W        W22975   9.151  42.459  14.762
56435W        W22976  44.714  27.221   3.791
56436W        W22977  14.383  13.819  12.018
56437W        W22978   0.482  13.774  13.026
56438W        W22979  33.428  41.020  11.998
56439W        W22980   5.166  15.759   4.565
56440W        W22981  44.906  43.464  10.684
56441W        W22982  41.510  22.622  14.016
56442W        W22983  42.320  19.346  11.851
56443W        W22984  42.349  35.841  12.836
56444W        W22985   8.454  13.274   1.871
56445W        W22986   1.501   8.796   3.751
56446W        W22987  33.162  18.926   0.123
56447W        W22988  25.936  36.856   1.875
56448W        W22989  28.195   1.512  10.636
56449W        W22990  41.003   7.930  11.042
56450W        W22991  43.711  36.706   4.775
56451W        W22992  23.975  42.926  11.484
56452W        W22993  18.996   0.025   4.204
56453W        W22994  20.320  12.897  14.821
56454W        W22995  17.472   2.746  14.469
56455W        W22996  40.540  38.385  12.862
56456W        W22997  44.302  38.937  14.042
56457W        W22998   4.748  31.369   2.663
56458W        W22999   0.221  29.699  10.683
56459W        W23000  19.234  33.948  12.359
56460W        W23001   6.167  26.154  10.757
56461W        W23002  21.711  15.776  14.476
56462W        W23003  32.235   9.970  11.372
56463W        W23004   8.289  24.228  11.423
56464W        W23005   4.453   0.370   3.671
56465W        W23006  44.913   6.342  13.532
56466W        W23007  40.009  42.783   2.022
56467W        W23008  22.445  30.915  13.999
56468W        W23009  39.879   8.599   2.308
56469W        W23010  37.186  21.529   2.739
56470W        W23011  17.714  10.621   4.982
56471W        W23012   3.692  30.348   0.873
56472W        W23013   6.334  22.462   0.412
56473W        W23014  11.085   5.877   3.866
56474W        W23015   7.754  44.257  13.496
56475W        W23016  41.954   0.386  14.264
56476W        W23017   0.512  11.903  12.519
56477W        W23018  36.381  36.208  11.131
56478W        W23019   4.038  33.116  10.759
56479W        W23020  36.111  17.545  11.954
56480W        W23021  39.126  40.908   2.278
56481W        W23022  10.552  11.369  12.844
56482W        W23023   9.582  13.240   1.458
56483W        W23024  22.758  31.015   0.187
56484W        W23025  24.734  38.032   1.210
56485W        W23026  35.169  13.688  13.827
56486W        W23027   1.977   8.265   0.213
56487W        W23028   1.396   5.290   2.346
56488W        W23029  18.304  40.477  10.521
56489W        W23030  18.487  13.245  11.880
56490W        W23031  25.671  33.055   2.919
56491W        W23032   5.737  15.622  14.287
56492W        W23033  12.806  13.850   1.859
56493W        W23034   1.328   4.708  11.009
56494W        W23035  23.301  38.930   1.705
56495W        W23036  44.867  10.146   2.418
56496W        W23037  28.091  24.502   4.142
56497W        W23038   2.849  19.685  14.787
56498W        W23039  42.534   4.526   1.645
56499W        W23040  34.487  29.214  14.584
56500W        W23041  41.924  30.913   0.763
56501W        W23042  15.908   6.335   2.639
56502W        W23043  35.447  11.670  13.746
56503W        W23044   1.427  15.567  13.945
56504W        W23045   3.408  11.549   1.372
56505W        W23046   8.429  35.019   4.509
56506W        W23047   0.538  12.382   4.248
56507W        W23048  38.330   9.940   2.894
56508W        W23049  41.824   1.380  10.755
56509W        W23050  33.845   2.737  11.837
56510W        W23051  10.766   1.282  12.185
56511W        W23052   6.394  15.208   0.329
56512W        W23053   0.413   5.401  12.989
56513W        W23054   7.282  19.340  10.719
56514W        W23055   5.696   1.016  12.999
56515W        W23056  38.752  43.308  13.011
56516W        W23057  22.571  36.884  11.195
56517W        W23058  18.061   8.589  12.964
56518W        W23059   7.210  34.077   4.069
56519W        W23060  15.804  24.209  11.965
56520W        W23061  15.688  31.112   1.998
56521W        W23062   1.187  26.376   4.814
56522W        W23063   1.492  35.091   2.399
56523W        W23064  20.311  28.033  10.650
56524W        W23065  10.546  29.922   9.951
56525W        W23066  18.000   2.861   1.892
56526W        W23067  18.787  32.081  14.567
56527W        W23068  31.187  13.308   0.450
56528W        W23069  44.035   6.201  14.634
56529W        W23070   7.211  42.134  14.527
56530W        W23071   3.173  15.881   3.303
56531W        W23072   1.009   0.722  12.188
56532W        W23073  37.575   7.973   4.716
56533W        W23074  10.772  39.079   1.139
56534W        W23075  38.427   2.594  14.385
56535W        W23076   8.853  27.206   4.649
56536W        W23077  17.128  43.467   0.710
56537W        W23078  43.849  25.247  11.587
56538W        W23079  38.845  41.043   2.792
56539W        W23080   4.067  24.257  13.384
56540W        W23081  40.944  37.492  12.934
56541W        W23082  43.977  34.961  11.122
56542W        W23083  39.358   7.182   5.142
56543W        W23084  22.278  14.041  14.193
56544W        W23085  37.737  28.940   4.573
56545W        W23086  24.303  22.576   0.745
56546W        W23087  11.156  13.316  14.580
56547W        W23088  29.221   7.748  12.132
56548W        W23089  25.234   0.819  12.369
56549W        W23090  15.266   0.018   3.826
56550W        W23091  42.842  34.330  10.107
56551W        W23092  27.031  19.297   2.915
56552W        W23093  19.159  44.187   1.352
56553W        W23094   7.791  19.787   4.987
56554W        W23095  35.631   8.584  11.604
56555W        W23096   5.442   7.430  12.957
56556W        W23097   0.419   1.428  12.196
56557W        W23098  38.595  22.065   4.838
56558W        W23099  24.434  13.729  10.701
56559W        W23100  23.269  22.743  13.554
56560W        W23101  25.260  21.060  12.681
56561W        W23102  24.871  16.206  13.931
56562W        W23103  17.810   8.487  13.424
56563W        W23104   6.376  34.951   3.160
56564W        W23105  35.139   6.895  10.181
56565W        W23106   2.452   7.375  13.100
56566W        W23107  27.123  24.507   0.447
56567W        W23108  34.886  38.846  11.565
56568W        W23109  15.633  31.982   1.409
56569W        W23110  36.589   2.008   3.163
56570W        W23111  36.360  42.482   0.367
56571W        W23112  13.798  30.560  12.441
56572W        W23113  37.625  30.166   2.393
56573W        W23114  32.989   2.424  11.628
56574W        W23115  40.528  42.470  10.673
56575W        W23116   9.533  43.732  13.092
56576W        W23117   7.734   0.508   3.938
56577W        W23118  12.785  27.837  14.390
56578W        W23119  41.948  21.047   1.763
56579W        W23120  11.396  15.119  13.889
56580W        W23121  41.937  27.025   4.331
56581W        W23122   4.252   7.611   2.807
56582W        W23123   0.800  27.106  14.916
56583W        W23124  18.335  31.875  11.921
56584W        W23125  17.551   9.007  14.937
56585W        W23126  23.203  39.519  13.865
56586W        W23127   7.325  18.692  13.032
56587W        W23128   4.758  29.226  13.820
56588W        W23129  17.167  16.715   2.892
56589W        W23130  32.946  37.422   4.299
56590W        W23131  17.539   7.631   2.826
56591W        W23132  18.822   8.168   1.236
56592W        W23133   8.759  20.803   1.788
56593W        W23134  27.521  34.805   1.372
56594W        W23135  11.165  25.912   1.344
56595W        W23136  38.953  27.577   2.723
56596W        W23137  42.545  12.399  11.544
56597W        W23138   7.781  17.545  14.482
56598W        W23139  18.576  31.353  14.672
56599W        W23140  35.155  21.596  12.580
56600W        W23141  32.339  15.336  13.993
56601W        W23142  40.975  11.347   3.770
56602W        W23143   0.355  44.539   3.254
56603W        W23144  31.028  25.694   3.061
56604W        W23145  40.819  27.679   0.550
56605W        W23146   6.392  41.720   3.299
56606W        W23147  16.580  13.361   0.246
56607W        W23148  34.367  33.094   4.204
56608W        W23149  43.022  40.813  10.514
56609W        W23150  22.598  26.405   2.322
56610W        W23151  35.446  42.833  12.186
56611W        W23152   9.811  40.188  12.454
56612W        W23153  43.622  14.604  13.901
56613W        W23154   1.287  31.491  13.147
56614W        W23155  24.226  42.407  10.706
56615W        W23156  27.907  23.656  11.515
56616W        W23157  28.766  11.218   2.762
56617W        W23158  11.683  39.569   2.389
56618W        W23159  34.105  23.967  12.104
56619W        W23160  44.913  24.931   4.162
56620W        W23161  26.635  40.745   3.134
56621W        W23162   5.925  27.898  13.418
56622W        W23163  24.886  30.228  14.335
56623W        W23164   6.506  44.782   4.951
56624W        W23165  25.157   2.697  14.924
56625W        W23166  25.893  30.152   1.851
56626W        W23167  26.205  42.359  13.316
56627W        W23168  37.678  19.453   2.894
56628W        W23169  13.640   9.341   2.938
56629W        W23170  14.288   8.437   4.143
56630W        W23171   2.792  13.147   4.485
56631W        W23172  41.775  24.824   4.819
56632W        W23173  40.900   0.346   3.178
56633W        W23174  25.233  44.323  13.476
56634W        W23175  20.720  19.841   3.700
56635W        W23176  17.801  26.768  12.030
56636W        W23177  15.828  22.594  14.854
56637W        W23178   0.706  33.342   0.307
56638W        W23179  32.867  34.956   4.721
56639W        W23180  43.765  15.215   3.617
56640W        W23181  13.746  15.706   3.611
56641W        W23182  15.269  31.364   1.870
56642W        W23183  27.698  37.904   3.777
56643W        W23184  25.114  31.441  14.537
56644W        W23185  13.397   0.563  12.139
56645W        W23186  12.642  43.095   0.240
56646W        W23187  38.285  42.583  14.134
56647W        W23188   7.664  16.639   3.834
56648W        W23189  24.497  20.658   0.252
56649W        W23190  18.598  40.904   4.815
56650W        W23191   8.193  21.289   2.695
56651W        W23192  42.837  14.392  13.073
56652W        W23193   6.399   7.259   0.258
56653W        W23194   9.936  36.166   4.116
56654W        W23195  39.902  23.663  14.594
56655W        W23196  34.887  18.845  13.521
56656W        W23197  17.421  30.919   4.662
56657W        W23198  35.401  41.291  10.910
56658W        W23199   8.815  19.895   3.406
56659W        W23200  23.627  34.326   4.234
56660W        W23201   6.212  34.748  11.597
56661W        W23202  33.961  42.975   4.131
56662W        W23203   2.692   3.622   2.819
56663W        W23204  19.408  12.856   0.283
56664W        W23205  13.036  16.709   0.303
56665W        W23206  39.141  24.904   3.226
56666W        W23207  19.918  42.852  11.616
56667W        W23208  37.115  22.184  14.871
56668W        W23209  24.027  10.256   3.242
56669W        W23210  27.927  33.440  14.513
56670W        W23211   4.616   4.770   1.765
56671W        W23212  12.572  19.140  10.650
56672W        W23213   1.348  24.918   0.680
56673W        W23214  13.564  36.492   0.720
56674W        W23215  44.752  20.342  14.447
56675W        W23216  19.192  18.066  11.203
56676W        W23217   2.843  22.579   4.130
56677W        W23218  22.659  10.332   4.597
56678W        W23219  13.184   9.263   4.160
56679W        W23220  25.168   5.994  12.043
56680W        W23221  33.194  36.006   1.938
56681W        W23222   4.005  16.210   3.860
56682W        W23223   1.548  41.971  13.469
56683W        W23224   9.586   2.761  10.743
56684W        W23225  34.620  27.560   1.000
56685W        W23226  18.706   1.855   0.699
56686W        W23227  37.388  33.931  14.003
56687W        W23228  43.199   2.131  10.328
56688W        W23229  39.744  37.727  11.585
56689W        W23230  25.068  43.836   1.959
56690W        W23231  31.811  13.772  14.361
56691W        W23232  42.488  43.557   1.336
56692W        W23233  11.858  23.754   3.191
56693W        W23234   9.395   9.944   2.844
56694W        W23235  19.153  44.888  11.946
56695W        W23236  30.967  34.388   1.591
56696W        W23237  21.068  17.572   2.755
56697W        W23238  33.935   4.201   4.358
56698W        W23239  11.033  43.623   2.401
56699W        W23240  39.888  17.336   2.833
56700W        W23241  10.338   4.216  10.888
56701W        W23242  23.158  17.048  12.629
56702W        W23243  36.266  22.660  12.648
56703W        W23244  36.607  31.081   0.894
56704W        W23245   8.717   7.661  13.968
56705W        W23246  22.356  25.430  11.114
56706W        W23247  32.706  42.052  10.596
56707W        W23248  13.591  42.092  11.196
56708W        W23249  31.594  33.859  12.382
56709W        W23250  12.424   9.939  12.432
56710W        W23251  38.082   9.227  10.970
56711W        W23252  44.698  26.654   1.329
56712W        W23253   9.435   3.747   1.240
56713W        W23254  32.024  27.612  10.185
56714W        W23255  23.474  42.396   1.824
56715W        W23256   4.643  25.428  11.608
56716W        W23257  33.342  20.416   0.699
56717W        W23258  26.992  24.093   1.273
56718W        W23259  26.065  30.290   1.388
56719W        W23260  22.630   0.801   1.458
56720W        W23261  14.174   3.951   3.298
56721W        W23262  39.356  24.508  14.756
56722W        W23263  22.003   8.128   3.090
56723W        W23264  17.008  35.076   4.613
56724W        W23265  21.942  17.992   3.797
56725W        W23266  18.259  18.959  11.919
56726W        W23267   9.251  24.180  14.717
56727W        W23268  26.559  13.008  13.125
56728W        W23269  13.284  29.677   3.068
56729W        W23270  17.050  22.491  10.511
56730W        W23271  38.511  33.010  10.331
56731W        W23272  14.670   1.779   4.541
56732W        W23273   7.727  25.796  10.334
56733W        W23274  26.193   7.376  10.324
56734W        W23275   9.369  19.512   3.043
56735W        W23276  35.343   7.801  11.143
56736W        W23277  43.520  34.647   1.229
56737W        W23278  35.766   3.211   2.765
56738W        W23279  23.987  21.166   5.062
56739W        W23280  11.637  18.273  11.988
56740W        W23281   0.195  12.480  10.647
56741W        W23282   5.173  16.073   3.249
56742W        W23283  19.723   8.056  12.371
56743W        W23284  18.345   0.819   3.775
56744W        W23285   3.408  36.997   1.627
56745W        W23286  19.237  26.129  11.649
56746W        W23287  41.384  18.504   0.737
56747W        W23288  15.398  20.127  11.968
56748W        W23289  30.723  15.773  10.419
56749W        W23290  37.914  29.103  13.538
56750W        W23291  10.340  34.648   0.303
56751W        W23292   8.393  38.488  13.104
56752W        W23293  16.806  21.661   2.325
56753W        W23294  35.479   0.211   3.304
56754W        W23295  31.878  14.626   4.661
56755W        W23296  10.729  27.463  11.219
56756W        W23297  34.201  40.394   3.693
56757W        W23298  25.718   4.345  12.922
56758W        W23299  17.193  25.635   0.866
56759W        W23300   1.512  15.114   0.404
56760W        W23301  20.795   7.889   0.450
56761W        W23302   9.642  32.213   2.168
56762W        W23303   6.710   5.960   1.902
56763W        W23304  22.201  14.172   4.409
56764W        W23305   2.357  14.314   0.264
56765W        W23306  42.572   8.722  14.534
56766W        W23307   7.743  39.317  11.680
56767W        W23308  25.342  12.971   2.146
56768W        W23309  26.275   9.814   1.919
56769W        W23310  42.919  21.645  14.298
56770W        W23311  33.616  40.315  13.373
56771W        W23312  30.910  37.534  14.561
56772W        W23313   9.820  16.113  14.995
56773W        W23314  29.445  10.271  13.994
56774W        W23315   8.996  21.993  13.968
56775W        W23316  13.346  32.751  14.556
56776W        W23317  29.138  18.587  11.121
56777W        W23318  38.390  40.273  14.961
56778W        W23319  23.379  23.453   4.559
56779W        W23320  36.828   6.857   4.080
56780W        W23321  12.723  11.047   4.509
56781W        W23322   6.336   5.736   0.474
56782W        W23323  28.589  10.049   0.745
56783W        W23324  24.221   0.275  14.069
56784W        W23325   5.411   0.493   3.311
56785W        W23326  11.696  13.828   2.904
56786W        W23327  29.207  33.211  13.926
56787W        W23328   8.252   1.712  13.818
56788W        W23329  18.026   5.267  14.464
56789W        W23330  27.603  24.689   4.175
56790W        W23331  20.731   4.020   1.416
56791W        W23332   6.141   4.775  11.966
56792W        W23333  22.573  24.914   4.804
56793W        W23334  33.474  30.737  13.942
56794W        W23335   0.312   6.791  12.454
56795W        W23336  23.037  10.340   4.201
56796W        W23337  27.528  42.517   3.140
56797W        W23338  28.817   9.972   0.288
56798W        W23339  28.018  31.090   0.355
56799W        W23340   2.335  15.591   3.200
56800W        W23341  35.771  19.031   3.669
56801W        W23342   3.351  37.471  11.556
56802W        W23343   5.485   1.443   1.281
56803W        W23344  15.078   7.970   1.413
56804W        W23345  22.693  17.854  12.567
56805W        W23346  24.298  19.258  13.955
56806W        W23347  35.113  21.997   0.139
56807W        W23348   1.386   7.468  10.819
56808W        W23349  13.494   8.651   1.551
56809W        W23350   5.440  28.159  12.209
56810W        W23351  29.907  30.343  13.053
56811W        W23352   0.797  21.172   5.030
56812W        W23353   8.883  26.551  11.571
56813W        W23354  18.237  36.012   3.230
56814W        W23355  39.419  30.333   2.673
56815W        W23356  19.421   5.392   2.990
56816W        W23357   7.292  22.832  12.391
56817W        W23358  35.350  34.050  12.034
56818W        W23359  30.834  36.790   0.738
56819W        W23360  13.789  27.369  10.714
56820W        W23361  34.130  39.767   0.587
56821W        W23362  14.646  44.340   0.448
56822W        W23363   9.901  24.408   3.731
56823W        W23364  24.216  30.459  12.998
56824W        W23365  21.941   2.694  10.255
56825W        W23366  44.158   8.414  11.061
56826W        W23367   0.613  15.172   3.898
56827W        W23368  18.985  44.384  11.997
56828W        W23369  11.466  38.858   2.000
56829W        W23370  27.094  22.461   0.011
56830W        W23371  31.956   6.627   0.476
56831W        W23372  32.347   2.397  14.389
56832W        W23373  26.315  11.818  12.563
56833W        W23374  15.537  15.015  11.087
56834W        W23375  17.151  24.786  12.314
56835W        W23376   7.624  12.228  11.538
56836W        W23377  27.305   6.839  14.676
56837W        W23378  30.079   9.870  10.034
56838W        W23379   5.829   8.931  11.936
56839W        W23380  10.891  33.026  10.948
56840W        W23381  27.681  31.545   4.687
56841W        W23382  23.147  39.374   0.025
56842W        W23383   8.666  29.843   0.895
56843W        W23384  40.037  12.698   1.178
56844W        W23385  29.907  34.958   1.479
56845W        W23386  36.991  39.744   0.245
56846W        W23387   9.231   9.870  13.951
56847W        W23388  23.456  24.446   4.564
56848W        W23389  40.408  19.932   0.282
56849W        W23390  24.249  42.823   1.946
56850W        W23391  16.223  38.481   3.652
56851W        W23392  10.121   8.313   0.958
56852W        W23393  22.602  26.892  10.799
56853W        W23394   6.164  19.040  11.981
56854W        W23395  37.880   2.415   4.069
56855W        W23396  32.410  36.310   1.705
56856W        W23397  44.901  39.819  13.410
56857W        W23398  13.626  24.037  13.620
56858W        W23399  11.350   3.383  11.511
56859W        W23400  16.840  34.490   4.375
56860W        W23401  30.606  18.365  14.527
56861W        W23402  16.245  13.380  10.695
56862W        W23403  41.984  43.344  12.008
56863W        W23404   8.276   2.171   3.634
56864W        W23405  11.345   8.746  14.967
56865W        W23406  13.669   5.691  14.557
56866W        W23407  14.880  18.275  11.976
56867W        W23408   2.963  31.616  12.475
56868W        W23409   1.397   3.710   0.899
56869W        W23410  36.195  35.994   2.650
56870W        W23411  11.101  18.233  10.719
56871W        W23412   5.746  44.670   0.775
56872W        W23413  23.555  41.092  10.665
56873W        W23414  21.765  15.265   1.813
56874W        W23415  24.816  19.539  13.230
56875W        W23416  41.307  29.928  11.600
56876W        W23417   8.602  23.257   2.221
56877W        W23418  16.546   2.356  12.069
56878W        W23419  24.099  23.380  12.138
56879W        W23420  29.856  28.517   4.865
56880W        W23421   3.871  26.717  13.954
56881W        W23422  24.007   6.751  12.092
56882W        W23423   3.922   4.065   4.379
56883W        W23424  16.125  38.149   3.245
56884W        W23425  44.779   6.786  13.304
56885W        W23426  17.016  26.697  10.163
56886W        W23427  43.073  21.220   1.420
56887W        W23428  17.271  33.322   0.988
56888W        W23429   2.841  16.282  13.451
56889W        W23430  24.127  14.720  11.708
56890W        W23431  22.038   1.647   0.944
56891W        W23432  26.087  12.055  13.934
56892W        W23433  10.311  36.367   2.851
56893W        W23434   2.947   5.839  13.513
56894W        W23435  40.067   0.361  14.232
56895W        W23436  10.271  32.783   0.409
56896W        W23437  12.684  11.198  11.957
56897W        W23438   1.292  30.481  12.211
56898W        W23439  14.276  43.108   0.004
56899W        W23440   2.261  41.003  11.863
56900W        W23441   1.475  43.232  13.629
56901W        W23442  22.354   3.335  13.950
56902W        W23443   6.934  25.577  13.975
56903W        W23444  38.972  14.135  12.601
56904W        W23445   8.845  24.936  11.509
56905W        W23446  25.543  25.945  13.377
56906W        W23447  42.323  10.867   0.264
56907W        W23448  21.325  21.459  11.998
56908W        W23449  36.748   9.878  11.106
56909W        W23450  17.523  41.763   2.358
56910W        W23451  44.869  30.605   3.728
56911W        W23452  17.340  31.059   0.388
56912W        W23453  31.691  43.852   2.531
56913W        W23454  29.112  22.903   0.312
56914W        W23455  30.113  18.648   0.474
56915W        W23456  31.154   9.367   0.217
56916W        W23457  40.512   6.758   4.649
56917W        W23458   6.728  10.368   2.733
56918W        W23459  27.434  24.545  10.798
56919W        W23460  25.548  23.247   4.214
56920W        W23461  41.457  29.903  12.708
56921W        W23462  29.035  11.586  12.032
56922W        W23463  25.682  14.041  13.164
56923W        W23464  38.505  25.654   4.527
56924W        W23465  37.324  28.191   2.290
56925W        W23466  42.094  29.642   1.796
56926W        W23467  31.847  11.951  11.166
56927W        W23468  44.936  10.148  13.125
56928W        W23469  41.883  32.262   2.716
56929W        W23470  31.872  12.592  13.435
56930W        W23471  42.804  36.369   4.545
56931W        W23472  34.881  41.816  14.862
56932W        W23473   8.433  21.209   3.168
56933W        W23474   3.829  44.207   0.365
56934W        W23475   9.043  15.275  14.980
56935W        W23476   3.655  19.113  13.932
56936W        W23477  29.176  28.298   0.483
56937W        W23478  15.150  38.441  11.865
56938W        W23479   9.374  35.316  11.559
56939W        W23480  40.391  28.438  10.619
56940W        W23481   8.664  33.474   0.455
56941W        W23482  12.876  21.832   0.418
56942W        W23483   9.620  10.301  13.475
56943W        W23484   6.763  27.594  12.354
56944W        W23485   7.980   1.500   4.974
56945W        W23486  17.261  22.106  14.898
56946W        W23487   9.730  31.383   3.840
56947W        W23488   2.555  34.158  12.560
56948W        W23489  17.186  39.477  14.753
56949W        W23490  12.596  41.874   2.219
56950W        W23491   0.977  26.242   2.875
56951W        W23492  14.128   5.252  11.943
56952W        W23493  11.960  41.077   0.117
56953W        W23494  34.547   9.277   4.526
56954W        W23495  32.365  42.279   1.359
56955W        W23496  30.120  21.282   0.231
56956W        W23497   1.003   1.612  12.943
56957W        W23498  39.983   2.245  12.627
56958W        W23499   7.334  18.675   4.075
56959W        W23500   7.690  36.972  11.396
56960W        W23501   3.118  19.180  11.157
56961W        W23502  11.085   2.566  13.958
56962W        W23503  14.338  18.688  10.795
56963W        W23504  32.625  39.617   1.373
56964W        W23505   2.842  18.336  14.405
56965W        W23506  19.835  25.077   4.755
56966W        W23507  14.832  25.186  10.854
56967W        W23508  29.878  14.271  14.559
56968W        W23509  42.941  28.937  14.825
56969W        W23510  28.694  30.375   2.248
56970W        W23511  15.053  40.666   1.180
56971W        W23512   1.283  20.159   3.185
56972W        W23513  19.089   2.630  10.950
56973W        W23514  30.208   5.802   2.748
56974W        W23515  19.233  14.146  10.250
56975W        W23516  38.028  24.737  14.911
56976W        W23517  12.413   7.147  14.266
56977W        W23518  31.140   6.934  12.580
56978W        W23519  23.472  15.902   2.147
56979W        W23520  29.760   0.328   4.624
56980W        W23521   7.178  43.524  13.051
56981W        W23522  34.559   1.084  10.252
56982W        W23523  37.403  20.454  14.604
56983W        W23524   7.314  44.128  14.342
56984W        W23525  19.107  22.595  12.381
56985W        W23526  13.635   0.183  12.884
56986W        W23527  22.407  39.459   4.759
56987W        W23528  27.034  44.913  12.988
56988W        W23529  22.494  15.632  10.613
56989W        W23530  31.459  32.916   2.236
56990W        W23531  43.368  21.374   2.111
56991W        W23532  42.714  38.265   3.670
56992W        W23533   2.140   4.298  14.826
56993W        W23534   2.763   1.340   2.806
56994W        W23535  29.616  24.744   1.391
56995W        W23536  39.426  29.735  14.395
56996W        W23537  25.852   4.758  14.618
56997W        W23538  39.134  14.253   2.328
56998W        W23539  17.872  44.701  12.733
56999W        W23540  25.941  18.157   3.901
57000W        W23541   7.889   5.886  14.795
57001W        W23542  21.766   3.146   0.003
57002W        W23543  15.780  38.391   3.867
57003W        W23544  36.092  39.463  11.526
57004W        W23545   0.953  26.420  14.005
57005W        W23546  30.983  11.660  11.489
57006W        W23547  42.942  12.723   4.807
57007W        W23548  18.071  29.609   2.519
57008W        W23549  23.937  14.642  14.877
57009W        W23550  24.027   1.789  11.642
57010W        W23551  32.105  37.887   3.217
57011W        W23552  35.998  27.851   0.700
57012W        W23553  13.157  30.507  13.181
57013W        W23554  33.893  42.207  14.375
57014W        W23555  30.176  29.520   4.716
57015W        W23556   2.002  18.752  11.995
57016W        W23557  23.717  27.537   0.864
57017W        W23558  16.855  24.593  14.581
57018W        W23559  23.054  43.116  12.732
57019W        W23560  19.253   5.076  10.355
57020W        W23561   9.864  42.457   4.775
57021W        W23562  41.785  30.514  11.604
57022W        W23563  22.587  40.804  10.615
57023W        W23564   8.735  35.008   2.975
57024W        W23565   9.652  39.915  12.912
57025W        W23566  22.037   3.498   1.322
57026W        W23567   9.197  43.956  11.779
57027W        W23568  15.753  23.940   2.860
57028W        W23569  41.332  38.521   4.132
57029W        W23570  20.732  34.312   2.666
57030W        W23571   7.895  37.642  14.604
57031W        W23572  19.930  30.095   3.415
57032W        W23573  16.823  25.745   2.329
57033W        W23574  30.050   1.585  12.589
57034W        W23575  36.938  34.522  12.541
57035W        W23576   9.925  40.903   4.570
57036W        W23577  38.359  10.629   1.244
57037W        W23578  18.161  27.405   2.417
57038W        W23579   6.846   3.468   4.645
57039W        W23580  36.087  39.992  11.569
57040W        W23581   4.928   4.471  11.443
57041W        W23582   0.794  14.417   1.412
57042W        W23583  20.331   9.667   1.195
57043W        W23584   3.731  43.787  11.478
57044W        W23585   6.179  18.674   3.129
57045W        W23586  43.049  29.924  10.591
57046W        W23587  21.730  28.354   2.747
57047W        W23588  15.506  38.820   2.341
57048W        W23589  42.345  20.035   0.323
57049W        W23590  42.483  10.194  12.037
57050W        W23591  29.241  35.042   0.949
57051W        W23592  34.546   8.497  12.958
57052W        W23593  11.769  27.444   2.798
57053W        W23594  37.482  39.037  11.588
57054W        W23595  15.228   3.677   1.244
57055W        W23596  21.954  19.244   4.285
57056W        W23597  19.706   6.655   1.902
57057W        W23598   9.390  24.204   1.923
57058W        W23599  31.534  30.199   0.802
57059W        W23600  28.854  31.231   2.870
57060W        W23601  27.676  35.979  11.200
57061W        W23602   5.820   7.606   2.207
57062W        W23603   4.417  40.849   4.562
57063W        W23604  18.373  24.727  14.472
57064W        W23605  22.123  27.733   0.352
57065W        W23606  13.210  15.978   4.168
57066W        W23607  25.407  29.452   3.188
57067W        W23608  35.165  10.298   2.278
57068W        W23609  15.556  37.039   4.215
57069W        W23610  15.231  33.489   1.287
57070W        W23611  41.483  39.895   2.766
57071W        W23612  24.062  24.450  12.901
57072W        W23613  13.759  38.416   4.710
57073W        W23614  28.545   8.910   4.598
57074W        W23615  20.548  12.629  12.567
57075W        W23616  28.524  19.908  12.062
57076W        W23617   7.440  27.613   3.618
57077W        W23618   8.207  13.706  12.113
57078W        W23619  29.654  24.142   2.777
57079W        W23620  19.515  33.022   4.336
57080W        W23621  35.277  42.894  11.220
57081W        W23622  29.150  39.968   2.737
57082W        W23623  13.345   7.734  12.891
57083W        W23624  18.749  24.694  10.773
57084W        W23625  42.462  33.198   1.502
57085W        W23626  29.441  28.524   0.861
57086W        W23627  28.032  35.585   3.657
57087W        W23628  17.292  44.784  11.560
57088W        W23629   9.638   7.183  12.993
57089W        W23630  37.086   4.856  11.532
57090W        W23631  33.955  36.672  12.409
57091W        W23632  35.067  16.943   0.805
57092W        W23633  26.064  19.146   1.497
57093W        W23634   4.715   9.186   3.675
57094W        W23635   2.892   3.393  12.599
57095W        W23636  15.827   6.229  12.518
57096W        W23637   0.664  39.206  14.307
57097W        W23638  28.957  36.637   1.768
57098W        W23639  10.477  12.864  11.490
57099W        W23640   0.342  32.412   0.859
57100W        W23641  21.094   2.493   4.039
57101W        W23642  41.157   4.707   4.995
57102W        W23643   3.927  25.164  12.968
57103W        W23644  18.283   9.223  12.361
57104W        W23645  12.661  37.543  11.939
57105W        W23646  31.629  24.736  13.905
57106W        W23647  21.690  30.900   3.161
57107W        W23648  31.831  40.266   3.686
57108W        W23649  43.770   3.248  12.597
57109W        W23650  34.882  15.672  12.909
57110W        W23651  44.327  34.972   0.572
57111W        W23652  15.767   1.772  10.677
57112W        W23653  27.052  30.447  12.153
57113W        W23654  30.879  10.645   3.240
57114W        W23655  41.734  17.264  12.108
57115W        W23656  38.210  38.637   4.499
57116W        W23657   6.812  13.761   0.798
57117W        W23658  27.684  15.972   3.262
57118W        W23659   8.047   7.737   0.319
57119W        W23660  40.382  19.794   3.050
57120W        W23661  41.315  38.242  12.429
57121W        W23662  17.212  38.940   2.195
57122W        W23663   4.262  41.943  14.297
57123W        W23664  29.956  34.066  13.849
57124W        W23665  34.588  16.885   0.037
57125W        W23666  32.414  12.826   1.710
57126W        W23667  17.477  33.979   4.203
57127W        W23668  28.386   1.011   0.492
57128W        W23669   8.427  25.700   0.642
57129W        W23670  16.567  44.054   1.309
57130W        W23671  24.583   0.196  14.444
57131W        W23672  10.167   9.319  12.971
57132W        W23673   9.624  16.103   2.287
57133W        W23674  42.899  30.579  11.373
57134W        W23675  11.335  28.145  12.546
57135W        W23676  44.658   8.812   4.565
57136W        W23677  42.565  27.013  13.563
57137W        W23678   2.691   2.856  12.543
57138W        W23679  40.344  34.611  13.029
57139W        W23680   2.503  20.605   4.250
57140W        W23681   2.321  40.978  10.385
57141W        W23682  24.015  41.116   2.171
57142W        W23683  17.715   4.744  12.055
57143W        W23684   7.806   7.028   4.918
57144W        W23685   1.247  26.658   0.350
57145W        W23686  13.029  26.794  13.599
57146W        W23687  29.229  15.551  14.434
57147W        W23688  33.247  23.873   0.327
57148W        W23689  20.194  17.661  10.445
57149W        W23690  29.489  36.620  13.418
57150W        W23691  43.893  16.984  14.104
57151W        W23692  15.802  41.855  12.761
57152W        W23693  12.177  42.198  11.223
57153W        W23694  10.999  38.841   3.923
57154W        W23695  16.777  15.639   1.867
57155W        W23696  38.587  43.445  14.163
57156W        W23697  18.450  23.004  12.592
57157W        W23698  22.148  43.376  11.440
57158W        W23699   2.304   9.805  12.844
57159W        W23700  14.710  26.128   0.274
57160W        W23701   0.663   9.912   0.795
57161W        W23702   3.319  27.121   4.019
57162W        W23703  26.668  13.338  14.357
57163W        W23704  39.317  21.123  11.369
57164W        W23705  21.004   6.512   3.614
57165W        W23706  34.153  17.221  11.583
57166W        W23707  12.762  13.612  12.098
57167W        W23708   0.008  25.972   0.269
57168W        W23709  36.767   4.917  13.850
57169W        W23710   9.847  18.547  10.986
57170W        W23711  31.011  20.649  11.566
57171W        W23712  30.168  31.555  10.556
57172W        W23713  40.379  40.698   1.950
57173W        W23714   6.141  20.108  12.036
57174W        W23715   6.959  18.764   3.586
57175W        W23716  33.397  34.005  14.757
57176W        W23717   5.754   5.857   1.772
57177W        W23718  12.843  16.203   2.316
57178W        W23719   1.765  17.426  12.445
57179W        W23720  10.427  36.664  14.550
57180W        W23721  20.711  11.901   1.309
57181W        W23722  36.841  24.089   1.267
57182W        W23723  26.671   6.218   2.793
57183W        W23724  38.965  35.923  12.969
57184W        W23725  38.633  19.103   0.283
57185W        W23726  23.904  39.186  14.503
57186W        W23727   8.855  42.154   9.958
57187W        W23728  40.945  42.460   3.249
57188W        W23729   9.823  33.515   3.155
57189W        W23730   1.651  43.538  11.566
57190W        W23731   5.313  14.318   2.306
57191W        W23732   8.307  39.045   1.613
57192W        W23733  15.102  29.320   4.622
57193W        W23734   7.782  15.406   1.811
57194W        W23735  29.598   6.283   2.501
57195W        W23736  32.932  25.592   1.872
57196W        W23737  40.371  12.412  11.134
57197W        W23738  35.814  33.465  10.937
57198W        W23739  36.508  11.874   4.185
57199W        W23740  41.558  44.256   3.714
57200W        W23741  24.040  15.626  14.652
57201W        W23742  24.725   9.415  12.555
57202W        W23743  21.525  17.810  10.830
57203W        W23744  41.759  30.718   0.283
57204W        W23745  35.119  10.866  13.945
57205W        W23746  27.366  44.766   4.165
57206W        W23747  40.718   9.211   0.003
57207W        W23748  34.320  22.666   3.371
57208W        W23749   8.828  39.885   5.211
57209W        W23750  39.461   4.017   1.363
57210W        W23751  32.623  24.562  10.716
57211W        W23752   8.933  42.158   2.456
57212W        W23753   7.609  16.146  12.608
57213W        W23754  27.692  11.924  12.381
57214W        W23755   8.590  30.201   2.715
57215W        W23756  20.551   2.051  14.579
57216W        W23757  43.807  34.892  14.554
57217W        W23758  18.281  21.672   3.127
57218W        W23759  20.019  10.266   1.688
57219W        W23760   7.528  13.548  14.074
57220W        W23761  21.112  39.477   2.831
57221W        W23762  17.987  34.953  14.858
57222W        W23763   1.135  19.728  12.597
57223W        W23764  15.506   5.692  11.105
57224W        W23765   0.500  18.833   2.697
57225W        W23766  12.024  41.377  10.738
57226W        W23767  39.618   0.356  14.498
57227W        W23768  24.000  26.532   3.352
57228W        W23769   7.611  11.343   1.208
57229W        W23770  27.057  35.606  14.318
57230W        W23771   7.699  35.068  11.815
57231W        W23772  39.812  20.151   2.774
57232W        W23773   1.935  23.775   2.027
57233W        W23774  27.540   7.825   0.477
57234W        W23775  23.026  23.161  10.670
57235W        W23776   4.250   1.270   2.587
57236W        W23777   2.933  42.456   1.252
57237W        W23778  27.012  27.847   3.000
57238W        W23779  41.786  22.247   4.474
57239W        W23780   3.769  17.164   2.419
57240W        W23781  29.011  21.556   1.479
57241W        W23782  43.935  40.040  12.895
57242W        W23783  42.784  27.653  14.335
57243W        W23784  32.440   6.515   2.196
57244W        W23785  43.767  30.964   0.389
57245W        W23786  43.120  39.545   1.030
57246W        W23787  44.808   5.958   3.366
57247W        W23788  34.607  14.748  11.180
57248W        W23789  21.732  17.229  12.491
57249W        W23790  37.781  40.456   1.373
57250W        W23791   4.540  41.326   2.213
57251W        W23792  36.567  14.140   1.116
57252W        W23793  24.645   3.892  11.480
57253W        W23794  39.729  40.732  13.444
57254W        W23795  41.469   1.231  13.309
57255W        W23796  11.449  12.845  11.605
57256W        W23797  41.573  34.670  12.020
57257W        W23798  18.181  16.054  13.128
57258W        W23799  32.971  33.837  12.500
57259W        W23800  22.382  34.603  12.963
57260W        W23801   5.397  24.770   0.760
57261W        W23802  34.397  36.132  11.594
57262W        W23803  24.044  10.094  14.332
57263W        W23804  40.440  10.614  13.204
57264W        W23805   9.626  44.307  12.406
57265W        W23806   1.805  16.081  12.014
57266W        W23807  18.794   1.387  10.909
57267W        W23808   4.276  15.347  13.847
57268W        W23809  34.465  42.927  14.400
57269W        W23810  12.388  11.622  11.911
57270W        W23811  14.948  30.075  14.490
57271W        W23812  18.631  15.868  13.687
57272W        W23813  19.902  26.643  13.837
57273W        W23814   3.066  34.713  11.852
57274W        W23815  24.137  11.112   3.462
57275W        W23816  41.844  15.325   1.487
57276W        W23817  33.949  42.740  14.531
57277W        W23818  23.279  16.732  11.515
57278W        W23819  14.188  26.763   4.631
57279W        W23820   5.363  21.054  13.544
57280W        W23821  11.626  21.608   2.721
57281W        W23822  21.692   2.566  10.701
57282W        W23823  23.544  33.312  14.875
57283W        W23824   9.666   1.969  10.477
57284W        W23825  31.436  19.869  14.036
57285W        W23826  11.241  21.790   3.564
57286W        W23827   6.080  44.871  13.415
57287W        W23828  18.115  29.320  12.544
57288W        W23829  29.635   8.804   0.807
57289W        W23830  39.281  40.508   1.353
57290W        W23831   6.787  22.239   3.354
57291W        W23832  34.538   1.326   5.429
57292W        W23833  20.772  35.520   4.197
57293W        W23834  19.662  16.768  11.600
57294W        W23835  35.311  43.740  12.977
57295W        W23836  44.834   8.592   4.093
57296W        W23837  10.855  23.803  14.671
57297W        W23838  44.339  32.984  14.445
57298W        W23839  33.833   0.817   3.175
57299W        W23840  28.808   4.931   4.645
57300W        W23841   6.131  12.405  10.742
57301W        W23842  23.160  13.548   3.529
57302W        W23843  11.631   0.986   0.528
57303W        W23844  39.326  20.955  13.549
57304W        W23845  34.480  41.442  13.047
57305W        W23846  20.687  31.937   1.350
57306W        W23847  17.229   5.288   1.430
57307W        W23848  30.547  16.507   2.376
57308W        W23849  27.911  33.015   3.656
57309W        W23850  37.632  23.511   0.966
57310W        W23851   2.779  43.080   3.655
57311W        W23852  40.975   7.306  12.077
57312W        W23853   5.196  32.039   2.117
57313W        W23854  37.293  38.808   1.361
57314W        W23855   0.159  13.318  12.056
57315W        W23856  17.691  32.057   2.359
57316W        W23857  33.493  30.906   3.583
57317W        W23858   5.941  33.834   2.773
57318W        W23859  40.178  18.015   0.433
57319W        W23860  28.196   1.155   5.004
57320W        W23861  14.937  16.796  11.286
57321W        W23862   0.972   6.974  14.413
57322W        W23863  10.617  44.784   1.145
57323W        W23864   1.820  35.494  14.224
57324W        W23865  29.670  23.009   2.749
57325W        W23866  36.050  38.876  12.313
57326W        W23867  14.101  42.320   1.731
57327W        W23868  28.369  14.115   0.044
57328W        W23869  41.798  37.569   2.674
57329W        W23870  16.495  37.889  13.284
57330W        W23871  18.889  11.716  14.286
57331W        W23872   5.175  29.153  12.043
57332W        W23873  12.033  38.842  11.160
57333W        W23874   3.847  29.907  14.317
57334W        W23875  34.092  22.267  10.497
57335W        W23876  27.429  41.877  14.915
57336W        W23877  21.358  15.022  11.451
57337W        W23878   4.461   5.682  10.888
57338W        W23879   3.652  27.439   2.316
57339W        W23880  27.429  11.133   3.694
57340W        W23881  20.700  30.417   2.442
57341W        W23882  18.654  22.174   1.952
57342W        W23883   4.928   8.398   4.163
57343W        W23884  17.022  31.558   1.046
57344W        W23885  30.473  38.262  14.923
57345W        W23886  35.043  21.077  14.790
57346W        W23887  41.156  14.284  12.783
57347W        W23888  20.130  19.796  14.935
57348W        W23889  14.335  32.978   2.835
57349W        W23890  10.722  32.998   0.279
57350W        W23891  27.739  21.525  13.328
57351W        W23892  18.901  28.756  12.904
57352W        W23893   3.329   4.195  12.964
57353W        W23894   3.525  21.746  11.213
57354W        W23895   6.704  27.146   3.751
57355W        W23896  12.278  40.263   1.415
57356W        W23897   8.618  44.652  14.772
57357W        W23898  30.351   1.034   4.627
57358W        W23899  31.064  19.321   1.785
57359W        W23900  39.096   5.885   3.362
57360W        W23901  42.793  26.991   4.165
57361W        W23902   0.744  32.478   0.477
57362W        W23903  21.665   6.862  11.976
57363W        W23904  26.601   3.375  12.793
57364W        W23905  15.740  25.296   1.511
57365W        W23906  27.132  20.212  13.782
57366W        W23907  27.131  37.362  14.847
57367W        W23908  21.030  42.298   1.419
57368W        W23909  21.421  28.806   3.256
57369W        W23910  28.635  43.816  11.114
57370W        W23911  19.527  14.826  13.897
57371W        W23912  32.537  39.655   0.523
57372W        W23913  44.915  21.354   2.664
57373W        W23914   6.206  44.978  12.364
57374W        W23915  12.841  32.757  11.486
57375W        W23916  21.082  13.363  13.507
57376W        W23917  14.050  31.881   2.234
57377W        W23918  30.092  41.862  11.319
57378W        W23919  17.220  24.051   0.722
57379W        W23920  41.453   4.322  10.703
57380W        W23921  25.583   6.743   0.639
57381W        W23922  17.232   0.437  10.523
57382W        W23923   7.855  41.847   1.863
57383W        W23924   1.665   4.560  13.870
57384W        W23925   7.698  12.720  14.829
57385W        W23926  20.999  32.877   2.820
57386W        W23927  10.246  38.714   3.699
57387W        W23928  34.845  38.853   0.675
57388W        W23929  15.769  39.246  14.966
57389W        W23930  44.524   6.952  14.216
57390W        W23931  22.013  31.136  11.603
57391W        W23932  35.124  25.162   4.949
57392W        W23933  19.050  20.937   4.071
57393W        W23934  41.758  31.988   2.271
57394W        W23935   3.856  18.844  14.352
57395W        W23936  14.190  24.308  11.559
57396W        W23937   4.324  27.636  11.548
57397W        W23938   0.946  38.589  12.450
57398W        W23939  42.725  24.266  11.529
57399W        W23940  35.593   7.873   2.811
57400W        W23941  30.608  39.114   2.677
57401W        W23942  17.252  16.738   2.392
57402W        W23943  33.343  22.516   2.772
57403W        W23944  41.090  35.940  11.601
57404W        W23945   2.029  27.511   0.952
57405W        W23946  29.630  16.614  13.023
57406W        W23947  23.449  14.317  13.420
57407W        W23948  18.228  39.152   1.756
57408W        W23949  15.230  33.411   1.809
57409W        W23950  22.979   8.810  13.857
57410W        W23951  12.097   6.636   1.486
57411W        W23952  20.720  27.252  11.990
57412W        W23953  18.755   9.420  12.489
57413W        W23954  32.881  14.641   0.050
57414W        W23955  24.589  37.683   9.893
57415W        W23956  21.594  11.752  13.796
57416W        W23957  38.087   7.525  10.880
57417W        W23958  18.171  40.949  10.999
57418W        W23959  14.587  12.622   2.268
57419W        W23960   3.102  11.233  14.837
57420W        W23961  29.132  44.796  10.846
57421W        W23962  20.834  34.965  12.145
57422W        W23963  29.184  19.621   2.844
57423W        W23964  41.095  28.057   3.341
57424W        W23965   1.755  23.465   0.399
57425W        W23966   9.560  26.717   3.384
57426W        W23967  28.038   2.657  12.456
57427W        W23968   8.623  32.919  14.276
57428W        W23969  19.568  23.008   4.884
57429W        W23970  15.865  32.589  14.385
57430W        W23971   9.410  17.383   3.991
57431W        W23972  42.743  19.144  11.534
57432W        W23973   5.797  37.116  11.149
57433W        W23974  20.045  30.863   0.501
57434W        W23975  12.190   5.786   4.681
57435W        W23976  28.969  19.180  14.349
57436W        W23977  26.961  11.397  11.913
57437W        W23978  14.281  14.976   1.009
57438W        W23979  18.740   5.813  12.675
57439W        W23980  32.508   6.352  13.593
57440W        W23981  33.139  11.831  14.848
57441W        W23982  19.109  41.763  11.226
57442W        W23983  22.164  34.583   3.749
57443W        W23984  38.509  38.739   3.348
57444W        W23985  27.961  21.308   0.209
57445W        W23986  26.581   5.339  10.688
57446W        W23987   4.777   5.642  13.076
57447W        W23988  23.293  27.043  11.288
57448W        W23989   8.683  10.971  10.862
57449W        W23990  17.771  19.656   3.310
57450W        W23991  40.358   2.306   0.045
57451W        W23992  36.916  10.808   3.723
57452W        W23993  31.157   4.777  11.291
57453W        W23994  26.454  18.799   0.865
57454W        W23995  29.413  27.682  10.746
57455W        W23996  18.243  26.543  14.379
57456W        W23997  33.368  25.972   3.657
57457W        W23998   6.375  36.737   3.238
57458W        W23999  36.365  25.052   4.098
57459W        W24000  29.690  44.822  12.711
57460W        W24001  31.070  26.714  14.245
57461W        W24002   2.949   6.335  12.010
57462W        W24003   9.186  22.940  13.921
57463W        W24004  44.361  32.868  10.699
57464W        W24005  38.609  30.135   0.199
57465W        W24006  19.301  19.157   0.666
57466W        W24007  35.282  39.694  11.198
57467W        W24008  35.576   0.858   0.588
57468W        W24009  20.744  17.604   1.472
57469W        W24010  12.760  36.802   3.439
57470W        W24011  27.712  32.463   2.878
57471W        W24012   1.603   0.340  13.346
57472W        W24013   4.716   2.884  14.822
57473W        W24014   8.811  30.590   2.965
57474W        W24015  17.423  37.834  10.578
57475W        W24016   2.172  40.998   1.973
57476W        W24017  41.019   2.590   3.645
57477W        W24018  10.138   5.629  12.647
57478W        W24019  35.413  31.216   1.433
57479W        W24020  35.031   2.458   0.278
57480W        W24021  32.190  44.798  14.055
57481W        W24022  20.337  21.185   0.801
57482W        W24023  23.640  32.179   2.178
57483W        W24024  16.417  23.923   0.057
57484W        W24025   7.665  20.541   2.191
57485W        W24026  22.674  42.040   9.984
57486W        W24027  11.955  40.350   2.425
57487W        W24028   3.343  25.259  14.332
57488W        W24029  27.595  34.079  14.965
57489W        W24030   5.718   1.617   4.431
57490W        W24031   3.278  38.410   2.012
57491W        W24032  34.566  34.626  11.638
57492W        W24033  40.555  26.370   3.786
57493W        W24034  40.746  40.451  12.307
57494W        W24035  28.060  21.533  11.011
57495W        W24036  22.272  20.761  11.380
57496W        W24037  20.891  18.127   1.310
57497W        W24038  36.531  15.546   1.876
57498W        W24039  17.002  31.977   9.718
57499W        W24040  38.326  41.079   2.787
57500W        W24041  37.884  15.083   4.329
57501W        W24042  44.000  19.299   3.632
57502W        W24043  26.208  31.583  11.962
57503W        W24044  34.615  28.584   4.899
57504W        W24045  19.145  36.083   3.238
57505W        W24046  28.601  33.388   3.192
57506W        W24047  36.795  40.084  14.852
57507W        W24048  16.246  28.167  11.996
57508W        W24049  34.035  14.401   4.212
57509W        W24050  11.800  17.652  12.956
57510W        W24051  18.144  10.863   3.798
57511W        W24052  25.528  31.043  14.337
57512W        W24053   9.803  14.303   0.229
57513W        W24054  38.029  33.597   3.985
57514W        W24055  25.580  35.071  10.171
57515W        W24056  32.554  43.274   1.363
57516W        W24057  24.131  25.657   3.851
57517W        W24058   5.945   6.311  11.401
57518W        W24059  12.386  12.312   2.193
57519W        W24060  31.560  28.480   3.393
57520W        W24061   9.844  14.739   2.672
57521W        W24062  42.025  10.977   1.888
57522W        W24063   3.901  29.502  13.156
57523W        W24064  43.529  29.913  11.180
57524W        W24065  25.525  29.167   0.564
57525W        W24066  24.836  25.692  14.487
57526W        W24067  13.263  24.881  14.985
57527W        W24068  22.797  41.431  11.080
57528W        W24069  10.799  21.680   4.282
57529W        W24070  33.345  17.023  12.461
57530W        W24071   5.473  25.074  11.645
57531W        W24072  10.857   2.144   4.615
57532W        W24073   4.318  38.971  11.268
57533W        W24074  12.848   3.636  12.959
57534W        W24075  44.546  24.061  14.724
57535W        W24076  35.344  19.310   3.834
57536W        W24077  16.852  40.669  13.895
57537W        W24078  32.433   1.910   0.995
57538W        W24079   1.379  14.376   4.742
57539W        W24080  30.498  28.885  12.107
57540W        W24081  42.505  44.893   3.151
57541W        W24082  30.705  43.932   3.991
57542W        W24083  24.052  32.412  14.855
57543W        W24084   3.936  33.637  10.687
57544W        W24085  15.360  18.893   4.135
57545W        W24086  13.141   9.690   3.847
57546W        W24087  29.602  38.772   0.792
57547W        W24088  23.496  41.454   0.922
57548W        W24089  10.218  19.689   4.657
57549W        W24090  39.708  36.227   0.305
57550W        W24091  40.729  18.834  11.041
57551W        W24092  24.111   3.145   1.855
57552W        W24093   3.622  12.109  10.412
57553W        W24094  38.889  27.030  10.724
57554W        W24095   0.110   7.529  10.986
57555W        W24096  22.609  42.525  11.146
57556W        W24097  31.591  24.718   4.527
57557W        W24098  12.360   3.981  14.831
57558W        W24099  28.491  27.920  14.987
57559W        W24100  43.867  44.175   3.351
57560W        W24101   7.769  20.987   1.917
57561W        W24102   2.308   2.368   2.768
57562W        W24103  20.321  40.742  12.499
57563W        W24104   9.315  20.573   0.562
57564W        W24105   4.288  44.208   1.431
57565W        W24106   4.284  15.530  11.248
57566W        W24107  15.761  12.110   1.785
57567W        W24108  30.577   4.892   3.554
57568W        W24109  22.542  24.158   1.497
57569W        W24110  39.941  31.932   0.206
57570W        W24111  27.902  41.784   2.042
57571W        W24112  30.710   2.040   4.673
57572W        W24113  40.927  18.436   4.892
57573W        W24114   1.886  19.684  11.855
57574W        W24115  38.951   9.643  12.124
57575W        W24116   2.925  30.101  14.041
57576W        W24117  41.024  18.799   2.418
57577W        W24118  33.452  12.942   4.133
57578W        W24119   6.137  23.019  13.296
57579W        W24120  17.251  14.159   1.026
57580W        W24121  28.961   5.033  10.449
57581W        W24122  33.988  21.616  13.396
57582W        W24123   8.876  21.084  14.419
57583W        W24124   0.748   2.493  13.614
57584W        W24125  23.263  34.913   1.870
57585W        W24126  28.551  13.055   3.746
57586W        W24127   2.342  18.600   2.943
57587W        W24128   2.205  31.998  11.866
57588W        W24129  17.924   8.990  13.506
57589W        W24130   0.733  38.414  14.527
57590W        W24131  34.958  20.746  14.425
57591W        W24132   7.438   3.700  10.287
57592W        W24133  20.124  18.143   1.856
57593W        W24134  21.445  11.542  13.308
57594W        W24135  37.598   9.575   2.361
57595W        W24136  13.119   7.208   4.614
57596W        W24137  28.698  18.313  11.685
57597W        W24138  12.522   6.241   4.612
57598W        W24139  14.175  35.074  14.475
57599W        W24140  16.659  30.692  14.420
57600W        W24141   8.701  40.472  11.855
57601W        W24142  22.720  28.926  13.315
57602W        W24143  25.517  25.060  10.787
57603W        W24144  12.402  25.622   0.764
57604W        W24145  15.756  41.306   4.573
57605W        W24146  34.598  27.972  12.928
57606W        W24147  35.935  13.585  12.827
57607W        W24148  35.497  42.971  10.753
57608W        W24149  44.922  15.521  14.773
57609W        W24150  30.165   4.924   5.017
57610W        W24151  27.614   5.221   2.877
57611W        W24152  24.268  24.305   0.863
57612W        W24153  42.874  13.823  12.983
57613W        W24154  34.336   8.595  13.430
57614W        W24155   3.025  26.338  14.958
57615W        W24156   7.181  15.789   2.708
57616W        W24157  29.050  11.128   1.979
57617W        W24158  15.729   0.799  13.303
57618W        W24159  24.131   6.699  13.098
57619W        W24160   6.810  14.181  11.810
57620W        W24161   9.616  37.562  13.516
57621W        W24162   0.366  21.605  11.964
57622W        W24163  20.531  19.812  13.187
57623W        W24164   8.649  24.303  12.708
57624W        W24165  33.858  42.692  13.570
57625W        W24166  29.864  16.026   2.794
57626W        W24167  14.861   1.402   4.202
57627W        W24168  19.835  11.918   4.469
57628W        W24169  24.246  44.224  13.157
57629W        W24170   6.712  30.661  11.141
57630W        W24171  25.372  31.886   5.334
57631W        W24172  19.517  27.633   1.311
57632W        W24173  17.568  44.042   3.500
57633W        W24174  14.072  39.014   3.820
57634W        W24175   1.721  18.828   1.737
57635W        W24176  26.919  33.988  12.915
57636W        W24177  18.356  11.555   0.402
57637W        W24178  34.930  33.060   1.205
57638W        W24179   4.307  17.281  11.011
57639W        W24180  31.159  42.020  11.120
57640W        W24181  10.336  34.781   3.759
57641W        W24182  21.798  12.861   4.080
57642W        W24183  15.879   4.185   3.620
57643W        W24184   6.869   8.412   1.835
57644W        W24185  26.409  26.796  13.353
57645W        W24186  36.427  14.425  14.662
57646W        W24187  41.186   7.573   2.788
57647W        W24188  33.004  42.409   3.556
57648W        W24189  25.261  23.465   2.636
57649W        W24190  20.725  30.367   4.245
57650W        W24191  26.351  36.512   4.650
57651W        W24192  29.063  21.617   4.472
57652W        W24193   7.283  22.456   1.236
57653W        W24194  25.541  43.314  11.966
57654W        W24195   2.728  17.671   0.214
57655W        W24196  39.220   6.950  11.625
57656W        W24197  21.606  41.875  14.270
57657W        W24198  35.379   9.724   0.217
57658W        W24199  26.316  39.842  10.478
57659W        W24200  43.456  11.421  11.137
57660W        W24201  19.113   0.207   1.472
57661W        W24202   1.489   5.176   4.194
57662W        W24203  31.606   5.655   0.834
57663W        W24204  36.438  21.699  11.970
57664W        W24205  39.277  28.759  12.169
57665W        W24206  44.460  33.619  14.051
57666W        W24207  14.034  36.603  12.835
57667W        W24208  11.267  27.412   1.267
57668W        W24209   8.656  39.508  10.813
57669W        W24210  23.648  27.666   2.846
57670W        W24211  37.576  41.884   1.264
57671W        W24212   0.160  39.894  13.846
57672W        W24213   8.730   8.685  13.833
57673W        W24214  35.311  18.841   1.831
57674W        W24215  44.909   6.208  11.550
57675W        W24216  15.812  20.622  12.928
57676W        W24217  27.553  41.517  10.507
57677W        W24218  29.433  44.402  10.647
57678W        W24219  10.759  17.976   4.799
57679W        W24220  34.881   7.338  14.279
57680W        W24221  39.995  29.706   4.968
57681W        W24222  12.015  42.519   2.260
57682W        W24223  31.637  17.242   2.459
57683W        W24224   4.437  25.612  14.463
57684W        W24225  37.494  34.851  11.520
57685W        W24226  31.498  36.479  12.884
57686W        W24227  14.202   0.963   4.789
57687W        W24228   2.991   1.572  13.534
57688W        W24229  20.060  19.731   2.239
57689W        W24230  31.507  20.950   4.028
57690W        W24231  29.602  28.176   3.173
57691W        W24232  19.282  17.479   1.229
57692W        W24233   6.707  28.002   4.048
57693W        W24234  26.318  37.117  13.643
57694W        W24235  20.300  19.866   5.064
57695W        W24236  18.273   8.145  14.025
57696W        W24237   5.954   3.655   3.216
57697W        W24238  30.049  13.338   2.238
57698W        W24239  29.373  30.068   0.746
57699W        W24240  30.855  22.844   4.643
57700W        W24241  30.647  29.428   3.259
57701W        W24242  28.878  19.361   1.433
57702W        W24243  44.534  41.479   3.171
57703W        W24244   4.604  29.199  12.889
57704W        W24245   6.404  40.453  14.491
57705W        W24246  13.610  42.991   1.275
57706W        W24247  24.898  23.688  12.493
57707W        W24248  12.663   3.873   0.255
57708W        W24249  25.581  30.102  14.237
57709W        W24250  12.175  36.807  14.799
57710W        W24251  36.497  14.120   3.330
57711W        W24252   9.187  18.530  12.435
57712W        W24253   4.131  27.042   2.859
57713W        W24254  38.484   1.227   1.922
57714W        W24255  29.503   7.932   0.000
57715W        W24256  37.445  36.069  10.045
57716W        W24257  38.968  13.430  11.967
57717W        W24258  11.093  36.781  13.030
57718W        W24259  27.069  26.750  14.488
57719W        W24260  40.504  41.857   2.988
57720W        W24261   1.884  21.949  10.633
57721W        W24262  41.979  32.498   4.116
57722W        W24263  38.088   3.105   4.247
57723W        W24264  30.368  34.393   3.409
57724W        W24265  16.546  11.678  13.988
57725W        W24266  25.884  27.759  11.048
57726W        W24267  39.989  31.086   0.289
57727W        W24268   7.970  36.748  10.432
57728W        W24269  37.788  23.765  11.597
57729W        W24270  34.293   9.444   3.326
57730W        W24271  22.526  44.974   3.225
57731W        W24272  21.349   8.343  14.933
57732W        W24273   5.217  12.340   4.165
57733W        W24274  15.383  26.151   3.229
57734W        W24275  12.103  39.372   0.655
57735W        W24276  32.467  13.530  13.988
57736W        W24277  17.495   0.397   2.916
57737W        W24278  14.637  27.533   3.241
57738W        W24279  25.262   9.418  12.489
57739W        W24280  34.488  30.951  13.053
57740W        W24281  19.929  10.843   2.971
57741W        W24282  21.824  27.609  13.578
57742W        W24283  40.289  24.327  11.886
57743W        W24284  11.627  17.182   0.726
57744W        W24285   8.333  14.338   3.654
57745W        W24286  10.651  41.864  12.942
57746W        W24287  26.586  18.278   3.148
57747W        W24288  41.455   8.858   0.443
57748W        W24289  19.409  17.221  10.660
57749W        W24290   1.044   2.965   4.878
57750W        W24291  31.839   3.642  12.900
57751W        W24292   8.621  28.612   4.381
57752W        W24293  10.122  43.440   3.713
57753W        W24294   1.918   2.193  13.258
57754W        W24295  13.418  32.406   0.577
57755W        W24296  18.497  16.069  11.842
57756W        W24297   6.122  12.293   3.822
57757W        W24298   1.536  35.459  12.357
57758W        W24299  14.859  18.165   1.756
57759W        W24300   7.623  28.835   3.432
57760W        W24301  38.355  42.672   1.328
57761W        W24302  34.425   7.807   2.146
57762W        W24303  35.608  23.431  10.658
57763W        W24304  22.553  30.488  14.320
57764W        W24305  39.985  37.466  10.748
57765W        W24306  39.052  21.323   3.500
57766W        W24307  31.219  13.312  12.556
57767W        W24308  43.701  41.430   0.444
57768W        W24309  10.330  19.342   2.335
57769W        W24310  12.645  20.827   2.913
57770W        W24311  42.005  43.139   3.163
57771W        W24312  12.100   7.201   4.713
57772W        W24313  40.377   1.260  12.894
57773W        W24314   8.389   3.471   0.072
57774W        W24315  19.068   1.652   2.359
57775W        W24316  32.604  24.966  14.165
57776W        W24317  32.717   3.671  11.218
57777W        W24318  10.133  41.433  10.657
57778W        W24319  17.046   4.164   0.904
57779W        W24320  38.018   6.854  13.845
57780W        W24321  40.960  29.545   4.628
57781W        W24322  25.636  23.649  13.837
57782W        W24323   6.228  33.326   1.379
57783W        W24324  38.311   3.277  10.637
57784W        W24325  12.793  36.688   1.709
57785W        W24326   7.116  14.594   3.298
57786W        W24327  31.834  43.391   2.225
57787W        W24328  36.348  10.274   2.675
57788W        W24329   9.011  32.750   1.763
57789W        W24330  22.163  23.479   3.317
57790W        W24331  14.679  39.227   0.920
57791W        W24332  27.334  15.887  14.691
57792W        W24333  20.160  20.227  12.188
57793W        W24334  37.626  18.059   2.729
57794W        W24335  36.422  29.088  12.065
57795W        W24336  22.646  39.234   0.149
57796W        W24337  35.445   8.627  12.524
57797W        W24338  27.503  17.116  10.772
57798W        W24339  29.881  28.789   2.823
57799W        W24340   0.242  37.090  13.529
57800W        W24341  33.457  31.836  10.657
57801W        W24342  41.897  31.016  14.840
57802W        W24343  27.037  13.365   1.830
57803W        W24344  17.958  17.172   0.869
57804W        W24345  33.687  40.402   3.153
57805W        W24346  28.703  31.438  12.893
57806W        W24347  31.688  39.592   1.385
57807W        W24348  40.071  35.356   2.166
57808W        W24349  21.971   3.393   0.437
57809W        W24350  26.676  42.978  14.969
57810W        W24351  20.475  41.545  12.272
57811W        W24352  15.701  21.333  10.286
57812W        W24353   8.415   1.549  11.082
57813W        W24354  44.876  17.029  14.387
57814W        W24355  35.333  21.630  13.055
57815W        W24356  33.976  31.160   4.247
57816W        W24357  18.506  34.453   1.421
57817W        W24358  19.800  42.436  12.576
57818W        W24359   8.443  29.098  11.598
57819W        W24360  20.188  20.971  14.421
57820W        W24361   9.816  25.730  11.197
57821W        W24362   4.487  38.589  12.101
57822W        W24363  32.678  40.368  13.414
57823W        W24364   7.298  18.434   0.931
57824W        W24365  29.486  24.983   4.943
57825W        W24366  30.433  38.455   0.442
57826W        W24367  40.574   3.350   3.715
57827W        W24368  12.872  25.410   0.744
57828W        W24369  35.861  32.770  12.972
57829W        W24370  35.942  38.273   4.519
57830W        W24371  18.483  34.089  11.673
57831W        W24372  21.001  19.681  10.832
57832W        W24373  40.928  40.024  13.538
57833W        W24374   3.579   7.627  14.307
57834W        W24375   9.262  29.583   0.197
57835W        W24376   8.329  21.806   0.300
57836W        W24377  19.166  37.774   2.826
57837W        W24378  31.868  16.239   2.728
57838W        W24379  37.276   4.481   3.268
57839W        W24380  12.605  24.045   1.269
57840W        W24381   4.193  37.385  10.576
57841W        W24382  40.740  15.980   5.544
57842W        W24383  13.699  44.297   0.791
57843W        W24384   3.947  33.421  13.104
57844W        W24385  22.166  44.879   2.787
57845W        W24386  22.602  39.105   3.824
57846W        W24387  44.167  38.318   0.885
57847W        W24388  25.278  41.338   5.193
57848W        W24389   0.019  26.249   3.935
57849W        W24390   8.274  11.744   1.880
57850W        W24391  23.444  17.550  13.062
57851W        W24392  26.787  25.720   1.430
57852W        W24393   5.459  33.984  10.081
57853W        W24394  38.792  31.159  13.545
57854W        W24395  14.419  39.889   1.810
57855W        W24396  28.687  31.325   3.703
57856W        W24397  44.029  41.477   4.578
57857W        W24398  31.888  39.902   4.511
57858W        W24399  31.024  15.053  10.145
57859W        W24400   6.630   6.348   3.341
57860W        W24401  29.944  26.303   0.871
57861W        W24402  28.133   9.437   2.202
57862W        W24403  25.758  29.969  10.754
57863W        W24404  15.606  38.395   4.838
57864W        W24405  16.602  34.456   0.919
57865W        W24406  44.770  33.890  12.553
57866W        W24407  27.417  15.376  14.801
57867W        W24408  13.193  21.996  12.292
57868W        W24409  37.606   5.716  13.874
57869W        W24410   1.131  12.088   0.885
57870W        W24411  17.788  18.824   0.553
57871W        W24412  13.856  18.814  14.772
57872W        W24413  17.574  12.214  13.923
57873W        W24414  23.756   7.340  11.258
57874W        W24415  25.005   1.283  12.210
57875W        W24416  33.358  22.930   0.765
57876W        W24417   5.701  35.082   1.364
57877W        W24418  43.599  11.378   2.855
57878W        W24419  37.792  11.521   1.444
57879W        W24420  35.655  28.940  13.137
57880W        W24421  38.485  35.384   2.232
57881W        W24422  32.971  37.302   0.409
57882W        W24423   5.004  22.779   1.674
57883W        W24424   1.949   4.418   2.674
57884W        W24425  20.222  34.596   4.255
57885W        W24426  24.349  20.438   4.057
57886W        W24427  21.117  34.467   3.348
57887W        W24428  40.092  41.423   0.880
57888W        W24429  22.725  15.369   4.276
57889W        W24430   5.651  24.575  11.668
57890W        W24431  33.674  18.489   1.447
57891W        W24432   0.843  20.779   1.926
57892W        W24433   4.841  19.556  12.958
57893W        W24434  34.176  13.717  12.478
57894W        W24435  33.743  13.650  11.539
57895W        W24436   9.126  21.026  13.972
57896W        W24437  37.478  25.565   4.062
57897W        W24438  17.108   5.151   0.940
57898W        W24439  21.546  40.011  12.426
57899W        W24440  21.651  12.582   1.729
57900W        W24441   4.969   5.289   0.946
57901W        W24442  21.386  33.915   2.327
57902W        W24443  10.359  30.665  12.945
57903W        W24444  17.539   0.871  12.202
57904W        W24445  24.504  28.760  11.496
57905W        W24446  30.632  21.594   3.314
57906W        W24447   4.027  15.190   1.780
57907W        W24448  21.964   2.941   2.129
57908W        W24449  41.311  44.801  14.103
57909W        W24450   8.354   9.673  11.421
57910W        W24451  14.654  35.635  10.569
57911W        W24452  29.637   3.421  14.656
57912W        W24453   4.954  36.669  10.792
57913W        W24454   9.179  11.788   4.196
57914W        W24455  16.507  42.017   0.307
57915W        W24456  21.956  26.491   0.797
57916W        W24457  24.816  36.861   3.250
57917W        W24458  28.169  30.455   4.611
57918W        W24459  11.213  24.189  14.804
57919W        W24460  18.226  11.710  14.917
57920W        W24461  34.564   1.409  11.100
57921W        W24462  23.469  28.217  14.756
57922W        W24463  39.506  34.833   1.372
57923W        W24464   6.626  14.257  11.009
57924W        W24465   9.625   7.807  13.972
57925W        W24466  17.204  17.710   4.327
57926W        W24467   4.413  17.098  11.497
57927W        W24468  26.028  18.545   3.187
57928W        W24469  40.603  15.848  13.950
57929W        W24470  18.858  26.098   2.894
57930W        W24471  26.256   3.642   1.276
57931W        W24472  37.822  33.874   0.958
57932W        W24473  36.870  32.924  13.054
57933W        W24474  24.032  37.403  14.821
57934W        W24475   9.355  27.041   2.060
57935W        W24476  43.074  31.003  11.590
57936W        W24477  44.541  29.850   0.884
57937W        W24478   2.995  16.124  12.948
57938W        W24479  17.630  23.340  11.048
57939W        W24480  11.643   6.187  11.645
57940W        W24481  39.545  19.087   4.113
57941W        W24482  32.386  23.667   2.291
57942W        W24483  28.041   7.509  12.057
57943W        W24484   7.922   7.077   0.464
57944W        W24485  35.799   6.800  14.993
57945W        W24486  34.850  43.000   2.328
57946W        W24487  31.780  29.528   1.887
57947W        W24488   1.982  18.034   3.263
57948W        W24489  30.018  32.056  11.612
57949W        W24490  34.095   2.803   2.269
57950W        W24491  27.485  21.199   0.377
57951W        W24492  43.795  18.625  13.497
57952W        W24493   3.919  27.689  10.517
57953W        W24494  34.685  12.684  13.417
57954W        W24495   0.287   4.734   2.477
57955W        W24496  18.153  16.790  10.650
57956W        W24497  42.765  18.451  12.582
57957W        W24498  40.527   2.257  11.412
57958W        W24499  39.863  23.707   4.459
57959W        W24500  35.387  15.852   3.283
57960W        W24501  11.845  18.169   2.704
57961W        W24502   9.809  14.228  13.024
57962W        W24503  35.538  20.767  13.838
57963W        W24504  27.654  19.277   0.823
57964W        W24505   8.853  42.010  14.716
57965W        W24506  37.618  16.598  10.924
57966W        W24507  38.319  27.898  12.173
57967W        W24508  23.185  31.903  12.392
57968W        W24509  26.050  29.447   0.805
57969W        W24510  29.934   6.854  14.866
57970W        W24511  30.756  13.346   0.802
57971W        W24512  37.989   9.350   1.397
57972W        W24513  26.211  35.075  11.623
57973W        W24514  33.805  25.046  11.572
57974W        W24515  40.360  15.519  10.505
57975W        W24516   8.179  44.910  11.164
57976W        W24517  24.301  24.282  14.251
57977W        W24518  12.161  41.403   0.468
57978W        W24519  17.338  14.036   4.162
57979W        W24520   5.299   1.547  12.222
57980W        W24521  22.925  29.645   1.080
57981W        W24522  13.173  13.310  13.445
57982W        W24523  19.734  11.236  10.109
57983W        W24524  29.601  11.414  13.424
57984W        W24525  12.759   3.364   4.663
57985W        W24526  32.961  31.566  13.581
57986W        W24527  39.090  13.891  12.163
57987W        W24528   3.471  29.501   1.294
57988W        W24529   1.807  20.039  13.016
57989W        W24530  21.139   8.665   0.289
57990W        W24531  23.708   5.928  12.064
57991W        W24532   9.369   5.329   2.147
57992W        W24533  32.564   8.659  11.638
57993W        W24534   2.390  33.683  12.652
57994W        W24535  28.903   3.512   2.606
57995W        W24536   7.846  29.698  11.962
57996W        W24537   9.273  16.945   3.743
57997W        W24538  38.049  15.762  12.176
57998W        W24539  31.970  27.494  13.896
57999W        W24540   4.956  41.623   4.115
58000W        W24541  39.858  18.822  14.433
58001W        W24542  23.720  37.840   1.316
58002W        W24543   0.717   1.262   2.649
58003W        W24544  18.597  37.459   0.078
58004W        W24545  36.923   4.402  11.725
58005W        W24546  19.536   3.932   0.943
58006W        W24547  33.536   2.891  12.848
58007W        W24548  10.059  29.932  13.958
58008W        W24549  34.275  25.891  11.631
58009W        W24550  19.202  26.529   1.714
58010W        W24551  17.465  26.943  11.607
58011W        W24552  13.391   2.304  11.539
58012W        W24553  36.579  41.027   2.220
58013W        W24554  11.748  26.117   4.885
58014W        W24555  28.550  30.278   0.713
58015W        W24556  18.817  42.475   4.051
58016W        W24557  36.456  41.016  13.796
58017W        W24558  36.906  39.008   1.707
58018W        W24559  11.887  24.237  11.074
58019W        W24560  22.569  18.157   4.374
58020W        W24561  26.649   3.195   4.216
58021W        W24562  17.721   2.722  10.770
58022W        W24563  35.543  38.560   4.661
58023W        W24564  44.942  10.634   0.276
58024W        W24565  20.687  31.722  11.668
58025W        W24566  32.258  34.573  12.514
58026W        W24567  41.039   7.195  12.935
58027W        W24568   2.759  29.140   1.351
58028W        W24569   5.976  14.752  11.604
58029W        W24570  22.132   7.399  13.103
58030W        W24571   3.331   0.262  12.058
58031W        W24572  25.680  11.903  13.350
58032W        W24573  34.887  44.252   4.103
58033W        W24574  15.723  15.338   3.202
58034W        W24575   1.717  23.524   4.338
58035W        W24576  44.955  16.251  11.680
58036W        W24577  10.451  27.567  14.423
58037W        W24578   4.771  21.191  11.650
58038W        W24579  17.557  39.339  14.379
58039W        W24580  15.003  28.425  10.341
58040W        W24581   5.284  36.423  12.484
58041W        W24582  20.527  44.005  10.639
58042W        W24583  36.544  18.636  12.721
58043W        W24584   2.312  14.259   2.856
58044W        W24585   7.560  35.306   1.381
58045W        W24586  10.593   7.302   1.930
58046W        W24587  36.404  26.254  11.142
58047W        W24588   2.978  43.050   3.180
58048W        W24589  24.493  42.875   1.347
58049W        W24590  33.434  25.776   1.919
58050W        W24591  18.272  41.865   1.826
58051W        W24592  25.765  13.982   3.323
58052W        W24593   5.720   2.867   1.569
58053W        W24594  42.760  29.410  12.930
58054W        W24595  12.952  10.893  14.413
58055W        W24596  12.293  10.838   0.881
58056W        W24597  14.859  10.738   0.990
58057W        W24598  21.635  10.161   4.447
58058W        W24599  11.560  32.090  12.529
58059W        W24600  26.009   4.204  12.524
58060W        W24601  31.958  41.935   1.362
58061W        W24602  24.326  33.137   0.361
58062W        W24603  37.911  20.993   1.270
58063W        W24604  28.047  12.193  10.253
58064W        W24605  16.993  39.829   1.485
58065W        W24606  32.015  30.800  14.226
58066W        W24607  37.884  43.911   1.856
58067W        W24608   4.684  16.318  10.764
58068W        W24609  42.732  40.731  13.945
58069W        W24610  11.583  30.554  13.473
58070W        W24611  27.378  36.394   4.656
58071W        W24612  25.298  23.222   0.482
58072W        W24613   0.427  19.835   4.283
58073W        W24614  32.156  30.381   0.254
58074W        W24615  12.820  27.182   1.383
58075W        W24616  15.529   6.145   4.543
58076W        W24617  17.129  39.116   0.447
58077W        W24618  34.498   0.241  14.870
58078W        W24619  39.822  29.410   3.789
58079W        W24620  11.026  33.507   1.139
58080W        W24621  12.227  40.063  11.988
58081W        W24622   2.861  28.976   1.857
58082W        W24623  41.523  18.168   1.772
58083W        W24624   7.762  28.978   3.923
58084W        W24625   2.792  43.134   1.402
58085W        W24626  12.119  24.089  14.677
58086W        W24627  40.164   8.320  12.313
58087W        W24628  24.561  33.967   1.862
58088W        W24629  28.419   3.441  12.870
58089W        W24630  18.657  26.179  13.007
58090W        W24631  40.192  43.589   1.768
58091W        W24632   8.774  35.056  10.807
58092W        W24633  10.827  14.724   4.215
58093W        W24634   6.541  39.861  11.627
58094W        W24635  22.682  44.765  13.356
58095W        W24636  40.249   9.432  14.950
58096W        W24637  38.490  14.744  11.684
58097W        W24638  38.594   1.358   3.868
58098W        W24639   7.290   7.731   4.927
58099W        W24640   7.722  14.550  11.594
58100W        W24641  11.832  43.171   1.336
58101W        W24642  42.851   4.766  11.641
58102W        W24643   7.301  23.045   4.086
58103W        W24644  22.897  19.674  14.930
58104W        W24645  10.459   3.844  12.493
58105W        W24646  42.257  39.370   0.676
58106W        W24647  30.755  14.750   3.622
58107W        W24648  13.819  14.328  11.130
58108W        W24649   6.152  29.205  12.084
58109W        W24650  32.977  39.383   0.454
58110W        W24651  35.947   3.356   0.360
58111W        W24652  27.947  43.879   0.315
58112W        W24653   3.663  19.693   2.725
58113W        W24654  41.440   4.397  12.542
58114W        W24655  36.902  22.258   1.718
58115W        W24656  10.083   8.822  10.279
58116W        W24657  43.768  25.508   2.749
58117W        W24658  22.196   4.423   2.313
58118W        W24659  13.815   3.116   2.133
58119W        W24660  30.397  13.411  11.469
58120W        W24661  42.143   0.229   0.552
58121W        W24662  13.687  13.232  13.545
58122W        W24663  37.394  12.867  12.112
58123W        W24664  16.233   3.989   1.208
58124W        W24665  14.649   6.462  13.396
58125W        W24666  10.748  29.132  12.018
58126W        W24667   7.445  39.307  14.312
58127W        W24668   2.580  44.475  14.047
58128W        W24669  18.550  44.656  12.020
58129W        W24670  44.519  23.814  12.582
58130W        W24671  16.863  26.414  11.984
58131W        W24672  32.449   7.353   3.194
58132W        W24673   1.238  25.602  14.358
58133W        W24674   6.920  38.819   3.724
58134W        W24675  16.220  17.210   4.165
58135W        W24676  16.344  32.642   2.809
58136W        W24677  42.920  36.377   3.563
58137W        W24678   1.694  16.859   1.803
58138W        W24679  10.866  22.248   2.746
58139W        W24680  43.568  10.892   2.386
58140W        W24681  22.104  32.550  14.220
58141W        W24682  26.171  19.827   4.472
58142W        W24683  37.738   9.667   0.391
58143W        W24684  11.195  33.429  13.929
58144W        W24685  20.257  13.044  11.767
58145W        W24686  41.193  28.964  11.511
58146W        W24687  27.124  26.951   1.448
58147W        W24688   5.240  10.621   2.680
58148W        W24689  33.564  34.846   0.769
58149W        W24690  13.684   9.540  12.870
58150W        W24691  32.674  40.995  12.428
58151W        W24692   2.786   3.453  11.391
58152W        W24693   2.320   5.019  10.978
58153W        W24694   6.284  38.343   9.603
58154W        W24695  12.443   5.755   0.098
58155W        W24696  43.433  23.721  11.338
58156W        W24697  41.822  30.037  14.987
58157W        W24698  34.900  28.065  10.586
58158W        W24699  19.048  24.562   1.778
58159W        W24700  29.049  44.816   2.759
58160W        W24701  37.893  27.734   2.204
58161W        W24702  39.843   4.828  10.955
58162W        W24703  38.057  37.314   2.961
58163W        W24704   8.080   0.442   3.215
58164W        W24705  23.702  30.900  14.742
58165W        W24706  23.426  17.727   2.122
58166W        W24707  25.703   5.981  12.077
58167W        W24708  42.160   5.343   1.650
58168W        W24709   1.084  35.000   3.181
58169W        W24710   4.159  17.629   1.857
58170W        W24711   4.765  40.673  11.545
58171W        W24712  18.277  12.035  12.014
58172W        W24713  11.820  25.126   2.186
58173W        W24714  38.100  29.004   1.961
58174W        W24715  28.097  20.245   3.162
58175W        W24716  25.540  10.434  11.454
58176W        W24717  14.317  39.808   2.753
58177W        W24718  29.418   1.722  12.035
58178W        W24719  44.443  35.999  14.095
58179W        W24720  27.784   8.898  14.425
58180W        W24721  38.870   0.488   3.747
58181W        W24722  31.756  29.029   1.468
58182W        W24723  16.008  38.235  14.702
58183W        W24724  34.581  31.912   2.834
58184W        W24725  44.361   6.290   2.785
58185W        W24726  42.270  19.591  13.164
58186W        W24727   7.880  15.183  12.363
58187W        W24728  25.181  34.252  12.097
58188W        W24729  22.009   6.430  14.596
58189W        W24730  18.056   3.912  14.436
58190W        W24731  38.601  15.750   1.827
58191W        W24732  12.109  37.764  13.771
58192W        W24733  39.330  38.059   0.514
58193W        W24734   1.034  42.465  12.433
58194W        W24735  31.548  21.920   2.854
58195W        W24736  40.493  30.981   0.033
58196W        W24737  22.189  43.718  11.835
58197W        W24738   1.384   1.422   4.514
58198W        W24739  37.144  42.399   3.747
58199W        W24740  42.760  11.349  12.215
58200W        W24741  42.557  44.038   4.243
58201W        W24742  27.944  15.482   1.955
58202W        W24743  15.499   6.995  13.531
58203W        W24744  43.952  11.775   0.468
58204W        W24745  30.261   2.603   0.325
58205W        W24746  29.108   4.713  14.368
58206W        W24747  42.043   4.970  11.228
58207W        W24748  18.774  35.879  13.925
58208W        W24749  12.600   0.428  11.277
58209W        W24750  14.490   1.224   3.825
58210W        W24751  38.716  35.287  11.109
58211W        W24752   9.737   4.244   2.733
58212W        W24753  38.367  38.617  13.042
58213W        W24754  10.778  40.022   5.030
58214W        W24755  27.530  32.607   1.014
58215W        W24756  37.462  42.262  12.656
58216W        W24757  39.010   6.732  12.088
58217W        W24758  33.066  11.234  12.341
58218W        W24759  35.569  19.151  11.450
58219W        W24760   1.323  17.307   0.207
58220W        W24761  25.608  36.262   0.182
58221W        W24762  21.248  27.141  14.071
58222W        W24763  40.211  26.316   4.967
58223W        W24764   5.004   2.303  12.088
58224W        W24765  20.598  37.804   2.515
58225W        W24766  34.255  10.314   2.376
58226W        W24767  36.823  15.773  13.467
58227W        W24768  36.891  15.049  13.823
58228W        W24769  29.340  37.040   1.813
58229W        W24770  25.221  18.585   4.975
58230W        W24771   8.964  41.780  11.710
58231W        W24772  28.637  24.573   0.438
58232W        W24773  19.684  25.997   4.684
58233W        W24774  44.012  39.854  11.390
58234W        W24775  26.508   1.032   1.880
58235W        W24776  32.477  18.994  13.649
58236W        W24777  30.103  21.809   0.162
58237W        W24778  24.039  37.412  12.378
58238W        W24779  33.884   1.930  13.864
58239W        W24780  34.959  40.335  13.382
58240W        W24781  10.331  35.664  11.096
58241W        W24782  31.621  23.604  13.099
58242W        W24783  44.055  36.957   0.216
58243W        W24784  15.871   7.285  13.295
58244W        W24785  21.593  39.398   3.055
58245W        W24786  13.338  20.610   0.848
58246W        W24787  44.001  11.150   2.272
58247W        W24788   9.680  25.175   4.224
58248W        W24789  17.880  10.554   2.853
58249W        W24790   6.439   7.246  13.103
58250W        W24791   7.013  32.623   3.745
58251W        W24792  12.523  43.896   2.660
58252W        W24793  14.975  32.849   2.063
58253W        W24794  16.527  18.759  12.882
58254W        W24795  37.274  23.992  13.570
58255W        W24796  41.369   7.660  11.252
58256W        W24797   3.067  19.671  11.373
58257W        W24798   2.858   1.417   0.929
58258W        W24799   7.861  10.326  14.901
58259W        W24800  24.374   7.203   3.897
58260W        W24801   2.527  38.738   4.628
58261W        W24802  29.649   6.852   0.788
58262W        W24803  38.923  43.246   1.144
58263W        W24804  18.840  32.229   3.248
58264W        W24805   8.725  15.299  10.719
58265W        W24806  11.471  33.919  13.956
58266W        W24807  30.013  38.399   0.776
58267W        W24808  42.029  29.748  14.461
58268W        W24809  24.468  22.626   3.672
58269W        W24810  23.172  42.371   4.065
58270W        W24811  28.962  37.469   0.738
58271W        W24812  36.946  29.677   3.916
58272W        W24813   2.905  17.724   3.286
58273W        W24814  12.159  41.907  10.786
58274W        W24815  24.209  12.219   3.319
58275W        W24816  44.293   4.872  13.494
58276W        W24817  20.559   8.339   0.354
58277W        W24818  28.897  20.695   3.292
58278W        W24819  42.860  28.413  10.736
58279W        W24820  21.600  29.612  13.553
58280W        W24821   1.857  21.702   0.813
58281W        W24822  44.336  13.064   4.834
58282W        W24823   3.301  44.892   4.922
58283W        W24824  30.238  41.403   3.025
58284W        W24825  34.673   1.895  11.192
58285W        W24826  42.915  43.277  11.566
58286W        W24827  31.686  14.573   0.932
58287W        W24828  40.820  13.849  12.868
58288W        W24829  29.474  42.447   0.353
58289W        W24830  32.596   8.427  13.983
58290W        W24831  22.638  15.774  14.315
58291W        W24832  16.885  31.510   3.174
58292W        W24833   4.931  30.186  11.053
58293W        W24834   6.541  41.464  10.681
58294W        W24835  22.607  20.064  14.321
58295W        W24836   4.600  32.619   3.136
58296W        W24837  32.993  43.951   4.511
58297W        W24838  39.590  24.567  12.472
58298W        W24839  41.410   5.059   1.308
58299W        W24840  12.634  37.716  14.538
58300W        W24841  11.639  15.127  12.136
58301W        W24842  37.032  10.576  12.147
58302W        W24843  25.964  41.289   4.746
58303W        W24844  29.013  39.976  14.444
58304W        W24845  26.117  34.430   2.714
58305W        W24846  27.541   8.655  14.915
58306W        W24847  19.984  20.146   0.267
58307W        W24848  16.720  32.600   1.913
58308W        W24849  34.416  35.819   4.635
58309W        W24850  42.559  15.621   0.864
58310W        W24851  31.013  35.322  14.456
58311W        W24852  17.908  12.252   4.407
58312W        W24853  41.950  27.020   3.823
58313W        W24854  20.985  10.619  13.900
58314W        W24855  33.128  19.095   1.179
58315W        W24856  16.246  22.921   0.044
58316W        W24857  28.885  12.071   0.829
58317W        W24858  31.881  16.707  13.825
58318W        W24859  13.808  26.046  10.694
58319W        W24860  27.669   6.352  12.642
58320W        W24861  40.318  29.616  12.897
58321W        W24862  44.718  30.087  11.702
58322W        W24863  40.822  31.627  12.406
58323W        W24864  36.644   9.886  13.383
58324W        W24865  25.654  34.923  14.927
58325W        W24866  40.108   8.923   4.016
58326W        W24867   3.268  23.314  13.248
58327W        W24868   6.232  15.813  13.518
58328W        W24869   6.945  17.812  14.524
58329W        W24870  31.947  38.864  14.410
58330W        W24871   8.353  29.767  13.221
58331W        W24872  21.070  27.801   5.085
58332W        W24873   6.735  13.720   2.331
58333W        W24874   5.440  22.651   0.992
58334W        W24875  28.799  13.922  10.101
58335W        W24876  10.250   3.438   0.828
58336W        W24877  26.610  32.348   4.958
58337W        W24878   0.309  10.521  14.409
58338W        W24879   9.532  40.571   1.881
58339W        W24880  23.601  30.170   2.195
58340W        W24881   6.367   9.300   1.210
58341W        W24882  32.781   6.345   0.090
58342W        W24883  40.812  26.201   2.128
58343W        W24884  23.348  20.820  14.346
58344W        W24885  17.280  34.143   3.726
58345W        W24886  12.629   3.089  11.099
58346W        W24887  38.085  27.183  13.327
58347W        W24888  39.196  27.901  12.024
58348W        W24889  26.056  42.577  12.047
58349W        W24890   3.469  27.097   0.457
58350W        W24891  32.903  31.536   0.116
58351W        W24892  34.013  41.354  13.279
58352W        W24893  18.566  14.385   1.155
58353W        W24894  27.459  28.751  14.992
58354W        W24895  24.656  28.938   3.390
58355W        W24896  13.131   4.543  12.070
58356W        W24897  44.414  35.155   1.414
58357W        W24898  37.320   0.832  14.294
58358W        W24899  18.458  18.594  11.321
58359W        W24900  22.713  38.586   2.760
58360W        W24901  24.152  17.271  14.772
58361W        W24902  22.455  20.478  13.559
58362W        W24903  27.637  26.412   0.907
58363W        W24904  33.489  12.813  12.937
58364W        W24905  43.974  16.542  13.868
58365W        W24906  27.949  43.838  13.889
58366W        W24907   2.826  43.827   4.341
58367W        W24908  27.155  35.526  11.232
58368W        W24909  27.776  22.842  10.283
58369W        W24910  26.097  17.604  11.024
58370W        W24911  22.191   9.372  14.033
58371W        W24912  31.516  21.679  14.446
58372W        W24913  11.083  42.650   2.995
58373W        W24914   9.702  38.237   9.739
58374W        W24915  17.206  32.070   3.630
58375W        W24916  33.035  35.559  14.812
58376W        W24917  32.820  24.552  11.183
58377W        W24918  35.396   2.711   3.598
58378W        W24919  27.999  40.498   1.667
58379W        W24920   0.508   1.219  11.035
58380W        W24921  21.646  35.090  14.373
58381W        W24922  43.741   5.674   2.776
58382W        W24923  33.875  26.046   0.916
58383W        W24924  14.088  44.537  14.989
58384W        W24925  43.544  31.835   2.656
58385W        W24926  31.490  40.445   1.706
58386W        W24927  21.639  40.050   1.828
58387W        W24928  42.226  31.335   2.378
58388W        W24929  37.802   6.971  12.974
58389W        W24930   7.809  44.953   0.293
58390W        W24931  41.549  36.606   3.139
58391W        W24932  29.863  10.437   1.380
58392W        W24933  28.199  28.770  13.429
58393W        W24934  24.722  28.244  14.368
58394W        W24935  32.414  34.553   4.536
58395W        W24936   0.865  21.207  11.685
58396W        W24937  14.619  30.074   1.873
58397W        W24938  37.930  40.342  11.591
58398W        W24939  44.750  41.587  11.986
58399W        W24940   7.265   0.171  12.970
58400W        W24941  27.314  36.591  11.331
58401W        W24942   7.994  24.368   0.047
58402W        W24943  26.669  42.257   1.363
58403W        W24944  10.249  44.055   0.484
58404W        W24945  14.618  43.203  13.767
58405W        W24946  31.446  19.609  14.893
58406W        W24947  11.250  12.478   4.370
58407W        W24948   8.248  44.982   0.008
58408W        W24949  18.292  16.521   1.289
58409W        W24950   5.669  33.909   3.212
58410W        W24951   2.277  29.667  13.364
58411W        W24952  40.265   5.204   0.453
58412W        W24953   7.893  32.947   1.220
58413W        W24954  31.707   6.347  13.636
58414W        W24955  39.420   3.736  12.206
58415W        W24956  42.045  23.257  12.834
58416W        W24957  27.431   4.199   2.667
58417W        W24958  42.494  25.301   0.805
58418W        W24959   3.183  17.301  12.980
58419W        W24960  12.138  18.371   0.414
58420W        W24961  28.235  30.919   4.866
58421W        W24962  40.768  24.286   0.416
58422W        W24963  13.824  28.595  12.009
58423W        W24964  11.904  30.422  12.042
58424W        W24965   7.865  36.398  12.954
58425W        W24966  29.385  18.245   3.141
58426W        W24967   6.796   1.921  10.547
58427W        W24968   5.794  26.492   4.748
58428W        W24969  25.413  26.512  10.708
58429W        W24970  31.161  13.222   1.453
58430W        W24971  38.967  31.029  12.461
58431W        W24972  25.932  36.643  12.645
58432W        W24973  33.919  13.094  13.102
58433W        W24974  38.754  14.918   4.179
58434W        W24975  44.252  34.574  13.866
58435W        W24976  34.872  37.950  10.617
58436W        W24977   1.462  39.050  14.923
58437W        W24978  24.752  42.441  14.461
58438W        W24979  35.889  42.804   2.465
58439W        W24980   6.726  10.240  13.027
58440W        W24981  17.846  29.239  14.402
58441W        W24982  29.668  28.698   3.293
58442W        W24983  16.048   9.259  14.444
58443W        W24984   3.182  21.946  12.897
58444W        W24985  20.671   9.918  14.440
58445W        W24986   7.005  18.417   0.374
58446W        W24987  27.102   4.768  12.908
58447W        W24988  13.591  18.041   1.264
58448W        W24989  17.407  17.080   3.643
58449W        W24990   1.366   0.726  14.401
58450W        W24991   0.034  35.066  13.965
58451W        W24992   3.309  24.127   1.723
58452W        W24993  32.253  20.112   2.909
58453W        W24994  42.318  30.137  14.255
58454W        W24995  44.412   8.008  10.189
58455W        W24996  27.205   7.477   3.129
58456W        W24997  31.476  36.335  13.392
58457W        W24998  36.017   8.184   1.856
58458W        W24999  28.461  14.160  12.937
58459W        W25000  44.995   8.209   1.207
58460W        W25001  37.185  29.611   2.177
58461W        W25002  33.160  16.468  11.193
58462W        W25003   2.961  32.053  14.387
58463W        W25004  39.087  22.780  13.849
58464W        W25005  24.472  34.819  12.625
58465W        W25006   5.835  18.281   3.115
58466W        W25007  32.303  32.898  11.516
58467W        W25008  21.746  32.222   1.241
58468W        W25009  17.296   3.107   9.903
58469W        W25010  17.313  40.016   3.462
58470W        W25011   6.828   4.269   3.076
58471W        W25012  10.922  38.889   2.134
58472W        W25013  27.363  39.058   3.809
58473W        W25014  12.670  23.529   1.178
58474W        W25015  39.225  39.540   4.242
58475W        W25016  31.617  36.911   3.646
58476W        W25017  36.851  10.520  14.025
58477W        W25018  16.770  28.376   3.226
58478W        W25019   5.001  43.176   4.118
58479W        W25020  37.974  32.671  13.640
58480W        W25021  29.045  21.605  14.087
58481W        W25022  42.456  26.241   4.119
58482W        W25023  18.208  18.673   4.628
58483W        W25024  26.044  10.935  13.765
58484W        W25025  17.026  21.442   0.095
58485W        W25026  17.517  13.536   2.661
58486W        W25027  23.901  38.431  11.657
58487W        W25028  30.023   4.403   0.276
58488W        W25029  36.476  25.230   0.485
58489W        W25030   6.128  39.246  13.303
58490W        W25031  30.413  35.959  13.862
58491W        W25032  25.153  18.177   2.611
58492W        W25033  17.149   4.666   0.387
58493W        W25034  40.427  28.704   3.776
58494W        W25035  11.324   6.506  10.794
58495W        W25036  24.743  44.710  14.341
58496W        W25037  19.313   5.871  12.580
58497W        W25038  40.386  26.289  13.859
58498W        W25039  20.576   2.513   1.359
58499W        W25040  39.467   7.986  11.652
58500W        W25041   0.807  28.000  13.174
58501W        W25042  25.232  22.707  13.884
58502W        W25043  19.313  25.960  13.548
58503W        W25044  34.401  10.813  10.579
58504W        W25045  22.173  12.790   9.968
58505W        W25046  25.998  35.639  13.527
58506W        W25047  11.915  16.930  12.342
58507W        W25048  35.185  27.663   4.573
58508W        W25049   2.333  41.880   1.783
58509W        W25050   4.221  32.071  10.959
58510W        W25051  31.888  33.628  10.628
58511W        W25052  29.712  29.358  12.987
58512W        W25053   8.212   0.190   0.527
58513W        W25054  15.942  13.262  10.262
58514W        W25055  24.996   1.882  13.504
58515W        W25056  16.787  41.797  10.706
58516W        W25057  22.856  21.560   2.093
58517W        W25058  30.579  14.131  11.992
58518W        W25059  26.008  18.030   4.413
58519W        W25060  40.724   4.073  12.844
58520W        W25061  35.023  16.237   4.553
58521W        W25062  38.376   1.974   1.308
58522W        W25063   9.161  35.129  13.578
58523W        W25064  40.465  29.193   3.588
58524W        W25065  11.756  14.282  14.281
58525W        W25066   1.195  42.793   4.626
58526W        W25067  17.740  27.928  14.897
58527W        W25068   5.309   3.812  13.446
58528W        W25069  42.486   1.859  10.791
58529W        W25070   9.207  31.860   3.292
58530W        W25071  10.800  34.448   2.830
58531W        W25072   0.933  38.912  11.747
58532W        W25073   2.295  30.167  11.822
58533W        W25074  15.159   9.855   0.221
58534W        W25075   0.324  22.562  10.378
58535W        W25076  12.131  43.186   0.241
58536W        W25077  43.583  27.944  12.141
58537W        W25078   5.784  30.679  11.112
58538W        W25079  34.341  23.545   2.167
58539W        W25080  25.784   3.815   2.248
58540W        W25081  34.178  16.079   2.227
58541W        W25082  14.340  36.249  13.620
58542W        W25083  28.535  10.112  14.861
58543W        W25084  25.358   2.280   3.092
58544W        W25085  29.431  18.919  13.449
58545W        W25086  36.048  37.988  14.383
58546W        W25087  38.517  14.863  11.171
58547W        W25088  21.683  16.065   2.254
58548W        W25089  13.306  35.859  13.115
58549W        W25090   1.404  20.322  13.574
58550W        W25091  10.293  16.277   1.284
58551W        W25092  22.757   6.844  12.072
58552W        W25093  19.880  18.238  12.978
58553W        W25094  22.649  42.285  12.917
58554W        W25095  40.256  17.529  10.345
58555W        W25096  27.664  19.819  10.752
58556W        W25097  38.249  42.000  13.506
58557W        W25098  14.588  39.001   1.376
58558W        W25099  36.576  21.373  11.218
58559W        W25100  19.212  29.742   0.821
58560W        W25101  27.158  22.771   1.940
58561W        W25102  30.232  33.573  12.497
58562W        W25103  36.092  11.889  13.432
58563W        W25104  13.866  16.020  12.399
58564W        W25105   9.929  33.956   4.094
58565W        W25106  35.176  14.256   1.336
58566W        W25107   0.923  28.332   2.813
58567W        W25108   0.023  23.676  13.946
58568W        W25109  29.187  14.481   4.466
58569W        W25110  14.782  35.152  10.715
58570W        W25111  28.491  43.343  10.258
58571W        W25112  24.863  25.584   2.227
58572W        W25113  42.235  11.865  10.697
58573W        W25114   8.011   2.358  13.747
58574W        W25115  13.824  26.015   1.922
58575W        W25116  29.075   1.411   0.718
58576W        W25117  20.636  39.937   1.632
58577W        W25118  26.361  38.916  14.733
58578W        W25119  44.958  40.915  12.477
58579W        W25120  30.053  13.659  14.769
58580W        W25121  15.080   9.882  11.080
58581W        W25122  36.882  34.947   4.485
58582W        W25123  30.493  34.975  11.658
58583W        W25124  41.397  29.958  14.119
58584W        W25125  10.337  16.299  11.165
58585W        W25126  29.950  27.672  10.661
58586W        W25127  16.458  33.479  11.951
58587W        W25128  13.825   2.887   2.581
58588W        W25129  41.653  16.308  10.721
58589W        W25130  12.885  34.855   2.197
58590W        W25131  24.935  40.505  11.954
58591W        W25132  29.884  21.701   2.371
58592W        W25133   7.169   9.191  12.138
58593W        W25134  43.741  41.705   3.708
58594W        W25135  18.152  15.906  13.926
58595W        W25136  23.775  41.553   2.310
58596W        W25137  40.381   8.162   4.690
58597W        W25138   4.679  16.689   2.714
58598W        W25139  31.619  20.700   2.170
58599W        W25140  37.829  17.271   2.237
58600W        W25141   2.338  37.165  10.019
58601W        W25142  30.027  15.714  13.578
58602W        W25143   6.637  21.056   2.693
58603W        W25144  31.429  17.553  12.038
58604W        W25145   4.190  34.459   4.641
58605W        W25146  40.669  42.192  13.097
58606W        W25147  11.647  27.913   0.255
58607W        W25148  33.116  31.903  12.377
58608W        W25149  37.172  30.808  13.744
58609W        W25150  30.172  19.669   3.691
58610W        W25151  40.081   8.715  14.285
58611W        W25152  20.832   6.856  13.000
58612W        W25153  21.661  16.771  14.237
58613W        W25154  13.205  32.542   0.056
58614W        W25155   9.502  34.125  11.495
58615W        W25156  19.823   8.537  14.926
58616W        W25157   5.733  37.410  11.917
58617W        W25158   1.678  17.098   4.452
58618W        W25159  32.159  44.969   0.494
58619W        W25160  12.180   0.520   4.704
58620W        W25161  16.080  11.934  10.504
58621W        W25162  10.543  13.169   2.948
58622W        W25163   8.807  41.524  12.959
58623W        W25164  24.596  10.624   4.729
58624W        W25165  42.728  41.999   4.893
58625W        W25166   0.829  18.967  11.499
58626W        W25167  16.719  12.955  11.743
58627W        W25168  18.512  27.767  13.927
58628W        W25169  43.422  28.623   4.066
58629W        W25170  38.364   0.894   0.332
58630W        W25171  33.552  14.347   3.538
58631W        W25172  18.256  28.923  14.437
58632W        W25173  32.471   7.225  12.135
58633W        W25174   5.138  36.489   2.301
58634W        W25175  17.798   0.888   2.111
58635W        W25176  25.423  16.683  10.329
58636W        W25177   8.276  25.542  14.269
58637W        W25178  43.572  11.386   1.058
58638W        W25179  12.536  30.068  11.483
58639W        W25180   8.355  11.778  10.550
58640W        W25181  13.878  30.426   3.800
58641W        W25182  43.328  22.091   1.940
58642W        W25183   5.023  33.124   1.890
58643W        W25184  36.019  32.883   2.227
58644W        W25185  17.626  40.368   4.230
58645W        W25186  10.231   4.277   2.978
58646W        W25187   7.248  22.596   0.721
58647W        W25188  26.242   3.784  13.407
58648W        W25189  15.748  38.382  10.044
58649W        W25190  40.266  27.992  11.168
58650W        W25191  10.042  44.928   0.424
58651W        W25192  42.918  11.294   4.811
58652W        W25193  22.232  28.453  11.144
58653W        W25194   5.389  27.631  12.123
58654W        W25195  12.333   7.744  12.536
58655W        W25196  14.024  44.364  14.369
58656W        W25197   3.945   5.820  12.382
58657W        W25198  27.232  17.149   3.233
58658W        W25199  22.445  25.696   1.683
58659W        W25200  33.150  37.836  13.634
58660W        W25201  18.706  20.296  12.079
58661W        W25202  34.507  27.194   3.009
58662W        W25203  24.948   0.699   1.861
58663W        W25204  29.444  22.965   3.215
58664W        W25205   9.198  40.644  14.830
58665W        W25206  10.890  14.409   1.462
58666W        W25207  32.288  25.824  11.158
58667W        W25208   4.797  16.558   1.798
58668W        W25209   2.735  36.149   2.896
58669W        W25210  14.780   8.679  13.882
58670W        W25211  13.695   4.651  12.179
58671W        W25212  31.004  28.662   4.550
58672W        W25213   6.808  23.080  14.050
58673W        W25214  44.889   9.768  10.963
58674W        W25215   9.755  20.770   2.226
58675W        W25216   7.258  26.926  13.322
58676W        W25217   8.634  25.682   1.450
58677W        W25218  13.211  15.357   0.496
58678W        W25219  35.434  20.526   1.166
58679W        W25220  30.475  43.691  13.980
58680W        W25221  17.640  29.424  12.299
58681W        W25222  41.424  31.637  11.624
58682W        W25223  36.235   3.892  12.835
58683W        W25224  30.024  26.822   3.752
58684W        W25225   8.094  22.275   2.284
58685W        W25226  14.809  16.318  13.607
58686W        W25227  34.062   0.377  11.707
58687W        W25228  39.500  29.760   2.742
58688W        W25229  21.449   2.738   4.340
58689W        W25230  15.060  23.772  14.080
58690W        W25231  41.476  44.709   0.356
58691W        W25232  10.319  17.852   4.239
58692W        W25233  40.958  25.656  14.326
58693W        W25234  20.164  26.066   1.351
58694W        W25235  43.459  12.682   2.275
58695W        W25236  29.070  21.324  13.557
58696W        W25237  14.235   0.444   4.670
58697W        W25238  27.697   0.326  10.920
58698W        W25239  36.397  10.749   2.927
58699W        W25240  26.257   2.727   1.825
58700W        W25241   6.501   3.847   1.434
58701W        W25242  30.051  24.597  11.135
58702W        W25243  16.886  17.623   1.398
58703W        W25244  12.346  19.468   2.717
58704W        W25245   3.277  11.674   0.367
58705W        W25246   9.699  31.985   3.148
58706W        W25247  37.863  36.489  13.505
58707W        W25248   9.595   6.179  13.265
58708W        W25249  19.627  32.641  13.409
58709W        W25250  39.576  30.976  14.945
58710W        W25251  23.149  17.095  14.403
58711W        W25252  24.765  17.830   2.638
58712W        W25253  26.072  16.290  12.363
58713W        W25254  44.432  36.465  14.995
58714W        W25255  39.955  20.304  13.589
58715W        W25256  37.486   3.089   0.717
58716W        W25257  33.910   5.665  11.418
58717W        W25258  38.421   6.385   4.950
58718W        W25259  10.069  42.891   4.557
58719W        W25260  30.962  34.525   2.103
58720W        W25261  44.532   8.929  12.405
58721W        W25262  18.876  30.176   0.160
58722W        W25263   8.775  41.038   3.805
58723W        W25264  26.091  28.477  11.564
58724W        W25265  10.659  25.317  14.753
58725W        W25266  24.074  37.789   0.728
58726W        W25267  43.976  42.990  10.759
58727W        W25268  28.075  35.558  14.774
58728W        W25269  23.076   7.020   4.539
58729W        W25270  38.415   7.287   2.860
58730W        W25271   3.889  28.768   4.346
58731W        W25272  42.486  28.700   0.746
58732W        W25273  11.703  18.719   2.709
58733W        W25274   8.295  43.612  13.292
58734W        W25275  38.600  26.554   4.803
58735W        W25276  44.562  38.940   1.391
58736W        W25277   0.816  10.970   4.400
58737W        W25278  22.964  26.987   2.680
58738W        W25279  25.016  25.115   2.423
58739W        W25280  12.789   4.921  14.780
58740W        W25281  26.024   0.274   2.685
58741W        W25282  20.251  32.598   0.464
58742W        W25283  30.725  13.607  10.460
58743W        W25284  31.462  25.169   3.844
58744W        W25285  35.556   1.553   1.699
58745W        W25286  25.057   8.773  13.897
58746W        W25287  26.569  11.833   3.749
58747W        W25288  16.050  16.302  10.664
58748W        W25289   2.050  29.507   4.614
58749W        W25290  13.881  11.866  14.987
58750W        W25291  30.950  16.576   5.432
58751W        W25292   4.649  44.529   5.042
58752W        W25293  33.348   1.375  12.607
58753W        W25294  21.934  41.820   2.344
58754W        W25295  16.208  11.653  11.923
58755W        W25296  27.651  43.439  13.705
58756W        W25297  20.081   5.208  12.566
58757W        W25298  23.174  10.831   4.084
58758W        W25299  44.019  20.687   0.039
58759W        W25300  31.892  35.201   4.896
58760W        W25301  30.168  13.901   1.665
58761W        W25302  28.148  42.551  13.330
58762W        W25303  23.998   2.720  11.648
58763W        W25304  24.376  37.060  14.634
58764W        W25305  36.921  38.883   0.703
58765W        W25306  38.357  10.769   2.273
58766W        W25307  27.246  14.886  14.055
58767W        W25308  20.006   1.916  12.888
58768W        W25309  29.712  15.146  14.686
58769W        W25310   8.692  33.569  11.595
58770W        W25311  33.434  27.149   4.521
58771W        W25312  10.577  14.686   4.665
58772W        W25313  26.657   9.541   0.224
58773W        W25314  26.731   3.675   4.049
58774W        W25315   0.855  16.216   2.494
58775W        W25316  21.596  42.808  12.916
58776W        W25317  39.440   2.817   0.295
58777W        W25318  27.596  16.480   3.287
58778W        W25319  41.562  23.624  13.877
58779W        W25320  17.308   7.014   3.893
58780W        W25321  34.530  29.465  10.762
58781W        W25322  36.660  37.807   0.054
58782W        W25323  31.165  42.970  14.991
58783W        W25324  44.926  25.167   4.625
58784W        W25325  34.155  39.548   1.303
58785W        W25326   0.927  39.107   3.812
58786W        W25327   3.449  31.449   3.600
58787W        W25328   7.461  32.895   3.775
58788W        W25329  10.918  40.813  14.382
58789W        W25330   5.717  41.216   4.746
58790W        W25331   9.622  18.647  14.998
58791W        W25332  10.439  25.023  13.456
58792W        W25333  11.343  38.025   2.435
58793W        W25334   3.985  31.983  12.955
58794W        W25335  39.038  35.106  14.786
58795W        W25336   7.078  24.205   1.407
58796W        W25337  14.699  24.629  12.600
58797W        W25338   6.955  39.412   1.291
58798W        W25339  38.598  30.733   2.910
58799W        W25340   8.735   1.997   1.347
58800W        W25341  34.355  37.468  13.840
58801W        W25342  36.052  15.337   1.715
58802W        W25343   6.196   1.342   0.387
58803W        W25344   3.739   4.248   1.850
58804W        W25345  17.542  17.087  14.911
58805W        W25346  28.552   7.159  13.947
58806W        W25347  14.525  39.496  12.442
58807W        W25348  21.197   2.629   3.145
58808W        W25349   4.218  37.348  14.507
58809W        W25350  33.558  29.396  13.049
58810W        W25351  14.827  35.289   4.080
58811W        W25352  21.630   7.168   3.619
58812W        W25353  42.245   4.767  12.636
58813W        W25354  17.629  38.864   0.354
58814W        W25355  36.537  38.173   3.335
58815W        W25356  25.256  35.710  11.001
58816W        W25357  29.481  41.361  13.990
58817W        W25358  33.419  30.916  11.566
58818W        W25359  20.308  36.787   3.879
58819W        W25360  21.293   8.468   3.606
58820W        W25361  20.304  27.065   1.282
58821W        W25362   1.015   1.489   2.279
58822W        W25363  36.919  15.339  12.316
58823W        W25364  22.598  11.028   2.161
58824W        W25365   6.143   4.879   1.244
58825W        W25366   8.304  44.765   3.723
58826W        W25367   6.793  21.422   0.939
58827W        W25368  31.171  11.174   4.625
58828W        W25369  22.674  14.255   5.111
58829W        W25370  35.629   7.844  13.957
58830W        W25371  14.794  25.738   1.320
58831W        W25372  21.222  25.372   3.596
58832W        W25373   9.193  31.622   4.647
58833W        W25374  31.570  20.343  13.331
58834W        W25375  22.309   6.684   3.191
58835W        W25376  32.800  42.415   2.276
58836W        W25377  41.969   4.466   3.705
58837W        W25378  34.677   0.124  11.211
58838W        W25379  26.588  34.040  10.946
58839W        W25380   9.670  31.530   2.792
58840W        W25381  26.263  41.827   3.123
58841W        W25382  30.522  25.231  12.585
58842W        W25383  30.250  23.568  13.517
58843W        W25384   8.123  30.897   2.624
58844W        W25385  39.763  28.901   4.533
58845W        W25386  21.021  36.931  14.377
58846W        W25387  11.724   5.098   2.353
58847W        W25388  17.198  43.696  10.787
58848W        W25389  43.814  13.995   3.129
58849W        W25390  18.305  35.386   2.827
58850W        W25391  37.835   0.848   4.903
58851W        W25392  27.994   3.371   3.585
58852W        W25393  21.754  40.593  13.587
58853W        W25394  41.513   1.770   2.795
58854W        W25395  22.104  16.598   2.881
58855W        W25396  24.208  21.263   4.251
58856W        W25397  29.445  15.714  14.878
58857W        W25398  42.325  32.652  13.367
58858W        W25399  23.563  13.265   3.788
58859W        W25400  35.470   2.855   3.117
58860W        W25401  33.513  14.806  14.547
58861W        W25402  27.027  41.208  12.374
58862W        W25403   2.752  41.555  13.257
58863W        W25404   3.910  13.384  11.208
58864W        W25405   7.743   5.322   4.159
58865W        W25406   3.486   1.002  11.559
58866W        W25407  25.572   4.957  12.370
58867W        W25408  39.276  43.960   0.035
58868W        W25409   4.820  39.817  12.606
58869W        W25410   2.782  31.878   2.404
58870W        W25411  44.800   3.759  11.888
58871W        W25412  10.582  42.891   4.566
58872W        W25413  19.223   5.302  12.101
58873W        W25414  40.881  42.613  12.853
58874W        W25415   5.751  33.030   3.763
58875W        W25416  16.708  41.262  11.530
58876W        W25417   0.190  20.314  11.318
58877W        W25418  34.150  23.270   2.711
58878W        W25419  41.531  38.570  14.519
58879W        W25420  27.030  42.248  14.240
58880W        W25421   0.762  24.581  13.387
58881W        W25422   0.253  41.766  14.893
58882W        W25423  37.092  31.186   2.680
58883W        W25424  42.242  38.409  10.729
58884W        W25425  23.207  32.399  12.220
58885W        W25426   3.304  44.056   0.429
58886W        W25427   0.728  17.670  13.004
58887W        W25428  13.613  19.332   1.931
58888W        W25429  40.710  13.324  14.324
58889W        W25430  13.700   6.257   0.134
58890W        W25431  36.982  43.031  12.534
58891W        W25432  24.703  26.677  11.566
58892W        W25433  25.558  33.931   2.301
58893W        W25434  42.579  27.513   1.368
58894W        W25435  23.678   9.788   4.517
58895W        W25436  37.909  33.814   1.711
58896W        W25437  31.392   0.161  11.947
58897W        W25438  29.464  29.792  11.624
58898W        W25439  23.559  36.805  12.863
58899W        W25440  14.825  23.236   0.573
58900W        W25441  32.048   8.199   1.075
58901W        W25442  31.155  37.125   2.696
58902W        W25443  21.115  17.803   2.285
58903W        W25444  33.097  31.857  14.304
58904W        W25445  24.194  18.626   1.890
58905W        W25446  40.260   3.176  10.361
58906W        W25447  35.156  12.119   1.748
58907W        W25448   0.260   5.157   3.161
58908W        W25449   0.229   0.690  13.349
58909W        W25450  20.026  11.667  11.179
58910W        W25451  11.714  42.008   0.905
58911W        W25452  18.779  38.167  11.508
58912W        W25453  39.349   8.008   3.255
58913W        W25454  36.788  37.397   4.174
58914W        W25455  33.098  16.371  12.008
58915W        W25456   2.547  41.266  10.781
58916W        W25457  15.153  11.207  12.417
58917W        W25458  27.137  37.093  12.027
58918W        W25459   2.746   9.669  12.596
58919W        W25460  14.798  11.167  10.683
58920W        W25461  37.640  23.085  12.028
58921W        W25462  15.328  21.176   0.818
58922W        W25463  16.263  29.658  14.945
58923W        W25464  36.435  26.091  14.953
58924W        W25465  34.988  29.063  14.452
58925W        W25466  23.576  44.232   1.329
58926W        W25467  37.810  12.660   2.123
58927W        W25468  41.015  42.037  12.757
58928W        W25469  38.116  28.689   3.287
58929W        W25470  36.507  42.596   4.524
58930W        W25471   3.753  21.954  14.125
58931W        W25472  39.650  30.006   2.307
58932W        W25473   0.773  26.082  10.603
58933W        W25474  15.171  38.502  14.620
58934W        W25475   3.142  22.586  11.313
58935W        W25476  25.645  33.971   1.378
58936W        W25477   6.478   5.757   2.335
58937W        W25478  17.687  37.346  12.796
58938W        W25479  36.323  23.425  14.999
58939W        W25480  10.331  33.056   4.309
58940W        W25481  21.875  30.901  11.169
58941W        W25482  16.588  40.821  13.454
58942W        W25483  10.931   2.126  14.224
58943W        W25484   3.650  33.983   4.267
58944W        W25485  18.730   9.478   1.298
58945W        W25486  15.871  10.846  12.120
58946W        W25487  29.593  36.379   3.741
58947W        W25488  16.920   0.450  13.541
58948W        W25489  38.968  22.247   1.988
58949W        W25490  25.005  15.274   3.291
58950W        W25491   1.411  27.695  11.068
58951W        W25492  17.687   7.418   0.761
58952W        W25493  14.086  14.255   0.372
58953W        W25494  10.811  20.201  14.502
58954W        W25495  16.721  39.462  10.650
58955W        W25496  29.166  22.999  12.213
58956W        W25497  42.474  40.880   0.532
58957W        W25498   8.285  38.572   0.862
58958W        W25499  23.256   9.324  14.910
58959W        W25500  34.560   6.850  12.867
58960W        W25501   1.344  30.607  14.984
58961W        W25502  42.760   9.538  12.067
58962W        W25503  27.013  11.260   1.015
58963W        W25504   0.820  24.949   2.185
58964W        W25505   4.777  36.617  14.735
58965W        W25506  38.339  31.619   0.133
58966W        W25507  22.908  21.432   0.453
58967W        W25508  33.362  25.009  12.413
58968W        W25509  15.793  13.688  14.572
58969W        W25510  24.761   9.939  12.610
58970W        W25511   5.535  44.404  11.152
58971W        W25512  34.846  19.833  12.377
58972W        W25513  25.442  24.615   2.794
58973W        W25514  35.428  13.752   0.226
58974W        W25515  32.033  11.615   5.345
58975W        W25516  37.241  30.843   5.049
58976W        W25517  25.132  26.031  11.198
58977W        W25518  29.615   9.876  12.157
58978W        W25519  32.988  22.992   2.244
58979W        W25520  17.824  31.088   0.588
58980W        W25521  20.368  18.881  14.866
58981W        W25522  44.160   0.352  14.912
58982W        W25523  18.107   2.684  11.126
58983W        W25524  18.535  17.307   4.875
58984W        W25525  35.415  29.650  14.879
58985W        W25526  10.274  35.746  13.471
58986W        W25527  21.165  12.029   0.928
58987W        W25528  26.788  19.549  12.590
58988W        W25529  39.545  29.134  12.949
58989W        W25530  20.260   5.281   5.398
58990W        W25531  35.644   2.175  12.223
58991W        W25532  18.661  29.414  14.788
58992W        W25533   9.541  28.949   5.304
58993W        W25534   9.742  29.503  10.488
58994W        W25535  26.291  13.618  12.437
58995W        W25536   5.676  33.584  12.392
58996W        W25537  24.718  15.814   0.258
58997W        W25538  19.724  24.961   0.718
58998W        W25539  29.573   7.719  12.531
58999W        W25540   3.305  20.971   3.824
59000W        W25541  32.072  32.420  11.597
59001W        W25542  28.886  33.671   1.821
59002W        W25543  34.475  37.103  13.505
59003W        W25544   8.202  39.043   1.112
59004W        W25545  10.680  38.518  11.126
59005W        W25546  42.799  23.512   4.212
59006W        W25547  13.236   7.825   1.674
59007W        W25548   6.478  25.047  13.981
59008W        W25549  11.796  26.669  11.174
59009W        W25550  42.777  25.622   2.159
59010W        W25551  22.754  10.901  12.585
59011W        W25552   5.048  14.326   2.739
59012W        W25553  26.006  19.695  14.511
59013W        W25554   8.619  37.429   2.234
59014W        W25555  40.376  35.934  14.833
59015W        W25556  17.783  10.445  14.679
59016W        W25557   1.044  26.477  13.078
59017W        W25558  43.932  17.060   4.562
59018W        W25559   3.807  32.448  13.120
59019W        W25560  37.552  41.978   4.258
59020W        W25561   6.688   4.426   1.872
59021W        W25562  37.059  33.868   0.449
59022W        W25563  33.007  27.384   1.322
59023W        W25564  11.664  19.800  13.893
59024W        W25565  19.739  26.362   1.440
59025W        W25566  12.537  35.952   0.523
59026W        W25567  30.040  31.060  12.936
59027W        W25568  19.714  24.582   2.230
59028W        W25569   3.843  27.864  14.976
59029W        W25570  25.271   5.781   3.130
59030W        W25571   2.218  23.798   4.985
59031W        W25572   1.801  18.756   3.548
59032W        W25573  41.005  30.517   4.176
59033W        W25574  35.121  18.846  10.557
59034W        W25575  18.126  18.676  14.783
59035W        W25576   1.324  21.525   0.869
59036W        W25577  35.677  35.249   4.106
59037W        W25578  14.543  42.013   2.330
59038W        W25579   0.637  28.651   2.532
59039W        W25580  37.410  26.973   1.992
59040W        W25581  35.287   9.157  13.367
59041W        W25582   1.682   6.933  13.909
59042W        W25583   9.228  24.988   1.544
59043W        W25584  35.295   2.257   3.352
59044W        W25585  37.353  35.163   4.630
59045W        W25586  16.791  20.255   2.473
59046W        W25587  19.719  41.351   4.558
59047W        W25588  20.688  38.522  13.001
59048W        W25589  43.310  38.518   0.318
59049W        W25590  22.105  32.753  13.217
59050W        W25591  21.216  31.520   0.805
59051W        W25592   5.613  21.589   4.512
59052W        W25593  24.716  16.224  10.581
59053W        W25594   7.318   6.731   4.326
59054W        W25595  18.806   6.642  12.396
59055W        W25596  27.489  38.223  12.726
59056W        W25597  15.824  13.741  14.023
59057W        W25598  29.981  12.773   0.195
59058W        W25599  16.768   0.010   2.265
59059W        W25600  15.286   0.465   0.822
59060W        W25601  26.539   5.339   0.903
59061W        W25602  41.993   2.813   4.913
59062W        W25603  17.813  17.738  12.237
59063W        W25604  14.503   6.077  11.145
59064W        W25605  12.922   0.382   0.485
59065W        W25606   8.756  26.947   3.113
59066W        W25607  26.085  15.074  14.317
59067W        W25608  23.514  19.312  13.537
59068W        W25609  26.275  15.286  11.695
59069W        W25610  10.896  17.095  10.596
59070W        W25611   5.141  28.486  11.464
59071W        W25612  37.756  16.106   0.813
59072W        W25613  11.481   1.248  13.514
59073W        W25614  35.869   3.481   3.207
59074W        W25615   8.744  39.329  14.841
59075W        W25616  29.534  17.094   1.675
59076W        W25617  21.694  18.724  11.128
59077W        W25618  27.114  35.337  11.701
59078W        W25619  11.110  31.091   1.061
59079W        W25620  24.447   6.780  14.519
59080W        W25621   0.558   4.825  12.151
59081W        W25622  18.916  37.604   0.968
59082W        W25623   3.290  34.022   2.420
59083W        W25624  30.182   5.798   4.457
59084W        W25625   1.348  37.232  12.459
59085W        W25626  10.410   1.176   3.751
59086W        W25627  15.141  20.112   0.066
59087W        W25628  33.511  36.199   4.836
59088W        W25629  15.880  40.127   5.108
59089W        W25630  23.001  32.293  12.688
59090W        W25631  36.578  40.425  12.415
59091W        W25632  36.288   4.832  13.696
59092W        W25633  15.943  17.164  11.639
59093W        W25634  42.527  26.484   3.295
59094W        W25635  24.425  43.080  13.440
59095W        W25636   4.652  33.005   1.051
59096W        W25637  17.738  42.873   1.141
59097W        W25638  33.394  19.737   3.137
59098W        W25639  13.032  37.856   4.954
59099W        W25640   7.667  25.684  12.553
59100W        W25641  35.847  15.629   4.625
59101W        W25642  11.135  17.102  12.611
59102W        W25643  12.845   9.608  10.724
59103W        W25644  16.512  37.416  14.059
59104W        W25645  35.640  43.779   1.431
59105W        W25646  26.986  41.984   0.487
59106W        W25647  39.921   4.763   1.968
59107W        W25648  19.756  17.063  13.568
59108W        W25649  20.152  15.115  14.544
59109W        W25650  36.486  39.519  12.512
59110W        W25651  34.153  29.695   0.360
59111W        W25652  37.585  37.350  14.957
59112W        W25653  34.424   2.407   3.456
59113W        W25654   6.377   8.114  12.166
59114W        W25655  10.751   9.273  12.123
59115W        W25656  15.050  14.540  11.028
59116W        W25657  41.951  41.824  14.541
59117W        W25658  30.712  20.602   1.147
59118W        W25659  11.762  10.697   3.281
59119W        W25660  30.588  34.115   1.796
59120W        W25661   7.767  25.612  11.357
59121W        W25662  26.192  12.736  11.565
59122W        W25663   5.039  41.690   4.968
59123W        W25664  36.909  28.429   2.641
59124W        W25665  37.768  10.941   0.948
59125W        W25666   1.686  29.628   3.252
59126W        W25667  21.651   7.206  14.311
59127W        W25668  18.227  11.857  13.348
59128W        W25669  39.368  30.640  11.413
59129W        W25670  43.708  36.330  10.901
59130W        W25671  32.536  42.554  14.481
59131W        W25672  39.117  42.014  14.402
59132W        W25673  13.644  29.448   0.313
59133W        W25674  31.975   0.548  14.818
59134W        W25675  21.772  18.216  11.040
59135W        W25676   8.896  23.735  12.819
59136W        W25677  39.340  14.807  13.432
59137W        W25678  18.347  36.150   0.398
59138W        W25679  34.333  43.980   0.485
59139W        W25680  19.633  30.944  10.809
59140W        W25681  26.844  39.392   2.633
59141W        W25682  44.741   9.432   1.863
59142W        W25683  33.478  21.782   4.947
59143W        W25684   7.359  25.357  10.115
59144W        W25685  11.129  35.003  14.801
59145W        W25686  21.072  25.617   0.249
59146W        W25687  21.019   3.748  14.742
59147W        W25688  35.674  34.931   0.526
59148W        W25689  22.495  31.141  12.138
59149W        W25690  38.595  42.535   1.809
59150W        W25691  12.320  22.700   4.379
59151W        W25692  39.289  40.762   2.771
59152W        W25693  30.184  29.166  10.884
59153W        W25694  11.723  12.210   0.815
59154W        W25695   3.250  27.662   3.876
59155W        W25696  40.517  41.857  13.462
59156W        W25697  41.582  39.283   1.940
59157W        W25698  41.111  32.126   4.104
59158W        W25699  15.854  38.029   0.698
59159W        W25700  31.188  14.364   0.844
59160W        W25701  40.330  35.343   0.936
59161W        W25702  42.499  28.497   3.395
59162W        W25703  11.755  21.270   3.108
59163W        W25704  33.835  43.531  13.912
59164W        W25705  27.073  19.109  12.008
59165W        W25706  37.339   1.780   0.301
59166W        W25707   4.943  43.424   4.578
59167W        W25708  30.882  32.526  12.395
59168W        W25709  11.811  20.587   0.303
59169W        W25710  23.252  20.801   1.800
59170W        W25711   0.236   6.256  13.138
59171W        W25712   8.932  40.738  13.489
59172W        W25713  42.013  28.094  12.033
59173W        W25714  37.125  13.155   2.374
59174W        W25715  33.951  18.603   0.997
59175W        W25716  23.799  23.956  11.572
59176W        W25717  35.381   6.205   2.232
59177W        W25718  16.059  35.966   1.510
59178W        W25719  24.949  39.400   3.705
59179W        W25720   0.991   1.231  10.856
59180W        W25721  30.863  28.483   2.773
59181W        W25722   2.154  11.196  14.935
59182W        W25723  34.663   5.268   4.497
59183W        W25724  31.027   6.341  13.754
59184W        W25725  11.186  31.495  13.314
59185W        W25726  21.705  13.242  14.778
59186W        W25727  19.749   4.424  10.373
59187W        W25728  37.501   2.824   2.092
59188W        W25729  27.185   3.349  14.492
59189W        W25730   3.189   8.589  14.246
59190W        W25731  20.566   9.276   3.701
59191W        W25732   1.476   5.715   1.785
59192W        W25733   4.552   4.061   4.599
59193W        W25734  26.735  41.488  12.760
59194W        W25735  21.039  10.717   1.971
59195W        W25736  12.870  36.380   2.612
59196W        W25737  27.557  42.805   1.262
59197W        W25738  26.328  33.798   0.939
59198W        W25739  17.193  20.767   2.740
59199W        W25740   0.703  22.673   2.721
59200W        W25741  28.608   3.720  13.573
59201W        W25742  29.214  34.758   4.540
59202W        W25743  43.013  34.184   4.840
59203W        W25744  40.342   5.937  10.224
59204W        W25745  34.420  42.326   4.416
59205W        W25746  28.104  20.355   3.941
59206W        W25747  15.644  18.449   1.253
59207W        W25748   7.311  19.719  14.020
59208W        W25749  18.944  12.158   3.605
59209W        W25750  29.170  31.192   3.750
59210W        W25751  20.521  13.105  14.366
59211W        W25752  42.977  18.740  10.770
59212W        W25753  39.117  40.526   4.237
59213W        W25754  10.356  13.604  14.348
59214W        W25755   7.296   8.816  12.490
59215W        W25756  18.094  21.452   0.831
59216W        W25757   1.948  12.142   4.782
59217W        W25758   2.757  36.091   4.367
59218W        W25759  39.387   3.942   0.456
59219W        W25760  11.041  15.763   0.280
59220W        W25761  11.353  32.960   3.183
59221W        W25762  23.199  28.013   0.298
59222W        W25763  44.339  36.637  14.293
59223W        W25764  17.705  28.448  13.912
59224W        W25765   0.050  27.949   2.802
59225W        W25766  35.079  42.335  14.863
59226W        W25767  38.235   9.470  14.498
59227W        W25768  37.221  41.395  14.102
59228W        W25769  43.778   2.899   3.337
59229W        W25770  40.437   2.328   1.045
59230W        W25771   8.157  34.464   4.294
59231W        W25772  30.673  26.994  14.449
59232W        W25773   2.729  21.536   3.599
59233W        W25774  33.913  12.086  11.622
59234W        W25775  44.919  12.742   2.119
59235W        W25776  40.923  37.569  12.106
59236W        W25777  40.307   3.412   0.483
59237W        W25778  18.125  41.022   4.124
59238W        W25779   9.538  42.864   4.737
59239W        W25780  16.206  40.518  13.274
59240W        W25781  38.276  30.961   4.903
59241W        W25782  26.701  35.852  12.476
59242W        W25783  20.272   7.875   0.511
59243W        W25784  20.114   1.842  12.077
59244W        W25785  40.088  40.075  12.937
59245W        W25786   0.274  18.379   2.910
59246W        W25787  29.068  43.922  11.347
59247W        W25788  43.993   1.866  13.943
59248W        W25789   1.404  23.087   2.263
59249W        W25790  32.236  26.975  10.708
59250W        W25791   1.179  34.940  12.424
59251W        W25792   5.842  33.886  13.815
59252W        W25793  39.720  37.999  11.060
59253W        W25794   4.704  31.956  13.420
59254W        W25795   2.234  15.930   4.066
59255W        W25796  23.771  34.154  13.013
59256W        W25797   7.591  18.105   4.495
59257W        W25798  26.946   0.702  14.688
59258W        W25799  15.135  17.399  14.906
59259W        W25800   7.264  11.641   0.957
59260W        W25801  20.338  13.185   2.066
59261W        W25802   1.643   1.924   0.852
59262W        W25803  42.005  10.632  11.109
59263W        W25804  15.238  17.538   2.924
59264W        W25805  43.883  25.231   4.737
59265W        W25806  37.591  42.031   0.292
59266W        W25807  18.072  22.932  14.827
59267W        W25808  34.514  30.788  12.049
59268W        W25809  36.308  13.722  13.391
59269W        W25810  38.646   9.243   3.559
59270W        W25811  14.784  32.233   2.743
59271W        W25812  13.932   2.288   0.831
59272W        W25813   3.289  30.423   1.811
59273W        W25814   7.837  31.979  12.504
59274W        W25815  17.541  22.921  12.506
59275W        W25816   9.615  26.058  12.971
59276W        W25817  43.316  19.111   2.939
59277W        W25818  39.446   3.220  11.007
59278W        W25819  21.514  40.294   2.749
59279W        W25820  10.870   3.434   2.095
59280W        W25821  19.091   3.051   0.399
59281W        W25822  18.590  30.013   1.150
59282W        W25823   0.856   8.693  13.103
59283W        W25824   4.368  13.472  14.247
59284W        W25825  24.259   2.956   4.302
59285W        W25826  12.357  33.008   0.968
59286W        W25827  19.376   0.476   4.178
59287W        W25828   1.318  38.972   4.851
59288W        W25829   0.682   6.910   2.739
59289W        W25830   5.530  26.184  14.563
59290W        W25831  31.802  44.332  13.057
59291W        W25832  31.893   5.748  11.681
59292W        W25833  35.069   9.883   0.915
59293W        W25834   7.320  37.348  10.274
59294W        W25835  40.926  40.972  11.203
59295W        W25836  21.119  41.769  14.458
59296W        W25837  43.970  16.210   4.492
59297W        W25838  44.385   3.086   0.512
59298W        W25839  31.042  23.103  13.448
59299W        W25840  12.853  26.059  14.130
59300W        W25841  39.463  37.516   3.220
59301W        W25842  44.051  44.894   2.626
59302W        W25843  39.500  36.981   3.969
59303W        W25844  38.342  44.795   3.393
59304W        W25845  12.188  30.143  14.491
59305W        W25846  11.729  20.509  11.200
59306W        W25847   0.416  34.387   2.656
59307W        W25848  21.770  43.272  13.026
59308W        W25849  11.119  35.882   2.792
59309W        W25850  20.289  44.121   3.294
59310W        W25851  25.225   0.125  11.103
59311W        W25852  23.987   8.143   9.923
59312W        W25853  22.530  43.047   1.301
59313W        W25854  20.666  43.268  11.635
59314W        W25855   9.350  41.240  11.214
59315W        W25856  23.005  43.731  11.206
59316W        W25857  14.876  38.089   3.623
59317W        W25858  36.359   1.984  13.407
59318W        W25859  24.024  31.461   2.629
59319W        W25860   5.655  17.125   0.678
59320W        W25861  40.839  10.425  10.636
59321W        W25862  21.064  14.804  14.393
59322W        W25863   8.912   1.277  13.583
59323W        W25864  24.890   8.078   3.350
59324W        W25865  37.319  33.337   2.387
59325W        W25866   0.465  39.642  12.992
59326W        W25867   1.327  25.975   5.227
59327W        W25868  42.051  11.643  12.955
59328W        W25869  10.648   3.920  14.892
59329W        W25870  33.011  33.116   2.488
59330W        W25871  12.814  13.746   0.452
59331W        W25872  37.100  33.018  12.588
59332W        W25873   3.720  44.471  13.422
59333W        W25874  13.673  11.231  14.414
59334W        W25875  12.741   6.819   1.251
59335W        W25876  39.323   4.649  14.757
59336W        W25877  33.982  44.403   1.251
59337W        W25878  39.888  12.646  12.000
59338W        W25879  23.314  13.809   2.654
59339W        W25880   2.448   3.008   3.574
59340W        W25881  38.415  32.891   4.246
59341W        W25882  29.909  23.673   2.766
59342W        W25883  13.592   0.423  13.818
59343W        W25884  33.195  41.040  12.444
59344W        W25885  37.359  37.893  13.327
59345W        W25886   7.667  30.516   1.880
59346W        W25887  22.452   1.524   3.212
59347W        W25888  38.623  26.204   1.906
59348W        W25889  10.898  11.740   0.824
59349W        W25890  37.051  30.218  12.942
59350W        W25891  34.491  24.785  14.567
59351W        W25892  44.099  14.830  13.863
59352W        W25893  23.665  12.804  13.023
59353W        W25894   8.655  16.133   1.919
59354W        W25895  33.967  29.201   3.319
59355W        W25896  11.981  24.202   3.500
59356W        W25897  30.140  12.329  13.320
59357W        W25898   1.004  12.513   0.371
59358W        W25899  15.669  31.824  12.460
59359W        W25900  23.683  42.358   0.404
59360W        W25901  22.725  38.408  10.570
59361W        W25902   0.142  30.935  10.255
59362W        W25903  43.292  13.103  13.927
59363W        W25904   0.737   4.259  14.926
59364W        W25905  28.242   6.316  14.729
59365W        W25906  17.119  30.481   3.742
59366W        W25907  26.717   6.700  13.905
59367W        W25908  42.766  21.759   4.865
59368W        W25909   3.952  26.542   4.570
59369W        W25910  13.992  34.419   4.758
59370W        W25911  32.445  42.404  13.313
59371W        W25912  26.391  17.168  12.077
59372W        W25913  35.686  23.089  12.606
59373W        W25914  43.593  14.113   0.705
59374W        W25915  23.443  24.219   1.302
59375W        W25916   0.891  13.532   0.321
59376W        W25917   9.242  32.422  13.374
59377W        W25918  44.082  32.550   0.229
59378W        W25919  26.312   1.803  12.908
59379W        W25920   3.389  27.805  11.654
59380W        W25921  14.179  22.973   2.797
59381W        W25922   9.226  34.431  14.033
59382W        W25923  26.446  12.350   0.175
59383W        W25924  40.278  23.963   2.246
59384W        W25925  12.900   3.454   1.000
59385W        W25926   9.251  22.048   4.056
59386W        W25927  22.601   4.294  12.930
59387W        W25928  26.558  43.068   5.361
59388W        W25929  12.592  29.468   0.308
59389W        W25930  22.002  10.271   2.157
59390W        W25931  30.013  44.766   0.375
59391W        W25932   0.002  17.815  12.448
59392W        W25933   8.220  44.675   2.755
59393W        W25934  37.061  40.422   0.785
59394W        W25935  35.756  32.343  12.033
59395W        W25936  30.464   0.664  14.068
59396W        W25937   7.620   4.954   1.224
59397W        W25938  24.473  28.450   3.430
59398W        W25939  18.834  44.727  11.587
59399W        W25940  10.186   3.705  14.809
59400W        W25941  15.272  32.627  12.417
59401W        W25942  36.850  32.871  11.129
59402W        W25943  42.110  20.614   2.901
59403W        W25944  11.225   2.811  10.723
59404W        W25945  41.460   8.140  12.140
59405W        W25946   0.407  14.119  13.940
59406W        W25947  29.686  30.460   3.605
59407W        W25948  37.414   9.282   0.204
59408W        W25949  38.065   1.831  14.058
59409W        W25950  33.199  32.021   1.296
59410W        W25951   8.354  29.248  13.301
59411W        W25952  20.451  11.237   3.170
59412W        W25953  10.615  17.676  12.626
59413W        W25954   6.030   0.831   2.185
59414W        W25955  32.581   1.172   4.494
59415W        W25956  29.551  35.487  14.348
59416W        W25957  16.227   5.942   0.948
59417W        W25958  40.042  23.967   0.893
59418W        W25959  18.147  17.221  13.226
59419W        W25960  44.558   0.230  13.443
59420W        W25961   0.242  19.041   1.715
59421W        W25962  39.301  17.192  13.753
59422W        W25963   5.189   7.786  13.483
59423W        W25964  25.708  24.452   3.197
59424W        W25965  10.096  40.333  12.929
59425W        W25966  24.754  27.127   2.231
59426W        W25967  25.211  40.115  14.502
59427W        W25968   3.737  26.277   3.166
59428W        W25969  41.373  33.535  12.428
59429W        W25970  12.436  37.668  12.410
59430W        W25971  15.760  35.648  12.046
59431W        W25972  24.544  37.032  12.151
59432W        W25973  23.776  35.786  12.865
59433W        W25974  42.545  34.458   0.256
59434W        W25975   2.417  27.177  14.300
59435W        W25976  18.980  40.807   1.008
59436W        W25977  18.397  39.465  13.898
59437W        W25978  28.091  43.348  13.978
59438W        W25979  32.330  10.303   4.492
59439W        W25980   9.961   6.684  11.174
59440W        W25981   7.700  25.670   2.122
59441W        W25982   9.068  24.162  12.471
59442W        W25983  38.664  20.008  14.300
59443W        W25984  21.107   7.373   2.234
59444W        W25985  28.942  20.095   2.772
59445W        W25986  20.680  33.295   4.582
59446W        W25987  11.261  17.216  13.100
59447W        W25988  32.580   4.726   0.835
59448W        W25989   9.455  27.541   2.075
59449W        W25990  23.096  19.479  11.172
59450W        W25991  38.357   6.207   0.877
59451W        W25992  10.652  39.599  11.536
59452W        W25993  43.890   2.870  13.072
59453W        W25994   6.758  44.007  14.848
59454W        W25995  39.103  11.192  14.624
59455W        W25996  21.492  19.347   1.380
59456W        W25997   6.682  27.312  10.568
59457W        W25998   2.381  44.807  12.034
59458W        W25999  20.705   3.671  11.545
59459W        W26000  25.389   2.664  13.397
59460W        W26001   9.212   4.380  14.548
59461W        W26002  13.194  37.010   2.791
59462W        W26003  26.173   8.790   4.334
59463W        W26004   2.521  35.503   3.320
59464W        W26005  27.643   9.802   4.682
59465W        W26006  27.370  36.526   1.774
59466W        W26007  18.805   6.941  11.420
59467W        W26008  27.198  33.297  10.674
59468W        W26009  16.736  21.455  12.055
59469W        W26010   0.292  22.546  14.912
59470W        W26011   3.206  13.845  13.495
59471W        W26012  43.421  25.780   4.156
59472W        W26013   7.964   0.114   4.827
59473W        W26014  11.343  23.592  14.337
59474W        W26015   4.714  18.080  14.020
59475W        W26016  29.946  16.240   3.699
59476W        W26017  33.548  21.007  11.195
59477W        W26018  38.444  29.241  11.692
59478W        W26019  44.887  42.926  10.706
59479W        W26020   2.406  19.349   4.524
59480W        W26021  27.034  21.619   1.938
59481W        W26022  40.008  32.712   3.586
59482W        W26023  26.433  21.639  14.458
59483W        W26024  23.242  18.607   1.955
59484W        W26025  40.793  36.031   2.382
59485W        W26026  18.539  27.883   3.680
59486W        W26027  17.488  22.425  12.573
59487W        W26028  43.440   1.043   2.409
59488W        W26029  13.244  35.493  11.417
59489W        W26030  35.014   6.458   1.480
59490W        W26031  16.623  42.463  12.854
59491W        W26032  33.773  18.106   3.277
59492W        W26033  14.666  23.917  10.581
59493W        W26034  26.221   9.235  12.145
59494W        W26035  15.529  31.173   4.146
59495W        W26036  23.203  22.496  14.988
59496W        W26037  25.294  24.654   4.159
59497W        W26038  33.672  19.079   0.916
59498W        W26039   2.382  39.869  10.296
59499W        W26040  38.130  11.937   3.795
59500W        W26041   2.290  16.596  14.316
59501W        W26042  16.820  30.451  12.032
59502W        W26043  17.792  17.831   3.623
59503W        W26044  21.654   6.789   0.249
59504W        W26045  27.886  12.357   0.740
59505W        W26046  43.234   5.210  14.796
59506W        W26047  26.000   0.793  12.037
59507W        W26048  44.540  44.315   5.510
59508W        W26049  35.935   1.602   9.836
59509W        W26050  11.427  32.214  10.687
59510W        W26051   7.395  26.064   1.909
59511W        W26052   6.676  30.351   1.942
59512W        W26053   7.688   2.441  10.655
59513W        W26054   8.939  19.373   3.298
59514W        W26055  43.279  13.632  14.810
59515W        W26056  23.024   3.921   1.029
59516W        W26057   4.701   5.211  14.550
59517W        W26058  44.843  34.578  13.029
59518W        W26059   9.199   0.930   0.896
59519W        W26060  15.084  17.324  12.092
59520W        W26061  32.183  16.579   1.909
59521W        W26062   2.228  17.335   3.599
59522W        W26063  24.588  40.307   0.348
59523W        W26064  22.467   4.847   4.022
59524W        W26065   3.961  16.143  13.791
59525W        W26066  36.411  21.801   3.166
59526W        W26067   7.074  35.272   3.874
59527W        W26068  32.013  40.763  13.863
59528W        W26069  20.129   8.644   1.147
59529W        W26070   2.682  21.416  11.590
59530W        W26071  11.351  28.895   0.401
59531W        W26072  30.041   1.726  14.312
59532W        W26073   8.512  28.033  14.544
59533W        W26074  15.819  23.023   4.568
59534W        W26075   2.465  22.903   3.992
59535W        W26076   8.439  40.828  10.336
59536W        W26077  12.459  12.855   0.432
59537W        W26078  13.361  21.060  12.030
59538W        W26079  28.135  11.108   3.312
59539W        W26080  26.377  11.118   4.338
59540W        W26081  28.096  22.175  13.087
59541W        W26082   1.359  19.747   3.839
59542W        W26083  19.628   9.338   5.069
59543W        W26084  15.547  40.992  13.574
59544W        W26085   0.134   8.627   4.520
59545W        W26086  41.265  44.786   4.735
59546W        W26087  27.091  41.482   1.343
59547W        W26088  36.553  10.172  12.594
59548W        W26089  10.940  12.160   3.648
59549W        W26090   8.356  20.424   2.817
59550W        W26091   3.343  36.919  11.615
59551W        W26092  32.722  11.926   2.835
59552W        W26093  15.314  40.570  13.864
59553W        W26094  19.633  13.052  11.130
59554W        W26095  15.582  36.825  12.465
59555W        W26096  18.983  14.411   4.494
59556W        W26097  14.637  26.447   2.776
59557W        W26098  33.364   2.159  13.667
59558W        W26099  13.403  26.953  12.077
59559W        W26100   2.272  22.998  13.451
59560W        W26101  18.557  16.914   4.468
59561W        W26102  13.115  25.155  14.564
59562W        W26103  22.663  23.753  11.042
59563W        W26104  26.884  19.247  13.926
59564W        W26105   2.674  25.478   1.673
59565W        W26106  39.318  32.281   1.446
59566W        W26107  44.271  24.777  11.120
59567W        W26108   3.813  44.286   2.196
59568W        W26109  36.065  22.068   1.897
59569W        W26110  17.680  19.538  10.633
59570W        W26111  13.564   4.614  12.956
59571W        W26112  40.073  42.792  14.287
59572W        W26113  19.990  36.480  14.764
59573W        W26114  29.287  30.225  11.934
59574W        W26115   3.885   3.893  11.435
59575W        W26116  22.555  38.304  11.663
59576W        W26117  18.248  35.056  11.620
59577W        W26118  43.837  11.183   3.271
59578W        W26119   6.701   4.178   2.574
59579W        W26120  38.946  27.488  10.404
59580W        W26121  23.655  40.345   0.389
59581W        W26122   3.433  17.275  11.060
59582W        W26123  28.021  36.324  10.664
59583W        W26124  42.407   6.675   3.282
59584W        W26125  41.672  26.120  14.925
59585W        W26126  43.554  18.801  13.055
59586W        W26127  22.718  13.589  11.550
59587W        W26128  35.843  18.836  14.892
59588W        W26129  13.768  25.168   0.763
59589W        W26130  17.593  40.927  11.849
59590W        W26131   1.799  14.248  14.293
59591W        W26132  20.160  10.020  14.314
59592W        W26133  38.444   3.898   4.354
59593W        W26134  23.747  16.784  10.641
59594W        W26135  29.026  39.466  12.106
59595W        W26136  17.075  33.979  14.802
59596W        W26137  14.311   7.853  14.735
59597W        W26138  12.575  38.034   1.730
59598W        W26139  43.536  32.601  14.001
59599W        W26140  41.830  20.802   2.211
59600W        W26141  42.347  33.412   3.652
59601W        W26142   5.998  32.594   3.604
59602W        W26143  22.551  35.625  10.522
59603W        W26144  33.343  40.799   0.981
59604W        W26145  43.798   0.783   4.920
59605W        W26146  19.256   5.094   4.098
59606W        W26147  23.601  44.309  12.473
59607W        W26148  31.276  25.105   4.339
59608W        W26149   4.688   6.120  14.593
59609W        W26150  12.854  20.210   0.918
59610W        W26151  17.632  16.020   2.772
59611W        W26152  11.108  19.554   0.799
59612W        W26153   3.946  28.119  10.034
59613W        W26154   4.207  11.924   0.368
59614W        W26155  32.202  20.722  13.565
59615W        W26156  39.709  16.240   0.800
59616W        W26157   9.403  23.625  14.627
59617W        W26158  11.918  16.445  14.739
59618W        W26159  14.601   2.345   4.095
59619W        W26160  17.218  36.374   1.822
59620W        W26161  26.676  14.447  10.699
59621W        W26162  34.600   4.314   9.729
59622W        W26163   1.072  24.002  14.551
59623W        W26164  41.447   0.711   5.164
59624W        W26165  33.158  24.718   2.649
59625W        W26166  14.785  17.019  14.970
59626W        W26167  20.581  10.848  11.962
59627W        W26168  28.725   6.233   1.278
59628W        W26169  25.030  14.070  11.210
59629W        W26170  41.812   3.338  10.662
59630W        W26171   3.778  18.180  13.884
59631W        W26172  42.892  15.101   1.732
59632W        W26173  22.597  27.721  14.575
59633W        W26174  16.371  19.084   0.089
59634W        W26175  40.370  17.041  10.488
59635W        W26176   5.494  18.767   2.169
59636W        W26177  37.061   0.695   3.035
59637W        W26178  39.912   2.165   0.336
59638W        W26179   5.008  26.462  14.534
59639W        W26180   2.948  42.806   4.287
59640W        W26181  26.580  39.779   4.117
59641W        W26182  39.835  35.518  11.686
59642W        W26183  39.583   1.371  12.001
59643W        W26184  25.230  19.315   1.229
59644W        W26185  21.614  32.529  13.023
59645W        W26186  27.675  31.101   1.278
59646W        W26187  40.772  36.646  13.158
59647W        W26188  11.609  22.375  11.457
59648W        W26189  36.427  11.983   0.284
59649W        W26190  32.892  16.278  10.759
59650W        W26191  32.441  41.131  14.541
59651W        W26192  11.463  36.909   0.517
59652W        W26193  15.331   9.725  10.666
59653W        W26194   9.718  12.383  11.783
59654W        W26195  10.945  41.412  12.907
59655W        W26196  41.034   8.055  13.511
59656W        W26197  11.946  36.489   3.017
59657W        W26198  38.831  15.327  10.086
59658W        W26199  34.944  20.145   2.471
59659W        W26200   9.579   0.204  12.041
59660W        W26201  38.347  22.244   1.366
59661W        W26202  36.639   8.365   3.099
59662W        W26203  10.886  28.200  13.876
59663W        W26204  42.056   7.149  13.789
59664W        W26205   0.204   8.614  14.267
59665W        W26206  29.293  11.221  13.006
59666W        W26207  17.980  31.157  12.489
59667W        W26208   9.791  12.928   3.704
59668W        W26209   2.205  25.449   2.228
59669W        W26210   1.322  35.901   3.899
59670W        W26211  32.971  15.750  13.082
59671W        W26212  31.002  44.727   3.858
59672W        W26213  36.978  20.257  13.042
59673W        W26214  14.652  22.546  10.660
59674W        W26215   9.270   1.791  10.787
59675W        W26216  27.197  31.936  12.007
59676W        W26217   9.069  37.089  11.150
59677W        W26218  42.318  42.101  13.008
59678W        W26219   6.208  29.189  14.878
59679W        W26220  16.972   1.259  14.550
59680W        W26221   1.495  20.664   1.433
59681W        W26222  42.145  41.941  14.025
59682W        W26223  21.807   3.369   2.362
59683W        W26224  17.854   1.294  10.592
59684W        W26225   4.290  10.234  10.468
59685W        W26226  34.907  32.929   2.420
59686W        W26227  11.871  31.488  12.133
59687W        W26228  30.832  19.889   4.176
59688W        W26229  14.254  29.721  11.596
59689W        W26230  24.630  27.168  12.398
59690W        W26231  11.643  40.456   1.755
59691W        W26232  18.092  42.085  14.283
59692W        W26233  14.772  40.458  13.506
59693W        W26234  17.480  39.752  12.574
59694W        W26235  30.304  30.618  10.772
59695W        W26236   4.331  29.091  11.941
59696W        W26237  27.806  12.174   4.062
59697W        W26238  30.445  16.706   1.390
59698W        W26239  18.143  39.450  14.358
59699W        W26240  19.023  27.459   2.146
59700W        W26241  25.605  35.225   2.988
59701W        W26242  28.642  22.005  12.956
59702W        W26243  16.360   8.724  13.371
59703W        W26244   4.975  10.928  13.061
59704W        W26245  30.545  26.549  12.105
59705W        W26246  43.805  12.880  11.888
59706W        W26247  42.480   7.147   2.318
59707W        W26248  15.093  13.833   2.404
59708W        W26249  29.354  27.950  11.899
59709W        W26250  37.816  37.987   0.645
59710W        W26251  25.489  14.838  13.343
59711W        W26252   6.380  27.982  14.760
59712W        W26253  39.965  31.541   1.529
59713W        W26254   7.454  12.035   0.647
59714W        W26255  41.144  24.033  11.076
59715W        W26256  14.382  10.450  14.244
59716W        W26257  27.605  22.231   4.793
59717W        W26258  16.674  12.767   4.099
59718W        W26259  35.086   2.934   0.996
59719W        W26260  14.066  21.164  14.295
59720W        W26261  18.256   7.702  13.361
59721W        W26262  15.710   4.436   4.046
59722W        W26263  32.045  39.395   3.896
59723W        W26264   7.715   2.054  11.947
59724W        W26265   8.876   2.246   1.784
59725W        W26266  21.025   9.868  11.200
59726W        W26267  25.931  20.956  11.907
59727W        W26268   5.351  30.080   3.168
59728W        W26269   5.625  41.731  13.910
59729W        W26270  29.458   6.577   3.278
59730W        W26271   4.321  20.035  11.585
59731W        W26272  42.027  17.252  10.716
59732W        W26273  42.528  38.199  11.118
59733W        W26274  25.550  12.844   4.230
59734W        W26275   0.256  22.701  11.441
59735W        W26276  19.610  30.476   4.140
59736W        W26277  34.546   8.465   3.209
59737W        W26278  28.495  23.557  14.837
59738W        W26279  16.612   6.694  12.077
59739W        W26280  37.859  20.184  10.748
59740W        W26281  25.639  17.232  12.629
59741W        W26282  14.532   6.640  14.703
59742W        W26283  22.994  31.115  11.691
59743W        W26284  11.351  23.015   1.345
59744W        W26285  24.573   6.876  11.919
59745W        W26286  33.094  40.043  12.569
59746W        W26287   0.593  34.918   0.314
59747W        W26288  12.639   1.129  13.024
59748W        W26289  27.636  22.009   1.849
59749W        W26290  36.790  20.107  10.897
59750W        W26291  12.834   8.691  10.721
59751W        W26292  16.207  26.471   3.237
59752W        W26293   1.460  22.051  13.167
59753W        W26294  42.319   0.696  14.508
59754W        W26295  29.423  13.760  12.436
59755W        W26296   1.610  37.463   4.568
59756W        W26297  39.628  33.062   3.691
59757W        W26298  38.323  11.846   0.448
59758W        W26299  24.106   3.996   0.860
59759W        W26300  22.745  27.950   0.557
59760W        W26301  21.695   1.473  12.512
59761W        W26302   5.192  21.214   4.295
59762W        W26303  27.866   3.460  12.148
59763W        W26304  29.177   4.184  14.300
59764W        W26305   3.824   0.832  13.657
59765W        W26306  31.128  10.297   0.280
59766W        W26307  18.214  20.674   1.517
59767W        W26308   5.731  18.623   1.709
59768W        W26309  16.536  28.488   0.657
59769W        W26310  27.091  31.603  13.934
59770W        W26311  12.998  43.269   3.827
59771W        W26312  40.194  33.397   4.568
59772W        W26313  22.969  34.528   1.666
59773W        W26314  38.539  18.739   1.754
59774W        W26315  39.466  20.981  14.868
59775W        W26316   5.138  36.961  14.900
59776W        W26317  42.078  39.804  13.294
59777W        W26318  10.646  10.814  11.295
59778W        W26319  14.665  38.966  10.236
59779W        W26320  11.419  21.676   4.788
59780W        W26321  28.886  24.164  10.274
59781W        W26322  43.010  34.982   4.514
59782W        W26323   4.266  24.066  14.272
59783W        W26324   0.841  13.561   3.142
59784W        W26325  43.293  32.429  13.327
59785W        W26326  36.263  13.752   0.834
59786W        W26327  31.426  25.742   0.905
59787W        W26328   0.276  42.472   3.555
59788W        W26329  37.640  30.149  11.238
59789W        W26330   2.085   0.130  14.322
59790W        W26331  43.938  39.901   0.431
59791W        W26332  26.998  19.671  13.617
59792W        W26333   3.910   7.278   2.018
59793W        W26334  29.829  22.288  12.866
59794W        W26335  24.023  30.603  11.877
59795W        W26336  28.967  41.119   0.472
59796W        W26337  39.222  22.069   1.089
59797W        W26338   5.256  17.931  14.941
59798W        W26339  17.072  40.093  13.915
59799W        W26340  42.627  10.136   2.693
59800W        W26341  31.822   6.734   2.316
59801W        W26342  28.053  28.691   4.993
59802W        W26343  40.599  38.087  11.095
59803W        W26344  20.087  18.173  12.477
59804W        W26345   6.235  23.962   3.714
59805W        W26346  35.514  20.373   3.248
59806W        W26347  44.868  11.734   4.511
59807W        W26348  17.223  27.009   1.220
59808W        W26349  22.974  40.062  13.884
59809W        W26350  38.127  35.284  11.209
59810W        W26351  32.126  43.542  11.194
59811W        W26352  28.965  31.403   1.746
59812W        W26353  32.905   1.715   2.112
59813W        W26354  27.767  34.984   1.809
59814W        W26355  23.998  38.148   2.934
59815W        W26356  44.071  41.917   1.247
59816W        W26357  12.352  20.623   0.498
59817W        W26358  35.098  28.505   3.623
59818W        W26359  33.491  24.019  14.880
59819W        W26360  28.064   4.247   4.679
59820W        W26361  24.929  32.724   1.509
59821W        W26362  17.289   1.292   0.308
59822W        W26363   5.974  31.491  13.738
59823W        W26364  10.953  28.645   4.598
59824W        W26365  16.294  13.270   2.641
59825W        W26366   7.823  32.054   3.546
59826W        W26367  16.335  42.585  11.565
59827W        W26368  37.067   3.150   4.156
59828W        W26369  19.118  12.139  14.450
59829W        W26370   9.154   7.304  13.295
59830W        W26371   2.298  23.821  13.806
59831W        W26372  37.358  43.805   4.908
59832W        W26373  15.937  32.119  13.277
59833W        W26374  21.775  43.844   0.361
59834W        W26375  13.509  44.900   1.249
59835W        W26376  14.666  18.724   2.918
59836W        W26377  32.611  18.408  12.227
59837W        W26378  42.955   7.156   0.890
59838W        W26379  34.927  14.819  13.010
59839W        W26380  21.538  13.319  11.099
59840W        W26381  27.622  22.494  10.681
59841W        W26382  22.634  25.321  10.201
59842W        W26383  23.334  42.121  12.081
59843W        W26384  27.431  27.129  14.010
59844W        W26385  36.298   0.554  14.597
59845W        W26386  41.033  21.002   1.761
59846W        W26387  27.036  24.172  14.409
59847W        W26388  27.373   6.420   0.985
59848W        W26389   2.271  16.601   2.839
59849W        W26390  21.024  16.522   0.791
59850W        W26391  17.799  43.501  13.915
59851W        W26392  15.300   0.389  10.940
59852W        W26393  12.931  30.889  12.844
59853W        W26394  23.052   3.770  11.946
59854W        W26395  39.731   9.481   0.068
59855W        W26396  15.827  24.755  14.522
59856W        W26397  29.415  41.063   0.732
59857W        W26398   1.386  19.305  12.367
59858W        W26399   6.740  31.125  12.043
59859W        W26400  32.609  38.337  13.079
59860W        W26401   4.674  31.109  13.097
59861W        W26402  32.577   6.772  14.381
59862W        W26403  38.538   0.347   4.128
59863W        W26404  25.038  21.426   2.847
59864W        W26405  34.990  39.293   0.911
59865W        W26406  21.639  14.722  14.394
59866W        W26407  30.832  30.148   1.224
59867W        W26408  27.651  30.616  12.406
59868W        W26409  21.106  32.026   2.686
59869W        W26410  29.494  21.997  10.736
59870W        W26411  38.966  13.194   0.010
59871W        W26412  33.584   6.869  13.395
59872W        W26413  21.357  39.508   0.020
59873W        W26414  36.812  14.855  12.127
59874W        W26415  43.135  32.867   3.722
59875W        W26416  14.166   0.791   2.702
59876W        W26417  22.914  29.425   4.077
59877W        W26418  39.515   4.894   0.186
59878W        W26419  16.591  15.719   0.471
59879W        W26420  36.520  16.160   1.359
59880W        W26421  33.678  10.695  13.884
59881W        W26422  41.370  15.228   2.594
59882W        W26423  28.322  32.410  14.856
59883W        W26424  25.646   7.436  12.465
59884W        W26425  28.990  14.846  12.114
59885W        W26426  26.909   3.674  14.797
59886W        W26427  20.180  43.562  10.768
59887W        W26428  31.673  18.387  12.594
59888W        W26429  32.901  40.409   2.943
59889W        W26430   1.725  17.047  13.813
59890W        W26431  14.789  40.566  10.558
59891W        W26432  26.522  39.742   2.839
59892W        W26433  40.671  13.825  10.454
59893W        W26434  24.465  33.574  13.365
59894W        W26435  40.704  13.397   0.826
59895W        W26436  30.946  37.087   3.706
59896W        W26437  13.950  35.823  13.491
59897W        W26438  44.953   5.386   4.070
59898W        W26439  35.935  28.610   1.675
59899W        W26440  10.563  23.304   0.337
59900W        W26441  27.556  44.957  12.082
59901W        W26442  18.501  12.031   0.198
59902W        W26443  32.176  27.175   1.353
59903W        W26444  23.546  17.544  13.839
59904W        W26445  23.142  31.144  11.075
59905W        W26446  10.404  14.100  14.505
59906W        W26447  40.716   7.353   2.695
59907W        W26448  26.543   2.804  14.733
59908W        W26449  14.794  10.958   1.874
59909W        W26450  22.224   3.608  12.549
59910W        W26451  20.239  12.250   3.145
59911W        W26452  20.636  21.837  13.559
59912W        W26453  18.398  20.377  11.252
59913W        W26454  12.938   8.748   2.973
59914W        W26455  41.490  21.509   3.822
59915W        W26456  13.587  19.284  14.756
59916W        W26457  22.156  31.051   3.486
59917W        W26458  20.682   7.159  14.419
59918W        W26459  43.036  27.232   3.223
59919W        W26460  20.433  44.861  12.475
59920W        W26461  33.109  32.479   4.186
59921W        W26462  13.239  25.078   0.884
59922W        W26463  12.622   6.709  14.443
59923W        W26464  23.489   8.616   4.247
59924W        W26465  37.379  32.896   0.696
59925W        W26466  30.646   3.796   0.659
59926W        W26467  30.375  24.888  11.429
59927W        W26468   8.351  31.601  13.081
59928W        W26469   3.238  14.347   3.826
59929W        W26470   5.290  27.949   4.160
59930W        W26471   1.879   7.903   1.970
59931W        W26472  19.740  41.874  13.288
59932W        W26473   0.464  18.042   2.050
59933W        W26474  37.375  30.756   4.543
59934W        W26475  13.193  40.114   1.296
59935W        W26476  11.245  22.220  13.935
59936W        W26477  39.951  21.006   2.463
59937W        W26478  23.034   5.525   1.310
59938W        W26479   7.543  41.913  10.668
59939W        W26480  28.220   3.697   3.175
59940W        W26481  21.014  27.085  12.530
59941W        W26482  14.235   0.756  12.993
59942W        W26483  14.681  32.987   0.434
59943W        W26484  13.790   1.810  13.926
59944W        W26485  27.813  34.318  13.733
59945W        W26486  34.969  42.052  12.007
59946W        W26487  32.512   6.294  11.576
59947W        W26488  15.894  18.069  13.070
59948W        W26489   0.695   4.955   1.376
59949W        W26490  12.656  15.613  11.808
59950W        W26491  37.268  37.635   3.106
59951W        W26492  21.422   6.590   2.082
59952W        W26493   8.017   6.577   0.334
59953W        W26494  18.558   7.239  12.547
59954W        W26495  42.730  16.062   0.700
59955W        W26496  30.509  10.303  12.499
59956W        W26497  21.730  31.092  12.505
59957W        W26498   4.323   2.576  14.857
59958W        W26499  35.777  44.420   2.305
59959W        W26500   9.909  15.184   1.325
59960W        W26501  23.199  17.160   4.895
59961W        W26502  13.325   0.862  10.685
59962W        W26503   5.337  10.847  13.479
59963W        W26504   5.392  13.534  12.839
59964W        W26505  28.478  40.076   4.758
59965W        W26506  11.240  39.069   0.825
59966W        W26507  21.974  20.625   2.355
59967W        W26508  33.574  29.506   1.680
59968W        W26509   8.665  14.595   2.625
59969W        W26510  19.606  26.906  14.458
59970W        W26511  24.970  41.113  14.484
59971W        W26512  38.895  39.863  13.888
59972W        W26513  37.083  39.021   5.041
59973W        W26514  37.915  35.577   2.458
59974W        W26515   6.208   6.654   0.958
59975W        W26516  25.540  10.290   0.893
59976W        W26517  32.573  14.669  12.156
59977W        W26518  13.250   6.891   0.049
59978W        W26519  12.327  27.480   3.320
59979W        W26520  37.061  20.670   3.260
59980W        W26521  22.962  33.816   2.845
59981W        W26522  11.918   4.804   4.490
59982W        W26523  21.258  14.989   3.892
59983W        W26524   5.275  30.552  12.252
59984W        W26525  22.409  17.195  13.841
59985W        W26526   5.392  42.401   1.348
59986W        W26527  33.486   0.005   2.345
59987W        W26528   7.791  16.194   4.753
59988W        W26529   1.257  24.731   1.500
59989W        W26530   2.477  15.020   4.070
59990W        W26531  12.381   8.775  14.923
59991W        W26532  22.204  19.472   1.052
59992W        W26533  44.364  19.233  13.571
59993W        W26534  41.531   4.390  13.046
59994W        W26535  30.535  25.050   1.647
59995W        W26536  30.715  36.864  13.789
59996W        W26537  27.559   0.733   3.837
59997W        W26538  43.815  21.014  12.490
59998W        W26539  18.740  14.045  12.072
59999W        W26540   6.152  38.758  13.549
60000W        W26541  38.568  22.157  11.430
60001W        W26542  28.669  40.643   2.197
60002W        W26543  43.511  16.679  14.773
60003W        W26544  17.165   2.957  13.855
60004W        W26545  16.746   2.453   0.250
60005W        W26546   0.914   1.406   3.142
60006W        W26547  19.200  28.993   3.389
60007W        W26548  34.530  27.004  13.106
60008W        W26549   1.815  23.183   2.631
60009W        W26550   7.419  20.815   3.090
60010W        W26551  39.817  27.354  10.756
60011W        W26552  13.658  12.361  10.890
60012W        W26553   8.369   1.020   1.274
60013W        W26554   4.350  33.028  11.718
60014W        W26555  11.302   0.847  14.263
60015W        W26556  18.648  16.728  10.469
60016W        W26557  37.101  41.508  14.962
60017W        W26558   2.711  24.858   0.111
60018W        W26559  43.218   5.683   4.818
60019W        W26560   8.731   7.367  14.422
60020W        W26561  15.262  33.266   4.054
60021W        W26562  19.337  17.577  11.443
60022W        W26563  18.258  26.582  11.425
60023W        W26564  10.297  32.167   1.008
60024W        W26565   8.736  17.464  13.214
60025W        W26566  20.351   4.670   0.130
60026W        W26567  22.704  35.128   3.320
60027W        W26568   0.980  33.433  14.437
60028W        W26569  12.470  44.857  14.997
60029W        W26570  11.085   8.607  14.538
60030W        W26571  30.298  39.903   3.760
60031W        W26572  40.536  18.643   2.589
60032W        W26573  41.960  17.507  12.960
60033W        W26574  21.788  14.338  12.061
60034W        W26575   9.461  11.166   2.683
60035W        W26576  33.609  37.994  11.035
60036W        W26577  10.421  22.331   1.771
60037W        W26578   3.522  28.533   2.899
60038W        W26579  37.387  37.033   1.664
60039W        W26580  15.657   8.248  11.556
60040W        W26581  34.119  13.782   5.788
60041W        W26582   5.257  14.776   2.067
60042W        W26583  21.744   8.187  11.508
60043W        W26584   3.237   8.814  11.915
60044W        W26585  21.756  12.314  12.959
60045W        W26586  14.851  26.887  10.371
60046W        W26587  16.829  37.996  12.484
60047W        W26588  24.989  25.116   1.904
60048W        W26589  25.727  26.111  10.624
60049W        W26590  30.870  10.292  14.759
60050W        W26591  16.547   0.193   2.706
60051W        W26592  37.773  38.375   2.743
60052W        W26593  43.886  29.076   4.739
60053W        W26594  39.530  43.756   3.202
60054W        W26595   8.253   9.816  13.724
60055W        W26596   5.700  14.241   4.126
60056W        W26597  11.880   4.413   2.778
60057W        W26598  13.999  25.091  14.202
60058W        W26599  25.251  27.200  12.870
60059W        W26600  11.110  37.860   0.357
60060W        W26601   0.225   1.833   0.680
60061W        W26602   3.927  40.713   4.047
60062W        W26603  44.764  36.338  14.372
60063W        W26604   4.996  40.376  11.911
60064W        W26605   0.688   3.635   3.811
60065W        W26606   0.284   3.821   1.387
60066W        W26607   8.159  16.225   1.959
60067W        W26608  12.351  37.498  12.886
60068W        W26609  26.943   8.869  12.504
60069W        W26610  32.565  30.405   2.630
60070W        W26611  33.446  39.512   2.665
60071W        W26612  16.106   5.307   0.114
60072W        W26613   3.040  39.230  13.841
60073W        W26614   3.845  17.647   4.102
60074W        W26615  32.643  10.098  12.182
60075W        W26616  16.868  35.401  14.736
60076W        W26617  11.909  11.641   4.531
60077W        W26618  37.991   7.205   2.232
60078W        W26619  35.849  21.317  14.364
60079W        W26620  41.343  16.571   0.502
60080W        W26621   7.228  20.237   2.224
60081W        W26622  28.911  21.233   4.166
60082W        W26623   6.378  36.348  10.550
60083W        W26624  24.940  24.224   4.115
60084W        W26625  20.683  40.583   3.803
60085W        W26626  31.964   0.705   0.658
60086W        W26627   0.205  26.443  11.163
60087W        W26628  23.902  11.844   0.717
60088W        W26629  43.368   2.886  14.869
60089W        W26630  35.346  19.607  14.241
60090W        W26631  33.098  12.163   3.288
60091W        W26632  22.569  43.142  12.559
60092W        W26633  38.283  33.396   3.548
60093W        W26634  39.533  41.489  10.629
60094W        W26635   2.793   6.864   4.671
60095W        W26636  20.199  22.006   2.189
60096W        W26637   2.564   6.905  12.954
60097W        W26638  33.110  20.607   4.667
60098W        W26639  23.701  10.126  11.207
60099W        W26640   8.621  30.208  13.039
60100W        W26641  14.736   0.708  11.543
60101W        W26642  31.172  18.488   1.298
60102W        W26643  25.890  34.847  12.104
60103W        W26644  39.708  18.877   3.645
60104W        W26645  41.633   8.294   3.600
60105W        W26646  32.985   3.297   3.677
60106W        W26647  16.997   7.305   1.335
60107W        W26648  44.087   9.779  13.526
60108W        W26649   3.882   0.279  14.479
60109W        W26650  18.564   3.363   2.562
60110W        W26651  21.778   4.773  13.470
60111W        W26652   1.851   0.115   2.595
60112W        W26653  35.582  14.367  13.259
60113W        W26654  25.654  13.377  14.094
60114W        W26655  18.416  38.333  14.998
60115W        W26656   7.334  39.108   3.561
60116W        W26657  41.541  33.673   1.388
60117W        W26658  10.682  23.579   0.996
60118W        W26659  36.551   8.903  10.635
60119W        W26660  18.757  37.570   3.668
60120W        W26661  29.413  20.814  11.989
60121W        W26662  30.476  16.118   3.767
60122W        W26663   5.927   0.621  11.610
60123W        W26664  33.980   0.423   1.345
60124W        W26665   1.754   7.448  11.850
60125W        W26666  28.011  24.689   0.823
60126W        W26667   1.163  14.778  12.204
60127W        W26668   1.923  12.759   2.349
60128W        W26669  15.603  39.229  14.022
60129W        W26670  37.673  11.438   0.955
60130W        W26671   4.526   6.687  14.023
60131W        W26672  28.626  21.303   1.839
60132W        W26673  32.158   3.579   2.373
60133W        W26674  34.397  36.341   4.701
60134W        W26675  42.755   0.270   2.448
60135W        W26676   4.360   0.874   3.687
60136W        W26677  11.696  41.063  13.812
60137W        W26678  19.034  19.553   2.797
60138W        W26679  35.929  10.549   1.756
60139W        W26680  28.905  26.056   2.656
60140W        W26681   5.852  37.076  10.643
60141W        W26682  43.976  32.003   1.044
60142W        W26683  11.070   0.550  11.006
60143W        W26684  20.143   0.153   0.464
60144W        W26685  15.088   9.134  11.566
60145W        W26686   7.284  35.838   0.429
60146W        W26687  31.943   4.925   2.806
60147W        W26688  18.286  27.155   0.029
60148W        W26689   7.925  12.023  10.255
60149W        W26690  40.389   5.728   0.335
60150W        W26691  11.816  18.113   0.766
60151W        W26692   6.367  21.512   1.249
60152W        W26693  24.934   8.600  11.181
60153W        W26694  40.400   8.231  13.962
60154W        W26695   3.253  15.313  10.817
60155W        W26696  23.585  16.210  14.537
60156W        W26697  17.661  30.114  13.331
60157W        W26698  12.167   4.347  14.521
60158W        W26699  44.324   1.914   2.606
60159W        W26700   8.207  20.059  13.832
60160W        W26701  27.475  42.267   3.590
60161W        W26702  34.631  16.990  11.516
60162W        W26703   5.611  19.740   0.911
60163W        W26704  41.539   3.482  11.081
60164W        W26705  14.271  37.270  13.599
60165W        W26706  12.760  17.456  11.606
60166W        W26707  35.079  10.083  14.433
60167W        W26708   2.749  29.912  13.294
60168W        W26709  30.523  43.414  12.014
60169W        W26710  33.230  29.172   2.791
60170W        W26711  16.359  23.161  13.164
60171W        W26712  25.148   3.160   0.699
60172W        W26713  38.989  43.387  14.542
60173W        W26714  11.304  14.079  14.125
60174W        W26715  11.209  27.769  13.829
60175W        W26716  20.126  38.896  13.830
60176W        W26717  31.274  18.935  10.540
60177W        W26718  12.638  31.668   2.780
60178W        W26719   7.321   2.285   4.534
60179W        W26720  21.010  10.827  12.621
60180W        W26721  23.088  18.202  11.562
60181W        W26722  23.097  30.967  12.704
60182W        W26723  26.731  39.023  10.889
60183W        W26724  12.341   7.818   0.844
60184W        W26725  32.805  27.206   2.631
60185W        W26726  31.406  24.687  10.955
60186W        W26727  26.211  10.182   1.366
60187W        W26728  23.244  41.123  11.085
60188W        W26729  28.319  12.671  14.196
60189W        W26730  32.869  30.082   0.542
60190W        W26731   6.591   5.791   1.431
60191W        W26732  25.453   3.764   1.827
60192W        W26733  34.586  17.801   2.226
60193W        W26734  17.689  13.648  13.084
60194W        W26735  40.438  37.919   4.554
60195W        W26736  30.600   1.505   4.832
60196W        W26737   6.194  15.700  14.526
60197W        W26738  23.740  38.153   4.293
60198W        W26739  39.084  40.232  12.227
60199W        W26740  33.424   8.641  14.449
60200W        W26741  38.102   0.398  14.533
60201W        W26742  16.636   5.676  13.865
60202W        W26743  25.420  10.955   1.801
60203W        W26744  34.807  26.968  14.290
60204W        W26745  20.098  21.988   3.545
60205W        W26746  24.360  27.447   2.375
60206W        W26747  12.072  26.418   0.169
60207W        W26748  41.497  18.733   4.129
60208W        W26749  30.138  11.973   4.219
60209W        W26750   8.892  41.891  12.200
60210W        W26751  44.904  32.980   4.219
60211W        W26752  35.148  15.899  14.352
60212W        W26753  44.756  36.861  13.486
60213W        W26754  41.304  16.536  11.905
60214W        W26755  11.445  11.844   1.801
60215W        W26756  29.692  32.172  12.619
60216W        W26757   3.250  15.324   3.490
60217W        W26758  41.954   3.283   0.306
60218W        W26759  43.860   5.322  14.004
60219W        W26760   3.057   0.480   1.348
60220W        W26761  35.652  39.012   2.489
60221W        W26762   8.958  38.360  14.596
60222W        W26763  33.567  19.051  14.792
60223W        W26764  16.738   2.836  12.185
60224W        W26765  37.510  40.552   4.186
60225W        W26766  37.605  34.526  13.754
60226W        W26767  33.998  41.841  10.648
60227W        W26768  18.560   2.963  12.840
60228W        W26769  11.278  16.302   2.311
60229W        W26770  36.980   3.339  11.955
60230W        W26771  26.564  28.247  10.683
60231W        W26772  12.298  37.885  11.962
60232W        W26773  10.711  18.540   3.302
60233W        W26774  27.871  31.976  10.643
60234W        W26775  21.061  40.814  11.258
60235W        W26776  17.307  40.499   3.700
60236W        W26777  43.842  10.747   2.920
60237W        W26778  27.932  15.812  11.057
60238W        W26779  28.064   5.486   3.159
60239W        W26780   5.424  21.932   2.736
60240W        W26781  43.958  21.757   0.805
60241W        W26782   4.488  14.666   1.343
60242W        W26783  25.009   1.279   4.555
60243W        W26784  14.754  13.225   4.629
60244W        W26785   5.728   6.814   4.641
60245W        W26786  32.314   3.708  13.954
60246W        W26787  26.561  33.477   1.882
60247W        W26788  42.774  13.117  11.015
60248W        W26789  10.090  31.649  13.848
60249W        W26790   3.219  33.065   2.326
60250W        W26791  21.686   0.929   3.704
60251W        W26792  28.336  17.116  11.647
60252W        W26793  30.877  43.387  10.736
60253W        W26794  12.254  11.804   3.722
60254W        W26795  16.786  11.453   0.618
60255W        W26796   4.312   5.932  13.020
60256W        W26797  11.252  24.498   4.592
60257W        W26798  25.586  33.778  13.108
60258W        W26799  10.484  15.377  14.725
60259W        W26800   8.641  28.215   1.292
60260W        W26801   0.731  19.687  13.841
60261W        W26802   9.575  21.299   1.193
60262W        W26803   7.316   7.620   0.102
60263W        W26804  38.330  25.469   2.208
60264W        W26805  25.489  22.234   2.402
60265W        W26806  42.715  26.587  10.674
60266W        W26807  10.371  22.448   3.115
60267W        W26808   0.614  37.739  11.028
60268W        W26809  10.622  28.425  13.476
60269W        W26810   9.014   3.702   4.182
60270W        W26811  39.476   5.918  14.346
60271W        W26812  25.950  18.731  12.381
60272W        W26813   2.202   1.560  12.261
60273W        W26814  44.910  11.135   2.185
60274W        W26815  34.067   0.005   0.320
60275W        W26816  30.616  12.294  14.097
60276W        W26817  38.471   6.153   1.937
60277W        W26818  43.434  11.414  13.934
60278W        W26819  41.906  22.077  13.920
60279W        W26820   3.655  38.844  14.386
60280W        W26821  25.494   2.507   3.517
60281W        W26822  40.992  22.536  13.913
60282W        W26823  34.363  10.895  12.379
60283W        W26824   0.098  26.199  12.968
60284W        W26825  29.509  18.677  11.567
60285W        W26826  43.690  28.417   4.912
60286W        W26827  38.857  26.778   4.018
60287W        W26828  41.062  43.809   0.119
60288W        W26829  17.568  32.960  11.605
60289W        W26830  15.032  10.237   0.925
60290W        W26831  10.135  15.722   1.296
60291W        W26832  42.646  26.332  13.971
60292W        W26833  42.383  23.499   0.936
60293W        W26834  43.000  13.847  14.437
60294W        W26835  20.664  33.329  10.687
60295W        W26836  35.815  25.231   0.037
60296W        W26837   4.804   2.887  13.856
60297W        W26838   7.929   5.901   1.057
60298W        W26839  34.639  15.069  13.607
60299W        W26840  28.135  41.860   4.687
60300W        W26841   6.666  27.311   0.477
60301W        W26842  16.074  16.337   1.837
60302W        W26843  12.759  42.780  11.828
60303W        W26844  28.026  41.404   3.749
60304W        W26845  44.927  29.967   0.152
60305W        W26846  19.120  25.739  14.766
60306W        W26847  44.226  23.968   0.894
60307W        W26848   5.502  31.398  13.011
60308W        W26849  15.058  19.283  12.691
60309W        W26850  27.244  30.612   2.766
60310W        W26851  42.235   0.029   2.729
60311W        W26852  40.577  16.086  11.214
60312W        W26853   4.414  26.172  11.647
60313W        W26854  20.776  20.117   0.678
60314W        W26855  14.832  43.769  12.446
60315W        W26856  33.202  14.258  12.869
60316W        W26857  22.513   8.865  13.571
60317W        W26858   3.087  37.949   1.697
60318W        W26859   8.241  31.108   1.335
60319W        W26860  40.721  39.999  14.992
60320W        W26861   6.297  36.474   4.468
60321W        W26862  40.132   2.639   0.360
60322W        W26863  17.350  31.081  14.344
60323W        W26864  24.557   2.445   3.715
60324W        W26865  27.820  29.959  13.767
60325W        W26866  21.153  18.123  11.679
60326W        W26867  36.613  35.960   0.227
60327W        W26868  36.254  18.739   3.750
60328W        W26869  30.752  21.609   1.842
60329W        W26870  30.101   8.719   2.104
60330W        W26871  16.820  44.517   0.383
60331W        W26872  21.182  42.081  14.033
60332W        W26873   5.407  18.890   4.342
60333W        W26874   3.715  28.472   3.377
60334W        W26875  10.825  28.152   0.547
60335W        W26876  44.900  35.392   1.297
60336W        W26877   6.874   8.392  13.424
60337W        W26878  34.730  32.911   3.840
60338W        W26879  39.411  21.320   4.864
60339W        W26880  11.685  10.179  12.464
60340W        W26881   7.331  31.799  14.843
60341W        W26882  21.299  22.334  10.113
60342W        W26883  31.972  34.273   1.096
60343W        W26884  13.201   2.205   3.398
60344W        W26885  22.789  17.701  14.891
60345W        W26886  37.404   2.714   4.797
60346W        W26887  28.976  44.234  12.432
60347W        W26888  29.189   8.665   3.974
60348W        W26889  35.057  43.773  12.513
60349W        W26890  16.173  14.681  14.010
60350W        W26891  33.794  23.037  13.301
60351W        W26892  12.885  11.529   1.891
60352W        W26893   3.908   6.842  11.126
60353W        W26894  18.289   9.231   0.358
60354W        W26895  27.451  43.024   0.773
60355W        W26896  24.284  34.360  12.540
60356W        W26897  13.132  25.010  11.116
60357W        W26898   4.882  34.802  13.750
60358W        W26899   5.874   8.560   3.991
60359W        W26900   1.303  43.371  11.208
60360W        W26901   8.820   1.229  11.157
60361W        W26902  13.342   7.528   0.752
60362W        W26903  37.779  44.190   4.421
60363W        W26904  35.119  24.274   0.637
60364W        W26905   6.133  29.925  14.361
60365W        W26906   5.087  36.706   1.820
60366W        W26907  19.978  18.195  14.244
60367W        W26908  22.438  16.441  10.230
60368W        W26909  20.168  14.760  11.928
60369W        W26910  16.704  34.386   4.858
60370W        W26911  38.397  30.535   3.381
60371W        W26912  29.164  35.781   0.846
60372W        W26913  13.741  16.786   4.148
60373W        W26914  29.480  35.041  10.831
60374W        W26915   9.339  31.292  10.512
60375W        W26916   1.085  44.293   3.683
60376W        W26917  25.057  21.619  10.944
60377W        W26918  41.061  22.744   2.787
60378W        W26919   8.246  32.444  12.074
60379W        W26920   5.775  36.431   1.149
60380W        W26921  37.434  21.942   1.279
60381W        W26922  38.466   7.185  13.001
60382W        W26923  41.907  26.748  11.196
60383W        W26924  34.454   9.841  10.627
60384W        W26925  14.096  42.495  11.940
60385W        W26926  41.974   0.933   0.815
60386W        W26927  42.245   9.899   2.975
60387W        W26928  30.692  11.354   4.651
60388W        W26929   2.827  15.909   0.848
60389W        W26930  26.751   1.971   3.688
60390W        W26931  29.046  11.671   0.191
60391W        W26932  36.274  43.706   2.721
60392W        W26933  32.268  27.685  11.989
60393W        W26934  14.872  28.409   4.864
60394W        W26935  39.737   2.472   3.188
60395W        W26936  41.108  16.624  13.255
60396W        W26937  35.313   7.565   2.509
60397W        W26938  16.811  40.268   1.674
60398W        W26939  43.110  20.469   2.581
60399W        W26940  36.462  32.811   0.445
60400W        W26941  33.122  28.518  14.335
60401W        W26942  16.141  12.760   1.202
60402W        W26943  16.184  13.526  12.141
60403W        W26944  22.319  22.682   0.375
60404W        W26945   5.754  31.573   2.652
60405W        W26946  29.890  22.248   2.290
60406W        W26947  17.139  27.533   2.233
60407W        W26948  34.646  35.939   1.818
60408W        W26949  11.064  15.039  14.297
60409W        W26950  26.667  12.862  11.859
60410W        W26951  32.792   1.864  12.500
60411W        W26952  40.378  17.245  11.494
60412W        W26953   9.116  28.258  10.353
60413W        W26954  38.325  34.426  11.222
60414W        W26955  12.716  36.293  12.646
60415W        W26956  16.059  10.676  13.973
60416W        W26957  36.971   2.397  14.874
60417W        W26958  26.977  42.849   2.673
60418W        W26959  39.943  13.736  13.354
60419W        W26960   4.342  29.023   2.752
60420W        W26961   9.417   8.152  12.914
60421W        W26962  14.517  16.603   0.126
60422W        W26963  38.618   5.385  11.238
60423W        W26964  17.756  30.423  12.056
60424W        W26965  35.151  42.209   3.698
60425W        W26966   0.302  13.109   4.704
60426W        W26967  21.061  40.177  12.567
60427W        W26968  20.156   5.015  12.094
60428W        W26969   9.119  34.460  11.354
60429W        W26970   3.377   5.305   0.959
60430W        W26971   8.464   0.526   1.393
60431W        W26972  21.257  20.208  13.894
60432W        W26973  27.918  30.009   1.069
60433W        W26974  14.148  40.989   4.072
60434W        W26975   0.047  42.152   1.360
60435W        W26976   7.163   8.691  12.005
60436W        W26977  23.029  41.076  14.864
60437W        W26978   0.050   9.168  10.778
60438W        W26979  36.229  22.581   0.952
60439W        W26980  15.865  42.844  11.577
60440W        W26981  17.813  10.890  12.425
60441W        W26982  37.343  29.574   0.219
60442W        W26983  23.143  25.261  14.274
60443W        W26984   5.247  10.366  12.085
60444W        W26985  40.340  40.825  14.483
60445W        W26986  31.069   3.748   3.345
60446W        W26987   7.151  15.732   3.641
60447W        W26988  42.516  11.537   5.501
60448W        W26989  10.633  44.962  10.416
60449W        W26990  25.318   8.801   4.156
60450W        W26991  29.226  38.406   2.323
60451W        W26992  11.359  14.336  10.417
60452W        W26993   9.352  13.223   4.517
60453W        W26994  33.107   3.162  12.903
60454W        W26995  33.306  22.321  14.421
60455W        W26996  16.794   0.963   1.411
60456W        W26997  17.533  15.277   2.331
60457W        W26998   9.264  21.950  14.427
60458W        W26999   3.253  35.611  13.601
60459W        W27000  20.785  23.792  14.863
60460W        W27001  27.364   2.700  11.905
60461W        W27002  18.207  30.853   9.893
60462W        W27003  22.522  28.497   4.783
60463W        W27004  21.663  22.158  13.013
60464W        W27005   3.391   1.312   0.929
60465W        W27006  25.730  11.772   4.071
60466W        W27007  40.849  12.787   2.245
60467W        W27008   0.047  41.343   0.861
60468W        W27009   8.260  24.214  12.370
60469W        W27010  37.497   7.416  12.528
60470W        W27011  33.225  40.416   3.354
60471W        W27012  42.518  17.317  14.233
60472W        W27013  21.767  30.674   0.793
60473W        W27014  10.871  27.721   2.405
60474W        W27015  18.224  25.850   4.226
60475W        W27016  41.387  35.044   2.870
60476W        W27017  21.227  43.904  13.061
60477W        W27018  33.009  32.834  14.488
60478W        W27019  40.913   7.874   4.004
60479W        W27020   4.762  44.701  14.307
60480W        W27021  33.211  29.786   1.923
60481W        W27022  22.644   1.828  14.971
60482W        W27023  43.469  12.664   0.969
60483W        W27024  36.566  33.682  11.335
60484W        W27025   8.148  13.239   1.028
60485W        W27026  23.385  42.249  11.157
60486W        W27027  43.767  41.993   3.184
60487W        W27028  18.039  11.552  12.051
60488W        W27029  30.533  14.272   3.715
60489W        W27030   8.362  26.302   1.889
60490W        W27031   3.196  17.722  11.155
60491W        W27032   0.874  29.571   0.468
60492W        W27033  39.439  39.022  14.028
60493W        W27034  15.718  29.625   2.145
60494W        W27035   9.172  20.065  11.065
60495W        W27036  34.409  26.103   1.609
60496W        W27037  18.912  14.337  14.717
60497W        W27038  38.450  12.799  14.244
60498W        W27039  11.824   7.099   1.382
60499W        W27040  26.305   0.794  12.448
60500W        W27041  13.848  15.800   0.785
60501W        W27042  16.798  15.326   3.818
60502W        W27043  27.867  24.024   2.903
60503W        W27044  13.405   3.570   0.907
60504W        W27045  11.100  17.812   2.059
60505W        W27046  15.759  22.099   2.186
60506W        W27047  26.130  25.957  12.336
60507W        W27048  26.906  13.225   2.366
60508W        W27049   6.634  29.097  14.599
60509W        W27050  15.874  14.131   1.113
60510W        W27051  23.708  30.898  10.385
60511W        W27052  27.021  24.272   1.924
60512W        W27053  10.647  40.447   2.747
60513W        W27054  38.361  31.387   1.806
60514W        W27055  29.087  23.611   1.693
60515W        W27056  35.909  44.584   2.784
60516W        W27057  42.898  38.970  10.969
60517W        W27058   3.517  15.566   2.378
60518W        W27059  29.510  44.301   3.584
60519W        W27060  28.127  19.277   4.560
60520W        W27061  40.975  20.548   0.500
60521W        W27062  20.885  28.961  10.765
60522W        W27063   6.292   3.998   0.070
60523W        W27064  14.173  39.529   4.647
60524W        W27065  38.785  38.037  10.683
60525W        W27066  25.542  25.303   4.132
60526W        W27067   6.233  41.456  11.926
60527W        W27068  15.323  36.981  13.752
60528W        W27069  12.127  42.304   0.203
60529W        W27070   3.975  24.505   0.483
60530W        W27071  43.772  39.754   2.770
60531W        W27072  21.581   5.924  11.506
60532W        W27073  16.241  29.979   0.984
60533W        W27074  21.562  41.936  11.598
60534W        W27075  29.828   5.730   0.394
60535W        W27076  36.538  28.556  11.013
60536W        W27077  12.489  12.857  12.447
60537W        W27078  33.229   8.168   0.341
60538W        W27079  37.859  44.419  11.137
60539W        W27080   3.228  35.092   4.578
60540W        W27081   2.109  38.763  11.992
60541W        W27082  17.107   8.852   1.675
60542W        W27083  38.459  23.359  12.906
60543W        W27084  25.070  16.684  12.617
60544W        W27085  38.944  16.538   1.413
60545W        W27086  27.415   8.301   4.358
60546W        W27087  15.168  21.380   4.920
60547W        W27088  15.738  22.577  13.496
60548W        W27089  21.776  32.889  14.838
60549W        W27090  35.824  12.217   3.674
60550W        W27091  36.003  40.048   3.220
60551W        W27092   8.541  15.248  14.906
60552W        W27093  20.961  28.976  13.867
60553W        W27094  41.210  31.541  13.415
60554W        W27095  11.245  42.411  13.754
60555W        W27096  21.044  34.328   4.375
60556W        W27097  28.466  27.871  11.122
60557W        W27098  18.492   0.916  11.959
60558W        W27099  43.472   8.241  11.585
60559W        W27100  10.904  21.255  11.606
60560W        W27101  34.376   0.280   5.405
60561W        W27102   0.829  17.586   4.191
60562W        W27103  32.476  33.915   1.400
60563W        W27104  27.095  16.054   2.314
60564W        W27105  19.994  28.872  13.543
60565W        W27106  10.327  18.808   3.113
60566W        W27107  21.488  20.059  14.323
60567W        W27108  21.605  12.014   5.566
60568W        W27109  38.820   7.940   1.716
60569W        W27110  13.355  23.182   0.853
60570W        W27111  12.386   2.396  10.656
60571W        W27112   9.789  36.495   0.967
60572W        W27113  19.739  18.946  13.455
60573W        W27114   6.950   7.731   4.074
60574W        W27115  14.863   7.653  11.526
60575W        W27116   4.763   2.497   2.400
60576W        W27117   3.878  18.357   2.740
60577W        W27118  34.052  31.016   2.894
60578W        W27119  44.739  36.646  13.012
60579W        W27120  41.483  19.366   2.320
60580W        W27121  29.429  21.939  13.948
60581W        W27122  29.510  27.843   0.269
60582W        W27123  18.444   5.235  13.330
60583W        W27124  42.264  23.587  10.604
60584W        W27125  32.407  29.680   3.074
60585W        W27126  29.443  10.309  12.507
60586W        W27127  43.849  34.023   3.376
60587W        W27128   9.877  20.026  13.316
60588W        W27129   3.075  26.720  11.222
60589W        W27130  44.090  12.052   4.649
60590W        W27131  12.898   4.938  12.350
60591W        W27132  30.491  28.286  12.879
60592W        W27133  29.285   2.361   2.368
60593W        W27134   1.277  13.665  13.587
60594W        W27135   7.159  33.415  13.429
60595W        W27136  17.017  18.211   1.335
60596W        W27137  22.710   8.713  10.562
60597W        W27138  14.814  22.488   2.211
60598W        W27139  38.479  24.590   2.366
60599W        W27140  35.929  15.679   0.160
60600W        W27141   4.402  30.914   5.412
60601W        W27142   3.034   8.283  12.528
60602W        W27143  26.038   2.351   1.042
60603W        W27144  41.324  21.350  10.075
60604W        W27145  16.312  33.882   5.489
60605W        W27146  28.456  42.573  11.185
60606W        W27147   0.306  17.199  14.973
60607W        W27148  19.167   6.138   2.162
60608W        W27149  17.199  36.979  11.602
60609W        W27150   5.301   8.100   0.838
60610W        W27151  22.477  17.385   1.836
60611W        W27152  42.443  44.212  14.672
60612W        W27153  15.519  17.001   4.571
60613W        W27154  36.213  22.647  14.347
60614W        W27155  21.522  15.627   3.970
60615W        W27156  20.875  11.138  10.283
60616W        W27157  17.807  15.282   3.578
60617W        W27158  31.351  23.602   1.263
60618W        W27159  17.347  10.639   0.241
60619W        W27160  36.530   9.638   4.632
60620W        W27161  27.777  31.154  12.448
60621W        W27162   8.003  44.307   0.859
60622W        W27163  40.497  43.915  12.123
60623W        W27164  35.816  15.711   5.156
60624W        W27165   3.888  20.849  13.351
60625W        W27166  11.143  16.396  12.651
60626W        W27167   2.458  20.488  12.879
60627W        W27168   0.768   6.306   0.415
60628W        W27169  28.519  31.745  13.341
60629W        W27170  38.007  20.778  12.442
60630W        W27171  29.032  24.212  14.423
60631W        W27172  23.942  33.989  11.184
60632W        W27173  24.284  12.346   1.334
60633W        W27174  42.953  15.992   3.619
60634W        W27175  29.527  43.361  11.452
60635W        W27176   5.256  37.731   1.802
60636W        W27177  12.743  29.358  14.482
60637W        W27178  23.968  19.594  13.702
60638W        W27179   3.802  20.497   0.308
60639W        W27180  34.632  27.002  11.393
60640W        W27181   4.837  28.480   3.453
60641W        W27182  18.225  24.235  14.436
60642W        W27183  24.893  29.433   3.271
60643W        W27184  31.941   6.192   1.431
60644W        W27185  13.245   2.023  13.161
60645W        W27186  32.901  11.163   4.196
60646W        W27187  41.136   1.430  14.099
60647W        W27188  23.217  41.934   1.688
60648W        W27189  12.793  37.378   0.494
60649W        W27190  29.511  21.803  11.691
60650W        W27191  15.717  28.684   0.816
60651W        W27192  44.992  34.681   0.919
60652W        W27193  32.984   1.913   3.051
60653W        W27194  15.817  35.796  13.168
60654W        W27195  39.577  17.343  12.921
60655W        W27196  11.079  15.291   2.597
60656W        W27197   7.150   2.294   3.085
60657W        W27198   4.798   8.043  12.143
60658W        W27199  41.633  22.216  14.352
60659W        W27200  16.998   0.806   4.193
60660W        W27201  34.291  11.814   2.025
60661W        W27202  36.726   0.169   2.914
60662W        W27203   0.813   5.716  12.116
60663W        W27204  37.740  14.334   0.290
60664W        W27205  15.770  27.435  12.893
60665W        W27206  19.128  36.619   2.116
60666W        W27207  28.488  23.087   1.503
60667W        W27208   5.875  11.263  12.775
60668W        W27209  29.427  33.986   3.340
60669W        W27210  19.470  20.574  12.915
60670W        W27211   5.967  25.643  11.246
60671W        W27212  41.529  43.454   3.929
60672W        W27213  27.280   8.667   0.818
60673W        W27214   6.006  10.119   3.186
60674W        W27215  38.005   1.330   3.058
60675W        W27216  31.082  42.462  14.929
60676W        W27217  43.234  31.914   3.041
60677W        W27218   8.345   0.507  14.849
60678W        W27219   0.464  38.502   4.233
60679W        W27220  24.379   6.141  11.127
60680W        W27221  31.928   5.713   2.373
60681W        W27222  40.991  24.204  14.847
60682W        W27223  15.528  38.072   3.135
60683W        W27224  16.685  26.671   1.945
60684W        W27225  19.802  24.186   0.509
60685W        W27226  14.061   9.843  11.135
60686W        W27227  44.241  27.159  13.972
60687W        W27228  23.015  16.730  13.989
60688W        W27229  37.227  23.571   3.889
60689W        W27230   2.973  43.249  11.418
60690W        W27231   1.635  16.759  11.104
60691W        W27232  15.536  33.195  10.698
60692W        W27233  33.916  21.462   2.381
60693W        W27234  36.336  23.213   1.334
60694W        W27235   1.114   4.804   4.153
60695W        W27236  23.106  25.434  10.607
60696W        W27237  35.642  37.218  11.053
60697W        W27238  38.739  12.707   3.155
60698W        W27239   5.276  14.557  13.319
60699W        W27240  26.717  11.744  12.224
60700W        W27241   9.651  18.073  11.074
60701W        W27242  19.686  26.645   1.895
60702W        W27243  32.876  14.284   3.330
60703W        W27244  34.496  17.403   0.036
60704W        W27245  33.534  44.225   2.854
60705W        W27246  36.963  16.580  12.058
60706W        W27247  31.032  11.871  11.027
60707W        W27248  41.135  22.510  11.975
60708W        W27249  29.659  42.360   3.797
60709W        W27250  27.192  13.356  11.101
60710W        W27251  10.119  13.663   0.925
60711W        W27252  23.962  10.892   1.600
60712W        W27253  26.648  11.060  10.640
60713W        W27254  15.732  27.154  11.867
60714W        W27255  15.244  30.430   4.712
60715W        W27256  14.715  31.403  12.412
60716W        W27257  42.053   9.104   3.111
60717W        W27258  25.181  39.058  11.658
60718W        W27259  17.618  24.492   1.264
60719W        W27260  35.271  10.871   1.305
60720W        W27261  14.096   5.040   2.328
60721W        W27262  16.213  27.923   1.741
60722W        W27263  34.096  16.088   3.407
60723W        W27264  12.251  20.960  14.509
60724W        W27265  40.321  38.765  13.099
60725W        W27266  11.155   5.242  13.484
60726W        W27267  43.121  17.653   4.129
60727W        W27268  10.173   5.445   1.348
60728W        W27269  14.227   6.871   2.540
60729W        W27270  35.241   5.637  11.576
60730W        W27271  12.848  30.117   1.381
60731W        W27272   5.975   4.679   3.444
60732W        W27273  29.423  30.804  12.399
60733W        W27274  16.117  38.365   4.723
60734W        W27275  30.606  27.985   1.758
60735W        W27276  11.648  10.328   1.877
60736W        W27277   7.260  41.594   0.841
60737W        W27278  15.087  39.652   3.152
60738W        W27279  38.752  29.579   5.066
60739W        W27280  30.678  39.302   2.190
60740W        W27281  38.003  16.822  14.909
60741W        W27282  13.824  29.192   1.476
60742W        W27283  19.654   3.950  10.571
60743W        W27284  37.333  34.957   0.021
60744W        W27285  13.712   0.701  12.886
60745W        W27286  39.064  21.583   0.197
60746W        W27287  11.857  23.711   1.814
60747W        W27288  36.352  30.602   3.844
60748W        W27289   8.894  39.246  12.014
60749W        W27290  36.916   5.051   3.550
60750W        W27291  27.230  21.661   3.006
60751W        W27292  30.859  22.020  14.891
60752W        W27293  27.154   1.926   1.286
60753W        W27294  44.674  39.716  13.895
60754W        W27295   3.151  42.759   3.808
60755W        W27296  27.117   5.518   3.610
60756W        W27297  10.184  17.534   1.750
60757W        W27298  33.500  21.993  10.222
60758W        W27299  39.170  31.844   4.433
60759W        W27300   5.219  12.991   4.816
60760W        W27301  39.960  24.469  13.105
60761W        W27302  15.599  32.408  13.876
60762W        W27303  23.028  27.123   1.810
60763W        W27304  32.350  19.045   3.194
60764W        W27305  37.872  19.223  11.579
60765W        W27306   7.121  33.951   0.339
60766W        W27307   1.435  15.707  12.652
60767W        W27308  26.599  29.182  14.244
60768W        W27309   3.903   1.920   0.421
60769W        W27310  17.582  12.821   0.980
60770W        W27311  30.455   3.417   0.359
60771W        W27312  21.608  10.017   0.519
60772W        W27313  35.105  15.164  13.835
60773W        W27314  38.759   2.829   3.609
60774W        W27315  23.241  38.450   4.137
60775W        W27316  41.206  44.440  11.334
60776W        W27317  18.820  30.146  12.063
60777W        W27318  28.568  22.375   4.806
60778W        W27319   7.449  37.203   5.267
60779W        W27320  24.679  14.986  13.630
60780W        W27321   5.104  10.093   1.360
60781W        W27322  40.993  29.947   1.360
60782W        W27323  25.178  35.288  12.265
60783W        W27324  27.129  22.128   3.252
60784W        W27325  16.953  23.702  14.447
60785W        W27326  12.097   5.748  12.597
60786W        W27327   5.914   6.333   1.531
60787W        W27328  15.581   6.733   3.673
60788W        W27329   2.942  22.961   2.791
60789W        W27330  15.793  32.113  14.614
60790W        W27331  21.139  23.755   4.102
60791W        W27332  21.326   4.286  13.912
60792W        W27333  36.673  15.712  12.020
60793W        W27334  15.585  44.547  11.144
60794W        W27335   0.758  18.181  10.819
60795W        W27336  44.935  34.205  10.590
60796W        W27337   9.167  26.067  14.343
60797W        W27338  30.125  26.112  13.950
60798W        W27339  44.376  15.108   5.372
60799W        W27340  44.774   5.683  12.455
60800W        W27341  16.313   6.025   3.880
60801W        W27342   4.896  29.846   3.065
60802W        W27343  23.217   9.323   0.431
60803W        W27344  39.444   9.203  10.928
60804W        W27345  11.874  22.262   3.308
60805W        W27346  42.247   6.447   0.598
60806W        W27347  32.623   8.888   4.155
60807W        W27348  17.590  15.712  13.770
60808W        W27349  44.262  19.861   1.294
60809W        W27350  20.505  12.092  11.285
60810W        W27351  11.642  37.192  12.104
60811W        W27352  20.508  26.005  14.007
60812W        W27353  24.214  26.598   3.897
60813W        W27354  16.258   9.907  11.605
60814W        W27355  17.660  18.608  14.545
60815W        W27356  44.421  42.428  14.214
60816W        W27357  10.786  21.839  11.924
60817W        W27358  16.713  19.336  14.779
60818W        W27359   2.450  38.970  12.890
60819W        W27360  22.250  40.455   2.377
60820W        W27361   8.380  39.248   2.283
60821W        W27362  12.817   6.946   0.343
60822W        W27363  36.629  41.665  14.816
60823W        W27364  11.676   1.182   1.349
60824W        W27365  43.603  17.400   2.798
60825W        W27366  15.030  14.162  13.945
60826W        W27367  20.841   8.195  14.940
60827W        W27368  17.734  32.544  11.855
60828W        W27369  32.636  20.642  10.666
60829W        W27370  29.494   2.480   1.039
60830W        W27371  20.665  41.202  12.622
60831W        W27372  40.594   0.824   0.255
60832W        W27373  20.678   5.790   9.796
60833W        W27374  27.749  41.291   2.102
60834W        W27375  40.075  22.788   2.841
60835W        W27376  34.580  33.185   3.435
60836W        W27377  31.890  22.090  14.445
60837W        W27378   6.919  15.064  12.386
60838W        W27379  40.430  23.073  10.666
60839W        W27380  37.508  24.549   0.653
60840W        W27381  14.338  41.824   1.883
60841W        W27382  23.141  30.658  10.895
60842W        W27383  19.685  16.904   4.538
60843W        W27384  35.455  10.182  13.830
60844W        W27385  22.446  41.580  14.023
60845W        W27386  16.643  24.580  13.080
60846W        W27387  14.686  27.284   1.292
60847W        W27388  36.491  28.616   3.773
60848W        W27389   7.655  10.171  11.152
60849W        W27390   7.004  25.295  12.421
60850W        W27391  13.089   0.902   2.230
60851W        W27392  44.389  14.816  11.948
60852W        W27393  38.544  24.194  13.821
60853W        W27394  31.970  10.893  14.398
60854W        W27395  16.225  12.093  14.335
60855W        W27396  34.662  40.970   0.397
60856W        W27397  13.142   7.500   2.256
60857W        W27398  37.871  24.938   4.313
60858W        W27399  22.478  25.985  11.236
60859W        W27400  40.261  36.158  13.882
60860W        W27401  32.585   7.716  12.820
60861W        W27402  42.981  31.905   0.790
60862W        W27403  15.382   2.493   4.612
60863W        W27404  31.358  17.336   4.167
60864W        W27405  16.828  29.104   2.758
60865W        W27406  38.258  22.639  13.382
60866W        W27407  29.221  11.189   3.780
60867W        W27408  29.153  38.934   0.461
60868W        W27409  19.195  18.594   5.138
60869W        W27410  10.212  34.945   4.781
60870W        W27411  11.877  35.347   2.925
60871W        W27412   5.478   0.710   2.865
60872W        W27413  41.362  33.616  13.518
60873W        W27414  42.512  36.527  14.016
60874W        W27415  42.710  23.294  13.362
60875W        W27416  23.855   5.382   3.896
60876W        W27417  34.939   4.762  11.513
60877W        W27418  35.093  44.707   0.365
60878W        W27419  37.435  28.881  12.583
60879W        W27420  18.158   5.479   3.732
60880W        W27421  27.301  27.992  13.995
60881W        W27422  32.021  43.382  12.129
60882W        W27423  18.592   7.698   1.195
60883W        W27424  18.750   2.325  11.192
60884W        W27425  14.604  23.782   2.849
60885W        W27426   9.233   6.662  10.625
60886W        W27427   6.868  13.628  11.706
60887W        W27428  10.703  41.536   1.815
60888W        W27429  29.566   3.892  10.667
60889W        W27430  32.945   8.910   3.663
60890W        W27431  38.533  31.995   2.362
60891W        W27432  42.398  35.573   1.822
60892W        W27433  40.564  31.511   1.762
60893W        W27434  14.608  30.595   0.361
60894W        W27435  14.704  44.738   4.592
60895W        W27436  36.329  35.040   3.211
60896W        W27437  35.550   9.246   2.798
60897W        W27438  22.178  26.845  11.130
60898W        W27439  34.518   0.820   0.697
60899W        W27440  14.712   3.886   2.889
60900W        W27441  11.511  13.351  11.244
60901W        W27442  29.432  20.943  13.823
60902W        W27443  22.920  28.641   2.508
60903W        W27444  15.206  37.336   2.446
60904W        W27445  33.864  14.477   1.223
60905W        W27446  37.088  14.798  11.186
60906W        W27447   2.755  41.653   2.510
60907W        W27448  39.928   3.768   3.416
60908W        W27449  27.583  37.392  14.282
60909W        W27450  10.359  36.182  11.098
60910W        W27451  42.316  19.047  13.351
60911W        W27452  17.312  15.352   5.092
60912W        W27453   8.607   4.889  13.903
60913W        W27454  19.044  28.177   0.318
60914W        W27455   2.511  12.819  12.072
60915W        W27456   5.301  42.495   2.391
60916W        W27457  10.493   1.967   4.277
60917W        W27458  33.581  27.735  14.440
60918W        W27459  33.461  15.132  13.316
60919W        W27460  32.570  33.380   4.102
60920W        W27461  44.373  16.223  14.016
60921W        W27462  40.111  11.412  13.165
60922W        W27463  30.717  28.952   3.049
60923W        W27464   0.799  31.597  13.056
60924W        W27465  38.953  36.588   4.496
60925W        W27466  31.376  31.920  10.664
60926W        W27467  15.617   8.854  11.954
60927W        W27468  27.456  23.333   4.483
60928W        W27469  19.984  23.338  12.832
60929W        W27470   2.739  26.838  12.101
60930W        W27471   0.742   6.299   1.906
60931W        W27472  16.287  36.409  14.472
60932W        W27473  43.742  25.948   3.763
60933W        W27474  38.448  26.154  14.855
60934W        W27475  18.270  34.903  10.723
60935W        W27476   7.955   2.400  14.274
60936W        W27477  24.052  12.327   0.874
60937W        W27478  25.250  14.229   1.227
60938W        W27479  27.428  15.491   1.172
60939W        W27480  14.640   9.610  12.946
60940W        W27481  12.074  39.067   0.199
60941W        W27482   8.286   5.727   0.725
60942W        W27483  28.583  31.163   1.180
60943W        W27484  36.648   5.175   0.418
60944W        W27485  23.829  22.357  14.108
60945W        W27486  42.610  14.501  10.036
60946W        W27487  32.527  16.611   4.328
60947W        W27488  36.983  38.523  11.993
60948W        W27489  28.176  25.358  14.234
60949W        W27490  30.491  40.828  11.360
60950W        W27491   5.671  37.389   2.150
60951W        W27492   5.548  41.644   4.994
60952W        W27493  38.388   6.999  11.687
60953W        W27494   5.987   4.938   3.874
60954W        W27495  32.988  27.702  12.674
60955W        W27496  23.350  11.549  11.448
60956W        W27497  28.399  18.027   2.178
60957W        W27498   0.813   0.288  13.051
60958W        W27499  43.998   2.909  10.639
60959W        W27500   5.603  23.021   4.352
60960W        W27501   4.282  39.739  13.896
60961W        W27502  23.300  15.829   3.201
60962W        W27503  21.039  27.165  10.681
60963W        W27504  20.157  29.634  11.939
60964W        W27505  19.202   0.520  14.404
60965W        W27506  26.062  41.765   1.869
60966W        W27507  44.673  21.632   3.049
60967W        W27508  31.517  32.020  13.821
60968W        W27509  16.154  29.860  11.557
60969W        W27510  44.915  42.941   2.401
60970W        W27511  40.395  26.085  12.998
60971W        W27512  21.550  24.605   2.316
60972W        W27513  37.989  34.957  10.743
60973W        W27514   7.895   3.668  14.967
60974W        W27515  24.801  26.094  12.862
60975W        W27516  43.761  35.372   1.856
60976W        W27517   8.237  12.729   4.110
60977W        W27518   4.044  18.129  13.390
60978W        W27519  13.177  39.644   3.225
60979W        W27520  27.300  19.515   2.043
60980W        W27521  22.971  20.684   2.203
60981W        W27522   8.193  41.027   9.926
60982W        W27523  12.270  32.084  11.617
60983W        W27524  20.260   6.278  13.417
60984W        W27525  41.476  21.692  13.634
60985W        W27526  34.217  10.403  12.866
60986W        W27527   0.945  11.728   0.208
60987W        W27528   7.646  42.450  12.390
60988W        W27529  22.193  30.987   2.441
60989W        W27530   9.313  33.029  11.633
60990W        W27531  20.350   6.180   2.268
60991W        W27532  26.554   4.723   1.667
60992W        W27533  24.211  42.501  12.180
60993W        W27534   3.019  22.369   3.699
60994W        W27535   9.813  44.767  13.897
60995W        W27536  26.087  18.710   3.776
60996W        W27537  15.317  14.260   2.200
60997W        W27538  19.520   1.633  10.310
60998W        W27539   1.999   0.545   3.212
60999W        W27540   2.740  29.608  11.538
61000W        W27541  31.632  42.793  10.555
61001W        W27542  29.865  12.812  14.184
61002W        W27543   4.965  27.726  13.064
61003W        W27544  36.082  23.928  11.089
61004W        W27545  18.588  19.955  14.452
61005W        W27546  36.588  12.322  11.542
61006W        W27547  10.732   1.002   3.129
61007W        W27548  32.540   5.309   0.485
61008W        W27549  33.199  42.795   4.785
61009W        W27550   9.545  26.953  13.834
61010W        W27551  26.135  28.462  12.492
61011W        W27552  37.882   3.227   1.270
61012W        W27553   5.815  27.102   0.934
61013W        W27554  39.776   4.397  14.703
61014W        W27555  39.376  29.110  10.884
61015W        W27556  15.092  34.727  12.618
61016W        W27557   4.486  43.066   4.113
61017W        W27558  36.300  23.009   2.631
61018W        W27559  39.123  21.628  14.188
61019W        W27560  39.641  25.488   1.644
61020W        W27561  42.080  26.397   1.635
61021W        W27562  12.883  16.737  11.943
61022W        W27563  23.596  36.154  11.991
61023W        W27564  40.909  16.653   0.879
61024W        W27565   0.331  33.044   3.937
61025W        W27566  32.134  37.031  14.686
61026W        W27567  17.095   1.766   0.415
61027W        W27568   6.344  34.001  13.502
61028W        W27569  14.683  40.464  14.510
61029W        W27570  30.696  44.469   1.736
61030W        W27571  34.862  10.798   3.059
61031W        W27572  41.324  13.327  11.996
61032W        W27573  24.853  15.576  14.407
61033W        W27574  17.298  44.510  10.448
61034W        W27575  31.590  27.068   0.449
61035W        W27576   0.046   4.186  11.666
61036W        W27577  42.499  21.234   3.696
61037W        W27578  33.560  19.050   4.681
61038W        W27579  41.806  11.365   1.619
61039W        W27580  15.533  20.142  12.884
61040W        W27581  44.257  12.622   3.129
61041W        W27582  19.490  30.612   0.766
61042W        W27583  25.597  43.539  12.848
61043W        W27584  33.986  12.436  12.335
61044W        W27585  43.444  35.448   3.812
61045W        W27586  25.674  21.657   0.039
61046W        W27587  31.169  10.251   4.658
61047W        W27588  40.493   2.833   1.232
61048W        W27589   5.925   1.275  14.904
61049W        W27590  19.237  37.254   2.793
61050W        W27591  23.694   2.100  11.351
61051W        W27592  12.225   1.676   2.829
61052W        W27593  37.964  36.635   2.177
61053W        W27594   5.895  33.807   3.693
61054W        W27595  36.351   5.258  12.975
61055W        W27596  15.516  22.291  13.063
61056W        W27597  14.686   8.929   1.595
61057W        W27598   0.262   3.844  13.372
61058W        W27599  43.283  42.234  14.996
61059W        W27600  19.682  11.614  13.928
61060W        W27601   4.348  41.411  13.428
61061W        W27602   4.647   4.794   0.784
61062W        W27603  35.210  20.675   3.652
61063W        W27604   0.878  30.099  11.036
61064W        W27605   2.463  37.954  13.305
61065W        W27606   9.773  19.697   0.370
61066W        W27607  40.147   5.213  11.109
61067W        W27608  36.518  29.660  10.758
61068W        W27609  26.011   7.664  14.360
61069W        W27610  25.235  32.153   3.829
61070W        W27611  15.397  39.904   1.666
61071W        W27612  44.336   9.569  12.014
61072W        W27613  40.780  10.964  10.675
61073W        W27614   7.169  42.994  13.115
61074W        W27615   5.203  39.227   5.041
61075W        W27616  24.980  21.735  12.788
61076W        W27617  10.419  38.245   4.995
61077W        W27618   2.453   3.403   0.041
61078W        W27619  30.707   7.537  14.880
61079W        W27620  31.713   3.272   2.384
61080W        W27621  42.658  13.621  11.127
61081W        W27622  13.559  22.550   0.252
61082W        W27623  35.094  22.029  13.830
61083W        W27624   7.665   4.411  12.421
61084W        W27625   1.213   0.422   4.546
61085W        W27626  33.820  42.560  11.461
61086W        W27627  10.792  26.996  14.391
61087W        W27628  14.751  14.317   1.927
61088W        W27629  13.252   6.377   3.851
61089W        W27630   6.440  24.052   4.942
61090W        W27631   1.427  26.752  12.873
61091W        W27632  11.956  35.369  14.869
61092W        W27633  27.153  15.367  11.655
61093W        W27634  44.654   0.801   3.191
61094W        W27635  39.519  20.702  11.134
61095W        W27636  22.254  17.394  11.148
61096W        W27637  36.103  21.619  12.366
61097W        W27638  15.105   5.383  13.884
61098W        W27639  16.110  10.947  10.667
61099W        W27640  13.661  21.124  14.670
61100W        W27641   9.147  14.630   1.393
61101W        W27642   0.652  29.148   2.611
61102W        W27643  12.913  23.138   2.318
61103W        W27644  28.016  19.037  14.907
61104W        W27645  30.160  37.778   3.724
61105W        W27646  21.026  42.857  13.618
61106W        W27647   4.391  16.162   4.827
61107W        W27648  44.429  43.711  10.526
61108W        W27649   6.378  32.567   1.708
61109W        W27650  11.544  22.779   0.897
61110W        W27651  24.022  12.589  13.317
61111W        W27652  30.574   0.587   4.816
61112W        W27653  13.209  44.520   0.958
61113W        W27654   2.284  32.046  13.381
61114W        W27655   4.802   6.822   4.852
61115W        W27656  36.007  27.929  10.619
61116W        W27657  24.860   3.921  10.532
61117W        W27658   8.083  17.206   4.555
61118W        W27659   1.200  33.824  13.319
61119W        W27660  41.567  28.216   2.071
61120W        W27661  13.160  41.105  14.972
61121W        W27662  44.105  30.895  12.899
61122W        W27663  27.670  35.056   3.342
61123W        W27664  34.482  10.392  11.432
61124W        W27665  19.721  31.101  11.281
61125W        W27666  14.371  43.831   0.426
61126W        W27667  13.410  38.785  12.332
61127W        W27668  16.034  19.528   2.818
61128W        W27669  29.918  34.776   0.003
61129W        W27670   7.398   1.074   2.158
61130W        W27671  30.635  10.143   0.217
61131W        W27672  21.296  15.210   2.538
61132W        W27673   2.898   9.181   2.351
61133W        W27674  39.551  13.663   0.334
61134W        W27675  32.056  24.633  11.559
61135W        W27676   8.267   3.757  14.054
61136W        W27677  44.995  28.587  12.926
61137W        W27678  37.067  18.198   3.648
61138W        W27679  10.485   5.629   5.005
61139W        W27680  22.478  23.011   1.903
61140W        W27681   4.241  36.082   4.735
61141W        W27682  30.602  11.123   2.820
61142W        W27683  19.105  31.142  13.839
61143W        W27684  36.926  34.005  12.538
61144W        W27685  40.163  31.671   2.850
61145W        W27686  27.078  28.929  10.369
61146W        W27687  34.535  43.992   3.329
61147W        W27688  35.371  42.325   4.155
61148W        W27689  34.488  19.339  14.327
61149W        W27690  16.910  17.180   3.587
61150W        W27691  27.152  16.579   2.278
61151W        W27692  30.667  17.727   4.384
61152W        W27693  42.947   0.370   0.051
61153W        W27694   2.583  10.646  10.899
61154W        W27695  43.075  43.022  10.286
61155W        W27696  21.527  26.444  12.468
61156W        W27697  16.573  38.010   2.859
61157W        W27698  19.555  38.046   2.559
61158W        W27699  19.463  38.055  11.965
61159W        W27700  34.068  32.887   0.888
61160W        W27701   5.472  37.637  13.906
61161W        W27702  41.799  40.377  12.578
61162W        W27703  38.681  44.860   2.032
61163W        W27704  30.961  25.766   3.567
61164W        W27705  24.846   3.536  14.655
61165W        W27706  17.861  37.081  10.587
61166W        W27707   1.535  17.850   1.445
61167W        W27708  37.196  29.254  12.953
61168W        W27709   4.016  28.016  13.334
61169W        W27710  40.878   4.797  10.449
61170W        W27711  22.123   1.302   2.369
61171W        W27712  37.138  31.516  10.644
61172W        W27713  33.470  12.172   2.193
61173W        W27714  41.331   1.693  12.584
61174W        W27715  35.489  13.856   1.181
61175W        W27716  36.299   9.780   1.486
61176W        W27717  21.406  14.013  14.044
61177W        W27718  21.040  20.335  14.380
61178W        W27719   1.400  38.060  13.925
61179W        W27720  17.608  30.502   3.498
61180W        W27721   5.726  26.103   0.806
61181W        W27722  37.008  34.628   0.260
61182W        W27723  43.028  43.456   2.625
61183W        W27724  32.955  31.397  14.092
61184W        W27725  12.699  34.073  10.546
61185W        W27726  25.063  14.603  13.555
61186W        W27727  42.829  17.671  11.178
61187W        W27728  19.459  26.504   4.554
61188W        W27729  39.839  35.732   2.444
61189W        W27730  25.145  37.779  11.889
61190W        W27731  20.470  30.586  12.383
61191W        W27732  21.552  24.994   1.964
61192W        W27733  18.269   1.299   0.375
61193W        W27734  18.679  22.843  14.068
61194W        W27735  15.550  19.741   3.740
61195W        W27736  26.968   5.843  12.879
61196W        W27737   9.678  16.157  13.671
61197W        W27738  38.607  22.671  12.024
61198W        W27739  11.924  36.085  14.441
61199W        W27740  41.087   8.867   0.800
61200W        W27741  21.204  43.308  11.588
61201W        W27742  28.325  24.944  14.513
61202W        W27743   2.755  31.409   1.750
61203W        W27744  44.423   8.198  11.456
61204W        W27745  30.187   7.417  11.146
61205W        W27746   6.241  12.954   0.008
61206W        W27747  37.405  44.370  11.400
61207W        W27748  27.560   9.712   1.256
61208W        W27749  29.874  33.186  11.550
61209W        W27750  37.318   2.458   3.131
61210W        W27751  32.332  24.182  14.772
61211W        W27752  26.182  35.467  14.798
61212W        W27753  11.336   7.924  11.079
61213W        W27754  13.419  42.465  13.353
61214W        W27755  25.121  16.549  14.239
61215W        W27756  38.363  44.693   0.691
61216W        W27757  32.614  11.333  13.138
61217W        W27758  10.729   4.251   3.710
61218W        W27759   6.461  15.613  14.979
61219W        W27760  25.051   8.349   1.034
61220W        W27761  16.038  20.522   4.641
61221W        W27762  23.002   2.551   4.563
61222W        W27763  18.631  17.662   3.404
61223W        W27764  41.873  39.566   3.596
61224W        W27765  15.246   6.360  12.716
61225W        W27766  43.878  35.443   1.345
61226W        W27767  38.898  20.591   4.882
61227W        W27768  30.090  10.637   3.975
61228W        W27769   5.748  14.847   1.900
61229W        W27770  27.160  42.930   3.143
61230W        W27771  29.062   0.897  14.865
61231W        W27772   8.101  41.367  13.835
61232W        W27773  21.727  31.726   3.367
61233W        W27774  20.476  21.685   0.862
61234W        W27775  16.068  44.961   2.820
61235W        W27776  26.719  10.822   0.360
61236W        W27777  24.708  27.228  14.517
61237W        W27778  38.999  29.577   3.580
61238W        W27779   7.934   9.954   4.256
61239W        W27780  17.801   5.019  11.118
61240W        W27781  41.332  33.053   2.632
61241W        W27782  40.743  16.086  14.878
61242W        W27783  44.470  32.127   4.173
61243W        W27784  13.102  12.849   3.214
61244W        W27785  40.617  37.176   1.599
61245W        W27786  42.862  44.412  11.913
61246W        W27787   2.198  20.450  10.680
61247W        W27788  34.983  31.103  12.957
61248W        W27789  42.311  18.147   2.435
61249W        W27790   2.210  10.218  11.716
61250W        W27791  13.153  36.050  12.671
61251W        W27792   6.143  34.593  14.281
61252W        W27793  14.108  26.596   3.586
61253W        W27794  25.518  21.679  12.707
61254W        W27795  44.219   7.421  12.338
61255W        W27796  32.821  22.549   3.265
61256W        W27797   3.940   2.853   3.958
61257W        W27798   3.166  13.620   0.910
61258W        W27799  17.699   7.779   3.497
61259W        W27800  44.032   1.875  11.143
61260W        W27801   9.592  12.811   2.269
61261W        W27802   6.749  33.471   1.523
61262W        W27803  33.291  34.350  13.400
61263W        W27804   9.082   5.821   0.717
61264W        W27805  24.711  41.304   2.347
61265W        W27806  41.594  42.829   3.147
61266W        W27807  33.921  37.416   3.521
61267W        W27808  27.524   3.706   1.867
61268W        W27809  33.397  10.922  14.311
61269W        W27810   0.299   5.281   3.656
61270W        W27811  26.686  37.300   0.073
61271W        W27812  40.487  18.544  10.651
61272W        W27813  38.806  42.608  11.947
61273W        W27814  30.457   6.769  11.597
61274W        W27815   9.266  41.295  12.994
61275W        W27816  38.738  42.825   2.275
61276W        W27817  41.716  44.393  11.231
61277W        W27818  12.555  28.582   0.250
61278W        W27819  17.100  24.146   2.913
61279W        W27820  35.545   7.237  14.068
61280W        W27821  18.116  10.302  11.115
61281W        W27822  43.061   0.000  14.321
61282W        W27823  32.631  21.506   4.130
61283W        W27824  21.630  28.981  10.725
61284W        W27825  23.939   7.326  13.859
61285W        W27826  24.949   6.227   9.854
61286W        W27827  11.781  43.314   3.842
61287W        W27828  10.250   6.914   0.888
61288W        W27829   0.949  15.749  12.476
61289W        W27830  19.738   4.968  13.418
61290W        W27831  43.126   8.241   2.190
61291W        W27832  25.256  27.194   2.085
61292W        W27833  41.979   2.490  13.855
61293W        W27834  42.567  41.409  12.204
61294W        W27835  35.515  25.402   3.213
61295W        W27836  18.557  36.631   0.011
61296W        W27837  35.941  26.601  11.796
61297W        W27838  31.455  37.334  10.757
61298W        W27839  37.421  42.844   4.843
61299W        W27840  26.705  18.680   1.853
61300W        W27841  26.201  12.852  12.620
61301W        W27842  33.609  31.001  14.837
61302W        W27843  27.643   2.786  13.285
61303W        W27844  33.540  14.844   3.345
61304W        W27845  40.105  18.537  14.031
61305W        W27846  20.220  38.150   1.008
61306W        W27847   2.457  19.474  12.552
61307W        W27848  15.597  20.586   3.359
61308W        W27849  42.423  42.483  11.424
61309W        W27850  31.412  32.980   1.343
61310W        W27851  38.786  39.564   2.742
61311W        W27852  14.787  36.437  11.157
61312W        W27853  19.286  34.770  11.542
61313W        W27854   7.828  44.813   0.808
61314W        W27855  26.557  44.075   1.808
61315W        W27856  27.979   5.854  14.756
61316W        W27857   3.661  33.560  14.470
61317W        W27858  41.340  32.355   2.772
61318W        W27859  37.872   2.908   0.392
61319W        W27860  41.819  43.979   2.728
61320W        W27861  22.681  32.391  14.865
61321W        W27862  17.009   5.507  13.521
61322W        W27863  24.631  34.065  13.479
61323W        W27864   5.811  44.741  12.108
61324W        W27865   1.924  39.651  13.612
61325W        W27866  31.956   4.873   4.582
61326W        W27867  12.115  39.591  12.539
61327W        W27868  21.697   3.315   1.860
61328W        W27869  29.019   3.825  10.745
61329W        W27870  36.442  34.085  14.305
61330W        W27871  24.853  31.382   4.211
61331W        W27872  37.151   2.278   9.684
61332W        W27873  40.815  23.232   4.919
61333W        W27874  19.459  17.280  10.146
61334W        W27875  17.175  34.927  12.518
61335W        W27876   8.423  20.706   3.918
61336W        W27877  43.935   4.795  11.095
61337W        W27878  11.330  10.130   3.984
61338W        W27879   6.314   9.594  13.406
61339W        W27880  38.437   2.343   4.055
61340W        W27881  33.066  37.395  13.875
61341W        W27882  36.191  30.571  14.454
61342W        W27883  13.000  29.095   0.898
61343W        W27884  42.403  26.642   2.815
61344W        W27885  24.046  18.508  14.345
61345W        W27886  11.658   4.928   1.753
61346W        W27887  23.699  37.615   1.783
61347W        W27888  22.261  24.602   4.174
61348W        W27889  11.751  10.559   2.340
61349W        W27890  29.519  25.365   9.763
61350W        W27891  21.165  33.513   4.582
61351W        W27892  16.213  40.946   4.086
61352W        W27893  31.114  28.174  11.679
61353W        W27894  10.414   1.140  11.169
61354W        W27895  29.455   7.900   3.590
61355W        W27896   4.114  11.278  14.797
61356W        W27897  41.546   9.251   3.121
61357W        W27898  15.137   6.354  14.754
61358W        W27899  17.291  13.238   0.859
61359W        W27900  28.072  24.499   2.184
61360W        W27901  29.707  21.883   1.909
61361W        W27902  36.042  23.528   2.664
61362W        W27903   9.250  28.899  10.737
61363W        W27904  26.768  43.419  11.652
61364W        W27905  25.674  14.669   2.794
61365W        W27906   5.892  13.713   0.941
61366W        W27907  32.445  44.182  14.818
61367W        W27908  24.030  41.521   1.803
61368W        W27909  39.743  15.852   1.199
61369W        W27910  11.013  13.311   3.223
61370W        W27911  39.508  12.608   4.548
61371W        W27912  27.130  33.484   0.199
61372W        W27913  31.737  28.683   0.712
61373W        W27914  13.357  32.731   0.979
61374W        W27915  19.924  28.550   4.774
61375W        W27916  21.631  22.520   0.973
61376W        W27917  27.391  22.620  12.379
61377W        W27918  40.035  38.113   4.232
61378W        W27919  27.086   3.746   4.899
61379W        W27920  13.836  32.625  12.875
61380W        W27921  42.302  44.337   1.979
61381W        W27922  13.196  41.614   0.089
61382W        W27923  25.489  43.789  11.782
61383W        W27924   4.667  39.991  11.801
61384W        W27925   8.898   6.714   2.214
61385W        W27926   8.549   2.793   4.834
61386W        W27927  30.954  42.023   3.044
61387W        W27928  20.299  13.430  14.800
61388W        W27929  23.834  15.520   2.530
61389W        W27930  17.435  35.601   0.528
61390W        W27931   5.490   9.939  13.823
61391W        W27932   1.870   6.601   3.495
61392W        W27933  34.259  10.163   4.611
61393W        W27934  17.677   8.493  14.815
61394W        W27935   9.502  18.988  14.424
61395W        W27936   7.510  21.012  14.299
61396W        W27937  15.349  39.783  12.871
61397W        W27938  14.888   1.914   4.067
61398W        W27939   3.312   8.380   2.187
61399W        W27940   7.410   4.696  13.555
61400W        W27941  24.515   5.880  13.270
61401W        W27942  35.250  33.376   5.145
61402W        W27943  32.064  30.358  13.267
61403W        W27944  16.830  32.454  11.364
61404W        W27945  16.794  25.732   0.097
61405W        W27946  10.119  44.556  12.436
61406W        W27947  42.766  39.264   4.600
61407W        W27948   9.250  12.766   3.218
61408W        W27949   9.163   6.297   0.883
61409W        W27950  18.935   2.975  11.922
61410W        W27951  40.516   3.275  12.920
61411W        W27952  24.684  40.135  13.640
61412W        W27953   0.531  24.108  14.523
61413W        W27954   7.117   5.417   2.320
61414W        W27955  29.662   7.066   3.172
61415W        W27956  26.637   8.738   1.624
61416W        W27957  35.790  31.866   3.674
61417W        W27958   1.723  10.035   0.779
61418W        W27959  42.742   3.909  13.114
61419W        W27960  10.678  13.821  12.955
61420W        W27961  10.798  39.384   1.929
61421W        W27962  27.500  27.226   1.773
61422W        W27963  31.769  13.105  13.423
61423W        W27964  35.456  30.920  12.548
61424W        W27965  13.248  25.781  13.922
61425W        W27966  14.261  33.976   4.799
61426W        W27967  42.138  34.960  12.850
61427W        W27968  25.327   5.092   0.311
61428W        W27969  25.967  36.002  11.686
61429W        W27970   1.029  33.996  12.873
61430W        W27971  15.518  23.287   4.221
61431W        W27972  12.752  34.557   2.630
61432W        W27973   7.858  31.565  14.002
61433W        W27974  27.934  11.657   2.499
61434W        W27975  22.177  41.571   2.769
61435W        W27976  36.823   7.347   5.043
61436W        W27977  36.969  27.475   0.277
61437W        W27978  43.908  44.917  10.633
61438W        W27979  19.022  43.935  10.468
61439W        W27980  25.178  42.076  11.182
61440W        W27981   3.506  12.864  13.825
61441W        W27982  29.598  36.538  14.552
61442W        W27983   0.378  13.112   0.387
61443W        W27984   0.628  18.658  13.896
61444W        W27985  11.638  19.272   1.909
61445W        W27986  35.632  40.886   4.640
61446W        W27987  18.002   8.145   4.708
61447W        W27988  30.686  19.145  11.620
61448W        W27989  43.793  12.603  11.445
61449W        W27990   7.797  28.207   2.322
61450W        W27991  21.260  30.095   0.359
61451W        W27992  41.026  34.449   2.919
61452W        W27993  29.072  26.062  11.973
61453W        W27994  11.342  30.032  10.831
61454W        W27995  26.892  21.143   4.612
61455W        W27996  18.308  36.871  11.590
61456W        W27997   0.580  42.524  13.905
61457W        W27998  18.998  40.361   0.270
61458W        W27999  13.216  39.374   2.388
61459W        W28000  16.659  42.553  11.974
61460W        W28001  23.137   9.862   0.931
61461W        W28002  35.312  22.604   3.092
61462W        W28003  27.493  30.482   2.316
61463W        W28004   4.903  14.071  13.036
61464W        W28005  13.884  35.001  13.524
61465W        W28006   4.924  19.015   1.791
61466W        W28007  36.631  13.717   2.149
61467W        W28008  22.093  30.036   2.339
61468W        W28009  11.833  10.439  11.528
61469W        W28010  38.104  24.728  13.396
61470W        W28011  26.073   2.951   3.292
61471W        W28012  17.188  16.231  11.447
61472W        W28013  29.420  10.124   4.308
61473W        W28014  43.055  38.548   4.229
61474W        W28015  35.911  39.917   1.120
61475W        W28016  22.936   1.710   2.803
61476W        W28017   4.207  43.978   4.330
61477W        W28018  38.258   1.862   2.371
61478W        W28019  18.717  13.160   9.918
61479W        W28020  28.537   3.806   2.774
61480W        W28021  20.474  20.099  14.419
61481W        W28022  30.470  32.477  14.239
61482W        W28023  28.139  25.182  10.714
61483W        W28024   7.911   9.438  11.639
61484W        W28025  43.953  34.876   1.447
61485W        W28026  11.442  12.729  10.685
61486W        W28027  24.613   8.720   1.819
61487W        W28028  19.175  39.067   4.345
61488W        W28029  36.988  22.842   2.292
61489W        W28030   0.954  34.376   1.373
61490W        W28031  11.159  30.591   3.773
61491W        W28032  24.422  44.153   4.174
61492W        W28033  18.023  26.569   2.113
61493W        W28034  21.194   4.843  14.938
61494W        W28035  13.130  27.612   1.365
61495W        W28036  19.311  44.591  12.371
61496W        W28037  19.831  11.780   2.073
61497W        W28038   9.336  16.675  12.522
61498W        W28039  22.552  21.241   1.853
61499W        W28040  11.537  33.505  13.525
61500W        W28041  20.385  43.600  11.962
61501W        W28042   6.882  12.164  13.741
61502W        W28043  43.557  25.319   1.198
61503W        W28044   6.118  39.602   2.401
61504W        W28045  17.696  19.375  14.836
61505W        W28046   2.336  40.360  12.628
61506W        W28047  35.949  10.001   1.902
61507W        W28048  38.012  16.923  10.290
61508W        W28049  43.113  38.977   4.967
61509W        W28050  40.118  26.129  13.441
61510W        W28051  44.592  11.181   4.465
61511W        W28052  10.558  40.635  14.753
61512W        W28053   4.368  12.632   4.330
61513W        W28054  13.208   6.348  14.981
61514W        W28055  30.110  37.792   4.770
61515W        W28056   2.320  41.271   0.423
61516W        W28057  39.842  16.838   3.686
61517W        W28058  44.521   2.421  12.030
61518W        W28059  36.873  34.902  14.767
61519W        W28060  21.817  21.777   3.981
61520W        W28061  35.946   2.025  10.176
61521W        W28062   7.721  40.469  14.905
61522W        W28063   3.877  32.446  12.087
61523W        W28064   0.910  42.647   4.185
61524W        W28065   3.170  22.462  12.849
61525W        W28066   6.349  10.124  13.403
61526W        W28067   8.712  39.961  12.006
61527W        W28068  41.898  39.421   2.357
61528W        W28069   6.289  20.442  13.838
61529W        W28070   7.900   9.423   4.242
61530W        W28071  15.146  16.720  14.737
61531W        W28072   6.388  25.209   3.257
61532W        W28073  26.447  33.136   1.505
61533W        W28074  35.726   3.527   4.540
61534W        W28075  15.044  25.735  13.891
61535W        W28076  35.980  20.037  13.970
61536W        W28077   5.425  35.508   2.611
61537W        W28078  20.010  12.244  13.440
61538W        W28079  11.172  37.278  12.888
61539W        W28080   0.840  14.122   5.060
61540W        W28081  39.608   1.814   4.588
61541W        W28082   2.512  40.343   0.221
61542W        W28083  14.198  11.488   4.781
61543W        W28084  43.394   7.279   3.386
61544W        W28085   5.218  13.775  14.717
61545W        W28086  13.671  44.241   3.860
61546W        W28087  21.991   7.962   2.441
61547W        W28088   6.620  44.700  11.641
61548W        W28089  42.146  11.545  14.826
61549W        W28090  33.361  13.255  11.668
61550W        W28091  26.143  42.525   0.262
61551W        W28092  25.017  31.135   1.425
61552W        W28093   0.033  13.231   2.308
61553W        W28094  21.487  43.358  11.139
61554W        W28095  27.941  13.985   2.713
61555W        W28096  21.768  22.230  14.742
61556W        W28097   3.479  40.415  11.591
61557W        W28098  38.520  37.870   2.352
61558W        W28099  13.035  15.840  10.552
61559W        W28100  10.149   9.799  10.782
61560W        W28101  30.471   2.500  14.485
61561W        W28102  15.467  36.432   3.258
61562W        W28103  32.173  38.127   2.757
61563W        W28104  42.735  29.327  11.105
61564W        W28105  29.703  20.100   3.329
61565W        W28106  31.469   1.438   3.771
61566W        W28107   2.918  29.944  11.145
61567W        W28108  22.528  43.480   1.807
61568W        W28109  24.097  18.637  11.978
61569W        W28110  13.016  13.258  11.167
61570W        W28111  37.888  13.274  13.934
61571W        W28112  34.903   2.536   3.602
61572W        W28113  10.237  20.462  13.276
61573W        W28114  32.645   9.482   2.931
61574W        W28115  21.719  11.121  11.032
61575W        W28116  32.424  38.395  11.184
61576W        W28117  11.769  27.216   1.355
61577W        W28118  10.655  29.983  12.593
61578W        W28119  31.839  26.112  13.599
61579W        W28120  12.726  21.970   3.784
61580W        W28121   3.027  39.242  10.994
61581W        W28122  35.387  44.850   2.922
61582W        W28123  26.593   9.212  11.330
61583W        W28124  41.105  29.257  11.071
61584W        W28125  42.791  31.881   1.293
61585W        W28126  29.808  14.031   3.875
61586W        W28127  20.595  33.920  11.920
61587W        W28128   5.282  14.894  11.961
61588W        W28129  41.105   8.075   2.708
61589W        W28130  15.110   3.302  10.520
61590W        W28131   9.975  41.425   1.119
61591W        W28132  33.506  21.394  14.270
61592W        W28133   0.849  27.640   1.399
61593W        W28134  14.854  14.091  13.050
61594W        W28135  30.282  26.224   2.421
61595W        W28136  31.604  15.529  13.443
61596W        W28137   8.297  13.481  14.576
61597W        W28138  44.229   8.584   9.922
61598W        W28139  18.848  33.460   3.979
61599W        W28140  12.147   6.254  11.521
61600W        W28141  27.603  41.402  11.516
61601W        W28142  28.093  28.479  14.414
61602W        W28143   0.714  10.334  14.669
61603W        W28144  40.102  13.840   2.335
61604W        W28145   5.492  36.372   2.683
61605W        W28146  13.343  28.937  11.107
61606W        W28147  25.471  18.847  14.010
61607W        W28148   6.114  11.057   0.260
61608W        W28149  35.386  31.485  13.414
61609W        W28150  14.401   5.767   1.362
61610W        W28151  11.661  22.260   1.003
61611W        W28152  32.025   3.756  14.394
61612W        W28153  10.918  29.259   2.090
61613W        W28154   1.784   1.758  12.490
61614W        W28155   5.982  21.017   0.135
61615W        W28156  35.918  20.987   1.816
61616W        W28157  41.759  14.770   3.086
61617W        W28158  36.307  13.860   2.940
61618W        W28159  25.215   3.361  11.493
61619W        W28160  30.475   3.298   3.694
61620W        W28161  16.078  16.624  13.763
61621W        W28162  16.036  12.234  12.640
61622W        W28163  23.746  23.022   4.636
61623W        W28164  23.191  31.551   4.307
61624W        W28165   3.818  11.646  12.056
61625W        W28166  30.094  33.597   3.155
61626W        W28167  18.775  17.740  13.911
61627W        W28168  25.953  32.369  13.578
61628W        W28169   0.764  19.316  14.515
61629W        W28170  25.098  20.154  13.134
61630W        W28171   5.290   7.686  14.389
61631W        W28172  32.534  43.627   2.674
61632W        W28173  26.105  35.130  12.512
61633W        W28174   0.013  26.176   2.876
61634W        W28175  39.678  16.335   3.612
61635W        W28176  33.949  35.060   1.601
61636W        W28177  12.457  34.838   3.075
61637W        W28178   6.387  39.770   2.943
61638W        W28179   5.671  13.356  13.271
61639W        W28180  43.276  32.466  14.950
61640W        W28181   9.423  37.965   2.652
61641W        W28182  44.521  27.183  14.422
61642W        W28183  40.426  39.289  12.604
61643W        W28184  26.146   1.304  11.213
61644W        W28185  15.105  26.654  14.323
61645W        W28186  36.325  25.742  11.155
61646W        W28187   9.964  17.548   2.268
61647W        W28188  44.022   6.806   0.260
61648W        W28189   3.671  14.772   3.707
61649W        W28190  31.860  23.204  13.844
61650W        W28191   0.190   5.483   4.816
61651W        W28192  10.352   0.092   3.282
61652W        W28193  44.508  44.723   3.723
61653W        W28194   4.635  21.731  13.243
61654W        W28195  26.938  33.984  13.424
61655W        W28196  22.366  22.983  13.060
61656W        W28197   2.942  44.018  11.037
61657W        W28198  24.675  44.294  13.490
61658W        W28199  36.657   6.826   5.108
61659W        W28200  25.551  19.230  14.691
61660W        W28201   5.016   8.681  14.312
61661W        W28202  44.012  11.343   1.767
61662W        W28203  11.412  41.304   2.254
61663W        W28204  19.152  10.143   2.789
61664W        W28205   5.957   5.980   4.584
61665W        W28206  22.201  36.119  11.681
61666W        W28207  42.532   3.367   4.695
61667W        W28208   5.749  34.277  14.307
61668W        W28209  13.896   8.626  11.531
61669W        W28210  20.769  42.028  11.121
61670W        W28211  26.457   1.193  12.090
61671W        W28212  21.589  15.030   1.372
61672W        W28213  10.909   6.591  11.127
61673W        W28214  43.431   6.554  14.477
61674W        W28215  14.380  34.832  10.671
61675W        W28216  10.031  38.223   5.402
61676W        W28217  13.096  42.533  12.131
61677W        W28218  39.301  17.107  10.563
61678W        W28219  16.391  10.692  12.134
61679W        W28220  43.827  33.185  12.122
61680W        W28221  28.016   6.026   2.403
61681W        W28222  26.573  38.507   4.724
61682W        W28223  15.217  14.554  13.603
61683W        W28224  40.119  15.082   4.084
61684W        W28225  27.500  24.832   3.274
61685W        W28226   1.712  23.631  10.172
61686W        W28227  27.428   0.132  14.659
61687W        W28228  31.621  29.690  14.059
61688W        W28229  42.808  16.119  14.342
61689W        W28230  37.207  13.065   3.851
61690W        W28231  33.318  26.740   4.166
61691W        W28232   9.815  10.136  13.929
61692W        W28233  33.021  19.108   4.705
61693W        W28234  44.402  21.333  10.602
61694W        W28235  24.216  29.647  12.574
61695W        W28236   0.940  24.580   0.683
61696W        W28237  32.423  28.007   2.700
61697W        W28238  39.271  29.474   2.346
61698W        W28239  19.123   3.037  13.516
61699W        W28240  42.421  39.196  11.094
61700W        W28241  23.542   6.359   1.493
61701W        W28242  42.808  13.174   1.233
61702W        W28243  10.298  20.104  13.686
61703W        W28244  44.961  30.840   1.170
61704W        W28245   6.518   0.952  11.089
61705W        W28246  23.515   7.473  12.972
61706W        W28247  16.124  11.841  12.983
61707W        W28248  33.442   9.534  11.210
61708W        W28249  20.806  11.723   1.805
61709W        W28250  10.044  39.885   4.553
61710W        W28251  37.245  22.149   2.117
61711W        W28252  38.082  43.512  14.299
61712W        W28253  15.233  41.335  11.091
61713W        W28254   0.434  10.205   3.668
61714W        W28255  21.494  19.200   0.374
61715W        W28256  37.855  17.623  13.983
61716W        W28257  42.512   8.188  14.522
61717W        W28258  43.113  21.431  10.104
61718W        W28259  19.409   1.252  12.165
61719W        W28260   1.328   5.660   4.266
61720W        W28261   4.627  22.340   4.971
61721W        W28262  17.118  13.297   2.299
61722W        W28263  42.415  19.538   4.182
61723W        W28264  37.508  19.725  12.131
61724W        W28265   4.632  10.244   1.508
61725W        W28266  40.921   2.285   4.031
61726W        W28267  17.053  14.338  11.995
61727W        W28268   1.990  40.981  14.645
61728W        W28269   2.753  38.414   0.882
61729W        W28270   9.218  42.608   4.184
61730W        W28271  25.618  41.747  12.001
61731W        W28272   1.592  21.365   5.110
61732W        W28273  24.557  20.246   2.892
61733W        W28274  32.898  32.043  11.935
61734W        W28275  20.071  17.827   4.567
61735W        W28276  35.358   8.080   2.398
61736W        W28277  37.652  17.551  11.024
61737W        W28278  30.821  42.381   2.471
61738W        W28279  21.530  40.992   4.297
61739W        W28280   1.346  17.967  12.016
61740W        W28281  25.677  23.146  11.071
61741W        W28282  22.203  30.380  12.897
61742W        W28283  39.507  36.079  10.550
61743W        W28284  42.954  19.934  12.195
61744W        W28285  30.927  32.802   1.394
61745W        W28286  23.759  28.026   3.803
61746W        W28287  24.764  16.602  11.569
61747W        W28288  24.760  25.077   3.701
61748W        W28289   2.550   1.435  14.404
61749W        W28290   9.243  11.354   0.258
61750W        W28291   6.288  19.922   3.310
61751W        W28292  22.436   7.170  14.930
61752W        W28293  28.388   3.983   3.708
61753W        W28294   9.602  35.632  14.511
61754W        W28295  31.532   0.157   4.949
61755W        W28296  17.607  39.902  13.415
61756W        W28297  27.580  29.479   1.915
61757W        W28298  29.338  27.383   2.550
61758W        W28299  35.965  25.028  12.828
61759W        W28300  41.828  12.148  10.873
61760W        W28301  18.773  43.038  13.101
61761W        W28302   9.852  21.291   3.153
61762W        W28303  43.298  11.360  14.426
61763W        W28304   3.509  37.961  11.506
61764W        W28305  37.394  33.561   0.896
61765W        W28306  29.898  17.570   2.862
61766W        W28307  27.047  25.711  12.966
61767W        W28308  17.338  36.118   0.393
61768W        W28309  35.596  26.601   1.801
61769W        W28310  16.373  43.608  11.429
61770W        W28311  24.950  43.882  13.346
61771W        W28312   3.277  39.941   2.182
61772W        W28313   9.366  38.480   2.727
61773W        W28314  22.694  20.545   2.606
61774W        W28315  34.020  15.904  14.404
61775W        W28316  28.451  16.786  14.900
61776W        W28317  32.179   7.348   1.666
61777W        W28318  25.253  20.742  11.446
61778W        W28319  35.546   6.691  13.884
61779W        W28320   7.800  26.691  10.503
61780W        W28321   7.987  41.429   1.374
61781W        W28322   1.833  26.054   5.399
61782W        W28323  36.903  42.471  11.264
61783W        W28324   5.969  27.949   2.292
61784W        W28325  21.022   7.135   0.506
61785W        W28326  25.691  30.868  10.175
61786W        W28327  11.572   0.450  11.070
61787W        W28328  20.630  42.975  12.083
61788W        W28329   7.946  20.262  14.802
61789W        W28330  27.111  22.233  13.420
61790W        W28331  26.635  44.256  11.730
61791W        W28332  35.099  22.758  10.292
61792W        W28333  11.750  34.207   4.063
61793W        W28334  24.727   8.637  13.500
61794W        W28335  17.637   1.750  11.661
61795W        W28336   7.316  19.627  11.159
61796W        W28337  44.230  26.476   0.425
61797W        W28338  41.265   8.347   3.133
61798W        W28339  15.707  17.940  14.309
61799W        W28340  44.859   9.724  12.009
61800W        W28341  40.443  19.487   1.186
61801W        W28342  43.665  23.245  11.602
61802W        W28343  20.125  37.363   3.823
61803W        W28344  38.305  20.850   2.936
61804W        W28345  26.898  20.043  12.187
61805W        W28346  36.475  27.359   0.400
61806W        W28347  11.666  14.864   1.945
61807W        W28348  34.069  12.759  14.722
61808W        W28349   2.852  17.569  14.697
61809W        W28350  22.433  35.482  13.190
61810W        W28351  37.949  27.941  10.818
61811W        W28352   4.853  20.392  13.610
61812W        W28353  41.825  16.737   3.333
61813W        W28354  30.683  11.818  12.939
61814W        W28355   0.302  27.622  13.343
61815W        W28356   3.099  21.053   0.870
61816W        W28357  38.789  44.417   0.489
61817W        W28358  12.868  39.047  10.980
61818W        W28359  20.506   8.777   4.948
61819W        W28360  31.360   4.452   2.048
61820W        W28361  31.046  33.370  10.343
61821W        W28362  31.068   1.999   1.494
61822W        W28363   1.841  38.473   0.377
61823W        W28364  17.467  42.488   1.388
61824W        W28365  10.728   7.126  13.042
61825W        W28366  31.335  25.737   1.824
61826W        W28367   0.819  10.963   3.888
61827W        W28368  39.115   6.742   4.360
61828W        W28369  40.538   5.147  13.619
61829W        W28370  27.138  32.558   0.633
61830W        W28371   8.183   7.495   4.125
61831W        W28372   2.111  21.971   1.182
61832W        W28373  23.069  11.831  12.823
61833W        W28374  15.602  12.238   0.857
61834W        W28375   5.530  37.046   4.787
61835W        W28376  10.601  30.490  11.557
61836W        W28377  31.933   3.459   5.007
61837W        W28378   0.371   6.758  11.462
61838W        W28379  11.375   2.773   4.182
61839W        W28380  34.826   9.209  14.738
61840W        W28381  38.599  21.448   1.754
61841W        W28382  27.398  39.004   4.355
61842W        W28383  28.874  35.801   2.141
61843W        W28384   9.731  35.312   4.760
61844W        W28385  31.006   9.454   0.712
61845W        W28386  29.608  29.416   0.263
61846W        W28387   4.967  34.547   1.895
61847W        W28388   5.100  42.529  10.515
61848W        W28389  28.200  14.952   9.932
61849W        W28390  21.625  19.247  11.984
61850W        W28391  31.026  42.563  14.418
61851W        W28392  34.113  43.870   4.611
61852W        W28393  42.192   6.810   4.163
61853W        W28394  24.924  14.234  14.284
61854W        W28395  33.721  37.532   3.997
61855W        W28396  11.404  29.644  11.601
61856W        W28397  31.758  26.202   0.034
61857W        W28398   0.982  42.211   0.706
61858W        W28399  32.023  12.225   2.424
61859W        W28400  28.899  41.032  10.708
61860W        W28401  25.974   4.349   4.250
61861W        W28402  17.015  13.633   2.692
61862W        W28403  28.776  15.633   2.804
61863W        W28404  13.122  35.932   4.629
61864W        W28405  14.077  40.454   1.117
61865W        W28406  24.510  22.792   2.704
61866W        W28407  26.511  44.523  14.525
61867W        W28408  30.210  30.889   0.323
61868W        W28409  12.892  25.912  11.047
61869W        W28410  19.089  39.768  13.779
61870W        W28411  44.807  40.567  12.126
61871W        W28412  27.103  41.999   1.344
61872W        W28413   3.105  11.566  12.589
61873W        W28414  34.546  30.633   2.199
61874W        W28415   8.301   5.324  13.838
61875W        W28416  30.960  37.606   1.799
61876W        W28417  24.572  41.520   3.394
61877W        W28418  14.005  23.171   3.229
61878W        W28419  23.164  35.920  12.183
61879W        W28420   0.263  34.374   2.155
61880W        W28421  40.340  34.621   3.220
61881W        W28422  20.715  41.394   4.747
61882W        W28423  35.596  23.240  14.012
61883W        W28424  32.910  18.584  14.307
61884W        W28425  29.540  23.729   2.341
61885W        W28426   6.370  11.219  14.347
61886W        W28427  42.322  31.605   3.848
61887W        W28428   3.007  36.023  12.479
61888W        W28429  23.298  35.487  13.445
61889W        W28430  21.539   7.302   1.918
61890W        W28431  17.182  25.639  12.410
61891W        W28432  38.949   3.807  12.438
61892W        W28433   2.512  11.735   2.692
61893W        W28434  39.551  41.979  11.978
61894W        W28435  14.134   7.829   0.452
61895W        W28436  41.889   7.479   1.766
61896W        W28437   4.931  18.808   5.175
61897W        W28438  40.305  29.089   4.565
61898W        W28439   9.313  32.130   3.710
61899W        W28440  19.521   3.706   2.776
61900W        W28441  27.611  34.427  14.188
61901W        W28442  42.931  22.214   3.166
61902W        W28443  34.862   0.468  10.196
61903W        W28444  25.241  43.528  14.855
61904W        W28445  29.101  32.345   3.566
61905W        W28446   7.111  39.141  12.111
61906W        W28447  20.044  22.936   2.569
61907W        W28448   6.450   7.175   4.111
61908W        W28449  23.545   1.808  12.601
61909W        W28450  33.722   9.711   0.963
61910W        W28451   2.700  11.775  14.294
61911W        W28452  22.215  35.429   1.298
61912W        W28453  18.668  29.619  13.881
61913W        W28454  37.942  13.290   5.002
61914W        W28455  44.340  35.575  13.219
61915W        W28456  19.779  15.645   2.440
61916W        W28457   4.574  11.442   1.711
61917W        W28458  12.859  19.318  11.056
61918W        W28459  41.942  16.225   0.355
61919W        W28460  34.050  11.096  14.853
61920W        W28461  33.072   5.613   3.087
61921W        W28462  23.041   1.432  14.891
61922W        W28463  27.155  44.510   2.413
61923W        W28464   6.768   0.360   0.472
61924W        W28465  21.317  18.847  13.031
61925W        W28466  12.837   9.240  13.118
61926W        W28467  32.402  23.158  13.061
61927W        W28468  36.851  34.910  13.888
61928W        W28469  11.810  40.026  13.783
61929W        W28470  13.622  22.628  11.973
61930W        W28471  26.615   0.259  11.729
61931W        W28472   7.805  14.275   2.789
61932W        W28473  39.419  38.523  13.975
61933W        W28474  43.611  26.015   2.807
61934W        W28475  33.439  20.359   4.306
61935W        W28476  17.009   2.040  14.984
61936W        W28477  35.986   2.889   0.141
61937W        W28478  14.842   3.410   0.786
61938W        W28479  22.971  14.656  14.846
61939W        W28480   1.015  31.626  14.298
61940W        W28481  36.052  34.145   0.271
61941W        W28482  22.954  17.343   4.183
61942W        W28483  16.538  41.986  14.801
61943W        W28484  35.374  38.533   2.378
61944W        W28485  11.870  40.012   3.630
61945W        W28486  14.812  39.811   4.055
61946W        W28487  44.001  30.246   1.434
61947W        W28488   0.003   5.699   0.902
61948W        W28489  19.185  17.110  14.246
61949W        W28490  32.019  44.950  10.574
61950W        W28491  18.529  13.716  14.602
61951W        W28492  19.160  30.620  13.810
61952W        W28493  16.436  36.607  11.619
61953W        W28494  20.523   6.306   9.737
61954W        W28495   9.310  32.425   0.216
61955W        W28496   1.230   1.813   3.192
61956W        W28497   7.854  35.923  10.565
61957W        W28498  40.825  25.248   2.260
61958W        W28499   4.358   1.207  11.998
61959W        W28500  15.756   0.255   0.841
61960W        W28501  43.206  31.533   3.852
61961W        W28502  11.391  27.705   4.727
61962W        W28503  19.026   0.684   2.843
61963W        W28504   5.278  13.709   0.241
61964W        W28505  15.105  43.788   4.575
61965W        W28506   4.441   3.995   5.565
61966W        W28507  25.806  33.696   0.938
61967W        W28508  21.850  22.154  11.726
61968W        W28509   6.890  36.263  14.154
61969W        W28510   4.810  38.970   3.832
61970W        W28511  33.640  26.589  13.977
61971W        W28512  33.338  19.482   4.837
61972W        W28513   2.205  34.004   4.551
61973W        W28514  16.649  15.151  13.510
61974W        W28515  14.265  16.974  14.802
61975W        W28516   0.909  29.211  13.804
61976W        W28517  21.647  28.640   0.028
61977W        W28518  42.414  19.508   0.345
61978W        W28519  28.949   0.777  10.624
61979W        W28520   8.837  35.660   3.633
61980W        W28521  14.063  19.256   0.266
61981W        W28522  39.839   3.978  12.392
61982W        W28523  21.531  21.189   4.110
61983W        W28524  30.085  43.275  11.245
61984W        W28525  39.016  29.597  10.287
61985W        W28526  15.782  42.975   1.417
61986W        W28527  21.990   4.789  11.994
61987W        W28528  43.077   4.021   0.819
61988W        W28529   5.639  31.129   2.282
61989W        W28530   1.497   9.928  11.172
61990W        W28531  24.025  15.213   3.665
61991W        W28532   3.809  13.805  14.937
61992W        W28533  34.047  22.077  10.983
61993W        W28534   3.638  29.441  11.311
61994W        W28535  19.487   2.388  14.760
61995W        W28536  31.686  18.630   0.381
61996W        W28537  38.770  10.628   3.740
61997W        W28538  29.497  31.963  11.782
61998W        W28539   0.277  27.650   2.196
61999W        W28540   5.707  25.462  13.586
62000W        W28541  40.454   4.449  13.041
62001W        W28542  32.700  36.272  11.126
62002W        W28543  10.266  17.522   2.712
62003W        W28544  35.943  42.750  12.038
62004W        W28545   0.558  31.909  14.385
62005W        W28546  42.042  19.052  13.839
62006W        W28547   1.454  11.592   0.403
62007W        W28548  11.817  18.944   2.256
62008W        W28549  34.033   1.130   5.454
62009W        W28550  17.168   6.032   5.061
62010W        W28551  32.546  21.275  12.815
62011W        W28552  16.052  27.169   4.630
62012W        W28553   0.448  14.329  10.944
62013W        W28554   9.525   3.206   9.949
62014W        W28555  28.971   7.395  13.749
62015W        W28556   0.752  14.075   3.149
62016W        W28557  23.968  24.414  13.846
62017W        W28558  40.511  20.804   0.563
62018W        W28559  28.179  38.631  14.816
62019W        W28560  34.863  20.668   0.966
62020W        W28561   2.424   7.175   1.702
62021W        W28562  23.452  10.749  12.041
62022W        W28563  29.369  38.830   5.334
62023W        W28564  43.046  44.493  12.385
62024W        W28565  34.324  38.825   0.471
62025W        W28566  29.631  37.373  10.878
62026W        W28567  10.180  16.119  13.443
62027W        W28568  44.256  10.880   4.219
62028W        W28569  19.199   9.704   0.282
62029W        W28570  35.742   6.728   3.830
62030W        W28571   2.813  38.942   3.648
62031W        W28572  32.055   0.506   1.500
62032W        W28573   5.951  22.509  14.376
62033W        W28574  28.195  44.433   2.480
62034W        W28575  17.548  23.998   4.307
62035W        W28576   7.632  30.042  12.324
62036W        W28577  36.467  24.506  10.497
62037W        W28578   5.212  43.061   4.852
62038W        W28579  41.022  44.934  11.501
62039W        W28580   2.725  32.003   3.270
62040W        W28581  10.333  13.047   0.255
62041W        W28582   9.233  36.602  13.106
62042W        W28583  36.182  23.634   4.051
62043W        W28584  29.961  21.670  14.274
62044W        W28585  20.654  34.039  14.720
62045W        W28586  27.433  25.994  11.728
62046W        W28587  44.747  11.192  11.618
62047W        W28588  37.552   9.876  11.572
62048W        W28589  16.652  44.236   3.885
62049W        W28590   0.347  11.185  11.910
62050W        W28591  25.736  26.301  13.077
62051W        W28592  13.653   2.261   3.639
62052W        W28593  24.487   2.330   0.960
62053W        W28594  11.388  28.556   1.626
62054W        W28595  34.929  30.574   4.700
62055W        W28596  31.979   5.232  10.229
62056W        W28597  31.928  14.084   2.416
62057W        W28598  28.166  42.294  11.576
62058W        W28599  15.393  14.613   3.083
62059W        W28600   3.720  42.746   4.532
62060W        W28601  33.951   2.908  13.993
62061W        W28602  32.724  14.780   3.970
62062W        W28603   8.658  28.743  11.973
62063W        W28604  42.179  22.249  13.403
62064W        W28605   4.685  41.961  11.431
62065W        W28606  27.982  35.848  10.816
62066W        W28607  13.081  20.159  10.627
62067W        W28608  24.982  32.688  14.374
62068W        W28609  33.681  37.241  11.241
62069W        W28610   3.727  17.527   3.054
62070W        W28611  36.113  32.288   1.224
62071W        W28612   3.426  36.551   1.899
62072W        W28613  39.218  12.203   4.699
62073W        W28614  24.487   1.879   4.933
62074W        W28615  42.380  43.909  13.123
62075W        W28616  23.569  22.243   1.038
62076W        W28617  32.088  39.368  14.349
62077W        W28618   6.845  24.700   5.280
62078W        W28619  41.960  39.972   1.614
62079W        W28620  16.773   3.359   1.305
62080W        W28621   8.606  15.863   4.678
62081W        W28622  18.597  40.209  12.112
62082W        W28623   2.618  26.267  13.603
62083W        W28624   3.003  24.568   0.429
62084W        W28625  28.574   9.169  13.437
62085W        W28626  17.329   5.780   1.627
62086W        W28627  11.166  43.953  14.433
62087W        W28628  26.888  14.658   3.225
62088W        W28629  38.073  37.787   4.206
62089W        W28630  18.244  32.937  10.419
62090W        W28631  22.947  31.588   2.346
62091W        W28632  20.133  31.678   4.105
62092W        W28633   1.797  10.386  11.131
62093W        W28634  25.417   3.246   4.487
62094W        W28635  23.614  33.811   3.379
62095W        W28636   5.765  40.865  14.259
62096W        W28637   4.248  15.895  13.008
62097W        W28638  40.924  34.156   0.420
62098W        W28639  14.355   3.747   2.191
62099W        W28640  21.647  25.719  11.726
62100W        W28641   5.060  21.904  13.633
62101W        W28642  22.305  29.056   3.150
62102W        W28643  37.056  12.602  11.748
62103W        W28644   2.394  40.337   2.605
62104W        W28645  18.753   6.849   3.763
62105W        W28646   6.393   3.975  10.622
62106W        W28647  25.804  29.928   0.892
62107W        W28648  25.067  18.089   2.112
62108W        W28649  33.069  28.531  12.889
62109W        W28650  22.535   3.147   0.493
62110W        W28651  21.839   7.655  13.429
62111W        W28652   0.404  17.581   2.322
62112W        W28653  40.975   9.680   1.385
62113W        W28654  14.861  28.625  11.185
62114W        W28655  30.501  14.897   3.172
62115W        W28656  21.150  25.157   4.599
62116W        W28657   6.368   8.758   3.929
62117W        W28658  24.217  34.379   0.915
62118W        W28659  16.304  34.588   2.599
62119W        W28660   4.709  28.399  11.755
62120W        W28661   2.110  29.999   4.502
62121W        W28662  39.554  28.449   3.280
62122W        W28663   0.834  37.334   0.395
62123W        W28664  23.504  14.766  10.626
62124W        W28665  43.947   3.831   0.707
62125W        W28666  26.626  24.520   0.892
62126W        W28667  25.920  16.668  12.672
62127W        W28668  21.998   0.019  13.081
62128W        W28669  29.651   6.544   1.211
62129W        W28670   7.346  16.743  11.150
62130W        W28671  26.070  36.130   4.431
62131W        W28672  21.533  35.572  10.613
62132W        W28673  27.581  16.251   2.267
62133W        W28674  40.994  29.117  12.829
62134W        W28675   3.039  28.271   1.197
62135W        W28676  30.749   6.472  11.294
62136W        W28677  15.959  18.382  12.552
62137W        W28678  20.865   8.282  11.748
62138W        W28679  30.338  26.012   0.545
62139W        W28680  23.513  19.762   2.725
62140W        W28681  33.643  12.928  10.672
62141W        W28682  10.381  37.632   4.525
62142W        W28683  14.714  28.354  10.759
62143W        W28684  34.530  41.815  12.145
62144W        W28685  40.589  10.723   2.229
62145W        W28686  36.143  37.967  11.111
62146W        W28687  16.147  38.637  12.593
62147W        W28688  31.241  27.939   0.459
62148W        W28689  33.048   6.786  14.150
62149W        W28690  27.492   8.382   1.761
62150W        W28691  17.653   7.052  11.122
62151W        W28692  29.957   2.675   1.184
62152W        W28693  10.629  11.377  11.517
62153W        W28694   6.359   5.024   3.075
62154W        W28695  19.302  28.131   4.671
62155W        W28696  20.820  22.784   2.737
62156W        W28697   6.684  42.631  13.829
62157W        W28698   6.299  21.676   0.733
62158W        W28699   2.452  23.611  11.190
62159W        W28700  44.628  40.791   1.672
62160W        W28701  39.291  10.442   2.387
62161W        W28702  12.637  17.165  13.239
62162W        W28703  25.897  16.115   2.311
62163W        W28704  26.233  35.713   2.386
62164W        W28705   0.050  21.375  13.610
62165W        W28706  27.646  19.293  10.716
62166W        W28707  35.185  29.552  14.428
62167W        W28708  16.892  12.763  11.108
62168W        W28709  22.738  29.355  12.529
62169W        W28710   5.860   7.885  11.001
62170W        W28711  30.560   6.266  12.824
62171W        W28712  17.021  42.769   1.061
62172W        W28713  36.028  34.067  12.573
62173W        W28714  21.642  18.133  11.530
62174W        W28715  36.277  37.683  12.931
62175W        W28716  25.430   9.227  12.929
62176W        W28717   4.098  28.525  11.169
62177W        W28718  36.242  34.468  13.548
62178W        W28719  31.643  41.294   3.773
62179W        W28720  39.534  11.844  11.113
62180W        W28721  36.851  24.130   3.690
62181W        W28722  37.994  44.420   3.408
62182W        W28723  37.060  22.752  11.109
62183W        W28724  38.586  39.444  14.805
62184W        W28725   4.495  18.731  13.826
62185W        W28726  14.623  22.738   2.776
62186W        W28727  24.960  20.400   0.973
62187W        W28728  43.881   2.216  10.788
62188W        W28729  26.105  43.523   0.335
62189W        W28730  23.781  17.947  14.270
62190W        W28731  11.878  12.075  13.428
62191W        W28732  10.483  15.097  13.462
62192W        W28733  10.312  16.225   3.552
62193W        W28734  22.607  37.952  13.842
62194W        W28735  24.551  30.398  13.974
62195W        W28736   5.438  30.835   9.607
62196W        W28737  30.015  24.433   1.336
62197W        W28738  10.746  27.176   1.296
62198W        W28739  16.177  27.714   4.590
62199W        W28740   0.723  33.138   4.234
62200W        W28741   5.975   4.309  10.587
62201W        W28742   5.316  31.945  14.082
62202W        W28743  33.544  16.261   1.150
62203W        W28744  13.645  16.987   3.323
62204W        W28745  11.805  19.462   2.354
62205W        W28746   5.270  32.663  11.366
62206W        W28747  17.179  28.616   1.330
62207W        W28748  27.078  16.015  12.667
62208W        W28749  24.970  27.184   4.670
62209W        W28750  38.867   5.329  14.009
62210W        W28751  43.421  20.788   0.226
62211W        W28752  37.455  28.210  13.974
62212W        W28753  12.624   1.655   2.461
62213W        W28754   5.694  38.978  13.402
62214W        W28755  30.589  29.072  11.211
62215W        W28756  26.563  14.314  14.253
62216W        W28757  27.114  38.201  14.671
62217W        W28758   6.736  37.573   3.341
62218W        W28759   5.173  27.280   3.718
62219W        W28760  36.259  29.084   2.355
62220W        W28761  12.209  44.522  12.832
62221W        W28762  44.560  41.789   0.363
62222W        W28763  43.890  27.639  14.643
62223W        W28764  13.993  18.612  11.711
62224W        W28765  24.754  23.511  14.746
62225W        W28766   4.316  17.969   1.187
62226W        W28767   8.090   3.123  11.171
62227W        W28768  28.533   3.937  14.030
62228W        W28769  31.030  24.300   3.766
62229W        W28770  39.320  25.685  10.941
62230W        W28771   3.285   8.947  12.889
62231W        W28772  44.378  11.148  12.896
62232W        W28773  21.380  39.991   2.261
62233W        W28774  39.926  26.126   2.155
62234W        W28775  19.721   7.380   4.779
62235W        W28776  39.043   9.654   3.343
62236W        W28777  39.889   4.389   0.201
62237W        W28778  23.581  11.337   2.343
62238W        W28779  32.216  26.103  10.736
62239W        W28780   7.603  34.924  12.895
62240W        W28781   2.342  19.240  13.348
62241W        W28782  23.986  31.594  14.002
62242W        W28783  33.821  26.659   4.038
62243W        W28784  29.733  11.050  11.554
62244W        W28785  20.323  18.294   4.622
62245W        W28786   7.379  14.424   3.702
62246W        W28787  14.195   0.051  14.878
62247W        W28788   9.365  21.512   1.882
62248W        W28789   7.661  17.565  10.492
62249W        W28790   9.442  30.228  11.904
62250W        W28791  26.548  40.705   1.320
62251W        W28792  12.777  36.797  12.646
62252W        W28793  28.087  18.027  11.944
62253W        W28794   4.691  44.089   0.280
62254W        W28795  19.622  44.023   2.736
62255W        W28796  22.016  43.195  13.478
62256W        W28797  43.766  37.821   0.344
62257W        W28798  26.271  22.978  13.985
62258W        W28799  26.151   0.279  14.207
62259W        W28800   6.447  10.713  12.087
62260W        W28801   4.799  22.088   4.556
62261W        W28802  29.138  20.634   2.001
62262W        W28803  36.363  17.220  14.401
62263W        W28804  38.957   6.690   2.967
62264W        W28805  16.185  38.668  14.488
62265W        W28806  38.212  36.474  10.545
62266W        W28807  44.549  27.922   2.940
62267W        W28808   4.786  27.441  11.688
62268W        W28809  19.320  41.373  12.702
62269W        W28810   0.981  15.018  14.495
62270W        W28811  32.524   3.024  11.962
62271W        W28812  18.130  13.173   4.953
62272W        W28813   6.940  42.866   1.799
62273W        W28814  33.457  27.465  11.871
62274W        W28815  34.505   2.408   0.611
62275W        W28816   0.986  13.189   4.501
62276W        W28817  30.558  35.842   2.829
62277W        W28818  41.184  23.602   4.286
62278W        W28819  18.296   0.812   2.898
62279W        W28820  27.136  14.829  11.210
62280W        W28821  28.511  23.002  13.998
62281W        W28822  32.636  39.550   3.175
62282W        W28823  23.485  36.599   1.791
62283W        W28824  19.560  23.245   0.288
62284W        W28825  23.030   5.760  10.754
62285W        W28826  11.191   6.116  11.102
62286W        W28827   0.937  21.225  10.624
62287W        W28828  14.742   6.670  14.044
62288W        W28829  42.424  17.737   2.868
62289W        W28830  33.635  19.191  12.899
62290W        W28831   5.966   5.819   2.242
62291W        W28832  18.368   1.914   3.585
62292W        W28833   4.100   5.415  13.128
62293W        W28834  25.760  41.345  12.490
62294W        W28835  43.251  31.447   2.281
62295W        W28836  40.065  29.673   1.920
62296W        W28837   8.559  20.854  10.503
62297W        W28838  34.177  19.124   2.335
62298W        W28839  41.714  16.776  11.649
62299W        W28840  17.165  11.242   0.907
62300W        W28841  16.864  11.658  12.473
62301W        W28842   6.857  40.107  13.411
62302W        W28843  11.178   8.758   3.571
62303W        W28844  17.218  14.819   5.208
62304W        W28845   0.722   8.340   2.803
62305W        W28846  19.576  36.934  13.480
62306W        W28847  18.165   9.721  13.054
62307W        W28848  17.806  12.759  13.742
62308W        W28849  43.887  43.981   2.850
62309W        W28850  41.639  38.357  12.798
62310W        W28851  12.504   0.857  10.998
62311W        W28852  21.184  35.089   1.710
62312W        W28853   7.964   2.440   2.685
62313W        W28854   4.242  39.550   0.820
62314W        W28855  11.898   7.934   3.866
62315W        W28856  37.984  10.312  11.833
62316W        W28857  37.293  23.091  13.488
62317W        W28858   2.889  28.969   4.073
62318W        W28859  15.743   4.464   2.739
62319W        W28860  10.034  38.602   5.052
62320W        W28861  38.579   5.174   3.417
62321W        W28862  34.237  38.896   2.417
62322W        W28863  35.012  24.480   1.626
62323W        W28864  42.338  24.986  12.996
62324W        W28865  35.575   5.419  11.152
62325W        W28866  27.493  16.619   2.788
62326W        W28867   6.939  24.183   0.254
62327W        W28868   6.484  31.470  14.839
62328W        W28869  36.416  38.859  10.294
62329W        W28870  16.713  11.948   5.041
62330W        W28871  12.464  19.585  14.374
62331W        W28872  36.014  34.323  13.015
62332W        W28873  30.648  10.295   4.575
62333W        W28874  21.100  14.557   0.715
62334W        W28875  30.022  36.360  14.233
62335W        W28876  32.422  20.111  13.940
62336W        W28877  14.273   3.929  11.417
62337W        W28878   9.283  16.236   3.141
62338W        W28879  15.530  35.981   1.658
62339W        W28880  18.470   7.234   2.659
62340W        W28881  23.820   3.097   4.049
62341W        W28882   5.704   5.395   3.790
62342W        W28883  32.095  37.872   5.009
62343W        W28884  18.780  41.478   3.526
62344W        W28885  38.061  28.744  11.072
62345W        W28886  15.218  11.606  13.738
62346W        W28887  34.394  30.961   3.553
62347W        W28888  44.113   0.128   3.082
62348W        W28889  30.161  39.388   2.316
62349W        W28890  32.167  24.699  13.887
62350W        W28891   3.157  41.945   2.392
62351W        W28892  27.936  42.791   4.013
62352W        W28893  30.043  36.845  13.361
62353W        W28894  36.663  12.365  13.995
62354W        W28895  21.596  34.174  14.366
62355W        W28896  33.358   4.238  11.787
62356W        W28897   3.147  33.470  14.397
62357W        W28898   7.015  24.473  12.103
62358W        W28899  39.969   2.777  12.569
62359W        W28900   8.096  17.430   3.398
62360W        W28901  11.328  35.041   4.657
62361W        W28902  28.629   8.337  10.668
62362W        W28903   8.762  22.967  13.522
62363W        W28904   4.309  35.610   2.149
62364W        W28905  16.889  34.493   0.422
62365W        W28906   7.953  16.614  14.381
62366W        W28907   9.864  28.368  12.891
62367W        W28908  42.205  33.079  12.145
62368W        W28909  30.808  10.744  12.434
62369W        W28910  41.382   3.963   1.385
62370W        W28911   0.996  21.543   2.439
62371W        W28912  16.670   7.182   3.283
62372W        W28913  28.429  22.883   4.899
62373W        W28914  25.143  20.643  10.966
62374W        W28915  28.398  14.073  13.779
62375W        W28916  12.369  34.638   0.372
62376W        W28917  27.993  33.008  10.350
62377W        W28918  11.941  40.070  12.420
62378W        W28919  29.380  16.601  11.049
62379W        W28920  11.410  20.927   0.846
62380W        W28921  14.990   3.375   4.922
62381W        W28922   6.872  24.527  10.259
62382W        W28923  35.327  14.284   2.255
62383W        W28924  10.136  31.958  10.939
62384W        W28925  29.708  38.620   3.661
62385W        W28926  22.615  27.422  13.981
62386W        W28927   4.834   3.412  13.834
62387W        W28928  40.230  27.637   4.610
62388W        W28929  30.563  20.770  14.346
62389W        W28930  23.698   8.304   2.955
62390W        W28931  31.642  19.592   4.167
62391W        W28932  11.129   2.423  13.036
62392W        W28933  34.667  13.721  13.995
62393W        W28934  41.395   6.883   2.239
62394W        W28935  15.150  12.267  10.908
62395W        W28936   6.364  43.701   3.504
62396W        W28937  20.180  10.631   1.356
62397W        W28938  40.803  35.532   1.667
62398W        W28939  43.428   0.774  13.850
62399W        W28940  23.229  24.999  13.838
62400W        W28941   1.096   4.170   0.945
62401W        W28942  11.130  40.406   1.793
62402W        W28943  44.632  15.037   3.689
62403W        W28944  13.246  34.023   0.008
62404W        W28945  27.020  23.533   3.767
62405W        W28946   0.734  15.191   4.419
62406W        W28947   7.793  27.016   4.058
62407W        W28948  31.231  10.155  14.405
62408W        W28949  39.479   2.509   4.166
62409W        W28950  37.859  41.003  13.309
62410W        W28951  17.748  25.545  13.793
62411W        W28952  27.471  40.474  12.780
62412W        W28953  36.878  43.525   2.392
62413W        W28954  16.110  33.576  12.323
62414W        W28955   0.019  21.229   4.594
62415W        W28956  11.253   8.159   1.324
62416W        W28957  17.014  26.750  11.049
62417W        W28958   2.280  16.199   1.574
62418W        W28959  40.926  26.481   1.425
62419W        W28960  39.936  44.994  11.505
62420W        W28961  32.539  36.125  13.294
62421W        W28962  29.946  39.078  14.140
62422W        W28963  30.445  26.704  14.073
62423W        W28964  37.604  18.479   5.150
62424W        W28965  12.828  15.171  10.440
62425W        W28966   0.232   4.679   1.445
62426W        W28967  38.055   9.870   0.881
62427W        W28968  40.810  11.810   2.215
62428W        W28969  27.029  39.007  10.086
62429W        W28970  36.220  25.721  13.696
62430W        W28971  32.207  43.733  11.784
62431W        W28972  21.636  30.353   4.054
62432W        W28973  44.826  10.232  11.158
62433W        W28974  30.095  26.509  11.065
62434W        W28975  37.916  34.339   1.726
62435W        W28976  22.942  42.462   2.752
62436W        W28977   0.659  26.457   4.987
62437W        W28978  11.812  40.379  14.361
62438W        W28979  28.111  11.668   1.052
62439W        W28980  33.558  17.671   5.051
62440W        W28981  15.224  28.914   2.447
62441W        W28982  28.149   2.175  11.176
62442W        W28983  31.526  10.603  12.812
62443W        W28984  10.694   8.915  12.545
62444W        W28985  26.468  31.637   2.725
62445W        W28986  13.350  14.627   1.394
62446W        W28987   1.753  20.683   4.634
62447W        W28988   3.481  37.912   0.728
62448W        W28989  31.492  38.242   3.607
62449W        W28990  25.066  32.215  11.148
62450W        W28991  37.934   8.464   1.992
62451W        W28992  17.190  11.940   4.304
62452W        W28993   3.968  24.953  11.407
62453W        W28994  38.866  33.011   1.909
62454W        W28995  30.115  16.807   2.530
62455W        W28996  12.976  27.242  13.038
62456W        W28997   2.749  42.406  14.902
62457W        W28998  10.966  41.071   1.081
62458W        W28999   6.422  16.245  11.991
62459W        W29000  41.374  17.341  14.319
62460W        W29001   4.913  26.107   4.364
62461W        W29002  12.624  15.576   9.995
62462W        W29003   1.133   2.932  14.258
62463W        W29004   3.796  29.144   4.993
62464W        W29005  25.010  35.948  11.484
62465W        W29006  15.794  10.698   0.371
62466W        W29007  22.086  16.452   1.392
62467W        W29008  12.235  29.175   1.967
62468W        W29009  43.874   3.032  12.133
62469W        W29010  16.784  30.951  14.870
62470W        W29011  36.856  25.035   0.214
62471W        W29012  27.558   1.442   1.492
62472W        W29013   6.509  38.621  14.451
62473W        W29014   4.929  14.819  12.550
62474W        W29015   9.305  19.735   5.040
62475W        W29016  17.282  24.025   0.215
62476W        W29017  42.965  43.027  12.039
62477W        W29018  41.399  43.262  14.261
62478W        W29019  20.107  26.829  14.269
62479W        W29020  43.007  18.482  13.065
62480W        W29021  20.559  13.030   3.297
62481W        W29022   4.168  19.649   1.845
62482W        W29023  28.605  33.329   1.556
62483W        W29024  31.408   9.193  10.760
62484W        W29025  30.166  42.198  13.963
62485W        W29026   9.027  12.298  13.772
62486W        W29027  25.217  20.971  13.451
62487W        W29028  42.763  44.410   1.741
62488W        W29029  26.577  16.701   0.023
62489W        W29030  24.513  26.081   3.939
62490W        W29031  21.059  11.628  12.968
62491W        W29032  22.146  32.604  13.712
62492W        W29033  10.403  29.610  12.129
62493W        W29034  20.615   6.338   0.980
62494W        W29035   8.277  36.338  11.112
62495W        W29036  35.470   2.787  11.629
62496W        W29037  20.490  38.718  11.063
62497W        W29038  14.823   4.308   0.339
62498W        W29039  36.402  20.292   0.886
62499W        W29040  44.513  11.298   1.874
62500W        W29041   8.336  10.684   2.224
62501W        W29042  11.823  27.574  12.037
62502W        W29043   3.828  40.200   1.873
62503W        W29044  11.952   8.762  12.820
62504W        W29045  36.126   3.620   1.778
62505W        W29046  42.649  35.495   2.692
62506W        W29047  32.660  20.831  14.399
62507W        W29048   2.831  21.126   3.939
62508W        W29049  21.520  32.357   2.597
62509W        W29050  29.199  11.981   5.234
62510W        W29051  20.621  29.157  11.169
62511W        W29052   3.313  20.647   0.063
62512W        W29053  32.518  31.925  14.056
62513W        W29054  20.659  30.891   2.217
62514W        W29055  26.503  39.327  13.197
62515W        W29056   2.959  43.470  11.873
62516W        W29057  35.376  32.529  13.940
62517W        W29058  35.341  33.657  14.057
62518W        W29059  31.032  19.758   1.470
62519W        W29060  33.927  19.683  10.067
62520W        W29061   8.431   0.317   1.919
62521W        W29062  11.210  13.712   2.742
62522W        W29063  20.236   5.058   4.176
62523W        W29064  12.599  37.854  13.536
62524W        W29065  30.537   1.294   1.037
62525W        W29066  39.268  30.454   1.131
62526W        W29067  43.557   9.337  13.830
62527W        W29068   3.384  38.383   4.271
62528W        W29069  27.216   5.206  11.622
62529W        W29070  35.593  35.011  13.330
62530W        W29071  43.835  20.097   1.460
62531W        W29072  39.344   9.711  12.840
62532W        W29073   0.855  41.539   2.384
62533W        W29074  28.943   0.269   4.174
62534W        W29075   3.059  28.697   2.734
62535W        W29076  33.108  24.465  14.178
62536W        W29077  36.719  23.680   3.922
62537W        W29078  16.527  43.181  13.943
62538W        W29079  30.473  17.222   5.067
62539W        W29080  41.985  13.639   0.507
62540W        W29081  14.111  11.661  12.775
62541W        W29082  14.136  17.507  13.578
62542W        W29083  13.686  34.024   4.014
62543W        W29084  15.011  37.474  13.883
62544W        W29085  42.368  32.882  14.088
62545W        W29086  14.647  17.170  11.055
62546W        W29087   3.655  35.308   2.355
62547W        W29088  20.283   3.409  11.960
62548W        W29089  43.585  11.907  11.148
62549W        W29090  43.326  36.927  14.303
62550W        W29091  41.304  38.315  11.663
62551W        W29092  20.796  41.144  13.954
62552W        W29093  13.634  18.944   2.745
62553W        W29094  41.951  18.548   2.841
62554W        W29095  38.244  37.794  12.944
62555W        W29096  23.162  43.256   0.443
62556W        W29097  39.114  44.961  11.924
62557W        W29098   9.222  34.026  13.714
62558W        W29099  15.809  12.699   3.843
62559W        W29100  24.255  19.490   0.457
62560W        W29101   2.301  35.424   0.951
62561W        W29102  19.018   8.730  11.029
62562W        W29103  16.201  36.109  13.477
62563W        W29104  35.928  22.676  14.797
62564W        W29105   1.259   5.120  10.314
62565W        W29106  37.696  13.186   3.792
62566W        W29107   6.855  40.629  10.348
62567W        W29108  30.590  29.405  12.199
62568W        W29109   5.362  16.216   1.359
62569W        W29110   1.382  20.881  10.621
62570W        W29111  44.525  34.941  10.197
62571W        W29112  39.738   0.336   0.421
62572W        W29113  24.671   3.780  13.632
62573W        W29114  28.167  35.582  12.575
62574W        W29115  29.632  33.351   1.324
62575W        W29116   7.351  31.864  11.154
62576W        W29117  17.651  19.956   2.884
62577W        W29118  30.853  38.511  13.229
62578W        W29119  32.605   1.258  13.117
62579W        W29120  38.066  26.556   2.678
62580W        W29121   9.598   8.672  10.180
62581W        W29122  14.319   1.361  10.998
62582W        W29123  11.679  16.646   3.842
62583W        W29124  43.693   2.470   0.975
62584W        W29125  26.142  38.915  11.415
62585W        W29126   6.443  42.414  13.348
62586W        W29127  30.171  26.312  12.981
62587W        W29128   5.641  15.145  11.705
62588W        W29129  12.112  36.044  10.779
62589W        W29130  10.750  32.013   2.743
62590W        W29131  26.032  36.331  12.225
62591W        W29132  20.621  43.994   0.339
62592W        W29133  10.314   2.347   4.659
62593W        W29134  35.635  31.918  12.280
62594W        W29135  35.085  43.911  11.627
62595W        W29136   7.851  16.269   1.528
62596W        W29137  28.838  13.106  11.362
62597W        W29138  14.047  39.847  10.597
62598W        W29139  33.252  37.353   3.870
62599W        W29140  29.911   8.866   1.288
62600W        W29141  21.419  14.328  12.495
62601W        W29142   6.316   4.320   2.253
62602W        W29143  26.860  44.313  14.221
62603W        W29144  33.307   1.710  13.882
62604W        W29145  19.765  20.116   0.724
62605W        W29146  32.720  26.988   3.514
62606W        W29147  42.729  20.305   4.948
62607W        W29148   2.995   6.719  11.091
62608W        W29149  23.596  12.719   1.364
62609W        W29150  22.026   7.604  13.912
62610W        W29151  14.255  34.734  12.582
62611W        W29152  12.694  28.495   3.474
62612W        W29153   8.354  35.897  10.467
62613W        W29154   7.789  31.874   2.206
62614W        W29155  33.511  23.494   1.908
62615W        W29156  42.961  33.613   2.292
62616W        W29157  42.823   0.228  11.322
62617W        W29158  31.550   7.834  11.610
62618W        W29159  33.011  22.740  13.174
62619W        W29160  41.442   4.305  13.528
62620W        W29161  36.319  36.111  12.077
62621W        W29162  17.244  38.530   0.416
62622W        W29163  43.229  12.251   0.728
62623W        W29164  29.450  44.734  14.839
62624W        W29165  37.903   7.155   2.791
62625W        W29166  31.231  28.974  11.919
62626W        W29167   9.164  36.611   2.792
62627W        W29168  34.531   4.057  12.383
62628W        W29169  26.140   6.818  11.162
62629W        W29170  23.779  19.102  10.725
62630W        W29171   8.207   0.199   2.671
62631W        W29172  23.199   9.274  14.019
62632W        W29173   9.151   9.289  13.330
62633W        W29174  11.349  32.898   2.634
62634W        W29175  28.937   3.508  11.155
62635W        W29176  24.926  40.787  10.591
62636W        W29177   6.420  29.773   0.313
62637W        W29178  23.526   5.495   0.023
62638W        W29179  32.017   8.733   4.422
62639W        W29180  27.088   2.324  12.090
62640W        W29181   0.697  29.997  11.590
62641W        W29182  17.663  42.895  14.256
62642W        W29183   1.772   4.796   2.300
62643W        W29184   9.391  13.414  12.804
62644W        W29185  17.256  41.033   2.777
62645W        W29186  39.411  19.841   2.868
62646W        W29187   3.286  43.691  10.735
62647W        W29188  13.566  39.549  11.408
62648W        W29189  17.270  20.902   2.227
62649W        W29190  26.573   2.347  13.420
62650W        W29191  21.157   7.286  13.121
62651W        W29192  13.887  10.526  14.365
62652W        W29193  35.618   6.735   0.475
62653W        W29194  29.508   3.803   0.957
62654W        W29195  20.532   0.450   3.893
62655W        W29196  37.337   3.735   3.680
62656W        W29197  11.662  19.465  11.425
62657W        W29198  41.941  29.497   2.263
62658W        W29199   1.684  36.995   0.986
62659W        W29200   1.024  15.422   4.047
62660W        W29201  28.727  22.526  14.849
62661W        W29202  22.890  41.058  10.257
62662W        W29203  40.610   8.525  12.122
62663W        W29204   4.494   0.689  10.659
62664W        W29205  22.164   7.266   2.754
62665W        W29206   6.799   2.382   4.507
62666W        W29207   8.441  14.140  12.652
62667W        W29208  28.569  13.589   3.711
62668W        W29209  12.805  38.537  12.032
62669W        W29210  33.293  15.267  14.444
62670W        W29211  30.224   7.730  13.743
62671W        W29212  22.471  39.860  10.686
62672W        W29213  33.473  40.452  12.885
62673W        W29214  11.698  33.026   0.217
62674W        W29215  27.938  39.813   0.351
62675W        W29216   1.943  44.728   3.770
62676W        W29217  38.779  16.215   3.267
62677W        W29218  13.240  35.421   0.107
62678W        W29219  20.201  37.459   0.396
62679W        W29220  14.808  23.222  12.712
62680W        W29221  18.740  38.414  10.466
62681W        W29222  27.815  39.736  13.404
62682W        W29223  10.094  44.809   3.615
62683W        W29224  30.432  19.079   1.370
62684W        W29225  44.927  40.309  10.176
62685W        W29226  17.708  30.144  14.481
62686W        W29227  37.317  38.040   0.897
62687W        W29228  13.156  18.053  12.894
62688W        W29229  34.376  18.770  13.424
62689W        W29230   2.461  21.990   4.453
62690W        W29231  34.725  37.577  13.043
62691W        W29232  25.668  17.395   0.443
62692W        W29233   6.852   2.679   2.267
62693W        W29234  38.488   0.117   1.042
62694W        W29235  29.026   4.584   3.816
62695W        W29236  25.274   5.371   1.690
62696W        W29237  30.119  23.821  12.800
62697W        W29238  29.798  23.813  13.376
62698W        W29239  32.890  42.202   3.096
62699W        W29240  25.740  32.516   3.206
62700W        W29241  12.678  22.533   3.565
62701W        W29242  33.516   6.257   0.767
62702W        W29243   9.597  24.280   0.529
62703W        W29244  39.988  21.665   0.236
62704W        W29245   7.465  14.353   1.383
62705W        W29246  43.377  30.397  11.298
62706W        W29247  39.922  12.393   2.376
62707W        W29248  35.866  34.867  14.727
62708W        W29249  36.951  35.996   2.358
62709W        W29250  31.326  22.163  14.601
62710W        W29251  25.744   1.847   1.354
62711W        W29252  24.474  10.228   1.439
62712W        W29253  29.017  18.102   4.645
62713W        W29254  12.752  29.544   4.201
62714W        W29255  26.809   9.762   1.901
62715W        W29256  44.635  29.423  14.898
62716W        W29257  24.590   9.719   1.737
62717W        W29258   4.109  26.416   4.074
62718W        W29259  29.336  33.981   4.289
62719W        W29260  30.800  28.140   5.061
62720W        W29261  12.173  40.771  10.802
62721W        W29262  13.732  10.298  12.241
62722W        W29263  41.038   1.199   2.267
62723W        W29264  15.723  11.411   2.844
62724W        W29265  14.362  40.786  14.271
62725W        W29266  27.976  42.343   3.373
62726W        W29267  38.540  29.150  14.358
62727W        W29268   3.664  22.676   0.402
62728W        W29269   6.772   6.033   0.532
62729W        W29270  22.931  11.751   2.354
62730W        W29271   6.248  43.459   0.515
62731W        W29272  28.954   8.187  14.375
62732W        W29273  19.716  43.746  13.115
62733W        W29274  26.399  26.831  12.107
62734W        W29275  10.307  14.119  13.997
62735W        W29276   1.371  19.703   0.080
62736W        W29277   8.348  38.521  10.723
62737W        W29278  15.340  37.226  11.842
62738W        W29279  25.937  14.228  14.500
62739W        W29280  30.378  15.350  10.627
62740W        W29281  38.909  32.346   4.465
62741W        W29282  29.362  33.152  14.939
62742W        W29283  14.880  22.281  13.572
62743W        W29284  28.837  18.489   3.276
62744W        W29285  26.222  32.818  12.431
62745W        W29286  12.866  15.206  13.714
62746W        W29287  30.376  31.085   2.688
62747W        W29288  29.571  23.938   3.698
62748W        W29289  10.149  28.401   0.911
62749W        W29290  28.052  19.024  10.883
62750W        W29291  44.516   9.376   3.238
62751W        W29292  38.815  41.295  10.039
62752W        W29293  33.570   7.723   4.525
62753W        W29294   5.990   0.542   1.756
62754W        W29295  24.872  33.144   4.670
62755W        W29296  44.969  42.150  11.168
62756W        W29297   7.144  38.332   0.261
62757W        W29298  38.285  12.928   2.313
62758W        W29299  30.886  15.527   0.757
62759W        W29300   0.014   5.951   4.919
62760W        W29301   1.921  16.901   3.586
62761W        W29302  13.044   2.567   0.743
62762W        W29303  29.132  26.112  14.903
62763W        W29304  19.557  12.348  14.614
62764W        W29305  44.778  41.947   3.177
62765W        W29306  44.975  22.126  13.496
62766W        W29307  33.206  36.596   4.078
62767W        W29308  37.421   2.898   1.179
62768W        W29309  41.259  32.408  14.942
62769W        W29310  32.421   3.429   0.828
62770W        W29311  25.458  41.486  10.751
62771W        W29312  31.525  18.192   1.547
62772W        W29313  21.162   0.216  10.498
62773W        W29314  10.829  31.954   4.542
62774W        W29315   5.913  28.940   4.731
62775W        W29316   2.534   2.883   0.807
62776W        W29317  16.671  34.656  14.310
62777W        W29318   0.339  24.305  12.944
62778W        W29319  41.438  44.911  11.164
62779W        W29320  20.262  29.136  14.486
62780W        W29321  16.526  26.045  14.801
62781W        W29322  43.984   8.562   2.336
62782W        W29323   5.756  25.221   3.589
62783W        W29324  42.108  15.667   3.191
62784W        W29325   6.880  27.196  13.537
62785W        W29326  20.378  16.660  12.008
62786W        W29327   5.700   6.814   0.927
62787W        W29328  12.702   6.488  14.893
62788W        W29329  13.318  22.617  12.423
62789W        W29330   2.310  20.647   3.780
62790W        W29331  16.639  14.675   2.248
62791W        W29332   1.888   9.176   1.790
62792W        W29333  39.993  42.725   3.400
62793W        W29334   0.484   8.377   1.343
62794W        W29335   4.492   3.254   1.987
62795W        W29336  21.271  43.806  11.190
62796W        W29337  38.964  37.772   2.858
62797W        W29338  13.321  34.969  11.609
62798W        W29339  22.573  44.226   3.659
62799W        W29340   4.582  25.626   2.385
62800W        W29341  44.154   6.736  13.903
62801W        W29342  39.484  23.051   1.750
62802W        W29343   4.789  35.896  11.719
62803W        W29344   3.792  38.137  12.934
62804W        W29345  27.670  20.586  12.590
62805W        W29346  18.587  37.389   0.598
62806W        W29347  13.122  28.180   3.470
62807W        W29348  16.604   1.242  13.815
62808W        W29349   6.566  27.893  11.600
62809W        W29350  29.731   6.292  11.218
62810W        W29351  36.393  19.605   4.629
62811W        W29352  12.536   5.172   1.296
62812W        W29353   8.930  21.301   3.278
62813W        W29354   9.866  25.594  12.877
62814W        W29355  25.893  14.534  13.122
62815W        W29356  43.315  28.040   4.884
62816W        W29357  10.124  39.115  14.294
62817W        W29358  43.716   4.841   1.289
62818W        W29359  25.260  28.950   4.619
62819W        W29360  11.090   8.158  11.622
62820W        W29361  19.187   1.240   1.328
62821W        W29362   8.900  11.369   4.089
62822W        W29363   6.435  26.579   1.300
62823W        W29364   1.907   7.058   3.732
62824W        W29365  30.016  36.637   2.563
62825W        W29366  34.123  35.268  14.348
62826W        W29367  16.406  37.397  14.812
62827W        W29368  35.534  11.341   2.670
62828W        W29369  34.888  29.252   4.643
62829W        W29370  25.230  40.482  13.861
62830W        W29371  25.743  13.722   4.861
62831W        W29372  28.973  19.459  14.810
62832W        W29373  19.447  25.757  12.729
62833W        W29374  20.605   5.432   4.331
62834W        W29375  22.602   5.722   3.334
62835W        W29376  27.246  24.621  13.030
62836W        W29377  10.254  25.109   0.032
62837W        W29378  40.466  26.976   2.940
62838W        W29379  37.031   7.645  11.580
62839W        W29380  42.068  23.676   1.336
62840W        W29381   9.350   1.483  12.860
62841W        W29382  20.518  19.731  11.076
62842W        W29383  34.986  21.976  10.489
62843W        W29384  16.366   1.926  13.461
62844W        W29385  11.288   5.744  13.552
62845W        W29386  38.870   6.471   1.914
62846W        W29387  22.695  33.996  11.754
62847W        W29388  41.382  40.415   4.073
62848W        W29389  38.449  23.107  13.560
62849W        W29390   0.986  19.056  14.918
62850W        W29391  20.143  26.647   2.140
62851W        W29392  10.032  41.422   4.153
62852W        W29393   2.109  23.553   2.452
62853W        W29394  19.141  10.450   1.481
62854W        W29395   2.892  21.709  14.456
62855W        W29396  43.797  15.623   2.362
62856W        W29397  16.829  37.239   3.706
62857W        W29398  44.387  11.614   0.799
62858W        W29399  24.052  28.712  13.676
62859W        W29400  43.564  23.535   0.592
62860W        W29401  44.905  13.321   3.182
62861W        W29402  26.985  22.545  12.988
62862W        W29403   3.510  24.729   2.804
62863W        W29404   2.156  37.544  10.964
62864W        W29405   8.175  35.819  14.470
62865W        W29406  31.213  20.747  13.327
62866W        W29407  44.961  37.465  12.355
62867W        W29408   2.777  27.895  12.876
62868W        W29409  19.085  25.889  13.095
62869W        W29410  24.005  32.429  11.977
62870W        W29411  27.022  35.203  12.973
62871W        W29412  26.962  16.258  14.092
62872W        W29413  35.235  30.420   2.951
62873W        W29414  43.776  34.042   1.957
62874W        W29415  27.948  27.480   4.639
62875W        W29416   5.250   8.237  11.020
62876W        W29417  32.519  12.386   2.104
62877W        W29418   0.987  30.824   1.281
62878W        W29419  28.112  10.154  11.516
62879W        W29420  17.416  21.746   0.267
62880W        W29421  41.299  34.871   0.053
62881W        W29422  35.259  32.394   0.340
62882W        W29423  42.614  31.722  11.121
62883W        W29424  34.725  25.716   2.360
62884W        W29425  33.666   5.699   5.057
62885W        W29426  17.476  13.145  13.928
62886W        W29427   0.958  26.526  12.138
62887W        W29428   8.213  20.649   4.835
62888W        W29429  22.639   4.741   9.567
62889W        W29430  28.501  25.205  13.310
62890W        W29431  14.885  10.916  14.929
62891W        W29432   5.215  38.378  14.790
62892W        W29433  27.251  33.427   2.178
62893W        W29434  30.385   4.320   4.200
62894W        W29435  39.660  19.850   1.921
62895W        W29436  31.375  41.029   3.347
62896W        W29437  41.735  36.007   0.382
62897W        W29438  38.066   5.933   1.690
62898W        W29439  35.885   5.588  10.028
62899W        W29440  43.018   4.738  14.848
62900W        W29441  12.296  41.874   2.819
62901W        W29442   3.862  11.871   3.107
62902W        W29443  36.612   0.291  11.059
62903W        W29444  19.135  26.299  13.918
62904W        W29445   1.911  34.103  13.829
62905W        W29446  12.803  11.531   4.328
62906W        W29447  12.911   1.803  11.208
62907W        W29448   4.351  41.081  14.733
62908W        W29449  30.103  35.048   2.896
62909W        W29450  29.250  25.400  13.458
62910W        W29451  39.262  40.721  12.380
62911W        W29452  27.661  36.484  10.973
62912W        W29453  17.810  28.682   3.698
62913W        W29454  12.151  42.886   2.584
62914W        W29455  44.942  25.975  11.233
62915W        W29456  16.190   2.316  14.963
62916W        W29457   7.358  40.868   3.382
62917W        W29458  10.862  36.623   3.648
62918W        W29459  19.878  22.223  13.948
62919W        W29460  44.310  20.577  11.112
62920W        W29461  14.603  36.970  11.927
62921W        W29462  25.978  39.034  12.485
62922W        W29463   4.433   8.105   2.753
62923W        W29464  22.699  33.182   5.360
62924W        W29465  20.348   1.953   3.208
62925W        W29466  26.524  28.448  14.770
62926W        W29467   8.957  33.993  11.466
62927W        W29468  33.077   6.354   3.719
62928W        W29469   0.228  41.161  12.841
62929W        W29470  20.186  39.386  13.961
62930W        W29471  37.529  34.795   2.325
62931W        W29472  29.847   1.440  11.371
62932W        W29473   6.447  11.455   3.613
62933W        W29474  41.452  10.452  13.332
62934W        W29475  18.554  33.391  11.138
62935W        W29476  25.744  13.674   2.875
62936W        W29477  27.746  37.376   4.540
62937W        W29478  14.039  24.220   0.052
62938W        W29479  38.312  25.446  12.136
62939W        W29480  21.167  27.555   3.676
62940W        W29481  12.465   6.886   0.706
62941W        W29482  13.026  25.784   1.132
62942W        W29483  29.673  30.558   2.675
62943W        W29484  16.050  27.871  11.592
62944W        W29485  33.360  38.586   0.294
62945W        W29486   4.703   1.497   2.391
62946W        W29487  41.742  25.123  14.590
62947W        W29488  30.981  36.344  14.833
62948W        W29489   8.833  19.682  11.259
62949W        W29490  12.179  43.740  14.503
62950W        W29491   8.230  15.011   2.579
62951W        W29492   4.856   0.224  11.934
62952W        W29493  42.016  15.212  12.522
62953W        W29494  29.600  33.813   4.762
62954W        W29495  29.940   2.539   1.719
62955W        W29496   4.104  33.474   0.004
62956W        W29497   7.807  21.945  12.441
62957W        W29498  44.970  14.100   1.791
62958W        W29499  35.995  27.303   0.716
62959W        W29500  14.092  23.426  14.730
62960W        W29501  43.877  29.174   3.329
62961W        W29502  22.035  29.977  10.973
62962W        W29503  18.789  17.284   1.278
62963W        W29504  38.452   0.252  12.956
62964W        W29505  35.935   4.983  14.039
62965W        W29506   7.165  23.621   3.354
62966W        W29507  27.158  35.349   0.745
62967W        W29508  41.876  30.737   4.144
62968W        W29509  28.488  34.117  10.663
62969W        W29510  40.895  31.424   2.403
62970W        W29511  19.889  29.290  11.552
62971W        W29512  26.071  16.604   0.785
62972W        W29513  13.134  32.172   4.922
62973W        W29514  23.053  29.480  13.406
62974W        W29515   2.177  23.939   1.238
62975W        W29516  42.682  26.274   0.851
62976W        W29517  38.300  34.079  11.578
62977W        W29518   0.919   3.372  14.427
62978W        W29519  34.055  25.901  14.388
62979W        W29520  14.065   6.104   2.765
62980W        W29521  33.446  29.042   4.697
62981W        W29522   1.895   8.426  14.716
62982W        W29523  20.599  36.472  13.051
62983W        W29524  44.171  19.595  12.240
62984W        W29525  12.155  17.174  14.032
62985W        W29526  13.255  12.224   4.143
62986W        W29527  11.096  26.166  12.706
62987W        W29528  36.852  43.016  14.589
62988W        W29529  42.994  13.648   3.371
62989W        W29530  38.210  11.230  14.718
62990W        W29531  25.493  34.144  14.233
62991W        W29532  20.245  39.811   2.848
62992W        W29533   6.778  21.757   1.456
62993W        W29534  35.747  30.852  11.017
62994W        W29535  26.730  16.787  12.104
62995W        W29536  41.317  26.690  14.931
62996W        W29537   1.726  37.262  14.881
62997W        W29538  30.441  22.394   0.716
62998W        W29539  23.101  36.432   4.614
62999W        W29540  15.310  29.286  12.731
63000W        W29541  27.526  11.441   0.411
63001W        W29542  16.533  14.229   5.018
63002W        W29543  11.859  42.340  13.409
63003W        W29544   2.537  30.904  13.977
63004W        W29545  18.772  28.916  14.900
63005W        W29546  37.830  11.125  13.291
63006W        W29547  38.706  25.184   4.659
63007W        W29548  32.947  23.198   1.746
63008W        W29549  37.355   3.900   1.121
63009W        W29550   8.878   3.378  13.873
63010W        W29551  35.992  24.601   1.926
63011W        W29552  38.289   2.748  13.918
63012W        W29553   9.343   3.682   2.318
63013W        W29554  35.272  26.775   4.673
63014W        W29555  24.812  41.056   1.867
63015W        W29556  44.929  27.574  12.954
63016W        W29557  14.200  12.584  12.563
63017W        W29558  34.151  25.726  12.818
63018W        W29559  27.675   7.918  11.178
63019W        W29560  29.969   9.968  14.849
63020W        W29561  39.411  19.524  10.723
63021W        W29562  41.347  35.022   0.543
63022W        W29563  15.247  25.087   4.069
63023W        W29564  36.384   5.270  13.982
63024W        W29565  42.434  31.805  11.634
63025W        W29566  16.065   4.766   4.794
63026W        W29567  26.182  40.765  11.541
63027W        W29568  29.437  16.662   0.206
63028W        W29569   3.861  13.251   3.153
63029W        W29570   6.725  28.388  11.649
63030W        W29571  35.822   0.743   3.192
63031W        W29572  10.190  32.845  11.723
63032W        W29573  13.485  32.661  11.093
63033W        W29574  14.121  33.103   1.241
63034W        W29575  25.409  41.897  13.318
63035W        W29576  36.518  26.580   0.691
63036W        W29577  40.734   6.784   3.607
63037W        W29578  30.335  32.934  12.014
63038W        W29579  12.209  43.252  14.264
63039W        W29580   9.914   3.716   4.196
63040W        W29581   4.392   5.091  12.399
63041W        W29582   5.932  38.754   2.410
63042W        W29583  31.957   4.937  10.712
63043W        W29584  25.425   6.848  10.041
63044W        W29585  22.110  13.671   1.503
63045W        W29586  42.365  17.942  11.215
63046W        W29587  32.922  37.911  10.734
63047W        W29588   3.725  35.344   1.851
63048W        W29589  44.860   1.909  11.742
63049W        W29590  26.199  34.951  10.770
63050W        W29591  37.013   4.961   1.840
63051W        W29592  30.312   2.942  13.007
63052W        W29593   7.424  20.705  11.202
63053W        W29594  34.709   9.519   0.980
63054W        W29595   2.495   4.284  11.936
63055W        W29596  43.022  38.765  13.601
63056W        W29597  20.694   2.828  10.958
63057W        W29598  12.677  14.272   0.437
63058W        W29599  17.819   3.549   0.685
63059W        W29600  16.504  41.961   0.826
63060W        W29601  14.883  43.411   3.716
63061W        W29602  13.865  27.947  13.262
63062W        W29603  22.266  30.713   2.020
63063W        W29604  21.176  16.121  12.514
63064W        W29605  35.762  40.117   4.106
63065W        W29606   0.727   3.683   0.214
63066W        W29607  29.375  40.796  14.735
63067W        W29608  22.007  33.105  13.583
63068W        W29609  29.429  39.891  11.648
63069W        W29610  13.901  14.723   0.217
63070W        W29611  26.630  33.992   4.648
63071W        W29612   0.971  25.483  12.940
63072W        W29613  22.861  21.993  13.858
63073W        W29614  26.937  17.529  12.641
63074W        W29615  40.446  34.191   3.682
63075W        W29616  29.525  39.278   3.130
63076W        W29617   9.705   6.384  11.500
63077W        W29618  20.691  40.931   1.709
63078W        W29619  16.329  11.245  13.723
63079W        W29620  31.426  31.596   0.426
63080W        W29621  30.340  27.936   3.669
63081W        W29622  43.381  22.610   3.893
63082W        W29623  44.456  40.438   5.202
63083W        W29624  25.074   5.278   4.132
63084W        W29625   3.661   1.479  11.517
63085W        W29626  42.370  22.884  12.151
63086W        W29627  22.997  38.552   1.284
63087W        W29628  17.280  17.338  10.560
63088W        W29629   3.700  34.903   3.697
63089W        W29630  32.624  44.959  13.810
63090W        W29631  43.288   6.860  11.332
63091W        W29632  32.958  26.953  10.759
63092W        W29633   0.271  11.278  10.876
63093W        W29634  44.426  34.645   1.502
63094W        W29635  11.224  38.835   0.366
63095W        W29636  19.363   7.688  12.365
63096W        W29637  18.743  22.508   4.551
63097W        W29638  16.493  42.285   1.528
63098W        W29639   7.416  20.825  12.971
63099W        W29640  20.023   8.166   4.921
63100W        W29641  28.479  40.623  10.497
63101W        W29642   1.910  15.210  14.973
63102W        W29643  34.359  24.650  14.094
63103W        W29644  26.131  29.143  10.879
63104W        W29645  10.147   1.568   3.524
63105W        W29646  28.965  17.551   0.326
63106W        W29647  44.331   0.904  14.477
63107W        W29648  33.260  22.684  11.475
63108W        W29649  12.215  23.720   1.418
63109W        W29650  22.764   7.980   2.889
63110W        W29651  11.699  26.486  14.796
63111W        W29652   3.000  24.197  11.017
63112W        W29653  38.918  31.941  10.512
63113W        W29654  31.053  38.734   4.685
63114W        W29655   6.520  42.820   0.821
63115W        W29656   7.168  30.845  12.110
63116W        W29657   6.374  39.993   0.824
63117W        W29658   4.867  34.905   3.700
63118W        W29659  37.768  27.851  13.784
63119W        W29660  30.988  33.131   2.298
63120W        W29661  19.128  43.493  10.731
63121W        W29662  11.951   1.453   4.555
63122W        W29663  42.633   3.631  10.486
63123W        W29664  10.744  36.865   1.851
63124W        W29665  37.601   5.267  14.229
63125W        W29666  32.704  38.622   3.139
63126W        W29667  29.089  33.184   1.831
63127W        W29668  38.396  19.589   0.506
63128W        W29669  28.852  39.785  11.750
63129W        W29670  34.006   4.214   3.815
63130W        W29671  43.330  23.184   1.704
63131W        W29672  36.506   0.668  13.793
63132W        W29673  32.541  40.557  11.951
63133W        W29674  26.466  43.345  12.583
63134W        W29675  27.695  14.678  14.955
63135W        W29676  28.469   5.912   4.667
63136W        W29677  19.671  44.908   0.447
63137W        W29678  20.503  14.762  13.523
63138W        W29679  31.055  23.255   2.868
63139W        W29680  37.916  30.119  14.890
63140W        W29681  14.837   2.862   1.282
63141W        W29682  31.562  26.966  12.008
63142W        W29683  36.031   2.522  14.794
63143W        W29684  42.938  19.817   5.050
63144W        W29685  27.660  42.257  11.632
63145W        W29686  28.202  36.526   4.079
63146W        W29687   3.885  35.485   3.120
63147W        W29688  28.136  40.425  14.493
63148W        W29689  44.196   3.414   0.908
63149W        W29690  20.159  26.653   1.609
63150W        W29691   9.745   1.751   2.591
63151W        W29692  10.193   7.065  14.874
63152W        W29693   9.907  19.618  12.472
63153W        W29694  31.921  20.920   1.790
63154W        W29695   5.408  15.084  13.409
63155W        W29696  26.210   8.703  14.470
63156W        W29697  24.110  20.496  14.930
63157W        W29698  12.566  27.034   0.932
63158W        W29699   3.278   2.744   0.818
63159W        W29700  15.609  31.331  12.512
63160W        W29701  36.849  43.765   1.938
63161W        W29702   7.700  15.302  13.847
63162W        W29703  15.201   9.392  14.708
63163W        W29704  21.417  44.933   3.513
63164W        W29705   2.182  36.644   4.573
63165W        W29706  30.481  11.133  13.824
63166W        W29707  27.414  34.919  11.613
63167W        W29708  43.004  26.745   0.598
63168W        W29709  11.074  16.084   4.722
63169W        W29710   9.565   3.682  14.385
63170W        W29711   6.940  39.535   1.796
63171W        W29712  20.126  16.614   0.737
63172W        W29713   9.414  12.715  14.992
63173W        W29714  36.474   1.425   4.582
63174W        W29715   4.650   4.959   1.279
63175W        W29716  39.025   6.643  10.779
63176W        W29717  22.472   9.614  12.102
63177W        W29718  27.953   2.906  11.531
63178W        W29719  36.422  25.294  13.925
63179W        W29720  23.555  10.081  14.574
63180W        W29721  36.518  38.436  14.234
63181W        W29722  26.461   9.687   2.389
63182W        W29723  37.332  17.188   1.245
63183W        W29724  16.777  20.066  11.904
63184W        W29725   5.303  27.440   4.209
63185W        W29726   2.412  17.755   1.227
63186W        W29727  40.557  33.189   2.287
63187W        W29728  36.429  23.638  12.595
63188W        W29729   5.242  25.286   1.762
63189W        W29730  11.310   3.762   2.284
63190W        W29731   3.404  34.548   1.039
63191W        W29732  36.776  31.418  12.051
63192W        W29733   9.301  42.582  13.440
63193W        W29734  27.898   8.173  13.244
63194W        W29735  18.331  34.413   2.590
63195W        W29736  41.923   1.208   2.197
63196W        W29737  28.232   9.876  11.953
63197W        W29738  11.731  37.015  13.952
63198W        W29739  11.713  41.600   4.552
63199W        W29740  10.566  29.973  13.093
63200W        W29741   8.679  24.028   2.803
63201W        W29742  38.265  34.810  12.023
63202W        W29743  26.244  39.286  12.113
63203W        W29744   4.570  22.547   1.816
63204W        W29745  44.973   1.004   2.236
63205W        W29746  11.947  11.775   0.911
63206W        W29747  15.736  32.544  11.562
63207W        W29748   2.668   7.207  12.049
63208W        W29749  28.294   2.328  12.105
63209W        W29750  31.165  42.049   0.871
63210W        W29751  43.902  19.542   1.492
63211W        W29752  37.082   0.384  14.494
63212W        W29753  32.099  18.569  12.378
63213W        W29754  23.243   2.185  13.392
63214W        W29755  35.900  12.410  13.505
63215W        W29756   3.711  37.662  10.119
63216W        W29757  40.981  36.560  12.101
63217W        W29758  12.306   8.406  11.123
63218W        W29759  37.886  33.368  11.673
63219W        W29760  23.304   3.852  10.532
63220W        W29761  14.857   8.655   3.109
63221W        W29762  43.546  36.205  13.024
63222W        W29763   7.866  26.028  12.220
63223W        W29764   1.806  40.885  10.606
63224W        W29765  26.129  15.654   2.231
63225W        W29766   3.543  44.854  13.981
63226W        W29767  39.939  24.200   2.890
63227W        W29768  15.250  39.557   4.776
63228W        W29769  42.702  39.292  12.597
63229W        W29770  21.202  32.361  12.527
63230W        W29771  21.470  41.886  13.285
63231W        W29772  22.638   4.748   2.231
63232W        W29773  38.386  14.143  10.067
63233W        W29774   3.170  21.408  11.042
63234W        W29775  28.434  30.621  13.897
63235W        W29776  38.411  21.056  12.550
63236W        W29777   4.947  39.110  11.512
63237W        W29778  21.172   1.026   4.394
63238W        W29779   2.471  41.551  12.527
63239W        W29780  23.079   6.276  12.932
63240W        W29781  43.170  20.010   3.689
63241W        W29782   5.378   6.168  11.467
63242W        W29783   2.173  21.950  13.903
63243W        W29784  26.139   5.959  11.767
63244W        W29785  34.336   9.211   2.455
63245W        W29786   7.458  25.910   3.212
63246W        W29787  14.639  28.204   4.434
63247W        W29788  15.284  38.178  12.328
63248W        W29789  18.856  17.622  11.259
63249W        W29790  12.921  40.527  13.601
63250W        W29791  10.522  19.479  10.541
63251W        W29792  40.460  43.431   3.966
63252W        W29793  10.407  33.568   1.859
63253W        W29794  22.968  14.807  13.454
63254W        W29795  44.129  24.133   2.862
63255W        W29796  14.581  10.364   0.632
63256W        W29797  40.757  22.187   0.236
63257W        W29798   6.282  22.711   1.842
63258W        W29799  37.601  18.758   2.101
63259W        W29800  24.547  29.571  14.953
63260W        W29801  34.643  17.595  13.874
63261W        W29802  34.390  22.727   3.895
63262W        W29803  27.699   9.314  12.785
63263W        W29804  22.981   4.477   2.709
63264W        W29805   6.424  17.149   1.193
63265W        W29806  28.554  37.471   4.234
63266W        W29807  30.578   9.631  13.033
63267W        W29808  33.122  38.311  14.390
63268W        W29809  39.088  32.120  14.440
63269W        W29810  33.519  21.478   4.530
63270W        W29811   1.460  40.572   4.040
63271W        W29812   7.201   9.130   4.195
63272W        W29813  41.580  28.656   1.233
63273W        W29814  17.293  23.240  13.755
63274W        W29815  42.716  24.065   3.019
63275W        W29816  39.908  10.710  12.490
63276W        W29817   3.835   8.879  12.923
63277W        W29818   8.819  27.161  13.547
63278W        W29819  21.935  11.675  13.400
63279W        W29820  38.802  40.994  14.303
63280W        W29821  39.086  13.152  12.391
63281W        W29822  24.985  27.539   1.814
63282W        W29823   4.132  36.589   4.751
63283W        W29824  34.182  40.574  10.659
63284W        W29825  30.663  13.642   1.772
63285W        W29826  11.259  33.691  14.368
63286W        W29827  17.642  32.571   0.434
63287W        W29828  13.318  30.176  11.092
63288W        W29829  30.304   1.336  11.629
63289W        W29830  21.209  40.956   1.743
63290W        W29831  37.554  13.637   4.149
63291W        W29832  36.026  23.595  13.120
63292W        W29833  25.138  25.731   0.850
63293W        W29834  28.358  32.101  11.413
63294W        W29835  28.583  38.982   0.519
63295W        W29836  24.831  18.567   0.089
63296W        W29837   2.354  15.231  11.202
63297W        W29838   3.439   0.986   4.495
63298W        W29839  16.881  12.270   4.639
63299W        W29840  42.865  16.101   3.116
63300W        W29841   8.324  31.136  14.439
63301W        W29842  27.723  33.494  14.027
63302W        W29843   2.829  11.166   2.865
63303W        W29844  29.254  17.224  11.458
63304W        W29845  34.690  16.058   2.192
63305W        W29846  22.208  36.014  10.410
63306W        W29847  38.539   0.842   4.294
63307W        W29848  21.676   8.410  13.906
63308W        W29849  15.555  27.080   1.318
63309W        W29850  36.392   7.353   1.667
63310W        W29851   7.384  29.235   0.905
63311W        W29852  19.978  19.957  14.419
63312W        W29853  24.931  43.213   5.352
63313W        W29854  17.191  25.057   2.673
63314W        W29855  39.858  16.612   0.443
63315W        W29856  16.934  43.216   3.740
63316W        W29857  14.359  35.935   4.195
63317W        W29858  10.685  15.785   3.236
63318W        W29859  37.321  43.692  14.688
63319W        W29860  33.666  21.505  11.433
63320W        W29861  42.018  40.754  12.915
63321W        W29862   3.648  10.349  11.653
63322W        W29863  21.651  29.167  14.993
63323W        W29864  42.857   9.612  14.723
63324W        W29865  38.469  21.203  11.655
63325W        W29866   4.939  40.944   1.480
63326W        W29867  30.100  22.226   1.815
63327W        W29868  20.057  16.548  13.872
63328W        W29869  27.791   6.634  14.726
63329W        W29870   0.836  12.724   2.114
63330W        W29871  39.822  19.828  10.739
63331W        W29872  23.847  36.984   0.965
63332W        W29873  20.528  20.638  10.721
63333W        W29874  12.620  24.825  11.990
63334W        W29875  35.303  23.005   2.773
63335W        W29876   5.973  38.111   0.930
63336W        W29877  21.714  39.923   3.331
63337W        W29878  34.046   8.602  13.864
63338W        W29879  23.961  20.904   1.469
63339W        W29880  24.522  44.864  13.894
63340W        W29881  35.504  31.934   0.443
63341W        W29882   7.300   4.335   0.361
63342W        W29883   6.366   5.083  12.342
63343W        W29884  19.068  43.852   2.355
63344W        W29885  39.977   9.824   3.652
63345W        W29886  16.676   9.606  13.361
63346W        W29887  37.087  39.404   2.049
63347W        W29888   8.407  13.976   0.291
63348W        W29889  19.626  13.324   0.428
63349W        W29890  17.440  10.863  11.013
63350W        W29891  31.065  30.416   0.838
63351W        W29892   0.331   9.918  10.588
63352W        W29893  39.471  37.491   1.143
63353W        W29894  37.871  35.245  12.101
63354W        W29895   6.256  11.871  13.461
63355W        W29896   7.220   8.161  12.029
63356W        W29897   8.012  21.959  11.064
63357W        W29898   2.852  23.781  14.393
63358W        W29899   2.335  41.720  10.795
63359W        W29900  22.790  27.137  11.203
63360W        W29901  16.564  29.479   0.330
63361W        W29902  20.944  12.058   3.602
63362W        W29903  43.915  10.823   1.878
63363W        W29904  35.923  35.868   1.169
63364W        W29905  31.195   2.728   2.860
63365W        W29906  13.115  37.364   3.207
63366W        W29907  24.529   6.200   4.483
63367W        W29908  21.809  24.476   2.759
63368W        W29909   6.356  42.788  10.307
63369W        W29910  19.712  29.104  14.371
63370W        W29911   6.367  43.483   4.950
63371W        W29912   9.335  37.480  11.901
63372W        W29913  32.522   2.154  11.655
63373W        W29914  14.741   2.845   2.925
63374W        W29915   6.962   1.331   2.249
63375W        W29916  39.761   9.272  13.537
63376W        W29917   1.842  35.924   1.507
63377W        W29918  31.536  23.808  13.867
63378W        W29919  17.006  40.821  11.154
63379W        W29920   4.181   7.207  11.907
63380W        W29921  31.382  31.924   1.883
63381W        W29922  19.749  11.795  10.625
63382W        W29923  36.856  17.994   4.109
63383W        W29924  12.359  34.263   4.322
63384W        W29925  39.359  26.526  12.841
63385W        W29926  28.951  36.632  10.653
63386W        W29927   0.987  42.771   0.497
63387W        W29928  14.342  16.282  13.998
63388W        W29929  15.722  24.614   2.277
63389W        W29930  28.909  30.544  12.058
63390W        W29931  38.349   4.846  12.059
63391W        W29932   6.488  33.824  12.534
63392W        W29933   1.362  21.430   4.252
63393W        W29934  19.256   5.315   1.704
63394W        W29935   3.363   7.093  13.437
63395W        W29936  25.392  28.446  14.083
63396W        W29937  42.699  41.326   0.274
63397W        W29938  17.551  12.805   2.896
63398W        W29939   0.355  20.223  11.813
63399W        W29940  39.953  35.474  12.175
63400W        W29941   1.963  21.299   2.699
63401W        W29942  18.151   7.735   0.789
63402W        W29943  32.036  43.342  14.540
63403W        W29944   3.049  38.470   0.442
63404W        W29945   6.898  10.709   0.551
63405W        W29946  11.062   7.841   4.102
63406W        W29947  27.333  26.683  13.312
63407W        W29948  28.152  25.420   3.783
63408W        W29949  33.169  13.151  14.398
63409W        W29950  25.205  12.680   1.285
63410W        W29951  11.791  16.661  13.891
63411W        W29952  41.267  19.682   3.130
63412W        W29953  23.067  21.291   1.657
63413W        W29954  30.684  27.841  12.558
63414W        W29955  18.761  11.674   3.582
63415W        W29956  18.113  20.727  11.503
63416W        W29957  10.280  38.505   1.925
63417W        W29958  17.035  20.550  10.753
63418W        W29959  27.326  14.778   0.378
63419W        W29960   0.950  33.367  13.501
63420W        W29961  26.740  17.628   1.878
63421W        W29962  28.422  33.402  12.903
63422W        W29963  29.003  40.634   1.791
63423W        W29964   0.011  44.797   2.942
63424W        W29965  17.216   5.094  13.255
63425W        W29966  21.205   9.387   2.038
63426W        W29967  36.136   8.210  12.712
63427W        W29968  17.005  20.088  13.448
63428W        W29969  28.696   7.653  13.381
63429W        W29970   2.162  32.707  11.076
63430W        W29971  27.733   4.892  14.519
63431W        W29972  12.792  15.840   1.734
63432W        W29973   0.308  32.468   0.211
63433W        W29974  35.134  15.259  10.456
63434W        W29975  20.025  34.964   2.601
63435W        W29976  22.117  30.812  11.995
63436W        W29977   0.638   7.749  12.407
63437W        W29978   5.442  35.408   4.077
63438W        W29979  23.670   4.518  13.526
63439W        W29980  13.637  35.417  13.300
63440W        W29981   0.490  16.784   1.347
63441W        W29982  38.862  33.382  11.516
63442W        W29983  19.267   9.612  12.406
63443W        W29984  24.148  36.882   3.766
63444W        W29985  16.368   1.407   2.527
63445W        W29986  16.768  17.660  10.618
63446W        W29987  11.548  14.257   4.179
63447W        W29988  12.374   1.533   3.759
63448W        W29989  13.608  34.505   0.687
63449W        W29990  35.341  14.501   3.391
63450W        W29991   1.928   3.278  12.421
63451W        W29992   9.692  11.542   3.604
63452W        W29993  21.232  11.301   1.945
63453W        W29994   3.274   1.417  12.741
63454W        W29995  39.764  26.695  14.576
63455W        W29996  43.317   7.399   1.173
63456W        W29997   5.895  20.485   4.091
63457W        W29998  29.477  22.647  13.789
63458W        W29999  13.197   1.467  14.916
63459W        W30000  19.236  16.107   0.869
63460W        W30001  18.535   2.926   3.203
63461W        W30002   6.323  13.680   0.589
63462W        W30003  36.574  34.187   2.995
63463W        W30004  27.190  31.905  13.457
63464W        W30005  25.878  11.226   1.770
63465W        W30006   3.353   2.096   2.284
63466W        W30007  21.055   6.445  12.802
63467W        W30008   7.763  34.400   2.355
63468W        W30009  14.194  29.550   2.686
63469W        W30010  11.817  16.272  14.261
63470W        W30011   5.924  25.850   0.377
63471W        W30012  18.090   7.347   4.150
63472W        W30013  26.806  22.266   5.018
63473W        W30014  21.723  27.242  13.204
63474W        W30015  14.327  25.072   1.716
63475W        W30016  42.311  25.158  11.522
63476W        W30017  28.215  22.668   1.280
63477W        W30018  34.825   7.025   0.884
63478W        W30019  14.998  19.217  14.939
63479W        W30020  40.767  12.125  14.934
63480W        W30021  32.646   3.186  12.489
63481W        W30022   8.419   9.305  11.014
63482W        W30023  24.005  33.970   4.449
63483W        W30024  21.385  28.561   0.490
63484W        W30025  14.344  17.732  11.832
63485W        W30026  18.258   2.183  11.252
63486W        W30027   0.455  18.986  11.138
63487W        W30028  28.920  44.394  10.580
63488W        W30029  18.299   9.700   3.112
63489W        W30030  34.128  19.612   2.737
63490W        W30031  33.430  21.126  11.686
63491W        W30032  14.216  18.178  13.334
63492W        W30033  21.072   9.108  12.014
63493W        W30034  21.059  35.172  13.176
63494W        W30035  31.000   8.399  13.872
63495W        W30036  44.319  41.297  11.919
63496W        W30037  14.747  41.847  12.547
63497W        W30038   5.393  42.452  12.781
63498W        W30039  42.726  15.810   4.042
63499W        W30040  21.982  31.889  11.112
63500W        W30041  34.644   7.213  14.721
63501W        W30042   6.848   6.923  13.042
63502W        W30043   3.991   3.493   5.010
63503W        W30044   8.730  26.930  14.906
63504W        W30045  22.886   3.735   5.034
63505W        W30046  26.513  11.911  14.745
63506W        W30047   0.643  34.444  14.323
63507W        W30048  20.163  10.887   4.238
63508W        W30049  17.944  37.962  10.614
63509W        W30050  33.967  14.190  11.547
63510W        W30051  19.868  39.519   4.156
63511W        W30052  15.811  18.981   3.300
63512W        W30053  10.410   5.687   1.741
63513W        W30054  31.942   7.066  14.719
63514W        W30055   3.704  17.552   0.481
63515W        W30056   0.710  20.738  10.480
63516W        W30057   7.281  10.130   4.414
63517W        W30058  10.404  20.756   0.925
63518W        W30059   1.777  37.358   3.254
63519W        W30060   6.290   2.340   0.253
63520W        W30061  29.895   9.504  10.812
63521W        W30062  32.461  43.042   2.642
63522W        W30063  12.626  16.660   2.406
63523W        W30064  31.627  21.815  13.056
63524W        W30065  16.879  14.691   4.211
63525W        W30066  34.508  27.463  12.861
63526W        W30067  35.121  30.679   5.185
63527W        W30068  33.373  38.824   0.777
63528W        W30069  42.785  15.030  14.935
63529W        W30070  19.300  10.918   1.269
63530W        W30071   4.227  17.326   3.141
63531W        W30072   5.827  21.599  12.385
63532W        W30073  19.676  25.508   1.906
63533W        W30074   9.247  19.298   3.893
63534W        W30075  17.050  15.662   0.782
63535W        W30076  19.582  18.617  12.183
63536W        W30077   1.853  16.245  14.205
63537W        W30078  39.863  31.340  13.667
63538W        W30079  17.724  20.241  11.187
63539W        W30080   8.941  43.199  14.057
63540W        W30081  36.736  22.555  14.326
63541W        W30082   2.849   0.339   2.441
63542W        W30083  12.065  21.020  12.030
63543W        W30084  38.573  39.180   2.445
63544W        W30085  33.699   1.392  13.050
63545W        W30086  13.356  26.464   2.738
63546W        W30087  15.708  20.016   1.635
63547W        W30088  23.729  43.690  13.816
63548W        W30089  28.216  24.658  10.704
63549W        W30090   6.384   8.893  10.652
63550W        W30091  10.470  39.103   2.249
63551W        W30092   7.444   8.816   0.598
63552W        W30093  17.763   0.345   3.362
63553W        W30094  13.655  25.977  13.654
63554W        W30095  20.593   3.031   2.215
63555W        W30096  32.093  38.041  12.063
63556W        W30097  38.860  24.546  14.055
63557W        W30098  17.826  37.800  14.475
63558W        W30099  37.854   1.436  14.334
63559W        W30100  27.689  10.584   0.094
63560W        W30101  28.203  32.636   3.765
63561W        W30102  23.628  10.635   4.383
63562W        W30103  16.657  35.479  13.820
63563W        W30104  30.189  39.400  11.580
63564W        W30105  28.098  42.449  14.851
63565W        W30106  38.652  16.802  13.411
63566W        W30107  16.088   0.451   2.659
63567W        W30108   8.750   8.248   1.030
63568W        W30109  26.017  10.149   0.392
63569W        W30110  11.891  29.291  12.976
63570W        W30111   3.438   1.860   3.581
63571W        W30112   0.398   1.965   1.911
63572W        W30113  28.698  10.542   5.116
63573W        W30114  23.553  20.257   2.903
63574W        W30115   9.960  36.499   2.451
63575W        W30116  31.798  10.193   4.647
63576W        W30117  42.477  33.354  13.952
63577W        W30118  16.506  14.063  11.345
63578W        W30119  13.346  35.865  14.855
63579W        W30120  32.098  11.385   3.133
63580W        W30121  26.206  27.660   3.844
63581W        W30122  14.753   7.375  13.450
63582W        W30123  17.490  37.155  13.566
63583W        W30124  33.370  25.009  10.723
63584W        W30125  31.191  26.702   1.353
63585W        W30126  36.415  10.930  13.417
63586W        W30127   6.144  44.396   1.042
63587W        W30128  12.827  29.423   1.672
63588W        W30129  25.416  27.087   0.697
63589W        W30130   6.001  18.809   2.247
63590W        W30131  12.699  28.031   2.156
63591W        W30132  18.838   7.691   4.541
63592W        W30133  44.231   2.254  12.494
63593W        W30134  25.224  10.206   3.574
63594W        W30135   7.268   2.533  13.482
63595W        W30136   9.766  23.380   0.205
63596W        W30137  23.198  11.641  10.957
63597W        W30138  41.093  36.353  12.900
63598W        W30139  42.790  13.657   1.449
63599W        W30140  25.467  30.157  12.422
63600W        W30141   1.930  37.124  13.485
63601W        W30142  36.060   0.231   1.383
63602W        W30143  19.768   1.858  13.416
63603W        W30144  40.957  23.954   1.040
63604W        W30145  24.589  13.171  14.402
63605W        W30146  32.265  29.980   4.147
63606W        W30147  43.890   4.717   1.764
63607W        W30148  37.468  10.824  14.404
63608W        W30149   7.865  26.213   3.235
63609W        W30150   4.883  36.828  11.984
63610W        W30151  25.151  17.596   2.259
63611W        W30152  39.380  40.368   0.185
63612W        W30153  16.857  17.894   0.906
63613W        W30154  27.621  10.301  13.155
63614W        W30155   6.239  29.090  10.720
63615W        W30156  35.997  25.444  13.142
63616W        W30157  14.238  20.646  12.809
63617W        W30158   8.200  11.799   1.376
63618W        W30159   9.058  43.333  11.166
63619W        W30160  43.827  24.064  13.062
63620W        W30161   4.873  21.658  12.798
63621W        W30162  22.721  41.076   3.180
63622W        W30163  21.443  31.546  12.776
63623W        W30164  33.157  10.697   4.181
63624W        W30165  31.502  18.666   2.304
63625W        W30166  16.849   4.181  13.399
63626W        W30167  34.828  18.746  12.495
63627W        W30168   3.026  32.406   1.665
63628W        W30169   3.436  28.925   4.148
63629W        W30170  19.482  13.158   1.947
63630W        W30171  38.428  24.979   1.997
63631W        W30172  25.976  15.520  12.057
63632W        W30173  43.386  14.114   5.013
63633W        W30174  18.914   0.511  11.144
63634W        W30175  37.928  21.273  12.485
63635W        W30176   7.759  28.720   0.297
63636W        W30177  25.081   9.770   2.678
63637W        W30178  41.968  36.898   0.935
63638W        W30179  34.418  30.863   1.724
63639W        W30180  40.822  40.787   1.371
63640W        W30181  19.064  22.604  10.728
63641W        W30182  26.507  39.290  13.743
63642W        W30183  44.811   1.674   3.288
63643W        W30184  32.519  38.328  12.130
63644W        W30185  15.803  24.206  12.800
63645W        W30186  39.044  14.231  11.482
63646W        W30187  28.970  20.238   1.216
63647W        W30188  16.172  41.666  13.071
63648W        W30189  15.286   4.005  12.841
63649W        W30190  35.285   8.849  11.183
63650W        W30191  21.067  24.492   2.248
63651W        W30192  28.418  37.302   0.827
63652W        W30193  17.664   9.926   5.201
63653W        W30194  44.730  31.169  12.013
63654W        W30195   2.444  40.425  10.637
63655W        W30196  35.030  44.911  11.897
63656W        W30197  10.727   0.327   3.839
63657W        W30198  35.155   5.640   0.828
63658W        W30199  37.950  28.016  12.544
63659W        W30200  17.078  27.696  14.177
63660W        W30201  13.064  28.131   1.356
63661W        W30202  35.542  10.449   1.385
63662W        W30203  23.211   1.395  13.004
63663W        W30204   9.942  33.093  13.441
63664W        W30205  43.958  29.667  10.938
63665W        W30206   0.825  24.633   1.202
63666W        W30207   1.174  41.862   4.134
63667W        W30208  28.585  35.885  14.046
63668W        W30209  31.362  19.854  13.085
63669W        W30210  40.658  31.849   0.454
63670W        W30211  42.338  26.729   4.161
63671W        W30212  35.312   4.593  12.375
63672W        W30213  43.276  18.534   4.073
63673W        W30214  30.388  33.881   3.444
63674W        W30215  14.060  43.366  13.463
63675W        W30216  25.132  10.963  13.461
63676W        W30217  29.926  11.992  14.629
63677W        W30218   5.685  22.648   2.534
63678W        W30219   6.896   9.776  11.042
63679W        W30220  41.780  43.003   2.666
63680W        W30221  19.865   0.364  11.957
63681W        W30222  11.817  25.992  12.958
63682W        W30223  32.437  13.016  13.973
63683W        W30224  26.495  19.791   0.962
63684W        W30225   7.706  22.220  14.104
63685W        W30226  30.562  25.617   0.280
63686W        W30227  14.007  12.847   4.215
63687W        W30228  13.119  25.317  14.064
63688W        W30229   3.878  34.036  14.263
63689W        W30230  18.697  31.900   3.656
63690W        W30231  10.332  40.465   3.177
63691W        W30232  34.401  40.725  13.823
63692W        W30233  14.939  18.627  13.818
63693W        W30234  39.543  28.388  13.258
63694W        W30235   3.219  30.258  11.428
63695W        W30236  33.494  32.128   3.562
63696W        W30237  38.036  14.679   4.634
63697W        W30238  36.521  24.729   0.526
63698W        W30239  34.568  10.517   4.374
63699W        W30240  41.545  23.944   2.419
63700W        W30241  10.198  27.160  14.746
63701W        W30242  34.127  42.892   3.260
63702W        W30243  36.330  27.048  14.408
63703W        W30244  18.062  36.265  10.641
63704W        W30245  16.130  44.427  12.224
63705W        W30246   7.852  44.008   1.751
63706W        W30247  11.193  22.661  10.786
63707W        W30248   6.704  11.145  11.135
63708W        W30249  21.932   3.634  14.802
63709W        W30250  38.861  34.123   2.421
63710W        W30251   1.221   9.342  11.907
63711W        W30252   5.236  35.484   0.226
63712W        W30253   1.319  21.260   1.354
63713W        W30254   0.278  23.561  12.588
63714W        W30255  18.791  19.494   4.964
63715W        W30256  38.098  43.864  11.999
63716W        W30257  17.217  24.669  12.843
63717W        W30258  24.268   5.886  14.948
63718W        W30259   4.719  22.212  11.551
63719W        W30260  43.012  26.968  10.919
63720W        W30261  20.468   0.145  13.290
63721W        W30262   7.619   4.221  13.396
63722W        W30263  19.939   3.532   4.321
63723W        W30264  23.095  41.371  10.640
63724W        W30265  39.061  21.478  10.219
63725W        W30266  27.146  25.902  14.274
63726W        W30267  14.677   8.315  13.508
63727W        W30268   8.808   2.859  13.759
63728W        W30269  26.192  44.417  13.052
63729W        W30270  10.356  25.562   0.958
63730W        W30271  32.552  39.412   0.053
63731W        W30272  43.292   2.666  14.409
63732W        W30273  24.637  12.213  14.832
63733W        W30274  24.430   5.062  10.013
63734W        W30275  26.713  36.793   3.109
63735W        W30276   0.612  32.346  12.164
63736W        W30277  30.491  15.646   2.051
63737W        W30278  30.837   0.858   4.003
63738W        W30279  35.112   1.724   2.187
63739W        W30280  17.731  12.766  11.540
63740W        W30281  19.702  33.578   4.549
63741W        W30282  16.265  41.821   1.509
63742W        W30283  44.776   8.717  12.960
63743W        W30284   4.862  14.112   1.377
63744W        W30285   6.137   8.688  11.061
63745W        W30286  33.025  30.654  13.503
63746W        W30287  25.035  41.672   2.500
63747W        W30288  24.248  41.474   0.436
63748W        W30289  33.936  17.054  14.393
63749W        W30290  41.414  43.978  12.109
63750W        W30291  14.124   7.418   4.210
63751W        W30292  34.037  25.623  14.820
63752W        W30293  21.272  11.778  11.611
63753W        W30294  20.689  19.200  14.483
63754W        W30295  14.466  34.532   2.261
63755W        W30296  44.024  15.422  12.948
63756W        W30297  11.736  31.625   2.912
63757W        W30298  31.880  31.044  11.487
63758W        W30299  26.132  44.491   1.202
63759W        W30300  13.220   9.738   4.364
63760W        W30301  43.819   1.833   3.879
63761W        W30302  24.877  34.962   0.909
63762W        W30303  44.735  16.003  11.236
63763W        W30304   4.902  14.660  11.189
63764W        W30305  43.170  38.903   2.171
63765W        W30306  37.334  21.782  10.864
63766W        W30307  18.096  27.829  12.598
63767W        W30308  20.124  39.357   0.300
63768W        W30309   3.782   0.443  12.913
63769W        W30310  42.957  24.097  11.944
63770W        W30311  40.145  13.090   1.616
63771W        W30312  20.969  23.016   3.246
63772W        W30313  21.576   7.093  12.431
63773W        W30314  12.581  26.512   3.187
63774W        W30315  39.307  11.628  12.916
63775W        W30316  10.902  35.450  10.566
63776W        W30317  16.626  35.613  12.386
63777W        W30318  29.014   1.948   0.710
63778W        W30319   7.023   2.694  10.707
63779W        W30320   5.143   4.792   4.029
63780W        W30321  33.976  26.169  13.940
63781W        W30322  42.787   7.193  11.042
63782W        W30323  40.833  29.996  13.450
63783W        W30324  19.978  14.360  13.342
63784W        W30325  26.707  42.404   2.694
63785W        W30326  11.625   9.788  14.460
63786W        W30327   1.157  35.389  12.705
63787W        W30328  38.935  37.773  13.070
63788W        W30329  42.911  35.056   5.254
63789W        W30330   8.707   2.944  12.335
63790W        W30331  33.462  24.926  14.773
63791W        W30332  22.757   4.183  12.105
63792W        W30333  37.865  43.626   4.802
63793W        W30334  43.979  33.702   0.678
63794W        W30335  34.109  22.412   0.400
63795W        W30336  39.483   8.857  14.316
63796W        W30337  41.603  16.578  13.147
63797W        W30338  13.546  31.837  13.464
63798W        W30339  33.518   6.135   3.571
63799W        W30340   9.420   6.531   4.523
63800W        W30341  26.089  39.883  14.833
63801W        W30342  31.615   0.896  14.393
63802W        W30343  21.119  39.791  14.052
63803W        W30344   4.078   6.918   4.623
63804W        W30345  20.040  18.505   0.022
63805W        W30346  38.163  32.245  12.844
63806W        W30347  25.153  29.118  13.117
63807W        W30348  22.694   8.639   1.781
63808W        W30349   7.297  36.089   3.731
63809W        W30350  33.074  22.283  13.431
63810W        W30351  29.138  22.571   1.644
63811W        W30352   8.727  16.315  13.329
63812W        W30353   6.449   2.104   1.754
63813W        W30354  35.430   5.641  13.639
63814W        W30355  14.050  28.209   3.675
63815W        W30356   7.443   6.281  12.392
63816W        W30357  16.301  11.632   4.801
63817W        W30358  32.692  17.585  14.929
63818W        W30359  32.667  35.351  12.175
63819W        W30360   7.949   8.793   3.262
63820W        W30361  35.523  20.384  11.916
63821W        W30362  17.762  17.780   1.352
63822W        W30363  36.483  44.392  14.284
63823W        W30364  29.027  19.723  12.121
63824W        W30365   1.945  30.956  13.401
63825W        W30366  42.776   7.449   1.364
63826W        W30367   2.241  27.274  12.877
63827W        W30368  21.717  24.487  12.978
63828W        W30369   5.462  17.827   2.424
63829W        W30370   5.272  11.774  13.625
63830W        W30371  17.588  14.105   3.639
63831W        W30372  12.532   0.259   4.146
63832W        W30373   9.607  19.805  10.684
63833W        W30374  14.197  41.682  14.644
63834W        W30375  43.912  15.370   1.918
63835W        W30376   3.447  25.691  12.280
63836W        W30377  40.780   8.715   3.651
63837W        W30378   6.828  42.605  12.008
63838W        W30379  36.172  42.342  12.525
63839W        W30380  14.218  30.594   2.515
63840W        W30381   9.759  15.982   3.229
63841W        W30382  13.570  23.380  14.728
63842W        W30383  35.965  12.763  11.956
63843W        W30384  37.300   5.195   0.135
63844W        W30385  29.439  35.841  13.998
63845W        W30386  11.868   1.788  14.931
63846W        W30387   8.962   2.206   2.709
63847W        W30388  35.632  40.726  12.863
63848W        W30389  28.078  20.538  14.713
63849W        W30390  34.610  24.446  10.733
63850W        W30391  15.033  11.031   1.428
63851W        W30392  34.979  42.250  11.109
63852W        W30393  35.392  19.454  11.085
63853W        W30394   8.194   6.782  10.737
63854W        W30395   4.046  26.755  12.736
63855W        W30396   8.683  19.033  13.163
63856W        W30397  31.964   9.253  14.606
63857W        W30398  35.918  26.322  12.746
63858W        W30399  24.048  20.113  14.456
63859W        W30400  43.160  21.964  13.474
63860W        W30401  24.173  38.943   1.430
63861W        W30402  30.465  17.593  12.614
63862W        W30403   9.254   1.518   2.428
63863W        W30404  38.942   9.192   3.122
63864W        W30405  15.597   9.172  11.531
63865W        W30406  27.703  33.602   0.867
63866W        W30407   7.000  43.031  13.966
63867W        W30408   8.851   7.426  11.158
63868W        W30409   9.476  17.790   2.275
63869W        W30410  22.257  18.250   0.978
63870W        W30411  36.271  30.465  11.622
63871W        W30412  33.771  11.340  14.448
63872W        W30413  41.430  12.444  12.203
63873W        W30414  43.462  41.222  14.971
63874W        W30415  40.647  28.007  10.847
63875W        W30416  22.584  28.137  13.136
63876W        W30417  18.001  25.028  10.651
63877W        W30418  11.167  42.708   2.495
63878W        W30419  18.484  36.469  13.100
63879W        W30420  17.198  38.339  14.334
63880W        W30421  33.810  23.372  13.907
63881W        W30422   3.345   9.787  10.569
63882W        W30423  43.725  23.827  14.575
63883W        W30424  41.945   2.429  11.643
63884W        W30425  30.452  24.288  12.107
63885W        W30426  14.287  28.605   1.177
63886W        W30427  21.137  31.083   2.371
63887W        W30428  24.286   7.622   3.612
63888W        W30429  23.478   9.281   3.220
63889W        W30430  44.907  28.118   0.741
63890W        W30431  10.111  22.752   1.727
63891W        W30432  17.963   2.318  13.808
63892W        W30433  43.399  25.110   0.758
63893W        W30434  38.910  28.067   4.535
63894W        W30435  22.575   4.846  14.124
63895W        W30436  42.707   0.810  11.584
63896W        W30437   1.389  11.580  11.079
63897W        W30438   0.070  18.626   1.422
63898W        W30439  18.186   2.513  14.246
63899W        W30440   6.697  32.729   4.144
63900W        W30441  42.595  41.292  13.390
63901W        W30442  38.128  23.901  11.204
63902W        W30443  44.388  12.883  12.566
63903W        W30444  28.437  35.721  11.570
63904W        W30445  37.010   5.533   0.484
63905W        W30446  28.045  34.119   4.212
63906W        W30447  33.853  30.492  14.875
63907W        W30448  33.550  12.737  12.402
63908W        W30449  28.339   7.074  10.473
63909W        W30450   9.903  30.366   2.694
63910W        W30451   1.934  30.464  11.598
63911W        W30452  31.989  32.209  12.101
63912W        W30453  19.939  40.351   0.414
63913W        W30454   5.928  20.183  14.421
63914W        W30455  31.015  39.645   1.981
63915W        W30456  40.422  10.200  10.327
63916W        W30457  34.949   1.975   1.221
63917W        W30458  17.236   4.973  11.862
63918W        W30459   7.714  22.526   0.415
63919W        W30460  42.375  13.739  13.733
63920W        W30461  25.465  43.147  12.467
63921W        W30462   2.721   0.982   0.686
63922W        W30463  16.786  15.291   1.454
63923W        W30464  42.980  37.537  12.925
63924W        W30465  39.644   7.282  12.237
63925W        W30466  43.472  15.820  13.820
63926W        W30467   2.719  36.504  13.188
63927W        W30468   3.824  37.118  12.898
63928W        W30469  33.483   2.301   0.104
63929W        W30470  36.506  28.036   2.670
63930W        W30471  38.606  19.515   4.039
63931W        W30472  35.304   7.907   4.152
63932W        W30473  22.461  33.807   3.723
63933W        W30474   5.932  20.688   3.630
63934W        W30475  43.884  43.942   3.831
63935W        W30476  11.471   8.792   1.412
63936W        W30477  33.801   9.189  12.156
63937W        W30478  32.830  26.625   0.829
63938W        W30479  13.486  33.096   3.651
63939W        W30480   7.673  10.877  14.034
63940W        W30481  29.683  21.966   0.951
63941W        W30482  31.492  16.592  12.745
63942W        W30483   2.283  32.679   3.461
63943W        W30484  23.438  11.813   4.110
63944W        W30485  14.242  32.813   3.314
63945W        W30486  38.504  35.852  11.989
63946W        W30487  31.435  34.210   1.374
63947W        W30488  22.584  39.098   2.331
63948W        W30489  20.254  44.390  12.339
63949W        W30490  44.338  43.019  13.636
63950W        W30491  37.560  32.680  10.676
63951W        W30492  40.259  18.749   0.041
63952W        W30493  11.139  28.072  10.508
63953W        W30494  31.178  11.364   1.197
63954W        W30495  18.871  21.771  12.924
63955W        W30496  29.684  17.678   1.492
63956W        W30497  31.060  12.768   1.672
63957W        W30498  44.736   0.701  13.553
63958W        W30499   1.207  11.291   3.689
63959W        W30500  32.339  11.323  13.629
63960W        W30501  36.621  21.965  13.049
63961W        W30502  28.178  37.819   1.934
63962W        W30503  12.418  21.580  13.964
63963W        W30504  44.903   0.532   4.153
63964W        W30505  43.808  34.410   3.722
63965W        W30506  16.760   8.399   2.430
63966W        W30507  23.461  22.405   3.708
63967W        W30508  24.171  28.806   3.218
63968W        W30509  26.855   6.347   0.948
63969W        W30510  44.766  16.605  13.406
63970W        W30511  42.544  25.647  12.333
63971W        W30512  15.721  31.613  10.317
63972W        W30513  35.213  19.723   1.723
63973W        W30514  34.771  16.746  14.393
63974W        W30515  43.255   3.608   1.316
63975W        W30516  22.651   9.651   3.132
63976W        W30517   7.791  14.095   3.624
63977W        W30518  43.372   7.767   2.115
63978W        W30519  44.404  26.709   2.354
63979W        W30520   2.602   8.425  11.642
63980W        W30521  12.773  39.173  12.969
63981W        W30522  13.138  16.202   1.902
63982W        W30523   4.897  39.266  11.023
63983W        W30524  44.075  40.789   5.221
63984W        W30525  37.485  12.238  12.688
63985W        W30526  13.611   5.657   0.868
63986W        W30527  26.107   6.849   0.727
63987W        W30528  19.151  13.855   3.749
63988W        W30529  40.590  15.565   1.825
63989W        W30530  29.710   5.765  10.954
63990W        W30531  16.268  11.636  12.451
63991W        W30532  33.402  39.109   0.333
63992W        W30533  21.539   0.900  13.889
63993W        W30534  19.759  15.145   0.378
63994W        W30535  28.446  35.579   1.942
63995W        W30536  25.136   6.336  11.446
63996W        W30537  14.677   7.360   1.967
63997W        W30538  43.978  33.895   1.137
63998W        W30539  28.401  19.529   1.293
63999W        W30540  42.795  15.311  10.988
64000W        W30541   5.680  15.048   1.332
64001W        W30542  13.853  31.435  13.436
64002W        W30543  42.876   0.358   4.401
64003W        W30544  33.659  29.628   3.164
64004W        W30545  14.353  24.539  12.051
64005W        W30546  19.121  10.295  12.018
64006W        W30547  32.922  36.951  11.642
64007W        W30548  40.747  27.063   2.161
64008W        W30549  35.517  40.839  12.374
64009W        W30550   5.088   3.244  14.798
64010W        W30551  42.770  31.944  13.858
64011W        W30552  15.965   3.259   0.783
64012W        W30553  26.780  24.685   4.657
64013W        W30554  32.209  43.722  14.255
64014W        W30555   4.344  29.844  14.743
64015W        W30556  28.409  42.232   1.391
64016W        W30557   6.749  43.064   4.422
64017W        W30558  37.049  37.313  14.955
64018W        W30559  35.647  10.627   4.244
64019W        W30560  39.809  38.843  10.524
64020W        W30561  42.372  35.822   2.326
64021W        W30562  37.002   8.152  11.630
64022W        W30563  15.616  30.102  10.227
64023W        W30564  28.327  12.927  11.239
64024W        W30565   9.745  39.282  14.770
64025W        W30566  36.700  30.957  11.191
64026W        W30567  35.407  31.843  14.569
64027W        W30568  14.568  33.848  11.190
64028W        W30569  13.635  41.079   2.122
64029W        W30570  15.035  35.320   0.820
64030W        W30571   0.690  31.705  13.912
64031W        W30572  27.596  34.513   1.800
64032W        W30573   0.442  43.256   1.199
64033W        W30574  18.410  21.648  13.083
64034W        W30575  18.371  42.300   2.313
64035W        W30576  12.075  25.959   4.155
64036W        W30577  10.283  26.110   1.821
64037W        W30578  10.772  29.529   0.512
64038W        W30579  38.200   2.638   4.400
64039W        W30580  17.745  17.223  12.053
64040W        W30581  29.461  10.730  13.127
64041W        W30582   0.839   7.174   3.139
64042W        W30583  20.627  10.742  14.812
64043W        W30584  34.450  22.534   1.820
64044W        W30585  13.084  38.977   0.315
64045W        W30586  18.715  38.575  11.895
64046W        W30587  16.062  38.024  12.016
64047W        W30588  17.175   2.292  14.491
64048W        W30589  27.413  40.810  14.235
64049W        W30590  17.133  31.951   0.315
64050W        W30591  43.480  30.261  10.788
64051W        W30592  37.867  10.129   1.911
64052W        W30593  25.047  41.701   3.226
64053W        W30594  41.893  25.260   5.087
64054W        W30595  11.037   6.781   4.990
64055W        W30596  41.209   7.053   2.839
64056W        W30597   6.150   7.093  14.356
64057W        W30598  25.986  30.018  13.311
64058W        W30599  33.570  25.372   2.267
64059W        W30600  29.113  40.280  14.855
64060W        W30601  42.045  38.918  14.881
64061W        W30602  20.040  24.952  13.392
64062W        W30603  17.763  15.796  10.453
64063W        W30604  34.344   7.364  14.318
64064W        W30605  16.295   1.383  12.833
64065W        W30606  21.654  23.522  11.880
64066W        W30607   5.430  26.304   2.376
64067W        W30608  17.084  42.439  13.071
64068W        W30609  33.433  11.853  14.417
64069W        W30610  32.096  44.225  12.036
64070W        W30611  22.277  41.917  12.839
64071W        W30612  40.800   5.955  13.835
64072W        W30613  15.450  16.697  13.256
64073W        W30614  30.085  28.675  10.743
64074W        W30615   0.974  16.107  11.922
64075W        W30616  30.351  34.472  13.812
64076W        W30617   2.551   6.038  11.973
64077W        W30618  29.674  36.774  12.952
64078W        W30619  17.498  35.584   1.048
64079W        W30620  20.525  29.679  12.450
64080W        W30621  36.933  43.958   4.596
64081W        W30622  12.677  40.990   4.808
64082W        W30623  24.248   1.413   4.202
64083W        W30624   2.708   1.791   3.086
64084W        W30625   9.463  18.616   3.312
64085W        W30626  17.665  29.376   1.187
64086W        W30627  36.678  36.067   2.803
64087W        W30628  39.768  20.792  14.478
64088W        W30629  19.674  33.128  13.533
64089W        W30630   1.337  21.106  11.419
64090W        W30631  25.846  44.751  11.647
64091W        W30632   2.271   3.214  13.960
64092W        W30633  20.819  14.217  12.885
64093W        W30634  24.805  31.593  13.551
64094W        W30635  25.030  14.135  12.509
64095W        W30636   5.192   6.582   0.801
64096W        W30637   7.927  41.840  13.670
64097W        W30638  16.506  30.132  12.296
64098W        W30639   4.276   3.243   0.456
64099W        W30640   8.907   3.399   2.233
64100W        W30641  35.139   9.756   2.324
64101W        W30642  32.450  25.780  14.571
64102W        W30643  14.547  23.075   3.194
64103W        W30644   8.614  11.204   3.688
64104W        W30645  37.844   6.323  13.958
64105W        W30646  41.409  39.552   0.339
64106W        W30647  10.861   5.869   4.727
64107W        W30648  14.474  18.726  11.521
64108W        W30649  37.003   7.416  10.654
64109W        W30650  23.642  33.190  13.114
64110W        W30651  32.596  42.315   3.876
64111W        W30652  25.333  10.128   1.369
64112W        W30653  35.988  26.959   3.158
64113W        W30654  14.604  34.890   3.837
64114W        W30655  28.405  16.018  13.934
64115W        W30656  28.057  38.248   3.628
64116W        W30657  40.452  35.357   5.068
64117W        W30658   3.354   0.031  14.435
64118W        W30659  43.929  27.886   1.316
64119W        W30660  41.037  35.028  11.528
64120W        W30661   7.275  11.565  13.999
64121W        W30662  38.836  30.119  13.560
64122W        W30663  31.052  37.118   0.394
64123W        W30664  32.803  20.264   3.768
64124W        W30665   0.956  12.556  11.600
64125W        W30666  40.074  16.369  13.516
64126W        W30667   2.724  18.618   0.405
64127W        W30668  23.476  16.471  13.997
64128W        W30669  26.461  11.674  11.213
64129W        W30670   1.009   0.887   3.252
64130W        W30671  24.396  29.753  11.921
64131W        W30672   4.162  44.058  11.946
64132W        W30673  40.866  25.155  12.130
64133W        W30674  19.932  24.117  10.827
64134W        W30675  17.035  36.503   2.314
64135W        W30676   6.502   9.244   1.702
64136W        W30677  28.961  42.524  11.102
64137W        W30678   1.573  23.592   2.374
64138W        W30679  12.776  33.533   4.080
64139W        W30680  44.993  41.103   4.511
64140W        W30681   1.052  26.488  10.468
64141W        W30682  40.871   7.871   0.928
64142W        W30683  36.547  36.961  13.445
64143W        W30684  40.541  31.471  11.536
64144W        W30685   5.953  30.474  14.914
64145W        W30686   6.389   9.382  14.870
64146W        W30687   5.388  26.732   4.550
64147W        W30688  22.285  17.066   0.457
64148W        W30689  39.968  39.637  14.356
64149W        W30690  21.582   7.169  13.407
64150W        W30691   0.273   6.713  14.762
64151W        W30692  14.594  22.020   3.664
64152W        W30693  43.183  20.137   4.720
64153W        W30694  34.107   4.834   1.754
64154W        W30695   2.330  35.628   2.283
64155W        W30696   8.791  31.423   2.869
64156W        W30697  17.602  23.602  14.340
64157W        W30698  32.371  28.078  13.299
64158W        W30699  22.806  15.721   3.331
64159W        W30700  30.410   7.215  14.270
64160W        W30701  38.336   0.323  14.076
64161W        W30702   7.315   8.921   0.086
64162W        W30703  44.289  32.562  12.400
64163W        W30704  34.339  24.693   0.941
64164W        W30705  28.186  31.506  13.014
64165W        W30706  19.229   7.787  13.245
64166W        W30707  31.487  20.561   3.363
64167W        W30708   5.869   8.195   3.253
64168W        W30709  31.598  44.228  11.653
64169W        W30710  23.816   0.960   3.287
64170W        W30711  19.003  20.230   1.895
64171W        W30712  29.493  29.017   1.943
64172W        W30713  35.618   7.005  12.608
64173W        W30714  37.810  30.098  10.740
64174W        W30715  28.561  26.493  10.343
64175W        W30716  27.584  21.545   1.627
64176W        W30717  40.958  21.035   0.683
64177W        W30718  25.014  23.342  12.127
64178W        W30719  22.277  19.651   0.559
64179W        W30720   9.304  39.151   0.954
64180W        W30721  13.131   1.860  11.678
64181W        W30722  19.852  44.725   2.291
64182W        W30723  28.934  40.514  10.713
64183W        W30724  32.122  40.712   3.683
64184W        W30725  38.587   7.409  13.453
64185W        W30726  25.923  13.254  12.523
64186W        W30727  21.326  36.847   2.748
64187W        W30728  42.466   2.587   4.810
64188W        W30729  36.854  27.050   1.237
64189W        W30730  43.971   4.920  12.050
64190W        W30731  41.889  39.186   4.555
64191W        W30732   1.023  27.145   1.254
64192W        W30733   4.013   9.064  11.737
64193W        W30734   5.435  28.870  13.897
64194W        W30735   5.940  19.451   0.660
64195W        W30736  39.434  39.445   0.426
64196W        W30737   4.241  40.326   3.834
64197W        W30738  34.712  27.826   1.937
64198W        W30739  38.974  39.219  12.926
64199W        W30740  12.317   1.441  14.382
64200W        W30741  35.463  32.552   3.692
64201W        W30742  32.725  12.930  12.467
64202W        W30743   8.627  30.422  11.524
64203W        W30744  16.776   4.638   3.732
64204W        W30745   8.687   7.322  13.524
64205W        W30746   7.366  20.530  13.420
64206W        W30747  29.947  18.283   4.708
64207W        W30748   6.310  33.439  14.984
64208W        W30749   8.243   6.900  14.971
64209W        W30750  24.620  31.198  14.372
64210W        W30751  27.072  27.603   1.289
64211W        W30752   1.440  17.846  13.450
64212W        W30753  18.525  24.975   2.268
64213W        W30754  35.583  43.331   1.673
64214W        W30755   4.666  38.804   2.391
64215W        W30756  29.179  34.105  11.207
64216W        W30757  20.436   6.131  13.906
64217W        W30758  20.795  16.693  14.215
64218W        W30759  42.528  22.011   2.243
64219W        W30760  21.477  12.627  12.637
64220W        W30761  36.503  16.982  13.962
64221W        W30762  39.267  18.761  11.070
64222W        W30763  43.772  13.151   3.611
64223W        W30764  10.176  25.280  13.990
64224W        W30765  14.661  37.800  12.106
64225W        W30766   4.871  32.349  11.398
64226W        W30767  15.399  21.194  12.140
64227W        W30768   2.725  32.007   3.783
64228W        W30769  43.320  34.410  11.627
64229W        W30770  20.604  24.482   4.979
64230W        W30771   9.818   5.423   3.678
64231W        W30772  26.661  10.438   2.642
64232W        W30773  39.778  33.029   3.167
64233W        W30774   8.734  16.100   0.865
64234W        W30775   7.452  44.374  11.562
64235W        W30776  10.368  13.570   0.256
64236W        W30777  42.390  23.146   2.604
64237W        W30778  23.245  17.237   1.406
64238W        W30779  19.745  29.068   2.669
64239W        W30780  11.080   2.535  12.033
64240W        W30781  12.964  36.452   4.107
64241W        W30782  19.276  22.791   2.323
64242W        W30783   0.575  21.687   2.778
64243W        W30784  19.065  27.994   1.462
64244W        W30785  36.449  14.990  13.574
64245W        W30786  18.617  39.275  10.703
64246W        W30787  15.633  43.215   4.149
64247W        W30788  36.631  10.864   0.902
64248W        W30789   6.524   4.504  11.242
64249W        W30790  26.696  39.808  13.320
64250W        W30791  44.261  22.694   3.888
64251W        W30792  31.299  28.718  10.198
64252W        W30793  18.184  34.486  14.869
64253W        W30794  18.548  38.091   2.164
64254W        W30795  33.387   8.741  13.116
64255W        W30796  17.656  30.002   3.279
64256W        W30797  26.036  17.031   4.246
64257W        W30798   9.124   0.001   0.497
64258W        W30799  17.039  40.588  14.826
64259W        W30800  39.555   6.046   3.172
64260W        W30801  28.513  43.357  11.306
64261W        W30802  38.751  34.148   4.280
64262W        W30803  13.344  13.357  13.952
64263W        W30804   7.686  21.926   3.299
64264W        W30805  13.333   7.595   4.984
64265W        W30806  21.081  19.028   3.702
64266W        W30807  42.048  44.209  11.567
64267W        W30808   3.173   6.906   0.889
64268W        W30809  14.205  10.276   0.170
64269W        W30810  23.722  23.779  13.921
64270W        W30811  30.401  17.522  12.078
64271W        W30812   4.201  22.781  10.525
64272W        W30813  27.552  29.923   2.331
64273W        W30814  24.456  30.582  13.500
64274W        W30815  20.333  38.727  10.562
64275W        W30816  11.125  17.306   2.118
64276W        W30817  22.773  30.510  12.927
64277W        W30818  19.519  34.060   2.808
64278W        W30819   2.842  34.414   1.258
64279W        W30820  26.132  36.009   3.412
64280W        W30821   4.827  38.482  13.772
64281W        W30822  30.111   8.357  11.136
64282W        W30823  16.465  22.990   3.016
64283W        W30824  11.639   0.859   2.618
64284W        W30825  26.567  29.171   0.513
64285W        W30826  35.897  18.494   2.825
64286W        W30827  40.391   7.351   1.684
64287W        W30828   1.221  12.599   0.854
64288W        W30829  16.857  21.431  13.387
64289W        W30830  25.912  26.052   3.064
64290W        W30831  27.621  33.880  14.475
64291W        W30832  15.635  14.757  12.204
64292W        W30833  28.195  32.925  13.005
64293W        W30834  36.817  22.416  11.469
64294W        W30835  15.683  41.811   4.735
64295W        W30836  30.832  16.471   1.133
64296W        W30837  39.797   9.354   1.002
64297W        W30838   7.704   1.873  12.432
64298W        W30839  11.875   0.310  10.690
64299W        W30840  20.210   2.836  11.124
64300W        W30841   3.753  15.755   4.618
64301W        W30842  25.646  15.844   0.375
64302W        W30843  41.458  43.222  12.215
64303W        W30844  28.947  38.508  14.435
64304W        W30845  23.085  13.931  13.736
64305W        W30846  27.693  30.349   0.747
64306W        W30847   3.406   6.568   2.894
64307W        W30848  20.026  27.824   1.198
64308W        W30849   1.165  10.046   0.848
64309W        W30850  43.461  39.055  13.574
64310W        W30851  12.469  15.376   3.988
64311W        W30852  13.834  23.867   2.778
64312W        W30853  35.945  17.917   0.936
64313W        W30854  14.337  16.106   0.003
64314W        W30855  31.431  23.436   2.285
64315W        W30856   0.214  37.798  14.279
64316W        W30857  41.837  23.163   0.296
64317W        W30858  28.745  22.602  12.394
64318W        W30859  26.814  44.838  12.524
64319W        W30860  29.693   5.793   2.747
64320W        W30861  42.227  13.308   5.075
64321W        W30862  38.243  44.353   4.239
64322W        W30863  16.382   9.186   0.226
64323W        W30864  12.364  41.583   3.229
64324W        W30865  36.253  42.587   1.311
64325W        W30866  29.166   9.101  12.403
64326W        W30867  30.421  13.397   3.537
64327W        W30868   9.830  22.457  11.058
64328W        W30869  31.388  38.577   2.797
64329W        W30870  17.105  36.134   4.544
64330W        W30871  21.227  19.046   4.566
64331W        W30872   6.931   4.497  12.961
64332W        W30873  26.711  26.493  10.720
64333W        W30874  30.202  30.915  11.184
64334W        W30875  43.413  42.998   3.655
64335W        W30876  14.763  27.507  14.795
64336W        W30877   4.338   3.946   5.049
64337W        W30878  23.455  31.017  11.887
64338W        W30879  30.021   7.172   4.410
64339W        W30880   6.854  19.660  10.943
64340W        W30881  29.084   1.733  11.577
64341W        W30882   6.163  23.965  13.955
64342W        W30883  31.591  44.700   3.032
64343W        W30884  16.692  40.975   2.373
64344W        W30885  16.324   0.075   0.043
64345W        W30886  23.468   8.349   3.392
64346W        W30887  44.907  21.702   0.914
64347W        W30888  24.170  43.259   2.881
64348W        W30889  30.540  44.635  11.821
64349W        W30890  27.456  11.398  10.167
64350W        W30891  38.602   7.769  11.618
64351W        W30892  17.105  25.047  14.630
64352W        W30893  42.795  37.347   2.886
64353W        W30894  34.433  11.759   1.518
64354W        W30895   0.365   9.092  14.420
64355W        W30896  36.895  22.603   4.246
64356W        W30897  39.815  43.590  13.990
64357W        W30898  12.922  42.419   1.356
64358W        W30899  37.343  42.951   1.184
64359W        W30900   3.403  37.035   2.135
64360W        W30901  20.295  34.431   0.456
64361W        W30902  25.165  29.571  13.380
64362W        W30903  20.509  32.883   3.618
64363W        W30904  20.001  21.253  12.329
64364W        W30905  26.546  42.237  11.062
64365W        W30906   9.867   1.532   4.939
64366W        W30907  33.926  18.119   2.791
64367W        W30908  13.666  18.928  11.473
64368W        W30909   6.801  38.960   1.124
64369W        W30910  42.659  24.014   0.331
64370W        W30911   7.358  31.953   1.410
64371W        W30912  34.095   5.901   0.239
64372W        W30913  16.119  39.516  12.364
64373W        W30914  33.362  22.414  13.904
64374W        W30915  38.441  35.094   0.965
64375W        W30916  35.173  10.605  14.404
64376W        W30917  31.924  27.720   3.306
64377W        W30918  35.189   7.305  11.022
64378W        W30919   4.870  29.396   3.289
64379W        W30920   8.206  24.253   1.403
64380W        W30921  40.890  15.656  11.641
64381W        W30922  11.376  38.386   5.599
64382W        W30923  35.979   7.242  10.671
64383W        W30924  42.253  40.475   0.307
64384W        W30925   2.864  19.695  12.344
64385W        W30926   4.707  26.060  14.400
64386W        W30927  38.901  12.861  14.022
64387W        W30928  40.585  18.845  12.133
64388W        W30929   0.373  38.059  11.363
64389W        W30930   0.697  25.248  11.022
64390W        W30931  20.757  43.012   0.478
64391W        W30932   4.644  14.541   3.750
64392W        W30933  21.076  29.230  12.971
64393W        W30934  43.379  28.878  13.387
64394W        W30935   2.697   6.224   2.852
64395W        W30936  14.832   8.277   1.057
64396W        W30937  25.767  35.810  14.922
64397W        W30938  15.964  24.524  14.959
64398W        W30939  31.126  41.821  10.648
64399W        W30940   6.900   6.888   2.337
64400W        W30941  10.854  34.373  11.290
64401W        W30942  28.468   9.863  13.044
64402W        W30943  35.896  39.485   2.389
64403W        W30944  43.903  29.931  14.102
64404W        W30945  26.998  36.407   1.416
64405W        W30946  28.221  24.541  11.478
64406W        W30947   9.153  30.871  10.753
64407W        W30948  21.114  41.787   1.313
64408W        W30949   0.042  44.375   2.187
64409W        W30950  14.559  26.764   3.784
64410W        W30951  41.799  11.540  14.441
64411W        W30952  42.969   9.797   2.866
64412W        W30953  37.045  24.058  14.449
64413W        W30954  43.264  25.669   1.886
64414W        W30955  34.034  33.138   1.404
64415W        W30956  20.032  13.078   1.605
64416W        W30957  41.889  40.536   4.327
64417W        W30958  30.033   2.731  13.412
64418W        W30959  32.450  10.926  10.722
64419W        W30960  15.337  13.706  10.726
64420W        W30961  22.750   4.950   2.688
64421W        W30962  16.537  13.520   4.756
64422W        W30963  38.702   8.661   0.448
64423W        W30964  36.001   9.648  13.062
64424W        W30965  44.799  39.808   0.281
64425W        W30966  35.538  44.406  14.385
64426W        W30967  14.104  43.432  12.949
64427W        W30968  31.291  39.858  11.985
64428W        W30969   2.946  28.973  13.611
64429W        W30970  11.546  35.629   4.172
64430W        W30971  44.705   2.564   0.668
64431W        W30972   5.959  35.363   3.950
64432W        W30973  18.551  39.444   3.760
64433W        W30974   8.097  25.552  13.408
64434W        W30975   5.963  38.669   4.672
64435W        W30976   5.732   7.824   0.691
64436W        W30977  32.036   2.600  12.622
64437W        W30978  12.533  15.717   1.290
64438W        W30979   4.843  15.264  14.308
64439W        W30980  23.761   8.687  14.432
64440W        W30981  16.728  17.133  12.356
64441W        W30982  38.116   8.931   4.058
64442W        W30983  26.977  42.253   1.793
64443W        W30984  20.042  38.741  12.382
64444W        W30985  31.601  31.871  14.991
64445W        W30986  14.089  27.679  12.432
64446W        W30987  25.751  27.475   0.824
64447W        W30988   8.637  37.053   0.465
64448W        W30989  15.526  12.163   4.262
64449W        W30990  32.556  26.590  10.735
64450W        W30991  34.187   1.844   1.871
64451W        W30992  32.154   4.853   1.719
64452W        W30993  35.389  28.230  10.713
64453W        W30994  25.681  22.825   1.380
64454W        W30995  39.569  10.136  13.965
64455W        W30996  30.175   9.644   0.286
64456W        W30997  16.640  34.018  10.606
64457W        W30998  13.207   6.618  14.530
64458W        W30999  17.653   6.766   3.588
64459W        W31000  32.755  25.762  12.030
64460W        W31001  30.042  21.475  14.754
64461W        W31002  32.149   0.326   4.154
64462W        W31003  39.560  21.623   1.924
64463W        W31004  34.134  29.122  12.340
64464W        W31005  39.390  25.049   0.310
64465W        W31006  23.149  15.067  13.060
64466W        W31007  44.563   7.436   3.719
64467W        W31008   7.329  35.089   4.278
64468W        W31009  39.069  39.002  11.537
64469W        W31010  22.573  27.665  12.923
64470W        W31011   1.828   8.323  13.835
64471W        W31012  30.534  40.125  12.999
64472W        W31013   9.690  39.656   2.362
64473W        W31014   2.285  38.913  11.122
64474W        W31015   3.249  23.442  14.497
64475W        W31016  32.928  38.566  14.995
64476W        W31017  12.777   6.962  12.116
64477W        W31018  17.889  20.013   4.242
64478W        W31019   9.346  27.409  12.001
64479W        W31020  11.629   5.786   0.565
64480W        W31021   9.794   2.254   1.942
64481W        W31022  29.285  12.903  11.590
64482W        W31023   8.306  22.647   0.694
64483W        W31024  21.325  41.290  11.224
64484W        W31025  19.320  16.448   3.599
64485W        W31026   3.199  33.571  13.403
64486W        W31027   4.923  12.419   4.983
64487W        W31028  24.830  22.297  14.944
64488W        W31029  24.156  14.905   1.773
64489W        W31030  33.177  25.909  10.711
64490W        W31031  29.475  41.403  10.655
64491W        W31032  26.595  41.475  10.592
64492W        W31033  17.122  28.428   3.751
64493W        W31034  11.594  41.492  11.059
64494W        W31035   1.415  14.965   1.189
64495W        W31036  19.783  34.459  12.856
64496W        W31037  11.497  26.112  13.558
64497W        W31038  13.757  42.931   4.256
64498W        W31039  34.437   8.931   4.124
64499W        W31040  37.986  29.134   0.902
64500W        W31041  26.978   4.400   2.814
64501W        W31042  13.488   2.985   4.035
64502W        W31043  10.834  38.053   1.187
64503W        W31044  15.356  37.153   2.912
64504W        W31045  35.261  41.764  13.994
64505W        W31046   5.377  15.060  12.498
64506W        W31047  28.607  26.003  11.569
64507W        W31048  30.025  44.278   1.346
64508W        W31049  15.112   4.318   1.687
64509W        W31050  12.205  28.682   2.165
64510W        W31051   2.042  30.235  13.788
64511W        W31052  32.597   9.450   1.478
64512W        W31053  15.228  10.391  14.357
64513W        W31054  19.068  41.861  11.709
64514W        W31055  10.817  27.948  11.380
64515W        W31056  31.084  16.650  14.284
64516W        W31057  16.220   9.766  12.604
64517W        W31058   3.637  29.569   2.898
64518W        W31059  31.564  38.758   3.586
64519W        W31060  32.481  22.975  11.106
64520W        W31061  18.108   1.002   0.809
64521W        W31062  19.090  10.591   1.981
64522W        W31063   8.798  16.886   3.277
64523W        W31064  14.970  19.146  13.708
64524W        W31065  36.742   5.926   2.279
64525W        W31066  28.426  18.779   3.093
64526W        W31067  10.170  20.626   4.557
64527W        W31068  38.843   8.376   0.881
64528W        W31069  40.099   3.931  11.928
64529W        W31070  42.307  34.999  11.159
64530W        W31071  16.147  41.805  11.144
64531W        W31072  22.840  24.235  11.114
64532W        W31073  13.821  37.389  14.867
64533W        W31074   0.159  31.003  13.890
64534W        W31075  17.226  44.033   3.878
64535W        W31076  18.722   6.944  10.636
64536W        W31077  22.112  16.862   2.408
64537W        W31078  31.332   4.912   0.430
64538W        W31079  30.176  19.579   2.817
64539W        W31080  13.765  19.501  13.951
64540W        W31081  35.536  24.075  10.782
64541W        W31082  13.726  43.904   3.469
64542W        W31083  26.468  33.891  14.243
64543W        W31084  40.988   7.373   4.157
64544W        W31085   3.609  16.662  12.511
64545W        W31086   5.696  36.967   0.977
64546W        W31087  18.032  21.300  12.514
64547W        W31088  41.964  14.622  10.764
64548W        W31089  32.219  14.706   3.840
64549W        W31090  42.727   6.104  14.891
64550W        W31091  20.186  31.906  11.407
64551W        W31092  32.908  14.472   2.616
64552W        W31093  11.706  27.131   4.583
64553W        W31094  14.114   0.240   0.574
64554W        W31095   9.721  38.292  14.995
64555W        W31096   0.822   9.592  14.930
64556W        W31097  28.197  11.798  13.971
64557W        W31098  10.684  14.850  11.895
64558W        W31099  14.889  13.022   4.036
64559W        W31100  14.277   6.489  13.750
64560W        W31101  22.010  15.802  10.669
64561W        W31102   0.884  43.574  10.980
64562W        W31103  38.582   1.820   4.336
64563W        W31104  16.510   1.349  11.045
64564W        W31105  22.821  29.618  11.972
64565W        W31106  13.208  27.962   2.354
64566W        W31107   6.740   1.146  13.455
64567W        W31108   5.179  41.387  11.956
64568W        W31109   0.506  38.576  10.659
64569W        W31110  32.969   2.109  12.951
64570W        W31111   3.655  24.082  11.816
64571W        W31112  35.547  42.991  12.693
64572W        W31113  16.208   1.532   2.053
64573W        W31114   9.142  10.694   3.752
64574W        W31115  23.820  27.971   4.799
64575W        W31116  18.692  22.945  14.869
64576W        W31117  27.355  12.657  14.465
64577W        W31118  21.940  32.623   0.344
64578W        W31119   4.211   3.420   3.264
64579W        W31120  20.312  32.053   4.420
64580W        W31121  22.083   4.677  14.416
64581W        W31122  38.472  29.085   1.119
64582W        W31123   0.671   8.726   4.479
64583W        W31124  27.535  41.085   4.318
64584W        W31125  42.281   1.867  11.276
64585W        W31126  36.560  25.627   3.286
64586W        W31127  34.537  30.161   1.219
64587W        W31128  44.245  19.039   0.574
64588W        W31129   9.230  39.326  12.629
64589W        W31130   8.101  32.326   1.826
64590W        W31131  43.523  16.928  11.950
64591W        W31132  17.972   9.901  13.482
64592W        W31133  20.402   5.309  11.723
64593W        W31134  15.396  34.032  13.310
64594W        W31135  25.203   0.254   0.122
64595W        W31136   8.204  17.861   0.906
64596W        W31137  19.093  25.765   3.233
64597W        W31138   5.842  15.301  12.478
64598W        W31139  44.794  42.246  13.600
64599W        W31140   7.830  43.064   3.185
64600W        W31141  11.679  12.589  12.943
64601W        W31142  20.045  34.910   0.655
64602W        W31143  31.848  33.022   4.249
64603W        W31144  39.268  36.227   1.795
64604W        W31145  44.221  37.517  10.221
64605W        W31146  41.008   5.198  13.447
64606W        W31147   4.409   7.017  12.815
64607W        W31148  41.710   5.823   3.781
64608W        W31149   4.193  13.186  10.770
64609W        W31150  39.402   2.047  13.455
64610W        W31151  23.185  24.426  12.970
64611W        W31152  37.464  17.589   3.528
64612W        W31153  42.059   3.224  11.973
64613W        W31154  11.373  18.286   3.577
64614W        W31155   4.902   5.571   4.946
64615W        W31156  22.164  33.401   2.909
64616W        W31157  11.589  28.892  11.490
64617W        W31158  33.425  10.559   4.587
64618W        W31159   3.387  13.687   4.223
64619W        W31160  39.293  25.159  13.075
64620W        W31161  39.352  42.141   2.266
64621W        W31162  18.184  29.936  10.481
64622W        W31163  41.800   2.381  10.752
64623W        W31164  19.633  33.459   3.555
64624W        W31165  18.193   6.870   0.465
64625W        W31166  35.040   1.438   1.643
64626W        W31167  26.741  25.108  12.440
64627W        W31168   5.984  31.209   0.345
64628W        W31169   1.783  37.788   4.195
64629W        W31170  19.010   7.375   1.050
64630W        W31171  21.576   2.062  10.784
64631W        W31172  38.639  20.476  10.711
64632W        W31173  18.740  14.836   3.544
64633W        W31174   3.896  18.232   1.722
64634W        W31175  10.291  39.604  14.182
64635W        W31176  34.634  31.974  11.312
64636W        W31177  18.988  21.538  14.818
64637W        W31178  27.477  22.411   4.160
64638W        W31179   3.427  10.755   2.833
64639W        W31180  11.779  19.969   3.627
64640W        W31181   4.824   4.550  10.207
64641W        W31182  33.481  34.629  13.831
64642W        W31183   6.298  36.012  13.879
64643W        W31184  36.082  21.052  13.945
64644W        W31185  13.129  15.737   9.990
64645W        W31186  26.210  44.119   2.185
64646W        W31187   9.827   6.821   2.419
64647W        W31188  24.763  21.772   0.842
64648W        W31189  38.037  43.472   3.333
64649W        W31190  34.071  26.952   1.355
64650W        W31191  31.585  30.005  10.732
64651W        W31192  27.549   4.120   4.572
64652W        W31193  30.711  10.126  12.981
64653W        W31194  19.244  34.040   2.323
64654W        W31195  24.216  44.268   3.270
64655W        W31196   5.398  30.575  12.773
64656W        W31197   8.384  11.173  11.940
64657W        W31198  35.645  31.774  13.076
64658W        W31199   3.317  14.218   4.324
64659W        W31200  41.523  17.108   3.613
64660W        W31201  13.270  19.671   3.647
64661W        W31202  44.544  17.285  11.244
64662W        W31203  19.736  37.891   4.573
64663W        W31204  42.367  39.758   4.579
64664W        W31205   8.274  29.082  13.939
64665W        W31206  35.452  15.777  13.936
64666W        W31207   2.744  13.208   3.085
64667W        W31208  26.667  31.493   1.865
64668W        W31209   4.661  27.951   2.161
64669W        W31210  19.325  42.257  11.394
64670W        W31211  41.826  10.952  10.725
64671W        W31212  12.180  21.482  11.247
64672W        W31213  41.295  35.241   3.873
64673W        W31214  15.884   0.331   3.139
64674W        W31215  44.342  30.078   3.224
64675W        W31216  12.433  43.439  10.746
64676W        W31217  34.661  24.528   4.375
64677W        W31218  38.815  25.935  13.015
64678W        W31219  24.960   3.119   2.165
64679W        W31220  44.969  11.468   1.726
64680W        W31221  32.142   0.811  13.413
64681W        W31222  21.508  25.504  14.982
64682W        W31223  16.178   1.883   0.553
64683W        W31224  20.512  13.262  11.115
64684W        W31225  10.938   6.463  12.050
64685W        W31226  44.121  16.615   4.761
64686W        W31227  10.544  29.122  12.918
64687W        W31228  31.327  20.758  13.831
64688W        W31229  21.783  17.036   4.550
64689W        W31230  43.821  28.390   1.401
64690W        W31231  26.260   6.841  14.828
64691W        W31232   8.711   7.801  12.105
64692W        W31233   8.870  20.555  11.397
64693W        W31234  40.048   1.527  12.139
64694W        W31235  31.644  36.962   0.983
64695W        W31236  39.573  39.989   2.309
64696W        W31237  15.560  29.546   4.589
64697W        W31238  11.159  41.302   1.748
64698W        W31239  21.171  33.379  13.459
64699W        W31240  14.255  22.340   2.750
64700W        W31241  16.092  13.497   0.496
64701W        W31242  15.627  26.004   1.499
64702W        W31243   1.677  40.017   1.449
64703W        W31244  23.739  44.242   1.816
64704W        W31245  25.030  33.540  14.697
64705W        W31246  11.294  36.131   4.744
64706W        W31247  34.904  19.475  13.943
64707W        W31248  20.149   7.002  10.326
64708W        W31249   1.171   3.660   3.693
64709W        W31250  22.109  28.785  14.054
64710W        W31251  42.088  30.017   2.195
64711W        W31252  29.882  15.252   2.206
64712W        W31253  39.250  36.365  13.025
64713W        W31254  33.821  28.006  10.707
64714W        W31255  30.453  15.186   0.725
64715W        W31256  30.084   2.913   3.639
64716W        W31257  27.160  28.190  12.379
64717W        W31258  38.511   7.374   4.770
64718W        W31259  37.140  44.005   4.134
64719W        W31260  39.463   0.236  11.387
64720W        W31261  35.139  13.570  12.518
64721W        W31262   5.758   1.778  13.954
64722W        W31263  15.975  26.660   2.333
64723W        W31264  11.187  11.555   0.444
64724W        W31265   3.734  36.284   2.211
64725W        W31266  24.212  16.306   0.311
64726W        W31267  21.616  36.089   2.351
64727W        W31268   4.402  21.708  14.253
64728W        W31269  21.076  23.530  11.116
64729W        W31270   5.948  11.900   1.254
64730W        W31271  13.626  31.162  13.822
64731W        W31272  38.141  35.588   1.292
64732W        W31273  19.676  25.404   0.439
64733W        W31274   3.938   5.662   3.061
64734W        W31275   1.821   2.382   0.714
64735W        W31276  14.347  10.603  13.749
64736W        W31277  40.187  22.446  12.842
64737W        W31278  37.845   5.176   3.610
64738W        W31279   4.251  41.206   0.816
64739W        W31280  24.525  10.546  10.341
64740W        W31281   1.801  34.569   0.242
64741W        W31282   7.311  14.137  11.968
64742W        W31283  40.381  17.064  14.854
64743W        W31284   0.192  32.921  11.667
64744W        W31285  24.186  13.864   1.846
64745W        W31286  35.974  15.699  10.707
64746W        W31287   0.373  16.228   0.291
64747W        W31288  33.141   2.869  14.329
64748W        W31289  23.237  35.371  12.080
64749W        W31290  39.982  26.774   2.827
64750W        W31291  17.565  41.646   0.481
64751W        W31292  32.558  41.917  12.501
64752W        W31293  17.091  40.852  14.373
64753W        W31294  14.097  42.340   2.751
64754W        W31295  30.085  11.827   9.517
64755W        W31296  26.685   2.658  13.039
64756W        W31297  33.489  33.660  13.969
64757W        W31298  34.019   1.294  14.409
64758W        W31299  11.420   2.181  13.382
64759W        W31300  18.121   8.744  10.924
64760W        W31301  42.884   1.012   0.800
64761W        W31302  16.759  32.159   2.180
64762W        W31303  41.366  20.780  14.042
64763W        W31304  44.109  25.969  13.039
64764W        W31305  19.708  33.595   2.727
64765W        W31306   9.683  36.786   2.828
64766W        W31307  34.346  41.839   1.250
64767W        W31308  27.510  10.701   2.848
64768W        W31309   6.218  29.509   3.242
64769W        W31310  23.445   2.756   4.145
64770W        W31311   1.268  29.171  12.822
64771W        W31312   3.250  22.974  12.840
64772W        W31313   2.311  31.214  13.649
64773W        W31314  36.219  27.833  12.127
64774W        W31315   0.737  43.265  14.838
64775W        W31316  16.197   1.283  12.335
64776W        W31317   7.731  32.196  11.952
64777W        W31318  35.316  30.968  10.716
64778W        W31319  39.136   7.225  12.100
64779W        W31320  25.720  41.361   9.737
64780W        W31321  40.912  16.951  11.137
64781W        W31322  23.482  41.885  13.529
64782W        W31323   0.860  22.365   4.176
64783W        W31324  25.684   2.373  13.902
64784W        W31325  10.850  25.604  12.057
64785W        W31326  14.490  19.166   4.136
64786W        W31327  36.692   3.380   4.992
64787W        W31328  38.122   8.674   4.500
64788W        W31329  13.645  26.269   1.508
64789W        W31330  29.567  34.338   4.611
64790W        W31331  18.756  13.907   1.246
64791W        W31332  18.574  40.421  13.645
64792W        W31333  20.678   4.337   2.771
64793W        W31334  28.991  24.804   1.821
64794W        W31335   1.479  29.153   3.329
64795W        W31336  36.618  27.520   2.810
64796W        W31337   0.981  22.139  11.240
64797W        W31338  14.854  43.788   2.633
64798W        W31339  34.522  14.590   3.897
64799W        W31340  12.622  11.178   1.282
64800W        W31341  23.513  12.581   1.878
64801W        W31342  41.841  42.527   1.759
64802W        W31343  20.318   0.827  14.049
64803W        W31344  35.635   4.260   1.146
64804W        W31345  11.186   4.614   1.063
64805W        W31346   6.437  18.838   4.045
64806W        W31347   6.716  33.916   1.275
64807W        W31348  30.093  18.724   4.429
64808W        W31349   0.968   2.065   0.285
64809W        W31350   1.474  23.705  14.371
64810W        W31351  29.848  41.267  13.636
64811W        W31352  11.445  19.974   0.989
64812W        W31353  17.522  24.095  10.676
64813W        W31354  21.773  14.353  10.773
64814W        W31355  20.286  23.687  14.059
64815W        W31356  15.541  12.636  14.891
64816W        W31357  36.821  30.649   0.685
64817W        W31358   9.783  28.886   0.752
64818W        W31359  38.575   4.221   3.733
64819W        W31360  21.996   0.274  11.565
64820W        W31361   0.362  42.831   2.152
64821W        W31362  35.975   4.058  11.353
64822W        W31363  37.046  33.490  11.276
64823W        W31364  27.492  19.981   1.302
64824W        W31365  42.418  34.104   1.057
64825W        W31366  28.220  21.700  11.455
64826W        W31367  22.080   2.390   3.322
64827W        W31368   5.983  19.649  10.434
64828W        W31369  35.824  37.804   4.826
64829W        W31370  39.574  12.595   0.322
64830W        W31371  26.145  12.364   1.472
64831W        W31372  32.381  40.457   2.835
64832W        W31373  22.817   5.212   0.901
64833W        W31374  31.486  40.008  13.311
64834W        W31375   3.745   0.510   2.965
64835W        W31376  38.878   9.205   4.031
64836W        W31377  28.849   8.649  12.507
64837W        W31378   7.818  40.762  14.275
64838W        W31379  19.174  12.507   3.258
64839W        W31380  20.320  21.108   3.626
64840W        W31381  30.535   7.082   3.109
64841W        W31382   7.595  38.295  13.488
64842W        W31383  33.867  15.112   3.684
64843W        W31384  44.951   7.188   2.387
64844W        W31385  30.664   0.488   4.307
64845W        W31386  28.160   6.717  12.590
64846W        W31387   6.436  17.568   2.308
64847W        W31388  11.824   3.121  10.289
64848W        W31389  38.506  22.350  13.034
64849W        W31390  17.176   6.795   0.548
64850W        W31391  24.692  38.098   3.290
64851W        W31392   0.822  38.092   3.687
64852W        W31393   8.974  40.597   4.470
64853W        W31394  23.543  33.683  12.962
64854W        W31395  41.054  25.720  14.828
64855W        W31396  25.073  28.659  12.869
64856W        W31397  23.676   7.798  13.821
64857W        W31398  17.821   4.387  14.345
64858W        W31399  31.723  21.145  14.575
64859W        W31400  16.329  27.701   0.003
64860W        W31401  30.318   9.184   4.210
64861W        W31402   9.130   1.890  14.899
64862W        W31403  14.274   4.198   2.803
64863W        W31404   0.970  12.233   1.337
64864W        W31405  39.438  13.813  13.512
64865W        W31406  29.011  23.982  12.321
64866W        W31407  33.571   1.460   5.525
64867W        W31408  40.067  19.630   1.681
64868W        W31409   8.317   6.359  13.849
64869W        W31410  10.188  16.057   0.375
64870W        W31411  32.108  44.153  11.521
64871W        W31412  12.866  25.080   2.397
64872W        W31413  23.598  39.525  14.798
64873W        W31414  41.771  15.322  12.955
64874W        W31415  40.351  38.814  11.679
64875W        W31416   6.153  18.390  10.226
64876W        W31417  16.703  22.613   1.883
64877W        W31418   3.751  27.190  12.868
64878W        W31419  15.333  23.823  13.629
64879W        W31420  24.532  21.306  11.613
64880W        W31421   3.933  15.680  14.056
64881W        W31422  40.493  16.850  13.846
64882W        W31423  11.158  44.431  11.960
64883W        W31424  44.235   2.232   2.164
64884W        W31425  34.443  41.092   1.792
64885W        W31426  21.721   4.224   2.339
64886W        W31427  20.684  28.401  12.887
64887W        W31428  40.535   5.933  14.287
64888W        W31429  32.147  12.703  14.881
64889W        W31430   2.547   7.704   0.795
64890W        W31431  43.980   4.754   2.739
64891W        W31432  33.391  38.420  12.236
64892W        W31433  21.270  14.328  14.444
64893W        W31434  20.765   1.825  11.312
64894W        W31435  35.323   6.391   0.192
64895W        W31436  12.791  44.214   4.950
64896W        W31437   3.330  22.776   4.269
64897W        W31438  25.012  27.548   1.292
64898W        W31439  22.155  33.395   3.441
64899W        W31440  28.568  26.551  14.317
64900W        W31441   5.340  14.157   5.032
64901W        W31442   4.957  38.913  14.884
64902W        W31443   6.171  15.868   0.355
64903W        W31444  26.520  44.929  12.122
64904W        W31445   5.022  37.008   4.716
64905W        W31446  22.644  13.695   3.401
64906W        W31447  33.525   9.306   1.246
64907W        W31448   6.368  40.206   1.299
64908W        W31449  15.397  34.525  11.594
64909W        W31450  25.800  25.774   4.324
64910W        W31451  12.812   2.124  11.982
64911W        W31452  41.049  13.055  14.048
64912W        W31453  35.316  31.979  10.816
64913W        W31454  36.485  13.237  13.279
64914W        W31455  35.929  37.264  13.598
64915W        W31456  31.938   9.732  10.256
64916W        W31457  11.351   2.303   2.330
64917W        W31458   3.170  15.787   0.416
64918W        W31459  29.059  43.400   0.230
64919W        W31460  42.732   3.441  12.673
64920W        W31461  40.775  23.822   0.097
64921W        W31462  27.384  31.188   3.863
64922W        W31463  18.888  16.016  14.364
64923W        W31464  41.043  31.886   2.692
64924W        W31465  37.024  18.753  11.589
64925W        W31466  16.279  27.249  12.894
64926W        W31467  11.821  35.098   0.900
64927W        W31468  35.194  22.517  11.296
64928W        W31469  35.498  13.029   3.764
64929W        W31470  37.791  26.114  12.235
64930W        W31471  34.132  19.736  13.447
64931W        W31472   3.243  11.426   3.745
64932W        W31473   7.308  22.286   3.358
64933W        W31474  34.444  24.196  12.493
64934W        W31475   4.311   4.476  13.574
64935W        W31476  18.992   8.283  11.278
64936W        W31477  18.374  28.039   4.178
64937W        W31478  25.012  43.868   4.614
64938W        W31479  30.646  15.006  10.925
64939W        W31480  26.619   3.260   2.851
64940W        W31481   5.509  24.157  11.963
64941W        W31482  12.428   5.296   4.669
64942W        W31483   4.811  14.581  12.990
64943W        W31484  37.910  15.476  13.201
64944W        W31485   6.868  21.562   4.125
64945W        W31486  34.622  23.250  13.565
64946W        W31487  30.148   7.702  14.261
64947W        W31488   6.765  17.340  12.196
64948W        W31489  15.863  27.725  14.814
64949W        W31490   9.474  43.199  14.400
64950W        W31491  18.164  32.827   1.352
64951W        W31492  40.934  30.917   2.293
64952W        W31493   6.768   2.767   4.132
64953W        W31494  24.685  43.741   2.300
64954W        W31495  25.054   5.392  14.903
64955W        W31496  11.636  30.576   2.408
64956W        W31497  32.043  12.893   1.263
64957W        W31498  32.764  39.976   3.820
64958W        W31499  10.930  25.333   3.361
64959W        W31500  12.413   5.136   3.809
64960W        W31501  42.479  27.603  10.757
64961W        W31502  16.664  16.094   2.816
64962W        W31503  21.218   7.418  12.626
64963W        W31504  24.511   8.164  13.590
64964W        W31505   1.373   7.060  12.504
64965W        W31506  28.074   4.007   2.769
64966W        W31507  42.714   4.334  11.892
64967W        W31508  38.869  22.561   3.290
64968W        W31509   4.739  22.639  10.468
64969W        W31510  16.697   8.380  12.517
64970W        W31511   8.218  24.818   3.042
64971W        W31512  21.124  27.551   0.793
64972W        W31513   7.163  43.233  11.220
64973W        W31514  34.013   8.659   4.246
64974W        W31515  16.784  42.720   5.043
64975W        W31516  10.639   0.521  14.860
64976W        W31517  34.492  31.280   0.602
64977W        W31518  31.479  22.064  14.099
64978W        W31519  37.762  13.603  13.149
64979W        W31520   0.932  29.142   0.184
64980W        W31521  42.842  17.347  13.755
64981W        W31522  27.623  18.069  11.617
64982W        W31523  13.873  20.576  13.822
64983W        W31524   3.240  44.602  13.648
64984W        W31525  29.293   4.774   4.687
64985W        W31526  30.574  15.250   3.534
64986W        W31527   8.815  41.087   4.298
64987W        W31528  25.229  19.423  13.520
64988W        W31529  18.139  20.762  13.309
64989W        W31530  24.980  25.225   4.143
64990W        W31531  22.024  30.391  14.462
64991W        W31532  10.340   7.921  12.142
64992W        W31533   5.709  43.611  12.166
64993W        W31534   2.751  27.919  14.597
64994W        W31535   9.203  11.324   3.088
64995W        W31536   6.209  38.370  11.476
64996W        W31537  17.143   2.463  12.992
64997W        W31538  23.226   4.429   4.517
64998W        W31539  18.281  37.764   2.854
64999W        W31540  38.868  26.344  11.520
65000W        W31541   9.817  34.735   0.316
65001W        W31542  14.797  17.776  12.129
65002W        W31543  39.092  23.656  11.136
65003W        W31544  42.556  18.739  12.985
65004W        W31545  13.824  12.696   2.630
65005W        W31546  42.616  37.493  10.665
65006W        W31547  42.991  17.780  14.669
65007W        W31548  34.391   4.961   5.341
65008W        W31549  12.068   7.425  11.208
65009W        W31550  27.202  23.155  10.994
65010W        W31551  17.026  18.835  12.975
65011W        W31552   3.137   9.416   3.590
65012W        W31553  38.438  13.523   1.247
65013W        W31554  28.103   4.688   1.517
65014W        W31555  26.258   9.417  13.935
65015W        W31556  34.065  24.229  11.199
65016W        W31557  30.634  13.605  11.019
65017W        W31558  40.996  34.363  11.218
65018W        W31559  35.632  43.992  13.442
65019W        W31560  11.773  24.594   1.379
65020W        W31561  34.200  36.402  12.017
65021W        W31562   1.503  36.501   1.134
65022W        W31563  14.320  40.101  13.506
65023W        W31564  10.674  18.706   0.345
65024W        W31565  17.054  31.475   0.529
65025W        W31566  16.191  28.761  13.118
65026W        W31567  43.990   1.022  13.893
65027W        W31568  27.596  12.580  13.055
65028W        W31569  33.396  33.498  10.381
65029W        W31570  33.977  30.941   4.765
65030W        W31571  30.471  16.364   4.554
65031W        W31572  24.011  15.675  10.768
65032W        W31573  23.952  35.824  14.129
65033W        W31574  18.402   2.237  10.774
65034W        W31575  41.874  33.937   0.306
65035W        W31576  16.682  13.417  11.979
65036W        W31577  29.154  34.800   2.142
65037W        W31578  26.913  34.638   4.474
65038W        W31579  17.858  27.393  12.452
65039W        W31580  35.010  43.739  11.119
65040W        W31581   4.076  23.123   1.382
65041W        W31582  10.898  14.140   0.039
65042W        W31583  39.484  33.966  14.531
65043W        W31584  15.693  25.562   0.269
65044W        W31585  34.383  17.910   1.729
65045W        W31586   6.936  15.213   2.113
65046W        W31587  21.296  40.217  14.327
65047W        W31588  31.058   5.741   2.913
65048W        W31589  44.029  25.510   3.740
65049W        W31590   2.231   3.469   1.802
65050W        W31591   0.917  37.498   2.744
65051W        W31592  28.857  20.103   3.650
65052W        W31593  20.638  42.129   1.734
65053W        W31594   6.157  31.646  11.080
65054W        W31595  44.270  28.446  11.779
65055W        W31596  31.918  37.450  14.410
65056W        W31597  34.059   2.494   3.081
65057W        W31598  31.609   1.726  11.912
65058W        W31599  43.672  13.821  10.939
65059W        W31600  11.907   1.275   2.795
65060W        W31601  16.314  44.252   1.753
65061W        W31602  38.179  38.064   1.734
65062W        W31603  44.203  28.647  13.128
65063W        W31604  40.277  12.286  14.881
65064W        W31605   0.932  43.497   1.305
65065W        W31606  24.510  38.042   2.741
65066W        W31607  24.450  34.027   4.154
65067W        W31608  13.396  12.813  14.481
65068W        W31609  31.055  29.728   3.066
65069W        W31610   1.807  24.673  14.263
65070W        W31611  16.568  23.475   1.297
65071W        W31612   6.985  16.711   4.291
65072W        W31613   1.728   7.747   3.273
65073W        W31614  32.552  29.479   4.886
65074W        W31615  19.103  38.013   3.328
65075W        W31616   0.747   6.254  12.193
65076W        W31617  34.651  14.250  12.907
65077W        W31618  36.390  42.822   4.960
65078W        W31619  39.310  16.298   1.691
65079W        W31620  12.928  15.312  14.226
65080W        W31621  29.138  31.659  11.562
65081W        W31622  39.360  37.567   9.925
65082W        W31623   8.339  17.579  11.062
65083W        W31624  44.276  43.691  14.888
65084W        W31625  31.060   6.148  11.522
65085W        W31626  12.388  38.864  12.228
65086W        W31627  36.403  43.776  11.758
65087W        W31628  34.534  15.471   4.891
65088W        W31629  26.960  11.308  12.915
65089W        W31630   7.650  30.084  11.096
65090W        W31631  27.700  41.504   0.871
65091W        W31632  20.561  17.276   0.902
65092W        W31633   4.788  38.043  14.725
65093W        W31634  17.112  13.840  13.259
65094W        W31635  36.518  18.269   2.129
65095W        W31636   8.270  26.938   1.238
65096W        W31637  12.746  39.419   1.151
65097W        W31638  37.819   2.795  12.927
65098W        W31639  18.616  40.028   2.863
65099W        W31640  15.208   4.379   4.587
65100W        W31641  22.664  42.940  13.044
65101W        W31642  38.222  22.259   0.859
65102W        W31643  16.008  43.011  10.676
65103W        W31644  18.219  30.448   4.690
65104W        W31645   3.509   3.942  13.969
65105W        W31646   9.353  23.192   1.298
65106W        W31647   8.576  18.134  13.762
65107W        W31648  12.387   3.287  11.533
65108W        W31649  19.593   7.486  11.562
65109W        W31650   2.243  10.378   0.231
65110W        W31651  23.648  22.803   2.933
65111W        W31652  30.381  24.824  14.163
65112W        W31653  44.854  34.819  14.403
65113W        W31654   5.349  44.748  12.962
65114W        W31655   7.104  35.411  14.794
65115W        W31656  27.896  23.257   3.346
65116W        W31657   2.384  34.448   4.750
65117W        W31658  36.837  32.459   3.202
65118W        W31659  16.031  12.412  13.941
65119W        W31660  41.938  10.239  11.451
65120W        W31661  10.646   2.247   3.870
65121W        W31662  24.432  19.769   5.184
65122W        W31663  30.916   3.278  13.056
65123W        W31664  35.960  16.559   0.490
65124W        W31665  23.565   9.976  13.102
65125W        W31666  16.345  24.118  12.078
65126W        W31667  15.062  10.317   0.413
65127W        W31668   4.290  43.021   0.581
65128W        W31669  15.709  13.724  12.057
65129W        W31670  43.783  12.337   4.944
65130W        W31671   1.230  15.195   1.665
65131W        W31672  17.167  24.515  10.612
65132W        W31673   8.425   6.950  14.474
65133W        W31674  33.364  15.930   0.532
65134W        W31675  20.262  10.821  11.566
65135W        W31676  30.059  30.157  10.803
65136W        W31677  32.943  30.619  10.678
65137W        W31678  26.692   9.279  12.331
65138W        W31679  36.138  39.148   4.178
65139W        W31680  23.511  12.512   0.865
65140W        W31681   4.321  19.172   4.113
65141W        W31682  22.005   9.856  13.864
65142W        W31683  36.543   6.927   3.629
65143W        W31684   9.782  38.580  13.456
65144W        W31685  36.296  11.429   4.037
65145W        W31686  22.537  39.951  12.470
65146W        W31687  38.066  10.252  13.292
65147W        W31688  14.699  20.750   3.241
65148W        W31689  43.219  24.459  12.578
65149W        W31690  39.063  31.889  10.988
65150W        W31691  22.203  16.044  14.424
65151W        W31692  38.488   4.124  12.596
65152W        W31693  41.829  27.411   2.852
65153W        W31694  36.369  17.151   0.704
65154W        W31695  32.071  14.233  11.908
65155W        W31696  28.969  22.114  12.562
65156W        W31697  39.968  16.827  10.742
65157W        W31698   7.860  29.018   4.480
65158W        W31699   0.735  41.991  14.835
65159W        W31700   9.722  24.771   0.717
65160W        W31701  22.030  22.991  12.586
65161W        W31702  27.630  36.896  13.593
65162W        W31703  19.571   9.247   4.068
65163W        W31704   5.934  36.699   4.969
65164W        W31705   8.415  39.528   1.849
65165W        W31706  43.405   4.874   3.665
65166W        W31707  44.836  35.180  10.873
65167W        W31708  33.916   0.341   0.711
65168W        W31709  34.449  35.603  11.587
65169W        W31710  27.881  42.056  11.177
65170W        W31711  18.286  29.978   1.741
65171W        W31712  22.415  33.931  12.654
65172W        W31713   0.778  17.260  11.279
65173W        W31714  24.171  18.159   2.191
65174W        W31715  11.772  13.210   4.716
65175W        W31716  14.807  33.399  11.069
65176W        W31717   6.313   6.214   9.814
65177W        W31718  28.754  30.806  14.278
65178W        W31719  22.164  18.322   0.167
65179W        W31720  40.106  18.777   3.316
65180W        W31721  37.863  34.984  14.272
65181W        W31722  18.268  21.109   3.740
65182W        W31723  31.955   1.695   0.836
65183W        W31724  25.928  26.522  10.855
65184W        W31725  26.166  14.009   3.713
65185W        W31726  31.572   3.023   0.806
65186W        W31727  43.916  13.512   2.941
65187W        W31728  30.941  31.421   1.301
65188W        W31729  36.828   7.657   2.752
65189W        W31730  34.786  10.732   1.167
65190W        W31731  35.789  30.053  10.744
65191W        W31732  11.980  36.610   4.254
65192W        W31733   1.424  29.066   3.859
65193W        W31734  25.034  38.313   2.181
65194W        W31735   6.203  25.490  12.370
65195W        W31736   6.889  41.202  11.722
65196W        W31737   3.348  27.693   4.371
65197W        W31738  40.949   9.632   3.692
65198W        W31739  17.157  14.381   1.487
65199W        W31740   0.277  13.242   3.836
65200W        W31741  44.945  34.634   3.706
65201W        W31742  16.138  14.552  12.060
65202W        W31743  24.384  23.518   4.491
65203W        W31744  42.910  29.465  14.831
65204W        W31745  13.987   2.909   4.154
65205W        W31746  27.779  39.018   1.272
65206W        W31747  30.057   4.952  14.999
65207W        W31748  30.518   9.573  11.146
65208W        W31749  32.020  28.825  13.089
65209W        W31750  10.640   2.378  14.869
65210W        W31751  34.452  19.757  14.028
65211W        W31752   3.178  12.377  14.530
65212W        W31753  20.431   9.143  14.263
65213W        W31754  37.486  36.859  13.406
65214W        W31755  11.713   6.448   1.813
65215W        W31756   7.828  20.004  12.095
65216W        W31757   0.822   8.655  12.134
65217W        W31758   7.521  41.824  13.340
65218W        W31759  21.099  42.880   4.973
65219W        W31760   9.174  26.451   1.211
65220W        W31761   8.471  18.078  12.083
65221W        W31762  21.810  42.057   3.214
65222W        W31763   8.819  37.290  14.067
65223W        W31764   9.919  13.167   1.048
65224W        W31765   5.312   1.063   0.965
65225W        W31766   5.528  26.625   2.781
65226W        W31767  20.374  40.517  13.709
65227W        W31768  44.253   0.706   5.181
65228W        W31769   4.727   0.791  11.110
65229W        W31770  25.495  37.737  11.515
65230W        W31771  39.592  31.035   2.321
65231W        W31772  37.166  43.897   3.272
65232W        W31773  10.650  29.133   0.189
65233W        W31774  31.025  38.015  13.962
65234W        W31775  30.322  17.426  13.479
65235W        W31776   7.269  10.221   2.630
65236W        W31777  22.929  12.263   2.322
65237W        W31778  14.264  36.972   4.094
65238W        W31779   8.943  18.337   0.424
65239W        W31780  14.002  15.385   1.951
65240W        W31781  17.081  33.810  10.808
65241W        W31782  43.880  39.816   4.320
65242W        W31783   5.929  37.980   2.863
65243W        W31784   1.124   5.548  11.114
65244W        W31785   0.966  34.566   0.335
65245W        W31786  35.542  28.107   0.829
65246W        W31787  10.336   0.461  10.172
65247W        W31788   8.937  31.474   0.875
65248W        W31789  43.414  38.374   1.598
65249W        W31790  37.323  23.574  12.744
65250W        W31791  25.978  43.013   0.321
65251W        W31792  24.688   4.504   4.209
65252W        W31793  20.930  34.877   1.293
65253W        W31794   6.495  14.624   0.867
65254W        W31795  22.546  28.503   1.490
65255W        W31796  13.905  35.335  12.840
65256W        W31797   8.488  34.914  14.295
65257W        W31798   3.888  41.014  12.803
65258W        W31799  19.179  33.530   1.382
65259W        W31800   6.322  34.803   0.451
65260W        W31801  12.213  35.781   4.637
65261W        W31802   3.184  25.494  14.826
65262W        W31803   1.751  32.218   3.067
65263W        W31804  30.076  31.414  11.063
65264W        W31805  36.477   8.908   2.003
65265W        W31806  41.457  36.397  14.775
65266W        W31807  39.637  31.084   3.747
65267W        W31808   0.401   9.156  11.574
65268W        W31809  36.082  33.122  11.214
65269W        W31810   2.402  31.616   1.300
65270W        W31811  17.877  30.061   4.791
65271W        W31812  30.412  11.383   5.108
65272W        W31813  35.056  31.778  14.195
65273W        W31814  42.461  33.530   4.551
65274W        W31815  32.879  23.813   3.698
65275W        W31816   5.769  39.369  11.553
65276W        W31817   0.069   7.618   2.080
65277W        W31818  11.528  38.862   3.755
65278W        W31819  28.902  23.012  13.170
65279W        W31820  39.253   5.660  13.930
65280W        W31821  17.995   8.249  14.453
65281W        W31822  29.057   5.972  10.692
65282W        W31823  33.420  23.022  12.487
65283W        W31824  22.793  27.432  12.524
65284W        W31825  44.893   0.492   0.977
65285W        W31826  17.808  24.361   2.628
65286W        W31827  17.553  13.281   3.187
65287W        W31828  34.144  14.534  11.208
65288W        W31829  33.026   5.959  11.057
65289W        W31830   4.351  16.809   3.142
65290W        W31831  29.433   0.551   2.797
65291W        W31832   4.703  39.146   1.396
65292W        W31833  15.744   1.751   0.862
65293W        W31834  12.709  34.883   1.270
65294W        W31835  39.924   9.699   1.364
65295W        W31836   5.676  26.918   1.436
65296W        W31837  29.634  38.298   3.141
65297W        W31838  43.303   0.331   1.164
65298W        W31839  26.486  16.845   4.071
65299W        W31840  33.313  27.557   3.834
65300W        W31841   4.237  39.907   3.065
65301W        W31842  39.872  34.033   0.085
65302W        W31843  24.209  23.600   2.689
65303W        W31844  23.704  12.200   1.250
65304W        W31845  33.336  32.574   3.742
65305W        W31846  18.247  31.086   0.283
65306W        W31847  22.685  30.685   1.259
65307W        W31848  34.468  20.698  11.991
65308W        W31849  13.294  28.438  11.138
65309W        W31850   6.788  21.105  11.746
65310W        W31851  44.434  11.792  10.653
65311W        W31852  16.170  15.085   3.153
65312W        W31853   2.227  27.582  13.864
65313W        W31854   0.641   2.869  14.159
65314W        W31855   5.548   7.104   4.217
65315W        W31856   8.792  10.159   2.616
65316W        W31857  32.909   0.557  14.829
65317W        W31858  13.703   8.767   0.541
65318W        W31859  21.761  28.379   4.154
65319W        W31860   3.020  13.168  14.859
65320W        W31861  18.319  17.925  13.795
65321W        W31862  10.680  42.020  10.602
65322W        W31863  33.087  28.743  11.488
65323W        W31864  33.893   2.818  13.486
65324W        W31865  34.507  44.624   1.895
65325W        W31866   0.416  14.249   0.479
65326W        W31867  19.597  18.543   3.315
65327W        W31868   4.377  30.103  12.021
65328W        W31869  23.386  27.766  11.304
65329W        W31870  21.196  24.538   3.172
65330W        W31871  21.008  33.067   4.997
65331W        W31872  29.109   6.292  13.548
65332W        W31873  30.959  15.370  12.001
65333W        W31874  10.942  39.924   4.562
65334W        W31875   9.885  14.869   2.163
65335W        W31876  18.236  31.385  12.116
65336W        W31877   4.404  12.213   1.726
65337W        W31878  44.446  24.959   1.708
65338W        W31879   0.528  15.831   1.785
65339W        W31880  27.918  20.950   3.159
65340W        W31881   3.784  24.575   2.376
65341W        W31882  26.099   2.358   0.534
65342W        W31883  44.821  27.912  10.664
65343W        W31884  18.701  43.416   1.191
65344W        W31885  11.311  27.151   2.826
65345W        W31886  10.269  16.733  12.043
65346W        W31887   0.865  31.611   1.717
65347W        W31888  30.446  11.803  12.494
65348W        W31889  30.353  38.911   2.250
65349W        W31890  40.583  24.482   3.072
65350W        W31891  40.848  31.215   3.273
65351W        W31892  39.016  14.815   0.255
65352W        W31893  44.282  20.247  14.311
65353W        W31894   1.428  24.059  10.166
65354W        W31895  32.043  28.463  13.457
65355W        W31896   9.383   3.563  10.833
65356W        W31897  17.419  32.393  10.549
65357W        W31898   6.165  24.120  14.913
65358W        W31899  18.859  28.062   4.033
65359W        W31900   7.823  40.334   2.649
65360W        W31901  27.900  41.061   1.626
65361W        W31902   9.138  27.215  12.587
65362W        W31903   9.822  17.642  14.937
65363W        W31904   8.748   1.036  12.619
65364W        W31905  10.632   5.296  10.666
65365W        W31906  29.281  17.891  12.556
65366W        W31907  44.454   9.378   4.077
65367W        W31908   3.726  19.229   0.773
65368W        W31909  13.391  19.931  12.523
65369W        W31910  33.716  34.406   0.531
65370W        W31911  32.157   4.891  11.179
65371W        W31912  20.633   7.427   1.859
65372W        W31913   3.004   0.279  12.472
65373W        W31914  10.303   6.627  12.438
65374W        W31915  30.867  23.106   0.738
65375W        W31916  24.033   3.695  11.087
65376W        W31917  37.104  32.516  14.274
65377W        W31918  17.219  12.769  12.956
65378W        W31919  35.965   4.695   2.631
65379W        W31920   8.381  23.923  10.997
65380W        W31921  25.002   5.413  10.720
65381W        W31922  32.903  30.708   2.866
65382W        W31923   9.098  44.093   3.080
65383W        W31924  41.726  25.805  11.120
65384W        W31925  24.707  30.013  11.570
65385W        W31926  21.716   0.591   4.824
65386W        W31927  21.594  12.647  14.877
65387W        W31928  26.035  31.335   3.285
65388W        W31929  29.010  36.020  12.777
65389W        W31930  44.321  32.978   0.453
65390W        W31931   8.914  28.899   0.835
65391W        W31932  16.174  40.395   0.334
65392W        W31933   9.454  17.326   3.461
65393W        W31934  34.537  26.280   4.513
65394W        W31935  11.145  32.007   1.339
65395W        W31936   8.729  15.124   2.634
65396W        W31937  40.890  30.094  10.750
65397W        W31938  28.663  11.850   1.767
65398W        W31939  34.657  24.972  12.801
65399W        W31940  43.307  34.217  14.724
65400W        W31941   8.890  22.103   2.815
65401W        W31942  10.329  15.624  13.458
65402W        W31943  15.256  25.238  13.953
65403W        W31944   3.516  38.316  11.138
65404W        W31945  34.067  42.836   0.447
65405W        W31946   4.478  27.415  14.579
65406W        W31947  33.324  35.736   4.995
65407W        W31948  32.424  33.084   4.572
65408W        W31949  42.827  37.324   1.253
65409W        W31950   9.353  24.059  12.859
65410W        W31951   5.545  43.633  11.207
65411W        W31952   8.140  17.734  11.515
65412W        W31953  35.585  39.280   4.264
65413W        W31954  35.008  26.049   0.954
65414W        W31955   5.848  22.423   0.717
65415W        W31956  25.599  17.636  11.178
65416W        W31957  17.737  16.264  10.669
65417W        W31958  13.691  44.958   2.975
65418W        W31959   2.298  40.559  14.808
65419W        W31960  17.561  22.180   3.275
65420W        W31961  42.036  18.652   3.362
65421W        W31962  12.359  12.228  11.395
65422W        W31963  39.722  16.833   5.401
65423W        W31964   1.519   2.898  13.080
65424W        W31965  29.403   1.891   4.599
65425W        W31966  19.192  37.823   3.819
65426W        W31967  32.066  25.440   4.526
65427W        W31968  37.847  21.830   2.230
65428W        W31969  32.916  26.515  11.720
65429W        W31970  16.739  34.986   2.594
65430W        W31971  40.996   3.579  12.010
65431W        W31972  25.971  27.388   1.299
65432W        W31973   5.825   7.457  10.744
65433W        W31974  14.675  44.967   4.131
65434W        W31975   1.403  34.394   0.553
65435W        W31976  32.787  22.487  10.997
65436W        W31977   2.969  30.625  13.992
65437W        W31978   8.863  20.587   2.611
65438W        W31979  17.221  23.273  14.275
65439W        W31980   8.577  25.738  13.466
65440W        W31981   3.383  34.629   3.345
65441W        W31982  40.568  12.255   9.858
65442W        W31983  22.558  37.590  10.695
65443W        W31984  35.287  31.634   1.901
65444W        W31985  32.515  12.886   2.303
65445W        W31986  36.203   5.831  13.247
65446W        W31987  38.039  40.878   2.403
65447W        W31988  25.281   1.463  14.761
65448W        W31989  39.917   5.702  14.504
65449W        W31990  38.190  29.595  11.970
65450W        W31991  16.174  43.061  12.537
65451W        W31992  26.596  42.495   4.634
65452W        W31993  41.872  28.986   2.351
65453W        W31994  12.738  34.161  14.926
65454W        W31995  31.570  10.576  14.319
65455W        W31996  20.491  31.338  14.721
65456W        W31997   6.192  36.317   2.178
65457W        W31998  12.106  38.233  14.885
65458W        W31999  39.404  24.072  10.943
65459W        W32000  11.704  32.986   4.510
65460W        W32001  35.427  42.481  10.948
65461W        W32002   0.504  25.556   0.776
65462W        W32003  41.238  36.897   0.384
65463W        W32004  39.937   3.133  12.978
65464W        W32005  26.037  30.580  13.437
65465W        W32006  42.442   9.486  12.517
65466W        W32007  27.140  12.447   4.107
65467W        W32008   0.701  33.615  12.829
65468W        W32009  17.312  33.001   4.124
65469W        W32010  24.262  36.286  12.613
65470W        W32011  37.835  23.131   1.263
65471W        W32012  25.252   3.187  14.714
65472W        W32013  42.421  18.812   3.741
65473W        W32014   0.250  16.606  10.983
65474W        W32015  42.348  38.877   0.825
65475W        W32016  28.491  38.800   2.823
65476W        W32017  41.336  24.895   4.538
65477W        W32018  22.694  36.952  14.980
65478W        W32019  26.720  15.468  10.564
65479W        W32020  28.609  34.833  12.888
65480W        W32021  44.355  26.140   4.567
65481W        W32022  20.701   7.463   3.588
65482W        W32023  32.285  28.727   0.754
65483W        W32024  29.112  16.208  10.813
65484W        W32025  20.160  11.502   4.939
65485W        W32026  41.875  20.946  14.011
65486W        W32027  42.733  21.925   2.727
65487W        W32028   2.293   3.679  11.375
65488W        W32029  31.911   4.980  13.416
65489W        W32030  40.419  33.912  14.728
65490W        W32031  29.914  43.540  10.703
65491W        W32032   4.200  38.242  10.811
65492W        W32033  20.711  10.475  13.477
65493W        W32034  27.905  34.476   1.329
65494W        W32035  36.544  12.743  13.005
65495W        W32036  35.273  26.076   0.226
65496W        W32037  30.381  28.611   4.759
65497W        W32038  32.450  19.159  10.753
65498W        W32039   3.709  28.653  13.383
65499W        W32040   8.238  44.088  10.493
65500W        W32041  13.908  42.405   0.448
65501W        W32042  44.492  30.716   0.649
65502W        W32043  34.051  23.189   0.777
65503W        W32044  37.437   0.049  14.251
65504W        W32045  35.876  38.974   4.605
65505W        W32046  23.766   4.218   3.901
65506W        W32047  30.876  11.790   1.237
65507W        W32048  31.880  26.560  11.557
65508W        W32049   6.031   6.918   4.237
65509W        W32050  40.998   2.296  14.858
65510W        W32051  17.133   3.861  12.928
65511W        W32052  44.211  28.343  13.567
65512W        W32053  14.108  35.042   3.979
65513W        W32054  13.473  44.409   4.343
65514W        W32055  24.043  32.989   4.533
65515W        W32056  40.587   8.591  14.314
65516W        W32057  33.999  24.583   2.231
65517W        W32058  28.576  16.122   3.799
65518W        W32059  34.598  38.403   0.682
65519W        W32060  43.083  42.091  12.330
65520W        W32061  38.874  17.754  11.297
65521W        W32062  23.736  23.280  11.064
65522W        W32063   4.234  21.586  11.853
65523W        W32064  32.375   5.919   2.703
65524W        W32065  10.290   4.158   3.471
65525W        W32066  28.109  27.368  10.301
65526W        W32067  17.532  26.413   3.888
65527W        W32068   9.764  36.287   2.864
65528W        W32069  19.173  22.070  10.625
65529W        W32070  41.313  14.366   1.306
65530W        W32071  43.018  33.107  12.776
65531W        W32072  14.181  38.371   3.387
65532W        W32073   2.643  40.337   4.802
65533W        W32074  22.018   9.241   3.678
65534W        W32075   1.754  23.164   3.688
65535W        W32076  42.260  26.699  10.447
65536W        W32077  29.087  31.653   0.200
65537W        W32078   2.261  21.155  14.259
65538W        W32079  15.736  43.288  12.627
65539W        W32080  17.755  32.001  13.154
65540W        W32081   8.634  31.465  11.228
65541W        W32082   0.174  12.224   0.745
65542W        W32083  36.038  25.380   0.887
65543W        W32084   0.572  31.139   3.447
65544W        W32085  40.978  40.310   4.374
65545W        W32086  23.249   9.367   0.942
65546W        W32087  44.368  26.402  13.313
65547W        W32088  41.451  29.166   1.108
65548W        W32089  21.977  11.788   1.373
65549W        W32090  16.774   8.253   1.942
65550W        W32091   4.173  28.811  14.948
65551W        W32092  38.606  20.930  13.871
65552W        W32093  29.170  16.195   1.464
65553W        W32094  42.956  24.662   1.833
65554W        W32095  32.042  20.209  13.544
65555W        W32096   2.917  28.498  12.870
65556W        W32097  17.007   4.530  13.973
65557W        W32098   2.811  41.552  14.310
65558W        W32099  26.285  30.600   3.655
65559W        W32100   3.350  22.538  13.750
65560W        W32101  10.231  31.089  11.097
65561W        W32102   1.903  20.096  13.517
65562W        W32103  35.000  37.706   0.005
65563W        W32104  22.199  36.379   1.503
65564W        W32105   8.786  17.639  13.706
65565W        W32106   7.923  42.335   1.413
65566W        W32107  13.755   3.188   0.907
65567W        W32108  19.061  26.263   3.357
65568W        W32109  28.722   5.943   9.741
65569W        W32110   8.958  36.381   3.200
65570W        W32111  34.654  42.970  10.447
65571W        W32112  14.754  29.929  11.532
65572W        W32113  25.644  15.177  14.600
65573W        W32114  17.724  12.382   0.736
65574W        W32115  17.130  18.619  10.532
65575W        W32116  42.795  20.032  11.710
65576W        W32117   4.344  10.897  12.378
65577W        W32118   3.693  42.974   1.220
65578W        W32119  25.186   0.482   4.184
65579W        W32120  20.649   8.893  10.420
65580W        W32121   7.509  27.926  11.461
65581W        W32122  23.138  14.577  14.338
65582W        W32123  22.892  34.546  12.837
65583W        W32124  28.207   9.647  11.477
65584W        W32125  18.217  37.377  14.699
65585W        W32126   9.655   8.166   2.459
65586W        W32127   3.608  21.543  12.989
65587W        W32128  26.926   2.443   3.810
65588W        W32129  37.159  33.251   2.888
65589W        W32130  44.910  39.509   3.409
65590W        W32131  13.852  37.287   3.659
65591W        W32132  40.910   2.457  12.620
65592W        W32133  25.934   1.716   4.634
65593W        W32134   7.423  13.852   3.874
65594W        W32135   3.671  23.654  12.128
65595W        W32136  32.550  37.145   3.120
65596W        W32137  28.225  28.357  14.900
65597W        W32138   6.894   5.208  13.892
65598W        W32139  22.181  35.796  13.537
65599W        W32140  11.852  40.307  13.336
65600W        W32141  28.017  12.247   1.794
65601W        W32142  44.617   5.442   2.752
65602W        W32143   5.881  19.171  13.422
65603W        W32144  42.463  37.670   3.123
65604W        W32145  42.746  29.989  14.984
65605W        W32146  18.060   4.782   1.299
65606W        W32147  41.017  34.776   1.199
65607W        W32148   5.367  27.282   0.793
65608W        W32149  10.679   8.741   0.317
65609W        W32150  35.978  17.790  11.512
65610W        W32151   0.236  21.026  12.451
65611W        W32152  31.246  27.857  14.935
65612W        W32153   9.693  18.754   0.503
65613W        W32154  38.626  41.910  14.413
65614W        W32155  31.735  15.791   2.265
65615W        W32156  31.083   5.920   0.334
65616W        W32157  24.050  14.050  11.694
65617W        W32158  12.262  29.478  13.315
65618W        W32159  35.793   4.451  12.521
65619W        W32160  30.654  22.627  11.633
65620W        W32161  18.782  32.152   4.608
65621W        W32162  18.606  11.576  11.292
65622W        W32163  24.823  35.596   0.421
65623W        W32164  17.619  39.650   3.662
65624W        W32165  43.437  44.541  11.358
65625W        W32166  10.164   3.012  13.824
65626W        W32167  31.495   3.701  10.557
65627W        W32168  30.547   6.463   2.751
65628W        W32169  22.816   5.308  10.908
65629W        W32170  13.652  22.017   4.093
65630W        W32171   4.192  23.256   3.241
65631W        W32172  14.317   9.796   1.405
65632W        W32173  21.538  40.113  11.054
65633W        W32174   8.172  27.369  13.930
65634W        W32175  17.157  38.725  10.701
65635W        W32176  34.557  31.024   2.605
65636W        W32177  14.682  36.512  12.155
65637W        W32178  20.144  32.551   2.410
65638W        W32179  33.990  32.078   1.950
65639W        W32180  32.891   9.305  11.517
65640W        W32181  21.587  38.349   3.297
65641W        W32182  35.659  27.655   3.709
65642W        W32183  37.013  36.043   0.582
65643W        W32184   2.639  42.575   4.846
65644W        W32185   5.778  16.787  14.374
65645W        W32186  43.319  39.173  14.462
65646W        W32187  15.292  22.175  11.316
65647W        W32188  10.208  15.178   0.838
65648W        W32189  17.929   2.739   3.605
65649W        W32190  29.342  27.635  14.807
65650W        W32191  40.270  14.693   2.875
65651W        W32192  13.712  44.510   2.224
65652W        W32193   8.805  32.427   1.383
65653W        W32194  25.265  36.370   0.990
65654W        W32195  15.542  44.450   2.956
65655W        W32196   4.043  29.529   0.993
65656W        W32197  13.151  27.262  12.539
65657W        W32198  16.902  30.264   0.871
65658W        W32199  26.175  13.269  14.185
65659W        W32200  22.206  12.321   0.455
65660W        W32201  23.604  31.926  11.095
65661W        W32202  15.264  13.489  12.115
65662W        W32203   8.116  18.378   0.901
65663W        W32204   8.495   6.174  12.029
65664W        W32205  18.032  34.947  11.174
65665W        W32206  27.669  44.980   4.551
65666W        W32207  36.233  19.136   4.540
65667W        W32208  12.809  40.763   2.258
65668W        W32209  24.545  30.655   2.322
65669W        W32210   5.095  11.491   3.746
65670W        W32211  27.590  38.169  10.835
65671W        W32212  31.058  31.673   2.858
65672W        W32213   7.854  38.302   0.910
65673W        W32214  24.017   0.481   0.846
65674W        W32215  23.869  18.084   0.853
65675W        W32216   1.417  17.036   3.748
65676W        W32217   7.236  31.587   3.170
65677W        W32218  32.219  38.870   4.059
65678W        W32219   4.355   6.197   3.302
65679W        W32220   3.208  33.693  12.069
65680W        W32221  18.050   3.521  11.484
65681W        W32222  20.677  33.143  14.431
65682W        W32223  27.229  11.180   1.873
65683W        W32224  34.102  29.840  13.408
65684W        W32225  43.475   3.712  11.472
65685W        W32226  23.764   4.217  12.926
65686W        W32227  43.497  10.858  11.980
65687W        W32228   2.423   7.697   3.923
65688W        W32229  41.951  19.049  12.094
65689W        W32230  37.498  11.880   0.746
65690W        W32231   2.956   4.402   2.860
65691W        W32232   2.918  22.950   0.687
65692W        W32233   3.751   4.716   2.646
65693W        W32234  30.594  42.440  13.162
65694W        W32235  44.140  43.244  11.181
65695W        W32236   1.897  39.615  11.693
65696W        W32237  32.642  44.398  13.496
65697W        W32238  44.841  16.293   3.844
65698W        W32239  11.226   6.161  12.359
65699W        W32240  17.240  16.877  14.429
65700W        W32241   6.692   9.601   3.146
65701W        W32242   1.381  11.119   4.147
65702W        W32243  17.219  41.365  14.483
65703W        W32244   2.978  17.818  10.684
65704W        W32245   1.727  15.134  14.019
65705W        W32246  12.696   3.426   0.524
65706W        W32247  41.045  43.532   2.271
65707W        W32248  39.848  27.080   1.045
65708W        W32249  25.480  11.612  12.980
65709W        W32250   6.434  32.970   0.781
65710W        W32251  14.556  21.813   2.683
65711W        W32252   4.242  18.547   0.395
65712W        W32253  29.400  19.608  13.973
65713W        W32254  20.748  37.534  11.313
65714W        W32255  11.368  37.848   4.577
65715W        W32256   5.251  43.355   1.632
65716W        W32257  12.285  24.097  12.319
65717W        W32258  41.808   0.773  14.559
65718W        W32259  23.040  12.741   2.152
65719W        W32260  20.344  12.616   0.245
65720W        W32261  10.753   2.140   0.540
65721W        W32262  37.901  28.040  10.313
65722W        W32263   9.652   3.647   1.897
65723W        W32264  37.981  35.327   0.872
65724W        W32265  12.335  41.534   1.360
65725W        W32266   0.135  11.086   0.488
65726W        W32267  40.925  39.457   4.439
65727W        W32268   6.667  35.169  14.954
65728W        W32269   8.647  35.987   3.277
65729W        W32270  10.337  23.653   2.355
65730W        W32271  15.258  28.782  12.876
65731W        W32272  20.773  44.232  13.029
65732W        W32273  28.218  43.587   2.755
65733W        W32274  12.217  30.333  10.657
65734W        W32275  19.727  15.110  13.083
65735W        W32276  23.255  17.560   3.805
65736W        W32277   6.654  23.511   3.148
65737W        W32278  13.705  26.052   4.207
65738W        W32279  16.608  15.449   0.983
65739W        W32280  14.676  12.410  11.079
65740W        W32281   0.366  36.387   0.618
65741W        W32282  20.515  35.962   0.913
65742W        W32283  41.964  33.672  14.852
65743W        W32284  16.125  34.942   2.946
65744W        W32285  24.747  28.023   3.304
65745W        W32286   3.807  43.259   4.451
65746W        W32287  35.935  25.046  11.935
65747W        W32288  42.809   6.202   1.722
65748W        W32289  11.771  31.853   2.180
65749W        W32290  15.819   0.020  12.016
65750W        W32291  42.706   1.201   4.601
65751W        W32292   5.770  30.010  10.632
65752W        W32293   7.698  16.144  11.659
65753W        W32294   9.240  39.128  14.847
65754W        W32295  40.314   6.117   1.108
65755W        W32296  25.471  16.603  12.916
65756W        W32297  36.571  18.464  11.554
65757W        W32298  34.866  32.630  12.022
65758W        W32299  30.971   8.650   0.989
65759W        W32300   3.434  32.889   0.465
65760W        W32301  13.503  12.643   4.981
65761W        W32302   9.680  25.920   3.805
65762W        W32303  28.115  18.421  11.070
65763W        W32304  40.166   6.810  14.798
65764W        W32305  36.082  24.140   3.115
65765W        W32306  25.380  38.500   2.782
65766W        W32307  14.807  20.673  13.832
65767W        W32308   3.291  30.076   1.292
65768W        W32309  30.402  43.353  14.372
65769W        W32310  31.090  35.950   4.212
65770W        W32311  15.457  11.188   4.077
65771W        W32312  34.603  25.078  11.994
65772W        W32313  11.189  43.218   1.696
65773W        W32314  12.353   8.247   0.208
65774W        W32315  16.377  27.515   1.464
65775W        W32316  16.125  34.948  11.046
65776W        W32317   5.429  14.109  12.587
65777W        W32318  31.696  40.944   1.253
65778W        W32319   6.369  28.637   4.705
65779W        W32320   3.532  41.391   4.556
65780W        W32321   8.473  42.856  11.480
65781W        W32322   0.465  39.947   3.514
65782W        W32323  37.399  44.562  14.467
65783W        W32324  15.185  21.660  11.321
65784W        W32325  41.863  36.368  11.629
65785W        W32326   6.157   2.106   9.883
65786W        W32327  14.815   5.449  14.331
65787W        W32328  28.758  17.987  14.785
65788W        W32329  35.133  33.373   1.616
65789W        W32330  18.749  37.472   2.828
65790W        W32331  31.741   9.802   0.465
65791W        W32332  43.036   3.454  13.099
65792W        W32333  30.545  10.942   0.832
65793W        W32334  37.367  15.227  11.548
65794W        W32335  33.922  17.706   0.805
65795W        W32336  10.132  39.859  12.686
65796W        W32337  34.171  20.588   2.727
65797W        W32338  16.840  19.800   1.205
65798W        W32339  13.806   7.544  13.062
65799W        W32340  32.195  39.374  12.420
65800W        W32341  14.088  12.703  11.539
65801W        W32342  23.077  19.549  14.367
65802W        W32343  31.858  24.663   1.377
65803W        W32344  42.740  21.721  10.352
65804W        W32345  30.104  32.856   0.460
65805W        W32346  13.683  29.972   3.660
65806W        W32347  42.172  21.570  10.726
65807W        W32348   0.804  19.805  12.997
65808W        W32349  30.144   4.625  11.597
65809W        W32350  28.353  12.098   0.823
65810W        W32351   0.491  12.078   1.433
65811W        W32352  28.261  30.017  14.049
65812W        W32353  33.976  25.454   0.303
65813W        W32354   1.759  38.404  14.413
65814W        W32355  13.383   1.529   0.799
65815W        W32356  10.400   1.545   2.950
65816W        W32357  38.025  27.063  14.903
65817W        W32358  22.188  38.951  10.694
65818W        W32359   6.192  10.576  10.733
65819W        W32360  20.672  29.671   0.898
65820W        W32361  37.054  12.139   1.811
65821W        W32362  11.806  23.444   2.741
65822W        W32363   4.868   8.807  13.845
65823W        W32364  26.995   6.007   3.713
65824W        W32365  40.731   7.310   1.166
65825W        W32366   0.936  32.914   1.353
65826W        W32367  37.032  17.651   3.780
65827W        W32368  12.076  16.891   0.556
65828W        W32369  10.882  27.944  13.436
65829W        W32370  10.150   2.922   0.985
65830W        W32371  34.505  17.828  14.322
65831W        W32372  38.527  38.825  12.424
65832W        W32373  34.876  26.424   3.743
65833W        W32374  11.050  11.012  11.566
65834W        W32375   0.162  29.540  14.917
65835W        W32376  40.285  28.737  11.409
65836W        W32377   7.844  20.534   2.698
65837W        W32378   6.855  34.854   4.102
65838W        W32379  35.557  15.252  12.522
65839W        W32380  19.270  30.634   1.232
65840W        W32381   3.455  37.771  12.002
65841W        W32382  21.699  30.482  12.020
65842W        W32383   6.756  36.498   4.215
65843W        W32384  19.150  43.677   1.395
65844W        W32385  43.831   5.265   1.031
65845W        W32386   4.650  40.376   4.661
65846W        W32387  19.763  31.173   2.870
65847W        W32388   0.888   1.980  12.621
65848W        W32389  28.605  25.950  12.393
65849W        W32390   7.022  43.690   0.236
65850W        W32391  10.434  28.465   0.361
65851W        W32392  44.467  27.122   4.723
65852W        W32393  19.511   6.283   3.830
65853W        W32394   6.289  17.670   0.861
65854W        W32395  13.243   3.519   4.586
65855W        W32396  24.474  34.930  14.118
65856W        W32397  32.836   8.731  10.876
65857W        W32398  19.440  29.522   0.295
65858W        W32399   0.903  30.906   9.757
65859W        W32400  19.533  33.983  13.540
65860W        W32401  17.744  22.154   0.089
65861W        W32402   8.723  18.581  14.675
65862W        W32403  38.504  35.460   4.245
65863W        W32404   7.255  43.204  12.643
65864W        W32405  30.921  23.511   2.151
65865W        W32406  10.809  13.359   4.448
65866W        W32407   7.879   4.327  10.663
65867W        W32408  28.904  36.646  12.349
65868W        W32409  36.923  36.297  10.301
65869W        W32410  34.591  18.058   1.224
65870W        W32411  13.153   6.952   3.284
65871W        W32412  25.394  19.899  11.451
65872W        W32413  38.543   8.698  14.785
65873W        W32414   6.308  43.287  14.920
65874W        W32415   1.242  32.962  14.309
65875W        W32416  26.605  38.345   1.198
65876W        W32417  15.175  28.372   0.672
65877W        W32418  35.433   9.780   3.721
65878W        W32419  18.767  26.532  14.400
65879W        W32420  30.567  25.488  13.422
65880W        W32421   0.780  36.851   4.188
65881W        W32422  23.620  40.700  11.908
65882W        W32423  18.989  38.565   1.371
65883W        W32424   1.960   9.533   4.713
65884W        W32425  33.996  24.940  14.443
65885W        W32426  34.031   0.817   0.976
65886W        W32427  15.719  37.595  10.651
65887W        W32428  36.416  33.451  13.299
65888W        W32429  17.910  10.229  11.583
65889W        W32430  39.458   9.176   4.109
65890W        W32431  39.051  12.286   4.211
65891W        W32432  44.960  43.927   1.384
65892W        W32433  42.743   3.847   1.199
65893W        W32434  31.701   7.883   4.155
65894W        W32435   0.765  42.404  10.715
65895W        W32436   4.936  25.518  14.521
65896W        W32437  18.390  33.418  14.000
65897W        W32438  14.498   5.212  13.144
65898W        W32439  14.666  30.443  13.387
65899W        W32440  25.474  19.324   2.179
65900W        W32441  18.497   0.484  11.667
65901W        W32442  19.478  10.668   0.850
65902W        W32443  15.259  13.848   0.690
65903W        W32444   3.525  26.702   1.235
65904W        W32445  31.012  36.081   2.701
65905W        W32446  38.795  39.867  10.973
65906W        W32447  23.433  20.476   2.238
65907W        W32448  41.395   1.299  11.006
65908W        W32449   2.967  17.751  12.779
65909W        W32450  43.241   0.716  13.375
65910W        W32451  29.598  40.591   0.611
65911W        W32452  29.305  27.471  12.034
65912W        W32453  12.019  31.739   4.105
65913W        W32454  22.013  11.302   1.150
65914W        W32455  34.997   4.140  13.122
65915W        W32456  42.756  22.022   0.372
65916W        W32457  19.690  12.249   1.920
65917W        W32458  16.239  33.181   2.774
65918W        W32459  12.673  10.693  13.989
65919W        W32460  21.618   4.455  14.923
65920W        W32461  27.527  17.447   2.299
65921W        W32462  28.623   6.907   3.776
65922W        W32463  22.623  13.123   4.129
65923W        W32464  20.198  21.555   0.416
65924W        W32465  40.609  31.559   3.624
65925W        W32466  25.207  36.068  13.490
65926W        W32467  39.934  38.780  11.023
65927W        W32468   9.831  35.925  12.569
65928W        W32469  29.381  32.608  12.552
65929W        W32470  22.891  38.915   3.136
65930W        W32471  33.462  23.577  13.567
65931W        W32472  28.914  31.954  12.991
65932W        W32473  16.998  40.401   3.268
65933W        W32474  25.466  25.891   3.336
65934W        W32475  28.440  42.401  14.428
65935W        W32476  37.094  42.004  12.392
65936W        W32477  33.421  43.273  14.874
65937W        W32478  27.644  21.027   3.611
65938W        W32479  14.079  21.062  12.548
65939W        W32480  38.851   5.749   4.984
65940W        W32481  39.312   9.428  13.294
65941W        W32482  27.153  11.896   9.438
65942W        W32483   2.677  25.677   2.215
65943W        W32484  39.012  23.559  13.535
65944W        W32485  38.908  41.880   4.412
65945W        W32486  42.773  14.638   3.136
65946W        W32487  25.234  33.992   2.743
65947W        W32488  43.802  19.405   4.111
65948W        W32489  44.296   6.627  13.366
65949W        W32490  16.090  36.099  14.953
65950W        W32491  31.141  12.607  12.920
65951W        W32492  23.445  43.994   2.178
65952W        W32493  44.902  23.190   0.835
65953W        W32494  14.736   0.700   0.005
65954W        W32495   4.980   1.760   1.949
65955W        W32496  12.244  15.827  10.239
65956W        W32497  33.046  22.489   2.311
65957W        W32498  40.491  38.074  12.043
65958W        W32499  26.531   7.908   2.399
65959W        W32500  13.326  15.803  11.103
65960W        W32501  26.230  13.719  11.530
65961W        W32502  35.397  24.913   3.249
65962W        W32503   2.334  24.179   2.721
65963W        W32504  28.035  39.874  12.952
65964W        W32505  28.931   5.470  10.735
65965W        W32506   9.896  17.197   2.798
65966W        W32507  38.430  31.477  11.314
65967W        W32508  33.953  31.652  13.106
65968W        W32509   9.459   2.699  14.363
65969W        W32510  32.962  15.393  14.827
65970W        W32511  42.370   1.401  13.314
65971W        W32512  11.137  43.682   1.424
65972W        W32513  44.279  36.008   3.867
65973W        W32514   9.806  32.474   3.317
65974W        W32515  24.241  23.946  13.873
65975W        W32516   2.769   5.415  10.978
65976W        W32517   9.824  21.302   4.089
65977W        W32518  41.091  38.941   4.812
65978W        W32519  22.533  34.584   0.869
65979W        W32520  25.073  16.382  14.743
65980W        W32521  37.855  19.530  11.166
65981W        W32522  24.170  44.322  14.517
65982W        W32523   7.699  42.425   5.045
65983W        W32524  31.085   4.251   0.186
65984W        W32525  12.902   8.879   3.466
65985W        W32526  22.935  25.148  12.555
65986W        W32527  35.448   8.715   4.590
65987W        W32528   4.517   5.257  12.866
65988W        W32529  13.088  13.268  12.933
65989W        W32530  40.917  11.824  14.274
65990W        W32531  34.506  28.894  11.599
65991W        W32532  11.647  39.370  12.350
65992W        W32533   2.511   8.350  10.662
65993W        W32534   5.389   5.915   4.513
65994W        W32535  25.535  31.146  10.593
65995W        W32536  33.439  34.857   3.810
65996W        W32537   4.908  34.340  12.320
65997W        W32538  27.754   3.851  13.474
65998W        W32539   7.899  27.981  11.140
65999W        W32540  30.581  25.044   3.524
66000W        W32541  38.804  40.533  12.526
66001W        W32542  31.078   5.306   4.698
66002W        W32543  29.665  26.444   3.743
66003W        W32544   0.279   5.869  10.897
66004W        W32545  25.615  39.840  12.634
66005W        W32546  16.075  42.995   1.900
66006W        W32547  44.345  26.214   9.794
66007W        W32548  19.528   2.816  14.468
66008W        W32549  35.085  41.482   4.429
66009W        W32550   3.869  41.770  10.512
66010W        W32551  21.079  30.339   4.633
66011W        W32552  23.545  20.714  11.870
66012W        W32553  28.919  11.778   3.087
66013W        W32554  44.131   4.958   3.243
66014W        W32555  30.560  14.045   4.174
66015W        W32556  42.546  13.183   5.453
66016W        W32557  38.414  23.442   1.994
66017W        W32558  43.383  18.662   1.673
66018W        W32559  13.849  44.922   0.256
66019W        W32560  15.700   9.731   4.708
66020W        W32561  32.118  16.165   2.259
66021W        W32562  36.699   5.718  13.196
66022W        W32563  35.952   1.854   4.899
66023W        W32564  43.421  41.728  12.152
66024W        W32565  16.040  16.811  12.015
66025W        W32566  42.625  39.318   1.102
66026W        W32567   8.113  40.630   0.512
66027W        W32568  31.042   5.749   3.892
66028W        W32569  30.158  43.584  13.593
66029W        W32570  18.141  14.107   1.289
66030W        W32571  41.381  44.433  12.875
66031W        W32572  35.066  44.730   4.021
66032W        W32573   5.849   8.906  10.706
66033W        W32574  11.176   6.925  12.854
66034W        W32575  44.918  43.066   3.988
66035W        W32576   3.277   7.585   4.566
66036W        W32577  24.472  29.728   3.331
66037W        W32578  13.186  32.417   1.940
66038W        W32579  17.819  27.797  12.121
66039W        W32580  35.839  12.627   0.714
66040W        W32581   2.377  27.396  11.240
66041W        W32582  27.536  24.342  14.358
66042W        W32583  39.729  42.765   4.232
66043W        W32584  35.116  32.892   3.478
66044W        W32585   4.574  40.867   3.354
66045W        W32586  25.092   0.306   2.816
66046W        W32587  12.914  40.569  13.083
66047W        W32588  12.414   7.823   4.054
66048W        W32589  25.140  33.100  12.792
66049W        W32590  24.466   6.304   1.892
66050W        W32591  43.354   8.332  14.532
66051W        W32592  19.211  36.588  11.082
66052W        W32593   7.458   2.415   2.646
66053W        W32594  40.443  29.969   0.675
66054W        W32595   6.651  28.484  13.341
66055W        W32596  26.959  42.802  13.507
66056W        W32597   5.156  11.330  13.359
66057W        W32598   3.815  27.726   1.338
66058W        W32599  16.184  15.327  13.335
66059W        W32600  28.029   0.389   3.319
66060W        W32601   4.850  37.964  13.406
66061W        W32602  20.283  37.114  14.006
66062W        W32603  38.884   1.424   0.751
66063W        W32604   9.272  32.427  12.480
66064W        W32605  36.015  21.784  14.469
66065W        W32606  29.617  21.176   3.373
66066W        W32607  18.731   3.069   1.383
66067W        W32608   1.827  25.537   1.773
66068W        W32609  30.144  19.237  11.952
66069W        W32610  18.766  32.972   0.621
66070W        W32611  41.566  38.279   1.748
66071W        W32612  44.716  21.164  11.553
66072W        W32613   3.636  18.864  11.648
66073W        W32614  29.195  22.629  13.347
66074W        W32615  44.685  24.706   4.575
66075W        W32616  23.744  27.104  14.392
66076W        W32617  14.403  27.948  12.010
66077W        W32618  28.984  37.936  13.129
66078W        W32619   8.345  13.082  13.841
66079W        W32620  37.466  30.555   1.449
66080W        W32621  15.060  41.202   1.163
66081W        W32622  23.963  41.050  12.607
66082W        W32623  31.247   7.089  12.038
66083W        W32624  25.098  15.279   0.741
66084W        W32625  34.008  31.189  12.894
66085W        W32626   9.297  12.712  14.494
66086W        W32627  38.463   5.540  13.727
66087W        W32628  10.333  15.174  12.090
66088W        W32629   7.624  30.450   4.315
66089W        W32630  39.840   3.364   1.817
66090W        W32631  34.614  44.820  11.598
66091W        W32632   0.915   0.050  11.639
66092W        W32633  34.932   5.253  14.890
66093W        W32634  18.690  18.193   3.684
66094W        W32635  10.778  42.774   4.115
66095W        W32636  21.529  11.022   2.267
66096W        W32637  19.089  16.773   3.236
66097W        W32638  29.174  23.848  11.819
66098W        W32639  31.261  13.902   4.678
66099W        W32640  43.261   3.389  11.160
66100W        W32641   1.210  38.365  11.578
66101W        W32642   9.827  27.638   3.217
66102W        W32643  41.444  25.820   3.673
66103W        W32644  42.985  36.296   1.401
66104W        W32645  38.179  11.187  11.601
66105W        W32646  42.887  15.824  13.340
66106W        W32647  20.514  41.875  11.530
66107W        W32648  33.724  16.748   2.923
66108W        W32649  15.675   3.953   2.656
66109W        W32650  39.386  27.121   0.783
66110W        W32651  33.514  25.495  10.641
66111W        W32652  18.775  34.242   2.404
66112W        W32653  38.752   6.299   2.663
66113W        W32654  41.194  25.630  11.911
66114W        W32655  28.139  12.622   2.170
66115W        W32656  35.581  15.609   2.835
66116W        W32657  25.632   5.211   4.528
66117W        W32658   1.403  43.794  14.416
66118W        W32659  42.834  30.530   1.457
66119W        W32660  41.041  12.747   3.562
66120W        W32661  26.515   6.618  12.972
66121W        W32662  25.102   0.790  14.385
66122W        W32663  31.076  43.441  12.127
66123W        W32664  29.766  43.878  10.279
66124W        W32665  17.018  26.035  11.681
66125W        W32666  12.259  31.232   0.634
66126W        W32667  16.499  16.838  14.007
66127W        W32668  39.899  19.628   2.887
66128W        W32669   2.450  25.491  12.551
66129W        W32670  39.857  34.532  13.160
66130W        W32671  42.844  27.198  13.190
66131W        W32672  21.036  11.865  12.502
66132W        W32673   0.936  23.557  10.927
66133W        W32674  16.623   7.183  14.568
66134W        W32675  29.044   7.097   0.248
66135W        W32676  42.795  14.588   1.706
66136W        W32677   7.198  29.683   1.646
66137W        W32678  38.910   7.477  10.464
66138W        W32679  20.497  39.024   1.258
66139W        W32680  42.959  12.657  12.014
66140W        W32681  20.544   7.911   4.377
66141W        W32682  25.412  34.626   2.179
66142W        W32683  39.596  27.116   4.253
66143W        W32684  19.647   0.426   0.453
66144W        W32685  13.696   1.525  14.397
66145W        W32686  26.635  40.500  14.449
66146W        W32687  16.862  18.895   0.168
66147W        W32688  39.900   8.273   0.704
66148W        W32689  19.669  27.999   2.673
66149W        W32690  26.247   0.338  12.932
66150W        W32691  42.556  33.581  11.227
66151W        W32692  31.969  40.440   4.144
66152W        W32693  20.768   4.830  13.430
66153W        W32694  25.964  24.062   1.347
66154W        W32695  19.274  39.688   0.656
66155W        W32696  23.716  39.927   4.219
66156W        W32697  26.042  13.598  13.822
66157W        W32698  14.232  20.147  13.625
66158W        W32699  25.203   3.701  10.822
66159W        W32700  27.477  36.913  14.103
66160W        W32701  39.391   5.303   0.947
66161W        W32702  38.096   9.160   3.581
66162W        W32703  26.907  24.032   0.306
66163W        W32704  13.652  37.913  11.986
66164W        W32705  39.764  36.804  14.053
66165W        W32706  36.077  38.367   3.043
66166W        W32707  30.450  15.702   0.534
66167W        W32708   4.665  25.456  10.797
66168W        W32709   3.349   8.513   4.812
66169W        W32710  18.495  28.293   1.776
66170W        W32711   3.461  18.802   0.610
66171W        W32712  19.019  21.135   1.904
66172W        W32713   8.645  19.094  14.069
66173W        W32714  25.095  14.535  11.531
66174W        W32715  13.238  15.534   2.711
66175W        W32716  34.519  40.327  14.905
66176W        W32717  42.555  19.238   1.117
66177W        W32718  13.627  41.340  10.665
66178W        W32719  27.600  25.594  10.421
66179W        W32720   5.341   7.784   2.418
66180W        W32721  24.255  14.759   4.576
66181W        W32722   8.059  18.089  11.152
66182W        W32723  20.695  24.101   1.346
66183W        W32724  10.610   4.229   9.889
66184W        W32725  10.522  31.256  13.829
66185W        W32726  41.643  24.306   1.497
66186W        W32727  10.178  14.803   3.076
66187W        W32728  31.599   3.762   4.113
66188W        W32729  29.480  37.801   2.363
66189W        W32730  14.804  18.709  10.589
66190W        W32731  43.496  40.767  13.661
66191W        W32732  28.507  19.843  12.975
66192W        W32733  35.090  37.910   0.860
66193W        W32734   9.899  34.387  11.174
66194W        W32735  18.757   5.430  14.976
66195W        W32736  40.163  25.362   1.827
66196W        W32737  12.347  14.568  13.054
66197W        W32738  17.344   2.223  11.635
66198W        W32739  20.505  31.352   2.427
66199W        W32740  13.320   4.179   1.796
66200W        W32741  16.125  24.029  13.447
66201W        W32742  16.136  17.631  14.009
66202W        W32743  27.604  36.180   2.487
66203W        W32744   5.394  24.003   0.362
66204W        W32745   3.634  36.393  11.137
66205W        W32746  19.177  32.800  10.681
66206W        W32747  39.476  27.274  12.513
66207W        W32748  37.755  41.049   1.832
66208W        W32749  33.849   2.261  13.466
66209W        W32750   4.195   9.603   2.872
66210W        W32751  32.364  39.273   4.858
66211W        W32752   9.926  24.677   2.842
66212W        W32753  25.108  40.518   1.327
66213W        W32754  30.433   6.890   1.564
66214W        W32755  17.240  12.370  14.323
66215W        W32756  38.559  19.156   4.931
66216W        W32757  17.525   7.749  11.598
66217W        W32758  40.541   6.988  12.011
66218W        W32759   6.691  33.874  13.897
66219W        W32760  37.041  36.227   3.197
66220W        W32761  41.590   4.732   3.089
66221W        W32762  20.612  43.775  11.541
66222W        W32763   5.868  37.317  10.144
66223W        W32764  27.641   1.908  12.334
66224W        W32765  13.837  13.363   0.155
66225W        W32766   6.982  13.034   1.928
66226W        W32767   7.375  44.955  13.924
66227W        W32768  17.535   5.476  13.427
66228W        W32769  19.715  37.068   2.650
66229W        W32770  30.979  38.378  14.709
66230W        W32771  24.497  14.100  14.023
66231W        W32772  41.429   1.451   4.134
66232W        W32773   3.422   2.718   3.219
66233W        W32774  18.987  32.607   4.524
66234W        W32775  39.980  34.060   3.367
66235W        W32776  41.888   5.953  13.624
66236W        W32777   6.679   4.801  12.628
66237W        W32778  14.023  21.227   3.518
66238W        W32779   7.551  20.051  13.403
66239W        W32780  12.310  13.109  11.587
66240W        W32781   9.158  44.736   1.939
66241W        W32782  26.224  44.783  13.413
66242W        W32783  35.553  13.137  14.410
66243W        W32784  25.966  12.950  13.828
66244W        W32785  20.068  10.128   1.205
66245W        W32786  10.148  13.105  14.389
66246W        W32787   1.632  19.422   4.112
66247W        W32788   9.805  43.868  10.662
66248W        W32789  44.791  31.940   3.340
66249W        W32790  14.305  42.808  11.613
66250W        W32791  36.733  18.651  12.030
66251W        W32792  29.961   8.987  12.246
66252W        W32793  12.129  22.211  11.371
66253W        W32794   2.359  26.226   4.072
66254W        W32795   0.932  26.742  10.949
66255W        W32796  29.363  26.257   1.222
66256W        W32797  14.079  30.953  12.223
66257W        W32798  32.450  30.890   4.065
66258W        W32799  31.903  23.338   2.954
66259W        W32800  27.887  15.827   2.421
66260W        W32801   8.265  23.035  13.304
66261W        W32802  12.516  28.845   0.897
66262W        W32803   0.313   6.375   4.900
66263W        W32804   4.279  20.588   1.856
66264W        W32805  23.619  23.155   1.140
66265W        W32806  16.710  39.301  13.058
66266W        W32807  11.284  42.932  14.105
66267W        W32808  21.065   7.806   0.930
66268W        W32809   5.273  18.274  11.843
66269W        W32810   7.954  30.946   3.109
66270W        W32811  12.156  41.981  13.865
66271W        W32812  18.006  12.348  10.268
66272W        W32813   9.917  19.959   0.804
66273W        W32814  24.227  42.004   0.747
66274W        W32815   4.719   2.339  13.527
66275W        W32816  38.393  40.106  11.685
66276W        W32817  19.863  25.038  14.681
66277W        W32818   3.365  28.953   2.019
66278W        W32819  23.009  37.452  12.986
66279W        W32820  29.031  28.988  12.505
66280W        W32821  19.793  14.339   0.013
66281W        W32822  24.736   1.268  11.185
66282W        W32823  37.948  19.847   4.094
66283W        W32824  37.973   1.280  10.586
66284W        W32825  30.977  34.632   0.684
66285W        W32826  31.938   1.456  14.946
66286W        W32827  25.235   1.927   1.304
66287W        W32828  23.043   3.630   2.530
66288W        W32829  35.172  30.436  14.496
66289W        W32830  10.455  14.795  11.049
66290W        W32831  11.843  31.785  11.585
66291W        W32832  28.300  26.916  10.129
66292W        W32833  31.956  24.772   3.244
66293W        W32834  43.221  30.708  10.914
66294W        W32835  19.238   6.780   2.720
66295W        W32836  33.551  33.291   4.514
66296W        W32837  12.595  37.221   3.162
66297W        W32838   0.385  10.065  13.384
66298W        W32839  18.608  41.913  14.069
66299W        W32840  40.242  37.581  14.318
66300W        W32841  39.922  18.635   1.769
66301W        W32842  20.407  13.685   5.251
66302W        W32843  41.448   1.995   2.342
66303W        W32844  20.960  21.856   0.809
66304W        W32845  25.781   9.104   4.119
66305W        W32846  38.510  16.774  10.346
66306W        W32847  32.543   7.281   2.643
66307W        W32848  27.126  11.660   2.890
66308W        W32849  12.344   0.739   1.838
66309W        W32850   6.935   0.996  10.239
66310W        W32851  11.454   4.086   2.863
66311W        W32852  30.712  38.121  13.543
66312W        W32853   6.414   7.823  10.936
66313W        W32854  28.412  39.128  11.882
66314W        W32855  30.980  20.275  10.770
66315W        W32856  41.828  22.594  10.658
66316W        W32857  42.331  10.676  13.816
66317W        W32858  32.951  28.411  11.118
66318W        W32859  30.451  32.613   0.774
66319W        W32860  13.031   2.300  13.536
66320W        W32861  38.652  40.079   2.731
66321W        W32862  26.985   0.015  11.472
66322W        W32863  27.803  30.569  13.076
66323W        W32864  40.029  28.644   2.337
66324W        W32865  14.275  35.282  13.845
66325W        W32866  19.652  25.951  10.600
66326W        W32867   2.461  11.414  11.550
66327W        W32868  31.428  11.927   2.265
66328W        W32869  27.533  20.942   2.311
66329W        W32870   9.201  33.438   1.138
66330W        W32871  18.816  11.323  10.616
66331W        W32872   3.591   8.720  11.562
66332W        W32873  30.512  20.717   4.273
66333W        W32874  33.983  13.326  10.749
66334W        W32875  17.750  36.297   1.910
66335W        W32876  36.326  44.246   3.688
66336W        W32877  21.071  29.436   5.015
66337W        W32878  32.139  11.420   1.225
66338W        W32879   1.448  36.682  12.806
66339W        W32880   9.676  29.487   2.838
66340W        W32881   2.389  20.333  13.703
66341W        W32882  24.270  12.102   0.434
66342W        W32883  33.594  25.020   2.687
66343W        W32884   2.303  37.701  14.209
66344W        W32885   0.886  17.113   1.491
66345W        W32886  31.554  11.202  12.992
66346W        W32887  29.914   3.998   1.906
66347W        W32888  37.163  15.461   5.008
66348W        W32889   8.953   2.523  14.336
66349W        W32890  17.362  37.212  14.066
66350W        W32891  33.337  18.120  12.463
66351W        W32892  35.156  29.020   4.131
66352W        W32893   9.660  35.316   4.233
66353W        W32894  20.941  17.675  11.474
66354W        W32895   5.223  42.499  13.751
66355W        W32896  21.040   2.203   2.203
66356W        W32897   2.355  35.485  14.077
66357W        W32898   7.297  20.180  10.423
66358W        W32899  20.956   9.272  10.661
66359W        W32900   9.747   9.602  13.059
66360W        W32901  23.179   1.661  13.442
66361W        W32902  33.048   4.060   2.134
66362W        W32903  22.990   7.511   4.596
66363W        W32904   8.206  11.244   1.881
66364W        W32905  37.315  32.564  11.145
66365W        W32906  39.038  20.268  11.184
66366W        W32907   2.265  11.672   3.126
66367W        W32908  40.569  28.448  11.102
66368W        W32909  22.972  39.832  10.655
66369W        W32910  43.799  17.661  11.355
66370W        W32911  33.816  30.593  12.470
66371W        W32912   0.443  15.762   4.292
66372W        W32913   7.047  42.686  10.301
66373W        W32914  42.605   0.980  13.010
66374W        W32915   6.554  11.003   1.890
66375W        W32916  25.538  39.013  14.057
66376W        W32917  26.381  34.694  11.973
66377W        W32918   1.419  23.035  10.994
66378W        W32919  27.018   7.205  13.970
66379W        W32920  40.232  17.542   0.018
66380W        W32921  13.799   4.496  11.707
66381W        W32922   5.277  34.098  11.589
66382W        W32923  32.765  37.524   3.840
66383W        W32924  43.034  21.489  14.802
66384W        W32925  10.108   9.402  12.455
66385W        W32926   6.924  41.421   4.335
66386W        W32927  37.807  25.149   0.191
66387W        W32928  34.446  11.394   1.135
66388W        W32929   9.644  10.386   4.150
66389W        W32930   2.735  41.336  12.012
66390W        W32931  38.025  15.715  10.637
66391W        W32932  36.844  15.200   2.835
66392W        W32933  21.379   2.438  11.087
66393W        W32934  24.295  26.926  11.116
66394W        W32935  32.102   8.649  12.328
66395W        W32936  37.351  11.650  11.446
66396W        W32937  37.306  40.062  12.561
66397W        W32938   7.222  32.109   4.194
66398W        W32939  16.111   4.166  10.479
66399W        W32940  18.976   1.106  11.943
66400W        W32941   7.898  15.745   0.612
66401W        W32942  11.890   7.474   3.608
66402W        W32943   9.884  30.663  14.988
66403W        W32944   6.494  30.522  12.908
66404W        W32945   5.734  22.890   3.821
66405W        W32946  34.009  42.480   3.571
66406W        W32947  33.346   9.223  13.422
66407W        W32948   2.403  32.967   4.149
66408W        W32949   0.449  23.481  13.402
66409W        W32950  42.269  42.432  13.797
66410W        W32951  33.320  43.267   4.624
66411W        W32952  22.231  39.406  14.806
66412W        W32953  22.041  20.220   4.265
66413W        W32954  20.217  44.619   3.195
66414W        W32955  14.596  27.448  10.983
66415W        W32956  32.510  40.764  14.904
66416W        W32957  44.048   1.743   1.467
66417W        W32958  31.498  37.040   4.681
66418W        W32959  37.895  23.585   3.313
66419W        W32960  40.358  43.123   1.878
66420W        W32961  20.314  20.815  13.473
66421W        W32962  34.716  11.235   0.711
66422W        W32963   1.140  44.691  11.300
66423W        W32964   4.428  28.355   4.318
66424W        W32965  18.054  22.321   0.531
66425W        W32966  28.552  25.705   2.933
66426W        W32967  38.992  37.426  13.432
66427W        W32968  29.089  38.924  13.822
66428W        W32969  32.212  19.246   2.665
66429W        W32970  14.359  25.278   3.753
66430W        W32971  38.292  43.489   1.881
66431W        W32972  22.070  42.559  11.102
66432W        W32973  16.808   9.682  11.500
66433W        W32974  43.887  43.989  11.657
66434W        W32975  28.943  10.247   1.481
66435W        W32976  35.216   3.304  12.952
66436W        W32977   2.687  42.342   0.407
66437W        W32978  29.563  23.017  12.633
66438W        W32979  35.513  11.179   3.642
66439W        W32980  32.923  40.862   3.250
66440W        W32981   4.124   5.517   3.768
66441W        W32982   4.836  14.105   2.269
66442W        W32983  23.572   0.147  14.736
66443W        W32984  41.870  13.481   2.847
66444W        W32985   0.567  44.003  12.944
66445W        W32986  10.345  18.085   3.616
66446W        W32987   1.484   1.727  11.489
66447W        W32988   7.950   6.992  11.123
66448W        W32989   9.342  44.626  12.760
66449W        W32990  40.549  44.742   3.112
66450W        W32991  41.616  26.146  12.618
66451W        W32992  36.872  10.397   1.763
66452W        W32993  20.262  42.826   0.590
66453W        W32994  43.317  28.686  10.719
66454W        W32995   7.930  36.602  14.422
66455W        W32996  36.773  35.613   1.298
66456W        W32997   0.364  26.193  13.418
66457W        W32998  32.690  42.131  12.056
66458W        W32999   2.697  38.876   3.155
66459W        W33000  15.591  18.807   2.309
66460W        W33001  13.156  30.227  12.360
66461W        W33002  41.250  32.136  14.462
66462W        W33003  21.022  18.308   2.195
66463W        W33004   3.230  41.620  11.887
66464W        W33005   9.939  19.510   1.950
66465W        W33006  16.583  38.370   3.276
66466W        W33007  17.283  30.435  10.802
66467W        W33008  27.987  10.917  11.098
66468W        W33009  42.969  15.561  13.771
66469W        W33010  31.382   8.808   2.681
66470W        W33011  17.143  29.536  14.492
66471W        W33012  34.096  42.584  14.038
66472W        W33013   0.371  26.123  11.524
66473W        W33014  22.507  16.408  11.625
66474W        W33015  40.784  14.715  13.429
66475W        W33016  22.265  21.264  14.379
66476W        W33017   7.360  10.807   0.327
66477W        W33018  13.350  18.315  13.299
66478W        W33019  27.157  35.588  10.707
66479W        W33020  30.014  37.421  12.378
66480W        W33021   0.309  20.194   2.143
66481W        W33022  20.293  21.194  14.915
66482W        W33023  23.103   2.044   4.681
66483W        W33024  14.100   0.475  13.735
66484W        W33025  11.423  43.903   4.864
66485W        W33026   4.888  42.719   3.146
66486W        W33027  38.724  11.883  12.097
66487W        W33028  11.164  21.442   1.922
66488W        W33029   4.230  33.690   1.855
66489W        W33030  23.763   5.964   0.052
66490W        W33031  23.674  38.164  14.439
66491W        W33032  29.929  27.193  12.452
66492W        W33033   6.147  33.614  11.102
66493W        W33034  23.094  21.988  11.176
66494W        W33035  11.127  23.463  13.418
66495W        W33036  17.323  24.565   2.740
66496W        W33037  36.070  30.012  12.074
66497W        W33038   0.397  27.484   4.629
66498W        W33039  29.073  39.594   1.806
66499W        W33040  36.004  29.327   2.772
66500W        W33041  29.834  18.989  10.564
66501W        W33042  35.924   4.887   3.902
66502W        W33043  21.474  37.608   2.285
66503W        W33044   5.586   5.892   1.267
66504W        W33045  41.866  18.091  11.194
66505W        W33046  29.649   8.453   2.247
66506W        W33047  17.334  37.639  14.924
66507W        W33048   1.297  11.769   4.179
66508W        W33049   2.718   3.545   0.990
66509W        W33050  39.977  15.113   0.002
66510W        W33051  35.391  33.067  14.041
66511W        W33052  37.395   0.722  12.489
66512W        W33053   4.187   4.770   1.024
66513W        W33054  16.596  24.125  14.548
66514W        W33055  26.035  41.509  11.072
66515W        W33056  44.375  25.780  14.410
66516W        W33057   8.125  16.398  14.833
66517W        W33058  31.825  32.536   2.983
66518W        W33059  36.711  37.049   3.336
66519W        W33060  41.890  37.659  12.115
66520W        W33061  14.778  41.419  13.541
66521W        W33062  43.544  17.228  11.125
66522W        W33063  26.421  38.813  12.243
66523W        W33064   8.173  44.567   1.314
66524W        W33065  23.547   0.232   3.815
66525W        W33066   4.887  35.408  11.639
66526W        W33067  20.565  24.949   1.888
66527W        W33068  28.636  44.775  11.046
66528W        W33069  22.048  12.606  11.014
66529W        W33070  16.122  40.033   4.123
66530W        W33071  11.175   1.039   3.425
66531W        W33072  39.997  32.424   0.925
66532W        W33073  37.446  39.407  11.931
66533W        W33074  22.585  30.199  10.226
66534W        W33075  26.257   6.914   5.542
66535W        W33076  39.578  15.352   3.617
66536W        W33077  19.612  10.119  14.861
66537W        W33078   9.191  23.226   4.078
66538W        W33079  16.569  37.218   4.151
66539W        W33080  20.029  18.912   0.353
66540W        W33081  24.812  15.382  13.935
66541W        W33082  12.715  41.267  14.765
66542W        W33083  33.305  20.492  12.808
66543W        W33084  38.625  37.668   0.953
66544W        W33085  30.022  20.493  11.524
66545W        W33086  24.136  32.992  14.818
66546W        W33087  42.069  34.538   1.865
66547W        W33088   7.130   0.024  12.194
66548W        W33089  35.959   2.856   0.643
66549W        W33090  30.077  37.340  13.569
66550W        W33091  14.993  32.429   4.889
66551W        W33092  24.551  36.614  13.872
66552W        W33093  38.891  32.814  12.726
66553W        W33094  19.776  26.272   2.254
66554W        W33095  25.722   7.623  14.859
66555W        W33096  19.141   9.714  11.160
66556W        W33097  39.460   1.355   1.957
66557W        W33098  27.609  27.991  13.225
66558W        W33099   8.170  14.716   1.878
66559W        W33100   7.263  22.325  14.846
66560W        W33101  35.428  18.314   0.517
66561W        W33102   2.770   5.394  13.273
66562W        W33103  35.313  21.172  13.510
66563W        W33104   0.246   1.277   1.883
66564W        W33105  36.044  25.614   1.641
66565W        W33106   4.507  12.640   2.431
66566W        W33107  25.398  19.103  10.682
66567W        W33108  22.669  27.928  12.419
66568W        W33109  42.485  22.362  11.233
66569W        W33110  34.200  18.141   0.886
66570W        W33111  17.697  21.642   4.125
66571W        W33112  38.071  32.238  14.434
66572W        W33113  29.532  38.889  12.599
66573W        W33114  20.030  35.418   4.742
66574W        W33115  28.654  27.393  13.829
66575W        W33116  23.634  25.456   3.727
66576W        W33117  23.070  10.820   3.093
66577W        W33118  37.444  21.132   2.386
66578W        W33119  34.529   6.861  11.516
66579W        W33120  19.055  16.579   2.221
66580W        W33121   7.906  41.408   2.706
66581W        W33122   3.712  30.484   2.794
66582W        W33123  13.106  19.278   4.418
66583W        W33124   0.827  22.596  10.540
66584W        W33125  15.835  40.916   1.385
66585W        W33126  44.449  37.077   1.755
66586W        W33127  18.058   1.795  14.490
66587W        W33128  12.376  23.520  14.529
66588W        W33129   4.354  40.129  14.926
66589W        W33130  11.946  11.706  13.074
66590W        W33131  34.428  30.108  14.525
66591W        W33132  34.152  11.246  10.687
66592W        W33133   0.067  10.818  12.972
66593W        W33134  28.673  30.964  11.109
66594W        W33135  35.424  41.544  11.345
66595W        W33136  13.371   3.461   3.886
66596W        W33137  38.398  42.932   2.640
66597W        W33138  31.433   3.180  14.987
66598W        W33139  42.084   4.750   3.254
66599W        W33140  33.529  16.877   4.610
66600W        W33141  26.785  37.771  14.811
66601W        W33142   3.554   1.954  11.370
66602W        W33143   5.695  28.417  12.601
66603W        W33144  19.529  14.240   1.456
66604W        W33145  30.614  10.569  12.006
66605W        W33146  21.686  24.927  12.079
66606W        W33147  13.365  19.825  14.029
66607W        W33148   9.377  36.616   1.777
66608W        W33149  28.569  14.850  11.562
66609W        W33150  21.765  28.210  14.721
66610W        W33151  19.596  17.161  12.708
66611W        W33152  41.335  15.141  14.192
66612W        W33153  20.941  19.538  13.380
66613W        W33154  10.641  31.570   4.871
66614W        W33155   2.778  23.718  11.926
66615W        W33156  24.206  14.326   1.279
66616W        W33157  10.129  35.956   0.968
66617W        W33158   3.075   8.756  10.154
66618W        W33159  36.546  24.683  14.950
66619W        W33160  20.571   0.876  12.116
66620W        W33161  13.774  20.999   5.070
66621W        W33162   1.248  20.131   2.201
66622W        W33163  41.454   8.449  14.006
66623W        W33164   8.749  24.404  11.635
66624W        W33165  35.208  40.404  13.826
66625W        W33166   4.391   7.168  14.222
66626W        W33167  16.832   6.316  13.103
66627W        W33168  22.115  40.899  12.232
66628W        W33169  33.343   2.586   1.815
66629W        W33170  33.363  16.938  11.290
66630W        W33171  35.508  22.991   2.272
66631W        W33172   9.396   7.011   0.406
66632W        W33173  35.367  22.212  14.237
66633W        W33174  27.162   0.940  11.967
66634W        W33175  19.639  34.156  11.111
66635W        W33176  43.870  10.307   0.368
66636W        W33177  16.602   9.735  11.961
66637W        W33178  41.352  31.179   2.447
66638W        W33179  34.560  38.417  11.566
66639W        W33180   1.296   1.557  14.976
66640W        W33181  41.248  33.536  11.533
66641W        W33182  38.635  29.454  12.167
66642W        W33183  44.919  11.399   2.633
66643W        W33184   1.020  14.869  11.386
66644W        W33185  40.048  18.432   3.700
66645W        W33186  10.151  37.888  13.435
66646W        W33187   5.491  33.033  10.543
66647W        W33188  28.644  18.174   1.734
66648W        W33189  18.195  36.419  12.109
66649W        W33190  35.385  38.018  10.663
66650W        W33191  20.310  11.585   1.941
66651W        W33192  15.184  14.529   3.614
66652W        W33193  42.620   9.934   1.348
66653W        W33194  35.833  38.468   0.938
66654W        W33195  11.021  35.121  11.994
66655W        W33196  19.528   4.735   4.643
66656W        W33197  21.584   5.842  12.157
66657W        W33198  28.797  35.599   2.926
66658W        W33199  20.714  16.801  12.370
66659W        W33200  37.479  40.361  10.983
66660W        W33201  34.974   6.340  14.814
66661W        W33202  28.869  36.440  11.515
66662W        W33203  21.362  21.584   3.763
66663W        W33204   6.815   4.248   1.397
66664W        W33205  35.987   2.275   1.287
66665W        W33206  42.413   5.516  14.528
66666W        W33207  16.732  26.207   2.126
66667W        W33208  23.732   2.366   1.364
66668W        W33209  39.708  28.689   2.836
66669W        W33210  27.998  25.577  14.724
66670W        W33211  15.648   0.989   1.249
66671W        W33212  41.381  30.917   4.787
66672W        W33213  43.366  34.208   3.577
66673W        W33214  21.755  36.059   0.112
66674W        W33215  36.487  39.282  13.004
66675W        W33216  19.291  21.160   0.019
66676W        W33217  19.522   7.679   1.787
66677W        W33218  41.447   4.244   3.783
66678W        W33219  39.064  10.099   4.920
66679W        W33220  18.476  17.329  13.998
66680W        W33221  17.540  42.938  13.747
66681W        W33222  23.193  17.281   3.355
66682W        W33223  34.463  21.867  11.608
66683W        W33224  37.949  37.887   2.857
66684W        W33225  42.404  24.284   4.170
66685W        W33226  15.025  31.192  11.907
66686W        W33227  40.041  16.703  14.038
66687W        W33228  37.813  43.573  12.636
66688W        W33229  20.875  32.277  14.726
66689W        W33230  25.500  27.590   1.788
66690W        W33231  25.554  44.852   0.225
66691W        W33232  19.675  15.247   2.795
66692W        W33233  16.663  44.236  12.652
66693W        W33234  33.134  23.339  14.449
66694W        W33235  22.209  40.553  13.353
66695W        W33236  41.343  11.306   1.315
66696W        W33237  40.682  25.236   1.744
66697W        W33238  37.956   1.063   1.798
66698W        W33239  14.365  24.535  11.136
66699W        W33240  24.607  39.168   4.786
66700W        W33241  16.304  42.776   1.458
66701W        W33242  23.209  34.108  12.927
66702W        W33243  31.375  15.644   0.935
66703W        W33244  36.474  28.619   0.913
66704W        W33245   7.757   9.723  14.612
66705W        W33246  42.291   4.939  10.788
66706W        W33247  16.754  38.007  14.268
66707W        W33248  30.183  27.293   0.927
66708W        W33249  33.300  31.469   4.227
66709W        W33250  21.423   9.732   4.046
66710W        W33251  34.135  20.029   0.350
66711W        W33252  40.257  13.585  14.417
66712W        W33253  25.926  23.463   4.551
66713W        W33254  36.991  10.748  11.146
66714W        W33255  25.708   1.572  11.085
66715W        W33256  27.215  32.132   3.171
66716W        W33257  30.381  34.019  10.600
66717W        W33258  17.021  12.267  14.787
66718W        W33259  13.749  18.496   2.924
66719W        W33260  31.503  17.811   4.846
66720W        W33261  39.286  12.306   2.811
66721W        W33262  41.913   3.797   2.267
66722W        W33263   9.653  15.386  10.532
66723W        W33264  22.466   3.746  14.856
66724W        W33265  41.955  23.760   2.204
66725W        W33266   4.188  25.599   1.874
66726W        W33267  30.579  38.015   3.922
66727W        W33268  14.322  28.380  13.019
66728W        W33269  35.621   1.470  13.540
66729W        W33270  15.988   2.739   3.193
66730W        W33271   9.892  13.432  13.455
66731W        W33272  16.813   4.741  13.364
66732W        W33273  27.103  36.675  13.548
66733W        W33274  33.316  26.912  14.897
66734W        W33275  41.852  35.596   3.204
66735W        W33276  28.906  28.574  10.699
66736W        W33277  24.074  27.032  13.303
66737W        W33278  11.311  11.830  12.185
66738W        W33279  20.774  34.087   4.974
66739W        W33280  18.126   5.708  13.901
66740W        W33281  41.555  30.864   1.523
66741W        W33282  38.880  18.557   0.267
66742W        W33283  14.108  17.450  14.949
66743W        W33284  31.204  36.146   1.155
66744W        W33285  11.825  40.901   9.872
66745W        W33286  30.936  25.241  14.260
66746W        W33287  26.762  25.354   0.434
66747W        W33288  19.679  31.085   2.371
66748W        W33289  27.464  38.659  10.708
66749W        W33290  23.179  25.220   1.636
66750W        W33291   0.781   7.880  10.570
66751W        W33292  36.045   9.413   0.720
66752W        W33293  31.083   3.211  12.522
66753W        W33294  11.113  23.647   3.702
66754W        W33295  29.878  26.570   2.430
66755W        W33296  23.934  14.753   1.315
66756W        W33297  26.110   4.951  11.631
66757W        W33298  36.943  28.730   1.728
66758W        W33299   6.694  14.515   1.852
66759W        W33300  33.483   6.180  11.176
66760W        W33301  12.093   3.874   3.593
66761W        W33302   7.307  18.736   2.745
66762W        W33303  42.456  22.661  13.556
66763W        W33304  40.996   2.782   4.164
66764W        W33305  23.161  31.190   3.730
66765W        W33306  10.171  44.238  11.988
66766W        W33307  27.028   2.909   2.918
66767W        W33308  21.962  10.358  11.824
66768W        W33309  15.477   2.706   1.247
66769W        W33310  32.621  31.135  14.948
66770W        W33311  11.836  42.533   3.543
66771W        W33312  32.961   8.952  12.889
66772W        W33313  30.675  29.608   2.755
66773W        W33314  32.404   7.663  14.332
66774W        W33315  26.404  25.926   4.071
66775W        W33316  18.776   5.705   1.354
66776W        W33317   3.384  16.732   0.816
66777W        W33318  38.748  40.275   4.941
66778W        W33319  36.044  14.965   3.240
66779W        W33320  12.811  17.230   1.658
66780W        W33321  30.587  15.104   4.020
66781W        W33322  34.983   9.201   3.233
66782W        W33323  30.196  19.243  11.451
66783W        W33324  37.930  39.120   4.511
66784W        W33325  29.617   8.946  14.187
66785W        W33326  42.499  33.993   3.666
66786W        W33327  23.754   5.905   2.370
66787W        W33328  17.479  41.618   1.435
66788W        W33329  39.509  41.753  13.354
66789W        W33330  27.372  37.797  10.534
66790W        W33331  21.172  11.139  13.059
66791W        W33332   3.159  11.124   1.197
66792W        W33333  26.432  32.505  14.856
66793W        W33334  32.071  34.928  13.448
66794W        W33335  25.643   0.213   3.339
66795W        W33336  24.742  13.291   3.184
66796W        W33337   5.368  15.515   0.475
66797W        W33338   7.279  17.452   4.908
66798W        W33339   2.723  29.374   4.339
66799W        W33340  26.743   5.854   1.451
66800W        W33341  30.594  22.075  10.976
66801W        W33342   6.246  44.812  12.865
66802W        W33343  24.326  41.119  11.630
66803W        W33344  37.852  31.934  12.408
66804W        W33345   3.885   8.447   4.132
66805W        W33346  18.634   1.515   2.606
66806W        W33347  22.073   8.876  14.801
66807W        W33348  34.976  43.381  11.717
66808W        W33349  31.768  19.611  10.426
66809W        W33350  24.590  20.237  12.542
66810W        W33351   9.325  35.818  11.656
66811W        W33352   5.293  39.087   0.226
66812W        W33353  15.262  16.161   3.202
66813W        W33354  30.528  22.132  12.446
66814W        W33355  28.962  10.370  14.913
66815W        W33356  27.757  29.710   1.465
66816W        W33357  44.869  36.743   4.329
66817W        W33358  34.483  42.493   3.773
66818W        W33359  36.853  18.106   0.304
66819W        W33360   8.279  21.753   4.577
66820W        W33361  24.226  16.889  10.414
66821W        W33362  28.760  29.803  12.814
66822W        W33363  31.881   2.202   0.832
66823W        W33364  11.771  30.940  11.987
66824W        W33365  39.450  10.919   3.282
66825W        W33366   9.744   5.758   0.021
66826W        W33367   4.842  10.903   2.908
66827W        W33368  26.007   7.778  12.101
66828W        W33369  14.022  30.850   1.263
66829W        W33370  19.146   3.550   0.241
66830W        W33371  20.684   8.822   0.482
66831W        W33372  40.314  17.554   0.632
66832W        W33373  43.997  17.107   0.490
66833W        W33374   1.510   4.794  13.345
66834W        W33375  12.142  18.996   1.825
66835W        W33376  28.095   9.423   0.513
66836W        W33377  30.213  17.660  14.530
66837W        W33378  24.732  19.501   1.756
66838W        W33379  25.814  14.396  14.983
66839W        W33380   9.135  37.470   3.358
66840W        W33381  34.495  40.037  14.472
66841W        W33382  42.206  27.109   2.734
66842W        W33383  30.415  34.896   3.296
66843W        W33384   0.848  18.990   2.333
66844W        W33385  36.329  22.670  11.621
66845W        W33386  19.336  26.027   2.464
66846W        W33387  24.844  29.987   3.570
66847W        W33388  22.790  40.893  11.095
66848W        W33389  28.839   9.163  12.004
66849W        W33390  31.750  37.280  11.164
66850W        W33391  38.151   3.165  10.095
66851W        W33392  38.569  33.945  14.682
66852W        W33393  28.156  43.400   1.002
66853W        W33394  30.167  16.307   1.207
66854W        W33395  26.530  28.464   2.208
66855W        W33396  32.928   7.311  10.531
66856W        W33397  38.177  42.986   4.278
66857W        W33398  15.094  15.369  12.845
66858W        W33399  36.596  29.391  13.376
66859W        W33400   8.287  40.347  12.567
66860W        W33401   3.689  31.115   1.282
66861W        W33402  19.217  11.296  10.964
66862W        W33403  41.502   7.123  12.056
66863W        W33404   5.848  40.723   4.562
66864W        W33405  34.984   2.557   2.584
66865W        W33406  11.712  19.210  13.484
66866W        W33407  25.504  14.283   1.670
66867W        W33408   2.850  42.063   1.593
66868W        W33409  15.777   4.923  13.485
66869W        W33410  39.500   2.836  12.302
66870W        W33411  27.403   4.691  14.884
66871W        W33412  24.498  41.663  13.272
66872W        W33413   8.768  40.839   2.404
66873W        W33414  42.457  38.825   1.862
66874W        W33415  19.835  27.437   2.769
66875W        W33416  35.421   0.743  14.849
66876W        W33417  20.094  29.126  14.003
66877W        W33418  31.931  29.533   1.263
66878W        W33419  21.818  43.411  14.817
66879W        W33420   4.734  41.073  10.720
66880W        W33421  44.425   6.705   3.227
66881W        W33422   4.857  34.568  14.884
66882W        W33423  42.508  32.859  14.777
66883W        W33424  32.621  41.616  13.830
66884W        W33425  32.695  13.902   1.786
66885W        W33426  28.603   6.236   3.306
66886W        W33427   4.420  23.059  12.615
66887W        W33428   2.283   7.630  14.074
66888W        W33429  19.769   3.415  11.073
66889W        W33430   0.948  24.071   4.177
66890W        W33431  15.581   1.093  11.146
66891W        W33432  15.241  44.578  12.567
66892W        W33433  15.581   8.694  12.948
66893W        W33434   6.950  12.486   4.252
66894W        W33435   3.644  17.278  14.297
66895W        W33436   1.445  18.257  10.480
66896W        W33437  36.880  17.240  14.289
66897W        W33438   8.324  28.176   4.429
66898W        W33439  16.954  33.456  12.079
66899W        W33440  17.069  32.485   3.371
66900W        W33441  24.083  24.060  14.956
66901W        W33442  43.406   2.373   3.781
66902W        W33443   9.817  33.060   4.151
66903W        W33444  18.879  18.875   1.472
66904W        W33445  37.649  14.840  13.162
66905W        W33446  38.387   4.815  10.485
66906W        W33447  11.712   9.657  10.642
66907W        W33448  18.116  42.533   2.724
66908W        W33449  17.003  38.450  11.524
66909W        W33450  33.607   8.633  10.532
66910W        W33451  26.178  19.142   0.245
66911W        W33452   3.505  39.472  11.015
66912W        W33453  40.492  13.733   4.064
66913W        W33454  15.151   7.296  12.720
66914W        W33455  34.600  29.066  13.469
66915W        W33456  22.437  44.996  11.491
66916W        W33457  12.166  34.424  11.078
66917W        W33458  32.045   5.188   3.703
66918W        W33459  26.268  16.152   1.903
66919W        W33460   4.393  42.495   0.351
66920W        W33461  37.895  39.020   0.878
66921W        W33462  22.441  17.638   2.337
66922W        W33463  40.674  30.234   5.033
66923W        W33464   5.308  43.409  14.717
66924W        W33465   2.350  22.387   4.073
66925W        W33466  10.178   2.363   4.162
66926W        W33467  10.906  29.596   4.115
66927W        W33468  17.549  33.783  14.703
66928W        W33469  17.065  41.917  14.815
66929W        W33470   0.123  18.737   4.509
66930W        W33471  24.645  39.921   3.196
66931W        W33472   8.352  40.865   4.218
66932W        W33473  14.155  24.697   2.415
66933W        W33474  27.483  16.288  13.944
66934W        W33475   6.300   0.065   2.461
66935W        W33476   7.850  14.057   1.207
66936W        W33477   7.880  23.549   2.730
66937W        W33478  34.826  27.151  14.771
66938W        W33479  27.642   5.205   4.767
66939W        W33480  35.616   3.301  13.936
66940W        W33481  16.528  40.028   1.278
66941W        W33482  18.514  15.021  11.675
66942W        W33483  23.078  35.899   4.597
66943W        W33484  31.757  39.764   3.637
66944W        W33485   2.450  44.570  14.543
66945W        W33486  33.955   8.989  10.648
66946W        W33487  32.967   8.959  11.865
66947W        W33488  11.751  17.657  13.502
66948W        W33489  21.041  18.245  14.896
66949W        W33490   3.000  20.708  14.482
66950W        W33491  29.172  44.875  13.525
66951W        W33492  25.067  30.513  12.402
66952W        W33493  11.052  35.555   4.253
66953W        W33494  14.497  34.866   1.083
66954W        W33495  33.572  10.254   5.009
66955W        W33496   7.754   0.720   1.037
66956W        W33497  35.172  28.902   0.878
66957W        W33498  34.555   2.296   0.113
66958W        W33499  28.165  23.172   3.781
66959W        W33500  38.768  44.478   2.485
66960W        W33501   1.926  15.291  11.643
66961W        W33502  35.772   0.415  10.677
66962W        W33503  32.603  38.240  14.396
66963W        W33504  27.669   0.205  10.413
66964W        W33505  18.795  40.515   2.848
66965W        W33506   8.729  25.944   1.871
66966W        W33507   5.302  24.234   3.978
66967W        W33508  15.049  34.633  14.925
66968W        W33509  17.699  16.545  12.714
66969W        W33510   0.924  43.788   0.885
66970W        W33511  37.831  22.292   1.218
66971W        W33512  20.741   8.354  11.230
66972W        W33513  23.555  18.778  12.081
66973W        W33514  16.763  36.550  14.600
66974W        W33515  13.268  21.237   3.724
66975W        W33516   0.935   4.894   4.654
66976W        W33517  39.811  29.409   4.610
66977W        W33518  36.415  30.002   0.074
66978W        W33519  13.581  15.781   1.261
66979W        W33520  15.453  35.894   3.578
66980W        W33521  19.731  44.293  12.408
66981W        W33522  10.315   3.796  11.182
66982W        W33523  29.989  37.170  12.960
66983W        W33524   4.949  39.432  14.756
66984W        W33525  17.189  11.778  12.075
66985W        W33526  36.432  37.946   1.406
66986W        W33527   6.592   5.138  14.330
66987W        W33528  32.337   9.420  10.447
66988W        W33529  13.042  37.795  11.316
66989W        W33530  21.544  32.683   1.707
66990W        W33531  30.512  10.423  13.380
66991W        W33532  17.110   0.020  12.012
66992W        W33533  25.658  17.219  11.527
66993W        W33534  16.829  12.416  12.939
66994W        W33535  30.800  18.427  11.130
66995W        W33536  12.365  30.605  10.253
66996W        W33537  15.543  19.158  14.894
66997W        W33538   2.448   9.780   4.682
66998W        W33539  21.628   0.214  14.310
66999W        W33540  28.852  29.848   0.783
67000W        W33541  23.432   3.785   5.146
67001W        W33542   9.760  31.440  14.396
67002W        W33543  35.955   2.925   9.774
67003W        W33544  11.364  29.883   3.236
67004W        W33545  35.065   0.583   3.623
67005W        W33546  21.059   9.346  13.376
67006W        W33547  19.083  19.711   3.652
67007W        W33548   6.025  24.607  13.261
67008W        W33549  26.304  25.596   4.466
67009W        W33550  15.858  36.074   3.339
67010W        W33551  28.475  26.605   3.265
67011W        W33552  16.436  11.066   1.851
67012W        W33553  26.718  17.178  11.071
67013W        W33554   2.263  23.591  12.598
67014W        W33555  31.033  38.904   0.949
67015W        W33556   2.386  11.255   0.444
67016W        W33557   8.804   7.421   1.281
67017W        W33558  33.190   5.844   1.492
67018W        W33559  15.630  42.241   0.908
67019W        W33560  42.984   1.960  13.021
67020W        W33561  16.808   5.328  12.662
67021W        W33562  41.037  29.574  12.500
67022W        W33563  38.902  31.153  10.294
67023W        W33564  44.872  32.081   0.962
67024W        W33565   6.063  36.038   1.389
67025W        W33566  24.731  44.228   3.249
67026W        W33567  18.133  32.961  13.942
67027W        W33568   9.626   9.498   0.860
67028W        W33569  20.808  21.264   3.642
67029W        W33570   4.878  10.268  11.758
67030W        W33571  19.780   7.856   2.820
67031W        W33572  22.965  29.101   1.801
67032W        W33573  31.497  11.139   1.800
67033W        W33574  24.827  37.451  12.136
67034W        W33575  19.778   8.360   4.066
67035W        W33576   8.683  35.931   1.751
67036W        W33577   8.400  23.072   1.472
67037W        W33578  11.747  33.631   1.943
67038W        W33579  27.557  13.750  14.935
67039W        W33580  23.539  18.922  11.170
67040W        W33581  36.825  15.349   3.695
67041W        W33582  40.601   3.448   1.887
67042W        W33583  37.818  33.640   0.087
67043W        W33584  19.969  15.736  14.895
67044W        W33585  25.282  28.948   2.412
67045W        W33586  41.448  26.859  11.013
67046W        W33587  36.411   8.482  12.301
67047W        W33588   3.023  29.621  12.378
67048W        W33589  41.273  32.390  14.006
67049W        W33590  35.528  12.727   1.932
67050W        W33591  29.189  33.535   2.743
67051W        W33592  31.601   8.382  11.905
67052W        W33593  35.965  27.423  12.005
67053W        W33594   2.676  30.999   0.244
67054W        W33595   3.112   3.934   2.723
67055W        W33596   2.805  43.535  13.760
67056W        W33597  13.260  18.203  14.258
67057W        W33598   2.649  31.590   0.815
67058W        W33599  20.725  12.846   0.518
67059W        W33600  36.670  42.197  12.571
67060W        W33601  27.231   1.826  11.999
67061W        W33602  41.113  37.436   1.915
67062W        W33603  30.375   2.402   0.915
67063W        W33604  14.691  30.169  10.224
67064W        W33605  22.577  22.074  13.400
67065W        W33606  26.571  11.028   1.250
67066W        W33607  37.459   1.276   0.230
67067W        W33608  15.666  21.028  11.639
67068W        W33609  20.092  21.603  11.642
67069W        W33610   3.015  30.618   4.524
67070W        W33611   5.873  11.308  14.101
67071W        W33612  41.899  39.646   0.964
67072W        W33613  36.645  32.363  14.491
67073W        W33614  27.665   2.308  14.922
67074W        W33615  20.592  32.640  13.481
67075W        W33616   5.409  11.804  11.187
67076W        W33617  14.880  41.710   4.105
67077W        W33618  24.671  30.545   1.447
67078W        W33619  39.773  20.103  13.166
67079W        W33620  42.253  16.556   3.636
67080W        W33621  34.943  14.047   0.889
67081W        W33622  41.595  16.071  13.859
67082W        W33623   2.164  32.599  14.513
67083W        W33624  13.911  12.717  10.621
67084W        W33625  20.830  10.948   1.240
67085W        W33626  44.016  43.519  12.592
67086W        W33627   8.408  36.045  11.506
67087W        W33628  29.501  26.422  12.627
67088W        W33629   6.495  13.615   4.281
67089W        W33630  17.833  44.504  10.390
67090W        W33631  32.959   3.831   2.908
67091W        W33632  31.411  13.617   5.494
67092W        W33633  10.700  13.670   1.782
67093W        W33634   1.134  12.392  10.426
67094W        W33635  30.479  37.746  14.770
67095W        W33636  17.805  27.042   1.751
67096W        W33637  12.889  18.468  13.110
67097W        W33638  18.332   3.458   1.018
67098W        W33639  10.933  14.569  10.598
67099W        W33640  37.603   9.895  12.495
67100W        W33641  30.919  18.012  10.731
67101W        W33642  28.701  38.755   3.328
67102W        W33643   4.205  26.957  14.598
67103W        W33644  10.863  28.964  13.456
67104W        W33645   9.659   4.679   4.687
67105W        W33646  15.795  29.375   4.168
67106W        W33647   1.962  43.657   2.838
67107W        W33648  20.974  23.162  10.583
67108W        W33649  13.441  30.673  11.098
67109W        W33650  35.470  26.567  12.922
67110W        W33651  17.318   3.983   1.772
67111W        W33652  15.692  20.700   0.144
67112W        W33653  36.217  12.448   3.396
67113W        W33654  36.338  29.125   3.765
67114W        W33655  43.248   0.077  12.513
67115W        W33656  44.442  35.140  11.190
67116W        W33657  10.828  41.569   0.781
67117W        W33658  28.477  34.083  14.492
67118W        W33659  39.582  11.427   4.967
67119W        W33660   6.857  33.644  12.186
67120W        W33661  22.145  15.006  14.554
67121W        W33662  19.734  33.499  11.841
67122W        W33663  41.723  41.392  14.359
67123W        W33664   7.731  18.706   3.124
67124W        W33665  13.673  31.863  14.716
67125W        W33666  32.790  42.847   1.685
67126W        W33667  41.966  22.934   3.350
67127W        W33668  18.514  18.708   2.793
67128W        W33669   0.706  39.677   1.770
67129W        W33670   2.071  13.751  10.764
67130W        W33671  24.114   4.384   2.198
67131W        W33672  18.252  42.916   1.739
67132W        W33673  26.537   6.216  13.766
67133W        W33674  18.098  17.570   2.188
67134W        W33675  10.674  10.485   3.244
67135W        W33676   9.827   9.192   3.043
67136W        W33677  23.072  13.026   0.282
67137W        W33678  43.322  29.587   3.254
67138W        W33679   2.660   2.279   0.453
67139W        W33680  32.311  19.100  12.471
67140W        W33681  27.690  29.010   3.193
67141W        W33682  11.711  38.392  10.932
67142W        W33683  17.939  14.980  14.267
67143W        W33684  28.063  25.023  12.504
67144W        W33685  15.750  31.555   1.697
67145W        W33686  12.651  25.078  14.774
67146W        W33687  44.524   0.139   0.851
67147W        W33688  39.515  43.851   0.511
67148W        W33689  40.800  31.616   0.916
67149W        W33690   7.372   3.626   3.307
67150W        W33691  39.790  24.729   0.446
67151W        W33692   4.784  29.944  14.982
67152W        W33693   3.518  42.394   3.705
67153W        W33694  35.432   6.786   5.024
67154W        W33695   8.978  40.885  11.667
67155W        W33696  14.594  39.087  11.058
67156W        W33697  43.775  39.270   2.583
67157W        W33698  42.741  15.071   3.816
67158W        W33699   6.143   7.285  13.503
67159W        W33700  21.610  30.170  14.970
67160W        W33701   9.873  17.189   3.765
67161W        W33702  37.241  15.281   5.481
67162W        W33703   6.710  30.340  12.466
67163W        W33704  30.654  35.385   0.412
67164W        W33705  42.101  31.338   4.842
67165W        W33706  29.526  28.912   0.461
67166W        W33707  27.555  14.209   0.713
67167W        W33708  39.078  34.377  11.593
67168W        W33709  30.164  44.481   2.392
67169W        W33710   4.229  12.577   2.863
67170W        W33711  41.892  20.122  11.101
67171W        W33712  44.740  30.597   2.779
67172W        W33713  40.774  11.580  12.535
67173W        W33714   2.760  26.107   4.580
67174W        W33715   7.854   1.040   1.470
67175W        W33716  33.019  35.861  13.911
67176W        W33717   3.160  37.486  10.698
67177W        W33718  24.471  14.948  10.974
67178W        W33719  22.272  43.033   0.815
67179W        W33720   9.627  13.074  14.261
67180W        W33721   1.441  24.438  11.098
67181W        W33722   5.620  14.075  13.892
67182W        W33723  43.551  42.326  12.230
67183W        W33724   0.815  11.161  12.179
67184W        W33725  13.368  26.973   3.328
67185W        W33726  23.971  44.577   1.448
67186W        W33727  17.252  33.324   2.367
67187W        W33728  30.870   5.384   1.101
67188W        W33729  40.914  23.246   3.418
67189W        W33730  22.333  15.010  14.066
67190W        W33731  35.846   5.307   0.343
67191W        W33732   9.141  28.324  10.859
67192W        W33733  31.050  10.510   4.202
67193W        W33734  36.902  24.584   1.964
67194W        W33735  24.824   3.397  10.583
67195W        W33736  38.742  12.608   2.337
67196W        W33737   3.766  13.174  13.005
67197W        W33738  27.048  43.026   2.209
67198W        W33739  34.580   9.399  13.778
67199W        W33740  39.210   0.248   4.998
67200W        W33741  42.309  23.765   4.212
67201W        W33742  27.461   4.925   1.795
67202W        W33743  42.403   1.845   2.643
67203W        W33744  29.976  29.865  14.450
67204W        W33745  33.892   4.380   4.904
67205W        W33746  10.661  10.985   2.358
67206W        W33747  36.918  43.940  13.996
67207W        W33748  29.516  39.531  12.015
67208W        W33749  41.941  41.470  13.893
67209W        W33750  21.324   2.375  12.491
67210W        W33751   9.067  36.832   0.280
67211W        W33752  40.094  24.522   0.826
67212W        W33753  40.435  11.896  10.266
67213W        W33754  19.217  27.187  13.841
67214W        W33755  12.643  23.380   0.698
67215W        W33756  36.538   0.258   3.654
67216W        W33757  15.581   9.838   3.816
67217W        W33758  12.357   6.274  14.520
67218W        W33759  26.408  43.535  12.097
67219W        W33760   5.649  42.357   3.241
67220W        W33761   9.861  17.885   0.407
67221W        W33762  24.429   8.353  10.523
67222W        W33763  21.475  30.429  14.558
67223W        W33764  32.008  10.768  12.938
67224W        W33765  35.949  15.872   1.024
67225W        W33766  36.373  14.122  11.152
67226W        W33767  19.113  39.404  11.590
67227W        W33768  12.934  43.056   2.689
67228W        W33769   3.734  23.095   1.770
67229W        W33770  12.851  28.554  12.814
67230W        W33771  19.927  25.594  11.369
67231W        W33772  36.642  24.495  11.469
67232W        W33773  21.683  15.257  14.463
67233W        W33774   5.104  14.665   0.737
67234W        W33775  24.004  32.639   1.663
67235W        W33776  27.297   7.475  11.176
67236W        W33777  21.630  18.251   0.053
67237W        W33778  23.217  16.658  10.667
67238W        W33779  14.758  16.104   3.253
67239W        W33780  41.024  39.115  14.858
67240W        W33781  40.562  36.787   0.444
67241W        W33782  28.916  32.105  10.684
67242W        W33783  20.815   7.326  12.311
67243W        W33784   6.485  15.492   4.406
67244W        W33785  21.376  29.312   4.152
67245W        W33786  13.672  11.239   4.790
67246W        W33787  26.041  17.226   4.767
67247W        W33788  25.719   7.223   0.412
67248W        W33789  42.349  10.387  14.303
67249W        W33790  18.170   2.992  10.691
67250W        W33791  41.985  21.781  13.520
67251W        W33792  11.703  25.255   4.543
67252W        W33793  27.565  27.626   1.456
67253W        W33794  20.691   4.112  10.193
67254W        W33795  27.843  24.851  11.594
67255W        W33796  16.544  13.689  13.276
67256W        W33797  23.505  38.962  10.303
67257W        W33798  38.871  13.357  13.894
67258W        W33799  22.737   8.135   1.538
67259W        W33800  19.691  12.824  14.824
67260W        W33801  24.509  30.881   3.681
67261W        W33802   8.096  11.613  14.371
67262W        W33803  13.719  23.722  11.108
67263W        W33804  19.631   1.462   0.355
67264W        W33805  22.030  36.911  10.973
67265W        W33806  25.984   2.232  12.653
67266W        W33807  42.521  33.817  13.037
67267W        W33808  42.006   0.951   2.659
67268W        W33809  44.047  23.173  10.749
67269W        W33810  22.090  17.369  12.104
67270W        W33811  39.509  41.313  14.782
67271W        W33812   7.263  38.510  13.813
67272W        W33813  26.102  33.926  11.605
67273W        W33814   5.722  29.348   3.399
67274W        W33815  20.581  43.321  14.802
67275W        W33816  13.231   1.648   1.728
67276W        W33817   6.109  35.024   5.104
67277W        W33818  33.968  34.415  12.943
67278W        W33819  33.553  41.223  11.167
67279W        W33820  21.672  23.973  13.062
67280W        W33821  37.525  15.546   0.824
67281W        W33822   1.461   1.205   2.244
67282W        W33823  35.368  41.000   0.946
67283W        W33824  31.614  40.896   4.724
67284W        W33825  39.569  19.364   1.325
67285W        W33826  42.891  41.947  12.813
67286W        W33827  37.879  32.033  11.472
67287W        W33828  23.121  12.811   1.637
67288W        W33829  27.554  19.137   3.671
67289W        W33830  20.587  23.058  11.163
67290W        W33831  39.090  20.164  14.535
67291W        W33832  44.926  28.318  12.486
67292W        W33833  27.740  17.741  10.624
67293W        W33834  38.056  31.508   1.389
67294W        W33835  26.617  40.291   4.064
67295W        W33836  33.883  10.610  14.895
67296W        W33837  19.084  20.470  13.278
67297W        W33838   1.716   1.114   2.694
67298W        W33839  35.016   0.727  13.465
67299W        W33840  25.425  22.155  11.057
67300W        W33841  39.833  44.984  11.007
67301W        W33842  18.959  22.121  11.096
67302W        W33843  36.374  30.456   4.798
67303W        W33844   2.363   3.717   2.249
67304W        W33845  36.732   2.312   2.744
67305W        W33846  21.017  21.705  11.602
67306W        W33847  39.905  39.739  13.253
67307W        W33848  18.054  38.739  14.905
67308W        W33849  41.889  23.654   0.849
67309W        W33850  27.105  36.482   4.146
67310W        W33851  22.678  20.965  14.424
67311W        W33852  18.048  24.258  10.860
67312W        W33853  31.124  39.966   1.028
67313W        W33854  30.143  32.799  13.174
67314W        W33855  27.074   7.228  12.598
67315W        W33856  38.209  10.190  10.773
67316W        W33857  29.443  23.601  13.719
67317W        W33858  34.160   7.484   0.896
67318W        W33859  15.099   1.938  14.442
67319W        W33860  24.649  18.280   2.351
67320W        W33861  11.901  28.936  10.598
67321W        W33862  44.709  40.317   1.504
67322W        W33863  25.578  38.777  13.550
67323W        W33864  24.229  43.322   2.272
67324W        W33865  10.707  32.339  12.621
67325W        W33866  19.676   5.597  14.714
67326W        W33867  19.055  16.077  14.841
67327W        W33868   1.501   2.786   0.813
67328W        W33869  23.392  15.722   1.267
67329W        W33870   0.210   7.223   4.360
67330W        W33871  31.243  14.650   3.584
67331W        W33872  22.690  15.360  10.998
67332W        W33873  20.705  20.797   1.860
67333W        W33874  15.648  24.499   0.382
67334W        W33875  11.688  27.103  10.666
67335W        W33876  31.684  37.961   4.195
67336W        W33877   5.316  37.132  12.033
67337W        W33878  18.616  20.544  14.957
67338W        W33879  43.233  41.323   4.295
67339W        W33880   5.775  41.219  12.551
67340W        W33881  28.722  37.443   1.221
67341W        W33882  11.098  44.411   4.638
67342W        W33883  18.060  11.339   2.673
67343W        W33884  23.237   0.131  12.490
67344W        W33885  13.384  27.750   1.796
67345W        W33886  20.947  31.957   0.924
67346W        W33887  41.505  11.438   2.562
67347W        W33888  13.036  32.120   0.390
67348W        W33889   4.981   6.802   0.366
67349W        W33890  43.310   0.806   1.968
67350W        W33891   1.341  31.129   0.026
67351W        W33892  26.910  23.914  11.678
67352W        W33893  39.598  11.768  10.386
67353W        W33894  35.800  23.564   0.839
67354W        W33895   2.292  30.651   0.392
67355W        W33896  32.979  35.040  13.446
67356W        W33897   1.217  23.482   4.287
67357W        W33898  26.079   6.764   5.039
67358W        W33899  13.118  33.464   3.572
67359W        W33900  11.765   7.470  14.786
67360W        W33901   4.064  42.888   1.543
67361W        W33902  13.044  43.909   2.707
67362W        W33903  27.230  42.240  12.545
67363W        W33904  36.808   7.137  14.546
67364W        W33905  12.125  31.082  11.056
67365W        W33906   0.609   2.089  13.958
67366W        W33907  18.786  36.467  12.595
67367W        W33908  42.895   0.565   5.197
67368W        W33909   8.661  33.585   3.187
67369W        W33910  33.132  12.209  10.623
67370W        W33911  29.207   0.274   1.334
67371W        W33912  16.144  34.608   9.770
67372W        W33913  38.222  43.566  13.801
67373W        W33914  28.612  19.121   4.404
67374W        W33915  37.958  30.169  13.562
67375W        W33916  39.445  25.747  13.946
67376W        W33917  17.257   3.193   1.383
67377W        W33918  20.686  31.586  13.380
67378W        W33919  12.825   6.441   2.929
67379W        W33920  25.705   6.761   3.722
67380W        W33921  42.766  13.220   2.215
67381W        W33922   1.066  39.022  11.279
67382W        W33923  31.381  34.436  13.947
67383W        W33924  17.323  15.790  11.652
67384W        W33925  42.815   5.889   1.301
67385W        W33926  34.829  27.704  11.554
67386W        W33927  11.103  34.342  12.161
67387W        W33928  27.163   6.473  11.124
67388W        W33929   9.981  26.333   3.901
67389W        W33930  23.355  21.873  12.017
67390W        W33931   8.789   1.526  10.705
67391W        W33932   4.556  21.396  14.957
67392W        W33933  18.133  40.500   4.218
67393W        W33934  31.458  35.599   3.726
67394W        W33935  23.582  26.984   4.731
67395W        W33936  28.796   6.670   0.385
67396W        W33937  30.477  16.200   0.332
67397W        W33938  40.277  22.695   5.012
67398W        W33939   3.617  11.088   3.623
67399W        W33940  26.211  29.112  14.577
67400W        W33941  19.726  16.744   1.037
67401W        W33942   8.625   2.688   1.856
67402W        W33943   8.386  38.386   4.267
67403W        W33944  41.086  20.532   1.969
67404W        W33945  38.654  32.189  11.018
67405W        W33946  28.713  12.918   5.270
67406W        W33947   2.843  43.754  14.241
67407W        W33948  26.552  23.922   3.248
67408W        W33949  40.469  38.459   1.313
67409W        W33950  35.874   8.022   1.072
67410W        W33951  15.034  37.908  11.162
67411W        W33952  34.906  37.769   2.212
67412W        W33953  24.689  42.118  13.110
67413W        W33954  18.971  22.317   2.825
67414W        W33955  14.663  24.620   2.593
67415W        W33956  38.063   8.383  11.216
67416W        W33957  15.960   3.671  10.367
67417W        W33958  14.862  16.235  14.997
67418W        W33959  22.763  10.144  10.340
67419W        W33960  39.488   8.637  12.035
67420W        W33961  16.258   4.665  12.121
67421W        W33962  22.952  37.865  14.876
67422W        W33963   5.001  32.937  13.425
67423W        W33964  33.374  38.080   0.255
67424W        W33965  26.994  11.159  12.392
67425W        W33966  35.193   1.521  13.855
67426W        W33967  13.785  14.608   1.817
67427W        W33968  44.912  42.783   1.880
67428W        W33969   5.194  13.367   3.352
67429W        W33970  21.383   0.236   4.120
67430W        W33971   4.259  43.083   2.905
67431W        W33972  17.584  18.306   2.233
67432W        W33973  14.358   5.770  13.047
67433W        W33974   1.193  20.246  14.426
67434W        W33975   5.877   7.828   2.680
67435W        W33976  37.144  33.302   1.457
67436W        W33977   2.378  40.283  14.346
67437W        W33978  14.092  32.124  14.949
67438W        W33979  16.165  16.326   2.704
67439W        W33980  42.088  14.735  12.129
67440W        W33981  41.580  26.904   1.902
67441W        W33982  43.972  17.812   0.704
67442W        W33983  19.177  11.729  11.539
67443W        W33984   5.766  38.421   0.019
67444W        W33985   2.645  24.644   9.777
67445W        W33986   7.433  23.359  13.011
67446W        W33987  19.799   1.523  11.255
67447W        W33988  44.529  11.497  11.066
67448W        W33989  11.159  11.401   3.333
67449W        W33990  37.843   9.674   4.531
67450W        W33991  43.767  10.627  14.007
67451W        W33992  40.799  40.166  11.628
67452W        W33993   6.522  22.948  12.053
67453W        W33994  25.081  41.048   0.381
67454W        W33995  36.045  12.913  13.765
67455W        W33996  43.695   3.870   4.262
67456W        W33997  20.168  23.011   0.727
67457W        W33998   7.422   6.824   2.404
67458W        W33999  35.640  28.557   2.865
67459W        W34000  28.746  28.111   4.505
67460W        W34001  13.670  36.668   1.879
67461W        W34002   0.074  17.653   0.001
67462W        W34003  34.202   7.233  13.499
67463W        W34004  30.703  12.314  11.105
67464W        W34005   0.256  14.619   3.753
67465W        W34006   4.970  28.045   4.536
67466W        W34007   9.566  10.416   5.051
67467W        W34008  44.833  43.748  13.081
67468W        W34009  16.022  27.808   2.676
67469W        W34010  13.271  14.824  13.912
67470W        W34011   2.447  43.886  10.985
67471W        W34012   0.614  33.941   2.845
67472W        W34013  36.364  39.812  13.472
67473W        W34014   8.668  33.558  10.711
67474W        W34015  41.272  26.522   1.001
67475W        W34016  18.295  19.413  11.146
67476W        W34017  17.538  25.145  14.071
67477W        W34018  16.991  43.279  13.225
67478W        W34019  22.714  24.617  13.320
67479W        W34020  44.682  30.811  13.797
67480W        W34021  19.185   0.704   1.321
67481W        W34022  11.954   9.435  14.192
67482W        W34023  13.101  35.320   1.328
67483W        W34024  43.046  41.539  13.500
67484W        W34025  25.232   8.293   1.500
67485W        W34026  25.639  38.138   3.231
67486W        W34027  36.494  21.353   4.410
67487W        W34028  26.167  42.350   3.844
67488W        W34029  35.701  24.581  11.957
67489W        W34030  15.609  29.035   1.966
67490W        W34031   4.819   3.293   0.666
67491W        W34032  43.757  35.690   4.174
67492W        W34033   8.200  30.063   0.899
67493W        W34034  43.926  37.527   1.462
67494W        W34035  28.666  35.409   2.439
67495W        W34036  43.083  19.475  12.849
67496W        W34037  19.494  44.075  13.474
67497W        W34038   6.988  28.979  14.964
67498W        W34039  42.526   3.467  13.677
67499W        W34040   2.980  10.301   3.106
67500W        W34041  23.522  35.470  14.867
67501W        W34042  44.479  30.786   4.451
67502W        W34043  17.817  15.114  13.024
67503W        W34044  37.407  19.431   3.321
67504W        W34045  31.567   9.262   2.885
67505W        W34046  38.934  23.874   2.457
67506W        W34047  31.816   3.738   3.638
67507W        W34048  26.025   6.625  14.335
67508W        W34049   2.270  32.100  10.260
67509W        W34050  23.428  16.837   3.173
67510W        W34051  44.284  36.606  13.383
67511W        W34052  44.183  43.701   4.167
67512W        W34053  30.227  29.259  13.027
67513W        W34054  26.670  32.838   1.090
67514W        W34055  42.520  35.316  14.742
67515W        W34056  32.647  15.726  14.461
67516W        W34057   3.732  36.234   4.727
67517W        W34058  12.963  42.239  14.048
67518W        W34059  31.619   5.731   4.588
67519W        W34060  38.902  23.244  13.985
67520W        W34061   1.613   6.052   4.110
67521W        W34062  40.567  11.918  12.105
67522W        W34063   0.849  26.610   2.521
67523W        W34064  12.693  31.573  14.708
67524W        W34065  13.321  25.914  14.939
67525W        W34066  32.602  16.615  14.457
67526W        W34067  33.149  36.914   0.788
67527W        W34068  17.247  20.764   3.262
67528W        W34069  15.159  44.255   0.453
67529W        W34070  21.023   0.785  12.340
67530W        W34071  22.182   4.353   4.506
67531W        W34072   4.284  21.081  12.539
67532W        W34073  37.127  23.112   4.121
67533W        W34074  26.883   1.446   1.881
67534W        W34075  15.734  39.322   0.994
67535W        W34076  32.579  26.022   3.866
67536W        W34077  23.897  19.625  12.312
67537W        W34078  34.060   7.118  10.451
67538W        W34079  29.446  21.148  10.349
67539W        W34080   7.946  12.092   0.454
67540W        W34081  27.500   5.184  14.898
67541W        W34082  38.394  35.077   3.210
67542W        W34083  36.015  41.491   4.048
67543W        W34084  41.940  16.224   1.175
67544W        W34085  16.615   2.745   0.684
67545W        W34086  37.831  42.770  13.953
67546W        W34087  29.696  11.255   2.305
67547W        W34088   4.974  39.932  14.959
67548W        W34089  16.724   6.784   1.682
67549W        W34090  36.377  25.104   4.613
67550W        W34091   0.260  40.843  12.042
67551W        W34092  16.721   1.465  12.524
67552W        W34093  34.364  31.966  13.034
67553W        W34094  41.520   6.436   3.722
67554W        W34095  25.640  25.123   0.163
67555W        W34096  26.982  29.180   2.643
67556W        W34097  33.955   3.442   1.319
67557W        W34098  34.345  40.914   4.059
67558W        W34099  16.207  16.808  10.648
67559W        W34100  13.734   3.732   3.606
67560W        W34101  24.708  13.549  11.460
67561W        W34102  19.929  26.027  11.056
67562W        W34103   9.339  41.992   3.580
67563W        W34104   4.389  33.983   4.780
67564W        W34105  14.107   1.952   1.887
67565W        W34106  15.803   5.496   4.193
67566W        W34107  12.897   5.021  11.838
67567W        W34108  12.650  15.165   1.925
67568W        W34109  43.251  40.710   9.942
67569W        W34110  13.619   6.317   1.458
67570W        W34111  44.750  44.738  14.949
67571W        W34112  16.237  11.936   3.359
67572W        W34113  11.656  17.012  10.933
67573W        W34114  24.713  27.390   2.787
67574W        W34115  40.026  32.171   2.779
67575W        W34116   2.745  30.355   0.839
67576W        W34117   6.873  40.010   1.994
67577W        W34118  39.520  20.490  12.021
67578W        W34119  21.894  26.693   4.294
67579W        W34120   3.895  30.702   0.041
67580W        W34121   3.947  31.849   3.192
67581W        W34122  10.799   9.667   2.841
67582W        W34123  31.405  27.133  11.029
67583W        W34124  31.006  15.097   3.319
67584W        W34125  35.399  17.054  12.991
67585W        W34126   6.490  24.081  11.641
67586W        W34127  40.793  34.431   3.371
67587W        W34128  36.050   0.464   0.417
67588W        W34129  38.109  35.081   1.366
67589W        W34130   0.490   1.371   4.279
67590W        W34131  17.856  27.975   4.213
67591W        W34132  16.679   3.833   1.444
67592W        W34133  12.563  18.625   1.460
67593W        W34134  20.012  20.746  10.704
67594W        W34135  10.867  29.395  14.282
67595W        W34136  40.271  28.038   3.673
67596W        W34137  14.696  32.663   3.007
67597W        W34138  10.250   1.386  14.430
67598W        W34139  19.604  24.483  11.662
67599W        W34140  20.581   6.901   0.298
67600W        W34141  31.891  22.578   4.547
67601W        W34142  19.285  33.503   4.260
67602W        W34143  27.470  22.226  11.902
67603W        W34144  10.680   6.890   4.638
67604W        W34145  33.089  27.671   0.879
67605W        W34146  20.010  23.991  12.533
67606W        W34147   9.916  41.892  14.729
67607W        W34148  29.062   5.514  13.993
67608W        W34149  31.903   6.193  12.428
67609W        W34150  36.623  13.198   2.363
67610W        W34151  21.121   4.118   2.565
67611W        W34152  44.503  31.127   2.749
67612W        W34153  15.811  42.904  13.568
67613W        W34154  12.348  40.888  14.856
67614W        W34155  34.817  43.184   4.224
67615W        W34156  42.803  35.946   3.299
67616W        W34157  16.929  36.940   0.323
67617W        W34158  22.656  44.269  13.564
67618W        W34159  27.578  25.274  14.939
67619W        W34160  15.313  11.079   0.993
67620W        W34161  12.340  36.416   2.631
67621W        W34162  11.131   1.307  10.739
67622W        W34163   3.875  27.221  13.807
67623W        W34164  29.180  35.464   2.604
67624W        W34165  11.204  29.624   4.555
67625W        W34166  39.402  36.916  10.614
67626W        W34167  33.932   1.050   2.672
67627W        W34168  16.297   5.775   0.012
67628W        W34169  10.884  20.548   2.269
67629W        W34170   8.772  25.702  14.393
67630W        W34171  44.241   2.191  11.654
67631W        W34172  19.902   2.689   4.206
67632W        W34173   5.860  15.695  12.830
67633W        W34174   6.225   6.245   0.593
67634W        W34175  17.712  13.518  12.584
67635W        W34176   8.517  11.939   4.681
67636W        W34177   3.190  27.040   3.096
67637W        W34178   3.329   4.490  11.447
67638W        W34179  29.160  36.579  11.110
67639W        W34180  30.289  42.040  13.200
67640W        W34181   4.447  22.550  12.207
67641W        W34182  27.034  19.161  13.426
67642W        W34183  41.409   0.419   1.514
67643W        W34184  42.314   0.671   1.900
67644W        W34185   1.230   7.614   3.178
67645W        W34186  36.892  15.602   0.212
67646W        W34187   2.972  21.122  12.444
67647W        W34188  14.122   0.805   2.159
67648W        W34189   6.700  31.995  12.841
67649W        W34190  17.618  36.615   4.823
67650W        W34191   9.533  22.260   0.400
67651W        W34192  28.160  38.353  11.880
67652W        W34193   7.384  36.243  10.528
67653W        W34194  26.187   3.202  12.448
67654W        W34195   3.988  44.737   1.304
67655W        W34196   3.401  11.870  11.833
67656W        W34197  43.747  32.588  13.503
67657W        W34198  30.928  44.260   3.658
67658W        W34199  37.764   1.934  14.483
67659W        W34200  44.469  10.641   4.625
67660W        W34201   8.597  18.310   4.391
67661W        W34202   5.973   2.033   2.622
67662W        W34203  30.359  20.030   0.280
67663W        W34204  44.717   7.186  10.948
67664W        W34205   8.188  10.144  11.168
67665W        W34206  33.019  41.323  12.028
67666W        W34207   2.002  27.521   2.847
67667W        W34208  31.969   1.145   3.804
67668W        W34209   1.284  23.177  13.785
67669W        W34210  37.853  39.697  13.823
67670W        W34211  14.114  25.433   3.157
67671W        W34212  34.311   9.636  13.411
67672W        W34213  26.630   2.422   0.711
67673W        W34214   5.459  31.606   2.243
67674W        W34215  17.178  25.812  11.257
67675W        W34216  40.539  11.529   3.579
67676W        W34217  27.928   7.012  13.065
67677W        W34218  22.774  24.383   1.946
67678W        W34219  40.885  19.327   1.444
67679W        W34220  36.079   4.478   1.794
67680W        W34221  40.515  25.973   1.421
67681W        W34222   0.065  42.637   0.850
67682W        W34223   6.149  39.265   0.348
67683W        W34224   1.921   5.900   1.317
67684W        W34225  25.777  41.504   3.850
67685W        W34226  34.935  31.981   1.688
67686W        W34227  42.773   2.864   3.154
67687W        W34228  14.289  43.211   1.360
67688W        W34229   6.876  26.111   3.854
67689W        W34230  43.249  17.253   0.990
67690W        W34231   9.355  17.090  14.676
67691W        W34232  22.035  12.346  14.946
67692W        W34233  26.990   3.517   3.621
67693W        W34234  11.688  35.087   3.343
67694W        W34235   0.171  38.659   3.515
67695W        W34236  40.989  32.107   0.777
67696W        W34237  25.669  36.162  12.550
67697W        W34238   3.182  31.909   3.509
67698W        W34239  38.465  18.453  11.612
67699W        W34240  32.593   8.991  11.243
67700W        W34241  27.950  35.197   5.156
67701W        W34242  20.504   3.686   9.977
67702W        W34243  34.456   5.526  12.598
67703W        W34244  28.440  11.267   1.209
67704W        W34245  33.687  13.412   3.259
67705W        W34246  15.821   5.980  10.837
67706W        W34247  24.919  28.432   4.109
67707W        W34248   6.094  38.338   3.215
67708W        W34249  38.762  41.818   1.180
67709W        W34250   9.669  20.488   4.508
67710W        W34251   9.396   6.624   2.181
67711W        W34252  40.603  15.846   5.063
67712W        W34253   0.796  11.156   2.405
67713W        W34254  44.444  26.524   0.887
67714W        W34255  29.897  42.816   4.177
67715W        W34256  42.496  30.270   3.956
67716W        W34257   9.556  43.370   2.304
67717W        W34258   8.738  30.983   1.229
67718W        W34259  43.699   5.210   0.527
67719W        W34260  29.288  36.148  13.611
67720W        W34261  34.933  39.817   3.814
67721W        W34262  25.964  10.338  12.872
67722W        W34263  26.602  25.188   4.707
67723W        W34264   5.137  23.648   3.366
67724W        W34265   6.788  21.880   3.729
67725W        W34266  28.253  19.517   5.017
67726W        W34267  37.527  27.852   1.335
67727W        W34268  40.950  30.181  13.942
67728W        W34269  14.299  10.770   1.870
67729W        W34270   8.660  41.634  14.386
67730W        W34271  16.540  27.863   2.767
67731W        W34272  22.834  19.108   2.331
67732W        W34273  33.501   9.441   3.178
67733W        W34274  31.704  11.762   4.015
67734W        W34275   8.025  16.339  10.827
67735W        W34276  24.817  34.014   3.794
67736W        W34277  29.917  21.945   1.432
67737W        W34278  13.624  43.297  12.054
67738W        W34279  29.363   8.200  13.157
67739W        W34280  16.725  12.861   0.327
67740W        W34281  14.702  41.787   2.768
67741W        W34282  15.725   8.370   2.563
67742W        W34283   7.656  36.786   5.479
67743W        W34284  10.591  30.706   1.196
67744W        W34285  13.313  26.557   3.637
67745W        W34286  38.068  18.194  11.425
67746W        W34287  38.016  27.371  11.442
67747W        W34288  30.245  13.201  13.534
67748W        W34289  42.870   4.785   0.339
67749W        W34290   1.201  35.889  11.494
67750W        W34291  28.838  41.974   1.933
67751W        W34292   6.461  32.689  13.821
67752W        W34293   1.514  22.695   3.785
67753W        W34294  24.953  37.082   4.171
67754W        W34295  24.806  21.429  12.052
67755W        W34296   1.386   0.307   2.679
67756W        W34297  33.054  15.102   0.248
67757W        W34298  12.253  34.460   2.736
67758W        W34299   0.112   1.281  14.290
67759W        W34300  21.454   4.492  11.704
67760W        W34301  39.940  28.455  14.069
67761W        W34302  32.122  23.203   0.324
67762W        W34303  32.123   8.896  11.416
67763W        W34304  19.358  38.469  13.142
67764W        W34305   7.319  25.661  11.122
67765W        W34306   2.193  15.715  14.395
67766W        W34307  34.570  28.088  14.441
67767W        W34308  22.573   2.658  12.985
67768W        W34309   1.856  31.985  10.588
67769W        W34310   0.793  35.559  11.739
67770W        W34311  16.809  41.991  12.872
67771W        W34312  13.801  25.646  11.067
67772W        W34313  20.571   1.322  11.400
67773W        W34314   9.423  33.641  14.574
67774W        W34315  23.525  29.158  12.936
67775W        W34316   9.934  10.261   3.718
67776W        W34317  34.056  43.750   2.203
67777W        W34318  27.164   2.768  12.382
67778W        W34319   3.320  12.928   2.398
67779W        W34320  17.145  36.518  12.025
67780W        W34321  31.018  13.725   2.197
67781W        W34322   6.081   4.802   4.543
67782W        W34323   5.389  25.658   2.648
67783W        W34324   7.132  13.827  12.658
67784W        W34325   6.922  30.518   0.032
67785W        W34326  22.250   8.933  10.552
67786W        W34327  28.316  26.214  11.219
67787W        W34328  33.965  34.582   4.304
67788W        W34329  21.095  23.527   2.324
67789W        W34330   8.835  17.280  11.744
67790W        W34331   5.560   1.076  10.768
67791W        W34332  34.154  28.204   3.256
67792W        W34333  14.240  20.802  10.422
67793W        W34334  33.491  43.801   3.846
67794W        W34335  42.313   0.521  11.799
67795W        W34336  37.521  15.569   1.759
67796W        W34337  30.470  14.643  11.977
67797W        W34338  34.382  36.025  12.843
67798W        W34339  28.516  10.521  10.463
67799W        W34340   4.308  33.664  12.412
67800W        W34341   0.978  16.658   1.242
67801W        W34342  20.789   1.845  12.592
67802W        W34343  13.704  28.987  10.699
67803W        W34344   9.785   7.768   4.984
67804W        W34345  21.909   4.579   4.912
67805W        W34346  18.276  17.753   0.180
67806W        W34347  30.998   0.999  12.049
67807W        W34348  22.554   2.028   2.271
67808W        W34349  40.122   6.338   2.383
67809W        W34350  16.757   5.745   3.743
67810W        W34351  39.893  24.562  11.634
67811W        W34352  43.442  13.727   2.156
67812W        W34353  19.177  38.432  11.737
67813W        W34354  13.847  39.752  14.827
67814W        W34355   7.331  16.105   3.153
67815W        W34356  31.174  18.187   3.360
67816W        W34357  34.638  23.986  12.064
67817W        W34358  41.473  21.547   0.526
67818W        W34359  11.287   5.368  10.378
67819W        W34360  37.898  18.625   0.003
67820W        W34361  21.341  44.375  10.539
67821W        W34362  27.197  21.983  11.487
67822W        W34363  18.528  36.830  11.142
67823W        W34364  10.904  30.517  12.001
67824W        W34365  25.785   5.809   9.819
67825W        W34366  27.961  32.490  12.727
67826W        W34367  43.730   0.283   1.490
67827W        W34368  14.705  10.561   3.238
67828W        W34369   8.865  21.509  12.821
67829W        W34370  30.941   0.531   0.705
67830W        W34371  29.687  43.940  14.511
67831W        W34372  44.850  42.896  13.352
67832W        W34373  20.512  32.652  11.280
67833W        W34374  42.592  12.621  12.381
67834W        W34375  40.058  11.765   2.690
67835W        W34376   0.370  15.226   0.420
67836W        W34377   2.493  11.411   4.197
67837W        W34378  40.330  29.419   2.525
67838W        W34379  34.382   7.316  13.023
67839W        W34380  29.619  23.492   4.566
67840W        W34381   9.278   8.983   3.093
67841W        W34382  34.537  26.686   1.419
67842W        W34383  25.140  23.734   2.166
67843W        W34384  41.438   2.477  11.145
67844W        W34385   2.347  33.991   0.700
67845W        W34386  21.194  37.713   5.032
67846W        W34387  26.733  13.514   5.130
67847W        W34388   3.272  14.596  13.995
67848W        W34389  19.209  23.799   2.247
67849W        W34390  18.903  40.630  14.003
67850W        W34391  17.719  17.742   4.515
67851W        W34392  23.858  39.109   9.945
67852W        W34393  34.913  32.466  13.360
67853W        W34394  35.522  25.420  10.984
67854W        W34395   9.422  26.520  10.826
67855W        W34396  12.844  17.780  11.187
67856W        W34397  38.816  27.864   2.310
67857W        W34398  40.898  34.141  14.486
67858W        W34399  14.459  26.935  12.946
67859W        W34400  33.023   7.706   1.097
67860W        W34401  24.680   3.326   3.871
67861W        W34402  43.532  27.609  11.531
67862W        W34403  28.660  44.864  14.453
67863W        W34404   3.508  29.382  12.511
67864W        W34405  34.006  23.177  11.335
67865W        W34406   2.159  32.113  13.909
67866W        W34407  26.604  23.980   4.179
67867W        W34408  18.536  11.973  10.974
67868W        W34409  34.439  36.650   3.754
67869W        W34410  25.027  11.972   3.253
67870W        W34411  14.361  14.391  11.238
67871W        W34412   7.920  44.572  11.790
67872W        W34413   5.846  43.056   2.194
67873W        W34414  37.284  41.725  11.912
67874W        W34415  29.117  23.175   0.769
67875W        W34416   8.156  23.128   1.956
67876W        W34417   1.719  38.577   1.894
67877W        W34418   7.183  21.115  11.424
67878W        W34419  22.173  15.364   5.063
67879W        W34420  41.951  10.292  14.750
67880W        W34421  10.141   1.919  12.476
67881W        W34422  16.034   8.829   1.847
67882W        W34423  24.200  35.531   4.485
67883W        W34424   4.828   2.462   3.067
67884W        W34425  37.464  40.024   0.281
67885W        W34426  29.119  35.142  11.175
67886W        W34427   5.809  25.692   2.321
67887W        W34428   8.915  30.444  14.192
67888W        W34429  12.240   9.848  10.681
67889W        W34430  33.570  28.496  13.962
67890W        W34431  42.463  36.551  12.146
67891W        W34432  41.285  36.591  13.329
67892W        W34433  38.164  10.433   3.053
67893W        W34434  18.035   3.741   3.637
67894W        W34435  32.347  11.841  13.621
67895W        W34436   3.903   7.126  10.673
67896W        W34437  21.565   8.157   2.215
67897W        W34438   0.523  44.378   1.810
67898W        W34439   7.255  18.292  11.660
67899W        W34440  14.298  30.106   2.304
67900W        W34441  23.129  32.506   2.737
67901W        W34442  27.643  43.709   2.294
67902W        W34443  35.045  29.093   2.699
67903W        W34444  10.662  19.870   1.073
67904W        W34445   4.755  26.172   0.674
67905W        W34446   2.502  25.235  12.993
67906W        W34447  25.247  31.976   0.944
67907W        W34448  26.531  42.525   1.778
67908W        W34449  44.904  15.817   0.850
67909W        W34450  16.740  29.935   0.095
67910W        W34451  22.913  44.699   2.782
67911W        W34452  13.758  27.256   0.463
67912W        W34453  33.602  28.128   4.181
67913W        W34454  31.389  16.645  13.265
67914W        W34455   1.857  11.562  13.872
67915W        W34456  39.772  17.295  11.644
67916W        W34457  32.054  42.322   4.792
67917W        W34458  43.963   3.646   4.624
67918W        W34459   1.338  25.542  12.056
67919W        W34460  26.962  25.794   0.261
67920W        W34461   8.384  37.470  14.541
67921W        W34462  17.196  23.065   4.526
67922W        W34463  12.313   2.754   3.118
67923W        W34464  14.342  43.602  11.105
67924W        W34465  37.965  17.260   0.267
67925W        W34466   5.730   9.867  10.609
67926W        W34467  30.391  12.759  13.335
67927W        W34468  32.510  15.313   1.721
67928W        W34469  25.118  20.047  12.640
67929W        W34470   6.421  35.817   3.659
67930W        W34471  35.684  34.265   1.927
67931W        W34472  40.820  23.841   1.809
67932W        W34473  41.496   7.031   0.365
67933W        W34474   6.642  25.649  13.302
67934W        W34475  23.533   1.291   3.806
67935W        W34476   1.463  36.421   2.605
67936W        W34477  16.241   0.927  14.511
67937W        W34478  33.919  28.803   4.637
67938W        W34479  20.779  18.075   3.957
67939W        W34480  13.791  10.027   1.410
67940W        W34481   8.159   4.849   1.324
67941W        W34482  44.150  27.678   4.361
67942W        W34483  43.009  24.011   3.952
67943W        W34484  14.092  15.199  11.827
67944W        W34485  33.509  43.738   2.680
67945W        W34486  33.860  23.497  12.057
67946W        W34487  15.675  40.530   0.355
67947W        W34488   6.459   3.544  14.831
67948W        W34489  10.397  42.208   1.977
67949W        W34490   9.068  26.583   3.593
67950W        W34491  39.994  21.698  14.722
67951W        W34492  13.795  41.318   1.248
67952W        W34493  41.989   1.537   3.626
67953W        W34494   9.421  19.339   2.155
67954W        W34495   2.798  23.496   0.432
67955W        W34496  22.406  33.423  13.623
67956W        W34497  12.232  11.874  11.054
67957W        W34498  32.629  22.733  12.820
67958W        W34499  44.371  23.179  14.354
67959W        W34500  24.760  12.642  11.601
67960W        W34501  43.670  12.349  13.905
67961W        W34502   6.104  32.679  12.851
67962W        W34503  37.984   6.290   0.452
67963W        W34504   3.791  25.003   1.565
67964W        W34505  38.832  38.707  12.824
67965W        W34506  35.599  33.081   3.602
67966W        W34507   3.259  28.143  11.152
67967W        W34508  18.637  23.524   2.689
67968W        W34509  40.908  16.498   3.739
67969W        W34510   5.153  34.974  11.602
67970W        W34511   6.717   5.418   4.527
67971W        W34512  28.711  42.441   3.855
67972W        W34513  42.124  37.423  10.533
67973W        W34514  16.666   0.484  14.370
67974W        W34515  34.571  21.281   3.216
67975W        W34516  42.336  14.665   0.927
67976W        W34517  37.893  42.403   2.137
67977W        W34518  30.846  44.490  14.987
67978W        W34519   5.183   1.461   0.252
67979W        W34520  26.114   6.403   3.703
67980W        W34521  43.423  19.284  11.100
67981W        W34522  41.350  39.663  12.414
67982W        W34523  14.224  29.451  11.139
67983W        W34524  44.882   9.123   1.439
67984W        W34525  14.834  30.436   0.805
67985W        W34526  22.204  10.233  12.772
67986W        W34527  37.655  36.857   0.148
67987W        W34528  33.568  41.218   3.682
67988W        W34529  13.543  17.088   0.929
67989W        W34530  27.938   9.425   1.024
67990W        W34531  21.645  37.529   4.466
67991W        W34532   6.864  28.210  10.701
67992W        W34533  10.799   4.913  14.792
67993W        W34534  34.504  31.621  11.683
67994W        W34535   7.714  20.685   4.164
67995W        W34536  36.170  13.247   4.918
67996W        W34537  24.570  40.449  12.946
67997W        W34538  10.218  29.198  11.855
67998W        W34539  38.675   7.750   2.950
67999W        W34540  15.810  25.620  14.309
68000W        W34541  17.109   5.445  14.040
68001W        W34542  14.835  10.089  14.310
68002W        W34543   6.110   2.904   1.238
68003W        W34544   9.413  26.761   2.527
68004W        W34545  21.018  40.982  14.827
68005W        W34546   1.403  13.884  12.609
68006W        W34547   1.911  43.705  14.376
68007W        W34548   1.922  28.060   0.858
68008W        W34549   9.539  41.303   2.568
68009W        W34550   4.182   4.598   0.534
68010W        W34551  36.058   9.909   3.332
68011W        W34552  43.938  19.121  12.293
68012W        W34553  39.377  23.201   4.467
68013W        W34554  26.207  33.774  14.666
68014W        W34555  20.069   7.283  11.542
68015W        W34556  44.955  24.369  14.900
68016W        W34557  13.382  14.079  11.098
68017W        W34558  37.361  30.463  12.397
68018W        W34559  11.651   5.388   0.221
68019W        W34560  42.155  13.910   2.723
68020W        W34561  18.789  27.695  12.655
68021W        W34562  37.853  22.705   3.406
68022W        W34563  14.720   7.686   4.327
68023W        W34564  35.392  17.913  12.306
68024W        W34565  29.947  36.588   0.685
68025W        W34566  39.376  42.880  11.129
68026W        W34567  39.303  42.459  11.989
68027W        W34568  28.190  28.101  12.394
68028W        W34569  24.144  36.281  13.981
68029W        W34570  16.120  16.246   0.971
68030W        W34571  35.808   0.809  11.522
68031W        W34572  26.545   9.227   0.772
68032W        W34573  37.875  34.526   4.678
68033W        W34574   9.177  35.719   2.414
68034W        W34575  12.384  29.074  13.032
68035W        W34576  31.621  41.765  13.341
68036W        W34577  36.977  19.549   4.234
68037W        W34578  28.750   1.736   2.471
68038W        W34579  27.026  16.852  14.237
68039W        W34580  34.436  32.046   4.127
68040W        W34581  24.071  27.393  10.749
68041W        W34582  38.334  22.052   0.399
68042W        W34583  35.358   4.402   4.254
68043W        W34584   2.368  29.368   2.623
68044W        W34585  16.006   1.303  10.942
68045W        W34586  20.652  22.186   4.783
68046W        W34587  31.973  16.121  12.429
68047W        W34588  21.056  28.072   1.993
68048W        W34589  42.405  42.421  14.759
68049W        W34590  33.545   6.214   4.082
68050W        W34591  31.953  23.364   2.215
68051W        W34592  20.041   4.853   4.604
68052W        W34593  10.064  35.828   1.471
68053W        W34594  12.428  18.679  12.985
68054W        W34595  17.125  11.005  14.905
68055W        W34596  23.072  30.402  13.474
68056W        W34597  29.437   7.734   0.485
68057W        W34598   8.765  43.296  13.554
68058W        W34599  42.547  35.019   1.449
68059W        W34600  39.339   3.636   2.739
68060W        W34601  25.200  30.991  12.359
68061W        W34602  17.712  24.898   2.683
68062W        W34603  24.686  15.231   1.432
68063W        W34604  21.970   4.479   2.762
68064W        W34605   5.678  16.772   0.243
68065W        W34606  34.932  36.502  10.697
68066W        W34607  17.228  44.333   2.619
68067W        W34608  10.142  17.812  10.571
68068W        W34609  43.850  18.792   0.831
68069W        W34610  44.938  36.384  13.478
68070W        W34611  13.568   6.477  11.483
68071W        W34612  34.554   2.365  11.655
68072W        W34613  17.224   9.713   2.954
68073W        W34614  21.423  12.427  14.300
68074W        W34615  30.534  24.659  10.998
68075W        W34616  42.514  44.742  12.043
68076W        W34617   0.269   4.321  14.703
68077W        W34618   0.509  36.667   2.293
68078W        W34619   6.045   6.395  12.257
68079W        W34620   1.271  26.302  13.539
68080W        W34621  19.240  29.969  13.223
68081W        W34622  16.052  37.117   3.323
68082W        W34623   2.082  31.082  11.927
68083W        W34624  14.622  39.372   1.838
68084W        W34625  38.315  11.721  10.659
68085W        W34626  15.584  13.730  13.511
68086W        W34627  30.341  14.284   0.453
68087W        W34628  17.607   8.741   1.748
68088W        W34629  20.039  28.275   3.974
68089W        W34630  42.332  27.408  13.231
68090W        W34631   5.188  27.473  12.657
68091W        W34632  32.374  23.784   4.340
68092W        W34633  42.025   7.408   2.262
68093W        W34634  12.329  16.644   4.527
68094W        W34635  42.774   5.521  14.084
68095W        W34636  30.928   7.193  10.573
68096W        W34637  31.028   9.401  13.066
68097W        W34638   8.659   7.211  10.662
68098W        W34639  34.261  29.728   1.197
68099W        W34640   8.288  38.355   1.786
68100W        W34641  22.811  43.302  14.808
68101W        W34642  40.063   1.693   3.595
68102W        W34643  35.326  38.100   0.140
68103W        W34644  12.498  31.925   4.158
68104W        W34645  28.646  31.535  10.637
68105W        W34646  36.941   7.785   3.562
68106W        W34647  41.224  19.939   3.668
68107W        W34648   4.050   3.725  12.878
68108W        W34649  40.508  25.577  12.966
68109W        W34650  15.691  23.068   3.288
68110W        W34651   2.646  33.027  11.042
68111W        W34652  21.439  43.489   1.694
68112W        W34653  32.573  30.727   0.240
68113W        W34654  25.617  39.427  10.812
68114W        W34655  22.649  14.604  10.839
68115W        W34656  31.681  44.935  10.995
68116W        W34657  23.644  21.710   1.063
68117W        W34658  44.681   9.613  14.322
68118W        W34659   8.509  16.273   3.835
68119W        W34660  12.754  36.397  10.719
68120W        W34661  17.806  39.357   1.407
68121W        W34662  42.517   3.491   0.108
68122W        W34663   6.299   9.266   2.611
68123W        W34664   6.788  42.255  14.194
68124W        W34665  34.369  36.611   1.217
68125W        W34666   5.594   3.536  10.376
68126W        W34667  26.149  14.455   4.825
68127W        W34668   6.358   1.903   4.321
68128W        W34669  26.697  33.462   0.499
68129W        W34670  23.645  41.110   3.625
68130W        W34671  20.957  40.309  12.075
68131W        W34672  39.728  20.995  12.383
68132W        W34673  36.841  41.153   4.040
68133W        W34674  12.808  44.414   2.648
68134W        W34675   2.701  13.673  13.541
68135W        W34676  16.906  11.950   0.447
68136W        W34677  30.161  34.697  11.162
68137W        W34678  30.169  31.983  12.538
68138W        W34679  40.748  12.646  14.920
68139W        W34680  36.342  36.365   3.809
68140W        W34681   0.971  34.189  14.939
68141W        W34682  36.865  17.269   1.463
68142W        W34683  15.346  39.464  11.949
68143W        W34684  27.637  23.734   4.201
68144W        W34685  27.070  31.672  11.566
68145W        W34686  43.996  10.343  12.369
68146W        W34687   8.340  27.917  12.913
68147W        W34688  30.746   8.673  12.050
68148W        W34689  15.368  16.321  12.890
68149W        W34690  13.598   7.817  13.477
68150W        W34691   0.842  33.968  14.464
68151W        W34692  17.278  28.675  14.986
68152W        W34693   9.863   7.770   2.735
68153W        W34694   1.426  30.585   3.211
68154W        W34695  12.290   3.192   1.743
68155W        W34696  30.754   4.232   2.391
68156W        W34697  25.521  19.071  13.223
68157W        W34698   3.421  42.420  12.478
68158W        W34699   0.753  24.918   4.504
68159W        W34700  10.639  40.764  10.733
68160W        W34701  40.911   8.377   0.840
68161W        W34702  31.638   0.854   1.029
68162W        W34703  10.793  33.912  14.303
68163W        W34704  14.277  13.646   0.382
68164W        W34705  11.792  16.994  10.409
68165W        W34706  16.592  33.125  11.097
68166W        W34707   7.450  36.851  14.604
68167W        W34708  29.988   4.783  10.679
68168W        W34709   6.277  25.509   0.211
68169W        W34710  43.611  43.232  12.773
68170W        W34711  27.549  40.070  13.106
68171W        W34712  10.924  24.582   2.735
68172W        W34713  34.487  16.482   1.996
68173W        W34714  43.250  25.373  10.135
68174W        W34715   0.050  23.593  13.082
68175W        W34716  10.151  28.049   3.301
68176W        W34717   4.169   3.571   0.059
68177W        W34718  21.796  44.974  11.188
68178W        W34719  28.244   8.884   3.664
68179W        W34720  39.572  29.237   4.190
68180W        W34721  33.857  23.995  11.590
68181W        W34722  38.835  15.889   0.848
68182W        W34723  11.570   2.282   1.414
68183W        W34724  22.283  21.631   4.952
68184W        W34725  16.142   6.380  11.594
68185W        W34726   7.100   0.664   0.240
68186W        W34727   6.446  43.909  13.353
68187W        W34728   4.066  31.580  12.120
68188W        W34729  39.028  41.593   1.934
68189W        W34730  26.067  40.306   4.067
68190W        W34731  12.139  18.140   4.781
68191W        W34732  37.311   7.790   0.222
68192W        W34733  17.589   6.440   4.190
68193W        W34734   7.212   5.362   4.107
68194W        W34735   1.387  35.345   0.578
68195W        W34736  28.915  31.186  11.555
68196W        W34737  29.044  24.734  11.124
68197W        W34738  34.183  39.608   3.152
68198W        W34739  44.921  39.293  10.446
68199W        W34740   9.610  21.349  13.965
68200W        W34741  32.893  29.876   3.203
68201W        W34742  32.430  31.212   2.190
68202W        W34743  12.688  40.715   1.753
68203W        W34744  44.982  29.438   1.753
68204W        W34745  13.135  22.268  14.047
68205W        W34746  11.533  17.573   1.942
68206W        W34747   4.701   3.868  14.527
68207W        W34748  10.245  10.752   0.731
68208W        W34749   1.217  36.944   1.205
68209W        W34750  16.358   8.801   3.194
68210W        W34751  37.560   0.039  13.755
68211W        W34752  35.863  19.775   1.023
68212W        W34753  14.294  25.510  14.166
68213W        W34754  34.070  34.985  14.943
68214W        W34755   7.211   1.557  13.667
68215W        W34756  41.923  14.685  12.617
68216W        W34757  35.975   4.184  14.326
68217W        W34758  21.088  24.475  12.526
68218W        W34759  16.199  32.482  13.535
68219W        W34760  28.173  37.311   3.588
68220W        W34761  13.513   1.834   4.570
68221W        W34762   2.365   5.688  13.019
68222W        W34763  39.839  21.677   1.074
68223W        W34764   1.221   0.974   1.827
68224W        W34765  35.906  34.477  13.971
68225W        W34766  37.807   9.889  10.854
68226W        W34767  40.923  36.895  13.579
68227W        W34768  13.028  13.848   0.962
68228W        W34769  42.014   8.660   3.398
68229W        W34770  27.898  38.441  14.418
68230W        W34771   9.737  19.752   1.296
68231W        W34772  39.033   6.130  10.762
68232W        W34773  32.066   8.261   2.755
68233W        W34774  41.702  32.052   0.345
68234W        W34775  26.498  40.452   4.963
68235W        W34776  38.545  15.009  12.118
68236W        W34777  41.766  43.262  13.890
68237W        W34778  21.496  32.525  11.583
68238W        W34779  20.557   0.764  12.615
68239W        W34780  37.297   7.877  11.188
68240W        W34781  34.106  42.085  12.271
68241W        W34782  30.571  25.450   1.286
68242W        W34783   6.099  13.634   4.702
68243W        W34784  14.134  27.482   3.230
68244W        W34785   6.275  16.554  14.459
68245W        W34786   4.753  37.128  12.964
68246W        W34787  10.550  30.067  14.042
68247W        W34788   9.765   7.202   2.031
68248W        W34789  33.068  44.412   1.173
68249W        W34790  10.452  36.956   3.673
68250W        W34791  26.236   7.185   0.257
68251W        W34792  20.741  21.143  10.762
68252W        W34793  27.715   4.215   0.654
68253W        W34794  11.089  13.657  12.071
68254W        W34795  14.171  26.639   4.091
68255W        W34796  34.116   7.163   3.193
68256W        W34797  20.036  21.026   0.403
68257W        W34798   9.831  25.353  14.415
68258W        W34799  41.285  25.070  11.281
68259W        W34800   9.767  37.587  12.178
68260W        W34801  15.831  22.069  13.395
68261W        W34802  40.566  20.279   3.195
68262W        W34803  22.710   1.465   0.329
68263W        W34804  16.223  16.082   4.084
68264W        W34805  13.440   7.450  11.723
68265W        W34806  11.211  41.989  14.043
68266W        W34807   1.131  42.420   1.969
68267W        W34808   7.106   6.313   3.507
68268W        W34809  24.395  24.038   0.417
68269W        W34810   9.231  34.235   2.231
68270W        W34811  11.630  39.266   2.829
68271W        W34812  38.999  11.296  10.439
68272W        W34813  16.123   9.905   3.804
68273W        W34814  19.041   6.296   2.649
68274W        W34815  24.770   1.255  13.443
68275W        W34816   2.994  29.810   4.190
68276W        W34817  15.556  21.648   0.503
68277W        W34818  19.563   1.283   3.202
68278W        W34819  24.467  40.299   4.116
68279W        W34820  20.478  22.472  11.985
68280W        W34821  27.205  22.704  13.919
68281W        W34822  39.528  35.913  12.981
68282W        W34823  31.425  26.757   0.882
68283W        W34824   6.333  25.613   1.597
68284W        W34825  33.177  42.694  13.071
68285W        W34826   6.561  23.728   2.247
68286W        W34827  23.069  37.687  13.937
68287W        W34828  11.716  41.988   1.808
68288W        W34829  15.826  15.269   2.266
68289W        W34830  19.535   1.236   4.100
68290W        W34831  33.453  17.580   2.820
68291W        W34832  41.831  16.044   2.942
68292W        W34833  28.235  36.275  13.894
68293W        W34834   2.411  18.827   4.623
68294W        W34835  38.013  13.295   0.996
68295W        W34836   2.878  33.442   3.736
68296W        W34837  27.565  36.519  14.464
68297W        W34838  40.933  13.308   2.140
68298W        W34839  41.708  40.402  12.051
68299W        W34840  28.583  21.844   4.794
68300W        W34841  24.073   6.777   3.893
68301W        W34842  11.889  17.689  11.185
68302W        W34843   7.846  43.023   1.888
68303W        W34844  41.761  43.391  11.039
68304W        W34845  30.805  30.056  11.520
68305W        W34846   2.279  20.774   4.682
68306W        W34847  29.305  19.989  11.692
68307W        W34848  35.098   0.243   4.978
68308W        W34849  36.896  36.178  12.460
68309W        W34850   3.971   6.388   3.719
68310W        W34851  10.791  27.680   3.317
68311W        W34852  10.619  38.648  14.875
68312W        W34853  28.915  21.580   3.753
68313W        W34854   6.488  25.257   2.467
68314W        W34855  30.954  27.584  13.785
68315W        W34856   7.971  39.379  12.141
68316W        W34857  38.935  38.055  14.909
68317W        W34858   3.631  17.248  10.434
68318W        W34859  12.260  10.689  11.520
68319W        W34860   9.307  35.492   3.874
68320W        W34861  42.841   7.780  13.296
68321W        W34862  12.655  15.181   0.820
68322W        W34863  32.630   4.267  13.385
68323W        W34864   2.499  44.011   1.214
68324W        W34865  22.407  43.110  10.125
68325W        W34866  17.709   8.479  10.526
68326W        W34867  40.818  14.312   0.400
68327W        W34868  35.879  27.202   1.219
68328W        W34869   4.222   2.883   1.703
68329W        W34870  12.859  10.151  10.768
68330W        W34871  31.076  14.654  12.525
68331W        W34872  28.525  44.861  13.061
68332W        W34873  13.589  24.090  12.039
68333W        W34874  19.141  15.093   2.353
68334W        W34875  35.901  33.567   1.634
68335W        W34876  37.960  38.301   4.130
68336W        W34877  36.366  26.908   3.922
68337W        W34878  16.078  37.326  14.383
68338W        W34879  34.727  18.315  12.810
68339W        W34880  44.195  18.268   3.647
68340W        W34881  19.343  23.531   4.175
68341W        W34882  19.541  22.885   3.606
68342W        W34883  31.974   3.977  14.865
68343W        W34884  14.472  12.252  14.272
68344W        W34885   1.906  36.164   2.864
68345W        W34886  13.256  36.441   1.659
68346W        W34887  26.171   3.959   0.417
68347W        W34888  24.701  20.258   0.003
68348W        W34889  41.018   4.340   2.822
68349W        W34890  17.477  25.086  13.111
68350W        W34891   4.178  31.449   1.922
68351W        W34892  13.692  15.821  12.849
68352W        W34893   5.729  32.035   2.170
68353W        W34894  19.156  14.358  11.981
68354W        W34895   0.397  21.139   2.709
68355W        W34896   2.865  18.496  13.484
68356W        W34897  41.781  12.266  11.885
68357W        W34898   3.290   6.682   4.307
68358W        W34899  35.584  16.198  13.113
68359W        W34900   3.192  43.272   5.038
68360W        W34901  23.532   8.110  10.655
68361W        W34902  20.186  42.559  14.811
68362W        W34903  26.005  28.682   3.580
68363W        W34904  38.803  42.992  10.302
68364W        W34905  32.651  13.748  13.541
68365W        W34906  38.893   6.061   4.585
68366W        W34907  20.001  28.265   3.407
68367W        W34908  19.305  41.869  13.006
68368W        W34909   4.426  31.174   9.951
68369W        W34910  19.621  41.815  10.641
68370W        W34911  44.971   0.181   1.427
68371W        W34912  43.778  23.148   0.312
68372W        W34913  21.284  40.583  13.351
68373W        W34914  10.074  26.000   0.541
68374W        W34915  14.360  27.006  11.076
68375W        W34916  26.529  15.332   3.214
68376W        W34917  28.985  20.510   4.614
68377W        W34918  11.675  33.176   1.740
68378W        W34919  30.415   8.651   0.218
68379W        W34920  11.401  43.333  14.774
68380W        W34921   7.267  22.202   0.398
68381W        W34922  35.944  33.904   2.887
68382W        W34923  12.807   2.139  12.920
68383W        W34924   6.192  10.162  12.127
68384W        W34925  39.011  19.223  14.902
68385W        W34926   1.805  19.655  10.847
68386W        W34927   6.890  15.125  13.553
68387W        W34928   3.860   2.399  14.776
68388W        W34929  14.931  40.916   3.710
68389W        W34930  29.101  42.504  13.667
68390W        W34931  11.251  30.591   4.345
68391W        W34932   8.707  14.959   4.118
68392W        W34933  21.184   1.868  14.918
68393W        W34934  16.350  31.092  11.638
68394W        W34935  15.354  38.291   3.618
68395W        W34936  42.870  18.537   2.851
68396W        W34937  37.466  18.952  12.902
68397W        W34938  18.539  39.825  10.718
68398W        W34939  28.845  43.670  13.005
68399W        W34940  24.632  17.253  13.258
68400W        W34941  21.688   5.882  13.094
68401W        W34942   8.130   0.444  12.832
68402W        W34943   8.885  27.556  11.860
68403W        W34944  44.664  39.962   3.279
68404W        W34945  40.078  43.458   3.607
68405W        W34946  14.057   6.365   3.239
68406W        W34947  24.054  22.616  10.090
68407W        W34948  32.576  23.287   0.022
68408W        W34949  32.254  11.623   4.523
68409W        W34950  19.081  28.149  14.436
68410W        W34951  27.712  42.975  10.998
68411W        W34952  28.546  35.618   1.421
68412W        W34953  13.772   9.090   1.466
68413W        W34954  33.795  22.610  10.747
68414W        W34955  20.563  33.523  12.462
68415W        W34956   3.162  14.385  14.447
68416W        W34957   9.915  15.107   3.410
68417W        W34958  22.874  38.719  12.419
68418W        W34959  16.288  20.191  11.734
68419W        W34960  30.987  27.665   2.349
68420W        W34961  32.031  24.448   3.709
68421W        W34962  24.558   1.443   1.649
68422W        W34963   1.481   4.365   2.409
68423W        W34964   3.314  42.824  13.762
68424W        W34965  17.206   4.930  11.035
68425W        W34966  28.942  15.180  11.705
68426W        W34967  29.972   8.364   5.039
68427W        W34968   9.367   4.380  12.969
68428W        W34969   0.485  23.007  10.596
68429W        W34970  16.291   5.264  11.410
68430W        W34971  38.527  13.890   0.308
68431W        W34972  12.877  37.126  14.980
68432W        W34973  34.427   7.961  12.924
68433W        W34974  30.218  33.561   2.656
68434W        W34975  20.091  20.669   3.801
68435W        W34976   9.619  40.075   3.773
68436W        W34977  32.344  37.189   2.637
68437W        W34978  40.432  38.823   3.630
68438W        W34979  24.581   6.383  13.138
68439W        W34980  15.043  42.459   4.608
68440W        W34981  14.026   9.471   1.688
68441W        W34982   7.000  37.581   1.369
68442W        W34983   6.886   3.216   9.823
68443W        W34984   5.389  22.742   2.009
68444W        W34985  21.877  18.046   1.277
68445W        W34986  11.971   4.876  11.504
68446W        W34987  44.299  26.238   2.190
68447W        W34988  23.582  18.350  14.543
68448W        W34989  32.803  10.719   1.954
68449W        W34990  11.223   6.341   4.044
68450W        W34991  12.762   5.306   2.370
68451W        W34992  22.049   4.229  11.090
68452W        W34993  18.647  41.918   3.253
68453W        W34994  14.830   2.890  10.758
68454W        W34995   1.311  28.148  12.553
68455W        W34996   0.671   8.679   0.951
68456W        W34997  14.214  12.059   0.931
68457W        W34998   8.354   9.651   4.163
68458W        W34999  27.001  37.917   4.432
68459W        W35000   5.905  10.054   1.007
68460W        W35001  16.217   7.478   0.888
68461W        W35002  33.834  40.902   0.797
68462W        W35003  16.613  41.183   1.895
68463W        W35004  22.493  17.039  12.998
68464W        W35005  18.495  34.855   1.806
68465W        W35006  44.403  32.920  12.966
68466W        W35007  26.863  36.474   4.604
68467W        W35008  26.470  10.197   5.119
68468W        W35009   0.510  18.147  14.758
68469W        W35010  33.973  36.096   4.523
68470W        W35011  24.179   6.107   0.399
68471W        W35012  34.209  13.889   4.258
68472W        W35013  30.972   9.357   3.047
68473W        W35014   4.169  24.777  13.419
68474W        W35015   5.680  15.782   4.619
68475W        W35016  38.521  24.589  14.934
68476W        W35017  30.633   1.322   4.270
68477W        W35018  43.284  38.901  14.032
68478W        W35019  33.794  16.821  12.587
68479W        W35020  40.955  16.294   0.315
68480W        W35021   1.805  33.567   0.414
68481W        W35022   9.791  13.716  11.745
68482W        W35023  20.358  32.506   4.175
68483W        W35024  33.394  26.707  10.588
68484W        W35025  41.025  26.704   4.493
68485W        W35026  28.093  44.102   1.433
68486W        W35027  18.228   6.815   1.457
68487W        W35028   9.840   6.164   1.884
68488W        W35029  34.990  27.824   2.383
68489W        W35030   8.209  42.420  11.613
68490W        W35031  14.915  40.294   0.840
68491W        W35032  37.524  21.592  13.249
68492W        W35033  17.042  33.783  11.317
68493W        W35034   0.414  15.630  10.038
68494W        W35035  38.019  18.730   3.245
68495W        W35036  33.351   8.743  13.638
68496W        W35037  29.914   8.263   0.935
68497W        W35038  13.598   5.293   4.571
68498W        W35039  35.538  42.973  13.492
68499W        W35040  44.794   3.819  14.875
68500W        W35041   6.654  30.280   3.315
68501W        W35042  21.349  27.887  12.418
68502W        W35043   6.312   6.380   2.841
68503W        W35044   2.771  39.510  13.474
68504W        W35045   2.978  36.119  12.983
68505W        W35046  24.594  16.822   4.632
68506W        W35047  31.875   1.713  13.991
68507W        W35048   1.423   1.896  12.859
68508W        W35049  30.778   3.268   5.112
68509W        W35050  22.557  41.354  10.619
68510W        W35051   9.948  20.598  11.129
68511W        W35052  16.127  15.438  12.346
68512W        W35053  32.057  15.153   0.855
68513W        W35054  17.840  21.269  13.500
68514W        W35055  23.538  16.624  11.996
68515W        W35056  34.914   8.637  14.028
68516W        W35057   9.352  44.254  14.222
68517W        W35058   6.377   2.912  10.642
68518W        W35059  10.651  43.837  11.140
68519W        W35060  23.734  13.961  11.272
68520W        W35061  13.250  43.329  10.945
68521W        W35062  10.384   9.750   1.184
68522W        W35063   7.688  34.321   1.083
68523W        W35064  17.599  15.316  14.476
68524W        W35065  17.294  32.894   3.114
68525W        W35066  12.302  14.839  11.220
68526W        W35067  14.621  17.337   3.639
68527W        W35068  18.732  24.145   4.497
68528W        W35069  44.003   5.123   5.021
68529W        W35070  44.918   5.876  13.300
68530W        W35071  29.640  12.182   2.752
68531W        W35072  31.166  29.495   2.592
68532W        W35073  13.851  37.928  12.455
68533W        W35074  21.073   0.252   3.258
68534W        W35075  34.642  13.771   1.496
68535W        W35076  39.047  35.625   1.368
68536W        W35077   7.454  44.073  12.145
68537W        W35078  18.664  32.104  10.103
68538W        W35079  21.238  30.367  10.680
68539W        W35080  40.762   9.913   4.169
68540W        W35081  21.945  13.648  10.031
68541W        W35082  23.523  29.005   2.660
68542W        W35083   4.344  20.904   1.196
68543W        W35084  14.113  17.776   1.882
68544W        W35085   4.225  40.639  14.957
68545W        W35086   3.649  42.506   2.999
68546W        W35087  41.854  28.921  13.484
68547W        W35088  28.872  34.380   2.357
68548W        W35089   4.544   3.375  14.659
68549W        W35090  25.035   0.292   3.705
68550W        W35091  30.957   1.612   5.504
68551W        W35092   9.117  37.458   2.332
68552W        W35093  10.747  24.073   1.105
68553W        W35094   5.222  38.536   3.134
68554W        W35095   7.852  43.875  13.117
68555W        W35096  20.880  40.088  11.635
68556W        W35097   0.834   4.886   2.727
68557W        W35098  39.960  16.352   5.460
68558W        W35099  28.372  25.422   3.311
68559W        W35100  27.557  12.695   3.434
68560W        W35101   7.980  43.808  13.640
68561W        W35102   1.168   4.670  11.502
68562W        W35103  10.879  14.290  14.536
68563W        W35104  29.734   9.774  10.394
68564W        W35105  18.311  38.528   2.337
68565W        W35106  25.275  43.688   0.754
68566W        W35107  25.649   7.256  10.513
68567W        W35108  10.761  44.807   3.218
68568W        W35109  13.539  40.372   1.946
68569W        W35110   6.650  36.761   2.799
68570W        W35111  25.774  35.028   1.994
68571W        W35112  29.223   3.205   4.104
68572W        W35113  30.613  11.099  11.964
68573W        W35114  43.303  19.137  11.592
68574W        W35115  34.078  34.042   4.499
68575W        W35116  36.060  26.215  13.677
68576W        W35117   9.318  19.618   0.152
68577W        W35118  28.953  13.372   1.270
68578W        W35119  22.569  31.213   3.166
68579W        W35120  13.421  22.081   3.146
68580W        W35121  18.167  33.361   1.388
68581W        W35122   3.445   0.672  10.689
68582W        W35123  15.810  29.547   3.269
68583W        W35124  20.204  10.868  14.502
68584W        W35125   2.767  14.002  12.590
68585W        W35126  36.304  11.667   1.665
68586W        W35127   7.775  12.892   4.261
68587W        W35128  38.876  37.561  10.135
68588W        W35129  13.608  42.487   2.929
68589W        W35130  16.686  17.006   4.029
68590W        W35131  44.807  23.634  11.475
68591W        W35132  44.260  39.792   2.919
68592W        W35133  10.910  40.173  13.305
68593W        W35134  19.791  44.757  14.429
68594W        W35135  19.675   0.286  14.519
68595W        W35136  38.576   2.962   1.689
68596W        W35137  27.150  15.031   1.217
68597W        W35138  17.753  26.070  14.981
68598W        W35139  29.575  38.199  14.932
68599W        W35140  38.976  11.619  11.751
68600W        W35141   7.797  27.427  12.364
68601W        W35142  20.912  27.958  13.961
68602W        W35143  16.897   9.298   2.914
68603W        W35144   5.251  12.533  12.128
68604W        W35145  11.393  39.433  13.453
68605W        W35146  13.159  42.779  12.572
68606W        W35147  26.435  18.508  12.376
68607W        W35148   8.141  32.503  13.452
68608W        W35149  28.775  16.873  11.816
68609W        W35150  26.566  28.791   0.153
68610W        W35151  30.146   8.427   3.276
68611W        W35152  25.637  38.859  11.558
68612W        W35153   3.303  15.670  13.188
68613W        W35154  11.651  39.265  10.388
68614W        W35155   8.909  33.628  14.524
68615W        W35156   1.185  10.200  10.412
68616W        W35157   0.874   5.239   0.991
68617W        W35158  43.373  24.825   1.195
68618W        W35159  17.751  36.375  12.657
68619W        W35160   5.940  29.677   1.806
68620W        W35161  22.965  43.743   2.257
68621W        W35162  33.493   5.613  14.821
68622W        W35163   3.970  27.695   0.430
68623W        W35164   0.711   1.654   4.685
68624W        W35165  41.286   5.763  14.764
68625W        W35166   5.912   5.395  12.977
68626W        W35167  11.404  14.803  10.702
68627W        W35168  29.506  17.596  13.796
68628W        W35169  44.285  13.959   3.319
68629W        W35170   2.571   6.182   5.039
68630W        W35171  44.821  42.936   0.193
68631W        W35172  19.919  32.963  14.808
68632W        W35173  18.165   7.012   4.885
68633W        W35174  38.878   0.355  12.164
68634W        W35175  38.478   8.842   0.879
68635W        W35176  32.993  33.976  11.389
68636W        W35177   4.722  24.139  12.642
68637W        W35178  36.576   4.257  13.023
68638W        W35179  19.826  11.544  11.932
68639W        W35180  23.154   2.642  10.123
68640W        W35181  25.696  22.552   0.041
68641W        W35182  32.581   0.683   1.417
68642W        W35183   5.333  12.842   3.331
68643W        W35184  18.788  23.033   2.510
68644W        W35185  21.029  38.978  13.542
68645W        W35186  22.270   3.088   4.840
68646W        W35187  10.806  34.556   0.060
68647W        W35188   1.149  29.527   3.228
68648W        W35189  25.670   5.288  12.783
68649W        W35190  29.983  32.596   3.443
68650W        W35191  40.285   8.229   2.134
68651W        W35192  24.406   0.380  12.561
68652W        W35193  16.531   1.952   0.156
68653W        W35194  31.197  39.232   0.585
68654W        W35195   5.810  29.787   4.316
68655W        W35196  23.654  12.261  13.182
68656W        W35197  35.787  35.853  13.827
68657W        W35198  44.446  23.573  13.938
68658W        W35199  25.921  41.467   3.310
68659W        W35200  23.450  28.291  12.698
68660W        W35201   7.960   6.115  11.972
68661W        W35202   2.227  18.115  11.102
68662W        W35203  15.006  32.620   1.203
68663W        W35204  25.020  23.005   2.727
68664W        W35205  26.782  24.577  12.461
68665W        W35206   5.439   5.750   2.225
68666W        W35207  44.713  37.065   0.798
68667W        W35208  30.875  30.135  13.534
68668W        W35209  17.139  14.758   0.270
68669W        W35210  13.012  15.478   4.062
68670W        W35211  38.721  22.091   4.305
68671W        W35212  43.950  21.361   2.677
68672W        W35213  24.004  26.518   2.416
68673W        W35214   7.109   3.784  12.104
68674W        W35215  37.349  34.435   3.308
68675W        W35216   1.840  37.198   1.907
68676W        W35217  28.351   7.379  11.389
68677W        W35218  17.336  21.342  13.539
68678W        W35219  19.189  19.961   2.512
68679W        W35220  42.302  11.043   4.555
68680W        W35221   0.851  17.153  14.082
68681W        W35222  27.254  12.531   2.459
68682W        W35223  32.902   1.607  12.921
68683W        W35224  18.858  25.773   0.692
68684W        W35225   1.414  30.503   9.928
68685W        W35226  17.584  15.720   0.730
68686W        W35227  32.620   3.501  11.713
68687W        W35228  20.499  36.583  14.861
68688W        W35229  31.424  14.907   4.461
68689W        W35230   9.279  35.342   0.633
68690W        W35231  19.531  39.042  13.140
68691W        W35232  44.689  31.622   5.336
68692W        W35233   4.608  43.986  12.247
68693W        W35234  23.378  43.378   4.392
68694W        W35235  44.725  19.652   1.055
68695W        W35236  31.357   6.714  13.981
68696W        W35237  25.343  21.648   1.074
68697W        W35238  27.779   9.912  10.215
68698W        W35239  37.546  28.514   3.731
68699W        W35240  15.549  42.255  10.725
68700W        W35241   5.636  28.588   5.042
68701W        W35242  36.412   4.801  14.195
68702W        W35243  44.914  12.671   1.605
68703W        W35244  31.114  20.821  10.680
68704W        W35245  26.129   0.703   1.735
68705W        W35246  35.104  32.567   1.141
68706W        W35247  28.872  30.998  14.745
68707W        W35248   9.447  26.411  11.702
68708W        W35249  28.037  13.141  10.273
68709W        W35250   7.892   4.630   2.623
68710W        W35251  24.403   6.430  12.126
68711W        W35252  43.837   4.199   2.738
68712W        W35253  31.423  30.449  10.397
68713W        W35254  30.500  32.164  11.047
68714W        W35255  39.638  23.973  12.457
68715W        W35256  20.370  38.886   3.741
68716W        W35257  22.164  15.525  14.462
68717W        W35258  11.698   0.194  14.428
68718W        W35259  30.932   4.621   3.838
68719W        W35260  28.256  16.654  11.886
68720W        W35261  30.724  36.384   2.382
68721W        W35262  33.679  14.702  13.546
68722W        W35263  43.461  20.090   2.687
68723W        W35264   1.334  44.043   0.665
68724W        W35265  11.693  13.991  10.189
68725W        W35266   8.603  40.317  14.348
68726W        W35267  35.063  16.120   4.054
68727W        W35268   2.724   3.361   5.350
68728W        W35269  35.309   7.074   2.636
68729W        W35270  16.873  40.042  11.997
68730W        W35271  16.133   4.473   1.068
68731W        W35272   6.776  25.607   1.868
68732W        W35273  26.480  15.869   5.004
68733W        W35274  27.380  31.066   2.574
68734W        W35275  14.829  15.609   2.714
68735W        W35276  40.690  40.007  12.588
68736W        W35277  17.608   9.885   0.805
68737W        W35278  20.514  16.697  12.844
68738W        W35279  34.383  43.751   2.839
68739W        W35280  29.410  42.565   3.239
68740W        W35281  39.046  14.382  13.963
68741W        W35282  39.462   8.922   2.296
68742W        W35283  34.265  41.093  10.587
68743W        W35284  22.731  35.303   3.990
68744W        W35285  26.127  32.900  10.672
68745W        W35286  17.754  44.935   2.171
68746W        W35287  39.012  34.025   1.427
68747W        W35288  30.073  16.956   3.503
68748W        W35289  23.466  31.628  14.333
68749W        W35290  23.236  13.300  14.875
68750W        W35291   8.882  36.849   3.404
68751W        W35292  25.188   4.388   0.142
68752W        W35293  33.927  37.688  11.327
68753W        W35294  36.170   3.378  10.629
68754W        W35295  33.066  30.131  14.936
68755W        W35296  43.887   0.867   0.809
68756W        W35297   0.895  41.861   4.580
68757W        W35298  18.120  39.846   0.010
68758W        W35299   2.803  41.070   3.275
68759W        W35300  24.031  39.562  13.356
68760W        W35301  36.777  10.806  13.046
68761W        W35302   7.885  37.421  11.583
68762W        W35303  25.124  38.559  11.650
68763W        W35304   3.207  37.048  12.470
68764W        W35305  22.606  30.504   0.274
68765W        W35306  18.756  33.870   2.054
68766W        W35307  12.628   6.715  13.112
68767W        W35308   0.174   4.393   0.805
68768W        W35309  38.474  16.934   0.064
68769W        W35310  27.545  36.457  13.362
68770W        W35311  17.557  20.787   4.542
68771W        W35312  41.906  18.802  11.621
68772W        W35313  39.009  25.045  14.026
68773W        W35314   4.065  41.340  10.712
68774W        W35315  28.965  10.821  12.925
68775W        W35316  31.164   6.294  11.036
68776W        W35317  25.258  33.255   0.248
68777W        W35318  26.098  12.932   2.260
68778W        W35319  24.114  36.905   2.783
68779W        W35320  18.366   7.883   4.432
68780W        W35321  11.203  13.706  13.805
68781W        W35322   1.436  11.830  14.935
68782W        W35323  44.534  26.116   1.184
68783W        W35324  35.524  10.145   4.106
68784W        W35325   8.888  31.510  14.006
68785W        W35326   1.846  15.603  10.333
68786W        W35327  30.735  26.200   4.319
68787W        W35328   3.878  31.189   4.201
68788W        W35329  28.381  34.511   2.411
68789W        W35330  15.104   0.811  11.879
68790W        W35331  40.754  28.490   1.767
68791W        W35332  44.766   3.807   2.216
68792W        W35333   0.699  41.669   4.066
68793W        W35334  22.440  14.027   5.493
68794W        W35335  22.242  13.321  11.619
68795W        W35336  28.195  30.594   0.443
68796W        W35337  40.236  19.452  11.615
68797W        W35338  14.766  35.648  12.821
68798W        W35339  44.679   8.341   1.955
68799W        W35340   1.706  33.690  14.896
68800W        W35341   7.980   6.175   3.597
68801W        W35342  16.525  22.709  12.446
68802W        W35343  43.915  12.064   3.661
68803W        W35344   8.717   5.165  12.483
68804W        W35345  10.654  42.954  10.467
68805W        W35346  42.760  43.845   3.443
68806W        W35347  43.039  35.406  14.686
68807W        W35348  36.849   3.457   4.514
68808W        W35349  31.390  18.013  12.907
68809W        W35350  29.231   4.285  12.252
68810W        W35351   7.311   0.985   1.624
68811W        W35352  21.988  31.997   0.828
68812W        W35353  35.935  40.066  12.846
68813W        W35354  44.609  32.911   2.389
68814W        W35355  42.461  29.122  14.865
68815W        W35356  44.146  28.419   2.743
68816W        W35357  12.211  42.474  10.792
68817W        W35358  22.019  16.289   3.341
68818W        W35359  30.026  11.637  10.518
68819W        W35360  18.077   6.858  12.815
68820W        W35361  28.544  33.897   3.113
68821W        W35362  36.828  19.642   1.454
68822W        W35363  28.573  22.051   3.798
68823W        W35364  28.152  34.449  14.109
68824W        W35365  34.382  29.435  12.915
68825W        W35366  12.935   7.193   0.887
68826W        W35367  11.055  19.278  12.301
68827W        W35368   9.824  24.974  14.784
68828W        W35369  13.823  32.492   0.887
68829W        W35370  37.901  35.041   4.856
68830W        W35371  30.019   2.216   4.663
68831W        W35372  37.790  15.963   3.208
68832W        W35373  32.007  21.023  12.943
68833W        W35374  21.558  12.115  12.468
68834W        W35375  24.671  21.994   4.572
68835W        W35376  28.220  18.509   1.699
68836W        W35377   9.705  29.780   0.377
68837W        W35378   1.822  13.660  12.423
68838W        W35379  24.203  39.388   3.227
68839W        W35380   2.335  41.499   2.215
68840W        W35381  33.091  22.117   1.893
68841W        W35382   4.150  28.594   3.929
68842W        W35383  32.830  42.376  12.494
68843W        W35384  14.852   5.442  13.435
68844W        W35385   5.106  14.784   3.711
68845W        W35386  34.853  29.946   3.942
68846W        W35387  33.106  13.841  12.571
68847W        W35388  38.604  22.972   1.870
68848W        W35389  40.189  37.956   1.909
68849W        W35390  16.973  22.258  12.965
68850W        W35391  20.187  35.852   0.395
68851W        W35392   6.195  16.791  14.010
68852W        W35393  37.327  34.574   2.757
68853W        W35394  33.974  25.471  10.406
68854W        W35395  21.624  38.032  14.021
68855W        W35396  15.831   3.397   3.836
68856W        W35397   8.523  21.992  11.105
68857W        W35398  40.755  29.114   4.892
68858W        W35399   4.953  10.995   3.762
68859W        W35400  13.263  28.006   0.293
68860W        W35401  21.619  40.606   1.367
68861W        W35402  42.334  21.133  13.856
68862W        W35403  19.363  10.846  11.135
68863W        W35404  30.747  33.001  10.597
68864W        W35405  41.819  25.626   3.235
68865W        W35406   7.762  38.994   3.282
68866W        W35407  25.471  40.718  12.068
68867W        W35408  38.619  12.755  11.520
68868W        W35409  14.812  16.522  11.681
68869W        W35410  43.003  34.665   2.268
68870W        W35411  18.306   9.283  13.288
68871W        W35412  12.739  42.042  12.954
68872W        W35413  38.851   0.903  10.891
68873W        W35414   7.827   5.130  11.931
68874W        W35415  38.373  14.205  13.981
68875W        W35416  42.245  31.499  14.828
68876W        W35417  20.985  42.847  11.673
68877W        W35418  20.122   2.796   1.301
68878W        W35419   5.049  40.598  10.077
68879W        W35420  31.547  23.678   3.818
68880W        W35421  37.545  12.617   1.282
68881W        W35422  42.228  44.475   1.501
68882W        W35423  23.745  39.417   2.249
68883W        W35424  10.312  10.774   1.234
68884W        W35425  16.251   3.181   2.989
68885W        W35426  38.317   5.435   3.815
68886W        W35427  33.438  38.336   3.587
68887W        W35428   6.076   7.231   1.241
68888W        W35429  41.431  17.137  11.388
68889W        W35430  17.078   0.735  11.433
68890W        W35431  11.829   0.395   2.863
68891W        W35432  40.572  10.629   0.268
68892W        W35433  21.219  36.928   4.304
68893W        W35434  16.987  18.181   4.417
68894W        W35435  21.284  13.164  13.929
68895W        W35436  31.167  42.412   3.834
68896W        W35437  36.281  19.345  11.971
68897W        W35438  43.408  15.241   3.239
68898W        W35439   1.776  19.624   2.405
68899W        W35440  18.591  16.745   2.446
68900W        W35441  19.731   0.948  10.596
68901W        W35442  25.084  28.143  12.961
68902W        W35443   1.801  18.881   0.817
68903W        W35444  29.917   0.342   2.976
68904W        W35445  12.395   2.732  13.729
68905W        W35446  44.388   6.406  10.812
68906W        W35447  28.683  40.623   0.880
68907W        W35448  11.609  22.240   1.999
68908W        W35449  12.760  39.512  11.151
68909W        W35450  23.388  26.814  12.715
68910W        W35451  41.438   9.344   4.474
68911W        W35452  34.998  30.914   2.954
68912W        W35453  41.063   5.716  13.456
68913W        W35454  24.359  12.837   4.967
68914W        W35455   1.709  19.612   4.587
68915W        W35456  34.111  30.737   2.462
68916W        W35457  21.674  32.614   3.401
68917W        W35458  32.686   9.797  10.531
68918W        W35459  18.976  44.488  11.132
68919W        W35460  25.945  40.884  12.089
68920W        W35461  28.492  28.946   3.492
68921W        W35462   5.824  18.687   2.740
68922W        W35463  39.475   9.377   4.595
68923W        W35464  33.733  41.392   2.246
68924W        W35465  21.382  43.618  12.077
68925W        W35466  18.446  16.314   4.124
68926W        W35467   9.156  15.123  11.559
68927W        W35468   3.873   6.662   5.192
68928W        W35469  32.650   4.934  13.054
68929W        W35470  20.707   4.971  11.934
68930W        W35471   1.778  22.992  14.508
68931W        W35472   5.380   7.771  10.765
68932W        W35473  31.186  12.361  10.905
68933W        W35474  27.493  40.466   1.827
68934W        W35475  23.931  35.425  12.440
68935W        W35476  35.652   9.280   5.009
68936W        W35477  42.464  29.022   1.158
68937W        W35478  20.574  42.632   1.850
68938W        W35479  13.629  33.928  11.103
68939W        W35480   6.823   0.326   3.659
68940W        W35481   9.289  11.691   2.724
68941W        W35482  31.968  30.493   1.269
68942W        W35483  35.040  21.473  10.277
68943W        W35484   2.280  32.042  14.834
68944W        W35485  15.117  43.908  10.916
68945W        W35486  42.310  40.403  14.786
68946W        W35487  29.141  13.608   2.962
68947W        W35488  19.726   0.301  13.627
68948W        W35489  20.419  44.716   4.432
68949W        W35490  15.177   4.844   3.362
68950W        W35491   1.805   1.159   1.101
68951W        W35492  24.247  17.303   3.756
68952W        W35493  14.501   4.920   1.487
68953W        W35494  22.966  33.037  10.614
68954W        W35495  19.642  18.155   1.643
68955W        W35496  40.933  43.058  11.938
68956W        W35497  18.676  11.458   2.233
68957W        W35498   8.219   2.089   2.390
68958W        W35499   9.980  36.562   3.251
68959W        W35500  43.768  11.757  13.025
68960W        W35501  24.067  24.250   3.717
68961W        W35502   0.396   4.507  12.574
68962W        W35503  27.654  15.607   3.667
68963W        W35504  14.677  25.144  12.896
68964W        W35505  36.597   6.228   0.031
68965W        W35506  27.021  18.532   4.671
68966W        W35507  34.548   9.736  12.187
68967W        W35508  19.049  34.395   1.640
68968W        W35509  14.338  28.949   2.805
68969W        W35510  43.837  19.877  11.121
68970W        W35511  24.745  23.808  12.973
68971W        W35512  23.120  33.765  11.924
68972W        W35513  21.518  20.949  14.273
68973W        W35514   4.508  20.133  13.902
68974W        W35515   4.862   0.344  14.497
68975W        W35516  11.661  23.031   4.842
68976W        W35517  31.605  21.428   3.874
68977W        W35518  21.316  30.083   3.682
68978W        W35519  22.977  17.322   1.855
68979W        W35520  40.448   0.020  11.506
68980W        W35521   9.254  20.531  14.075
68981W        W35522  33.903   1.756  11.711
68982W        W35523  16.166  23.907  12.552
68983W        W35524  18.091  27.165   0.918
68984W        W35525  11.520   1.862   2.048
68985W        W35526   3.723  22.960   3.255
68986W        W35527  23.441  25.133  12.500
68987W        W35528  40.409  25.969   4.594
68988W        W35529  25.061  30.532  13.937
68989W        W35530  35.146  35.044  13.099
68990W        W35531   3.940   3.896   5.368
68991W        W35532  36.762   1.765   2.282
68992W        W35533  18.764  42.764   3.619
68993W        W35534  20.613  12.201   4.039
68994W        W35535  29.602   9.832   4.711
68995W        W35536  23.201  31.155   2.186
68996W        W35537   9.765  34.880   4.466
68997W        W35538  36.403   8.770   1.350
68998W        W35539  12.327   9.336  11.990
68999W        W35540  23.244   1.573  11.014
69000W        W35541  11.392  13.817  10.605
69001W        W35542   4.255  21.715   4.315
69002W        W35543   2.415  34.106  14.704
69003W        W35544   8.742  20.993   1.311
69004W        W35545  20.083   1.409  14.980
69005W        W35546  26.511  36.418   2.802
69006W        W35547  41.534  39.788   1.815
69007W        W35548  40.848   0.942  12.622
69008W        W35549  14.722   1.779   0.039
69009W        W35550  12.423  40.762  12.754
69010W        W35551  34.410  28.606  11.037
69011W        W35552  37.102  16.722  14.800
69012W        W35553   3.102  26.031   0.614
69013W        W35554  35.429  17.268   0.516
69014W        W35555  39.825  21.828   3.759
69015W        W35556   6.890   4.245  11.972
69016W        W35557   8.125   8.849  12.635
69017W        W35558  35.816  20.811  11.905
69018W        W35559   7.563   2.350   0.808
69019W        W35560  19.795  37.874   1.147
69020W        W35561  25.620  22.652  11.994
69021W        W35562  14.394  28.583   4.998
69022W        W35563  34.312  32.070  10.505
69023W        W35564  42.384   6.795  10.847
69024W        W35565  38.896  18.839  13.942
69025W        W35566  10.980  12.741  11.468
69026W        W35567   7.290  31.954  13.490
69027W        W35568  12.841  39.242   3.224
69028W        W35569  30.547  37.362  13.820
69029W        W35570  36.884  38.242   0.216
69030W        W35571   4.617   4.687  14.547
69031W        W35572  17.313  23.549  10.659
69032W        W35573  41.474  11.300   4.687
69033W        W35574  16.088   0.475   1.173
69034W        W35575  11.186   1.426  12.521
69035W        W35576   6.302  28.436   0.876
69036W        W35577  32.329  17.221  13.945
69037W        W35578  20.673  20.471  11.523
69038W        W35579  44.428  26.649   3.341
69039W        W35580  27.647  21.897  13.848
69040W        W35581   1.836  18.530   3.097
69041W        W35582  40.936  40.498  10.989
69042W        W35583  37.915   0.525   4.490
69043W        W35584  15.818   3.401  11.964
69044W        W35585  40.876  19.110  11.746
69045W        W35586  31.821  23.330  10.426
69046W        W35587  11.626  37.465   4.120
69047W        W35588  14.843   9.763   1.408
69048W        W35589  17.904  29.051   2.764
69049W        W35590  40.130  19.486  13.962
69050W        W35591  36.319   4.368  13.451
69051W        W35592  41.578   1.249   2.816
69052W        W35593  26.321   9.782   3.355
69053W        W35594  26.931   7.139  14.490
69054W        W35595  40.075  11.232   2.824
69055W        W35596  11.617   8.258   0.913
69056W        W35597  12.414  33.765  12.180
69057W        W35598   5.200  32.658   4.088
69058W        W35599  40.811   5.225   3.143
69059W        W35600  44.419  11.800  13.721
69060W        W35601  17.014  13.697   3.964
69061W        W35602   5.951  11.464  13.608
69062W        W35603   6.966  19.320   2.368
69063W        W35604   7.022   1.899   4.358
69064W        W35605  34.473  34.633  14.988
69065W        W35606   8.156  30.602  13.801
69066W        W35607  35.653  28.026   4.064
69067W        W35608  25.602  35.017  12.530
69068W        W35609  29.086  32.159  12.064
69069W        W35610  42.148  13.717  11.357
69070W        W35611  12.137  33.032  10.988
69071W        W35612  31.581  30.483   4.413
69072W        W35613   7.532  37.368   1.275
69073W        W35614  44.726  13.567  11.936
69074W        W35615  16.693  29.106  11.565
69075W        W35616  34.890  13.792   0.253
69076W        W35617  15.271  11.748  14.743
69077W        W35618  31.055  15.179   1.973
69078W        W35619  30.318  32.007   1.801
69079W        W35620  33.671  31.058   0.750
69080W        W35621   3.394   1.324   3.618
69081W        W35622  44.849  41.951   0.800
69082W        W35623  41.591   4.740   0.505
69083W        W35624  25.686  37.766   2.180
69084W        W35625  35.990   4.613   1.287
69085W        W35626  30.261   7.346  11.876
69086W        W35627  20.500  31.108   0.639
69087W        W35628  38.703  17.573   3.264
69088W        W35629  44.497   5.650  13.559
69089W        W35630   1.305   2.902  10.406
69090W        W35631   6.174   4.190  12.078
69091W        W35632  39.088  29.764  12.087
69092W        W35633   5.777  43.392   0.278
69093W        W35634  33.662  22.361   4.133
69094W        W35635  27.823  33.461   5.189
69095W        W35636   9.967  12.129  14.336
69096W        W35637  36.948   0.352   3.374
69097W        W35638  30.714  38.461   1.459
69098W        W35639  22.957  30.267  11.175
69099W        W35640   8.165  31.936  12.126
69100W        W35641  41.975  13.084  11.612
69101W        W35642  37.372   2.264   4.042
69102W        W35643  44.514  33.983   0.346
69103W        W35644   2.843   8.713   0.057
69104W        W35645  42.373  39.036   0.275
69105W        W35646  18.153   9.340   2.197
69106W        W35647  11.576  17.464   3.030
69107W        W35648  28.280   1.150  12.602
69108W        W35649  26.693  33.034   4.240
69109W        W35650  25.666  11.264  14.699
69110W        W35651  32.561  36.367  14.713
69111W        W35652   2.689  36.522   4.674
69112W        W35653  26.174  42.488  13.818
69113W        W35654  38.165  37.398  10.575
69114W        W35655  28.609  12.894  12.901
69115W        W35656  17.268  30.594  12.249
69116W        W35657   5.432  28.153  14.913
69117W        W35658  34.485  41.145   3.257
69118W        W35659  18.504   3.709  14.020
69119W        W35660  44.526  29.504   1.973
69120W        W35661  11.243  29.746   0.463
69121W        W35662  31.901   4.698   3.753
69122W        W35663   9.883  14.730  14.875
69123W        W35664  15.164  43.676  11.552
69124W        W35665  44.951   2.218   2.893
69125W        W35666   8.382  23.984   0.762
69126W        W35667  34.636   8.407  10.727
69127W        W35668  39.098  17.685  12.317
69128W        W35669   6.705  13.784   1.824
69129W        W35670  27.381  23.963   2.683
69130W        W35671  15.287  34.651  14.056
69131W        W35672   9.727  20.266   1.316
69132W        W35673   0.979  32.414  13.596
69133W        W35674   9.750  27.215   1.735
69134W        W35675  12.833   7.954   4.339
69135W        W35676  42.786  31.599   3.560
69136W        W35677  14.088  26.234  13.482
69137W        W35678  41.733  38.474  14.980
69138W        W35679  17.015   6.775  12.956
69139W        W35680  12.239  39.934  10.425
69140W        W35681  19.044  32.781  14.794
69141W        W35682  18.297  44.817   3.601
69142W        W35683   5.055  13.356   0.965
69143W        W35684  21.799  22.660  13.462
69144W        W35685  28.692  44.038   4.436
69145W        W35686   1.735  24.005   0.389
69146W        W35687   8.309  24.966   1.984
69147W        W35688  35.826   0.388  11.888
69148W        W35689   0.790  34.965   4.415
69149W        W35690  20.129  25.110   3.591
69150W        W35691  35.578  41.340   4.282
69151W        W35692  29.874  31.046  12.473
69152W        W35693  31.447  42.770  12.553
69153W        W35694  41.293   3.354   4.182
69154W        W35695  24.607   0.879  11.551
69155W        W35696  14.709   7.751   1.131
69156W        W35697   2.486  37.265  13.615
69157W        W35698   4.037  19.631   0.838
69158W        W35699  30.847   8.878   2.814
69159W        W35700  28.464  24.106   4.284
69160W        W35701  31.557  24.662  11.429
69161W        W35702  38.812  25.534  10.985
69162W        W35703   1.057  28.448   2.316
69163W        W35704  15.887   7.894   4.840
69164W        W35705   1.252   8.973  12.865
69165W        W35706  31.876   0.313  11.801
69166W        W35707  42.005  22.509  11.143
69167W        W35708   2.823   5.923  12.993
69168W        W35709  34.102   6.147   1.699
69169W        W35710  40.925  27.334  12.516
69170W        W35711  13.278  27.652  14.316
69171W        W35712  38.957  34.414  13.634
69172W        W35713  42.317   3.142  12.722
69173W        W35714  41.325  11.570   0.872
69174W        W35715  43.774  18.223  10.747
69175W        W35716  19.303  34.125  14.430
69176W        W35717  40.131  40.419   4.556
69177W        W35718  34.398   3.293   2.707
69178W        W35719  42.537  13.100  14.846
69179W        W35720  13.139   4.295  12.501
69180W        W35721  19.163  23.255   4.591
69181W        W35722  23.193  25.010  14.723
69182W        W35723  43.405  29.416  12.480
69183W        W35724  20.508  12.015  13.439
69184W        W35725   4.807  19.332   1.387
69185W        W35726  10.657  30.072  12.073
69186W        W35727  19.126  14.301  14.258
69187W        W35728  41.294  19.144   1.869
69188W        W35729  21.391  36.757  11.489
69189W        W35730   6.690  26.162  10.699
69190W        W35731  15.787  44.054   2.690
69191W        W35732  29.594  33.447   0.308
69192W        W35733  31.488  44.774   3.528
69193W        W35734   6.340  28.171  10.697
69194W        W35735  33.135  44.874  11.458
69195W        W35736   2.158  41.390   4.203
69196W        W35737  14.387  42.757   3.000
69197W        W35738   8.113  30.813  12.415
69198W        W35739  17.045  37.340   2.414
69199W        W35740  30.025   9.018  10.671
69200W        W35741   8.795  28.000   2.265
69201W        W35742  23.463   1.297   4.693
69202W        W35743  28.286  22.084  11.113
69203W        W35744  25.099  21.372   0.700
69204W        W35745  27.766  10.382  14.585
69205W        W35746  36.801  19.594  11.139
69206W        W35747   4.869  44.966  12.926
69207W        W35748  20.285  44.066  14.386
69208W        W35749  24.582   0.290   1.752
69209W        W35750  18.450  39.836   4.065
69210W        W35751  40.630  42.970   2.321
69211W        W35752  24.315  35.553   0.486
69212W        W35753  33.376   8.729   2.756
69213W        W35754  35.949   4.121   5.062
69214W        W35755  38.798  18.037  10.329
69215W        W35756  23.144  11.237  14.523
69216W        W35757  35.031  24.176  10.639
69217W        W35758  37.112  11.110  11.990
69218W        W35759  42.771  11.309  14.437
69219W        W35760  43.746  25.149  14.100
69220W        W35761  22.403  31.237  10.486
69221W        W35762  20.479  18.851   0.778
69222W        W35763  20.471  18.536  11.285
69223W        W35764  38.837  27.386   1.192
69224W        W35765  41.584  34.833   3.673
69225W        W35766   9.353  42.496  10.640
69226W        W35767   4.411   7.951   3.726
69227W        W35768  44.164  24.672   4.612
69228W        W35769  24.618  22.669   0.304
69229W        W35770  22.637  15.759   1.748
69230W        W35771  44.073  37.424   3.437
69231W        W35772  16.681  15.131   2.508
69232W        W35773  22.039  17.620   1.932
69233W        W35774   7.408  44.811  12.616
69234W        W35775  30.446  37.507  10.567
69235W        W35776  16.200   9.816   1.400
69236W        W35777  37.111   6.768   2.543
69237W        W35778  37.960  40.371  14.254
69238W        W35779  25.042  36.087   0.188
69239W        W35780  36.408  17.889   0.469
69240W        W35781  15.325  34.316   4.813
69241W        W35782  14.247  10.274  10.923
69242W        W35783  26.986  42.483   0.312
69243W        W35784  36.033  34.390   3.721
69244W        W35785  33.666  17.264   0.762
69245W        W35786  21.772  38.325  14.489
69246W        W35787  20.350   1.869   1.712
69247W        W35788   8.756  11.731  13.843
69248W        W35789  32.465  38.756  14.426
69249W        W35790  34.535  40.081   4.010
69250W        W35791   4.092  25.984   3.623
69251W        W35792  37.143  11.799   5.009
69252W        W35793  18.803  27.477  14.365
69253W        W35794   4.650  30.568  14.495
69254W        W35795   2.308   4.720   2.410
69255W        W35796  18.500  23.760   1.774
69256W        W35797  41.367  22.595  14.559
69257W        W35798  18.827  42.435   3.216
69258W        W35799  42.451  43.862  13.628
69259W        W35800  24.615   0.782   0.476
69260W        W35801  32.898  42.246  13.012
69261W        W35802  26.620  21.750  13.987
69262W        W35803  41.717   0.017  12.643
69263W        W35804  15.838  42.261  12.381
69264W        W35805  18.723  21.609   1.293
69265W        W35806  23.639  30.943   2.654
69266W        W35807  10.911  13.867   4.125
69267W        W35808  24.295  17.097  12.869
69268W        W35809   6.458  14.409  14.006
69269W        W35810   8.243  13.820  11.626
69270W        W35811  18.223  24.770  11.483
69271W        W35812  27.629   7.272   1.316
69272W        W35813   4.357   1.745  11.998
69273W        W35814  30.899   0.860   0.302
69274W        W35815  32.585   6.071   3.654
69275W        W35816  14.605  28.554  13.444
69276W        W35817   4.250  20.646  11.228
69277W        W35818   0.707  38.224  10.971
69278W        W35819  18.295   5.715   1.153
69279W        W35820  34.099   2.898  11.299
69280W        W35821  30.196  28.165  10.709
69281W        W35822  26.924  41.407  14.102
69282W        W35823   9.368   8.070   3.962
69283W        W35824  44.775  27.614  13.460
69284W        W35825  31.077  35.104   0.479
69285W        W35826  25.883  38.007  13.983
69286W        W35827   7.827  43.954  14.500
69287W        W35828   8.619  17.693  12.415
69288W        W35829  32.587  32.469  10.675
69289W        W35830   4.527  10.666  13.196
69290W        W35831   1.857  32.331   1.313
69291W        W35832   9.665  19.255  12.164
69292W        W35833  40.866  14.308  11.963
69293W        W35834  40.831  15.796   4.208
69294W        W35835  28.344  27.013   2.675
69295W        W35836   1.864  32.420  10.284
69296W        W35837  26.527  27.385   4.783
69297W        W35838  20.487  16.594   0.200
69298W        W35839  18.257  31.533   1.885
69299W        W35840  14.670  30.522  13.908
69300W        W35841  44.376   7.171   1.904
69301W        W35842  15.541  10.129   1.648
69302W        W35843  33.937  31.062   1.207
69303W        W35844   7.445  27.823   2.295
69304W        W35845  16.445  34.001   4.096
69305W        W35846  36.012  16.185   1.437
69306W        W35847  30.959  27.451   1.862
69307W        W35848  10.382  44.260   1.868
69308W        W35849  39.262  36.795  13.904
69309W        W35850  28.093  10.314   2.375
69310W        W35851  44.498  39.889  12.606
69311W        W35852   9.680  35.622  10.710
69312W        W35853   2.365   3.770   1.350
69313W        W35854  26.625  37.719   3.198
69314W        W35855   0.520  42.597  11.552
69315W        W35856  42.362  17.812   1.355
69316W        W35857   9.664  17.801  11.519
69317W        W35858  20.316  11.920  14.002
69318W        W35859  42.917  16.274  12.479
69319W        W35860  21.662  18.249  12.434
69320W        W35861   8.281  27.363  10.715
69321W        W35862   3.773  19.152   4.729
69322W        W35863  25.976   9.723  14.464
69323W        W35864  31.905   0.407  10.789
69324W        W35865  44.965  44.970   0.397
69325W        W35866  37.487  21.625   0.861
69326W        W35867  42.972  40.132   4.140
69327W        W35868  24.785  43.313   1.422
69328W        W35869  41.881   2.985  13.946
69329W        W35870   5.606   4.779   1.194
69330W        W35871  10.697  32.292   1.307
69331W        W35872  20.218  26.514  11.816
69332W        W35873  14.735  33.558   3.483
69333W        W35874  27.408  17.249   0.830
69334W        W35875   6.191  32.791  14.321
69335W        W35876  37.468  38.251  11.182
69336W        W35877  22.059  41.032  13.567
69337W        W35878  17.090  44.423   5.098
69338W        W35879  32.580  14.696   3.444
69339W        W35880  39.544  11.237   0.918
69340W        W35881  32.708  32.497  12.831
69341W        W35882  35.003  40.594   4.485
69342W        W35883  25.305   7.748  11.106
69343W        W35884  41.974   4.983   4.638
69344W        W35885   1.973   1.995   2.598
69345W        W35886  12.916  38.563  13.759
69346W        W35887  31.518   7.363  13.626
69347W        W35888   4.945   5.673  14.758
69348W        W35889  10.413  24.136  10.864
69349W        W35890  22.574   6.453   2.806
69350W        W35891  31.686  36.717  12.015
69351W        W35892  20.577  35.042   0.883
69352W        W35893  33.036   6.409  11.327
69353W        W35894  33.510  35.771  14.841
69354W        W35895  44.260  26.995  14.878
69355W        W35896  19.583  41.371  13.681
69356W        W35897   0.890  14.046   0.321
69357W        W35898  39.809  42.383  14.447
69358W        W35899  36.051  38.544   0.446
69359W        W35900   9.171  13.607   0.044
69360W        W35901  44.789   4.721   4.304
69361W        W35902  21.051  41.380  10.419
69362W        W35903  41.145   1.670  13.061
69363W        W35904  17.565  23.083   1.565
69364W        W35905  10.841  43.762  14.801
69365W        W35906   0.816  37.279  11.929
69366W        W35907  43.232   9.699  10.530
69367W        W35908  38.401   8.193   2.830
69368W        W35909   3.406   0.933   1.300
69369W        W35910  15.756  33.370  12.642
69370W        W35911  36.125  36.722   3.232
69371W        W35912  35.927  35.146   3.558
69372W        W35913  17.603  24.554  11.577
69373W        W35914  34.052   0.190  11.212
69374W        W35915   8.835  42.668   2.383
69375W        W35916  32.588  22.126   1.747
69376W        W35917  31.951   5.388   1.893
69377W        W35918  16.146  15.827   4.524
69378W        W35919  30.559  42.390   0.266
69379W        W35920   8.478  39.575  14.389
69380W        W35921  29.457  11.893  14.942
69381W        W35922  17.988  11.697  14.441
69382W        W35923  38.028  16.321  11.146
69383W        W35924  17.033  39.674  12.924
69384W        W35925  33.397  25.985   0.690
69385W        W35926  32.718   5.433  13.622
69386W        W35927  44.225   6.766  10.353
69387W        W35928  37.106   5.385   3.176
69388W        W35929  42.526  32.007   4.075
69389W        W35930  40.257  35.654  10.962
69390W        W35931   3.406  39.274   3.215
69391W        W35932  15.620  21.139   4.728
69392W        W35933   9.445   5.121  11.974
69393W        W35934  26.561  44.749  11.655
69394W        W35935  12.402  40.823   4.013
69395W        W35936   9.928  12.017   3.726
69396W        W35937  37.081  26.085   1.282
69397W        W35938  24.090  20.229  11.876
69398W        W35939  35.139  35.300   3.190
69399W        W35940  28.911  28.601   4.638
69400W        W35941   3.214  12.361  14.018
69401W        W35942  11.765   5.529  10.042
69402W        W35943  40.014  34.944   0.762
69403W        W35944  17.509  24.065   1.561
69404W        W35945  41.063   9.692   2.318
69405W        W35946  29.433   8.951  13.695
69406W        W35947  31.674   4.830  14.763
69407W        W35948  41.537  16.053  13.330
69408W        W35949  11.127  11.596  13.667
69409W        W35950  41.852   7.480   0.760
69410W        W35951  21.471   4.429   2.731
69411W        W35952  43.285  39.450  11.522
69412W        W35953   5.255  40.506   3.479
69413W        W35954  37.526  28.706   0.256
69414W        W35955   9.882  41.387   2.116
69415W        W35956  20.633  20.598   0.818
69416W        W35957  25.986  37.281   3.250
69417W        W35958   6.270  21.937  12.139
69418W        W35959  35.440   5.239   0.645
69419W        W35960  44.006  21.904   4.529
69420W        W35961   9.292   9.718  11.880
69421W        W35962  34.131  21.064  11.905
69422W        W35963   7.776  40.750  12.224
69423W        W35964  39.932  22.203  11.117
69424W        W35965   5.123  19.775   4.684
69425W        W35966  18.039  18.246  14.435
69426W        W35967  42.911  34.093  11.610
69427W        W35968  29.064  15.139   1.722
69428W        W35969  28.421  36.539  12.117
69429W        W35970  27.070   9.166   4.325
69430W        W35971   1.380  15.754   4.191
69431W        W35972  41.697  37.975  11.529
69432W        W35973  20.156  24.524   1.807
69433W        W35974  11.767  21.507   3.829
69434W        W35975  31.648  41.842   0.786
69435W        W35976  42.724  28.660  14.396
69436W        W35977   4.596  18.846  12.439
69437W        W35978  42.619  14.172  14.702
69438W        W35979   8.811   1.578  14.593
69439W        W35980  10.708  31.890  14.510
69440W        W35981  33.060   6.746   1.341
69441W        W35982  12.309  20.662   1.049
69442W        W35983  29.337  30.070   3.679
69443W        W35984  17.003  44.808   2.678
69444W        W35985  28.147  35.925   1.668
69445W        W35986  23.229  20.718  10.686
69446W        W35987  40.007  16.293  14.467
69447W        W35988  31.503   4.426  14.052
69448W        W35989  31.987   9.642   0.008
69449W        W35990   8.584  33.915  12.400
69450W        W35991  29.651  40.764   2.487
69451W        W35992  26.855  34.371  12.577
69452W        W35993  19.078  23.517   1.806
69453W        W35994   2.328  20.136  13.225
69454W        W35995  29.027  27.646  12.499
69455W        W35996  42.971  29.180  13.489
69456W        W35997  16.497  12.197  13.877
69457W        W35998   9.631   7.341  13.489
69458W        W35999  23.468  20.760   4.783
69459W        W36000   7.088   5.876   1.521
69460W        W36001   4.247  16.548  14.486
69461W        W36002  44.174   9.599  14.405
69462W        W36003  20.629  30.130   0.648
69463W        W36004  40.334  13.423  13.056
69464W        W36005  18.086   3.952  12.289
69465W        W36006  25.194  28.860   0.264
69466W        W36007  13.233  24.535  11.256
69467W        W36008  35.261  23.609   0.801
69468W        W36009   5.729  28.238   4.193
69469W        W36010  26.134  44.290  14.820
69470W        W36011  39.377  29.632   0.981
69471W        W36012   7.639   7.075   9.870
69472W        W36013  40.479  38.009  14.065
69473W        W36014   1.460  16.650   1.407
69474W        W36015  34.702   6.204  11.076
69475W        W36016  31.477  24.990   2.313
69476W        W36017  31.660   2.776  13.330
69477W        W36018   0.658   0.651  13.871
69478W        W36019  19.964   3.485   3.814
69479W        W36020  21.245  40.502  11.641
69480W        W36021  36.358  28.393  13.577
69481W        W36022  15.750  38.484   3.353
69482W        W36023  31.046  23.763  12.069
69483W        W36024  13.287   0.826  13.900
69484W        W36025   0.890   1.448  11.327
69485W        W36026  36.544   9.338   2.799
69486W        W36027   6.656  44.755   4.468
69487W        W36028  30.387  34.160  12.899
69488W        W36029   8.690  40.873   1.362
69489W        W36030  19.723  25.563  14.674
69490W        W36031  30.845   5.358   4.204
69491W        W36032  16.551  16.432   3.193
69492W        W36033  20.184  14.633  14.111
69493W        W36034  37.845   8.171  14.339
69494W        W36035   0.974   2.401   3.275
69495W        W36036  20.651  22.762   0.750
69496W        W36037  23.194  40.309   4.999
69497W        W36038  39.464  42.827   3.308
69498W        W36039  22.031  15.911   0.477
69499W        W36040  34.103   4.702   3.621
69500W        W36041  14.130  14.442   0.977
69501W        W36042  31.997  33.839   3.575
69502W        W36043  34.810   4.875  10.985
69503W        W36044   2.886  32.292  13.104
69504W        W36045  23.716  18.703   0.232
69505W        W36046   5.901  11.670  14.908
69506W        W36047  25.184  16.893  14.603
69507W        W36048  32.570  42.881   2.154
69508W        W36049  44.801  30.190   4.425
69509W        W36050   9.694  19.175  12.671
69510W        W36051  20.391  43.016  12.524
69511W        W36052  42.436   2.325   3.655
69512W        W36053  41.101   1.483   2.696
69513W        W36054  36.643  20.465   1.749
69514W        W36055   2.777  33.317   2.396
69515W        W36056  40.343  21.616   0.919
69516W        W36057  35.852  41.488  10.708
69517W        W36058   1.424   5.708  13.218
69518W        W36059   8.718  13.698  10.340
69519W        W36060  11.890  33.548   1.448
69520W        W36061  26.154  25.184   4.168
69521W        W36062  29.544  18.524   3.570
69522W        W36063   4.832   4.823  11.070
69523W        W36064  44.695  12.049   0.451
69524W        W36065  32.917   6.068   0.540
69525W        W36066  27.997   6.706   4.582
69526W        W36067  39.401   2.011   1.784
69527W        W36068  39.391  37.338   4.986
69528W        W36069  33.150  30.721  11.134
69529W        W36070  18.366  40.718  14.037
69530W        W36071   8.849  40.220   4.812
69531W        W36072  11.667   8.340   0.044
69532W        W36073  10.964   8.603   1.247
69533W        W36074  11.381   2.745  13.372
69534W        W36075   8.642  44.937   2.838
69535W        W36076  26.629  11.790   0.259
69536W        W36077   4.678  25.973  10.694
69537W        W36078   6.491  20.544   2.709
69538W        W36079  14.775  42.760  11.792
69539W        W36080  42.919  43.019   3.390
69540W        W36081   9.948  28.562   2.053
69541W        W36082  13.061  14.176   4.289
69542W        W36083  40.630   1.626   2.828
69543W        W36084  31.481  32.887  13.971
69544W        W36085  17.306  38.279  11.898
69545W        W36086  27.529   3.699  13.011
69546W        W36087   0.387  30.104   1.422
69547W        W36088  43.607   0.520  12.521
69548W        W36089  23.653  18.854  14.405
69549W        W36090  44.437  39.568  13.451
69550W        W36091  31.509   9.323   5.053
69551W        W36092  25.486   2.470   4.037
69552W        W36093   5.630  28.817   1.632
69553W        W36094  20.762   8.907  13.912
69554W        W36095   8.132   2.726  14.780
69555W        W36096   8.213  30.449  10.698
69556W        W36097   8.683  17.950   2.735
69557W        W36098  34.390   4.336  14.439
69558W        W36099  23.117   3.391   3.292
69559W        W36100   2.962  37.921   0.818
69560W        W36101  20.789  24.220   2.807
69561W        W36102  44.430  21.571   2.594
69562W        W36103  25.595  21.804  14.092
69563W        W36104  15.729  10.592   3.201
69564W        W36105   2.686  12.215  14.556
69565W        W36106  18.634   5.978  14.038
69566W        W36107  18.707  23.429  12.863
69567W        W36108  16.567   6.222   0.133
69568W        W36109   0.930  17.661   2.658
69569W        W36110  36.442  34.506   3.396
69570W        W36111  28.693  24.067   0.765
69571W        W36112  32.527  18.675  12.655
69572W        W36113  11.672  15.750  12.389
69573W        W36114  35.981  23.274   2.237
69574W        W36115   6.303  12.155   3.023
69575W        W36116  30.650   8.860  14.791
69576W        W36117  16.339   1.426  10.562
69577W        W36118  43.613  22.191  13.581
69578W        W36119   0.095  38.364   3.100
69579W        W36120  37.396  16.743  13.839
69580W        W36121  17.151   6.762   2.000
69581W        W36122  19.607  27.086   4.602
69582W        W36123  28.860  39.648  13.494
69583W        W36124   1.055  34.174   2.655
69584W        W36125   8.936  36.387  12.064
69585W        W36126  32.929  44.566  13.056
69586W        W36127   9.849   4.306  10.761
69587W        W36128  30.140  26.689   0.479
69588W        W36129  41.504  19.096   4.548
69589W        W36130   1.248  37.334  11.582
69590W        W36131  12.391  30.034   3.093
69591W        W36132  34.813  25.843   1.400
69592W        W36133  29.605  20.473   4.166
69593W        W36134  42.318  37.523   2.646
69594W        W36135  37.245  32.993  14.422
69595W        W36136  34.678  33.350   2.615
69596W        W36137  22.131  38.895  11.968
69597W        W36138  44.164  41.897   2.555
69598W        W36139  24.159  28.358   0.681
69599W        W36140   3.386  11.429  13.923
69600W        W36141  35.401   4.061  12.410
69601W        W36142  25.235   5.339  14.060
69602W        W36143   5.489   8.097  11.735
69603W        W36144   8.648  31.550  14.473
69604W        W36145  13.378  27.106   2.497
69605W        W36146  24.360  33.105   3.211
69606W        W36147  44.247   3.376   2.681
69607W        W36148  28.995  15.578   2.019
69608W        W36149  28.033  39.353  13.052
69609W        W36150   8.157  32.695   3.143
69610W        W36151  36.558  44.701   0.223
69611W        W36152  33.706  42.850   1.918
69612W        W36153  24.615   4.158   5.057
69613W        W36154  25.506  17.854  14.050
69614W        W36155  21.018  12.378  12.582
69615W        W36156  35.537  27.248   4.624
69616W        W36157   4.101  23.251  10.818
69617W        W36158   3.804   3.767   0.382
69618W        W36159  32.283  40.421  11.508
69619W        W36160  24.011  35.310   4.026
69620W        W36161  31.446  21.591   0.497
69621W        W36162  31.529   2.681   4.637
69622W        W36163  17.646  44.462   2.899
69623W        W36164  42.920  44.332   1.245
69624W        W36165   0.075   6.845  12.016
69625W        W36166  30.603  14.217  10.461
69626W        W36167  18.035   4.969  10.650
69627W        W36168  34.452   4.211  10.664
69628W        W36169  40.220  31.701  13.526
69629W        W36170  44.488  34.125  13.966
69630W        W36171  32.869   0.210   1.877
69631W        W36172  17.636  11.170  13.371
69632W        W36173  16.680  43.142   2.377
69633W        W36174  11.687  12.032   1.313
69634W        W36175   7.365  10.858   3.244
69635W        W36176  41.687  43.544   1.684
69636W        W36177  32.983  10.893   4.637
69637W        W36178   0.061  42.413  14.009
69638W        W36179  22.058  31.623   0.481
69639W        W36180  29.396  10.332  11.111
69640W        W36181  25.139  26.033  14.806
69641W        W36182  19.024  21.178   3.189
69642W        W36183  44.030  42.459  12.603
69643W        W36184   7.862   2.747   0.436
69644W        W36185  26.534  13.227  12.670
69645W        W36186  10.333  18.604  12.408
69646W        W36187  20.764   4.990   1.655
69647W        W36188  26.991  19.626   1.072
69648W        W36189  24.373  15.898   1.604
69649W        W36190  16.250  35.096   2.448
69650W        W36191  28.747   7.732   2.822
69651W        W36192  40.444   1.741   1.895
69652W        W36193   8.006  16.936   3.582
69653W        W36194  25.272   2.773  11.035
69654W        W36195  30.632  12.135   2.722
69655W        W36196  36.885  33.420  13.093
69656W        W36197  26.712  25.214  11.132
69657W        W36198   8.461  20.377  13.516
69658W        W36199  24.607  30.512  12.071
69659W        W36200  35.933  14.246  14.043
69660W        W36201  12.032  39.590  12.039
69661W        W36202  14.256  20.293  10.592
69662W        W36203  38.546  17.414   1.346
69663W        W36204  12.673  27.226  13.601
69664W        W36205  35.663  20.144   4.741
69665W        W36206   8.918   2.642  13.298
69666W        W36207  34.941  12.169  10.756
69667W        W36208  35.925   6.311   2.227
69668W        W36209  29.713  10.043  10.828
69669W        W36210  19.023  40.437  14.765
69670W        W36211  34.544  43.084  10.936
69671W        W36212   3.407  18.143  11.001
69672W        W36213   8.156  12.151  14.671
69673W        W36214  27.033   4.201   4.650
69674W        W36215  38.233  13.276   1.889
69675W        W36216  30.437   1.395   1.542
69676W        W36217   7.264  33.058   0.486
69677W        W36218   2.193  36.394  14.423
69678W        W36219  42.053  18.190   3.706
69679W        W36220  27.797  28.028  13.712
69680W        W36221  33.050  11.181  13.405
69681W        W36222  30.855  28.914   1.802
69682W        W36223  39.266  40.326  12.702
69683W        W36224  43.555  20.727  10.826
69684W        W36225  12.044  18.102   2.204
69685W        W36226   0.887  32.852   3.079
69686W        W36227  38.940  28.828  10.731
69687W        W36228   7.871  41.978  12.991
69688W        W36229  43.492   5.982   0.644
69689W        W36230  27.996  31.482  13.879
69690W        W36231  25.410  20.233   4.143
69691W        W36232  39.820  20.036  14.038
69692W        W36233   6.895  41.394   0.477
69693W        W36234  32.550   2.438   0.303
69694W        W36235   3.369   9.160  10.968
69695W        W36236   4.313  32.028  13.861
69696W        W36237  33.351   9.762  11.673
69697W        W36238   1.274  25.056  12.948
69698W        W36239   1.902  40.339   3.296
69699W        W36240  44.111  40.452  14.201
69700W        W36241  39.575  20.885  14.007
69701W        W36242  10.494   0.369  12.595
69702W        W36243  22.453  16.143  10.654
69703W        W36244  26.025  27.606   0.169
69704W        W36245  10.218  30.284   0.898
69705W        W36246  17.811  44.540   1.852
69706W        W36247   8.858   2.274   4.030
69707W        W36248   3.049  41.304  10.700
69708W        W36249   4.637  25.169   1.219
69709W        W36250  37.610  18.250   0.559
69710W        W36251  38.564  32.445   0.940
69711W        W36252  15.154  25.579   0.328
69712W        W36253  32.894  38.589   1.831
69713W        W36254  15.915  26.209  11.634
69714W        W36255  43.188  10.627  13.252
69715W        W36256   3.202  21.697   0.386
69716W        W36257   0.480  18.471  14.363
69717W        W36258  27.763  13.821   0.447
69718W        W36259   4.329  14.215  10.744
69719W        W36260  43.792  24.991   3.819
69720W        W36261   1.237  18.026   4.646
69721W        W36262  41.309  31.500  12.511
69722W        W36263  16.474   0.897  11.661
69723W        W36264  11.852  24.259   3.004
69724W        W36265  41.891  20.171   4.271
69725W        W36266  20.130  10.362   3.107
69726W        W36267  12.352  14.394   3.088
69727W        W36268  15.318  39.273  11.141
69728W        W36269  44.046   6.219  14.117
69729W        W36270  11.309  32.906   4.138
69730W        W36271  39.375  10.950   4.948
69731W        W36272  12.842  17.605   0.389
69732W        W36273   1.345  31.553   3.646
69733W        W36274   0.174   2.433  10.632
69734W        W36275  36.962  36.977  10.954
69735W        W36276  38.412  32.060  10.554
69736W        W36277  13.808  14.305   3.844
69737W        W36278  24.038  41.472  13.118
69738W        W36279  26.282  22.485   3.466
69739W        W36280   4.645   1.316   9.743
69740W        W36281   4.783  30.887  11.720
69741W        W36282  43.903  27.008  10.814
69742W        W36283  33.550  41.512   4.267
69743W        W36284  23.926  15.970  10.357
69744W        W36285  29.557  14.185  11.153
69745W        W36286  37.706   4.751  13.519
69746W        W36287  17.632  26.447  13.767
69747W        W36288  18.960  44.203   4.104
69748W        W36289  39.762  41.015   4.515
69749W        W36290  23.169  43.944  10.745
69750W        W36291  29.928  23.163  10.725
69751W        W36292  39.620  40.468   4.372
69752W        W36293  32.503   0.963   1.837
69753W        W36294  33.492   7.673  10.341
69754W        W36295   4.375  28.042  13.712
69755W        W36296  38.519  44.878  13.359
69756W        W36297  23.791  31.515   4.848
69757W        W36298  17.252  18.092   5.581
69758W        W36299  39.967  25.001  11.335
69759W        W36300  33.617  24.000   4.713
69760W        W36301  13.331   0.548   0.791
69761W        W36302  19.169  38.341  12.619
69762W        W36303  34.838  28.344  10.140
69763W        W36304  26.538  18.291   2.623
69764W        W36305   6.870  14.715  11.844
69765W        W36306  14.508  43.483   1.742
69766W        W36307   5.120   8.832   4.344
69767W        W36308  41.793  44.400  12.006
69768W        W36309  16.123  36.483  13.839
69769W        W36310   5.690  20.855   1.138
69770W        W36311  14.372   4.686  13.810
69771W        W36312  21.534  19.702  12.197
69772W        W36313  43.688  10.553  11.578
69773W        W36314  14.264  33.819  14.265
69774W        W36315  32.594  21.257   3.159
69775W        W36316  26.779  10.245  10.057
69776W        W36317   4.806  13.624   0.407
69777W        W36318  28.936  24.336  11.917
69778W        W36319  23.189   8.360   0.844
69779W        W36320   8.267  44.533  13.629
69780W        W36321  17.667   1.217   3.710
69781W        W36322  12.420  22.652   2.265
69782W        W36323   4.983  36.502   4.573
69783W        W36324  13.901  41.452   3.760
69784W        W36325   7.594  36.724   4.579
69785W        W36326  35.377  14.843  11.599
69786W        W36327   1.211   6.897  14.866
69787W        W36328  36.918   2.629  11.339
69788W        W36329  38.870   3.261  14.878
69789W        W36330  11.704  42.578  12.956
69790W        W36331  21.224  11.849   4.611
69791W        W36332  26.517  29.548   4.810
69792W        W36333  22.627  15.529  11.920
69793W        W36334   2.282  43.854  10.502
69794W        W36335  12.289   9.661   2.680
69795W        W36336  30.600  30.827   3.631
69796W        W36337  11.350  31.528   0.917
69797W        W36338   3.811  42.687  13.413
69798W        W36339  18.000   2.326   1.825
69799W        W36340   5.218  30.066   0.755
69800W        W36341  19.425   2.956  11.718
69801W        W36342  25.980  24.761  10.721
69802W        W36343  30.444  42.306  11.209
69803W        W36344   1.952   4.541  14.380
69804W        W36345  37.018  16.781   3.523
69805W        W36346  37.105  41.533  13.624
69806W        W36347  23.973  28.881  12.019
69807W        W36348  18.553  17.683   2.899
69808W        W36349  17.241  22.239  12.141
69809W        W36350   9.748  23.202  10.618
69810W        W36351  32.724   1.459   0.379
69811W        W36352  41.947   2.662  11.167
69812W        W36353  43.921  33.364   2.552
69813W        W36354   2.363  33.484   0.537
69814W        W36355  20.358  37.589  12.389
69815W        W36356  41.065  39.768   2.026
69816W        W36357  30.595  35.008   4.666
69817W        W36358  28.550  40.842  13.505
69818W        W36359   9.717  35.051   3.269
69819W        W36360  17.969  10.566  11.999
69820W        W36361  10.269   4.474   3.866
69821W        W36362  12.903   8.748  14.882
69822W        W36363  33.463  21.453   5.338
69823W        W36364  31.582  21.933   3.758
69824W        W36365  31.347   2.413  14.528
69825W        W36366  20.721   0.983   4.640
69826W        W36367  11.893  11.945  13.989
69827W        W36368   5.304  10.649  11.171
69828W        W36369  14.154  38.863  11.118
69829W        W36370   7.748  22.295  12.086
69830W        W36371   4.371  40.312  11.522
69831W        W36372  30.916  17.262   9.987
69832W        W36373  28.675  37.066  13.266
69833W        W36374  37.844  13.780  11.247
69834W        W36375  26.050  10.590  12.421
69835W        W36376  11.237   3.723  11.872
69836W        W36377  44.415  29.380   2.501
69837W        W36378   9.304  18.807   1.436
69838W        W36379   5.227   5.709  13.985
69839W        W36380  23.055  13.218   1.948
69840W        W36381  28.232  17.098   1.280
69841W        W36382  20.114  32.347   1.850
69842W        W36383  27.721   6.697  14.201
69843W        W36384  11.782  38.612  11.970
69844W        W36385  30.578  37.900  11.531
69845W        W36386  27.003  15.752   1.900
69846W        W36387  25.493   3.672  14.735
69847W        W36388  37.290   3.565   0.715
69848W        W36389  13.565  27.454   4.068
69849W        W36390  38.930  25.897   3.118
69850W        W36391   5.695  30.153   4.944
69851W        W36392  13.836   9.876  12.515
69852W        W36393  12.815  42.534  11.388
69853W        W36394  14.532  28.142   2.306
69854W        W36395   1.431  44.547   0.761
69855W        W36396  16.723  16.057   4.210
69856W        W36397  43.902   8.359   1.839
69857W        W36398  22.084  29.227   2.691
69858W        W36399  32.584   4.215  10.618
69859W        W36400  22.564  30.195   1.260
69860W        W36401  18.585  25.848  13.863
69861W        W36402   7.279  44.963   1.618
69862W        W36403  43.233   9.253   1.085
69863W        W36404  43.993  24.655  11.553
69864W        W36405   4.151  41.649   3.805
69865W        W36406  29.862  18.783   4.872
69866W        W36407   3.926  32.611   4.380
69867W        W36408  43.306  24.950   3.650
69868W        W36409   9.021   3.180   4.180
69869W        W36410  23.015   3.402  14.475
69870W        W36411   8.895  27.012   1.736
69871W        W36412  23.219  30.694   2.846
69872W        W36413  25.601  28.691   1.391
69873W        W36414  40.990  24.643   4.021
69874W        W36415  38.858  17.186   3.733
69875W        W36416  18.528  28.217   0.284
69876W        W36417   7.292   4.135   3.337
69877W        W36418  33.681  42.330  13.917
69878W        W36419   0.191   3.582  12.513
69879W        W36420  33.654  42.786  12.832
69880W        W36421  22.400  22.644  10.684
69881W        W36422  21.738  17.696  14.490
69882W        W36423  12.204  13.103   0.012
69883W        W36424  17.957  28.517  10.556
69884W        W36425  11.171  18.328   2.072
69885W        W36426  33.627   3.270   3.198
69886W        W36427   8.278  38.516  12.181
69887W        W36428  10.129  13.758  14.792
69888W        W36429  11.661  40.054  12.864
69889W        W36430  28.043  21.268   1.438
69890W        W36431  42.750  23.576   1.912
69891W        W36432  21.794   8.205   0.832
69892W        W36433  17.139  12.663   2.634
69893W        W36434  12.543   3.441  12.559
69894W        W36435  37.734  10.335  10.568
69895W        W36436   1.293  43.413   2.962
69896W        W36437  35.070  12.185   0.843
69897W        W36438  35.068   1.563  11.039
69898W        W36439  13.362   2.002  10.244
69899W        W36440  21.879  25.684  14.093
69900W        W36441  30.064  24.410  13.038
69901W        W36442  21.644  15.077  13.484
69902W        W36443  29.014  32.654  10.849
69903W        W36444   2.355  44.328   0.750
69904W        W36445  34.386   6.129  10.264
69905W        W36446  39.370   6.149   4.382
69906W        W36447  43.901  23.476  14.929
69907W        W36448  20.610   3.244  14.427
69908W        W36449  38.192  44.231   2.162
69909W        W36450  40.954  10.951   3.459
69910W        W36451  22.310  40.840  11.724
69911W        W36452  35.490  21.711  14.417
69912W        W36453  43.814  29.662   3.157
69913W        W36454  25.657  20.747  10.909
69914W        W36455   6.872  37.027  13.641
69915W        W36456  25.153   5.124  13.508
69916W        W36457  11.798  43.322  12.463
69917W        W36458  29.983   9.396   1.367
69918W        W36459  24.351  12.795  11.878
69919W        W36460   6.757  19.251   3.713
69920W        W36461   2.377   9.013   3.248
69921W        W36462  19.980   7.370   2.868
69922W        W36463   1.864  17.613   0.335
69923W        W36464   3.623  42.540  14.942
69924W        W36465  41.478  30.144   4.120
69925W        W36466  24.906  26.196  11.626
69926W        W36467   8.618   0.312  12.073
69927W        W36468  43.935  16.611   3.328
69928W        W36469  25.251   0.910  11.505
69929W        W36470  36.322   6.822   1.808
69930W        W36471  15.115  18.973   1.948
69931W        W36472  28.660  18.314  10.994
69932W        W36473  43.807  40.420  10.616
69933W        W36474   2.430  40.433   1.590
69934W        W36475   3.291  23.554   4.661
69935W        W36476  29.430  33.933   0.303
69936W        W36477  34.480  34.863   2.752
69937W        W36478  31.188  20.065  14.916
69938W        W36479  33.289  20.095  13.586
69939W        W36480  29.710   6.788   2.705
69940W        W36481  35.316  12.765  11.486
69941W        W36482   0.042  11.716   0.683
69942W        W36483  32.738  21.282   1.001
69943W        W36484  31.015  29.195   4.862
69944W        W36485  35.973  20.747   2.336
69945W        W36486   8.700  18.573   4.966
69946W        W36487   7.411   5.942   3.682
69947W        W36488  40.384   1.961  13.419
69948W        W36489  35.375  20.068   4.319
69949W        W36490   3.817   5.483   4.196
69950W        W36491  10.302   7.345   1.193
69951W        W36492  25.185   5.682   2.112
69952W        W36493  26.329   1.432   4.871
69953W        W36494   6.272  24.573  14.623
69954W        W36495  31.646  18.149   0.579
69955W        W36496  23.620   0.973   0.402
69956W        W36497  42.917  17.939   4.638
69957W        W36498  13.676  27.402  14.066
69958W        W36499  21.062  35.646   4.895
69959W        W36500  29.275  25.189   3.289
69960W        W36501  13.026  40.070  12.928
69961W        W36502  39.001  34.649   1.181
69962W        W36503  41.328  15.114  14.687
69963W        W36504  14.893  35.430  14.255
69964W        W36505  14.660  37.608  14.463
69965W        W36506  17.818  18.552  10.918
69966W        W36507  26.768  32.602   0.261
69967W        W36508  41.463  14.011   2.183
69968W        W36509  37.622  33.984   3.278
69969W        W36510   9.725  42.482   1.418
69970W        W36511  35.254  30.870  13.777
69971W        W36512  41.593  35.936  11.627
69972W        W36513  21.350   2.747   4.857
69973W        W36514  10.084  18.841   0.140
69974W        W36515  12.717   9.221   1.815
69975W        W36516   4.323   1.902   1.913
69976W        W36517  34.472  37.673   3.675
69977W        W36518   6.279  32.995   3.784
69978W        W36519  35.085  32.487   2.220
69979W        W36520   9.173   5.106   1.226
69980W        W36521  33.614  25.061  10.266
69981W        W36522  30.949  11.310  10.184
69982W        W36523  12.943  17.242   2.169
69983W        W36524  36.785  18.711   2.933
69984W        W36525  44.856  20.724   4.620
69985W        W36526  26.939  31.690   3.283
69986W        W36527  40.491   6.403  14.508
69987W        W36528  27.208  23.009  11.490
69988W        W36529  18.697  22.552  12.669
69989W        W36530  10.772  27.226   2.206
69990W        W36531  23.581  42.470  14.340
69991W        W36532   3.487  28.082   3.623
69992W        W36533  15.148  12.935   2.342
69993W        W36534  37.068  23.536  14.521
69994W        W36535  27.990  15.700   0.952
69995W        W36536  29.556  20.891  11.476
69996W        W36537   8.777   4.857   2.637
69997W        W36538   4.371  41.067   2.637
69998W        W36539  16.309  37.367   4.568
69999W        W36540  12.793  19.195  14.455
70000W        W36541  36.515  31.848  13.499
70001W        W36542  28.330  11.514  13.055
70002W        W36543  24.919  35.695  14.860
70003W        W36544  44.697  25.573  11.044
70004W        W36545   6.603  19.138  14.999
70005W        W36546  18.129  42.965  14.608
70006W        W36547  31.025  30.107   4.648
70007W        W36548  15.599   9.913  14.031
70008W        W36549  21.587  13.080   1.579
70009W        W36550  41.412  42.021  10.665
70010W        W36551  42.941  38.512  11.186
70011W        W36552  14.843  27.002  10.890
70012W        W36553   6.946  44.491   2.360
70013W        W36554   5.844   1.613  11.503
70014W        W36555  17.673  38.847  10.687
70015W        W36556  17.618  30.605   0.384
70016W        W36557   3.242  24.647  11.555
70017W        W36558  32.237  24.076   0.273
70018W        W36559   3.869   1.361  14.940
70019W        W36560   6.750  35.891   2.731
70020W        W36561  41.101  11.620   4.481
70021W        W36562  18.165  13.282   1.897
70022W        W36563  19.502  43.781  11.565
70023W        W36564  43.809  21.715  12.951
70024W        W36565  35.054  37.418  12.164
70025W        W36566  37.522  44.993   1.201
70026W        W36567  13.279  26.462  12.171
70027W        W36568  30.015  40.319  13.881
70028W        W36569   2.977  18.200  11.330
70029W        W36570  10.917  20.754   0.844
70030W        W36571   9.698  35.263  13.947
70031W        W36572  33.751  17.353  12.427
70032W        W36573  23.076  36.539   3.752
70033W        W36574   7.158  36.540  10.923
70034W        W36575   7.666  19.095  12.953
70035W        W36576  28.448   0.875  10.704
70036W        W36577  32.955  34.623  13.157
70037W        W36578   8.239  19.287  14.351
70038W        W36579  32.648   4.994   0.070
70039W        W36580  39.238  22.534   2.352
70040W        W36581  27.024  43.347  10.746
70041W        W36582  33.592  18.742  11.532
70042W        W36583  43.371  34.461  10.714
70043W        W36584  16.661  43.197   0.832
70044W        W36585  24.142  27.002  12.350
70045W        W36586  16.361  17.098   2.033
70046W        W36587  11.699   9.212  13.343
70047W        W36588  39.891   0.651  12.528
70048W        W36589   7.198  13.209  10.761
70049W        W36590  15.746   9.846  13.521
70050W        W36591  36.805  21.062  10.461
70051W        W36592  36.943  26.018  14.740
70052W        W36593   9.944  25.655   4.174
70053W        W36594  32.250  25.972   0.021
70054W        W36595   6.307  43.176  11.639
70055W        W36596  10.311   4.605  14.374
70056W        W36597  20.593  44.858   1.657
70057W        W36598  26.944  36.883   0.823
70058W        W36599  11.608  24.633  13.760
70059W        W36600   8.786  30.404  12.577
70060W        W36601  30.977   2.459  11.440
70061W        W36602  12.371   6.715  11.892
70062W        W36603  19.089  19.424   0.254
70063W        W36604  40.090  39.692  11.168
70064W        W36605  16.512   8.381  12.999
70065W        W36606  41.965  14.348   3.302
70066W        W36607  25.400  37.775   3.857
70067W        W36608   3.165   7.338  14.176
70068W        W36609  37.672   9.603  12.075
70069W        W36610  37.285  17.342  10.734
70070W        W36611  21.567  16.066   4.242
70071W        W36612  26.373   5.814  10.589
70072W        W36613  33.527  13.296   3.726
70073W        W36614  27.831  41.390  12.003
70074W        W36615  42.438   4.794  11.995
70075W        W36616  31.496   4.858  13.731
70076W        W36617  44.888  28.149   0.214
70077W        W36618  18.893   7.640   3.144
70078W        W36619  33.716   4.309   3.366
70079W        W36620  23.988  33.575  10.077
70080W        W36621  12.253  23.707   4.150
70081W        W36622  32.490  15.163   1.208
70082W        W36623  43.453  32.449   4.853
70083W        W36624   8.418   2.390   4.512
70084W        W36625   6.466   2.942  13.442
70085W        W36626  32.624   7.728  10.673
70086W        W36627  15.447  34.159  13.813
70087W        W36628  39.134  31.077   3.739
70088W        W36629  40.180   0.720   5.187
70089W        W36630  38.557  12.926   5.440
70090W        W36631   6.810  18.525  10.689
70091W        W36632  11.721  11.834  11.055
70092W        W36633  28.946  33.538  12.025
70093W        W36634  39.050  32.337  12.875
70094W        W36635  24.203  20.601  13.806
70095W        W36636  20.725  18.056   3.458
70096W        W36637   0.275  40.409  12.346
70097W        W36638  38.798  20.083   4.878
70098W        W36639  39.941  40.308  12.047
70099W        W36640   6.321  22.736  10.291
70100W        W36641  43.233  28.925   0.275
70101W        W36642  20.986   8.985   4.951
70102W        W36643  37.583   3.682   4.594
70103W        W36644  22.568  28.430  12.430
70104W        W36645  26.011  12.873   1.517
70105W        W36646  15.412  28.088   4.079
70106W        W36647  10.747  22.721   2.872
70107W        W36648  34.814  31.934  12.071
70108W        W36649  10.179  42.233  11.084
70109W        W36650  29.060  23.510   2.183
70110W        W36651  13.824  27.267  14.946
70111W        W36652  30.219  34.815   2.440
70112W        W36653  24.978  10.646  13.039
70113W        W36654  17.786   7.252  12.982
70114W        W36655  17.081  21.479  11.684
70115W        W36656  10.925   5.649  13.145
70116W        W36657  30.754  25.442   2.686
70117W        W36658   7.305   5.722  13.560
70118W        W36659  17.254  23.267   4.058
70119W        W36660   3.174  12.440   1.232
70120W        W36661  42.401  11.217  11.872
70121W        W36662  26.568   2.529  10.788
70122W        W36663   5.297  27.207   4.694
70123W        W36664   8.235  37.129  12.613
70124W        W36665  42.895   9.992   0.752
70125W        W36666  20.701  31.254   0.185
70126W        W36667   2.885  25.537  11.466
70127W        W36668  12.122  32.424  10.627
70128W        W36669  15.134  32.131   1.383
70129W        W36670  37.629  10.596  12.116
70130W        W36671   0.303   9.146   1.733
70131W        W36672  24.196  22.023  11.926
70132W        W36673  27.259  37.642  13.955
70133W        W36674   7.091  36.123   2.421
70134W        W36675   1.422  41.806   3.689
70135W        W36676  30.117  18.874   1.802
70136W        W36677  33.674  36.936  13.434
70137W        W36678   6.913  14.916   2.943
70138W        W36679  18.907   0.596  11.955
70139W        W36680  35.545  24.049   1.935
70140W        W36681   5.322  39.611   3.128
70141W        W36682   3.265  38.379   0.922
70142W        W36683   8.898  10.222  11.621
70143W        W36684  13.780  42.580   4.622
70144W        W36685  25.711  21.784   1.739
70145W        W36686  38.664  20.707  11.662
70146W        W36687  17.711   5.455   3.215
70147W        W36688  37.492  35.921   3.193
70148W        W36689  37.527  15.020   0.842
70149W        W36690  18.259  34.041   2.235
70150W        W36691  27.238  17.817   2.768
70151W        W36692  28.577  23.446   2.907
70152W        W36693   6.466  34.820  10.740
70153W        W36694   9.635  33.820  11.101
70154W        W36695  41.778   2.652  14.337
70155W        W36696  37.387  17.610  12.394
70156W        W36697   7.440  28.425  12.033
70157W        W36698  18.182  35.018  12.540
70158W        W36699  33.925  23.671  11.166
70159W        W36700  25.952   3.909  12.984
70160W        W36701  35.399  23.488  14.900
70161W        W36702  16.625   0.884  13.464
70162W        W36703  15.221  33.598   3.652
70163W        W36704  30.668   5.618   4.594
70164W        W36705  14.729  40.368  12.445
70165W        W36706  12.859   3.715   1.439
70166W        W36707  44.155  39.422   1.970
70167W        W36708  31.560   1.760  10.646
70168W        W36709  13.193  10.860   3.159
70169W        W36710   2.492   1.703  11.709
70170W        W36711  13.641  23.764   0.554
70171W        W36712  31.255   9.739   5.228
70172W        W36713  32.976   8.246  14.346
70173W        W36714  22.539  19.693   1.481
70174W        W36715   5.154  40.332  13.861
70175W        W36716  29.610  39.830  10.739
70176W        W36717   6.652  40.920  14.248
70177W        W36718   0.211   2.013   3.294
70178W        W36719  18.225   7.485   2.253
70179W        W36720  40.269  15.482   4.966
70180W        W36721  22.556  21.061  13.384
70181W        W36722  40.027  28.956   0.791
70182W        W36723  36.398  36.399   0.425
70183W        W36724   8.043  22.879   3.271
70184W        W36725  32.949  29.387   4.081
70185W        W36726  44.365  37.328  11.678
70186W        W36727   7.956  26.533  12.440
70187W        W36728  20.997  20.937   2.304
70188W        W36729  11.828  31.650  12.622
70189W        W36730  27.640  38.156   0.942
70190W        W36731  24.126  20.289   0.832
70191W        W36732  40.834  27.289   0.898
70192W        W36733  30.023  17.106   4.814
70193W        W36734  10.155  28.475   4.069
70194W        W36735  37.839  30.262  12.438
70195W        W36736  24.878   9.737   5.187
70196W        W36737  42.096  26.997   3.307
70197W        W36738   2.372  33.969   9.972
70198W        W36739   8.627  31.380  12.676
70199W        W36740  10.702  41.070   1.532
70200W        W36741  34.017  23.153  14.877
70201W        W36742   0.037  16.781   0.598
70202W        W36743  10.402  32.508  14.990
70203W        W36744  20.138   1.523  11.663
70204W        W36745  39.564  37.361   4.521
70205W        W36746  32.595   3.468  10.744
70206W        W36747  27.094  30.014   3.686
70207W        W36748  27.379   6.862   4.294
70208W        W36749  13.585  25.460  11.501
70209W        W36750   9.130  16.869  12.064
70210W        W36751  17.716  30.975  12.929
70211W        W36752  16.060   4.405   3.179
70212W        W36753  24.239  31.639   0.263
70213W        W36754  12.818  35.004  13.433
70214W        W36755   9.320  22.768   3.443
70215W        W36756   5.631   8.755  11.162
70216W        W36757  42.970   3.082   3.697
70217W        W36758  40.487  20.436   0.207
70218W        W36759  21.928  14.359  12.541
70219W        W36760  23.521  26.914   1.786
70220W        W36761   2.204  32.639   0.442
70221W        W36762  16.841  14.992   0.994
70222W        W36763  31.594  38.112  11.480
70223W        W36764  21.694  38.734  10.706
70224W        W36765  25.470  21.814  14.591
70225W        W36766  39.009  27.514  12.442
70226W        W36767   3.514  26.180   0.367
70227W        W36768  13.563   9.844  11.141
70228W        W36769  28.357  16.618  10.964
70229W        W36770  26.603   7.687   0.037
70230W        W36771  44.826  33.540  11.093
70231W        W36772  20.231   7.837  12.215
70232W        W36773  37.129  26.532  10.660
70233W        W36774  21.111  21.936  13.356
70234W        W36775  14.045   6.725  11.534
70235W        W36776  44.463  34.522   3.557
70236W        W36777  10.904  38.016  14.218
70237W        W36778  25.684  15.313   4.406
70238W        W36779  13.884  20.052   4.151
70239W        W36780  24.424   9.663   3.898
70240W        W36781  18.078  12.176  14.275
70241W        W36782  31.977  30.042   3.645
70242W        W36783  42.005  39.860   2.632
70243W        W36784  27.870  17.534   4.501
70244W        W36785  28.117  17.228  12.443
70245W        W36786  40.358  42.981  10.698
70246W        W36787   5.745   1.823   3.954
70247W        W36788   1.922  37.878   4.699
70248W        W36789  37.849   4.054  10.587
70249W        W36790  14.107  32.661  13.550
70250W        W36791  19.652  43.523   2.775
70251W        W36792  37.986   7.705   1.316
70252W        W36793  30.340  36.964   0.804
70253W        W36794   3.737  23.288   4.552
70254W        W36795  13.314  12.413  13.467
70255W        W36796  17.875  37.280  12.029
70256W        W36797  21.766   4.808   2.438
70257W        W36798  42.007  40.073   0.638
70258W        W36799  16.625  29.976  10.314
70259W        W36800  25.418  13.784  10.965
70260W        W36801  38.985  17.711  11.803
70261W        W36802   6.432  14.007  14.411
70262W        W36803  20.809   3.856   0.909
70263W        W36804   2.389  43.571  14.511
70264W        W36805  19.945   7.332   1.250
70265W        W36806  41.494  11.257  10.455
70266W        W36807   1.893   2.422  11.826
70267W        W36808   5.562  43.739   1.475
70268W        W36809  12.347  24.665  13.473
70269W        W36810   9.765  37.289  13.079
70270W        W36811  11.587  19.964  12.851
70271W        W36812  35.967  20.088   1.773
70272W        W36813   0.467  38.006  14.696
70273W        W36814  10.279  20.060   2.775
70274W        W36815  29.587  39.421   4.804
70275W        W36816  16.326  13.884  10.863
70276W        W36817  23.058  10.309  14.455
70277W        W36818   5.231  44.180   3.806
70278W        W36819  23.167  13.495  13.998
70279W        W36820  32.901  19.019  13.355
70280W        W36821  43.531   4.348   1.741
70281W        W36822  27.679  14.091   4.743
70282W        W36823   4.611   7.951   0.727
70283W        W36824  39.451  40.023  11.693
70284W        W36825  19.648  41.011  11.140
70285W        W36826  29.582  15.057   0.462
70286W        W36827  33.012  41.958  14.966
70287W        W36828  31.220  11.924   4.091
70288W        W36829  28.837  12.840  14.199
70289W        W36830  17.357  21.253  11.251
70290W        W36831  22.089  10.801   2.856
70291W        W36832   6.256  17.301  13.929
70292W        W36833  28.104  21.039  11.105
70293W        W36834  21.119  37.835   2.630
70294W        W36835  23.578  23.175  13.467
70295W        W36836  13.578  28.205   1.622
70296W        W36837  15.264  31.104  12.860
70297W        W36838  12.205  21.065   2.976
70298W        W36839  27.548  32.775   0.443
70299W        W36840   4.254  22.491   2.235
70300W        W36841  30.832  18.181  13.493
70301W        W36842  10.562  34.034   0.024
70302W        W36843  31.431  10.325   1.319
70303W        W36844  27.807   8.629  10.671
70304W        W36845  17.071  35.883   4.082
70305W        W36846  20.055   0.667  12.722
70306W        W36847   3.747  17.207   4.886
70307W        W36848  26.621  42.209   3.173
70308W        W36849   8.289   3.399   0.563
70309W        W36850  20.508   6.499   4.173
70310W        W36851  41.358  24.056   1.958
70311W        W36852  33.661   6.089  14.906
70312W        W36853  39.814  16.184  13.010
70313W        W36854  28.510   5.414  11.424
70314W        W36855  27.806   0.326   0.841
70315W        W36856   6.738  31.117   1.292
70316W        W36857   4.478   1.025   3.179
70317W        W36858  11.359  34.515  14.852
70318W        W36859   4.115  30.642  10.231
70319W        W36860   2.727  14.023   1.765
70320W        W36861  30.351  14.769   1.864
70321W        W36862  24.266  33.559  11.075
70322W        W36863  20.674  27.752   3.701
70323W        W36864   3.356   2.606   2.227
70324W        W36865  12.692  13.129   0.817
70325W        W36866   5.267  16.182  14.835
70326W        W36867  21.643  27.678  14.961
70327W        W36868  12.777   9.359   4.489
70328W        W36869  24.746   7.634   2.654
70329W        W36870  30.595   3.909  12.534
70330W        W36871   8.870  31.470   3.393
70331W        W36872  26.146  24.474  11.124
70332W        W36873  11.009  29.339   0.977
70333W        W36874   0.994  43.468  14.436
70334W        W36875  11.370  30.652   0.304
70335W        W36876  41.479  14.998  13.210
70336W        W36877  37.643  25.976   2.002
70337W        W36878   3.876   5.706   4.963
70338W        W36879  16.990  25.216   1.365
70339W        W36880  33.360   0.298  14.823
70340W        W36881  29.633  19.650  12.521
70341W        W36882   2.782  36.409  12.201
70342W        W36883  29.017  28.892  14.227
70343W        W36884   5.768   0.037  13.049
70344W        W36885  41.332  29.167  11.968
70345W        W36886   1.368   0.718   1.368
70346W        W36887  33.120  17.579  14.005
70347W        W36888   6.802  26.704  14.829
70348W        W36889   8.350  29.749   2.782
70349W        W36890  42.540  14.115   1.811
70350W        W36891   4.892  28.429  10.457
70351W        W36892  33.030  41.560   4.134
70352W        W36893  31.455   9.172  13.952
70353W        W36894  14.311  33.869  10.474
70354W        W36895   7.708  12.999   0.291
70355W        W36896  29.805  15.235  13.544
70356W        W36897  16.675   1.826  10.696
70357W        W36898  13.599  43.774   0.907
70358W        W36899  40.538  26.168  11.962
70359W        W36900  28.539   4.755   0.175
70360W        W36901   6.219  38.245  13.490
70361W        W36902   2.059  20.580   3.343
70362W        W36903  38.056  25.988   3.287
70363W        W36904  28.197  17.808   4.222
70364W        W36905  39.340  10.747  14.787
70365W        W36906  38.393   1.802  12.899
70366W        W36907   4.861  24.014   3.099
70367W        W36908   9.244   3.507  12.643
70368W        W36909  10.041   4.930   3.710
70369W        W36910  18.572  29.688  12.003
70370W        W36911  22.746  26.447   1.275
70371W        W36912  41.250   0.623   4.673
70372W        W36913  42.925  30.643  12.895
70373W        W36914   0.524   4.883  10.710
70374W        W36915  37.914  40.986   0.452
70375W        W36916  41.739  20.252   0.795
70376W        W36917   2.854   7.374   4.771
70377W        W36918  39.729  30.147  14.502
70378W        W36919  42.848  14.522   0.056
70379W        W36920  27.829  29.097   4.087
70380W        W36921   7.291  24.782  10.115
70381W        W36922   5.501  12.846  11.821
70382W        W36923  29.030   9.106   2.691
70383W        W36924  30.710   5.446  12.794
70384W        W36925  15.089   9.896  12.898
70385W        W36926   4.305  27.129   1.508
70386W        W36927  14.262  10.451  10.448
70387W        W36928  11.779  41.973   2.704
70388W        W36929   3.901   4.696  13.870
70389W        W36930   1.058  41.814  13.605
70390W        W36931  10.558  30.022   4.375
70391W        W36932  12.555  24.211   0.000
70392W        W36933  37.571  11.379   2.941
70393W        W36934  43.494   9.722   0.394
70394W        W36935  32.335  15.073   2.175
70395W        W36936  17.212  22.508  11.659
70396W        W36937  39.365  27.959   4.805
70397W        W36938  26.978  24.871  11.472
70398W        W36939  24.993   2.207  12.536
70399W        W36940  19.255   8.129  12.602
70400W        W36941  36.665  15.622   4.125
70401W        W36942  13.368  14.866  12.949
70402W        W36943  14.280  43.962   1.755
70403W        W36944  22.627  36.378  11.569
70404W        W36945  22.520  23.923   1.965
70405W        W36946  20.911  21.450  13.338
70406W        W36947   7.445   7.294  12.279
70407W        W36948  12.770  21.430   0.729
70408W        W36949   2.815   6.785   2.242
70409W        W36950  21.237  17.179  11.726
70410W        W36951  37.354  17.245  14.542
70411W        W36952  14.708  19.175   3.662
70412W        W36953  31.531  42.715  14.735
70413W        W36954  29.059  40.316   2.335
70414W        W36955  19.754  41.609   4.107
70415W        W36956  18.577   9.288  14.194
70416W        W36957  15.784  10.695  12.968
70417W        W36958   7.940  14.266   1.690
70418W        W36959   5.831  33.738  14.403
70419W        W36960  14.300  32.687   0.795
70420W        W36961  19.120   6.850   5.156
70421W        W36962  14.660   6.878   1.717
70422W        W36963  30.424   2.960   2.388
70423W        W36964  29.570  44.246  13.531
70424W        W36965  20.982  38.844  11.189
70425W        W36966   9.680  10.053  12.177
70426W        W36967  32.071  18.430  13.889
70427W        W36968  21.040  29.297   2.059
70428W        W36969  12.603  38.068   0.385
70429W        W36970  34.441  20.188  10.642
70430W        W36971  22.337  37.862   2.212
70431W        W36972   8.587  28.364  14.972
70432W        W36973  36.083  17.658  14.378
70433W        W36974  18.640  42.569  12.910
70434W        W36975  33.016  36.872   1.293
70435W        W36976   2.907   6.303  13.834
70436W        W36977  21.114   0.714  13.613
70437W        W36978  25.301   5.205   3.669
70438W        W36979   4.182   8.325   0.864
70439W        W36980   5.707   0.797  11.173
70440W        W36981   8.097  43.927   4.157
70441W        W36982  32.728  44.278   3.305
70442W        W36983   3.847   5.939  11.244
70443W        W36984  23.392  20.837  13.607
70444W        W36985  20.411  17.663  11.430
70445W        W36986  29.719  33.640   2.661
70446W        W36987  43.928  23.940  11.111
70447W        W36988   2.524  31.110  14.766
70448W        W36989  33.097  34.584   1.319
70449W        W36990  30.782   1.689   0.363
70450W        W36991  32.363   3.877   1.378
70451W        W36992  34.173  36.836   1.666
70452W        W36993  31.228  21.265  14.534
70453W        W36994  31.507  12.401   0.446
70454W        W36995  24.191  42.987  12.019
70455W        W36996  26.137  20.288   3.722
70456W        W36997   3.584  40.395  10.802
70457W        W36998  28.395  44.737  14.861
70458W        W36999  34.473  23.115   1.072
70459W        W37000  43.455   4.388   3.452
70460W        W37001  31.965  29.059  12.405
70461W        W37002  40.983  35.662  14.119
70462W        W37003  28.587   2.004   3.372
70463W        W37004  15.754   7.317  11.543
70464W        W37005   0.461  23.498  10.750
70465W        W37006  43.429  36.810   2.433
70466W        W37007  18.458   6.449   1.757
70467W        W37008  10.090  26.159  11.112
70468W        W37009  38.845   0.203  13.644
70469W        W37010  44.811   1.750   2.747
70470W        W37011  32.054   1.043  14.673
70471W        W37012   1.503  22.134   4.696
70472W        W37013  34.427  18.837   0.182
70473W        W37014   0.882  12.252   2.976
70474W        W37015  27.085  33.997   0.280
70475W        W37016   3.884  28.250   1.253
70476W        W37017  12.836   8.118   3.838
70477W        W37018  27.042  10.786   2.658
70478W        W37019  23.683   1.486   0.526
70479W        W37020  12.350  30.613  11.936
70480W        W37021   1.450  33.858   3.306
70481W        W37022  20.131  40.504   2.256
70482W        W37023  25.708  15.114   1.514
70483W        W37024  40.495  15.468   5.460
70484W        W37025  39.907  13.066   3.090
70485W        W37026  25.155  32.449  10.707
70486W        W37027   8.141  22.641  12.493
70487W        W37028  44.971   1.714   1.852
70488W        W37029  14.279   9.838  10.651
70489W        W37030  38.630   7.556  12.088
70490W        W37031  36.827  39.561   3.007
70491W        W37032  36.342  28.693  14.443
70492W        W37033  16.473  20.078  12.749
70493W        W37034  44.336   0.705  10.243
70494W        W37035  24.225  21.755   1.806
70495W        W37036  34.894  38.905  13.139
70496W        W37037   1.837  22.179  12.501
70497W        W37038  22.684   3.528   3.076
70498W        W37039   4.745  13.284   4.190
70499W        W37040  38.311  37.274  14.658
70500W        W37041  34.579  23.684  12.520
70501W        W37042  30.814  20.556  12.042
70502W        W37043  32.905  21.099  14.037
70503W        W37044  16.879   3.873   4.286
70504W        W37045  23.209  14.104  11.094
70505W        W37046  32.951  43.514  14.920
70506W        W37047   3.328  39.568   4.545
70507W        W37048   0.308  42.030  13.389
70508W        W37049  20.889  42.783   2.283
70509W        W37050  18.486  43.138   0.815
70510W        W37051  38.432  39.863   1.808
70511W        W37052  40.282  25.676   3.205
70512W        W37053  28.667   9.156  11.070
70513W        W37054   3.942  11.126  13.740
70514W        W37055  44.524  13.965  10.072
70515W        W37056   0.370  41.408   3.768
70516W        W37057   2.252   5.951  14.388
70517W        W37058  17.207   1.921   2.850
70518W        W37059  22.005  26.338  12.959
70519W        W37060  34.506  12.301   4.693
70520W        W37061  24.656   4.857   2.633
70521W        W37062  13.293  37.366  14.770
70522W        W37063  34.003  26.125  14.895
70523W        W37064   1.424  28.443   4.978
70524W        W37065   1.763  21.089  13.767
70525W        W37066  11.311   1.366  13.034
70526W        W37067  23.136  14.630  10.990
70527W        W37068   3.885  31.244  14.937
70528W        W37069   1.346  16.797   3.248
70529W        W37070  43.217  10.435  12.772
70530W        W37071  18.762  34.848   3.216
70531W        W37072  32.039   2.268   5.085
70532W        W37073  38.091  15.196   3.843
70533W        W37074   4.274  20.247   0.314
70534W        W37075  33.029   6.831   0.682
70535W        W37076  40.423  14.066   3.626
70536W        W37077  17.307  35.915  10.747
70537W        W37078  17.700  38.830   2.306
70538W        W37079  11.072  38.017   1.668
70539W        W37080  13.132   9.151  12.400
70540W        W37081   4.466   1.512   1.620
70541W        W37082  23.247  21.762   0.720
70542W        W37083  17.522  11.091   4.831
70543W        W37084  21.459  10.893   2.796
70544W        W37085   4.790  37.571   1.648
70545W        W37086  12.674  38.221   4.117
70546W        W37087  18.927  20.186   3.376
70547W        W37088  31.886  19.223   3.910
70548W        W37089  27.460   3.918  12.514
70549W        W37090  35.587  20.984  14.819
70550W        W37091  22.663   6.332  11.177
70551W        W37092  23.714  37.770  13.126
70552W        W37093  27.974  43.365  14.507
70553W        W37094  30.702  32.866   3.196
70554W        W37095  22.621   6.552  10.710
70555W        W37096  28.716  25.235  11.925
70556W        W37097  31.405  15.339  10.850
70557W        W37098   6.870  15.973  11.171
70558W        W37099  17.313  28.704   0.497
70559W        W37100  17.619   4.692  10.759
70560W        W37101  12.299  12.824   1.989
70561W        W37102  41.509  26.982   4.683
70562W        W37103  30.973   4.724   2.842
70563W        W37104  26.893  22.668  12.494
70564W        W37105  36.077  18.691   2.368
70565W        W37106  44.841  33.602   0.524
70566W        W37107  31.634  41.223  14.972
70567W        W37108  13.983  27.121  12.938
70568W        W37109   7.168  23.797  14.967
70569W        W37110  11.939  34.412   1.229
70570W        W37111  43.142  42.495  11.942
70571W        W37112  20.991  16.542  12.947
70572W        W37113  23.200  13.240  10.723
70573W        W37114   3.786  13.671  14.425
70574W        W37115  17.006  39.865   2.007
70575W        W37116   0.401  35.451   3.768
70576W        W37117   7.854  21.326  13.450
70577W        W37118  43.302  15.491   2.339
70578W        W37119  14.824  29.090  12.900
70579W        W37120  15.346   8.715  13.621
70580W        W37121  19.537  35.001   4.041
70581W        W37122  21.498  23.060  12.682
70582W        W37123  14.336   1.991   1.363
70583W        W37124  10.123  26.577  13.539
70584W        W37125  35.496  13.204  11.225
70585W        W37126  44.956  23.983   2.495
70586W        W37127   6.185   8.816   1.283
70587W        W37128  15.854   5.851   2.399
70588W        W37129   8.315  26.411  12.904
70589W        W37130   4.867  41.347   2.608
70590W        W37131  14.242  32.542  11.819
70591W        W37132  16.837  27.858   3.226
70592W        W37133  44.337   8.561  14.230
70593W        W37134  24.019   8.267  10.861
70594W        W37135  35.004  26.774   3.371
70595W        W37136  24.676  39.951  12.614
70596W        W37137   8.644  11.126  13.051
70597W        W37138   6.240  16.306  13.357
70598W        W37139  31.156  19.319   0.807
70599W        W37140  22.567  30.048  13.833
70600W        W37141  24.047  13.278  14.482
70601W        W37142   7.470   0.369  14.808
70602W        W37143   2.476   9.201  13.906
70603W        W37144   8.184  21.703  13.562
70604W        W37145   8.888   4.355  12.089
70605W        W37146  40.509  10.550  14.243
70606W        W37147  20.830  27.302   1.322
70607W        W37148  17.014  44.866  12.592
70608W        W37149  14.300  28.062   0.990
70609W        W37150  29.735  41.487   0.748
70610W        W37151  28.145  21.082  12.087
70611W        W37152  10.218  17.605   3.733
70612W        W37153  25.414  12.635   0.806
70613W        W37154  34.054  24.494  12.140
70614W        W37155  19.178  35.281  11.598
70615W        W37156  25.331  28.086   4.902
70616W        W37157  10.817  19.274  14.574
70617W        W37158   2.799  16.151   1.327
70618W        W37159  28.673  28.617  14.509
70619W        W37160  21.182  44.475  13.771
70620W        W37161  30.240  17.542  11.551
70621W        W37162  25.167  32.581  12.906
70622W        W37163  44.373  37.353  11.173
70623W        W37164  35.357  31.373  14.345
70624W        W37165  37.432   8.376  11.443
70625W        W37166  27.672  35.205   2.252
70626W        W37167   9.154  41.882   5.073
70627W        W37168  28.596   4.904  11.353
70628W        W37169  18.981  34.939   2.719
70629W        W37170  19.451  33.905   0.410
70630W        W37171  30.059  21.031   3.140
70631W        W37172   6.631  39.273  12.215
70632W        W37173  38.029   1.881   2.870
70633W        W37174  43.933   0.433   3.736
70634W        W37175   6.153   3.496  13.794
70635W        W37176  14.822  12.056  10.087
70636W        W37177  30.101  41.781   0.939
70637W        W37178  31.186  36.079   3.720
70638W        W37179  44.302   0.977   4.713
70639W        W37180   8.927   3.198  12.963
70640W        W37181  38.526  31.640  11.838
70641W        W37182   7.840  32.577   3.550
70642W        W37183  13.238  35.443   4.584
70643W        W37184  44.825  30.631  12.417
70644W        W37185  12.210  13.944   3.591
70645W        W37186  18.304  31.558   2.941
70646W        W37187  12.877  26.048   0.192
70647W        W37188   9.395   1.989  11.255
70648W        W37189  32.399  16.103  10.707
70649W        W37190  41.324  40.479   0.131
70650W        W37191  42.478   9.362  13.418
70651W        W37192  28.079  13.715  14.026
70652W        W37193  33.586  21.795  13.113
70653W        W37194  31.117  15.540  10.196
70654W        W37195  34.619   7.809  14.306
70655W        W37196  38.126  13.040  14.564
70656W        W37197  32.914  27.402   3.289
70657W        W37198  11.284   4.714  12.628
70658W        W37199  39.938  25.788  14.753
70659W        W37200  10.128  25.224   4.531
70660W        W37201  20.791  29.923  10.589
70661W        W37202   0.060   0.216  13.561
70662W        W37203   5.799  39.775   5.437
70663W        W37204   7.182  40.279  14.024
70664W        W37205  44.845  19.759   2.774
70665W        W37206  35.303   6.408  12.016
70666W        W37207   9.661  38.850   1.203
70667W        W37208  23.801  12.603   2.671
70668W        W37209  38.805  38.387  12.419
70669W        W37210  14.312  15.097   2.386
70670W        W37211  32.532  11.390   0.883
70671W        W37212  34.248  25.285   1.917
70672W        W37213  24.584   9.953  14.411
70673W        W37214  29.688  31.134  13.329
70674W        W37215  36.340   1.924   9.847
70675W        W37216  34.942  38.855   1.724
70676W        W37217  22.443  38.821  13.724
70677W        W37218  36.635  42.381   3.716
70678W        W37219  11.739  16.725   2.030
70679W        W37220  27.594  42.737  11.443
70680W        W37221  23.055  39.752  14.312
70681W        W37222  21.006   0.682  14.503
70682W        W37223  27.231  21.182   1.724
70683W        W37224  13.151  42.385  12.935
70684W        W37225  26.260  29.571   3.485
70685W        W37226  33.984  32.982   4.607
70686W        W37227  36.315  41.167  11.557
70687W        W37228  33.665  18.622   3.229
70688W        W37229  24.553  38.387   0.415
70689W        W37230   3.454  44.899  13.243
70690W        W37231  27.993   2.950   2.758
70691W        W37232  31.519  32.211  11.913
70692W        W37233  34.162   3.898  12.077
70693W        W37234  25.165   5.570   1.229
70694W        W37235  41.581  22.203   3.265
70695W        W37236  44.141  11.726  12.242
70696W        W37237  27.574   2.164  11.077
70697W        W37238  38.964  12.860  10.654
70698W        W37239  41.973  12.925  14.963
70699W        W37240  18.849  30.002   3.827
70700W        W37241  41.491  41.908   3.418
70701W        W37242  29.560  21.161  12.353
70702W        W37243  20.222   7.759   3.610
70703W        W37244   2.844  34.797  14.306
70704W        W37245   0.432  22.212  12.873
70705W        W37246  36.565  40.498  10.487
70706W        W37247  34.080  32.136   0.215
70707W        W37248  25.229  36.676  12.631
70708W        W37249  16.562  15.787   1.407
70709W        W37250  13.308  36.827  11.563
70710W        W37251  37.244  16.077   0.857
70711W        W37252  35.568  36.873   1.784
70712W        W37253  40.785  32.046  14.263
70713W        W37254  39.755  44.470   3.358
70714W        W37255  21.470  16.609   4.660
70715W        W37256  40.792  39.360   2.253
70716W        W37257  10.788  13.332  13.106
70717W        W37258  18.068  37.519   4.170
70718W        W37259  24.186  39.652  11.827
70719W        W37260  11.201  42.745  12.234
70720W        W37261  38.915  10.841  11.584
70721W        W37262  36.964   2.306  10.179
70722W        W37263  24.121   4.765  13.367
70723W        W37264   8.692  40.377   2.089
70724W        W37265   1.217  42.585  10.545
70725W        W37266  41.487  22.282   0.778
70726W        W37267  42.821  36.551   0.871
70727W        W37268  14.098  11.730  10.582
70728W        W37269   4.410   0.800  12.433
70729W        W37270   4.256  26.169   3.155
70730W        W37271  43.507  40.957   0.438
70731W        W37272  41.548  14.832   3.946
70732W        W37273  18.311  13.607   1.378
70733W        W37274   8.199  15.844  10.784
70734W        W37275  36.841  13.706  13.519
70735W        W37276   2.427  14.514   4.225
70736W        W37277   9.741  23.597  10.945
70737W        W37278  42.045  32.887  14.481
70738W        W37279   4.881  41.589  13.433
70739W        W37280  36.846  13.400   3.698
70740W        W37281  18.808  36.814  12.174
70741W        W37282  15.658  20.954  14.053
70742W        W37283  43.364  44.743  13.943
70743W        W37284  21.993  38.203  13.284
70744W        W37285  20.085  22.408  10.273
70745W        W37286  43.540  18.085   0.921
70746W        W37287  24.579  37.572   1.466
70747W        W37288   0.266  31.576  12.499
70748W        W37289  21.033  39.527  10.688
70749W        W37290  23.450   3.268  13.146
70750W        W37291  44.354   0.771   3.679
70751W        W37292  29.269  40.030  13.469
70752W        W37293  34.749  12.919  10.363
70753W        W37294   9.761   5.922  12.437
70754W        W37295  25.633  16.275  11.138
70755W        W37296  13.632   8.828  11.992
70756W        W37297  13.519  20.164  14.902
70757W        W37298   7.246  13.813   2.439
70758W        W37299  16.320  20.483  13.015
70759W        W37300  15.642   4.300   0.812
70760W        W37301  27.164  28.488  14.176
70761W        W37302  29.364  20.532   1.041
70762W        W37303   5.302  24.268   1.724
70763W        W37304   6.939  24.279  10.723
70764W        W37305  29.307  26.666  13.037
70765W        W37306   6.125   3.586  10.272
70766W        W37307   5.399  43.913   2.339
70767W        W37308  30.659  21.031  11.635
70768W        W37309  30.781  17.562  10.495
70769W        W37310  40.599  13.846   0.341
70770W        W37311  17.354   7.722   2.345
70771W        W37312  18.547  22.729  10.728
70772W        W37313  25.272  12.739  11.540
70773W        W37314  28.381  14.370   4.107
70774W        W37315  13.021  30.196  11.512
70775W        W37316  22.262  44.216  10.477
70776W        W37317  11.620  21.425   4.338
70777W        W37318   8.940  31.538   1.905
70778W        W37319  40.821  17.042  13.152
70779W        W37320  44.154  21.977   0.373
70780W        W37321   0.915  44.334  13.320
70781W        W37322  21.589  15.350   0.863
70782W        W37323   6.429   1.236  14.819
70783W        W37324  22.816  44.523   3.284
70784W        W37325  17.702   2.228   3.558
70785W        W37326  10.775  11.392   1.219
70786W        W37327  42.745  36.599   1.757
70787W        W37328  17.286  37.741  14.405
70788W        W37329  35.451  18.047  13.829
70789W        W37330  40.977  31.724   3.245
70790W        W37331   9.878  27.114   2.318
70791W        W37332  44.370  36.860   4.623
70792W        W37333  40.592  40.863   3.260
70793W        W37334  23.159   0.943  14.751
70794W        W37335   7.690  18.584  11.858
70795W        W37336  12.303  30.869   0.233
70796W        W37337  12.890   5.515  14.048
70797W        W37338  18.593  33.002  10.036
70798W        W37339   4.828  19.233  10.487
70799W        W37340   6.315  19.420   3.378
70800W        W37341  40.817  40.394   0.336
70801W        W37342  29.029   9.972  11.102
70802W        W37343  15.517   8.399  14.418
70803W        W37344  27.195  10.694  10.559
70804W        W37345  31.561  19.055  13.822
70805W        W37346  29.358  11.706  13.791
70806W        W37347  10.121  26.570  14.456
70807W        W37348  21.054  36.885   0.242
70808W        W37349  12.152  28.085  10.710
70809W        W37350  40.914  15.924   2.088
70810W        W37351  21.690  21.803  12.051
70811W        W37352  27.616  14.387  12.636
70812W        W37353  27.199   5.932   2.639
70813W        W37354  31.417  40.863  10.728
70814W        W37355  28.185  22.625   2.746
70815W        W37356   2.297   5.463  12.494
70816W        W37357  37.503  12.312  13.636
70817W        W37358   2.714  25.941   3.137
70818W        W37359  28.429  31.119   4.111
70819W        W37360  41.963  20.700  10.620
70820W        W37361  26.464   6.436   2.360
70821W        W37362  19.983  44.815  13.887
70822W        W37363  35.982   9.510   2.028
70823W        W37364  25.121  41.060   1.292
70824W        W37365   4.287  17.027  14.734
70825W        W37366  32.229  18.573   5.076
70826W        W37367  21.090  39.061   3.120
70827W        W37368  11.194   4.385  10.659
70828W        W37369  25.820  28.978   0.983
70829W        W37370  17.509  30.237  12.520
70830W        W37371  31.315  20.058   4.224
70831W        W37372  30.588   1.230   0.519
70832W        W37373  16.581  39.021  14.425
70833W        W37374   9.230   9.220   3.849
70834W        W37375  38.307   8.418  12.085
70835W        W37376  32.909  28.495   4.087
70836W        W37377  17.247  21.914   0.751
70837W        W37378   9.255   2.705   0.254
70838W        W37379  12.588  28.032   1.144
70839W        W37380  10.253  39.009   0.798
70840W        W37381  26.463  34.641  14.871
70841W        W37382  35.946   0.188   1.905
70842W        W37383  31.882  25.557   2.734
70843W        W37384  15.110  40.996  14.847
70844W        W37385  33.380  16.701   3.309
70845W        W37386  14.399   8.588  11.519
70846W        W37387  27.180  22.497  11.517
70847W        W37388   1.475   9.193   0.836
70848W        W37389  26.389  27.755  10.595
70849W        W37390  38.272   1.881  13.401
70850W        W37391  23.057  37.581  11.941
70851W        W37392  36.909  32.727   0.782
70852W        W37393   5.464  22.556   1.510
70853W        W37394  15.056  11.355  14.505
70854W        W37395   0.713   5.872  11.221
70855W        W37396  31.631  33.799  11.063
70856W        W37397  43.279  42.908  11.632
70857W        W37398  31.012  16.866   3.693
70858W        W37399  22.537   4.909  11.127
70859W        W37400  18.293  37.077   2.338
70860W        W37401  32.113  41.827   4.531
70861W        W37402  22.421  22.812   1.284
70862W        W37403  20.483  22.946   0.303
70863W        W37404  32.045  32.693   4.615
70864W        W37405  21.437  43.365   0.786
70865W        W37406  34.063  25.154   4.579
70866W        W37407  15.059  26.888   3.661
70867W        W37408  14.746  40.885  12.339
70868W        W37409  38.808  27.917  12.870
70869W        W37410  32.558  19.527   4.166
70870W        W37411  15.980  21.005   1.495
70871W        W37412  21.364  33.860  13.529
70872W        W37413  35.812  24.162   1.259
70873W        W37414  27.269   0.385  11.217
70874W        W37415  37.298  27.058   1.511
70875W        W37416  31.403  23.390   0.412
70876W        W37417  22.485  20.557   2.100
70877W        W37418  22.948  25.640   2.395
70878W        W37419   2.500  11.747  11.967
70879W        W37420   0.125  10.650   1.320
70880W        W37421   7.682  42.907  14.540
70881W        W37422  22.949  26.527   4.144
70882W        W37423   7.530  35.987  10.950
70883W        W37424  29.423  42.774  13.350
70884W        W37425  24.111  25.727   1.860
70885W        W37426  40.955  26.046   1.131
70886W        W37427   1.477  18.948  11.026
70887W        W37428  15.234  22.232  11.803
70888W        W37429   1.687  27.923   0.405
70889W        W37430  25.601  41.410  14.094
70890W        W37431   6.000   6.417  14.719
70891W        W37432  35.450   4.996  14.873
70892W        W37433  34.943  22.638   2.711
70893W        W37434  29.759  42.302  14.948
70894W        W37435  24.614  32.191  14.476
70895W        W37436  42.820  38.096   4.158
70896W        W37437  21.607  23.544   4.126
70897W        W37438  19.491  36.876   1.847
70898W        W37439   0.803   2.333   0.797
70899W        W37440  32.899  18.875   1.599
70900W        W37441  13.065  21.222   3.234
70901W        W37442  39.535  32.387  14.494
70902W        W37443   3.384  33.505  13.945
70903W        W37444  30.236   5.424  12.624
70904W        W37445  24.286  43.990  14.937
70905W        W37446   6.110  12.774  12.143
70906W        W37447  18.615  10.363   1.317
70907W        W37448  34.047   0.909   1.508
70908W        W37449  44.553   6.361  10.314
70909W        W37450  41.567  36.787  11.705
70910W        W37451   2.693  20.058  11.565
70911W        W37452  37.987  35.883   2.888
70912W        W37453  33.068   4.383  10.767
70913W        W37454  41.802  40.431   1.427
70914W        W37455   3.303   7.206   3.686
70915W        W37456   7.217  19.486   3.278
70916W        W37457  34.611  30.451  11.095
70917W        W37458  36.087  25.497   4.142
70918W        W37459  39.654  11.683  13.310
70919W        W37460   8.210  12.650   3.108
70920W        W37461  29.142  23.737   4.592
70921W        W37462  20.955  41.943   4.153
70922W        W37463  11.647   0.739  13.421
70923W        W37464  17.236  27.150   0.250
70924W        W37465  31.705  16.864   4.781
70925W        W37466   1.874   9.759   1.323
70926W        W37467  25.110  29.369   0.274
70927W        W37468  14.365  32.320  12.289
70928W        W37469   7.322   4.937  14.006
70929W        W37470  20.198  19.207  12.047
70930W        W37471  26.435  37.010   1.708
70931W        W37472   2.898   2.378  12.889
70932W        W37473  12.028   0.255   4.258
70933W        W37474  16.595  29.576   2.772
70934W        W37475  20.264  27.428   4.046
70935W        W37476  14.434  16.883  12.549
70936W        W37477  11.421  29.651   0.945
70937W        W37478  25.046  42.629  11.171
70938W        W37479  40.447  13.185   4.031
70939W        W37480  24.256  39.483   2.318
70940W        W37481  23.181  20.496  13.967
70941W        W37482   3.377  29.055  11.085
70942W        W37483  39.393  40.111   1.642
70943W        W37484   8.136  27.664  14.376
70944W        W37485  23.803   7.834  14.688
70945W        W37486   2.977  11.782  14.761
70946W        W37487  29.148  34.365   1.192
70947W        W37488  36.668  11.303   1.755
70948W        W37489  21.666  20.487  14.066
70949W        W37490  21.647   7.401  11.981
70950W        W37491  12.435  31.148  10.653
70951W        W37492   1.494   3.258   3.637
70952W        W37493   2.899  11.140  11.627
70953W        W37494   0.980  20.757  11.457
70954W        W37495  27.637  19.616   3.841
70955W        W37496  36.525  42.034   0.195
70956W        W37497  27.775  39.347   3.473
70957W        W37498  18.141  20.970   2.392
70958W        W37499  33.414  29.428  12.135
70959W        W37500  39.965  38.834   2.623
70960W        W37501  18.294  24.296   3.114
70961W        W37502  30.947  22.443  10.262
70962W        W37503  16.269  43.233   0.313
70963W        W37504  25.156  32.694   4.590
70964W        W37505  11.874  38.923  13.673
70965W        W37506  30.082  40.423   0.732
70966W        W37507  21.020   9.513   3.562
70967W        W37508  30.569  32.285   4.243
70968W        W37509  21.796  29.202  13.977
70969W        W37510  24.717  11.600  11.561
70970W        W37511   1.546   2.365  12.207
70971W        W37512  16.056   6.830  14.359
70972W        W37513  36.143  17.637   2.605
70973W        W37514  16.545   7.615   0.470
70974W        W37515  41.856  22.862   1.629
70975W        W37516   0.583  38.837   1.202
70976W        W37517  44.765  12.433  11.171
70977W        W37518   6.245  32.124   4.961
70978W        W37519  34.470  29.987   4.283
70979W        W37520   8.812   3.877  10.810
70980W        W37521   6.651  42.430   1.888
70981W        W37522   9.396  31.805   1.812
70982W        W37523  12.149  42.262   0.730
70983W        W37524  34.871  19.724   0.391
70984W        W37525  24.573  23.779   4.089
70985W        W37526  27.491  20.029  11.715
70986W        W37527  13.967   0.297  10.420
70987W        W37528  31.564  19.823   4.616
70988W        W37529   4.707  30.943  14.862
70989W        W37530  43.826  27.498  12.019
70990W        W37531  20.652  37.998   4.430
70991W        W37532  16.205  29.028  13.575
70992W        W37533   1.720  35.500   4.602
70993W        W37534  22.959  17.499   1.086
70994W        W37535  22.007  35.616  12.564
70995W        W37536  39.566   1.114   3.451
70996W        W37537  23.813   8.750   2.209
70997W        W37538  43.220   9.200  12.132
70998W        W37539   4.315  28.059  14.243
70999W        W37540   4.630  23.343   2.329
71000W        W37541  34.570  10.056  12.669
71001W        W37542   5.591  42.451  11.446
71002W        W37543   3.822  27.226   1.879
71003W        W37544  10.695  42.785  12.071
71004W        W37545  34.310  33.931   1.731
71005W        W37546  42.800  16.394   2.166
71006W        W37547  25.911  29.414   3.086
71007W        W37548  23.297  31.519   1.772
71008W        W37549  23.181  15.895  11.791
71009W        W37550   5.259  34.021   4.610
71010W        W37551  31.488  30.917   3.668
71011W        W37552  34.961   4.874   4.652
71012W        W37553  44.532  10.598   1.687
71013W        W37554  17.754   8.783  11.299
71014W        W37555  15.678  27.493  14.390
71015W        W37556   6.537  25.156  14.860
71016W        W37557  17.494  41.643   4.119
71017W        W37558  23.508  43.284   1.653
71018W        W37559  17.026  28.083   2.785
71019W        W37560  10.868  22.573   3.352
71020W        W37561   3.445  17.045   4.103
71021W        W37562   0.789   9.154   1.111
71022W        W37563   5.394   0.174   0.301
71023W        W37564  38.890  15.321   4.931
71024W        W37565  44.797   0.921  10.442
71025W        W37566  43.364  29.035   2.019
71026W        W37567  16.979  22.252   4.122
71027W        W37568  27.528  43.711  12.596
71028W        W37569  14.017  20.187   2.676
71029W        W37570   1.382  37.937   4.504
71030W        W37571   6.922   3.273   2.812
71031W        W37572   8.213  13.614   2.727
71032W        W37573   8.229   0.931  11.924
71033W        W37574  43.814  31.094  11.610
71034W        W37575  37.655  30.005   3.714
71035W        W37576  27.036  23.491  11.337
71036W        W37577  10.405  39.416  12.722
71037W        W37578   2.055  44.302  10.535
71038W        W37579  32.153  35.513  14.339
71039W        W37580  24.868  19.742  12.297
71040W        W37581  27.698  20.738  10.701
71041W        W37582   8.111  42.919   3.644
71042W        W37583   8.679  26.239  10.809
71043W        W37584  36.361   8.819  12.703
71044W        W37585  24.110  32.165   1.906
71045W        W37586  38.900  15.384  10.609
71046W        W37587  10.313   4.382   1.019
71047W        W37588  37.846  26.625  12.259
71048W        W37589  40.947  44.757  10.980
71049W        W37590   9.947  44.638   4.401
71050W        W37591   7.920  29.454  14.531
71051W        W37592  28.334   8.232   1.835
71052W        W37593   0.900  16.177   1.998
71053W        W37594  30.429  43.590  14.862
71054W        W37595  12.088  15.978   1.176
71055W        W37596   2.681   4.303  12.934
71056W        W37597  32.420  10.470   3.182
71057W        W37598   5.383  22.531   4.329
71058W        W37599  11.950  11.951  11.529
71059W        W37600  15.226   5.283   2.670
71060W        W37601   2.903   8.439  12.048
71061W        W37602  37.345  25.170   4.394
71062W        W37603   3.395  33.745   0.798
71063W        W37604   9.578  42.499  12.009
71064W        W37605  22.580  40.715   0.573
71065W        W37606  36.441  27.637  10.724
71066W        W37607  39.906  41.518   1.925
71067W        W37608  15.905  43.082  13.073
71068W        W37609  29.006  30.409   0.932
71069W        W37610  20.735  24.969   4.844
71070W        W37611  25.585   6.140   1.947
71071W        W37612  22.049  43.267  14.370
71072W        W37613  32.156  29.538   2.244
71073W        W37614  13.763   4.241  14.536
71074W        W37615  34.123  26.698  13.865
71075W        W37616  33.537   6.724   2.042
71076W        W37617  37.451   4.142   1.975
71077W        W37618  15.756  13.132  10.718
71078W        W37619  30.781  24.663   1.356
71079W        W37620   4.435  38.830   0.314
71080W        W37621  15.025  42.049  14.883
71081W        W37622   5.729  28.762   4.146
71082W        W37623   7.434  24.779   3.960
71083W        W37624  10.734  11.690   3.709
71084W        W37625   2.677  44.652  12.901
71085W        W37626   4.864  38.100  10.230
71086W        W37627  18.755  11.760  13.268
71087W        W37628  19.115  13.846   0.408
71088W        W37629  43.856  35.462  13.398
71089W        W37630  23.649   1.189   2.815
71090W        W37631  21.197   3.149   3.191
71091W        W37632  14.802  11.245   3.634
71092W        W37633  37.942  36.148   0.370
71093W        W37634  23.960   2.339  11.000
71094W        W37635  31.932   3.411   1.945
71095W        W37636  35.327  33.574  11.014
71096W        W37637   5.312  24.666  13.737
71097W        W37638   4.950  16.749  10.610
71098W        W37639   4.275  27.584  10.908
71099W        W37640  43.376  24.205  14.368
71100W        W37641  40.311  17.115   0.961
71101W        W37642  34.606  10.321  10.536
71102W        W37643  23.288  42.872   4.203
71103W        W37644  19.095  19.297  13.975
71104W        W37645  41.138  32.051  10.259
71105W        W37646  13.780  20.293   3.126
71106W        W37647  30.142  12.808  12.034
71107W        W37648  40.961  30.548   4.691
71108W        W37649  35.565  15.568  14.507
71109W        W37650  28.649  33.544   2.685
71110W        W37651  16.183  10.869  11.714
71111W        W37652  14.185  29.344   3.171
71112W        W37653  37.272   0.157   1.813
71113W        W37654   7.365  43.885  11.663
71114W        W37655  26.900  20.784   1.819
71115W        W37656  28.982   3.680   4.052
71116W        W37657  38.048  28.710   0.273
71117W        W37658  30.341  19.720   4.160
71118W        W37659   6.038  28.525   1.752
71119W        W37660  12.918  24.193   1.636
71120W        W37661   4.320  24.560   4.580
71121W        W37662  21.612  14.803   0.891
71122W        W37663  23.117  38.303  14.298
71123W        W37664   1.104  20.094   1.318
71124W        W37665  22.428  21.740   1.826
71125W        W37666  29.035  12.854   3.585
71126W        W37667  11.925  24.223   1.852
71127W        W37668   7.954   4.836   4.133
71128W        W37669  17.668  40.264  11.273
71129W        W37670  16.846  42.328   0.053
71130W        W37671  13.766  19.782  11.195
71131W        W37672  30.613  34.935  13.812
71132W        W37673  28.116  32.933  13.887
71133W        W37674  41.322  33.392  14.545
71134W        W37675  40.422  26.887   4.643
71135W        W37676   3.656  11.478  13.495
71136W        W37677   8.225  28.621  11.679
71137W        W37678  37.101   1.337   4.096
71138W        W37679   0.342   7.191   1.877
71139W        W37680  22.782  34.409  11.287
71140W        W37681   0.353  39.461  13.506
71141W        W37682  28.422  24.057   0.336
71142W        W37683  15.664   9.672   2.912
71143W        W37684   5.582  38.426   5.388
71144W        W37685  33.593   5.891  14.395
71145W        W37686  10.351  32.885   2.553
71146W        W37687  43.650  15.105   2.302
71147W        W37688  28.138  26.132   0.482
71148W        W37689   5.257  39.436   4.544
71149W        W37690  33.545  30.526   3.231
71150W        W37691   1.329  24.205   4.983
71151W        W37692  30.128  20.925  12.499
71152W        W37693  44.199  19.078   1.712
71153W        W37694  37.953   0.385  12.153
71154W        W37695  32.135  23.125  14.786
71155W        W37696  10.819  40.021   9.818
71156W        W37697  38.057  29.417  10.707
71157W        W37698   4.677  24.556  12.349
71158W        W37699  11.391  32.937  13.916
71159W        W37700  24.006  25.501  13.073
71160W        W37701  20.461  12.116   2.695
71161W        W37702  44.260   7.975   2.692
71162W        W37703  35.356   5.746   4.200
71163W        W37704  18.728   6.736   4.301
71164W        W37705   3.766  22.516  10.684
71165W        W37706  16.644  17.342  12.913
71166W        W37707  14.660  38.648   3.219
71167W        W37708   5.905  22.336   3.461
71168W        W37709  35.144   1.234   2.292
71169W        W37710  37.370   9.685   4.324
71170W        W37711  21.248   0.361   2.766
71171W        W37712  24.650   7.025  11.065
71172W        W37713  24.670  15.218  14.775
71173W        W37714   7.241  21.634   1.096
71174W        W37715  15.410  17.958  11.015
71175W        W37716  33.821  44.841  12.604
71176W        W37717  29.755  31.160  14.231
71177W        W37718  17.024  12.787   0.828
71178W        W37719  26.546  21.570   1.673
71179W        W37720  36.074  32.081  13.401
71180W        W37721  19.079  13.108  10.275
71181W        W37722  31.391  27.245  12.447
71182W        W37723  24.743  27.744  14.450
71183W        W37724  11.257  26.387   2.258
71184W        W37725  11.126   6.666   0.325
71185W        W37726   0.334   1.518   3.295
71186W        W37727  13.829   7.778   4.511
71187W        W37728  43.424  24.987   4.670
71188W        W37729  22.711  27.955  14.108
71189W        W37730  42.739  22.600   1.070
71190W        W37731  25.881  44.649   4.118
71191W        W37732  32.423  32.132  13.086
71192W        W37733  44.466  23.746   2.897
71193W        W37734   4.863  33.399  11.066
71194W        W37735  43.748  12.865  13.919
71195W        W37736  12.031  17.816  12.502
71196W        W37737  26.546  39.202   0.102
71197W        W37738  38.862  38.825  11.079
71198W        W37739  11.947   9.312  12.895
71199W        W37740  44.742  41.107   1.243
71200W        W37741  31.589  11.319   3.162
71201W        W37742  34.266  37.823  12.354
71202W        W37743  34.420  29.619  14.904
71203W        W37744  13.206  18.084  13.751
71204W        W37745   5.197   1.210  13.910
71205W        W37746  27.712  18.089  13.882
71206W        W37747  21.809  28.027  12.590
71207W        W37748   0.319  31.640  11.619
71208W        W37749  43.920  39.329   3.070
71209W        W37750  34.532  32.656  12.435
71210W        W37751   0.299   8.144  12.476
71211W        W37752   2.068   3.691  12.673
71212W        W37753  15.805  25.055  10.384
71213W        W37754  18.143  29.066  10.784
71214W        W37755   0.889   8.089  13.716
71215W        W37756  17.779  13.584  13.971
71216W        W37757  40.853  29.563  10.706
71217W        W37758  43.329  19.798  14.313
71218W        W37759  12.062  10.098  13.750
71219W        W37760  10.163   3.263  14.496
71220W        W37761   3.770  30.156   0.365
71221W        W37762  37.864  43.796   4.000
71222W        W37763  23.533  28.050   2.356
71223W        W37764  10.855  18.537  12.542
71224W        W37765  31.095  29.393  11.015
71225W        W37766  15.331  14.531  14.130
71226W        W37767   5.284  12.129   2.789
71227W        W37768  23.065  42.007   4.759
71228W        W37769   5.786   1.727  12.004
71229W        W37770   0.309  20.923   4.911
71230W        W37771  22.733  41.053   2.677
71231W        W37772  16.264  42.232  13.915
71232W        W37773  18.278  24.163   4.735
71233W        W37774  16.767   8.384  14.996
71234W        W37775  13.338   3.125  12.996
71235W        W37776  31.226  23.040   1.387
71236W        W37777   7.278  37.611   0.931
71237W        W37778  12.455  10.854  14.530
71238W        W37779  32.514  20.205   3.353
71239W        W37780   8.216  31.568   4.121
71240W        W37781  27.305  21.756  13.488
71241W        W37782  30.453  42.987   3.676
71242W        W37783  24.560  21.127  11.135
71243W        W37784  44.775  39.724   2.825
71244W        W37785  20.787  42.801   3.152
71245W        W37786   1.271  27.972  14.501
71246W        W37787  28.126   8.206  11.454
71247W        W37788  14.872  13.813   1.914
71248W        W37789  18.726   5.165  11.925
71249W        W37790  32.591  18.567   3.174
71250W        W37791  21.508  10.133   0.032
71251W        W37792   6.253  37.737   0.385
71252W        W37793  21.809  36.822  12.749
71253W        W37794  16.691  23.304   1.771
71254W        W37795   2.766   1.417   0.413
71255W        W37796  21.182  14.822   0.256
71256W        W37797  28.027   9.897   2.708
71257W        W37798  22.491  17.702  12.096
71258W        W37799  21.143  32.397  14.298
71259W        W37800  11.132  20.965  12.025
71260W        W37801  42.547  43.624  11.679
71261W        W37802   9.159  12.332   2.855
71262W        W37803  32.444  38.646  11.714
71263W        W37804  32.861  41.427   0.338
71264W        W37805  30.886  42.249  10.453
71265W        W37806  13.427  42.552   0.335
71266W        W37807  39.838  19.796  13.580
71267W        W37808  13.951  42.346  14.029
71268W        W37809   9.777  26.244   3.408
71269W        W37810  14.885  40.958  11.835
71270W        W37811   4.784   9.687   1.500
71271W        W37812  38.552  16.717   1.708
71272W        W37813  37.437  17.326   0.384
71273W        W37814  25.071  20.620  10.465
71274W        W37815  41.880  19.140   2.023
71275W        W37816  15.102  10.074   1.939
71276W        W37817  33.368  11.609   3.429
71277W        W37818  39.889  40.970   0.705
71278W        W37819  22.052  16.204  11.464
71279W        W37820  42.088  19.953   3.394
71280W        W37821  41.450   2.712  11.599
71281W        W37822  15.573  17.970  11.534
71282W        W37823  23.482  17.734  12.040
71283W        W37824  20.030  42.733  14.317
71284W        W37825   9.987   8.676  12.055
71285W        W37826   6.269  38.930   1.209
71286W        W37827   5.776  44.787  12.616
71287W        W37828   5.439  19.739   3.511
71288W        W37829  32.200  18.738   0.396
71289W        W37830  44.921  39.936   1.260
71290W        W37831   6.477  28.096   3.149
71291W        W37832  17.898  34.592   0.305
71292W        W37833  31.218   3.050  13.415
71293W        W37834  43.545   9.283  11.739
71294W        W37835   9.446  15.839  12.765
71295W        W37836   7.968   1.865   3.915
71296W        W37837  31.056  13.929   5.720
71297W        W37838  44.474  39.858   2.059
71298W        W37839   5.773  10.835   1.429
71299W        W37840  16.251  36.959   2.177
71300W        W37841   9.602   0.591   4.527
71301W        W37842  28.017  29.790   4.031
71302W        W37843  25.143  43.128   2.585
71303W        W37844   0.471   8.644   3.605
71304W        W37845  11.065  21.184  10.690
71305W        W37846  40.996  15.407  12.458
71306W        W37847  30.215  33.450   3.674
71307W        W37848  19.545  28.663   1.222
71308W        W37849  31.675  19.124  14.933
71309W        W37850  44.319  29.178   3.058
71310W        W37851  32.290  44.216   1.101
71311W        W37852   4.790  27.962   2.711
71312W        W37853  31.941   7.516   3.223
71313W        W37854  24.072  42.592  14.277
71314W        W37855  25.468  31.407  12.478
71315W        W37856   2.258   0.420   3.690
71316W        W37857  30.799  32.610  13.841
71317W        W37858  26.243   9.852  11.417
71318W        W37859  14.792  12.783   2.712
71319W        W37860  29.232  27.372  11.179
71320W        W37861  11.784  11.858  14.959
71321W        W37862  10.176  39.400  13.379
71322W        W37863  17.900  34.363   2.859
71323W        W37864  33.277  41.305  14.433
71324W        W37865  18.682   0.138  12.004
71325W        W37866  44.403  15.028   4.858
71326W        W37867  43.005  16.784  14.754
71327W        W37868  35.118   4.982  10.593
71328W        W37869  36.406  22.687   4.087
71329W        W37870   1.214  17.466  14.281
71330W        W37871   7.831   4.963  10.919
71331W        W37872   3.165  15.305  10.324
71332W        W37873  25.412  26.917   4.791
71333W        W37874   0.873  35.088   2.675
71334W        W37875  11.922  30.448   0.307
71335W        W37876   5.243  36.047  11.558
71336ION    NA+37877  22.034  39.074  12.891
71337ION    NA+37878  13.040  11.148   4.091
71338ION    NA+37879  38.333  42.057  14.846
71339ION    NA+37880  34.748  32.121  13.949
71340ION    NA+37881  38.785  20.468   2.693
71341ION    NA+37882  44.225   3.909   4.990
71342ION    NA+37883  31.020   9.449  13.924
71343ION    NA+37884  32.016   0.852  11.032
71344ION    NA+37885  38.485  31.419   4.728
71345ION    NA+37886  42.030   0.255   4.190
71346ION    NA+37887  18.820  23.369  11.909
71347ION    NA+37888  13.311  22.324  13.246
71348ION    NA+37889  18.031  42.753  11.086
71349ION    NA+37890  15.563  22.053  14.858
71350ION    NA+37891  40.960   6.224   3.400
71351ION    NA+37892   8.939  31.546  14.897
71352ION    NA+37893  32.308  35.855   2.031
71353ION    NA+37894   6.427  33.721   4.440
71354ION    NA+37895  12.730  20.657  14.585
71355ION    NA+37896  43.020  34.123   2.342
71356ION    NA+37897  16.837   9.129   0.558
71357ION    NA+37898   8.859   1.989  14.264
71358ION    NA+37899   4.315  14.169   4.424
71359ION    NA+37900  11.776  43.495   4.316
71360ION    NA+37901  34.430  43.348   2.464
71361ION    NA+37902  18.970  29.701   0.364
71362ION    NA+37903  33.483  28.119   1.657
71363ION    NA+37904  12.343  17.653  13.922
71364ION    NA+37905  42.450  23.095   3.123
71365ION    NA+37906  34.404  40.426   1.220
71366ION    NA+37907  40.662  24.410  11.076
71367ION    NA+37908  29.532   0.680  14.897
71368ION    NA+37909  10.205  12.701   9.806
71369ION    NA+37910  39.837   2.284  11.191
71370ION    NA+37911  30.895   2.479  14.783
71371ION    NA+37912  37.304  42.137   3.321
71372ION    NA+37913   4.700   6.583   1.366
71373ION    NA+37914  29.911  14.538  12.970
71374ION    NA+37915  23.485  39.827  10.764
71375ION    NA+37916   0.044  30.974   2.610
71376ION    NA+37917  30.614  38.561   0.937
71377ION    NA+37918  25.165  20.662   1.356
71378ION    NA+37919  17.433  39.869   4.106
71379ION    NA+37920  41.261  16.233  12.933
71380ION    NA+37921  44.442  25.227   1.246
71381ION    NA+37922  44.147  44.468  10.777
71382ION    NA+37923  40.118  35.907  12.378
71383ION    NA+37924   6.566  34.847   1.298
71384ION    NA+37925   7.686  21.615  13.845
71385ION    NA+37926  41.889  17.426   4.311
71386ION    NA+37927  15.068   3.917   3.305
71387ION    NA+37928  42.856  23.202  12.427
71388ION    NA+37929  27.577  23.302  11.677
71389ION    NA+37930   1.821   1.454   0.201
71390ION    NA+37931  28.474  24.776  14.983
71391ION    NA+37932  28.028  32.777  10.818
71392ION    NA+37933  36.987   5.974   0.851
71393ION    NA+37934  42.917   6.312   2.210
71394ION    NA+37935  38.896   0.858   9.624
71395ION    NA+37936  31.628  43.761  13.530
71396ION    NA+37937  21.670  44.803   2.413
71397ION    NA+37938  15.841  29.149   2.937
71398ION    NA+37939  44.079  13.637  12.312
71399ION    NA+37940  38.230  24.593   2.977
71400ION    NA+37941  19.463  29.560  14.404
71401ION    NA+37942  13.480   4.292  11.390
71402ION    NA+37943  23.100  36.223  11.765
71403ION    NA+37944  30.005  36.998  11.624
71404ION    NA+37945  19.577  18.703   0.118
71405ION    NA+37946   4.667  24.501  14.256
71406ION    NA+37947  39.028   4.952  11.354
71407ION    NA+37948  10.753  11.898  10.915
71408ION    NA+37949   8.232   3.599  14.574
71409ION    NA+37950  42.454  32.096  10.794
71410ION    NA+37951  19.076  26.971  14.406
71411ION    NA+37952  26.082  31.904   4.149
71412ION    NA+37953  36.014  43.428   4.409
71413ION    NA+37954   9.075   2.829   4.700
71414ION    NA+37955  32.493  22.225  12.649
71415ION    NA+37956  37.609   7.852  13.370
71416ION    NA+37957  15.629  12.594   0.440
71417ION    NA+37958  44.076  26.151   3.057
71418ION    NA+37959  22.967  28.779   1.315
71419ION    NA+37960  35.453  35.740  11.389
71420ION    NA+37961   1.360   9.806   1.541
71421ION    NA+37962  15.533  44.076  14.301
71422ION    NA+37963  20.428  22.961   3.338
71423ION    NA+37964  36.403  41.874   0.758
71424ION    NA+37965  31.015  40.190  14.053
71425ION    NA+37966  16.306  14.029   1.463
71426ION    NA+37967  13.106  12.741  11.775
71427ION    NA+37968  26.169  20.935   0.273
71428ION    NA+37969  27.483   2.493  14.353
71429ION    NA+37970  40.987   7.600   4.648
71430ION    NA+37971  38.449  20.685   0.135
71431ION    NA+37972  14.365  44.974   1.783
71432ION    NA+37973  44.081  39.369   5.520
71433ION    NA+37974   5.964   6.956  13.847
71434ION    NA+37975  26.315   2.223  14.682
71435ION    NA+37976  40.604  36.291   0.628
71436ION    NA+37977  44.785  21.809  12.677
71437ION    NA+37978  17.952  26.528   4.974
71438ION    NA+37979  43.260  39.304  12.698
71439ION    NA+37980  14.395   1.690   4.122
71440ION    NA+37981  20.691  15.382  12.336
71441ION    NA+37982  16.857  16.964   0.700
71442ION    NA+37983  38.582  22.138   3.409
71443ION    NA+37984  21.891  39.901  11.352
71444ION    NA+37985  13.689  16.398  12.788
71445ION    NA+37986  41.495   2.051  12.953
71446ION    NA+37987  29.709  12.302  13.587
71447ION    NA+37988  36.433  44.503   4.147
71448ION    NA+37989  24.652   4.180   3.795
71449ION    NA+37990  29.507  11.354  11.207
71450ION    NA+37991  44.864  10.928   2.827
71451ION    NA+37992  18.048   6.911  13.312
71452ION    NA+37993  19.125  39.379   2.703
71453ION    NA+37994  41.490   6.267  11.567
71454ION    NA+37995   8.829  37.333  12.884
71455ION    NA+37996   6.639  18.623   0.099
71456ION    NA+37997  11.715  12.882   0.368
71457ION    NA+37998  14.761  18.034  12.618
71458ION    NA+37999  10.675   2.406  11.736
71459ION    NA+38000  26.500  15.170   4.127
71460ION    NA+38001  19.938  16.324   5.470
71461ION    NA+38002  22.657  35.626   0.610
71462ION    NA+38003  14.198  40.502  12.446
71463ION    NA+38004  26.854  36.909  13.968
71464ION    NA+38005  21.382  22.698   4.712
71465ION    NA+38006  41.387  44.777   3.780
71466ION    NA+38007   4.706  11.724  12.355
71467ION    NA+38008  37.177  39.256   4.185
71468ION    NA+38009  41.342   4.788  14.489
71469ION    NA+38010  27.723   9.378   1.617
71470ION    NA+38011  25.053  39.011  10.263
71471ION    NA+38012  34.767  26.859  12.203
71472ION    NA+38013  31.835  40.375   2.610
71473ION    NA+38014  43.113  40.022   1.294
71474ION    NA+38015  37.071   1.844   4.050
71475ION    NA+38016   0.816  25.014   0.064
71476ION    NA+38017  35.460  34.147   2.345
71477ION    NA+38018   1.158  27.050   2.531
71478ION    NA+38019  36.094  29.159   0.312
71479ION    NA+38020  33.123   4.279  14.700
71480ION    NA+38021  18.803   8.408   1.702
71481ION    NA+38022  36.866  44.957  13.410
71482ION    NA+38023  28.005   0.422   2.214
71483ION    NA+38024  25.330  35.579   4.410
71484ION    NA+38025  34.337  44.467  10.681
71485ION    NA+38026  29.145  24.516   1.402
71486ION    NA+38027  15.295  36.636   2.815
71487ION    NA+38028  24.810  28.981   1.051
71488ION    NA+38029  34.387  35.435  12.578
71489ION    NA+38030   2.644  13.211  13.884
71490ION    NA+38031  14.345  34.812   3.126
71491ION    NA+38032  14.274   4.237   2.089
71492ION    NA+38033  25.649   9.974  11.675
71493ION    NA+38034   3.795  26.333   1.480
71494ION    NA+38035   4.205   3.689   4.585
71495ION    NA+38036  25.453  35.053  11.818
71496ION    NA+38037   2.001   3.332   3.650
71497ION    NA+38038  26.567   6.131   1.921
71498ION    NA+38039  22.944  21.634   4.605
71499ION    NA+38040  41.966  26.056   2.912
71500ION    NA+38041   2.305  43.954   2.458
71501ION    NA+38042   1.945  33.097   0.846
71502ION    NA+38043  18.287  41.528   0.770
71503ION    NA+38044  33.303   1.794   0.327
71504ION    NA+38045  19.274  14.819  12.952
71505ION    NA+38046  44.529  33.434  11.517
71506ION    NA+38047  16.330  20.664   1.371
71507ION    NA+38048  22.242  22.388  14.885
71508ION    NA+38049  44.368   3.756   1.613
71509ION    NA+38050  15.739  10.760   4.800
71510ION    NA+38051  33.194  40.891  11.551
71511ION    NA+38052  32.591   9.893  13.051
71512ION    NA+38053  19.861  36.936   4.091
71513ION    NA+38054  13.078  31.979   1.450
71514ION    NA+38055  13.143  36.096  13.940
71515ION    NA+38056  42.027  10.415  11.944
71516ION    NA+38057  43.537  32.774   0.808
71517ION    NA+38058   9.179  24.586   1.214
71518ION    NA+38059   1.656   2.644  12.648
71519ION    NA+38060  30.097   6.388  14.066
71520ION    NA+38061  23.898  34.447  14.253
71521ION    NA+38062  26.761   1.184   4.049
71522ION    NA+38063  28.754  37.031  12.767
71523ION    NA+38064  19.106  28.342   1.915
71524ION    NA+38065   8.622  39.899   2.305
71525ION    NA+38066   7.345  16.026   2.192
71526ION    NA+38067  26.674  12.454   2.110
71527ION    NA+38068  12.610  12.989  14.625
71528ION    NA+38069   1.962  11.867  11.933
71529ION    NA+38070  30.378  24.710  12.431
71530ION    NA+38071  20.917  28.163  14.632
71531ION    NA+38072   2.234  29.106   4.907
71532ION    NA+38073   4.208  38.599   2.122
71533ION    NA+38074   8.431  10.131  14.172
71534ION    NA+38075   3.898  35.121   2.777
71535ION    NA+38076  30.391  42.744   2.053
71536ION    NA+38077   5.327   6.921  12.985
71537ION    NA+38078  26.224  40.798   3.463
71538ION    NA+38079  33.057  24.913  13.911
71539ION    NA+38080  33.117  17.265   4.365
71540ION    NA+38081  11.111  10.565   0.231
71541ION    NA+38082   7.964   1.641   1.578
71542ION    NA+38083  14.636  10.278   4.244
71543ION    NA+38084  22.105  19.798   2.637
71544ION    NA+38085  30.213  25.261  13.095
71545ION    NA+38086   0.230  35.350  12.289
71546ION    NA+38087   5.235  29.566   3.640
71547ION    NA+38088  30.850  16.010  13.325
71548ION    NA+38089  40.273  14.751   2.054
71549ION    NA+38090  34.724  14.101   4.055
71550ION    NA+38091  37.427  26.055  13.193
71551ION    NA+38092  31.237   7.157   4.658
71552ION    NA+38093  22.959   4.887  13.757
71553ION    NA+38094  44.840  35.055  14.904
71554ION    NA+38095  21.598  34.409   3.573
71555ION    NA+38096  40.029  25.048  11.844
71556ION    NA+38097  23.051  31.115   4.586
71557ION    NA+38098  28.445  14.084   3.650
71558ION    NA+38099   3.201  18.307  14.775
71559ION    NA+38100  32.810   7.081   1.083
71560ION    NA+38101  19.568  29.122  10.983
71561ION    NA+38102  43.929   9.381  13.189
71562ION    NA+38103  29.790  43.110  11.812
71563ION    NA+38104   5.447  11.003   4.550
71564ION    NA+38105   7.749  22.998  12.558
71565ION    NA+38106  40.835  38.529   3.377
71566ION    NA+38107  44.418  42.606  13.340
71567ION    NA+38108  30.557  30.811  10.349
71568ION    NA+38109  32.009   4.172  14.035
71569ION    NA+38110   5.939  34.720   2.260
71570ION    NA+38111  25.223  23.515  11.640
71571ION    NA+38112  38.179   5.927  14.644
71572ION    NA+38113  43.878  23.230  12.550
71573ION    NA+38114   4.069  34.150   2.563
71574ION    NA+38115  15.019   3.135   4.128
71575ION    NA+38116  44.579  21.579  14.918
71576ION    NA+38117   4.831  25.463  12.091
71577ION    NA+38118  14.985  32.262  13.690
71578ION    NA+38119  12.425  32.439   0.848
71579ION    NA+38120   7.197  33.351  11.250
71580ION    NA+38121  23.113  32.887   0.880
71581ION    NA+38122   7.387   1.072  14.301
71582ION    NA+38123  39.775  29.745   4.216
71583ION    NA+38124  12.990  23.046  11.128
71584ION    NA+38125  26.706  30.784  14.584
71585ION    NA+38126  32.193  34.961  11.484
71586ION    NA+38127   7.316  40.628   4.702
71587ION    NA+38128  42.620  43.239   5.069
71588ION    NA+38129  16.323  18.548  13.878
71589ION    NA+38130  36.111  33.072   4.205
71590ION    NA+38131   4.319  13.267   3.898
71591ION    NA+38132  20.749  42.431  11.486
71592ION    NA+38133  14.399  35.102   1.556
71593ION    NA+38134  20.162  41.737  11.902
71594ION    NA+38135   0.397  34.511  11.232
71595ION    NA+38136  19.448  32.103   4.129
71596ION    NA+38137   5.527   9.560  11.443
71597ION    NA+38138  14.242   9.097  11.606
71598ION    NA+38139  42.388   5.694   4.551
71599ION    NA+38140   9.648  44.776   1.708
71600ION    NA+38141  44.034   6.935   1.581
71601ION    NA+38142  42.076  14.215  14.772
71602ION    NA+38143  14.496  14.379  11.741
71603ION    NA+38144   5.825  10.276  11.782
71604ION    NA+38145   7.237  36.508   4.023
71605ION    NA+38146   8.327   5.511  13.358
71606ION    NA+38147  35.543  31.679   0.924
71607ION    NA+38148  12.220  13.817  14.526
71608ION    NA+38149  20.923  27.789   1.526
71609ION    NA+38150   7.513  26.379   2.777
71610ION    NA+38151  43.771  21.019  14.733
71611ION    NA+38152  34.348  32.599  11.950
71612ION    NA+38153  13.537  24.662  12.524
71613ION    NA+38154  18.815  21.836  11.568
71614ION    NA+38155  29.083   7.309  13.253
71615ION    NA+38156  16.554  21.709  12.452
71616ION    NA+38157  44.998   4.734  13.400
71617ION    NA+38158  40.334  23.067  14.065
71618ION    NA+38159  15.838  15.284   0.466
71619ION    NA+38160  41.527  22.146  11.898
71620ION    NA+38161  15.619  15.296  12.579
71621ION    NA+38162  23.510  41.015   3.093
71622ION    NA+38163  13.539  14.110  11.585
71623ION    NA+38164  36.485  26.327   3.458
71624ION    NA+38165  10.328  13.357  12.338
71625ION    NA+38166  34.706   0.205   1.349
71626ION    NA+38167  23.526  30.431   0.284
71627ION    NA+38168   6.029  18.635   3.781
71628ION    NA+38169  44.037  15.062  11.652
71629ION    NA+38170  15.615  35.020  14.505
71630ION    NA+38171  33.661  28.282  14.508
71631ION    NA+38172   8.141  25.927   1.446
71632ION    NA+38173  22.302   8.486  12.953
71633ION    NA+38174  30.381  13.200   2.597
71634ION    NA+38175  22.239   6.445   0.423
71635ION    NA+38176   7.464  32.129   0.911
71636ION    NA+38177  35.187  30.290   3.439
71637ION    NA+38178  21.694  35.457   1.353
71638ION    NA+38179  14.809  41.930  10.876
71639ION    NA+38180  37.462  23.034  11.334
71640ION    NA+38181  12.737  20.590  12.411
71641ION    NA+38182  40.485  24.868   0.767
71642ION    NA+38183  29.027  28.383   2.412
71643ION    NA+38184   2.786  23.131  13.373
71644ION    NA+38185  32.718  20.058  12.453
71645ION    NA+38186  18.090  40.017   1.968
71646ION    NA+38187  29.889   6.049   3.623
71647ION    NA+38188  36.948  41.560  13.131
71648ION    NA+38189  36.431  10.478   0.573
71649ION    NA+38190  18.653  41.488  14.404
71650ION    NA+38191   4.001   8.297   3.643
71651ION    NA+38192  35.491  42.353  12.013
71652ION    NA+38193  42.754  18.134   2.169
71653ION    NA+38194   4.387  28.999   1.241
71654ION    NA+38195   6.847   2.021   3.457
71655ION    NA+38196   2.213  36.851  13.802
71656ION    NA+38197   5.264  27.179  14.465
71657ION    NA+38198  37.803  41.324  10.696
71658ION    NA+38199  19.525  44.485   3.588
71659ION    NA+38200  36.957   3.251  13.644
71660ION    NA+38201  14.876  18.942   4.417
71661ION    NA+38202  13.047   2.541  11.872
71662ION    NA+38203   2.008  43.092   3.465
71663ION    NA+38204  25.277  24.467  13.394
71664ION    NA+38205  13.385  10.987  12.566
71665ION    NA+38206  10.471  26.531   5.158
71666ION    NA+38207  42.722  28.321  11.221
71667ION    NA+38208  23.554  25.943   5.125
71668ION    NA+38209  14.370  31.877   1.835
71669ION    NA+38210  34.635   5.989   1.727
71670ION    NA+38211  42.004  23.341  11.409
71671ION    NA+38212  10.949  13.634   3.642
71672ION    NA+38213   2.298   4.324   0.332
71673ION    NA+38214   4.797  31.061   0.394
71674ION    NA+38215   9.846  30.752  13.669
71675ION    NA+38216  22.186   5.720  13.295
71676ION    NA+38217  42.008   7.510   3.288
71677ION    NA+38218  10.113  13.871   3.147
71678ION    NA+38219   9.601  33.214  14.348
71679ION    NA+38220  29.640  34.974   4.302
71680ION    NA+38221  26.538  17.961   0.088
71681ION    NA+38222  32.023  14.822   1.269
71682ION    NA+38223   8.846   4.869  10.503
71683ION    NA+38224  26.282  26.415  13.685
71684ION    NA+38225  21.617  30.168  12.963
71685ION    NA+38226   5.607  22.387   3.874
71686ION    NA+38227  32.981  18.068  14.308
71687ION    NA+38228  31.616  39.589   4.139
71688ION    NA+38229  38.876  41.305   0.115
71689ION    NA+38230  34.167  14.928   4.129
71690ION    NA+38231  20.134  16.181  11.378
71691ION    NA+38232  14.892  42.064   3.180
71692ION    NA+38233  31.662  29.240  12.819
71693ION    NA+38234  17.586  10.420   0.773
71694ION    NA+38235  17.261  43.773   1.243
71695ION    NA+38236  38.309  40.393   1.381
71696ION    NA+38237  17.390   9.332  12.996
71697ION    NA+38238  19.976  44.328  11.932
71698ION    NA+38239  33.732   5.794   2.109
71699ION    NA+38240  20.661  22.868  14.302
71700ION    NA+38241  38.541  42.688  10.653
71701ION    NA+38242  16.351  23.492   3.116
71702ION    NA+38243   8.466  16.700  14.334
71703ION    NA+38244  18.120  21.083   1.883
71704ION    NA+38245  20.182   5.244   1.233
71705ION    NA+38246   1.003  43.371   0.276
71706ION    NA+38247   6.339  34.858  12.368
71707ION    NA+38248   4.822   4.317   5.371
71708ION    NA+38249   7.008   3.024  13.355
71709ION    NA+38250  35.603  17.943  12.793
71710ION    NA+38251  19.870  40.300  11.842
71711ION    NA+38252   3.497  22.644   1.777
71712ION    NA+38253  23.768  18.754  11.606
71713ION    NA+38254  28.672  16.246  12.167
71714ION    NA+38255  36.815  36.048  10.795
71715ION    NA+38256  28.524  18.953  14.481
71716ION    NA+38257   6.450  21.877  10.075
71717ION    NA+38258   6.141  13.670  12.020
71718ION    NA+38259  30.968   8.139  11.146
71719ION    NA+38260  15.438  17.127  14.597
71720ION    NA+38261  15.589   0.320   0.159
71721ION    NA+38262  17.519  34.853  13.858
71722ION    NA+38263   1.397  43.677   1.147
71723ION    NA+38264  14.137   0.200   3.172
71724ION    NA+38265   6.672  43.473  11.883
71725ION    NA+38266  34.542   8.686  12.036
71726ION    NA+38267  11.871  30.665   5.322
71727ION    NA+38268  21.885  26.504   3.606
71728ION    NA+38269   0.482  21.178  10.322
71729ION    NA+38270  35.335   0.569  11.764
71730ION    NA+38271  39.340  32.855   4.090
71731ION    NA+38272   1.389  14.590   4.240
71732ION    NA+38273  31.103   0.202   4.090
71733ION    NA+38274  26.602  33.161  10.740
71734ION    NA+38275  20.481  37.719   4.027
71735ION    NA+38276  20.131  33.546   3.419
71736ION    NA+38277  22.474  12.284  11.055
71737ION    NA+38278  29.810  23.929   3.232
71738ION    NA+38279  40.634  23.325  14.984
71739ION    NA+38280  18.086  42.415   4.684
71740ION    NA+38281  14.145  12.418  11.097
71741ION    NA+38282  21.218   7.466   3.631
71742ION    NA+38283  31.749   6.517   3.274
71743ION    NA+38284  19.482  32.925   2.871
71744ION    NA+38285   3.602  28.977  10.621
71745ION    NA+38286  10.767  23.791   0.232
71746ION    NA+38287  23.458  32.568  12.649
71747ION    NA+38288  16.381  24.094   3.667
71748ION    NA+38289  22.110  22.045  10.962
71749ION    NA+38290   2.393  42.237   1.391
71750ION    NA+38291  39.140  32.320  11.263
71751ION    NA+38292   5.729   3.215   0.478
71752ION    NA+38293  27.882  44.327   0.581
71753ION    NA+38294  15.916  14.348  12.466
71754ION    NA+38295  26.580  39.006   0.553
71755ION    NA+38296  32.387  15.485  11.233
71756ION    NA+38297  26.115  29.893   3.096
71757ION    NA+38298  30.682  21.113   0.811
71758ION    NA+38299  42.713  10.453  10.284
71759ION    NA+38300  40.162   7.753   4.373
71760ION    NA+38301   4.396   9.042  13.007
71761ION    NA+38302  39.141  42.478   1.820
71762ION    NA+38303  11.109  23.405  12.236
71763ION    NA+38304  40.714   0.201  11.120
71764ION    NA+38305  12.040  22.616   0.934
71765ION    NA+38306  28.119  21.895   3.473
71766ION    NA+38307   3.220  43.213  10.972
71767ION    NA+38308  35.608  35.773   4.193
71768ION    NA+38309  16.546  10.177   0.365
71769ION    NA+38310  34.821  22.676   3.242
71770ION    NA+38311  30.117   4.384  12.049
71771ION    NA+38312   4.578   8.073  12.835
71772ION    NA+38313  33.500  41.866  11.567
71773ION    NA+38314  10.082   1.505  14.915
71774ION    NA+38315  28.903  16.832  12.711
71775ION    NA+38316  19.133  16.087   2.862
71776ION    NA+38317  13.210  32.408  13.298
71777ION    NA+38318  42.796  24.102  14.425
71778ION    NA+38319  15.712  24.992  14.052
71779ION    NA+38320   5.617  32.257  13.483
71780ION    NA+38321  15.581  31.983  12.937
71781ION    NA+38322  19.814  14.930  10.235
71782ION    NA+38323  16.723  15.065  14.481
71783ION    NA+38324  28.729  25.972  13.848
71784ION    NA+38325  37.820  21.206   3.716
71785ION    NA+38326  28.194  15.699  10.630
71786ION    NA+38327  20.793  16.195  14.356
71787ION    NA+38328  27.648   9.567   2.501
71788ION    NA+38329   4.942  43.977   2.687
71789ION    NA+38330  43.204  16.168   0.754
71790ION    NA+38331  20.634   0.914  13.527
71791ION    NA+38332  11.629  34.011  11.579
71792ION    NA+38333  37.297  31.969   1.847
71793ION    NA+38334   9.695  41.714  12.436
71794ION    NA+38335  15.585  25.165  11.870
71795ION    NA+38336  10.036  20.361   4.137
71796ION    NA+38337   4.482  28.464  10.789
71797ION    NA+38338  31.448  16.217  10.624
71798ION    NA+38339   6.771  30.891   1.921
71799ION    NA+38340  30.659  20.139  12.559
71800ION    NA+38341  32.308  16.771  11.617
71801ION    NA+38342  30.991  25.578  13.809
71802ION    NA+38343  29.176   9.271  11.618
71803ION    NA+38344  17.766  44.029   2.615
71804ION    NA+38345  35.077  18.273  11.653
71805ION    NA+38346   8.904  37.903   3.553
71806ION    NA+38347  10.844  25.554  12.918
71807ION    NA+38348  10.202  31.858  11.937
71808ION    NA+38349  37.100   1.232   1.484
71809ION    NA+38350  37.524  11.610   2.049
71810ION    NA+38351  34.488  27.341   2.066
71811ION    NA+38352  20.000   0.479   1.795
71812ION    NA+38353   4.247  10.245   1.172
71813ION    NA+38354  39.561  42.629  14.834
71814ION    NA+38355  24.703   0.993   4.892
71815ION    NA+38356  10.851  38.163   2.708
71816ION    NA+38357  32.112  25.932   3.622
71817ION    NA+38358  43.160  42.225  13.604
71818ION    NA+38359   7.060  42.904  10.788
71819ION    NA+38360   1.640   6.903  12.082
71820ION    NA+38361  28.508  18.647  11.350
71821ION    NA+38362  26.912  13.781  14.542
71822ION    NA+38363  37.397  10.202  13.001
71823ION    NA+38364  36.810  17.042  11.588
71824ION    NA+38365  19.724  32.157  11.564
71825ION    NA+38366  26.969  40.189  11.526
71826ION    NA+38367  20.197  11.861   1.243
71827ION    NA+38368  13.384   5.477  14.145
71828ION    NA+38369   3.375  16.533   4.329
71829ION    NA+38370   3.036  42.205   3.712
71830ION    NA+38371  25.413   3.848  12.996
71831ION    NA+38372  26.668  16.192  11.087
71832ION    NA+38373  32.170  43.073   0.388
71833ION    NA+38374  23.039  21.765  10.718
71834ION    NA+38375  40.510  32.696   2.059
71835ION    NA+38376  41.866  19.090   2.544
71836ION    NA+38377  11.890   5.351   4.529
71837ION    NA+38378   4.306  33.317   3.063
71838ION    NA+38379  37.253  22.848  12.310
71839ION    NA+38380   5.585  33.849   1.920
71840ION    NA+38381   0.828  17.727  11.486
71841ION    NA+38382  24.920  25.542   0.409
71842ION    NA+38383  13.146  19.345  13.902
71843ION    NA+38384   2.388   7.354  10.736
71844ION    NA+38385  23.679  11.080   3.710
71845ION    NA+38386  19.334  25.049   4.009
71846ION    NA+38387  41.758  29.203   5.218
71847ION    NA+38388  35.533  42.540   9.896
71848ION    NA+38389  37.693  27.312   1.300
71849ION    NA+38390  15.843  42.209  13.238
71850ION    NA+38391  11.207  19.794  10.590
71851ION    NA+38392  30.427  32.023  12.975
71852ION    NA+38393  35.823  32.711  11.049
71853ION    NA+38394   1.826  31.068  14.353
71854ION    NA+38395  44.745  16.669  10.772
71855ION    NA+38396  33.818  37.151   5.168
71856ION    NA+38397   9.795  34.450  12.704
71857ION    NA+38398  35.840  13.722   3.852
71858ION    NA+38399  18.339  32.144  14.321
71859ION    NA+38400   9.180  21.905   3.224
71860ION    NA+38401   9.989  36.653   0.407
71861ION    NA+38402  14.069  38.010   4.015
71862ION    NA+38403  39.359   8.076   4.106
71863ION    NA+38404  13.220   5.043   0.031
71864ION    NA+38405   7.233  44.327  13.466
71865ION    NA+38406  43.468  22.020  11.391
71866ION    NA+38407  10.203  20.037   1.408
71867ION    NA+38408  34.104  29.235   1.777
71868ION    NA+38409  24.447  29.162  10.681
71869ION    NA+38410  25.024  35.868  12.681
71870ION    NA+38411  30.143  18.569  14.337
71871ION    NA+38412  11.918  12.461  13.733
71872ION    NA+38413   0.079   5.594   2.555
71873ION    NA+38414   7.231  29.384  14.713
71874ION    NA+38415   8.717  12.817  11.342
71875ION    NA+38416   7.540  11.355  13.570
71876ION    NA+38417  33.378  43.830  13.842
71877ION    NA+38418  22.699  10.251   1.512
71878ION    NA+38419  16.247  42.555  12.507
71879ION    NA+38420  15.136   1.416  14.280
71880ION    NA+38421   7.360  34.409  14.836
71881ION    NA+38422  30.432  19.990   1.978
71882ION    NA+38423  20.637  29.427  10.741
71883ION    NA+38424  39.458   4.083  10.918
71884ION    NA+38425  12.731  11.739   3.479
71885ION    NA+38426  37.987  44.436  12.531
71886ION    NA+38427  42.495   8.922   3.317
71887ION    NA+38428  13.055   2.194   1.111
71888ION    NA+38429  30.897   8.400  14.829
71889ION    NA+38430  38.328  12.505  14.656
71890ION    NA+38431   1.315  30.070  13.312
71891ION    NA+38432  43.585  29.273   2.896
71892ION    NA+38433  13.232  43.987  10.610
71893ION    NA+38434  34.090  37.846   0.606
71894ION    NA+38435  29.897  21.379   5.115
71895ION    NA+38436  44.502   6.473   2.211
71896ION    NA+38437  33.024   0.701   1.722
71897ION    NA+38438  24.649  10.402   0.344
71898ION    NA+38439  40.846  24.735  14.082
71899ION    NA+38440  29.611  15.679  11.281
71900ION    NA+38441  13.854  38.770  12.583
71901ION    NA+38442  21.521   8.460   3.132
71902ION    NA+38443  22.441   7.257   1.333
71903ION    NA+38444  11.195  22.825  14.985
71904ION    NA+38445  26.521  31.648  14.745
71905ION    NA+38446  27.127  16.058  13.637
71906ION    NA+38447  30.364   8.714  11.421
71907ION    NA+38448  12.793  21.433   3.659
71908ION    NA+38449  17.001  17.530  12.562
71909ION    NA+38450  43.615   7.940  14.265
71910ION    NA+38451  16.848  19.076  12.049
71911ION    NA+38452  33.015  25.064  12.802
71912ION    NA+38453  10.487  11.875  11.758
71913ION    NA+38454   6.902   5.966   1.044
71914ION    NA+38455  18.165   3.941  10.632
71915ION    NA+38456  31.066   7.865   2.225
71916ION    NA+38457   4.430  25.874   0.347
71917ION    NA+38458   7.190  16.548   0.626
71918ION    NA+38459  25.057  34.633  14.946
71919ION    NA+38460   0.079  14.648  11.219
71920ION    NA+38461  24.268  34.924   4.251
71921ION    NA+38462   0.895  19.221   1.251
71922ION    NA+38463  30.105  15.205   1.728
71923ION    NA+38464  43.791  27.759  10.277
71924ION    NA+38465  14.239  26.286   4.439
71925ION    NA+38466  30.063   6.896   3.440
71926ION    NA+38467  24.233  23.953  12.919
71927ION    NA+38468  39.452  38.494   3.422
71928ION    NA+38469  35.445  20.947  11.042
71929ION    NA+38470  12.436   7.784  14.019
71930ION    NA+38471  11.495   5.015  12.245
71931ION    NA+38472   3.643  42.019   3.193
71932ION    NA+38473  40.230  17.465   2.452
71933ION    NA+38474  36.156  23.720   5.287
71934ION    NA+38475  39.507  16.106  14.412
71935ION    NA+38476   4.870  13.440  14.474
71936ION    NA+38477   9.905  43.161   4.975
71937ION    NA+38478  25.590  37.989  12.094
71938ION    NA+38479  35.553  35.030   4.563
71939ION    NA+38480  20.516  33.712  13.736
71940ION    NA+38481  30.036   1.966  14.775
71941ION    NA+38482   6.285  26.502  12.601
71942ION    NA+38483  31.183  39.294  13.994
71943ION    NA+38484   9.981  37.038  14.484
71944ION    NA+38485  27.857  17.575   0.129
71945ION    NA+38486   4.830  20.748   1.309
71946ION    NA+38487  23.635  40.733   0.039
71947ION    NA+38488  21.467  18.012   0.994
71948ION    NA+38489  36.086  23.082   0.877
71949ION    NA+38490  24.973  40.200  11.044
71950ION    NA+38491  36.055  24.956  14.091
71951ION    NA+38492  16.941  12.810   2.164
71952ION    NA+38493  36.122  28.223  11.839
71953ION    NA+38494  12.686  35.377   2.255
71954ION    NA+38495  42.424  33.811  11.737
71955ION    NA+38496  20.507   2.785   4.768
71956ION    NA+38497  23.768   9.612  13.493
71957ION    NA+38498   1.302  36.718  12.313
71958ION    NA+38499  32.747  18.839   0.427
71959ION    NA+38500  39.482  14.228  12.596
71960ION    NA+38501   4.299  17.371   4.130
71961ION    NA+38502  12.758   1.722  14.743
71962ION    NA+38503  32.978  15.091   1.399
71963ION    NA+38504   7.721  36.286   2.395
71964ION    NA+38505  44.643  41.750   2.702
71965ION    NA+38506  16.826   5.677  13.058
71966ION    NA+38507   6.901  44.938   0.185
71967ION    NA+38508   1.615  25.468   4.557
71968ION    NA+38509  28.201  11.391  11.211
71969ION    NA+38510  17.929  11.852   2.663
71970ION    NA+38511  37.348  38.033  14.183
71971ION    NA+38512  20.211   8.734   2.635
71972ION    NA+38513  30.975  18.558   3.080
71973ION    NA+38514  14.655  14.989   0.599
71974ION    NA+38515   7.399  21.929  10.631
71975ION    NA+38516  19.045  15.615   0.081
71976ION    NA+38517   4.720  11.622   5.224
71977ION    NA+38518  33.949  30.956  11.402
71978ION    NA+38519  43.433   7.063  14.388
71979ION    NA+38520  43.149   8.117   0.171
71980ION    NA+38521  35.530  10.854   5.085
71981ION    NA+38522   3.089   4.314   4.621
71982ION    NA+38523  20.702  41.983  14.225
71983ION    NA+38524  34.121  11.928  12.424
71984ION    NA+38525  13.870  38.175  14.482
71985ION    NA+38526  36.443  33.996  10.562
71986ION    NA+38527  16.792  35.037   3.740
71987ION    NA+38528  35.556  29.475  13.615
71988ION    NA+38529  37.351   0.567   1.040
71989ION    NA+38530  11.207   9.958   1.771
71990ION    NA+38531  44.815  35.602   1.751
71991ION    NA+38532  32.767  25.895  11.017
71992ION    NA+38533  44.263  10.424   1.288
71993ION    NA+38534  32.195  40.916  11.557
71994ION    NA+38535  40.403  20.777  10.630
71995ION    NA+38536  20.198  19.771   4.578
71996ION    NA+38537   8.319  10.772  13.339
71997ION    NA+38538  36.792  10.882  12.522
71998ION    NA+38539  27.415  41.586   3.041
71999ION    NA+38540  13.836  38.272  11.659
72000ION    NA+38541  25.586  34.576  11.070
72001ION    NA+38542  10.437  27.442   2.584
72002ION    NA+38543  41.372   3.364   3.090
72003ION    NA+38544  26.482   0.247   3.117
72004ION    NA+38545  21.859  15.173  11.460
72005ION    NA+38546  17.250   8.367  12.470
72006ION    NA+38547  31.051  36.698   4.526
72007ION    NA+38548   8.701  18.743   2.091
72008ION    NA+38549   4.327  21.620   2.441
72009ION    NA+38550  39.318  25.501   2.124
72010ION    NA+38551  17.242  13.316  13.147
72011ION    NA+38552   7.904   9.738   3.787
72012ION    NA+38553  28.324  17.358   0.837
72013ION    NA+38554  21.517  13.178   1.061
72014ION    NA+38555  32.300  43.063   9.716
72015ION    NA+38556   0.727  37.777  13.186
72016ION    NA+38557   0.010  41.095   3.566
72017ION    NA+38558  38.072  22.765   0.017
72018ION    NA+38559  14.072  13.415  11.103
72019ION    NA+38560  31.470  14.144   5.484
72020ION    NA+38561  25.970  18.890  11.889
72021ION    NA+38562  21.390  23.431  13.910
72022ION    NA+38563   9.398  22.768   3.943
72023ION    NA+38564  33.695  34.402  12.480
72024ION    NA+38565  26.379  21.292   4.028
72025ION    NA+38566  44.353  43.991   1.548
72026ION    NA+38567   4.781   7.901   4.126
72027ION    NA+38568  44.786  15.172   2.560
72028ION    NA+38569  39.592  25.718  11.590
72029ION    NA+38570   5.321  16.404  12.049
72030ION    NA+38571  12.761  16.596   0.730
72031ION    NA+38572  28.504  35.517  14.433
72032ION    NA+38573  28.616  18.621  10.212
72033ION    NA+38574  13.554   1.534   4.143
72034ION    NA+38575  19.640  38.300  11.512
72035ION    NA+38576  22.221   2.133   1.856
72036ION    NA+38577  20.159  23.276   2.165
72037ION    NA+38578  35.154   3.758   0.804
72038ION    NA+38579  27.400  38.702  12.542
72039ION    NA+38580  30.627  22.896  10.313
72040ION    NA+38581  44.496   1.722  11.000
72041ION    NA+38582  27.589   9.401  14.422
72042ION    NA+38583  38.840  17.750  14.881
72043ION    NA+38584   0.556   3.735   5.204
72044ION    NA+38585  11.614  14.625   3.152
72045ION    NA+38586  29.612  13.539  11.962
72046ION    NA+38587  44.825  15.489  10.740
72047ION    NA+38588  13.619  27.927  12.390
72048ION    NA+38589  33.838  23.546   2.326
72049ION    NA+38590   5.301  19.337  12.979
72050ION    NA+38591   7.899  15.062   1.394
72051ION    NA+38592  34.314  34.811   0.989
72052ION    NA+38593   4.376  41.329   0.202
72053ION    NA+38594  29.973  23.181   0.774
72054ION    NA+38595  34.799  31.522   0.274
72055ION    NA+38596  29.400  34.345   2.295
72056ION    NA+38597  17.284   5.928  14.814
72057ION    NA+38598  39.807  24.233   3.382
72058ION    NA+38599   1.507  27.509   4.408
72059ION    NA+38600  34.389  29.923   4.810
72060ION    NA+38601   5.170  15.722   3.642
72061ION    NA+38602  21.751  18.303   4.629
72062ION    NA+38603  15.337  39.964   0.798
72063ION    NA+38604  40.786  33.571  10.655
72064ION    NA+38605  35.856  11.680   1.921
72065ION    NA+38606   8.125  20.859   2.968
72066ION    NA+38607  35.598  36.765  12.168
72067ION    NA+38608  12.105  19.569  11.112
72068ION    NA+38609   9.070  15.501   2.463
72069ION    NA+38610  27.133  43.565   1.295
72070ION    NA+38611  31.926  35.144   1.577
72071ION    NA+38612  44.136  27.267  12.756
72072ION    NA+38613  28.894  24.463  13.153
72073ION    NA+38614  37.554  11.009   4.570
72074ION    NA+38615  10.612   3.369  11.300
72075ION    NA+38616  16.287  11.242   0.976
72076ION    NA+38617  33.915  24.531  13.472
72077ION    NA+38618  20.093  37.564  13.852
72078ION    NA+38619  12.042  32.151  12.687
72079ION    NA+38620  35.779  21.430   3.704
72080ION    NA+38621  21.523  29.077   9.846
72081ION    NA+38622  25.838   9.573  10.751
72082ION    NA+38623  11.881   8.090   3.369
72083ION    NA+38624  40.923  22.266   4.610
72084ION    NA+38625  26.455  19.670   2.348
72085ION    NA+38626   7.111   5.255  10.585
72086ION    NA+38627  20.957  35.933   3.129
72087ION    NA+38628  41.929   0.579  11.148
72088ION    NA+38629  37.448  31.404  11.026
72089ION    NA+38630  15.072  13.080   3.533
72090ION    NA+38631  19.712  22.396   1.671
72091ION    NA+38632  35.443  32.368  12.483
72092ION    NA+38633   7.092  15.302  14.396
72093ION    NA+38634  19.947  26.675   4.787
72094ION    NA+38635   6.778  19.811  14.107
72095ION    NA+38636  38.541  33.353  11.992
72096ION    NA+38637  16.998  20.585  13.824
72097ION    NA+38638  28.982  21.330  11.084
72098ION    NA+38639  33.593   5.727  10.225
72099ION    NA+38640  38.836   3.503   2.690
72100ION    NA+38641  15.623  41.953   1.335
72101ION    NA+38642  15.641  18.285   0.318
72102ION    NA+38643   1.044   9.605   2.468
72103ION    NA+38644  24.287  30.786  11.465
72104ION    NA+38645  23.713  41.289   4.286
72105ION    NA+38646  32.161  16.266   4.113
72106ION    NA+38647  15.203   2.334   2.071
72107ION    NA+38648  24.724  31.196   3.297
72108ION    NA+38649  19.580  36.181  11.245
72109ION    NA+38650  22.393   8.580   4.220
72110ION    NA+38651   6.867  23.118   2.708
72111ION    NA+38652  41.881   1.185   3.237
72112ION    NA+38653  34.909   3.553  11.688
72113ION    NA+38654  22.086   7.169  12.099
72114ION    NA+38655  25.415   7.909  12.635
72115ION    NA+38656  16.203  32.647   1.012
72116ION    NA+38657   2.086  39.292  14.570
72117ION    NA+38658  31.807   8.396  12.656
72118ION    NA+38659   7.388  37.187   4.742
72119ION    NA+38660  23.005  20.068   0.287
72120ION    NA+38661  25.452  30.878  11.021
72121ION    NA+38662  16.302  36.487   1.370
72122ION    NA+38663   3.262  31.385   1.581
72123ION    NA+38664  43.793  40.692   3.256
72124ION    NA+38665  17.520   7.208  11.608
72125ION    NA+38666   8.514  33.236   5.151
72126ION    NA+38667  33.745  10.360   3.587
72127ION    NA+38668  21.734  22.777   2.345
72128ION    NA+38669   9.648  36.903  12.505
72129ION    NA+38670  10.282  28.071  12.026
72130ION    NA+38671  17.732  30.995   3.345
72131ION    NA+38672  19.842  34.803   1.869
72132ION    NA+38673  37.579  32.509   4.230
72133ION    NA+38674  37.400   5.138  11.927
72134ION    NA+38675   0.582  43.464   1.688
72135ION    NA+38676  34.357  25.180  14.137
72136ION    NA+38677  18.664  26.716   1.791
72137ION    NA+38678  23.492  12.318  11.098
72138ION    NA+38679  37.881   5.244  13.468
72139ION    NA+38680   4.008  30.462   4.678
72140ION    NA+38681  31.702   7.780   0.809
72141ION    NA+38682  30.224  32.128  14.918
72142ION    NA+38683   6.808  15.719   4.092
72143ION    NA+38684  18.553  26.558  13.363
72144ION    NA+38685  26.924  14.527  13.874
72145ION    NA+38686  15.211   5.130   1.147
72146ION    NA+38687  25.102  37.617   2.878
72147ION    NA+38688   6.966   0.672  13.487
72148ION    NA+38689  35.885  31.384   4.217
72149ION    NA+38690   6.277  30.069  14.864
72150ION    NA+38691  20.436  38.552   1.470
72151ION    NA+38692   0.089   3.655  10.179
72152ION    NA+38693  38.415  39.517  10.912
72153ION    NA+38694   5.481   4.506   0.752
72154ION    NA+38695   4.332  29.075   3.803
72155ION    NA+38696  34.657  10.555   2.123
72156ION    NA+38697  39.331  40.460  13.187
72157ION    NA+38698   1.674  16.022   2.581
72158ION    NA+38699  36.008  14.178  13.533
72159ION    NA+38700  44.727  18.661   1.055
72160ION    NA+38701  27.022  22.459  12.013
72161ION    NA+38702  44.421  39.276  10.974
72162ION    NA+38703  14.775  36.813   4.129
72163ION    NA+38704  43.077  35.157   2.425
72164ION    NA+38705   5.535   0.679   1.184
72165ION    NA+38706  23.148  29.635   2.827
72166ION    NA+38707  15.925  42.420  14.290
72167ION    NA+38708   8.440  17.509   2.964
72168ION    NA+38709  17.776  21.075   3.576
72169ION    NA+38710  44.226   2.503   9.879
72170ION    NA+38711   8.028  41.974  10.480
72171ION    NA+38712  14.025   2.888   1.694
72172ION    NA+38713   0.608  33.675   1.019
72173ION    NA+38714  30.037  25.298   0.003
72174ION    NA+38715  18.066  21.907  10.909
72175ION    NA+38716  17.306  23.610   0.959
72176ION    NA+38717  31.111  34.709  12.607
72177ION    NA+38718  22.677  18.217  11.251
72178ION    NA+38719  12.299  36.791   3.219
72179ION    NA+38720  11.483   1.581  13.952
72180ION    NA+38721  39.502  39.326  14.896
72181ION    NA+38722  31.142  14.944  11.072
72182ION    NA+38723   3.459   5.848  11.569
72183ION    NA+38724  25.658   6.846   1.508
72184ION    NA+38725  28.536  11.871   1.266
72185ION    NA+38726  22.985   6.933   5.325
72186ION    NA+38727   5.980   8.618  11.538
72187ION    NA+38728  37.890   2.769   2.414
72188ION    NA+38729   2.900  27.982   4.170
72189ION    NA+38730  25.210  18.581  12.614
72190ION    NA+38731  12.438   2.261   1.723
72191ION    NA+38732  39.151  44.609   2.165
72192ION    NA+38733  14.329  14.515  13.566
72193ION    NA+38734  44.743  32.032   0.424
72194ION    NA+38735  24.573   1.873   4.436
72195ION    NA+38736  39.382  34.842   2.313
72196ION    NA+38737  22.173  11.930  13.000
72197ION    NA+38738   4.396  18.821  14.350
72198ION    NA+38739  20.313  29.295   1.972
72199ION    NA+38740  41.537   1.714   0.974
72200ION    NA+38741  22.174   5.230   3.774
72201ION    NA+38742  13.726  34.990   4.337
72202ION    NA+38743  18.580  30.415  14.412
72203ION    NA+38744  10.167  38.848  12.444
72204ION    NA+38745   9.900  12.367  11.141
72205ION    NA+38746  17.184  29.464   2.365
72206ION    NA+38747  29.644  17.150  11.079
72207ION    NA+38748   3.287   5.481   1.922
72208ION    NA+38749   8.657  12.030   2.580
72209ION    NA+38750  41.328  25.292   2.812
72210ION    NA+38751  43.498  28.325   2.588
72211ION    NA+38752  43.103   3.834  12.747
72212ION    NA+38753  41.528  33.888   3.658
72213ION    NA+38754  39.783  28.411   4.165
72214ION    NA+38755  29.214  16.930   0.997
72215ION    NA+38756  36.859   0.484   1.757
72216ION    NA+38757  41.350  26.709   0.508
72217ION    NA+38758  19.881  31.114  11.774
72218ION    NA+38759  39.971  37.669  13.846
72219ION    NA+38760  36.801  27.611  13.996
72220ION    NA+38761  43.452  32.748   1.497
72221ION    NA+38762   8.107  14.285   5.258
72222ION    NA+38763  43.521  13.803  14.348
72223ION    NA+38764  39.504  29.168  11.898
72224ION    NA+38765  31.201   2.710  11.858
72225ION    NA+38766   0.823  18.517   2.142
72226ION    NA+38767  29.441  44.223  11.153
72227ION    NA+38768  28.950  30.542  11.151
72228ION    NA+38769  23.663   1.904  14.066
72229ION    NA+38770  29.691  31.627  10.726
72230ION    NA+38771   2.686  37.437  12.153
72231ION    NA+38772  20.558  23.311   0.898
72232ION    NA+38773  10.210  19.786   3.296
72233ION    NA+38774  22.842   7.801  13.442
72234ION    NA+38775  17.638  10.648  14.083
72235ION    NA+38776   0.489   1.152  13.510
72236ION    NA+38777   1.836   0.097  10.626
72237ION    NA+38778   1.738  31.177   0.429
72238ION    NA+38779   9.813   7.304   4.458
72239ION    NA+38780   2.864  26.402   3.321
72240ION    NA+38781  23.938  10.890  14.775
72241ION    NA+38782   7.450  17.217   1.429
72242ION    NA+38783  40.606  34.746   4.555
72243ION    NA+38784  12.717   4.394  14.030
72244ION    NA+38785   4.868  41.333  14.322
72245ION    NA+38786  37.683  41.473   4.314
72246ION    NA+38787  29.049  11.915  12.434
72247ION    NA+38788  31.499  19.588  11.088
72248ION    NA+38789  36.690  21.949   3.587
72249ION    NA+38790  10.810  25.527   1.413
72250ION    NA+38791  29.241  26.806   1.582
72251ION    NA+38792  28.856  42.300  14.075
72252ION    NA+38793  31.935  44.460  10.747
72253ION    NA+38794   5.035  43.735   1.351
72254ION    NA+38795  36.530  38.682   1.850
72255ION    NA+38796  25.961  18.924   0.823
72256ION    NA+38797   1.708  11.316  14.345
72257ION    NA+38798  27.346  30.338  13.288
72258ION    NA+38799  41.434  39.838  13.864
72259ION    NA+38800  16.003   4.291  10.968
72260ION    NA+38801   0.626  41.911   2.794
72261ION    NA+38802   4.526  34.140   1.761
72262ION    NA+38803   3.351  14.914   0.404
72263ION    NA+38804  14.018   8.310  10.229
72264ION    NA+38805  20.100  24.283  14.243
72265ION    NA+38806  21.974   9.866  12.106
72266ION    NA+38807  36.145  43.914   3.217
72267ION    NA+38808  41.517   7.461  13.001
72268ION    NA+38809  41.749  17.096  12.599
72269ION    NA+38810  27.586  29.516   3.315
72270ION    NA+38811  21.220  35.364   0.452
72271ION    NA+38812  12.235  10.446   3.117
72272ION    NA+38813  16.778  43.984   0.393
72273ION    NA+38814   8.239  41.015   4.697
72274ION    NA+38815  39.721  34.075  13.374
72275ION    NA+38816   2.917  41.444   0.473
72276ION    NA+38817  23.076  38.197  13.817
72277ION    NA+38818  12.237  25.221   4.384
72278ION    NA+38819   4.965  15.977   1.053
72279ION    NA+38820  17.084  34.646  11.171
72280ION    NA+38821  12.283  15.630   0.843
72281ION    NA+38822  20.650   3.926   4.585
72282ION    NA+38823  11.218  39.561   2.681
72283ION    NA+38824  15.329  15.588   2.547
72284ION    NA+38825  28.407   5.657   4.213
72285ION    NA+38826  23.242   2.939  14.615
72286ION    NA+38827  41.692  22.181   3.961
72287ION    NA+38828  32.060  28.331  12.942
72288ION    NA+38829  21.031  44.754   0.783
72289ION    NA+38830   6.499  29.534   0.882
72290ION    NA+38831  37.308  40.741   3.746
72291ION    NA+38832   7.454  41.530   3.343
72292ION    NA+38833   1.192   6.245   3.838
72293ION    NA+38834   3.529  23.425  10.272
72294ION    NA+38835  25.350  39.294  11.237
72295ION    NA+38836  12.435  38.782  10.869
72296ION    NA+38837  39.921  43.448  11.127
72297ION    NA+38838  42.900  13.290  12.886
72298ION    NA+38839  32.878  22.034  14.435
72299ION    NA+38840   1.802  35.980   0.136
72300ION    NA+38841  33.576  26.299  11.457
72301ION    NA+38842   5.578  34.595   1.255
72302ION    NA+38843   9.848  14.665   4.106
72303ION    NA+38844  40.551  29.129   4.085
72304ION    NA+38845  16.673  29.238  10.644
72305ION    NA+38846  10.734   5.455   2.619
72306ION    NA+38847  43.364  41.737   0.710
72307ION    NA+38848  26.205   2.791   0.800
72308ION    NA+38849  13.733  43.474   3.077
72309ION    NA+38850  42.811  26.091   2.380
72310ION    NA+38851   0.563  11.378   0.076
72311ION    NA+38852  20.679  23.969   4.147
72312ION    NA+38853  15.402  14.302   4.063
72313ION    NA+38854  14.745  10.059   2.329
72314ION    NA+38855  20.238   7.900  12.721
72315ION    NA+38856  39.536   5.596  13.519
72316ION    NA+38857  15.429  27.239   1.863
72317ION    NA+38858  26.533   2.777   3.078
72318ION    NA+38859  38.425  15.685   3.898
72319ION    NA+38860   8.478  28.254  11.942
72320ION    NA+38861  13.061  10.729   1.337
72321ION    NA+38862  11.151  31.469   1.438
72322ION    NA+38863  23.550   8.478  13.093
72323ION    NA+38864  14.882   6.455   9.790
72324ION    NA+38865   5.463  39.239   1.013
72325ION    NA+38866  35.051  39.303  11.450
72326ION    NA+38867  10.472  21.343   2.879
72327ION    NA+38868   2.865  32.526  14.154
72328ION    NA+38869  38.318  27.931   2.416
72329ION    NA+38870   8.189  11.149   0.027
72330ION    NA+38871  18.151  28.426  11.061
72331ION    NA+38872   0.686   3.136   1.640
72332ION    NA+38873   8.398  28.833   0.058
72333ION    NA+38874  41.815  29.165   0.291
72334ION    NA+38875  25.860   5.816  10.694
72335ION    NA+38876  17.798  28.881   1.287
72336ION    NA+38877  39.988  29.444   0.648
72337ION    NA+38878  29.005  40.120   1.819
72338ION    NA+38879  34.671  25.001   1.777
72339ION    NA+38880  21.312   6.715   4.986
72340ION    NA+38881  15.972  35.609   3.701
72341ION    NA+38882  32.112  10.022  12.274
72342ION    NA+38883   6.802  18.505   2.546
72343ION    NA+38884  33.588  39.257  10.505
72344ION    NA+38885  28.819  30.759   3.645
72345ION    NA+38886   6.256  43.940   0.745
72346ION    NA+38887   2.396   0.044  14.761
72347ION    NA+38888  11.572  16.573   3.355
72348ION    NA+38889  26.675   7.841   2.888
72349ION    NA+38890  36.837  20.686  11.963
72350ION    NA+38891  39.801  37.687   4.022
72351ION    NA+38892  11.041  27.259  10.809
72352ION    NA+38893  27.524  27.673  14.390
72353ION    NA+38894  13.492  36.731  10.697
72354ION    NA+38895  16.097  12.179   2.184
72355ION    NA+38896  15.159  36.883  10.639
72356ION    NA+38897  21.602  15.365  10.126
72357ION    NA+38898  31.955  18.103  14.774
72358ION    NA+38899  39.778  22.172  14.733
72359ION    NA+38900  18.370  40.242   9.796
72360ION    NA+38901   5.541  12.241   1.201
72361ION    NA+38902  14.915   7.159  11.288
72362ION    NA+38903  17.766   3.903  13.521
72363ION    NA+38904  33.112  42.409   4.070
72364ION    NA+38905   8.376   7.494  11.337
72365ION    NA+38906  40.770  10.885   1.643
72366ION    NA+38907  10.456  28.566   4.473
72367ION    NA+38908  23.585  21.741  11.556
72368ION    NA+38909  31.484   9.607  12.971
72369ION    NA+38910  22.004   9.327   2.173
72370ION    NA+38911  19.125   0.602   3.350
72371ION    NA+38912  14.405  11.675  12.357
72372ION    NA+38913  20.268  30.430   1.241
72373ION    NA+38914  44.438  10.730   3.710
72374ION    NA+38915  43.132   1.036   3.844
72375ION    NA+38916  42.064  15.067  11.672
72376ION    NA+38917  19.691  20.548  14.036
72377ION    NA+38918  10.037  14.612   4.901
72378ION    NA+38919  21.563  10.367   1.487
72379ION    NA+38920  14.093   3.399  14.460
72380ION    NA+38921  39.376  20.610   4.183
72381ION    NA+38922  22.327   8.870   0.595
72382ION    NA+38923  20.420   6.521  11.839
72383ION    NA+38924  12.123  42.033   2.311
72384ION    NA+38925  41.849  13.222  12.121
72385ION    NA+38926  24.081   7.951  12.429
72386ION    NA+38927  44.886  29.052   0.643
72387ION    NA+38928  16.033   6.509   3.129
72388ION    NA+38929   9.298   5.373  13.554
72389ION    NA+38930   2.393  13.258   0.294
72390ION    NA+38931   7.938  11.292  10.748
72391ION    NA+38932  30.668  31.773   0.633
72392ION    NA+38933  30.828  39.463   3.532
72393ION    NA+38934  28.940  33.205  10.730
72394ION    NA+38935  26.424  19.149  10.845
72395ION    NA+38936  22.140   3.510   4.132
72396ION    NA+38937  36.565  30.504   1.306
72397ION    NA+38938  25.065   7.746   4.123
72398ION    NA+38939  37.488  42.966   2.648
72399ION    NA+38940  33.172   9.313   1.705
72400ION    NA+38941  16.329  35.758   2.053
72401ION    NA+38942  29.623  18.770   5.332
72402ION    NA+38943  24.478   6.736   2.199
72403ION    NA+38944  27.118   6.983   0.157
72404ION    NA+38945  39.929  43.237   1.186
72405ION    NA+38946  31.732  28.449   1.589
72406ION    NA+38947  15.561  14.498  11.019
72407ION    NA+38948  17.835  43.368  13.020
72408ION    NA+38949   1.171   8.646   1.862
72409ION    NA+38950  42.072   1.787   4.503
72410ION    NA+38951  22.287  43.949   2.797
72411ION    NA+38952  24.722   0.799  12.419
72412ION    NA+38953  38.264  36.467  13.963
72413ION    NA+38954  26.538   3.338  13.335
72414ION    NA+38955  43.772  15.851   4.178
72415ION    NA+38956  28.864  39.488   4.005
72416ION    NA+38957  38.215  17.566   2.051
72417ION    NA+38958  25.156  42.566  12.078
72418ION    NA+38959  16.499  18.330   2.192
72419ION    NA+38960   8.411  33.079  10.627
72420ION    NA+38961  41.258  41.923   2.935
72421ION    NA+38962   2.992  40.805   2.839
72422ION    NA+38963   4.791  20.908  13.514
72423ION    NA+38964   7.969  38.203  10.951
72424ION    NA+38965   2.831  26.974   4.140
72425ION    NA+38966   2.411  23.294  11.590
72426ION    NA+38967  31.736  20.823  13.359
72427ION    NA+38968  36.916  27.461   2.390
72428ION    NA+38969  29.588  17.880   0.938
72429ION    NA+38970  34.599  44.874   0.279
72430ION    NA+38971  24.870  41.209   0.844
72431ION    NA+38972  12.174  29.943   1.154
72432ION    NA+38973  10.893  33.711  14.764
72433ION    NA+38974   2.648  42.064  11.010
72434ION    NA+38975  20.125  23.353  10.434
72435ION    NA+38976  32.925  41.118   2.144
72436ION    NA+38977  41.578   0.723   1.099
72437ION    NA+38978  27.213  11.099  13.378
72438ION    NA+38979  40.270  21.828  11.998
72439ION    NA+38980  21.498  19.861   0.969
72440ION    NA+38981   1.414  19.414  11.869
72441ION    NA+38982  21.141  21.794   1.692
72442ION    NA+38983  23.896  13.037  13.582
72443ION    NA+38984  43.444  27.427   2.152
72444ION    NA+38985   9.258  15.256   0.845
72445ION    NA+38986  18.282  39.232   0.749
72446ION    NA+38987  27.589   9.771   3.549
72447ION    NA+38988  30.146  15.742   3.847
72448ION    NA+38989  44.034  39.021  11.860
72449ION    NA+38990   4.747  41.213  11.715
72450ION    NA+38991   9.302  10.254  12.594
72451ION    NA+38992  17.169  37.206   5.281
72452ION    NA+38993  41.525  10.724   1.143
72453ION    NA+38994  12.679  27.459  12.583
72454ION    NA+38995  30.370  27.440  14.582
72455ION    NA+38996  20.969  29.625  12.187
72456ION    NA+38997  21.020  32.617   5.320
72457ION    NA+38998  43.079   9.647   3.766
72458ION    NA+38999  27.228  26.619  10.659
72459ION    NA+39000   2.865  17.144   1.356
72460ION    NA+39001  41.514   8.835  11.111
72461ION    NA+39002  19.227  34.829   4.465
72462ION    NA+39003   3.346  29.815   0.409
72463ION    NA+39004  36.463  12.733  10.718
72464ION    NA+39005  43.523  38.467  13.902
72465ION    NA+39006   1.635  14.004  12.042
72466ION    NA+39007   7.928  43.956   0.369
72467ION    NA+39008   8.178  21.998   3.120
72468ION    NA+39009   5.309  38.065   3.673
72469ION    NA+39010  13.723   8.282   0.696
72470ION    NA+39011  33.573  23.851   3.819
72471ION    NA+39012  29.463  13.676   0.652
72472ION    NA+39013  39.190  11.574   1.698
72473ION    NA+39014  18.555  12.845   1.228
72474ION    NA+39015  25.251  13.816   2.726
72475ION    NA+39016  30.369  36.491  13.858
72476ION    NA+39017   0.249   1.148   4.679
72477ION    NA+39018  33.600  21.077   0.178
72478ION    NA+39019  33.375   8.596   3.662
72479ION    NA+39020  13.150   7.732   4.000
72480ION    NA+39021   9.477   1.576   4.619
72481ION    NA+39022  26.462  38.732   1.509
72482ION    NA+39023  27.881   1.715  11.283
72483ION    NA+39024  33.994   7.383   0.383
72484ION    NA+39025   3.872  17.090   0.249
72485ION    NA+39026  15.573   8.779   4.350
72486ION    NA+39027   6.691  39.352   2.809
72487ION    NA+39028  10.829   4.134  13.806
72488ION    NA+39029  31.899  28.574  14.837
72489ION    NA+39030   8.595  20.366   3.559
72490ION    NA+39031  21.451   7.264   0.211
72491ION    NA+39032   5.454  18.349  12.994
72492ION    NA+39033  10.238  11.213  12.466
72493ION    NA+39034   2.453   0.922  10.563
72494ION    NA+39035   8.879   1.798  12.978
72495ION    NA+39036  31.686  39.336   2.297
72496ION    NA+39037   4.745  16.665   0.498
72497ION    NA+39038  36.683  32.624  11.553
72498ION    NA+39039  29.869  38.640  13.757
72499ION    NA+39040  24.405  24.709  13.820
72500ION    NA+39041  14.292   7.346  14.663
72501ION    NA+39042  35.872  36.605   3.926
72502ION    NA+39043  23.179  42.084  12.998
72503ION    NA+39044  16.137   7.954  11.977
72504ION    NA+39045   2.470  31.581  13.240
72505ION    NA+39046   9.732  18.384  11.487
72506ION    NA+39047   2.750  21.103  14.803
72507ION    NA+39048  16.871  43.575   2.142
72508ION    NA+39049  42.362  12.891   1.241
72509ION    NA+39050  31.609  15.775   5.526
72510ION    NA+39051   2.301  14.763   0.006
72511ION    NA+39052   4.928  44.717  11.950
72512ION    NA+39053  13.380  10.081  12.607
72513ION    NA+39054  22.054   8.790  12.248
72514ION    NA+39055  16.747   6.140  12.282
72515ION    NA+39056  12.686  39.018  11.880
72516ION    NA+39057  38.122  26.058  13.695
72517ION    NA+39058  39.290  37.832  13.481
72518ION    NA+39059   8.443  41.999   2.506
72519ION    NA+39060  13.258  19.522   1.100
72520ION    NA+39061  40.554  32.524   4.410
72521ION    NA+39062  16.981  18.071  13.296
72522ION    NA+39063  10.878  42.876  14.913
72523ION    NA+39064  23.080  14.710  11.489
72524ION    NA+39065  42.285   2.305  10.971
72525ION    NA+39066  30.860  14.857  12.948
72526ION    NA+39067  15.943  33.602   9.864
72527ION    NA+39068  20.692  34.582   4.054
72528ION    NA+39069  24.023  14.937  11.246
72529ION    NA+39070  36.782  20.640   4.658
72530ION    NA+39071   3.401  38.256   3.063
72531ION    NA+39072  32.978  32.745   2.903
72532ION    NA+39073  22.165  20.169  10.573
72533ION    NA+39074  39.375  36.135   0.940
72534ION    NA+39075  39.856   1.746   1.321
72535ION    NA+39076  36.645  10.057  11.604
72536ION    NA+39077   0.318  37.027   4.403
72537ION    NA+39078  22.050  12.861  14.857
72538ION    NA+39079  34.858   0.566   2.626
72539ION    NA+39080  26.737  21.697  12.762
72540ION    NA+39081  36.201  39.201  11.947
72541ION    NA+39082  40.612  38.220   1.769
72542ION    NA+39083   6.279  25.569   2.109
72543ION    NA+39084  43.411  12.144   3.090
72544ION    NA+39085  19.306  26.504  12.435
72545ION    NA+39086  26.303  35.885  13.206
72546ION    NA+39087  35.779  42.786  11.158
72547ION    NA+39088  20.090  13.490   4.126
72548ION    NA+39089   8.356  37.054   2.520
72549ION    NA+39090  10.591   8.254   2.782
72550ION    NA+39091   5.095  23.597  11.029
72551ION    NA+39092  19.901  17.281  10.784
72552ION    NA+39093  19.991   9.890   2.859
72553ION    NA+39094   2.189   8.154   0.706
72554ION    NA+39095   8.085  23.142   4.779
72555ION    NA+39096  30.259  43.610  12.414
72556ION    NA+39097  29.537  11.617  14.489
72557ION    NA+39098  30.613   3.503  12.165
72558ION    NA+39099  11.792  40.689  11.547
72559ION    NA+39100  40.277  28.848  10.919
72560ION    NA+39101  34.159   1.720   0.860
72561ION    NA+39102  13.990   2.196   5.047
72562ION    NA+39103   8.906  16.342   2.580
72563ION    NA+39104   8.410   1.112   2.107
72564ION    NA+39105   8.333  21.609  13.080
72565ION    NA+39106  31.779  30.105   4.108
72566ION    NA+39107   6.540  14.172  14.880
72567ION    NA+39108   7.635   0.568  12.890
72568ION    NA+39109  39.742  25.435   0.412
72569ION    NA+39110  24.154   8.767  10.731
72570ION    NA+39111  25.162  13.026   3.332
72571ION    NA+39112  31.473  30.879  13.042
72572ION    NA+39113  37.192  36.098   0.085
72573ION    NA+39114  22.079  13.836   3.471
72574ION    NA+39115  40.080   4.922  13.715
72575ION    NA+39116  12.087  21.554   1.861
72576ION    NA+39117   2.529  20.720   3.122
72577ION    NA+39118   5.930  19.502  14.178
72578ION    NA+39119  34.384   8.898  14.735
72579ION    NA+39120   3.906  17.370  11.834
72580ION    NA+39121   2.536  24.383  14.967
72581ION    NA+39122  22.132  40.747   0.285
72582ION    NA+39123  14.644  41.539   1.314
72583ION    NA+39124  14.280   5.215   1.883
72584ION    NA+39125  12.804  19.672  14.783
72585ION    NA+39126   5.649  36.275   3.810
72586ION    NA+39127  39.440  39.937   3.187
72587ION    NA+39128   3.658  16.068  11.755
72588ION    NA+39129   2.173  24.208  12.051
72589ION    NA+39130  44.061  31.691   2.807
72590ION    NA+39131  25.233  19.516   1.730
72591ION    NA+39132  17.731   1.064  10.023
72592ION    NA+39133  22.552  13.334   4.816
72593ION    NA+39134   8.371  25.350  13.793
72594ION    NA+39135  44.336  28.039   4.020
72595ION    NA+39136  44.776  41.436  14.336
72596ION    NA+39137  31.306   8.244  13.369
72597ION    NA+39138  27.395  15.536  14.325
72598ION    NA+39139  25.445   9.597   4.119
72599ION    NA+39140  29.049   1.853   1.610
72600ION    NA+39141   3.850  14.234   3.540
72601ION    NA+39142  31.222   4.377   2.540
72602ION    NA+39143   1.279  13.055  13.567
72603ION    NA+39144  38.600  36.780  11.590
72604ION    NA+39145  38.656  33.672  13.005
72605ION    NA+39146  16.167  35.105   4.553
72606ION    NA+39147   6.665  31.644   1.272
72607ION    NA+39148   9.084  26.754   4.649
72608ION    NA+39149  24.446  43.802   3.164
72609ION    NA+39150  11.652  20.126   0.113
72610ION    NA+39151   8.992   8.545   4.172
72611ION    NA+39152  42.639  11.958  14.173
72612ION    NA+39153  12.647  37.949  11.604
72613ION    NA+39154  26.326   8.129  10.723
72614ION    NA+39155  27.673  28.984  13.427
72615ION    NA+39156  16.684  38.351   4.672
72616ION    NA+39157  21.663  28.714   0.938
72617ION    NA+39158  11.223  20.559   1.214
72618ION    NA+39159  34.713  41.254   3.757
72619ION    NA+39160  27.779  24.456  12.948
72620ION    NA+39161   7.589  13.222  13.327
72621ION    NA+39162  21.623  12.718   5.373
72622ION    NA+39163   7.227   9.116  14.609
72623ION    NA+39164  43.058   3.673   2.618
72624ION    NA+39165  18.498  14.072   1.672
72625ION    NA+39166   3.375   1.064  12.385
72626ION    NA+39167  32.911  16.793  10.699
72627ION    NA+39168  22.183  43.532   0.307
72628ION    NA+39169   7.946   8.680   0.601
72629ION    NA+39170  19.367   2.795   2.845
72630ION    NA+39171  10.151  10.529  11.411
72631ION    NA+39172  12.856   8.311   0.175
72632ION    NA+39173  15.563  33.792   4.951
72633ION    NA+39174  37.744  11.595  13.534
72634ION    NA+39175   3.344  24.595   3.633
72635ION    NA+39176   0.471  29.845  13.476
72636ION    NA+39177  16.979  43.501  12.756
72637ION    NA+39178  42.126  38.502  14.600
72638ION    NA+39179  35.311  29.426  11.393
72639ION    NA+39180  17.304   4.452  11.973
72640ION    NA+39181  38.673  41.457   4.174
72641ION    NA+39182  42.216  24.201  12.431
72642ION    NA+39183  38.263  10.810  13.952
72643ION    NA+39184  37.031   7.129  11.499
72644ION    NA+39185  31.092  23.568   0.781
72645ION    NA+39186   6.074  10.107  10.915
72646ION    NA+39187  31.320   1.836  12.330
72647ION    NA+39188  25.561  36.391   3.874
72648ION    NA+39189   0.842  11.250   1.035
72649ION    NA+39190  28.867  10.874  14.135
72650ION    NA+39191  40.894  32.217   3.057
72651ION    NA+39192  26.000  36.038   1.283
72652ION    NA+39193  29.562  19.657   1.605
72653ION    NA+39194   9.713  29.872  10.841
72654ION    NA+39195  13.152  13.476   3.282
72655ION    NA+39196   5.475  33.186  13.143
72656ION    NA+39197  21.557  19.572   4.306
72657ION    NA+39198  17.590  40.719  11.002
72658ION    NA+39199  39.639  38.767  13.551
72659ION    NA+39200  38.375  24.137   4.542
72660ION    NA+39201  38.888   1.525   3.180
72661ION    NA+39202  14.812  27.809   1.320
72662ION    NA+39203   6.253   6.208  11.812
72663ION    NA+39204  21.567   8.317  12.800
72664ION    NA+39205  28.786  19.771   0.579
72665ION    NA+39206  13.206  13.110   1.425
72666ION    NA+39207   1.796  27.282   3.265
72667ION    NA+39208  11.824  43.559   2.926
72668ION    NA+39209  20.940  27.961  12.956
72669ION    NA+39210  27.434  12.991  14.863
72670ION    NA+39211  26.418   4.772  12.020
72671ION    NA+39212  28.566   5.334  13.935
72672ION    NA+39213  38.881  18.168  11.598
72673ION    NA+39214  38.605  44.062   4.734
72674ION    NA+39215   6.859  18.641   1.075
72675ION    NA+39216   3.638  14.349  12.105
72676ION    NA+39217  37.705  26.427   1.114
72677ION    NA+39218   8.933  32.424  11.173
72678ION    NA+39219   9.076   8.868  13.058
72679ION    NA+39220  38.038  18.197   0.277
72680ION    NA+39221  35.451  19.565   1.256
72681ION    NA+39222  43.511  32.147  13.734
72682ION    NA+39223  28.736  29.338   2.354
72683ION    NA+39224  41.539  27.208   1.432
72684ION    NA+39225  11.245   8.552   4.621
72685ION    NA+39226  12.772   2.698  13.351
72686ION    NA+39227  10.009  13.971  13.473
72687ION    NA+39228  32.427  43.918  12.828
72688ION    NA+39229   6.205  41.570   2.835
72689ION    NA+39230  13.591  15.778  13.399
72690ION    NA+39231  21.714  30.463   5.320
72691ION    NA+39232  20.191  42.650   3.297
72692ION    NA+39233   6.101  25.327  11.891
72693ION    NA+39234   0.035  43.727  11.131
72694ION    NA+39235  35.347  19.731   4.836
72695ION    NA+39236   1.621  15.761  13.485
72696ION    NA+39237  12.540  22.608  11.907
72697ION    NA+39238  33.685  41.289   2.773
72698ION    NA+39239   1.218   8.892   4.529
72699ION    NA+39240   5.020   7.837  11.745
72700ION    NA+39241  27.165  26.693   4.694
72701ION    NA+39242   0.035  30.747   0.646
72702ION    NA+39243   0.359   1.431  10.585
72703ION    NA+39244   4.202   0.865   5.078
72704ION    NA+39245  24.149  38.072   0.289
72705ION    NA+39246  33.158  14.804  13.597
72706ION    NA+39247  13.183  41.857   2.754
72707ION    NA+39248  39.836  19.575  12.075
72708ION    NA+39249  27.653  31.452  13.108
72709ION    NA+39250  25.820  12.760  12.329
72710ION    NA+39251  10.146  31.813  14.353
72711ION    NA+39252   1.254  42.334   3.819
72712ION    NA+39253  30.935  32.704   0.880
72713ION    NA+39254  33.109  21.196  12.087
72714ION    NA+39255  38.235   6.915   4.098
72715ION    NA+39256  12.213  44.275  13.346
72716ION    NA+39257  27.292  26.473  11.919
72717ION    NA+39258  11.601  23.080  13.514
72718ION    NA+39259  37.383  18.989   1.178
72719ION    NA+39260  39.257   7.287  11.256
72720ION    NA+39261  21.246  16.009   1.961
72721ION    NA+39262  39.802  28.025   2.384
72722ION    NA+39263  30.468  25.977  10.831
72723ION    NA+39264   5.886  32.481   0.469
72724ION    NA+39265  28.475  15.787   1.915
72725ION    NA+39266  15.832  11.216   2.373
72726ION    NA+39267   1.461  21.184   3.753
72727ION    NA+39268  33.635  28.418  12.361
72728ION    NA+39269  33.649   0.319   0.250
72729ION    NA+39270   1.664  38.747   4.229
72730ION    NA+39271  27.662  43.477   4.116
72731ION    NA+39272  26.896  37.414   0.864
72732ION    NA+39273   4.068  21.415  13.320
72733ION    NA+39274  13.598   9.759   2.589
72734ION    NA+39275  28.577  22.322  11.717
72735ION    NA+39276   6.079  32.014   1.785
72736ION    NA+39277  39.939  44.616   2.865
72737ION    NA+39278  39.574   7.523   0.420
72738ION    NA+39279   8.635   0.676   3.711
72739ION    NA+39280  32.369  12.981   0.832
72740ION    NA+39281  17.320   2.408   2.222
72741ION    NA+39282  34.041  42.741   5.105
72742ION    NA+39283  23.268   2.996   5.450
72743ION    NA+39284  34.910  18.481   2.768
72744ION    NA+39285  38.406  18.522   2.294
72745ION    NA+39286  16.539  26.965  11.219
72746ION    NA+39287  21.862  44.396   9.874
72747ION    NA+39288  15.959  13.275  13.821
72748ION    NA+39289  22.030  12.958   3.235
72749ION    NA+39290  37.783  11.802   3.414
72750ION    NA+39291   2.959  42.384   2.916
72751ION    NA+39292  39.850  23.849   1.966
72752ION    NA+39293   4.271  42.234   1.153
72753ION    NA+39294  17.702  22.737  11.680
72754ION    NA+39295   5.994   9.801   1.492
72755ION    NA+39296  20.719   7.194  13.385
72756ION    NA+39297  26.691  32.151   2.254
72757ION    NA+39298  44.966  23.181  13.420
72758ION    NA+39299  24.071  30.589  13.864
72759ION    NA+39300  39.041  10.662  13.014
72760ION    NA+39301   1.943  18.564   4.345
72761ION    NA+39302  16.687  41.584   0.530
72762ION    NA+39303  39.478  38.129  14.295
72763ION    NA+39304  42.083  31.672   0.325
72764ION    NA+39305  24.792  24.282  14.464
72765ION    NA+39306  31.939  23.611   4.133
72766ION    NA+39307  18.072  16.649  12.363
72767ION    NA+39308   7.118  12.089   4.558
72768ION    NA+39309  15.558  21.509   2.732
72769ION    NA+39310  13.076   9.854   4.891
72770ION    NA+39311  24.831   3.101  14.975
72771ION    NA+39312  44.623  43.123   1.599
72772ION    NA+39313  22.102  29.189   3.618
72773ION    NA+39314  30.303  33.608  10.904
72774ION    NA+39315  11.469  11.380   4.646
72775ION    NA+39316  35.638  22.664   0.225
72776ION    NA+39317  40.244  17.918   4.384
72777ION    NA+39318  11.701  33.815   4.874
72778ION    NA+39319  19.186   8.821  14.924
72779ION    NA+39320  27.197  13.070   0.832
72780ION    NA+39321  24.521  27.583   0.447
72781ION    NA+39322  21.547  23.141  10.820
72782ION    NA+39323  39.472   3.961   3.311
72783ION    NA+39324  26.151  27.979  11.463
72784ION    NA+39325  37.583  21.424   5.205
72785ION    NA+39326  14.910  29.166   1.515
72786ION    NA+39327   8.723  34.096  13.608
72787ION    NA+39328  14.477  21.215   3.272
72788ION    NA+39329  27.506  37.870   2.365
72789ION    NA+39330   1.619  19.036  13.996
72790ION    NA+39331  21.610  33.655   4.322
72791ION    NA+39332  22.340  26.965   4.367
72792ION    NA+39333  35.744   7.090  11.756
72793ION    NA+39334   3.193  19.302  14.878
72794ION    NA+39335  30.377   5.215  13.101
72795ION    NA+39336   5.658   0.177  13.523
72796ION    NA+39337   8.749  13.559   0.402
72797ION    NA+39338  13.138   6.454   5.176
72798ION    NA+39339  33.296   4.498   3.114
72799ION    NA+39340   9.833  25.302   1.543
72800ION    NA+39341  11.308  22.740   4.103
72801ION    NA+39342  17.228  22.428  14.477
72802ION    NA+39343  31.907   6.995  13.105
72803ION    NA+39344   8.473  25.188   3.343
72804ION    NA+39345  28.690  33.212  13.953
72805ION    NA+39346  16.517  35.396   2.848
72806ION    NA+39347  14.122   4.453   3.229
72807ION    NA+39348  19.260  34.579   0.194
72808ION    NA+39349  39.618  37.646   0.631
72809ION    NA+39350  43.006  38.551   3.297
72810ION    NA+39351  30.992  10.758   3.740
72811ION    NA+39352  26.602  35.554   3.783
72812ION    NA+39353   5.445  24.047  13.084
72813ION    NA+39354  30.533  28.032  10.175
72814ION    NA+39355   3.429  42.060  11.696
72815ION    NA+39356  17.572  21.899   9.832
72816ION    NA+39357  24.689  33.520   2.158
72817ION    NA+39358  43.487  12.956   1.412
72818ION    NA+39359   0.983  34.470   0.854
72819ION    NA+39360  32.943   0.849  13.838
72820ION    NA+39361  10.496  32.817  14.554
72821ION    NA+39362   4.105  35.034   0.971
72822ION    NA+39363  37.970  38.815  11.597
72823ION    NA+39364   0.472  15.151   3.388
72824ION    NA+39365  10.325   5.818  13.588
72825ION    NA+39366  24.095   5.790  12.971
72826ION    NA+39367  34.677   0.739  10.599
72827ION    NA+39368  14.530  25.096  14.375
72828ION    NA+39369  22.255  41.642   0.128
72829ION    NA+39370  42.934  28.169  14.373
72830ION    NA+39371  19.068  20.350   4.818
72831ION    NA+39372  33.837  21.822   2.765
72832ION    NA+39373  21.202  23.979   1.418
72833ION    NA+39374  19.286  25.562  10.555
72834ION    NA+39375  13.396  21.034   2.830
72835ION    NA+39376   5.204  43.972  11.031
72836ION    NA+39377  39.823  26.458   4.063
72837ION    NA+39378   6.963  15.473  11.180
72838ION    NA+39379  41.437  25.862  14.455
72839ION    NA+39380  44.904  12.998  12.525
72840ION    NA+39381   2.267   8.999  11.200
72841ION    NA+39382  37.916   2.521   5.277
72842ION    NA+39383  43.162   7.208   1.639
72843ION    NA+39384  31.571   3.769  12.065
72844ION    NA+39385  41.092   9.129   3.634
72845ION    NA+39386  36.311  33.968   3.809
72846ION    NA+39387  42.434  29.658   2.324
72847ION    NA+39388  38.311  39.496  14.309
72848ION    NA+39389  31.624  22.049   0.710
72849ION    NA+39390  18.635  12.179   1.821
72850ION    NA+39391  30.598   3.690   5.367
72851ION    NA+39392  40.499   6.339   0.536
72852ION    NA+39393  31.039   5.261  14.263
72853ION    NA+39394   2.333  39.957  12.301
72854ION    NA+39395  40.375   4.858   4.580
72855ION    NA+39396  24.437  18.761   4.372
72856ION    NA+39397  38.328  41.139  14.450
72857ION    NA+39398  38.439  28.754  12.875
72858ION    NA+39399   7.775   1.135   2.733
72859ION    NA+39400  39.742  36.905   4.435
72860ION    NA+39401  11.143  37.666  10.138
72861ION    NA+39402  37.613  26.191  11.461
72862ION    NA+39403   3.703   3.662   9.873
72863ION    NA+39404  30.477  27.971  13.324
72864ION    NA+39405   7.414  25.115   1.982
72865ION    NA+39406   1.333  16.477  14.371
72866ION    NA+39407  26.790  12.250   2.990
72867ION    NA+39408  24.980  21.075   2.006
72868ION    NA+39409  22.183  39.806   1.398
72869ION    NA+39410  34.573   1.061  11.565
72870ION    NA+39411  10.545  14.275   4.321
72871ION    NA+39412  24.064  23.444   3.980
72872ION    NA+39413   0.421  22.216   4.517
72873ION    NA+39414  33.623   0.181  12.235
72874ION    NA+39415   6.023   3.637  11.151
72875ION    NA+39416   5.137  26.962   2.793
72876ION    NA+39417  38.943  24.820   0.936
72877ION    NA+39418  20.571   0.946   1.281
72878ION    NA+39419  33.447  38.006  11.924
72879ION    NA+39420  28.838  13.910   2.037
72880ION    NA+39421  12.248   2.904  12.033
72881ION    NA+39422  33.928  13.057   3.962
72882ION    NA+39423  43.580  34.385   3.128
72883ION    NA+39424  17.696  36.417  14.005
72884ION    NA+39425  25.288   2.962   2.790
72885ION    NA+39426  26.712  38.679   3.710
72886ION    NA+39427  37.150   2.280  13.422
72887ION    NA+39428  42.394  41.606  13.030
72888ION    NA+39429  40.580   0.068   4.055
72889ION    NA+39430  34.664  11.721   2.900
72890ION    NA+39431  15.458   8.027   1.087
72891ION    NA+39432  22.566  24.391   4.564
72892ION    NA+39433   0.545  10.368   1.400
72893ION    NA+39434  35.015   9.119  13.819
72894ION    NA+39435   9.842  41.669  14.178
72895ION    NA+39436  30.373  35.330  11.300
72896ION    NA+39437  37.178  10.020   3.958
72897ION    NA+39438  31.618  29.105   2.209
72898ION    NA+39439  20.752  16.219   0.460
72899ION    NA+39440   9.161  12.704   3.727
72900ION    NA+39441  40.742  17.719  13.672
72901ION    NA+39442  14.338  20.149   4.425
72902ION    NA+39443  33.200  43.273   1.945
72903ION    NA+39444  19.498  27.095   3.721
72904ION    NA+39445  19.647  18.762   1.132
72905ION    NA+39446  17.544  27.202   2.627
72906ION    NA+39447  12.855  42.512  10.605
72907ION    NA+39448   3.991   1.840  13.524
72908ION    NA+39449  12.475  12.980   3.624
72909ION    NA+39450  32.976  37.412  10.601
72910ION    NA+39451  40.658   6.342   2.381
72911ION    NA+39452  18.197  31.851   1.341
72912ION    NA+39453  30.068  25.693   3.382
72913ION    NA+39454  29.968  27.552   0.491
72914ION    NA+39455  39.309   1.321   0.467
72915ION    NA+39456  15.539  14.375   0.759
72916ION    NA+39457  40.833  39.781  11.993
72917ION    NA+39458  19.970  35.859  13.408
72918ION    NA+39459   6.645  32.209   1.991
72919ION    NA+39460  11.197  23.749   1.027
72920ION    NA+39461  15.814  19.573  12.982
72921ION    NA+39462  40.831  18.459   4.356
72922ION    NA+39463  44.804   4.592  10.382
72923ION    NA+39464   2.249  27.431  14.799
72924ION    NA+39465  21.458  28.285  13.795
72925ION    NA+39466  17.909  25.177   0.073
72926ION    NA+39467  10.990  38.941  14.653
72927ION    NA+39468   9.677  29.686   4.349
72928ION    NA+39469  43.346   0.248   4.255
72929ION    NA+39470  12.156  30.723   0.716
72930ION    NA+39471  17.444  37.570  13.195
72931ION    NA+39472  41.307   9.102   1.393
72932ION    NA+39473  38.620  12.113   2.156
72933ION    NA+39474   1.227  23.939  12.871
72934ION    NA+39475  30.231  30.785  13.282
72935ION    NA+39476  22.630  44.023  11.037
72936ION    NA+39477   9.867  44.848   3.141
72937ION    NA+39478   3.707  42.833  10.351
72938ION    NA+39479   3.546  23.884   1.315
72939ION    NA+39480  36.739  12.918   2.787
72940ION    NA+39481  31.068   2.828  10.672
72941ION    NA+39482  14.997  11.069  13.827
72942ION    NA+39483   3.442  28.073   1.453
72943ION    NA+39484  42.785  31.399  11.458
72944ION    NA+39485  28.312  26.505   1.824
72945ION    NA+39486  23.762  21.534   1.936
72946ION    NA+39487   0.689  17.276  14.545
72947ION    NA+39488  12.111  32.487   3.663
72948ION    NA+39489  21.296  38.659   4.679
72949ION    NA+39490  33.612  22.292  11.199
72950ION    NA+39491  40.402   3.979  14.422
72951ION    NA+39492   8.794  11.093   2.187
72952ION    NA+39493  11.074  26.547  11.687
72953ION    NA+39494   6.607  38.090  12.454
72954ION    NA+39495  18.607  24.587   2.650
72955ION    NA+39496  37.838  21.503  14.940
72956ION    NA+39497  14.145  28.218   1.943
72957ION    NA+39498  34.299   6.174  10.775
72958ION    NA+39499  40.657  39.094  11.398
72959ION    NA+39500  28.169  40.119  11.613
72960ION    NA+39501  27.957   6.011  12.924
72961ION    NA+39502  20.368  27.878   3.275
72962ION    NA+39503  26.022   0.700  13.578
72963ION    NA+39504  43.035  15.499   0.720
72964ION    NA+39505  19.370  33.078  12.572
72965ION    NA+39506  44.940   5.425   9.855
72966ION    NA+39507  25.799  22.709   3.334
72967ION    NA+39508   1.246   8.336   2.810
72968ION    NA+39509  31.935  24.103   0.711
72969ION    NA+39510  32.154  43.915   3.357
72970ION    NA+39511  20.198  31.985  12.428
72971ION    NA+39512  40.815  23.583   1.370
72972ION    NA+39513  33.871  43.031  14.975
72973ION    NA+39514  15.080  44.686  14.742
72974ION    NA+39515   0.410   8.258  10.570
72975ION    NA+39516  16.473  17.546   1.792
72976ION    NA+39517  40.686  26.252  10.273
72977ION    NA+39518  32.024  38.883  10.850
72978ION    NA+39519  17.027  22.752  12.526
72979ION    NA+39520   1.469  30.186   4.113
72980ION    NA+39521  41.499  23.077   2.614
72981ION    NA+39522  12.554  33.080  11.802
72982ION    NA+39523   0.293   0.950   2.675
72983ION    NA+39524   8.556  26.331  13.729
72984ION    NA+39525  11.782   1.470  11.714
72985ION    NA+39526  18.271   3.704  11.904
72986ION    NA+39527  38.541  38.536  14.467
72987ION    NA+39528  27.763  32.490  14.721
72988ION    NA+39529  27.597  38.949   3.201
72989ION    NA+39530  32.596  10.320   1.177
72990ION    NA+39531  19.235  12.071   0.537
72991ION    NA+39532   3.651  31.524  11.342
72992ION    NA+39533  35.382  42.658  13.071
72993ION    NA+39534  12.816  42.594   3.844
72994ION    NA+39535  38.279  15.324  11.195
72995ION    NA+39536   4.697  15.614  12.953
72996ION    NA+39537   1.884  24.024   2.493
72997ION    NA+39538   6.615  31.443  14.335
72998ION    NA+39539  10.531  25.781   0.487
72999ION    NA+39540  27.170   8.051   0.172
73000ION    NA+39541  30.235  30.710  12.285
73001ION    NA+39542   0.113   7.769   1.561
73002ION    NA+39543  29.403  14.164   1.359
73003ION    NA+39544  38.889   6.549   4.806
73004ION    NA+39545  18.330   3.041   4.798
73005ION    NA+39546   3.357  37.324  12.887
73006ION    NA+39547  41.165   2.973   1.707
73007ION    NA+39548  43.606  26.061   1.751
73008ION    NA+39549  10.030  40.710   0.413
73009ION    NA+39550  37.390  43.947   2.817
73010ION    NA+39551  27.615  38.449   4.649
73011ION    NA+39552  44.818   1.070   0.223
73012ION    NA+39553   4.327  11.321  10.605
73013ION    NA+39554  32.807  19.736  13.898
73014ION    NA+39555   8.999  26.710  12.430
73015ION    NA+39556   7.188  44.949  10.881
73016ION    NA+39557   9.061  10.687  11.726
73017ION    NA+39558  11.487   4.660   2.562
73018ION    NA+39559  25.238  32.318  12.463
73019ION    NA+39560  23.919  17.041  12.109
73020ION    NA+39561  39.399  25.231  13.745
73021ION    NA+39562  32.275   4.369   3.052
73022ION    NA+39563  31.291  18.309  11.160
73023ION    NA+39564  34.233   6.797   2.836
73024ION    NA+39565   8.133  42.976   2.768
73025ION    NA+39566   2.183  16.176  12.770
73026ION    NA+39567  31.918  19.457  12.475
73027ION    NA+39568  12.538   1.232   3.350
73028ION    NA+39569   9.208  29.171  13.778
73029ION    NA+39570  14.985  10.478  12.140
73030ION    NA+39571  39.815  30.894  13.422
73031ION    NA+39572  18.384  34.827   0.201
73032ION    NA+39573  40.971  42.826   5.077
73033ION    NA+39574   1.738  25.418   1.266
73034ION    NA+39575  22.972  42.803   2.354
73035ION    NA+39576  44.876  44.335   3.153
73036ION    NA+39577  15.041   7.176  12.189
73037ION    NA+39578  12.802   4.951  13.204
73038ION    NA+39579   8.555  22.344  12.438
73039ION    NA+39580  10.589  35.377  12.140
73040ION    NA+39581  25.084  11.600  10.717
73041ION    NA+39582  16.857  16.580  11.662
73042ION    NA+39583  31.323  20.636  12.000
73043ION    NA+39584  42.877   2.772   4.490
73044ION    NA+39585  19.927  43.833   4.235
73045ION    NA+39586  32.816  30.830  13.027
73046ION    NA+39587   0.096  17.929   3.705
73047ION    NA+39588  31.986  31.597  13.773
73048ION    NA+39589  19.143   3.762  12.473
73049ION    NA+39590  25.808   0.695   5.116
73050ION    NA+39591   3.930   0.290   2.136
73051ION    NA+39592  39.777  13.661   0.810
73052ION    NA+39593   5.132  18.946   3.020
73053ION    NA+39594  42.725  34.674   3.558
73054ION    NA+39595  11.957   9.034   1.323
73055ION    NA+39596   9.461  39.171   2.378
73056ION    NA+39597  20.601  18.464   4.247
73057ION    NA+39598  44.725  40.695  14.855
73058ION    NA+39599  18.691  44.352  12.418
73059ION    NA+39600  37.615  12.549  11.787
73060ION    NA+39601  26.645  26.182   2.331
73061ION    NA+39602  14.365  44.222   3.278
73062ION    NA+39603  36.233  44.539   1.421
73063ION    NA+39604  26.518  10.654  14.562
73064ION    NA+39605   9.981  15.196  13.396
73065ION    NA+39606  20.968  36.867  11.124
73066ION    NA+39607  11.380  35.014  13.461
73067ION    NA+39608   7.163  35.629  10.965
73068ION    NA+39609  27.080  22.440   3.828
73069ION    NA+39610  24.894  21.421   1.246
73070ION    NA+39611   5.006  36.520   0.272
73071ION    NA+39612  32.644   9.792  14.466
73072ION    NA+39613   0.010  40.598   4.433
73073ION    NA+39614  23.147  24.971  10.856
73074ION    NA+39615  19.369  42.726   2.660
73075ION    NA+39616  18.251  25.423   4.531
73076ION    NA+39617  38.811  28.003  12.330
73077ION    NA+39618  27.463  23.360   3.912
73078ION    NA+39619  43.406  38.873   1.716
73079ION    NA+39620  29.608  42.071  14.522
73080ION    NA+39621  33.513  21.286  12.998
73081ION    NA+39622  36.480  34.994  10.593
73082ION    NA+39623  20.322  28.768   2.822
73083ION    NA+39624   1.221   0.442   3.594
73084ION    NA+39625   1.534  40.121   2.688
73085ION    NA+39626   5.274   1.614   4.081
73086ION    NA+39627  15.220  13.467   1.030
73087ION    NA+39628  28.500   3.497  11.426
73088ION    NA+39629  25.625   5.162   0.755
73089ION    NA+39630  40.638   3.456   2.417
73090ION    NA+39631  15.652  31.966   0.527
73091ION    NA+39632  44.942   3.314  11.621
73092ION    NA+39633  33.650  37.896  13.512
73093ION    NA+39634  19.245   3.377  11.029
73094ION    NA+39635   0.773  41.046  12.090
73095ION    NA+39636  37.352  37.287   3.927
73096ION    NA+39637  44.813  19.278   0.273
73097ION    NA+39638  31.179  28.724   3.145
73098ION    NA+39639  13.548  18.278  10.787
73099ION    NA+39640   7.202   1.668  14.946
73100ION    NA+39641   8.332   4.588  14.470
73101ION    NA+39642   7.388   9.683  11.111
73102ION    NA+39643  30.129  25.173  11.780
73103ION    NA+39644  12.115  23.084  14.422
73104ION    NA+39645   2.313  41.336   3.345
73105ION    NA+39646  13.780   9.041  12.738
73106ION    NA+39647  29.656   2.576  10.299
73107ION    NA+39648   2.822  29.136   0.098
73108ION    NA+39649  31.624   8.798  11.541
73109ION    NA+39650  16.918  23.505   3.729
73110ION    NA+39651  31.089  43.103   0.812
73111ION    NA+39652  12.361  26.623   1.231
73112ION    NA+39653  22.583  36.082  13.369
73113ION    NA+39654  16.553  15.971   0.924
73114ION    NA+39655  28.872  40.134  12.691
73115ION    NA+39656  11.694  19.273  12.063
73116ION    NA+39657  20.555  32.841   1.184
73117ION    NA+39658   5.071  40.399   1.397
73118ION    NA+39659  18.299  37.694  13.708
73119ION    NA+39660  35.168  40.598  10.226
73120ION    NA+39661  42.791  26.240   5.004
73121ION    NA+39662  23.602  24.708  12.743
73122ION    NA+39663   3.801   6.370   3.211
73123ION    NA+39664  32.387  22.041   2.672
73124ION    NA+39665  36.024  41.806   2.583
73125ION    NA+39666  33.558  44.514   0.946
73126ION    NA+39667   4.939   0.644  14.040
73127ION    NA+39668  16.526  11.618  10.695
73128ION    NA+39669   2.072  30.463   4.724
73129ION    NA+39670   9.014  36.371  12.684
73130ION    NA+39671  29.063  33.136  11.720
73131ION    NA+39672  39.810  21.189  11.322
73132ION    NA+39673  22.067  14.815   2.606
73133ION    NA+39674  27.839  40.190   2.586
73134ION    NA+39675  14.073   7.716  11.174
73135ION    NA+39676  33.591  24.773  12.002
73136ION    NA+39677  25.789  36.481  11.807
73137ION    NA+39678   8.114  17.416   3.932
73138ION    NA+39679  21.620  29.765   4.044
73139ION    NA+39680  33.024  22.735  13.688
73140ION    NA+39681  39.004  17.741   0.868
73141ION    NA+39682  40.881  39.066   0.353
73142ION    NA+39683  42.100  11.819   4.434
73143ION    NA+39684  29.090   3.754  14.565
73144ION    NA+39685  17.758  44.843   1.350
73145ION    NA+39686  33.925   1.548  10.927
73146ION    NA+39687  17.211  29.331  13.462
73147ION    NA+39688  14.337  35.909   0.253
73148ION    NA+39689  27.648  32.842  12.943
73149ION    NA+39690  28.991  16.750  13.957
73150ION    NA+39691  14.121  22.067   0.933
73151ION    NA+39692  21.788  10.635   2.472
73152ION    NA+39693  36.460  37.146   1.968
73153ION    NA+39694  44.763   0.164   3.811
73154ION    NA+39695  37.436  37.893  10.751
73155ION    NA+39696  17.396  10.057  14.853
73156ION    NA+39697  20.292  22.605  11.155
73157ION    NA+39698  13.966  19.201   4.071
73158ION    NA+39699   4.301  25.236   2.614
73159ION    NA+39700  17.092  30.599   1.617
73160ION    NA+39701   4.866   8.921   1.939
73161ION    CL-39702  28.423  21.932  11.877
73162ION    CL-39703  31.148  13.706  13.587
73163ION    CL-39704  15.790  37.768  14.701
73164ION    CL-39705  17.251   3.289   0.391
73165ION    CL-39706  34.331  16.814   1.017
73166ION    CL-39707  22.102  12.133  12.608
73167ION    CL-39708   9.730   1.473   4.266
73168ION    CL-39709  10.270  20.940  13.490
73169ION    CL-39710  25.690   7.014   1.083
73170ION    CL-39711  39.377  27.094   2.781
73171ION    CL-39712   7.266   0.362   4.939
73172ION    CL-39713  25.031  30.878   3.320
73173ION    CL-39714  35.462  17.540  12.657
73174ION    CL-39715  10.561  44.833   0.445
73175ION    CL-39716  29.159   9.344   2.257
73176ION    CL-39717  31.679  43.321  13.605
73177ION    CL-39718   9.140   8.780  13.501
73178ION    CL-39719  44.235  23.321   1.994
73179ION    CL-39720  18.977   6.403  11.931
73180ION    CL-39721   8.995  13.360   1.611
73181ION    CL-39722  35.928  25.959   2.470
73182ION    CL-39723  12.378  33.948   2.753
73183ION    CL-39724  21.565  38.580   0.656
73184ION    CL-39725  16.408  35.643   2.485
73185ION    CL-39726  26.172  19.119  11.214
73186ION    CL-39727  12.636  30.650  10.696
73187ION    CL-39728  42.882  38.973   3.219
73188ION    CL-39729   2.398  33.416  13.682
73189ION    CL-39730  38.754  31.491   4.374
73190ION    CL-39731  18.510  41.704  12.293
73191ION    CL-39732  15.604  27.563   2.951
73192ION    CL-39733  18.399  34.411  10.786
73193ION    CL-39734  14.741   1.700  10.769
73194ION    CL-39735  23.176  29.937   1.450
73195ION    CL-39736  33.030  36.263   0.421
73196ION    CL-39737  41.168  21.631  11.003
73197ION    CL-39738  30.773  32.347   1.095
73198ION    CL-39739  21.959   8.543  12.641
73199ION    CL-39740   4.314   7.328   2.369
73200ION    CL-39741  11.297  26.519  14.417
73201ION    CL-39742  17.418  43.479  12.872
73202ION    CL-39743  28.085   0.860  11.883
73203ION    CL-39744  18.573  39.009   0.490
73204ION    CL-39745  38.600  41.399  14.758
73205ION    CL-39746  42.436  23.228  13.822
73206ION    CL-39747   9.086  26.487  12.054
73207ION    CL-39748   7.877  44.077  11.676
73208ION    CL-39749   4.191  34.542  14.349
73209ION    CL-39750   0.443  29.857  11.131
73210ION    CL-39751   3.172  21.746   4.263
73211ION    CL-39752  17.910  11.736  12.675
73212ION    CL-39753  12.294  38.946  10.468
73213ION    CL-39754  16.881  27.087  13.486
73214ION    CL-39755   4.374   2.389   1.732
73215ION    CL-39756   7.712  17.331   3.736
73216ION    CL-39757  12.204  32.781   3.985
73217ION    CL-39758  29.924  18.147  13.639
73218ION    CL-39759  25.124  28.011   1.987
73219ION    CL-39760  34.357  19.585   2.142
73220ION    CL-39761   0.212  12.717  12.689
73221ION    CL-39762  35.407  12.705   4.516
73222ION    CL-39763  20.698  19.514  10.471
73223ION    CL-39764  33.310  16.924   4.148
73224ION    CL-39765  39.251   4.938  11.751
73225ION    CL-39766   9.666  16.131   9.873
73226ION    CL-39767  23.196  41.271   2.900
73227ION    CL-39768  36.066  28.327  12.278
73228ION    CL-39769  33.381  35.873   2.963
73229ION    CL-39770  38.038   1.035  11.524
73230ION    CL-39771  19.768   1.678   4.037
73231ION    CL-39772   3.768  15.179  13.845
73232ION    CL-39773  26.951  20.163  11.700
73233ION    CL-39774  12.997  36.161   5.066
73234ION    CL-39775  39.619   9.658   0.560
73235ION    CL-39776  17.537   9.247   1.703
73236ION    CL-39777  20.701  10.997  13.354
73237ION    CL-39778  35.920  26.384  10.595
73238ION    CL-39779  44.459  39.153  14.724
73239ION    CL-39780  16.501  17.869   2.113
73240ION    CL-39781  23.194  43.348  13.897
73241ION    CL-39782  32.352  24.116  10.715
73242ION    CL-39783  41.511  43.927  13.629
73243ION    CL-39784  11.655  15.319   1.693
73244ION    CL-39785  12.965  31.638   1.184
73245ION    CL-39786   5.827  21.741  13.926
73246ION    CL-39787  29.197   2.039   1.218
73247ION    CL-39788  30.368  24.829  11.983
73248ION    CL-39789  36.238  40.924  11.115
73249ION    CL-39790  19.026  11.834   0.854
73250ION    CL-39791  18.494   6.866  13.332
73251ION    CL-39792  22.228  15.510   3.741
73252ION    CL-39793   1.451  20.726  14.561
73253ION    CL-39794  25.742  17.325   3.044
73254ION    CL-39795   6.031  35.120  12.553
73255ION    CL-39796  25.717   6.944  13.927
73256ION    CL-39797   5.805  34.881   4.110
73257ION    CL-39798  17.550   2.594   1.884
73258ION    CL-39799  10.751   1.484   1.515
73259ION    CL-39800  25.582   6.669   1.922
73260ION    CL-39801  28.055   1.625  12.611
73261ION    CL-39802  22.190  41.197   0.219
73262ION    CL-39803  28.265  43.091   2.755
73263ION    CL-39804  23.938  13.587   0.250
73264ION    CL-39805  28.125  27.998  13.205
73265ION    CL-39806  14.755  35.331   1.728
73266ION    CL-39807  32.380   9.980  12.656
73267ION    CL-39808  15.818   8.770  13.418
73268ION    CL-39809  21.797  42.112  11.161
73269ION    CL-39810   2.793   8.712   3.303
73270ION    CL-39811   2.714  13.492  12.623
73271ION    CL-39812  34.900  20.675   3.225
73272ION    CL-39813  36.201  21.713   4.961
73273ION    CL-39814  26.546  12.586  12.829
73274ION    CL-39815  13.566  26.639  14.460
73275ION    CL-39816   7.385  32.288  13.864
73276ION    CL-39817  18.247   3.770   3.155
73277ION    CL-39818  14.319  14.696   0.554
73278ION    CL-39819  25.016  21.068   1.538
73279ION    CL-39820  44.493  16.147  14.515
73280ION    CL-39821  27.513  29.641  11.325
73281ION    CL-39822  11.581  40.299  11.501
73282ION    CL-39823  36.159   6.306  11.149
73283ION    CL-39824  24.612  19.039   4.057
73284ION    CL-39825   6.037  41.883  12.173
73285ION    CL-39826  30.880  27.550   0.943
73286ION    CL-39827  43.186  32.749   1.125
73287ION    CL-39828  39.493  32.057  11.176
73288ION    CL-39829  41.324  17.673   1.840
73289ION    CL-39830  28.123  15.902   5.027
73290ION    CL-39831   2.294  11.212   2.847
73291ION    CL-39832  23.990  30.261  13.572
73292ION    CL-39833  10.517  11.942  11.306
73293ION    CL-39834  42.795   3.009   0.842
73294ION    CL-39835  27.191   2.956   1.692
73295ION    CL-39836  26.876   4.681   4.489
73296ION    CL-39837  19.020  35.512  12.488
73297ION    CL-39838  22.443  18.102  14.357
73298ION    CL-39839  35.691  43.443   4.099
73299ION    CL-39840   3.431   9.400  12.592
73300ION    CL-39841  40.321   9.348   1.303
73301ION    CL-39842   4.870  40.482   3.144
73302ION    CL-39843  40.615  10.809   4.279
73303ION    CL-39844  38.725  44.204   4.317
73304ION    CL-39845  35.128   0.723   2.308
73305ION    CL-39846   2.720   6.932   3.774
73306ION    CL-39847  14.954   7.200  11.742
73307ION    CL-39848   3.261  32.040   0.748
73308ION    CL-39849  23.623   1.846  13.626
73309ION    CL-39850   2.683  35.251   4.589
73310ION    CL-39851  11.093  33.929  12.511
73311ION    CL-39852  38.687  31.431  14.002
73312ION    CL-39853  43.056  34.369   1.184
73313ION    CL-39854  28.875   1.641   1.977
73314ION    CL-39855  35.782  17.243   2.790
73315ION    CL-39856  15.822  24.407  11.023
73316ION    CL-39857   1.412  18.317  14.742
73317ION    CL-39858  20.100  13.269   0.659
73318ION    CL-39859  23.598  21.176   1.726
73319ION    CL-39860  36.909  42.021   3.494
73320ION    CL-39861  39.772  25.423  11.902
73321ION    CL-39862  37.064   8.161  12.515
73322ION    CL-39863  28.059  44.361  12.276
73323ION    CL-39864  12.560  27.024   3.794
73324ION    CL-39865   0.812  34.620   3.410
73325ION    CL-39866  39.917  22.754   9.951
73326ION    CL-39867  23.732  18.435  12.861
73327ION    CL-39868  12.695  15.677   3.611
73328ION    CL-39869  33.848  37.808   0.223
73329ION    CL-39870  31.117  39.742  14.054
73330ION    CL-39871   7.266  21.188  11.941
73331ION    CL-39872  12.085  37.845   2.741
73332ION    CL-39873  25.229  23.444  11.198
73333ION    CL-39874   6.816  36.023   0.225
73334ION    CL-39875  33.849  36.825  11.594
73335ION    CL-39876  24.466  36.568  14.826
73336ION    CL-39877  44.472  18.345   1.238
73337ION    CL-39878  36.319  14.358   0.188
73338ION    CL-39879  29.581   9.876  13.690
73339ION    CL-39880  15.625   7.198  14.205
73340ION    CL-39881  38.993  39.850   3.163
73341ION    CL-39882  32.842  12.571  12.098
73342ION    CL-39883  20.810   6.663  11.650
73343ION    CL-39884  34.434  37.944   0.890
73344ION    CL-39885  19.283   9.155  13.512
73345ION    CL-39886   8.385   5.917  14.638
73346ION    CL-39887  16.299  20.891   0.976
73347ION    CL-39888   9.647  37.000  14.788
73348ION    CL-39889  27.204  28.311   2.239
73349ION    CL-39890  24.366  24.915  12.007
73350ION    CL-39891   9.553   6.339   4.993
73351ION    CL-39892  39.080  16.664  10.426
73352ION    CL-39893  34.049  29.904   2.833
73353ION    CL-39894  22.195  26.740   4.750
73354ION    CL-39895  19.149   8.165  13.562
73355ION    CL-39896  44.508  43.563   1.565
73356ION    CL-39897   5.735  20.749   5.043
73357ION    CL-39898  31.088  21.006  11.927
73358ION    CL-39899  13.591  13.299   1.295
73359ION    CL-39900  26.906   7.189   9.938
73360ION    CL-39901  34.770   8.960  12.320
73361ION    CL-39902  17.930   9.948   4.086
73362ION    CL-39903  14.243  11.910   3.364
73363ION    CL-39904  40.696  32.730   4.790
73364ION    CL-39905  22.782  26.935   4.476
73365ION    CL-39906   1.515  39.772   2.408
73366ION    CL-39907   4.193  33.518  13.553
73367ION    CL-39908  15.121  40.969  10.630
73368ION    CL-39909  13.878  42.618  11.390
73369ION    CL-39910  22.546  43.581  11.032
73370ION    CL-39911  12.598  10.692   2.986
73371ION    CL-39912  21.407  41.326  13.939
73372ION    CL-39913  23.932  44.309   2.296
73373ION    CL-39914   1.946  35.502  10.432
73374ION    CL-39915  38.985  11.879   1.967
73375ION    CL-39916  31.703  31.651  14.119
73376ION    CL-39917   2.255   7.649   3.254
73377ION    CL-39918  15.417   4.761   0.999
73378ION    CL-39919  32.711  43.610  11.655
73379ION    CL-39920  37.398  33.351  13.862
73380ION    CL-39921   3.821  43.781   2.225
73381ION    CL-39922   4.444  44.820  10.560
73382ION    CL-39923   1.597  25.228   4.959
73383ION    CL-39924  41.079  18.997  12.190
73384ION    CL-39925  31.093  26.275  12.996
73385ION    CL-39926  38.534   3.830   2.737
73386ION    CL-39927  29.431  41.433   0.340
73387ION    CL-39928  42.132  22.176   4.034
73388ION    CL-39929  14.701  19.196  11.724
73389ION    CL-39930  39.098   1.151  12.884
73390ION    CL-39931  11.334  44.530   2.735
73391ION    CL-39932  29.940   6.460   3.433
73392ION    CL-39933   7.986  42.016  10.923
73393ION    CL-39934  27.893  13.626   4.641
73394ION    CL-39935   5.267   7.839  12.120
73395ION    CL-39936   7.027  20.171  14.229
73396ION    CL-39937   8.154  35.421  13.389
73397ION    CL-39938   0.003  31.640  12.046
73398ION    CL-39939  17.483   4.545   2.334
73399ION    CL-39940   4.472  42.048   4.642
73400ION    CL-39941  30.158  32.704   2.956
73401ION    CL-39942   3.544   5.571   2.274
73402ION    CL-39943  43.086  18.223  14.026
73403ION    CL-39944  31.902  12.843  14.352
73404ION    CL-39945   6.072  33.462   4.575
73405ION    CL-39946  44.352   7.624  13.008
73406ION    CL-39947  35.952   7.204  14.376
73407ION    CL-39948  35.989   2.930   3.189
73408ION    CL-39949  15.182   2.975   4.524
73409ION    CL-39950  30.680   7.153  12.748
73410ION    CL-39951  19.124  28.586   1.530
73411ION    CL-39952  13.860  28.559   1.960
73412ION    CL-39953  36.082  15.667  13.656
73413ION    CL-39954  27.863  37.105  14.953
73414ION    CL-39955  43.962   2.747  12.577
73415ION    CL-39956  31.290  37.357   0.820
73416ION    CL-39957  24.680  30.967  14.839
73417ION    CL-39958   4.850   8.491   2.061
73418ION    CL-39959  21.844  31.826  12.062
73419ION    CL-39960   2.660  13.524   0.055
73420ION    CL-39961  29.294  39.593   3.932
73421ION    CL-39962  36.750  13.618   0.786
73422ION    CL-39963   5.748   9.969  11.435
73423ION    CL-39964  26.377  35.813   1.197
73424ION    CL-39965  43.530  22.221  14.426
73425ION    CL-39966  32.423  11.588   5.004
73426ION    CL-39967   1.409   5.039  11.815
73427ION    CL-39968  15.193  44.269  14.563
73428ION    CL-39969   0.597  40.823  12.436
73429ION    CL-39970  27.227   6.551   0.112
73430ION    CL-39971  12.849   7.459   4.187
73431ION    CL-39972  44.368  25.124  14.803
73432ION    CL-39973  40.897  32.753  11.896
73433ION    CL-39974  18.707   0.741   3.250
73434ION    CL-39975   7.808   2.042   1.740
73435ION    CL-39976  21.349  16.052   1.528
73436ION    CL-39977  35.068  15.577   2.674
73437ION    CL-39978  26.606  31.203  14.744
73438ION    CL-39979  40.625  17.712  13.240
73439ION    CL-39980  42.604  29.592   1.909
73440ION    CL-39981   1.195   8.660   4.141
73441ION    CL-39982   4.666  42.036  12.855
73442ION    CL-39983   7.633   6.502  11.958
73443ION    CL-39984   8.073  20.262  11.525
73444ION    CL-39985  25.933  28.939  12.425
73445ION    CL-39986  25.881   2.316  14.727
73446ION    CL-39987  35.759  34.570   0.133
73447ION    CL-39988  18.238  35.379  14.939
73448ION    CL-39989  22.757  19.211   1.408
73449ION    CL-39990  23.190  39.967   4.114
73450ION    CL-39991  16.566   8.441  14.029
73451ION    CL-39992  20.060   8.302  14.485
73452ION    CL-39993  18.486  44.186   0.821
73453ION    CL-39994  12.822  11.433   3.805
73454ION    CL-39995  43.853   1.950   4.465
73455ION    CL-39996  44.770   7.100   0.618
73456ION    CL-39997  19.874   7.583  11.115
73457ION    CL-39998  17.064   8.399   3.347
73458ION    CL-39999  44.888  12.867   4.954
73459ION    CL-40000  38.490  37.068  12.353
73460ION    CL-40001  37.964  43.565  11.201
73461ION    CL-40002  13.869   7.275  14.789
73462ION    CL-40003  28.622  19.402   0.772
73463ION    CL-40004  42.895  33.026  13.272
73464ION    CL-40005  25.315  36.688   4.099
73465ION    CL-40006  38.079  42.112  12.035
73466ION    CL-40007  38.265  23.048   0.304
73467ION    CL-40008  23.995  42.225  13.848
73468ION    CL-40009  20.124  35.431  13.456
73469ION    CL-40010  28.287  18.605  11.737
73470ION    CL-40011  24.051  36.368  11.080
73471ION    CL-40012  25.215  12.707   5.037
73472ION    CL-40013  22.436   8.897   0.160
73473ION    CL-40014  22.060  34.159   2.657
73474ION    CL-40015  35.441  14.028  11.949
73475ION    CL-40016  25.630  17.823   2.181
73476ION    CL-40017   7.389  41.951  12.284
73477ION    CL-40018  39.086  31.676   2.236
73478ION    CL-40019  26.725  23.028   1.826
73479ION    CL-40020   7.059  10.820   1.973
73480ION    CL-40021  37.715   3.771   3.308
73481ION    CL-40022  22.694  33.642   3.264
73482ION    CL-40023  40.683  35.943   0.360
73483ION    CL-40024  38.272  12.401   2.223
73484ION    CL-40025  27.643   9.499   2.050
73485ION    CL-40026   2.520   2.967  14.797
73486ION    CL-40027   9.660  17.602   0.822
73487ION    CL-40028   0.323  28.086  10.732
73488ION    CL-40029  39.583  37.952  13.840
73489ION    CL-40030  19.162  34.631   4.072
73490ION    CL-40031  20.055  21.124   4.093
73491ION    CL-40032  14.279  22.746   4.167
73492ION    CL-40033  41.738   4.183  11.119
73493ION    CL-40034  11.271  27.239  10.415
73494ION    CL-40035  33.989  25.414  14.236
73495ION    CL-40036   2.395  38.942  10.624
73496ION    CL-40037  44.529  23.897   4.831
73497ION    CL-40038  27.737  42.432  12.562
73498ION    CL-40039   3.225  42.217   3.269
73499ION    CL-40040  42.750  43.606   4.826
73500ION    CL-40041   2.106  24.259  14.955
73501ION    CL-40042  33.406   9.368  10.670
73502ION    CL-40043   9.597  16.284  11.337
73503ION    CL-40044  30.422  23.503  11.561
73504ION    CL-40045  25.317  41.194   0.822
73505ION    CL-40046  21.331  27.966   1.587
73506ION    CL-40047  34.183  10.349   3.684
73507ION    CL-40048  24.970   3.111  10.146
73508ION    CL-40049  18.902   3.096  10.974
73509ION    CL-40050   0.298  14.322  11.436
73510ION    CL-40051  41.822  21.857  11.725
73511ION    CL-40052  19.170  19.567  11.718
73512ION    CL-40053  38.367  15.380   4.230
73513ION    CL-40054  44.408   8.802   2.156
73514ION    CL-40055   3.753  15.971  11.331
73515ION    CL-40056  43.536   7.507  14.386
73516ION    CL-40057   2.058  11.624   4.043
73517ION    CL-40058  43.328  42.608  13.770
73518ION    CL-40059  38.854   3.252   0.814
73519ION    CL-40060  11.617  39.006  13.192
73520ION    CL-40061  28.845   6.343  14.530
73521ION    CL-40062  29.429  44.933   4.430
73522ION    CL-40063   5.695  14.828   3.191
73523ION    CL-40064  24.872  20.429   4.166
73524ION    CL-40065  21.132   4.100   2.053
73525ION    CL-40066   8.809   3.194   4.628
73526ION    CL-40067  23.753  25.845   0.386
73527ION    CL-40068   5.168  13.307   2.409
73528ION    CL-40069  11.200  39.065  14.277
73529ION    CL-40070  17.529  10.682  13.651
73530ION    CL-40071  18.713  25.522  11.880
73531ION    CL-40072  39.031   9.290   1.281
73532ION    CL-40073   3.180  23.624   1.299
73533ION    CL-40074   5.860   0.745   0.873
73534ION    CL-40075   0.612  20.632  14.024
73535ION    CL-40076  32.027   5.356   1.002
73536ION    CL-40077   0.527  18.371   2.444
73537ION    CL-40078  12.224  10.980  14.084
73538ION    CL-40079  19.624  26.223  12.577
73539ION    CL-40080  17.715  22.587   1.372
73540ION    CL-40081  17.791  16.262   2.335
73541ION    CL-40082  38.342  26.476  12.254
73542ION    CL-40083  12.203  27.198   2.876
73543ION    CL-40084  37.512  11.836  13.831
73544ION    CL-40085  40.457  31.370   4.867
73545ION    CL-40086  33.173  36.759   1.841
73546ION    CL-40087  32.730  35.883   2.203
73547ION    CL-40088  17.196   1.372   3.569
73548ION    CL-40089   9.222  36.773  12.616
73549ION    CL-40090  11.451  23.552   1.351
73550ION    CL-40091  32.201  41.107  11.155
73551ION    CL-40092   5.830  39.592   0.065
73552ION    CL-40093  40.798  17.206   0.841
73553ION    CL-40094  43.016   2.494   2.832
73554ION    CL-40095  41.426  35.688   3.548
73555ION    CL-40096   4.074  34.710   2.816
73556ION    CL-40097  23.080  33.488  14.636
73557ION    CL-40098  17.251  19.816   3.209
73558ION    CL-40099  35.366  16.559  12.825
73559ION    CL-40100  27.019  18.137   2.404
73560ION    CL-40101  29.078  24.226  12.791
73561ION    CL-40102  16.977  17.789  12.936
73562ION    CL-40103  15.770  10.915   4.366
73563ION    CL-40104   2.863  20.274  14.025
73564ION    CL-40105  42.574   3.975  13.732
73565ION    CL-40106  39.709  29.961   4.610
73566ION    CL-40107  19.237  18.450   2.382
73567ION    CL-40108  15.207  24.409   5.037
73568ION    CL-40109  17.104  27.134   2.600
73569ION    CL-40110   2.519  42.091   4.996
73570ION    CL-40111  16.379  13.611   3.389
73571ION    CL-40112  21.426  18.211   1.397
73572ION    CL-40113  16.696   4.954   2.796
73573ION    CL-40114   9.087   8.966   4.280
73574ION    CL-40115  32.063  13.157   0.557
73575ION    CL-40116  18.731  18.786   4.614
73576ION    CL-40117  21.593   2.493   3.470
73577ION    CL-40118  20.919  37.814   4.008
73578ION    CL-40119   6.983  16.292   0.324
73579ION    CL-40120  22.336  37.647  12.524
73580ION    CL-40121   8.650   5.043   1.221
73581ION    CL-40122  41.484  36.379   2.244
73582ION    CL-40123  11.925  10.200   3.343
73583ION    CL-40124  18.558   6.232  10.652
73584ION    CL-40125  33.421   4.110   2.927
73585ION    CL-40126  31.377  14.576  10.934
73586ION    CL-40127  42.427  34.858   3.278
73587ION    CL-40128   7.991  10.173   3.731
73588ION    CL-40129  27.881   2.695  14.341
73589ION    CL-40130  13.308   7.016   0.574
73590ION    CL-40131  30.302  24.878  12.864
73591ION    CL-40132  10.905  18.603   4.169
73592ION    CL-40133  35.972  32.406   3.134
73593ION    CL-40134  43.479  22.229   0.425
73594ION    CL-40135   1.269  35.511   4.267
73595ION    CL-40136  43.322   7.516  13.366
73596ION    CL-40137   9.783   7.156   3.169
73597ION    CL-40138  10.538  33.572   0.962
73598ION    CL-40139  33.299  18.288  14.533
73599ION    CL-40140  18.126  37.805   3.755
73600ION    CL-40141  35.377   7.116   0.190
73601ION    CL-40142  14.716  13.340   3.608
73602ION    CL-40143  25.626  42.060   1.889
73603ION    CL-40144  41.848  43.735  11.445
73604ION    CL-40145  38.886  20.520   9.877
73605ION    CL-40146  42.879  30.362   0.949
73606ION    CL-40147  22.350  35.702   3.903
73607ION    CL-40148  16.425  26.659   1.317
73608ION    CL-40149  23.992  42.580   3.675
73609ION    CL-40150  12.095  30.297   0.862
73610ION    CL-40151  36.560  17.466  14.825
73611ION    CL-40152  41.509  11.392  12.958
73612ION    CL-40153   9.838  31.538   1.733
73613ION    CL-40154  11.097  43.296  12.852
73614ION    CL-40155  27.651   3.514   3.233
73615ION    CL-40156  22.005  10.310   2.687
73616ION    CL-40157  23.133  16.088  14.279
73617ION    CL-40158  35.537   3.528  14.437
73618ION    CL-40159  17.185  19.500  10.741
73619ION    CL-40160   4.640   0.049  14.916
73620ION    CL-40161  12.508  19.586  11.314
73621ION    CL-40162  37.738  26.857   1.261
73622ION    CL-40163   5.066  39.405   1.137
73623ION    CL-40164  38.040   9.066   2.747
73624ION    CL-40165  39.757  10.143   4.282
73625ION    CL-40166   4.957   6.685   1.717
73626ION    CL-40167  10.956   7.577  13.574
73627ION    CL-40168  12.837   2.249   1.504
73628ION    CL-40169  39.321  36.137   3.024
73629ION    CL-40170  43.829  23.259  13.979
73630ION    CL-40171   1.111  17.406  11.641
73631ION    CL-40172  42.181  29.844  11.105
73632ION    CL-40173  42.215  12.038  11.656
73633ION    CL-40174  14.450  36.336   0.315
73634ION    CL-40175  18.239  25.598  13.055
73635ION    CL-40176  20.547  17.839   4.709
73636ION    CL-40177  34.001  22.494  11.287
73637ION    CL-40178   3.900  36.964   2.252
73638ION    CL-40179  21.261   3.268  10.974
73639ION    CL-40180   9.907   8.254   0.373
73640ION    CL-40181  42.466  41.517  11.728
73641ION    CL-40182  15.543  37.543   3.302
73642ION    CL-40183   2.180   9.330   3.795
73643ION    CL-40184   7.010  35.993  10.755
73644ION    CL-40185   5.020  43.574  11.113
73645ION    CL-40186  43.932  16.204   3.955
73646ION    CL-40187  11.791   3.987   0.655
73647ION    CL-40188   0.337  16.320   1.201
73648ION    CL-40189  39.361  33.418   2.782
73649ION    CL-40190  28.169  17.373   5.303
73650ION    CL-40191   8.605  41.839   1.204
73651ION    CL-40192  26.324  40.393  14.857
73652ION    CL-40193   5.505  11.233   1.780
73653ION    CL-40194  38.133  30.107  12.042
73654ION    CL-40195   6.326  38.480  12.388
73655ION    CL-40196  23.938  23.678  12.728
73656ION    CL-40197  26.091  39.340  14.964
73657ION    CL-40198  43.516   2.515   0.206
73658ION    CL-40199  39.533  28.505   1.481
73659ION    CL-40200  38.236  36.979  11.390
73660ION    CL-40201   2.621  44.157   2.216
73661ION    CL-40202  25.132   3.354   0.204
73662ION    CL-40203  18.641   9.620  11.050
73663ION    CL-40204  15.862  29.506   0.791
73664ION    CL-40205   4.432  41.463  11.522
73665ION    CL-40206  40.501  22.414   4.569
73666ION    CL-40207  41.005  23.480  14.786
73667ION    CL-40208  16.301   2.292  12.634
73668ION    CL-40209  16.310  20.625   1.826
73669ION    CL-40210  23.132  32.457   2.213
73670ION    CL-40211  10.433   2.805   3.342
73671ION    CL-40212  44.022  26.182  11.253
73672ION    CL-40213  21.838  19.790   2.278
73673ION    CL-40214  23.661  25.680  12.046
73674ION    CL-40215  31.873  34.188  13.851
73675ION    CL-40216  37.568  39.048   4.135
73676ION    CL-40217  23.310  36.134  14.862
73677ION    CL-40218  12.517   0.100   1.428
73678ION    CL-40219  15.159  25.945   3.648
73679ION    CL-40220  42.250  11.871   4.016
73680ION    CL-40221  30.094   4.185  14.339
73681ION    CL-40222  16.550  23.691   3.502
73682ION    CL-40223   3.369  25.964  14.925
73683ION    CL-40224  30.215  36.913  13.842
73684ION    CL-40225   4.012  36.022   2.583
73685ION    CL-40226  44.257  29.557  13.999
73686ION    CL-40227  19.529  36.863   0.602
73687ION    CL-40228  22.851  35.358   0.307
73688ION    CL-40229  39.046  10.149  10.864
73689ION    CL-40230  27.523  31.872  12.983
73690ION    CL-40231  13.575   5.245  10.351
73691ION    CL-40232  26.579  36.664  14.223
73692ION    CL-40233  36.265  39.634  12.042
73693ION    CL-40234  13.981   1.657   4.327
73694ION    CL-40235  10.559  32.332   4.235
73695ION    CL-40236  19.947  19.099  13.931
73696ION    CL-40237  24.619  30.687   9.881
73697ION    CL-40238  27.447  32.465   0.039
73698ION    CL-40239  32.147  17.104   2.483
73699ION    CL-40240  34.852  10.546  11.762
73700ION    CL-40241  30.003  41.289   4.243
73701ION    CL-40242  31.467   8.311  12.945
73702ION    CL-40243  18.453  22.128  12.879
73703ION    CL-40244  43.136  28.497  11.168
73704ION    CL-40245  24.096   8.340  12.210
73705ION    CL-40246  10.508  35.053  11.827
73706ION    CL-40247  13.977  17.070  10.478
73707ION    CL-40248   8.416   3.069   1.556
73708ION    CL-40249  13.591   6.655  12.925
73709ION    CL-40250  20.765  38.963  12.661
73710ION    CL-40251   7.186  33.267  13.918
73711ION    CL-40252  32.405  17.534   0.881
73712ION    CL-40253  14.216   2.380  13.112
73713ION    CL-40254  44.876  21.388  12.806
73714ION    CL-40255  34.669  21.525   5.109
73715ION    CL-40256  25.167   5.623  13.624
73716ION    CL-40257   0.360  36.587   4.332
73717ION    CL-40258  14.837  16.598   2.401
73718ION    CL-40259  40.290  12.168   4.609
73719ION    CL-40260  39.013  42.903   1.866
73720ION    CL-40261  14.867  13.267   1.211
73721ION    CL-40262  11.787  28.519   1.935
73722ION    CL-40263   9.842   5.885  11.519
73723ION    CL-40264   2.221  31.898   1.717
73724ION    CL-40265  37.700   0.352   0.839
73725ION    CL-40266   8.355  32.692  13.895
73726ION    CL-40267  34.305  43.736  12.743
73727ION    CL-40268  22.544  24.369   5.020
73728ION    CL-40269  19.119  42.444  11.993
73729ION    CL-40270  27.463  39.998   2.432
73730ION    CL-40271  22.651  34.748   3.657
73731ION    CL-40272  39.023  25.187  13.510
73732ION    CL-40273  18.466  29.069  12.997
73733ION    CL-40274  16.072   7.201   1.332
73734ION    CL-40275  27.077   9.834  12.789
73735ION    CL-40276   1.063   6.650   3.971
73736ION    CL-40277  40.617   7.658   4.380
73737ION    CL-40278  28.322  39.709  11.709
73738ION    CL-40279   1.594  18.812  13.600
73739ION    CL-40280  28.429  18.627  14.188
73740ION    CL-40281   9.752  23.200  13.372
73741ION    CL-40282  22.509   0.327   1.266
73742ION    CL-40283  12.850  43.943   3.230
73743ION    CL-40284  27.717  30.065  13.275
73744ION    CL-40285  22.012  14.929  11.117
73745ION    CL-40286   8.708  29.662   1.433
73746ION    CL-40287  44.438  42.904  12.997
73747ION    CL-40288  28.734  16.427  12.582
73748ION    CL-40289   3.483  25.219  12.096
73749ION    CL-40290  23.945  12.480  12.153
73750ION    CL-40291  43.800  18.336  11.962
73751ION    CL-40292  20.879  44.979   4.554
73752ION    CL-40293  30.589  22.131  11.523
73753ION    CL-40294  35.320  26.160   1.701
73754ION    CL-40295   9.686  12.745  11.045
73755ION    CL-40296  20.242   0.696   1.474
73756ION    CL-40297  17.378  12.407   4.494
73757ION    CL-40298  41.067  40.051  12.277
73758ION    CL-40299   4.514  37.598  14.889
73759ION    CL-40300  31.656  29.955   4.515
73760ION    CL-40301  20.744  44.346  14.423
73761ION    CL-40302  13.159  11.116  11.259
73762ION    CL-40303  29.483  18.315   0.927
73763ION    CL-40304  44.811  18.720   4.926
73764ION    CL-40305  28.229  10.956   3.787
73765ION    CL-40306  34.342  41.619  14.259
73766ION    CL-40307  27.704  28.131  10.700
73767ION    CL-40308  10.434  19.159   0.388
73768ION    CL-40309  20.952  39.587  11.598
73769ION    CL-40310  11.550   5.001  14.743
73770ION    CL-40311  28.703   1.060  11.122
73771ION    CL-40312  32.188  22.395   2.479
73772ION    CL-40313  27.748  31.063  13.330
73773ION    CL-40314  11.631  35.983   0.450
73774ION    CL-40315  18.607  19.256  13.748
73775ION    CL-40316  41.029  30.268  11.226
73776ION    CL-40317  34.807  37.005   2.645
73777ION    CL-40318  13.633   4.690  11.247
73778ION    CL-40319  10.011  34.317   0.553
73779ION    CL-40320  22.176  18.779  12.959
73780ION    CL-40321  24.525  20.805  14.756
73781ION    CL-40322  12.557  24.177  10.792
73782ION    CL-40323   1.627   2.797  14.379
73783ION    CL-40324   3.877  26.016   1.780
73784ION    CL-40325  35.885  39.475  13.509
73785ION    CL-40326  19.523  42.659   5.075
73786ION    CL-40327  15.141  39.199   2.171
73787ION    CL-40328  37.638  34.365  11.428
73788ION    CL-40329  22.857   8.208   2.031
73789ION    CL-40330  28.435   3.286   2.655
73790ION    CL-40331  24.102  16.672   3.845
73791ION    CL-40332   1.732  30.349   4.446
73792ION    CL-40333  14.635   0.383   5.054
73793ION    CL-40334  18.740   5.333   4.847
73794ION    CL-40335   1.869  43.501  13.390
73795ION    CL-40336  44.518  32.211   0.079
73796ION    CL-40337  19.625  18.959   1.533
73797ION    CL-40338  10.770   5.838  13.584
73798ION    CL-40339  10.613   3.706   3.737
73799ION    CL-40340  15.838  33.704   0.752
73800ION    CL-40341  22.793   0.454   4.821
73801ION    CL-40342  34.042   4.958  12.036
73802ION    CL-40343  15.604  25.287  11.445
73803ION    CL-40344  24.174  23.053   3.794
73804ION    CL-40345   0.437   7.276   3.431
73805ION    CL-40346  27.415  33.401  14.456
73806ION    CL-40347  12.284   1.035   3.662
73807ION    CL-40348   7.332  15.377  11.427
73808ION    CL-40349  31.842  10.157  11.933
73809ION    CL-40350  31.398  40.281   2.573
73810ION    CL-40351  30.937  43.452  14.263
73811ION    CL-40352  44.885   8.128   3.349
73812ION    CL-40353  18.540  12.467   1.482
73813ION    CL-40354  26.861  26.443  11.802
73814ION    CL-40355  36.789  16.276   1.793
73815ION    CL-40356   4.256  10.010  14.850
73816ION    CL-40357  28.429  15.749  10.246
73817ION    CL-40358  36.297   0.883  13.334
73818ION    CL-40359  18.661  18.596   3.269
73819ION    CL-40360  36.989  28.771  14.737
73820ION    CL-40361  27.867   8.973   0.383
73821ION    CL-40362  30.602  13.448   2.289
73822ION    CL-40363   4.014  43.234   4.998
73823ION    CL-40364  21.704  32.867   4.980
73824ION    CL-40365  40.097  25.567   0.650
73825ION    CL-40366  26.832  33.828   0.869
73826ION    CL-40367   3.818  44.758  14.404
73827ION    CL-40368  42.596  40.521   4.125
73828ION    CL-40369  26.437  36.992   2.217
73829ION    CL-40370  10.039  18.343   4.867
73830ION    CL-40371   6.438  41.905  14.910
73831ION    CL-40372  33.222  16.660   0.112
73832ION    CL-40373  12.952  33.337   0.600
73833ION    CL-40374  18.766  24.751  12.991
73834ION    CL-40375  14.167   1.545  11.574
73835ION    CL-40376  11.047   1.672  14.004
73836ION    CL-40377  23.956  23.469  11.653
73837ION    CL-40378  34.373  27.219   2.483
73838ION    CL-40379  11.543  12.530  13.482
73839ION    CL-40380  25.758  16.267   3.870
73840ION    CL-40381  10.943  23.862   0.649
73841ION    CL-40382  26.874  23.092   0.721
73842ION    CL-40383  43.813  35.860   1.671
73843ION    CL-40384  36.501  42.997  13.895
73844ION    CL-40385  14.285  29.698  14.866
73845ION    CL-40386  33.899  24.013  10.761
73846ION    CL-40387  38.154   3.581  12.323
73847ION    CL-40388  34.808  30.473   3.252
73848ION    CL-40389  36.381  11.752   0.743
73849ION    CL-40390  19.829  36.281  13.296
73850ION    CL-40391   4.756  36.621  12.947
73851ION    CL-40392  11.341   1.770  14.954
73852ION    CL-40393   4.139  23.300  14.883
73853ION    CL-40394  37.070   0.761   1.432
73854ION    CL-40395  35.135  40.475  10.658
73855ION    CL-40396  43.418   0.255  13.845
73856ION    CL-40397  10.835  36.939   4.327
73857ION    CL-40398  28.398   2.740   4.055
73858ION    CL-40399  31.448  17.893  11.211
73859ION    CL-40400   0.425  13.789   3.419
73860ION    CL-40401  36.234  11.545   2.146
73861ION    CL-40402  27.367  35.542   1.905
73862ION    CL-40403   5.071  29.748   9.418
73863ION    CL-40404  28.555  12.151   2.556
73864ION    CL-40405  33.925  17.071   3.307
73865ION    CL-40406  10.694  32.599  13.066
73866ION    CL-40407  27.052   7.969   3.091
73867ION    CL-40408  10.723  24.486  10.674
73868ION    CL-40409   4.247  34.154   2.118
73869ION    CL-40410   3.586  22.649   5.456
73870ION    CL-40411   2.512  22.724  14.296
73871ION    CL-40412  37.354  12.190   0.347
73872ION    CL-40413  14.844  11.425  14.051
73873ION    CL-40414  40.033  22.301   3.638
73874ION    CL-40415  36.918  37.852   0.590
73875ION    CL-40416  26.014  25.529  12.623
73876ION    CL-40417   6.376  19.585  14.147
73877ION    CL-40418  30.401  31.914   0.275
73878ION    CL-40419  24.869  43.748  14.314
73879ION    CL-40420  17.611   7.856   3.999
73880ION    CL-40421  33.894   4.247   0.935
73881ION    CL-40422  41.141  26.130  14.255
73882ION    CL-40423  29.624   5.049   4.417
73883ION    CL-40424  31.230  15.797  13.226
73884ION    CL-40425  40.255   4.885   0.875
73885ION    CL-40426   0.455  32.594   3.104
73886ION    CL-40427   6.256  27.310  11.181
73887ION    CL-40428  42.480  34.245  11.843
73888ION    CL-40429  32.860   2.432  14.479
73889ION    CL-40430  28.044  23.050  13.663
73890ION    CL-40431   1.895  29.015   4.616
73891ION    CL-40432  10.779   0.929   0.600
73892ION    CL-40433  33.360  19.022  12.479
73893ION    CL-40434  21.467  33.529  11.122
73894ION    CL-40435  40.942  44.828   3.915
73895ION    CL-40436  27.370  43.774   4.277
73896ION    CL-40437  44.147  14.846  10.312
73897ION    CL-40438  40.913   2.179  12.129
73898ION    CL-40439   9.203   9.256   0.567
73899ION    CL-40440   8.446  33.054   3.418
73900ION    CL-40441   8.192  44.222   2.989
73901ION    CL-40442   8.643  12.746  11.777
73902ION    CL-40443  28.393   0.055   4.076
73903ION    CL-40444  24.676  44.372   0.562
73904ION    CL-40445  42.752  30.650  12.368
73905ION    CL-40446  39.598  42.794  13.519
73906ION    CL-40447   6.121   7.664   1.650
73907ION    CL-40448  12.552  19.111  12.574
73908ION    CL-40449  38.443  43.998  10.437
73909ION    CL-40450  10.325  21.430   3.294
73910ION    CL-40451   5.989  22.191   4.005
73911ION    CL-40452  13.032  42.212  11.735
73912ION    CL-40453  12.605  34.561   3.911
73913ION    CL-40454  26.035  34.805  13.868
73914ION    CL-40455  41.961  17.789  13.447
73915ION    CL-40456  35.111   0.079   3.655
73916ION    CL-40457  24.866   6.575  13.554
73917ION    CL-40458  25.023   9.457   4.073
73918ION    CL-40459  36.488  13.110  10.956
73919ION    CL-40460  16.035  42.426  12.888
73920ION    CL-40461  22.624  11.775   3.612
73921ION    CL-40462  22.530   6.874  13.726
73922ION    CL-40463   8.428   5.051   3.942
73923ION    CL-40464   1.696  15.615   2.394
73924ION    CL-40465   5.765   5.376   1.981
73925ION    CL-40466  23.012  16.480   1.643
73926ION    CL-40467   6.621   6.471   4.772
73927ION    CL-40468  24.742  27.634   3.700
73928ION    CL-40469   9.551  44.391   1.916
73929ION    CL-40470  24.509  21.731  13.538
73930ION    CL-40471  25.851   1.111  13.516
73931ION    CL-40472  32.376  24.084   0.794
73932ION    CL-40473   7.329   1.041   2.706
73933ION    CL-40474  28.478  31.668  13.972
73934ION    CL-40475  13.439  26.425   5.298
73935ION    CL-40476  30.120  24.183  13.559
73936ION    CL-40477  32.081  11.634  14.017
73937ION    CL-40478  13.077  32.759  13.040
73938ION    CL-40479   3.307  19.718  12.621
73939ION    CL-40480   3.995  27.170  13.307
73940ION    CL-40481  12.588  33.186  11.369
73941ION    CL-40482  10.904   6.385   0.729
73942ION    CL-40483  43.581  32.646   0.357
73943ION    CL-40484   6.989   2.033   0.119
73944ION    CL-40485  43.456  34.179  12.978
73945ION    CL-40486  19.018   1.003   1.755
73946ION    CL-40487  42.571  32.129   4.563
73947ION    CL-40488  19.807   6.194   4.775
73948ION    CL-40489  26.470  28.134   5.220
73949ION    CL-40490  18.680  31.485  11.887
73950ION    CL-40491  34.527  11.712   0.555
73951ION    CL-40492  19.094  39.804   2.841
73952ION    CL-40493  28.690  25.087   0.217
73953ION    CL-40494  19.625  42.887  10.776
73954ION    CL-40495  21.678  10.765  13.763
73955ION    CL-40496  26.457   7.816  10.399
73956ION    CL-40497  34.666  31.692  13.851
73957ION    CL-40498  11.260  42.261   0.791
73958ION    CL-40499  23.216  28.840  11.103
73959ION    CL-40500  43.231  41.838   5.020
73960ION    CL-40501  28.957  39.412  13.986
73961ION    CL-40502  40.585  18.149   4.608
73962ION    CL-40503  12.622  25.948   2.680
73963ION    CL-40504  24.726  24.498  14.067
73964ION    CL-40505  35.590  21.288  13.928
73965ION    CL-40506  41.505  18.740  13.058
73966ION    CL-40507  14.291  13.104   0.401
73967ION    CL-40508  16.692   1.738   4.351
73968ION    CL-40509   0.251  43.849  10.759
73969ION    CL-40510  12.476  38.833  12.709
73970ION    CL-40511  30.925  31.417   0.762
73971ION    CL-40512  37.899  18.791   4.079
73972ION    CL-40513   9.221  37.537   1.797
73973ION    CL-40514  19.392  16.422   3.014
73974ION    CL-40515  30.060  12.954   2.803
73975ION    CL-40516   1.183  40.320   3.672
73976ION    CL-40517  37.383  29.298   4.715
73977ION    CL-40518  42.025  38.358  13.150
73978ION    CL-40519  39.491   5.641  14.806
73979ION    CL-40520  42.800  21.424   2.845
73980ION    CL-40521  24.119  33.003   4.013
73981ION    CL-40522  29.533  21.311  14.858
73982ION    CL-40523  12.234  37.266   1.244
73983ION    CL-40524  42.839  17.805   1.877
73984ION    CL-40525  30.985   4.688   9.971
73985ION    CL-40526  25.092  18.058  11.521
73986ION    CL-40527  31.564  23.482   4.342
73987ION    CL-40528  44.072  27.938   3.677
73988ION    CL-40529  28.041   2.180   2.295
73989ION    CL-40530  14.327  32.697  12.650
73990ION    CL-40531  39.123  44.173   2.267
73991ION    CL-40532   3.989  18.994  12.512
73992ION    CL-40533  16.885  10.001  10.375
73993ION    CL-40534  20.024  10.505  14.186
73994ION    CL-40535  35.660   9.945  12.825
73995ION    CL-40536   8.335  15.066  12.037
73996ION    CL-40537  39.337  44.152   0.905
73997ION    CL-40538   7.023  44.979  10.458
73998ION    CL-40539   2.220  35.718  11.687
73999ION    CL-40540  44.400  10.965  11.076
74000ION    CL-40541  17.750   2.388  11.360
74001ION    CL-40542   7.587   5.310   0.426
74002ION    CL-40543   0.890   2.640  10.218
74003ION    CL-40544  38.500   9.899  11.974
74004ION    CL-40545  23.932   3.733   1.816
74005ION    CL-40546  43.786   9.293  14.586
74006ION    CL-40547  18.973  30.608   1.811
74007ION    CL-40548   8.652  17.472   2.571
74008ION    CL-40549   1.810   7.514   2.369
74009ION    CL-40550  24.631  28.682   1.328
74010ION    CL-40551  13.474  44.708  14.954
74011ION    CL-40552  14.849  32.524  11.598
74012ION    CL-40553  25.032  40.031   0.330
74013ION    CL-40554  24.252   6.337   3.140
74014ION    CL-40555  10.727  35.766  12.338
74015ION    CL-40556  13.679  38.537  14.281
74016ION    CL-40557   4.707  27.544  11.191
74017ION    CL-40558  34.909  18.150   2.467
74018ION    CL-40559   2.732  36.892   4.165
74019ION    CL-40560  37.236  36.098  10.938
74020ION    CL-40561  19.602  43.419   1.388
74021ION    CL-40562  16.763  41.573   0.090
74022ION    CL-40563  39.732  23.102  11.553
74023ION    CL-40564   8.454  37.203  13.090
74024ION    CL-40565  42.914  37.611   1.896
74025ION    CL-40566   1.777  23.974   4.053
74026ION    CL-40567  40.304  23.879   4.219
74027ION    CL-40568  30.227   3.384   5.130
74028ION    CL-40569  14.082  32.336  14.483
74029ION    CL-40570   9.419   4.438   1.014
74030ION    CL-40571  40.235   7.479   1.200
74031ION    CL-40572   3.139  23.624  10.364
74032ION    CL-40573  39.896  39.925   3.213
74033ION    CL-40574   6.787  29.270  11.412
74034ION    CL-40575   3.449  44.138   4.069
74035ION    CL-40576  18.179  25.044   4.775
74036ION    CL-40577  28.174  21.491   3.280
74037ION    CL-40578  42.567  16.514  14.859
74038ION    CL-40579  44.672  42.425  10.818
74039ION    CL-40580   9.975   1.906   0.086
74040ION    CL-40581  21.062  26.804   3.056
74041ION    CL-40582  29.121   2.708   3.159
74042ION    CL-40583   3.978  19.770  11.881
74043ION    CL-40584   9.378   8.951   2.587
74044ION    CL-40585   8.878  34.487   5.142
74045ION    CL-40586  16.490   4.107   3.286
74046ION    CL-40587  18.394   9.906   1.595
74047ION    CL-40588  23.140  28.620   4.118
74048ION    CL-40589  19.508   6.670   0.718
74049ION    CL-40590  13.046   5.773  11.050
74050ION    CL-40591  14.864  17.294   1.683
74051ION    CL-40592   6.514  31.918   1.623
74052ION    CL-40593  35.421  35.470   4.497
74053ION    CL-40594  15.288  25.969  13.480
74054ION    CL-40595  22.958  15.396  12.704
74055ION    CL-40596  40.501  42.930  13.028
74056ION    CL-40597  44.319  44.838  10.962
74057ION    CL-40598  26.632  14.782   0.449
74058ION    CL-40599   3.377  38.088   3.476
74059ION    CL-40600  18.681  21.859  13.910
74060ION    CL-40601   9.247   7.870   2.716
74061ION    CL-40602  39.336  39.091   1.416
74062ION    CL-40603  16.548  15.028   4.472
74063ION    CL-40604  34.119  17.722  13.940
74064ION    CL-40605   1.726  19.312  14.343
74065ION    CL-40606  37.960   9.410   5.103
74066ION    CL-40607  32.778  34.203  13.425
74067ION    CL-40608  34.508  27.559  14.527
74068ION    CL-40609  26.218  28.136  14.460
74069ION    CL-40610   6.004  37.599  12.733
74070ION    CL-40611  12.379   0.950   0.919
74071ION    CL-40612   0.197  29.860  13.840
74072ION    CL-40613  40.105   6.159   0.428
74073ION    CL-40614  17.491   5.072   0.363
74074ION    CL-40615  34.932   0.749  11.635
74075ION    CL-40616  44.457   1.760  11.443
74076ION    CL-40617   0.552  18.009  11.258
74077ION    CL-40618   0.252  32.513  14.317
74078ION    CL-40619  32.886  35.274   0.217
74079ION    CL-40620  14.270  26.324   4.905
74080ION    CL-40621  31.684  28.750   1.929
74081ION    CL-40622  15.576  40.927  13.067
74082ION    CL-40623   0.818  22.713  11.438
74083ION    CL-40624  21.800  19.745   1.279
74084ION    CL-40625   4.148   9.823   4.590
74085ION    CL-40626  40.618  20.629   1.791
74086ION    CL-40627  34.790  41.631   3.989
74087ION    CL-40628  42.326  27.117  12.012
74088ION    CL-40629  22.064  20.717   4.999
74089ION    CL-40630  29.713  25.345  11.723
74090ION    CL-40631  40.593  43.565  13.795
74091ION    CL-40632  40.537  29.138  13.065
74092ION    CL-40633   7.730  41.302   3.622
74093ION    CL-40634  19.319  41.617   3.417
74094ION    CL-40635  17.557  42.769   2.296
74095ION    CL-40636   4.618  19.206  14.260
74096ION    CL-40637   2.309  40.424   4.102
74097ION    CL-40638  28.707  35.116  14.428
74098ION    CL-40639  38.276   7.166   1.320
74099ION    CL-40640  21.492  19.982  12.634
74100ION    CL-40641  14.111  31.112  14.985
74101ION    CL-40642  24.707   2.810  14.649
74102ION    CL-40643   1.977  39.714  12.185
74103ION    CL-40644  40.200   8.730  11.516
74104ION    CL-40645  15.354  18.152   1.853
74105ION    CL-40646  21.872  40.124   1.377
74106ION    CL-40647  42.291  35.028  14.319
74107ION    CL-40648  14.674   3.363  10.944
74108ION    CL-40649  18.807  34.628   0.219
74109ION    CL-40650  39.897  24.589   3.637
74110ION    CL-40651  33.806   7.798   2.010
74111ION    CL-40652  11.415   3.301  13.071
74112ION    CL-40653   4.453  21.187  13.403
74113ION    CL-40654  13.274  23.374  11.235
74114ION    CL-40655  27.292  10.057   3.728
74115ION    CL-40656  25.348  14.543   4.550
74116ION    CL-40657  15.144   7.802   0.861
74117ION    CL-40658  32.364  26.143   3.320
74118ION    CL-40659  14.815  17.826   2.677
74119ION    CL-40660  38.401   9.518  13.556
74120ION    CL-40661  12.703  23.672   1.665
74121ION    CL-40662  33.813  28.586  14.803
74122ION    CL-40663  26.487  16.627   1.857
74123ION    CL-40664   6.425  23.092   2.663
74124ION    CL-40665  20.554  33.146   0.859
74125ION    CL-40666  14.299   5.376   4.161
74126ION    CL-40667  29.534  14.026   0.934
74127ION    CL-40668  30.916  22.101   2.373
74128ION    CL-40669   4.243  14.181   9.970
74129ION    CL-40670   0.683  38.186   0.134
74130ION    CL-40671  42.969  31.480  11.855
74131ION    CL-40672  43.916  28.639   0.689
74132ION    CL-40673  40.441  18.729   1.681
74133ION    CL-40674  30.364   2.238   2.670
74134ION    CL-40675  14.273  35.323  10.658
74135ION    CL-40676   4.027  12.568  13.793
74136ION    CL-40677  15.340  19.637  14.850
74137ION    CL-40678   7.278   1.446  14.537
74138ION    CL-40679  33.505  33.486   5.060
74139ION    CL-40680   4.489   5.245   2.297
74140ION    CL-40681   7.414   4.868   4.090
74141ION    CL-40682  38.294   4.331   1.805
74142ION    CL-40683  16.445  18.784   2.186
74143ION    CL-40684  14.075   6.418   2.356
74144ION    CL-40685   4.810  16.304   0.772
74145ION    CL-40686  17.557  35.053   2.705
74146ION    CL-40687  33.517  10.263  11.697
74147ION    CL-40688  43.482  42.062  10.701
74148ION    CL-40689  29.537   2.471  10.726
74149ION    CL-40690   3.128   1.858  14.814
74150ION    CL-40691   6.901  38.072  12.827
74151ION    CL-40692  24.986   7.662  14.433
74152ION    CL-40693  20.230  15.221  13.496
74153ION    CL-40694  30.461  31.825   3.348
74154ION    CL-40695  25.726  43.938  14.819
74155ION    CL-40696  38.555  24.443  10.403
74156ION    CL-40697  43.447  43.390  14.467
74157ION    CL-40698  34.512  17.410  13.075
74158ION    CL-40699  30.788  31.945  11.573
74159ION    CL-40700   6.381   3.823   2.164
74160ION    CL-40701  42.325  34.109   0.553
74161ION    CL-40702  12.680  19.539   2.324
74162ION    CL-40703  19.211  11.257  10.279
74163ION    CL-40704  37.899  16.112   0.284
74164ION    CL-40705  10.064   0.127   2.853
74165ION    CL-40706  31.637  10.600   0.917
74166ION    CL-40707  13.151  40.428   0.029
74167ION    CL-40708  26.041   4.026   3.722
74168ION    CL-40709  33.326  31.696   5.078
74169ION    CL-40710  31.458  14.157  14.425
74170ION    CL-40711   3.544  42.944  10.770
74171ION    CL-40712   5.099   0.591   1.287
74172ION    CL-40713  29.246  43.060   3.287
74173ION    CL-40714  15.355  31.398   3.314
74174ION    CL-40715  39.388  10.039  14.665
74175ION    CL-40716  28.762  10.123   3.637
74176ION    CL-40717  43.230  21.031  13.828
74177ION    CL-40718  15.924  13.709   5.336
74178ION    CL-40719   8.384   7.559  11.778
74179ION    CL-40720  39.862  41.383  13.875
74180ION    CL-40721  39.324   5.623   3.748
74181ION    CL-40722  40.834  16.236  13.064
74182ION    CL-40723  16.802   5.957  12.700
74183ION    CL-40724  34.050  13.181   3.552
74184ION    CL-40725   2.350   3.162  11.241
74185ION    CL-40726  20.923  42.308  14.434
74186ION    CL-40727  25.699  42.649   0.031
74187ION    CL-40728  41.148   6.074  10.618
74188ION    CL-40729   6.964  20.646   0.107
74189ION    CL-40730  18.831  16.953  13.849
74190ION    CL-40731   7.187  43.892   4.136
74191ION    CL-40732  38.965  27.075  11.728
74192ION    CL-40733  44.088  13.978  12.603
74193ION    CL-40734  30.221  34.017  11.102
74194ION    CL-40735  32.037  35.527   1.825
74195ION    CL-40736  14.714  10.223  10.692
74196ION    CL-40737  27.965  20.076   1.610
74197ION    CL-40738  40.153  33.808   0.951
74198ION    CL-40739   0.195  23.458  11.195
74199ION    CL-40740  28.401  11.038  11.398
74200ION    CL-40741   2.924  26.372  14.040
74201ION    CL-40742  18.909  12.652  10.603
74202ION    CL-40743  11.480  23.302  11.989
74203ION    CL-40744  20.630  26.298   1.378
74204ION    CL-40745   4.952  41.128  13.163
74205ION    CL-40746  32.892  26.089   0.839
74206ION    CL-40747  22.999   9.748  11.372
74207ION    CL-40748   3.088  29.465   0.269
74208ION    CL-40749  13.885  37.802   3.665
74209ION    CL-40750  12.398  10.220   0.342
74210ION    CL-40751  29.947  20.066   4.921
74211ION    CL-40752  33.997  34.400   9.999
74212ION    CL-40753  10.413  40.774   0.636
74213ION    CL-40754  26.935  18.020  14.891
74214ION    CL-40755   9.351   9.407  11.461
74215ION    CL-40756  26.793  31.720   2.315
74216ION    CL-40757  39.727   7.900   4.305
74217ION    CL-40758  32.550   1.473  12.234
74218ION    CL-40759  14.217  18.521   0.699
74219ION    CL-40760  10.074  41.870   5.363
74220ION    CL-40761  14.952  40.241   4.955
74221ION    CL-40762  40.320  10.923   1.723
74222ION    CL-40763  15.416  36.862   2.452
74223ION    CL-40764  29.981  43.399  12.127
74224ION    CL-40765   0.157  11.516   0.204
74225ION    CL-40766   0.688   4.582   1.734
74226ION    CL-40767  26.483  35.770  13.602
74227ION    CL-40768  22.460  22.627  14.566
74228ION    CL-40769  32.998   0.691  11.136
74229ION    CL-40770   4.327  38.079   5.048
74230ION    CL-40771  27.281  15.806  13.981
74231ION    CL-40772   2.455  12.141   1.992
74232ION    CL-40773  16.749  26.069   4.278
74233ION    CL-40774  36.926  36.417   0.248
74234ION    CL-40775  15.001  41.948  10.463
74235ION    CL-40776  26.710  26.441  13.558
74236ION    CL-40777  14.052  34.894   1.344
74237ION    CL-40778  39.412   5.949  13.265
74238ION    CL-40779  24.075  13.097  13.176
74239ION    CL-40780  10.444  17.708   9.857
74240ION    CL-40781  30.400  30.983  12.605
74241ION    CL-40782  28.088  35.546   1.212
74242ION    CL-40783   2.450  19.750  12.027
74243ION    CL-40784  44.860  35.146  12.436
74244ION    CL-40785   0.295  33.917   2.435
74245ION    CL-40786  34.715  18.547  13.903
74246ION    CL-40787  37.618  12.429  12.220
74247ION    CL-40788  26.370  12.655   1.837
74248ION    CL-40789  41.535  40.042  10.266
74249ION    CL-40790   6.803  43.244   5.061
74250ION    CL-40791  31.509  27.469   3.535
74251ION    CL-40792  44.231  37.056  12.456
74252ION    CL-40793  22.970   9.390  14.473
74253ION    CL-40794  38.100   5.532  14.865
74254ION    CL-40795   1.490  38.322   3.168
74255ION    CL-40796  21.054  40.074  10.730
74256ION    CL-40797  27.995  17.493   0.552
74257ION    CL-40798  23.917  40.980   4.553
74258ION    CL-40799  35.273  33.923   1.991
74259ION    CL-40800  18.452  37.431  13.381
74260ION    CL-40801  24.060  23.084   2.696
74261ION    CL-40802  28.258  12.368   9.703
74262ION    CL-40803  15.304   0.027  14.963
74263ION    CL-40804  15.920  38.731  14.938
74264ION    CL-40805  37.106   4.163  13.030
74265ION    CL-40806  15.299  26.996  10.662
74266ION    CL-40807  14.104  24.188   1.347
74267ION    CL-40808  13.205   1.547   3.847
74268ION    CL-40809  23.774  32.275  12.808
74269ION    CL-40810  44.646   1.668  12.561
74270ION    CL-40811  28.870  30.318   3.709
74271ION    CL-40812   1.629   6.462  12.007
74272ION    CL-40813   3.790   0.564   2.461
74273ION    CL-40814   9.439  15.228   2.504
74274ION    CL-40815  24.651   0.142   2.324
74275ION    CL-40816  41.489   2.715  13.747
74276ION    CL-40817  22.954  39.542   2.282
74277ION    CL-40818  43.032  11.752  11.118
74278ION    CL-40819  35.884  44.766   1.590
74279ION    CL-40820   4.390  28.901  13.677
74280ION    CL-40821  40.942  24.652   5.100
74281ION    CL-40822  30.953  15.355  11.134
74282ION    CL-40823  38.496  20.298   2.396
74283ION    CL-40824   5.178  40.532  12.385
74284ION    CL-40825  38.364  25.370  10.083
74285ION    CL-40826  18.251  28.196  14.007
74286ION    CL-40827   8.851  20.434  10.450
74287ION    CL-40828  36.227   6.541   4.963
74288ION    CL-40829  21.467  17.941  12.035
74289ION    CL-40830  44.083  32.140   2.807
74290ION    CL-40831  26.071  40.417  13.890
74291ION    CL-40832   0.269   5.429  14.389
74292ION    CL-40833  37.990  22.198   1.745
74293ION    CL-40834  23.095  32.810  12.504
74294ION    CL-40835  11.245  16.559   1.247
74295ION    CL-40836  18.794   8.979   0.071
74296ION    CL-40837   5.175  23.860   4.366
74297ION    CL-40838  23.504  16.567  11.088
74298ION    CL-40839  38.666  17.647  14.481
74299ION    CL-40840  39.883  37.262   4.170
74300ION    CL-40841   6.322  36.882   0.360
74301ION    CL-40842  31.117  20.190   0.645
74302ION    CL-40843  32.522  38.608   0.339
74303ION    CL-40844   1.605   9.638   1.875
74304ION    CL-40845  26.371  17.120  13.412
74305ION    CL-40846  37.860  24.844   2.996
74306ION    CL-40847  33.419   8.391  14.908
74307ION    CL-40848  23.630  34.970   2.892
74308ION    CL-40849  38.178   5.521  13.268
74309ION    CL-40850   4.101  10.355   1.588
74310ION    CL-40851  36.238  27.986  11.473
74311ION    CL-40852  36.755  22.338  10.969
74312ION    CL-40853  34.497  12.808  14.391
74313ION    CL-40854  35.361  12.628   0.899
74314ION    CL-40855  22.030  13.387   3.428
74315ION    CL-40856  34.162  23.583  11.625
74316ION    CL-40857  29.256  42.228  14.282
74317ION    CL-40858  41.897  11.102  14.176
74318ION    CL-40859   2.866   7.856  13.528
74319ION    CL-40860  32.798  19.066  10.352
74320ION    CL-40861  38.976  36.529  11.666
74321ION    CL-40862   9.172  22.318   1.414
74322ION    CL-40863  20.620  29.383  12.038
74323ION    CL-40864   7.262   3.393  13.390
74324ION    CL-40865  30.301  33.174  10.761
74325ION    CL-40866  37.109  33.816  12.075
74326ION    CL-40867  14.754  43.557   1.255
74327ION    CL-40868  28.341  15.534   2.295
74328ION    CL-40869  11.188  11.685   2.239
74329ION    CL-40870  29.110   7.495   4.460
74330ION    CL-40871   0.605  23.493   1.928
74331ION    CL-40872  38.837   7.413  11.165
74332ION    CL-40873  38.926   8.159   2.177
74333ION    CL-40874  27.078   0.954   0.700
74334ION    CL-40875  35.404  34.459   2.667
74335ION    CL-40876   8.667  21.018  11.252
74336ION    CL-40877  34.259   1.398  11.488
74337ION    CL-40878  21.701   9.367   1.845
74338ION    CL-40879  28.457  24.634  13.227
74339ION    CL-40880  37.805  29.165  11.980
74340ION    CL-40881  29.113  14.085   1.718
74341ION    CL-40882  23.730  27.472   3.748
74342ION    CL-40883   0.219  40.044   2.633
74343ION    CL-40884  12.298  12.235  13.850
74344ION    CL-40885   9.917  29.978  10.430
74345ION    CL-40886  31.663  35.016  14.776
74346ION    CL-40887   0.959  24.131  13.173
74347ION    CL-40888  24.620  40.415  14.478
74348ION    CL-40889   1.253   4.596   2.834
74349ION    CL-40890  36.263  24.553   0.940
74350ION    CL-40891  14.634  26.050  12.727
74351ION    CL-40892  38.468  15.889   3.495
74352ION    CL-40893  11.540   5.144   4.331
74353ION    CL-40894   6.146  30.025  11.551
74354ION    CL-40895  44.922   1.469   0.046
74355ION    CL-40896  43.528  25.257  12.432
74356ION    CL-40897  12.827  39.850  13.405
74357ION    CL-40898   1.298  36.292  12.174
74358ION    CL-40899  26.606   9.742  13.666
74359ION    CL-40900  11.583  34.898   2.833
74360ION    CL-40901  29.193  24.556  13.503
74361ION    CL-40902  40.511  18.410   0.356
74362ION    CL-40903   2.238  43.383   0.475
74363ION    CL-40904  25.976  24.224  10.703
74364ION    CL-40905  22.996   2.851   2.408
74365ION    CL-40906   3.491   8.670   2.582
74366ION    CL-40907  30.433  22.587   1.645
74367ION    CL-40908  19.510  40.741   2.417
74368ION    CL-40909  21.362  37.400  14.453
74369ION    CL-40910  22.273  23.467   1.739
74370ION    CL-40911  33.889  27.753   3.237
74371ION    CL-40912   2.545  41.080  13.371
74372ION    CL-40913   6.228  12.175  13.027
74373ION    CL-40914   2.100  37.260  13.951
74374ION    CL-40915  11.215   4.762  10.092
74375ION    CL-40916   7.596   8.477  11.858
74376ION    CL-40917  35.827  35.173   4.904
74377ION    CL-40918  17.946  44.174   4.289
74378ION    CL-40919  36.684  10.363  11.282
74379ION    CL-40920  13.906   4.263  13.165
74380ION    CL-40921   0.311   7.399   1.405
74381ION    CL-40922  17.761   3.558   2.302
74382ION    CL-40923  10.870  10.204   1.935
74383ION    CL-40924   4.105  15.050  11.158
74384ION    CL-40925  40.632  14.244   4.067
74385ION    CL-40926  35.512  15.005   0.996
74386ION    CL-40927   6.286   1.699  13.935
74387ION    CL-40928  18.860   4.005  12.721
74388ION    CL-40929  25.191  42.376  14.214
74389ION    CL-40930  35.513  37.481  14.994
74390ION    CL-40931  34.070  32.473  12.276
74391ION    CL-40932  24.532   8.801  13.957
74392ION    CL-40933   2.111   1.223   1.527
74393ION    CL-40934  22.532  11.208  11.654
74394ION    CL-40935  35.410  14.078   0.636
74395ION    CL-40936  14.951   2.148   1.749
74396ION    CL-40937  13.278  28.628  14.541
74397ION    CL-40938  19.337  20.629   3.295
74398ION    CL-40939  43.692   1.383  12.654
74399ION    CL-40940  40.584  29.527  12.029
74400ION    CL-40941   1.485  38.344   4.168
74401ION    CL-40942  41.280  34.013  12.612
74402ION    CL-40943  11.152  11.938   3.206
74403ION    CL-40944  13.869  22.786   5.078
74404ION    CL-40945  38.964  35.370  11.550
74405ION    CL-40946  32.041   0.048  14.987
74406ION    CL-40947  12.618   2.641  11.992
74407ION    CL-40948  10.544  26.228   0.452
74408ION    CL-40949  13.597  17.200  11.619
74409ION    CL-40950  34.420   1.960  14.012
74410ION    CL-40951  17.037  32.928   2.140
74411ION    CL-40952   3.518  12.695  12.034
74412ION    CL-40953  11.438   4.135   4.105
74413ION    CL-40954  23.748  16.160   0.069
74414ION    CL-40955  13.712  20.531   0.507
74415ION    CL-40956  23.170  32.556   1.175
74416ION    CL-40957   7.124  29.038  14.449
74417ION    CL-40958  34.720  37.535  11.359
74418ION    CL-40959  17.320  40.138  12.940
74419ION    CL-40960  23.231  18.277  14.998
74420ION    CL-40961  35.521  20.684  12.343
74421ION    CL-40962   4.431  32.589  11.489
74422ION    CL-40963  13.998  37.878  14.802
74423ION    CL-40964   1.615  15.757   9.854
74424ION    CL-40965  32.538  41.061   1.925
74425ION    CL-40966  26.781  12.301   2.539
74426ION    CL-40967   2.372  33.766  11.168
74427ION    CL-40968  20.754   0.458   2.906
74428ION    CL-40969  19.226  28.185   2.327
74429ION    CL-40970   2.806  35.065  11.081
74430ION    CL-40971  13.368  10.532  12.554
74431ION    CL-40972   6.576  13.716  12.117
74432ION    CL-40973  30.733  18.181   3.080
74433ION    CL-40974  13.108  35.103  11.134
74434ION    CL-40975  32.199  31.913   3.530
74435ION    CL-40976  21.113  13.780   4.578
74436ION    CL-40977   4.694  13.839  14.383
74437ION    CL-40978   8.564  24.298   4.803
74438ION    CL-40979  32.340  33.188   0.797
74439ION    CL-40980   4.815  19.637  10.834
74440ION    CL-40981  42.408  31.366   0.283
74441ION    CL-40982   6.412  38.200  10.963
74442ION    CL-40983  43.319  38.015   4.666
74443ION    CL-40984  42.717  27.594  12.889
74444ION    CL-40985  25.631  21.814   2.666
74445ION    CL-40986   6.274  16.680   1.925
74446ION    CL-40987  27.113  28.669  12.213
74447ION    CL-40988  22.373  42.797  13.456
74448ION    CL-40989  24.478  29.442   4.509
74449ION    CL-40990  13.453   0.433   1.310
74450ION    CL-40991  10.854  34.454  10.381
74451ION    CL-40992  24.455  18.360   4.617
74452ION    CL-40993  34.641   3.759  11.399
74453ION    CL-40994  27.092  42.351  13.726
74454ION    CL-40995  30.501  19.744  12.430
74455ION    CL-40996  23.123  12.700   1.145
74456ION    CL-40997   1.820   1.332  11.426
74457ION    CL-40998  13.477  32.315  13.656
74458ION    CL-40999   7.199  41.787   3.068
74459ION    CL-41000  43.030  15.792   0.373
74460ION    CL-41001   2.262   9.446  11.188
74461ION    CL-41002  40.387   4.397   4.607
74462ION    CL-41003  27.192   6.211  10.688
74463ION    CL-41004   0.220   9.430  11.189
74464ION    CL-41005   3.141  15.517   2.028
74465ION    CL-41006  39.997  18.358  10.711
74466ION    CL-41007  12.134  15.850  12.169
74467ION    CL-41008  27.116  13.209  10.491
74468ION    CL-41009  34.516  38.623   4.605
74469ION    CL-41010  19.010  32.181   4.166
74470ION    CL-41011   0.301  39.905   0.293
74471ION    CL-41012   2.315  19.485   2.401
74472ION    CL-41013   1.173  23.696  11.485
74473ION    CL-41014  30.413  26.986  12.357
74474ION    CL-41015  35.171  26.601   2.898
74475ION    CL-41016  23.154   0.384   2.045
74476ION    CL-41017  17.943   3.998  11.804
74477ION    CL-41018   6.215  14.662  12.460
74478ION    CL-41019  12.539  23.063   3.253
74479ION    CL-41020  15.344  16.545   3.839
74480ION    CL-41021  16.995  25.571  11.938
74481ION    CL-41022  15.162  23.072  11.424
74482ION    CL-41023   5.665  36.700   3.954
74483ION    CL-41024  18.172   4.261   1.386
74484ION    CL-41025  44.405   6.038  12.516
74485ION    CL-41026  17.490  25.032   1.476
74486ION    CL-41027  29.450   6.242   1.993
74487ION    CL-41028  44.708  37.365   2.149
74488ION    CL-41029  15.567  30.019  13.152
74489ION    CL-41030  25.965  27.404   4.761
74490ION    CL-41031  39.827  33.392  11.872
74491ION    CL-41032  14.787  42.031   0.400
74492ION    CL-41033  32.046  11.470  11.064
74493ION    CL-41034  10.744  23.570  12.456
74494ION    CL-41035  30.817  40.741  12.507
74495ION    CL-41036  16.352  39.661   3.361
74496ION    CL-41037   1.515   3.074  12.604
74497ION    CL-41038   0.690  21.849   4.630
74498ION    CL-41039  30.652  14.520   2.711
74499ION    CL-41040  31.696  32.073   0.454
74500ION    CL-41041  13.607  15.706   2.161
74501ION    CL-41042  25.183  29.579  12.799
74502ION    CL-41043   6.215  32.284   2.129
74503ION    CL-41044  22.314  10.851   0.421
74504ION    CL-41045  36.409  26.768   3.428
74505ION    CL-41046   7.680  13.766  12.092
74506ION    CL-41047  41.235   5.999   3.673
74507ION    CL-41048  40.464  39.324   4.191
74508ION    CL-41049   9.493  29.729  11.217
74509ION    CL-41050  26.919  21.312  12.627
74510ION    CL-41051  30.694   5.416   2.757
74511ION    CL-41052  30.400  34.008  14.842
74512ION    CL-41053  16.272  35.428  11.136
74513ION    CL-41054  22.399   7.020  12.379
74514ION    CL-41055   4.846  18.854   2.688
74515ION    CL-41056  27.854  41.555   2.946
74516ION    CL-41057  31.403  22.962  11.957
74517ION    CL-41058  18.045   9.311   3.324
74518ION    CL-41059   6.727  37.813  12.075
74519ION    CL-41060   3.792  31.833  11.635
74520ION    CL-41061   1.379   3.811  14.800
74521ION    CL-41062  25.930   9.264  13.079
74522ION    CL-41063  18.513  40.910   2.519
74523ION    CL-41064   0.886  29.927  13.287
74524ION    CL-41065  40.133  43.633   1.216
74525ION    CL-41066  24.640  38.011  12.956
74526ION    CL-41067   2.256  40.064   0.588
74527ION    CL-41068  34.754   7.866   1.698
74528ION    CL-41069  17.922  33.233   5.462
74529ION    CL-41070  10.729  42.623   2.198
74530ION    CL-41071   5.178  17.957   4.738
74531ION    CL-41072  20.233   9.860  10.746
74532ION    CL-41073   9.971  41.252  14.064
74533ION    CL-41074  37.859  26.002  13.329
74534ION    CL-41075  32.747  10.759  11.111
74535ION    CL-41076  41.776   2.733  12.018
74536ION    CL-41077  18.925  19.072  10.591
74537ION    CL-41078  25.613  34.831  11.451
74538ION    CL-41079  36.115  37.003  11.111
74539ION    CL-41080  17.700  12.317  11.105
74540ION    CL-41081   5.401  17.917  13.098
74541ION    CL-41082   3.079   3.359   1.323
74542ION    CL-41083   4.188  33.728   2.897
74543ION    CL-41084  22.054  22.058   0.142
74544ION    CL-41085  16.102   7.752  13.384
74545ION    CL-41086  35.681   3.501  12.838
74546ION    CL-41087  23.785  12.644  11.180
74547ION    CL-41088  32.003  38.040   0.979
74548ION    CL-41089  21.097   7.235  13.620
74549ION    CL-41090  40.209  32.828  12.618
74550ION    CL-41091  44.018   9.824   0.416
74551ION    CL-41092  18.676  36.277   3.088
74552ION    CL-41093   5.675  33.118  12.746
74553ION    CL-41094   6.782   3.954   0.970
74554ION    CL-41095  26.547  25.675   4.921
74555ION    CL-41096   5.612  18.647   5.260
74556ION    CL-41097  17.429  40.682  11.415
74557ION    CL-41098  35.532  23.074  10.263
74558ION    CL-41099   4.909  39.628  11.417
74559ION    CL-41100  25.263  16.175   0.714
74560ION    CL-41101  22.395  16.786  11.177
74561ION    CL-41102  24.798  28.622  12.395
74562ION    CL-41103   3.039  27.982   1.621
74563ION    CL-41104   9.048   9.029  12.633
74564ION    CL-41105  32.357  29.347   2.668
74565ION    CL-41106  14.578  23.869  11.169
74566ION    CL-41107   4.910  41.669   2.178
74567ION    CL-41108  13.958  28.129  12.180
74568ION    CL-41109  25.151  25.217   3.328
74569ION    CL-41110   6.242   7.470   2.624
74570ION    CL-41111  20.382  38.890   1.761
74571ION    CL-41112  12.276  30.425   5.400
74572ION    CL-41113  15.334  23.469  12.332
74573ION    CL-41114  10.554  31.762  11.671
74574ION    CL-41115  24.209  28.763  13.191
74575ION    CL-41116   7.442   7.266   2.121
74576ION    CL-41117  30.628   8.436  11.178
74577ION    CL-41118  42.326  14.477   0.029
74578ION    CL-41119  20.805  25.721  13.368
74579ION    CL-41120  36.290  27.371   5.135
74580ION    CL-41121  25.871   4.936   0.459
74581ION    CL-41122  40.365  10.038  14.292
74582ION    CL-41123  13.255  30.001   4.808
74583ION    CL-41124  19.977  39.914  11.642
74584ION    CL-41125  40.249  20.791  13.283
74585ION    CL-41126  41.565  34.504   1.699
74586ION    CL-41127   4.147  40.415  12.381
74587ION    CL-41128  44.294  42.358  13.701
74588ION    CL-41129  28.323  14.945   4.818
74589ION    CL-41130  23.719  31.223   2.215
74590ION    CL-41131  29.094  29.593   2.453
74591ION    CL-41132  42.079   0.161  11.065
74592ION    CL-41133   1.836  23.731   2.831
74593ION    CL-41134   1.811   2.224  12.735
74594ION    CL-41135   3.290  33.124  14.999
74595ION    CL-41136  34.242   8.461  11.773
74596ION    CL-41137  42.706  10.952  10.078
74597ION    CL-41138  18.131  21.840   2.610
74598ION    CL-41139  33.187   0.311   4.205
74599ION    CL-41140  14.053  42.751   1.326
74600ION    CL-41141  36.188  34.026   3.380
74601ION    CL-41142  34.948  18.518  12.005
74602ION    CL-41143  33.452   3.147  13.345
74603ION    CL-41144  38.956  15.210   2.413
74604ION    CL-41145  43.793  32.861   1.209
74605ION    CL-41146   4.163  38.937  14.491
74606ION    CL-41147  37.521   5.185  13.737
74607ION    CL-41148  41.132  42.313   2.755
74608ION    CL-41149   2.887   3.060  13.871
74609ION    CL-41150  44.711  41.076  14.605
74610ION    CL-41151  24.775  29.087   2.413
74611ION    CL-41152  31.682  37.239   2.657
74612ION    CL-41153  23.964  22.050   3.051
74613ION    CL-41154   7.336   3.369   1.565
74614ION    CL-41155  15.291  21.801  14.605
74615ION    CL-41156   3.216  12.919   2.952
74616ION    CL-41157   8.247  28.530  12.204
74617ION    CL-41158   0.979  18.877  11.006
74618ION    CL-41159  30.837   9.737   2.613
74619ION    CL-41160  42.561  16.283  13.887
74620ION    CL-41161   0.405   8.921  12.030
74621ION    CL-41162  34.979   1.117   3.682
74622ION    CL-41163   3.604  19.777  13.574
74623ION    CL-41164  13.160  41.234  11.568
74624ION    CL-41165   8.866  20.055   5.131
74625ION    CL-41166  35.752  36.173   4.005
74626ION    CL-41167  35.014  17.726  14.388
74627ION    CL-41168  31.136  32.583   3.122
74628ION    CL-41169  10.933   7.331   0.402
74629ION    CL-41170  42.787  43.463  13.719
74630ION    CL-41171   5.961  26.718  12.820
74631ION    CL-41172   8.257   1.300   1.709
74632ION    CL-41173  19.662  25.290   3.830
74633ION    CL-41174   6.025  25.213   2.197
74634ION    CL-41175  43.226   0.642   4.058
74635ION    CL-41176   3.423  25.583  13.025
74636ION    CL-41177  28.998  36.138  10.853
74637ION    CL-41178  10.888  16.011  10.530
74638ION    CL-41179  19.379  19.140  12.892
74639ION    CL-41180  32.363  29.028   5.025
74640ION    CL-41181   5.445   1.947  14.417
74641ION    CL-41182  12.890   1.415   5.073
74642ION    CL-41183  38.542  10.029   0.371
74643ION    CL-41184   0.213  22.486   4.216
74644ION    CL-41185  20.114  43.799   2.911
74645ION    CL-41186  31.841  34.759   1.345
74646ION    CL-41187  36.144  10.728   0.806
74647ION    CL-41188  13.599  12.160   0.395
74648ION    CL-41189   7.824  18.983  14.238
74649ION    CL-41190  44.305  25.772   2.992
74650ION    CL-41191   1.163   6.077  11.020
74651ION    CL-41192   1.278  12.668  13.343
74652ION    CL-41193  14.593   8.942  11.841
74653ION    CL-41194  18.697  21.492  11.305
74654ION    CL-41195   8.664  33.652  13.602
74655ION    CL-41196  12.286  17.584   4.755
74656ION    CL-41197  11.592  27.440   3.638
74657ION    CL-41198  10.122  14.638   0.760
74658ION    CL-41199  21.863  28.455  13.702
74659ION    CL-41200  12.413  29.882   1.539
74660ION    CL-41201  35.120   2.002  12.119
74661ION    CL-41202   7.287  35.496  14.311
74662ION    CL-41203   1.646  39.264  14.492
74663ION    CL-41204  12.380  17.966  14.237
74664ION    CL-41205  41.670   3.828   0.916
74665ION    CL-41206   2.354  19.655  13.033
74666ION    CL-41207   5.673  41.328  11.082
74667ION    CL-41208  27.628  19.733  13.021
74668ION    CL-41209  43.393   3.567   2.340
74669ION    CL-41210  10.296  33.373   3.391
74670ION    CL-41211  33.673  26.732  11.501
74671ION    CL-41212  11.707   4.435   1.577
74672ION    CL-41213  23.963  10.921   4.016
74673ION    CL-41214   9.842  21.490  10.237
74674ION    CL-41215   7.143  30.473  11.710
74675ION    CL-41216  21.858  29.385   3.951
74676ION    CL-41217  16.823  39.412   1.791
74677ION    CL-41218  17.357  20.853  13.805
74678ION    CL-41219  20.700  25.222   3.793
74679ION    CL-41220  25.001  32.108  12.781
74680ION    CL-41221  17.751  36.544   1.072
74681ION    CL-41222  28.588  32.431   1.917
74682ION    CL-41223   0.642  43.112   0.325
74683ION    CL-41224  33.559   0.617  12.314
74684ION    CL-41225  35.852  22.808   0.600
74685ION    CL-41226  24.468  32.929  10.685
74686ION    CL-41227  19.270  13.606  10.281
74687ION    CL-41228  27.474   5.723  14.021
74688ION    CL-41229  43.138   0.560  12.783
74689ION    CL-41230  12.360  13.381  14.606
74690ION    CL-41231  13.033  20.715  14.263
74691ION    CL-41232  27.557  28.146   3.727
74692ION    CL-41233  23.419  10.930  12.740
74693ION    CL-41234  17.493  30.781   1.538
74694ION    CL-41235  22.305  41.037  10.975
74695ION    CL-41236  23.229  32.011  11.523
74696ION    CL-41237  11.302   9.732  11.589
74697ION    CL-41238  26.395  21.180   4.466
74698ION    CL-41239   9.399  18.518  11.219
74699ION    CL-41240   6.883  24.726   9.779
74700ION    CL-41241   9.464  16.165  14.229
74701ION    CL-41242  32.628  15.218  11.496
74702ION    CL-41243   4.661  40.315   1.236
74703ION    CL-41244  10.734  39.064  11.525
74704ION    CL-41245   6.283  32.044  11.971
74705ION    CL-41246  40.611  24.963  13.778
74706ION    CL-41247   7.782   3.501   0.680
74707ION    CL-41248  18.043  12.339   4.983
74708ION    CL-41249  18.088  38.080   0.342
74709ION    CL-41250  24.875  19.831  14.776
74710ION    CL-41251   1.177  34.109   4.693
74711ION    CL-41252   8.897  20.734   4.693
74712ION    CL-41253  11.160  44.285   4.143
74713ION    CL-41254  16.543  10.321   2.653
74714ION    CL-41255   3.479  18.811   3.561
74715ION    CL-41256  18.281  13.643  11.447
74716ION    CL-41257  19.904  23.560  10.085
74717ION    CL-41258  30.085  41.843  12.685
74718ION    CL-41259   1.991   3.708   3.414
74719ION    CL-41260  18.415  11.053   5.332
74720ION    CL-41261   6.809  12.004   4.245
74721ION    CL-41262  28.119  23.570   2.711
74722ION    CL-41263  24.153   5.831  12.531
74723ION    CL-41264   2.134  38.044  11.058
74724ION    CL-41265  17.297  30.698  12.754
74725ION    CL-41266  36.039  11.907   3.266
74726ION    CL-41267  24.122  22.695  12.750
74727ION    CL-41268  17.300  10.370   4.773
74728ION    CL-41269  38.024  40.891  14.217
74729ION    CL-41270   8.827  15.904   2.474
74730ION    CL-41271  23.609  20.238  11.670
74731ION    CL-41272  31.569  43.940   4.565
74732ION    CL-41273  15.907   0.511   2.150
74733ION    CL-41274  30.537  36.937   0.313
74734ION    CL-41275  23.397   4.978  13.792
74735ION    CL-41276  39.637  26.614   0.870
74736ION    CL-41277  39.437  16.039   2.128
74737ION    CL-41278   1.831  42.878  12.100
74738ION    CL-41279  32.831   6.306   1.376
74739ION    CL-41280  34.412  36.801  10.754
74740ION    CL-41281   4.635  12.342  11.530
74741ION    CL-41282  44.348   6.669   1.829
74742ION    CL-41283  44.419   0.367   4.012
74743ION    CL-41284  12.923  12.658  14.614
74744ION    CL-41285   0.800  40.003   1.164
74745ION    CL-41286  39.268  10.417   1.546
74746ION    CL-41287  23.684  19.425  12.727
74747ION    CL-41288  26.054  19.057  13.363
74748ION    CL-41289  16.477  16.401  11.512
74749ION    CL-41290  27.505   1.404  13.416
74750ION    CL-41291  37.803  11.483  12.486
74751ION    CL-41292  39.921  13.328   0.552
74752ION    CL-41293  31.444   8.211   3.379
74753ION    CL-41294  17.668  39.708  14.767
74754ION    CL-41295  12.617  29.959  12.385
74755ION    CL-41296  36.071  18.334  14.921
74756ION    CL-41297  36.499  18.643  13.230
74757ION    CL-41298  29.213   6.346  11.113
74758ION    CL-41299  21.664  38.214  10.661
74759ION    CL-41300   0.914  44.352  11.610
74760ION    CL-41301  36.069  38.308  13.973
74761ION    CL-41302  34.414   1.352   0.837
74762ION    CL-41303  43.805  12.321  10.444
74763ION    CL-41304  17.262  22.057   3.705
74764ION    CL-41305  25.970  44.873  12.952
74765ION    CL-41306  26.869  25.489  12.105
74766ION    CL-41307  15.008  32.169  14.125
74767ION    CL-41308  44.303  31.362  12.944
74768ION    CL-41309  35.065  34.445  12.878
74769ION    CL-41310  41.012  11.649  12.070
74770ION    CL-41311   9.022  21.755   3.612
74771ION    CL-41312  43.134  15.814   1.036
74772ION    CL-41313  39.731   5.214  13.705
74773ION    CL-41314  33.080   3.465   1.523
74774ION    CL-41315   5.412  30.565  13.307
74775ION    CL-41316  14.759   6.429   0.824
74776ION    CL-41317   8.198   1.115   2.521
74777ION    CL-41318  15.068   2.556  13.872
74778ION    CL-41319  16.446  44.269   4.387
74779ION    CL-41320  15.317  28.982   1.488
74780ION    CL-41321  12.920  22.234  13.048
74781ION    CL-41322  29.300  11.578   2.171
74782ION    CL-41323  40.259   8.708   9.721
74783ION    CL-41324  43.813  13.611  10.462
74784ION    CL-41325  28.182  38.894  14.349
74785ION    CL-41326  44.043  27.146  12.337
74786ION    CL-41327  26.940  35.833  11.585
74787ION    CL-41328   4.815  11.890   2.641
74788ION    CL-41329  28.530   3.422  11.866
74789ION    CL-41330  26.089   6.272   4.732
74790ION    CL-41331   6.872  33.823   4.425
74791ION    CL-41332  27.107  14.878   1.693
74792ION    CL-41333   7.336   0.640  13.224
74793ION    CL-41334  12.837  13.209   3.473
74794ION    CL-41335  30.905  42.454  10.927
74795ION    CL-41336  30.125  44.244   0.313
74796ION    CL-41337  35.616  30.204   3.579
74797ION    CL-41338  12.298   9.632  11.553
74798ION    CL-41339  15.064  11.655   3.875
74799ION    CL-41340  20.114   5.143   0.803
74800ION    CL-41341  34.724  15.336   3.772
74801ION    CL-41342  15.756  44.203  13.918
74802ION    CL-41343  22.325  37.346  13.477
74803ION    CL-41344  15.543  26.822   1.761
74804ION    CL-41345  38.611  17.379   2.142
74805ION    CL-41346  38.766  19.287   4.467
74806ION    CL-41347  16.334  26.968   3.288
74807ION    CL-41348  36.858  14.184   2.301
74808ION    CL-41349  28.736  12.173   4.394
74809ION    CL-41350  32.224  10.922   3.361
74810ION    CL-41351  16.915  27.078  11.439
74811ION    CL-41352  10.083   4.612  11.119
74812ION    CL-41353   9.432  14.226  14.459
74813ION    CL-41354  31.137  33.885   3.765
74814ION    CL-41355  40.710  39.384  11.744
74815ION    CL-41356  41.775  44.990   3.921
74816ION    CL-41357  28.233  15.818   1.516
74817ION    CL-41358   8.334  41.831  12.794
74818ION    CL-41359  26.616  25.186   3.701
74819ION    CL-41360  26.909  27.358   2.868
74820ION    CL-41361  30.542  16.898   5.449
74821ION    CL-41362  38.242   6.340  14.456
74822ION    CL-41363  40.879  40.727   2.185
74823ION    CL-41364  44.915  23.223   3.609
74824ION    CL-41365  26.300  38.859   3.687
74825ION    CL-41366  35.452   1.939   2.526
74826ION    CL-41367  13.364  30.009  13.082
74827ION    CL-41368  10.151  14.510   4.429
74828ION    CL-41369  10.142  39.272  12.304
74829ION    CL-41370  22.340  28.563  11.973
74830ION    CL-41371  37.902  24.187  14.409
74831ION    CL-41372  23.084  27.248  13.114
74832ION    CL-41373  32.173  30.185  11.964
74833ION    CL-41374  14.284  24.732  14.448
74834ION    CL-41375  35.677  32.852  11.446
74835ION    CL-41376  38.738  14.719  14.826
74836ION    CL-41377  26.083   8.389  11.007
74837ION    CL-41378  22.250  16.344  12.062
74838ION    CL-41379  37.347   9.942   2.782
74839ION    CL-41380  19.667  11.414  12.399
74840ION    CL-41381   1.078  24.684   0.207
74841ION    CL-41382  32.174  44.979  13.551
74842ION    CL-41383  42.361  29.971   2.647
74843ION    CL-41384  24.286   0.687   3.078
74844ION    CL-41385  12.237  14.265  14.443
74845ION    CL-41386  35.045  35.769   9.897
74846ION    CL-41387  42.995   9.304  12.613
74847ION    CL-41388  40.791  40.278   1.296
74848ION    CL-41389   3.679  12.630   2.114
74849ION    CL-41390  18.527  16.339  14.578
74850ION    CL-41391  31.510  32.611  14.632
74851ION    CL-41392  14.267  25.956  10.295
74852ION    CL-41393  40.625  20.403  10.735
74853ION    CL-41394  44.658  28.068  13.711
74854ION    CL-41395   0.875   9.874  14.477
74855ION    CL-41396  19.681  34.689   2.277
74856ION    CL-41397  13.121  36.702  10.946
74857ION    CL-41398  28.235  23.797  14.300
74858ION    CL-41399  22.995  29.967  13.195
74859ION    CL-41400  23.743   9.329  11.950
74860ION    CL-41401   3.397  23.242   2.868
74861ION    CL-41402  29.429   4.884   5.183
74862ION    CL-41403  12.553  33.608  13.427
74863ION    CL-41404  16.085   7.774  12.384
74864ION    CL-41405  11.182   9.392  13.338
74865ION    CL-41406  24.646  18.751   1.115
74866ION    CL-41407  20.691   7.662   2.358
74867ION    CL-41408   5.304  27.345  14.050
74868ION    CL-41409   0.878  34.038   0.960
74869ION    CL-41410  26.934  30.507  13.164
74870ION    CL-41411   2.825  42.828  12.504
74871ION    CL-41412  35.372  16.290  14.072
74872ION    CL-41413  19.709  44.237  14.382
74873ION    CL-41414  29.574  42.776  11.600
74874ION    CL-41415   8.491  17.384   4.183
74875ION    CL-41416   8.381  20.449   0.032
74876ION    CL-41417  15.474  14.307  12.440
74877ION    CL-41418  13.605  16.177  13.178
74878ION    CL-41419  28.565   8.529   4.945
74879ION    CL-41420  41.850  17.471   4.765
74880ION    CL-41421  39.849  14.725   1.904
74881ION    CL-41422  30.287  27.246  14.187
74882ION    CL-41423  39.873  29.374   1.074
74883ION    CL-41424  27.921  20.315  11.508
74884ION    CL-41425  42.843  10.011  10.390
74885ION    CL-41426  21.793  30.454   0.346
74886ION    CL-41427   8.815  12.394   2.376
74887ION    CL-41428  35.086  29.767  11.209
74888ION    CL-41429  11.079   4.921  12.110
74889ION    CL-41430  37.107  34.128   2.953
74890ION    CL-41431  29.648  11.266   4.686
74891ION    CL-41432  19.989   6.491  11.982
74892ION    CL-41433  28.367  36.790   0.837
74893ION    CL-41434   6.589  15.269  11.020
74894ION    CL-41435   1.013  37.869  10.718
74895ION    CL-41436  11.010  37.748   2.736
74896ION    CL-41437  42.429  43.909   0.085
74897ION    CL-41438  23.612  39.339   0.319
74898ION    CL-41439  42.534  11.778  14.569
74899ION    CL-41440  40.280  19.948  13.819
74900ION    CL-41441   2.406  28.813   9.969
74901ION    CL-41442   7.097  27.589   2.667
74902ION    CL-41443  36.201  16.684  13.608
74903ION    CL-41444   2.457  15.865  12.599
74904ION    CL-41445  41.472  30.008  12.179
74905ION    CL-41446  37.025  39.219   0.280
74906ION    CL-41447  25.534  19.332  14.183
74907ION    CL-41448  29.493  42.489   4.304
74908ION    CL-41449   3.559   9.521   5.080
74909ION    CL-41450   0.129  18.311   3.937
74910ION    CL-41451  22.513  26.262  14.555
74911ION    CL-41452   7.908  22.134   2.789
74912ION    CL-41453   7.736  26.765   2.708
74913ION    CL-41454  30.128  11.288   3.660
74914ION    CL-41455  25.681  12.090   4.903
74915ION    CL-41456   8.277   6.684   4.676
74916ION    CL-41457   8.315  20.628   3.313
74917ION    CL-41458   0.678  23.932   3.189
74918ION    CL-41459   3.919  19.089  10.765
74919ION    CL-41460  17.757  20.756   0.368
74920ION    CL-41461  39.043  32.704  13.226
74921ION    CL-41462  14.510   6.433   4.950
74922ION    CL-41463  29.155  36.524   2.321
74923ION    CL-41464  30.016  30.604   1.851
74924ION    CL-41465  34.355  16.422  13.069
74925ION    CL-41466  27.225  29.519   3.584
74926ION    CL-41467  15.607  19.952   4.209
74927ION    CL-41468  21.706  32.436   0.775
74928ION    CL-41469  41.207  35.447   2.602
74929ION    CL-41470   0.051   0.750  12.431
74930ION    CL-41471   4.555  10.162   0.848
74931ION    CL-41472   6.662  44.901  14.806
74932ION    CL-41473  10.706  40.541  12.972
74933ION    CL-41474  13.631  29.037  10.178
74934ION    CL-41475  22.598   3.954  10.047
74935ION    CL-41476  11.918   6.208   0.475
74936ION    CL-41477  24.053   8.169   0.276
74937ION    CL-41478  28.069  28.082   1.005
74938ION    CL-41479  43.601   7.124   1.537
74939ION    CL-41480  34.563  16.182   0.230
74940ION    CL-41481  23.468  27.907  10.783
74941ION    CL-41482  31.828  39.128  11.168
74942ION    CL-41483  36.687  13.263   4.890
74943ION    CL-41484  26.218   1.056  11.650
74944ION    CL-41485  19.559  20.309  14.391
74945ION    CL-41486  22.176  38.621  11.545
74946ION    CL-41487  40.191  17.750   2.794
74947ION    CL-41488  11.256   0.506   2.532
74948ION    CL-41489  37.103  15.149   2.393
74949ION    CL-41490  41.190  10.831   1.433
74950ION    CL-41491  13.593  27.009   3.788
74951ION    CL-41492  12.682  24.284  12.012
74952ION    CL-41493   3.658  35.036   1.007
74953ION    CL-41494  42.281  28.416  11.192
74954ION    CL-41495  33.694  33.649  13.482
74955ION    CL-41496  28.864  16.057   1.896
74956ION    CL-41497  27.194   3.385   4.113
74957ION    CL-41498  36.381  19.575  12.887
74958ION    CL-41499   2.876  43.513  10.996
74959ION    CL-41500  35.402  11.688   1.874
74960ION    CL-41501  23.808  12.721  10.037
74961ION    CL-41502  43.694  42.400   2.324
74962ION    CL-41503   2.433  14.937   2.431
74963ION    CL-41504  35.194  29.904  12.410
74964ION    CL-41505  22.106  12.510   3.176
74965ION    CL-41506  17.785   0.279   1.449
74966ION    CL-41507   2.298  34.158  12.085
74967ION    CL-41508  32.547  33.342  13.878
74968ION    CL-41509  23.854   8.247   1.977
74969ION    CL-41510  12.862  36.779   4.519
74970ION    CL-41511   2.199  12.077  12.248
74971ION    CL-41512  19.938  34.716   1.433
74972ION    CL-41513  27.391  10.784  13.113
74973ION    CL-41514   5.273  39.079   3.137
74974ION    CL-41515  20.119   4.932   2.685
74975ION    CL-41516  21.677   7.647   0.262
74976ION    CL-41517  42.650   9.571   0.549
74977ION    CL-41518  44.470  39.680  11.163
74978ION    CL-41519  35.503  35.396   0.767
74979ION    CL-41520   3.143  10.333  14.661
74980ION    CL-41521   2.095  18.528   3.927
74981ION    CL-41522  18.265  34.621  12.967
74982ION    CL-41523  20.727  12.938  13.474
74983ION    CL-41524  16.650  32.630   1.008
74984ION    CL-41525  39.501  17.343  10.003
74985ION    CL-41526  37.618  30.135   4.980
  45.00000  45.00000  15.00000
